                         Program Version 4.2.1 -  RELEASE  -
|  1> ! wB97X-D3 SP def2-SVP
|  2> %pal
|  3> nprocs 24
|  4> end
|  5>
|  6> * xyz 0 1
|  7> S 	 -111.224 	 31.4319 	 -19.7641
|  8> C 	 -111.553 	 29.7982 	 -19.415
|  9> C 	 -110.537 	 28.9988 	 -19.8894
| 10> C 	 -109.318 	 29.7529 	 -20.1316
| 11> C 	 -109.566 	 31.0922 	 -20.2335
| 12> H 	 -108.377 	 29.3336 	 -20.3853
| 13> C 	 -110.661 	 27.4501 	 -20.0481
| 14> H 	 -109.793 	 27.1853 	 -19.4057
| 15> H 	 -110.469 	 27.2619 	 -21.1245
| 16> C 	 -111.92 	 26.7888 	 -19.6004
| 17> H 	 -112.023 	 26.7755 	 -18.5747
| 18> H 	 -112.748 	 27.4094 	 -19.9102
| 19> C 	 -112.146 	 25.4081 	 -20.2075
| 20> H 	 -111.377 	 24.7656 	 -19.8059
| 21> H 	 -113.013 	 24.9295 	 -19.822
| 22> H 	 -112.194 	 25.3082 	 -21.2677
| 23> S 	 -108.565 	 33.6556 	 -19.8614
| 24> C 	 -107.408 	 34.2073 	 -21.0417
| 25> C 	 -107.127 	 33.3018 	 -22.0244
| 26> C 	 -107.697 	 32.0168 	 -21.7408
| 27> C 	 -108.636 	 32.1062 	 -20.7084
| 28> H 	 -106.389 	 33.4495 	 -22.8076
| 29> C 	 -107.512 	 30.842 	 -22.7099
| 30> H 	 -107.477 	 31.2356 	 -23.723
| 31> H 	 -108.46 	 30.2823 	 -22.6646
| 32> C 	 -106.333 	 29.8683 	 -22.3515
| 33> H 	 -106.512 	 29.358 	 -21.4038
| 34> H 	 -105.501 	 30.5465 	 -22.2527
| 35> C 	 -106.154 	 28.8397 	 -23.5656
| 36> H 	 -106.988 	 28.1895 	 -23.7736
| 37> H 	 -105.33 	 28.1529 	 -23.321
| 38> H 	 -105.944 	 29.4026 	 -24.4502
| 39> H 	 -112.497 	 29.4161 	 -19.0888
| 40> H 	 -106.998 	 35.2097 	 -21.1452
| 41> *
| 42>
| 43>                          ****END OF INPUT****

CARTESIAN COORDINATES (ANGSTROEM)
---------------------------------
  S    -111.224000   31.431900  -19.764100
  C    -111.553000   29.798200  -19.415000
  C    -110.537000   28.998800  -19.889400
  C    -109.318000   29.752900  -20.131600
  C    -109.566000   31.092200  -20.233500
  H    -108.377000   29.333600  -20.385300
  C    -110.661000   27.450100  -20.048100
  H    -109.793000   27.185300  -19.405700
  H    -110.469000   27.261900  -21.124500
  C    -111.920000   26.788800  -19.600400
  H    -112.023000   26.775500  -18.574700
  H    -112.748000   27.409400  -19.910200
  C    -112.146000   25.408100  -20.207500
  H    -111.377000   24.765600  -19.805900
  H    -113.013000   24.929500  -19.822000
  H    -112.194000   25.308200  -21.267700
  S    -108.565000   33.655600  -19.861400
  C    -107.408000   34.207300  -21.041700
  C    -107.127000   33.301800  -22.024400
  C    -107.697000   32.016800  -21.740800
  C    -108.636000   32.106200  -20.708400
  H    -106.389000   33.449500  -22.807600
  C    -107.512000   30.842000  -22.709900
  H    -107.477000   31.235600  -23.723000
  H    -108.460000   30.282300  -22.664600
  C    -106.333000   29.868300  -22.351500
  H    -106.512000   29.358000  -21.403800
  H    -105.501000   30.546500  -22.252700
  C    -106.154000   28.839700  -23.565600
  H    -106.988000   28.189500  -23.773600
  H    -105.330000   28.152900  -23.321000
  H    -105.944000   29.402600  -24.450200
  H    -112.497000   29.416100  -19.088800
  H    -106.998000   35.209700  -21.145200

 Total Charge           Charge          ....    0
 Multiplicity           Mult            ....    1
 Number of Electrons    NEL             ....  134
 Basis Dimension        Dim             ....  322

ORBITAL ENERGIES
----------------

  NO   OCC          E(Eh)            E(eV)
   0   2.0000     -88.968655     -2420.9602
   1   2.0000     -88.960388     -2420.7352
   2   2.0000     -10.327395      -281.0227
   3   2.0000     -10.326082      -280.9870
   4   2.0000     -10.315454      -280.6978
   5   2.0000     -10.304576      -280.4018
   6   2.0000     -10.303623      -280.3758
   7   2.0000     -10.301663      -280.3225
   8   2.0000     -10.296570      -280.1839
   9   2.0000     -10.296168      -280.1730
  10   2.0000     -10.293405      -280.0978
  11   2.0000     -10.291882      -280.0564
  12   2.0000     -10.290512      -280.0191
  13   2.0000     -10.283117      -279.8178
  14   2.0000     -10.279731      -279.7257
  15   2.0000     -10.273353      -279.5521
  16   2.0000      -8.083187      -219.9547
  17   2.0000      -8.076027      -219.7599
  18   2.0000      -6.041735      -164.4040
  19   2.0000      -6.037825      -164.2976
  20   2.0000      -6.034562      -164.2088
  21   2.0000      -6.033810      -164.1883
  22   2.0000      -6.030489      -164.0979
  23   2.0000      -6.026626      -163.9928
  24   2.0000      -1.007700       -27.4209
  25   2.0000      -0.985652       -26.8210
  26   2.0000      -0.916137       -24.9294
  27   2.0000      -0.902328       -24.5536
  28   2.0000      -0.870854       -23.6971
  29   2.0000      -0.851956       -23.1829
  30   2.0000      -0.846065       -23.0226
  31   2.0000      -0.815095       -22.1799
  32   2.0000      -0.783022       -21.3071
  33   2.0000      -0.769421       -20.9370
  34   2.0000      -0.716256       -19.4903
  35   2.0000      -0.708314       -19.2742
  36   2.0000      -0.691967       -18.8294
  37   2.0000      -0.663756       -18.0617
  38   2.0000      -0.640244       -17.4219
  39   2.0000      -0.612367       -16.6633
  40   2.0000      -0.590806       -16.0767
  41   2.0000      -0.577557       -15.7161
  42   2.0000      -0.568129       -15.4596
  43   2.0000      -0.563562       -15.3353
  44   2.0000      -0.525286       -14.2938
  45   2.0000      -0.521602       -14.1935
  46   2.0000      -0.514598       -14.0029
  47   2.0000      -0.511798       -13.9267
  48   2.0000      -0.506488       -13.7822
  49   2.0000      -0.499723       -13.5982
  50   2.0000      -0.493653       -13.4330
  51   2.0000      -0.481453       -13.1010
  52   2.0000      -0.477582       -12.9957
  53   2.0000      -0.465054       -12.6548
  54   2.0000      -0.460013       -12.5176
  55   2.0000      -0.455019       -12.3817
  56   2.0000      -0.448083       -12.1929
  57   2.0000      -0.445082       -12.1113
  58   2.0000      -0.438442       -11.9306
  59   2.0000      -0.427819       -11.6415
  60   2.0000      -0.425729       -11.5847
  61   2.0000      -0.415950       -11.3186
  62   2.0000      -0.406243       -11.0544
  63   2.0000      -0.351045        -9.5524
  64   2.0000      -0.333740        -9.0815
  65   2.0000      -0.321814        -8.7570
  66   2.0000      -0.288175        -7.8416
  67   0.0000       0.028801         0.7837
  68   0.0000       0.082947         2.2571
  69   0.0000       0.111767         3.0413
  70   0.0000       0.119757         3.2588
  71   0.0000       0.127615         3.4726

MULLIKEN ATOMIC CHARGES
-----------------------
   0 S :    0.107711
   1 C :   -0.106373
   2 C :   -0.150033
   3 C :    0.042476
   4 C :   -0.119005
   5 H :   -0.028148
   6 C :    0.065662
   7 H :    0.042371
   8 H :    0.044044
   9 C :   -0.052841
  10 H :    0.012207
  11 H :    0.020187
  12 C :   -0.015616
  13 H :    0.019280
  14 H :    0.015060
  15 H :    0.034090
  16 S :    0.121999
  17 C :   -0.076219
  18 C :   -0.031382
  19 C :   -0.037018
  20 C :   -0.157689
  21 H :    0.021264
  22 C :    0.004370
  23 H :    0.025836
  24 H :    0.033784
  25 C :   -0.064411
  26 H :    0.043405
  27 H :    0.029341
  28 C :   -0.040275
  29 H :    0.031990
  30 H :    0.038770
  31 H :    0.029595
  32 H :    0.040679
  33 H :    0.054890
Sum of atomic charges:   -0.0000000

LOEWDIN ATOMIC CHARGES
----------------------
   0 S :    0.409163
   1 C :   -0.219081
   2 C :   -0.058381
   3 C :   -0.063785
   4 C :   -0.186862
   5 H :    0.021740
   6 C :   -0.032700
   7 H :    0.039280
   8 H :    0.037555
   9 C :   -0.041387
  10 H :    0.018066
  11 H :    0.021974
  12 C :   -0.056274
  13 H :    0.025437
  14 H :    0.023945
  15 H :    0.022995
  16 S :    0.404305
  17 C :   -0.186139
  18 C :   -0.072886
  19 C :   -0.051245
  20 C :   -0.194082
  21 H :    0.032307
  22 C :   -0.035132
  23 H :    0.028932
  24 H :    0.030397
  25 C :   -0.028065
  26 H :    0.021124
  27 H :    0.022359
  28 C :   -0.062439
  29 H :    0.023948
  30 H :    0.028461
  31 H :    0.022359
  32 H :    0.022501
  33 H :    0.031608

  Mayer bond orders larger than 0.100000
B(  0-S ,  1-C ) :   1.1252 B(  0-S ,  4-C ) :   1.1473 B(  1-C ,  2-C ) :   1.6347
B(  1-C , 32-H ) :   0.9617 B(  2-C ,  3-C ) :   1.2233 B(  2-C ,  6-C ) :   0.9884
B(  3-C ,  4-C ) :   1.5761 B(  3-C ,  5-H ) :   0.9979 B(  4-C , 20-C ) :   1.0614
B(  6-C ,  7-H ) :   0.9357 B(  6-C ,  8-H ) :   0.9425 B(  6-C ,  9-C ) :   1.0907
B(  9-C , 10-H ) :   0.9456 B(  9-C , 11-H ) :   0.9448 B(  9-C , 12-C ) :   1.0926
B( 12-C , 13-H ) :   0.9720 B( 12-C , 14-H ) :   0.9686 B( 12-C , 15-H ) :   0.9772
B( 16-S , 17-C ) :   1.1420 B( 16-S , 20-C ) :   1.1330 B( 17-C , 18-C ) :   1.6368
B( 17-C , 33-H ) :   0.9608 B( 18-C , 19-C ) :   1.2379 B( 18-C , 21-H ) :   0.9820
B( 19-C , 20-C ) :   1.5937 B( 19-C , 22-C ) :   1.0336 B( 22-C , 23-H ) :   0.9496
B( 22-C , 24-H ) :   0.9363 B( 22-C , 25-C ) :   1.0428 B( 25-C , 26-H ) :   0.9538
B( 25-C , 27-H ) :   0.9583 B( 25-C , 28-C ) :   1.0696 B( 28-C , 29-H ) :   0.9779
B( 28-C , 30-H ) :   0.9771 B( 28-C , 31-H ) :   0.9772

Dispersion correction           -0.013879826
FINAL SINGLE POINT ENERGY     -1339.873414611746

DIPOLE MOMENT
-------------
                                X             Y             Z
Electronic contribution:     -4.05750      29.83989      11.04156
Nuclear contribution   :      4.28649     -30.45435     -11.48201
                        -----------------------------------------
Total Dipole Moment    :      0.22899      -0.61446      -0.44046
                        -----------------------------------------
Magnitude (a.u.)       :      0.78994
Magnitude (Debye)      :      2.00786

Rotational constants in cm-1:     0.018772     0.008412     0.006009
Rotational constants in MHz :   562.760207   252.181418   180.133046

                             ****ORCA TERMINATED NORMALLY****
TOTAL RUN TIME: 0 days 0 hours 0 minutes 21 seconds 375 msec
