                         Program Version 4.2.1 -  RELEASE  -
|  1> ! wB97X-D3 SP def2-SVP
|  2> %pal
|  3> nprocs 24
|  4> end
|  5>
|  6> * xyz 0 1
|  7> S 	 -33.8457 	 14.9386 	 13.3066
|  8> C 	 -34.0858 	 16.2104 	 12.1098
|  9> C 	 -34.5212 	 15.6804 	 10.9254
| 10> C 	 -34.3136 	 14.2632 	 10.833
| 11> C 	 -33.912 	 13.7391 	 12.0424
| 12> H 	 -34.6014 	 13.7367 	 9.94152
| 13> C 	 -35.0087 	 16.4332 	 9.76817
| 14> H 	 -35.7668 	 17.2186 	 10.0607
| 15> H 	 -35.6851 	 15.8903 	 9.1707
| 16> C 	 -33.9212 	 16.9585 	 8.88149
| 17> H 	 -33.1707 	 17.4679 	 9.4763
| 18> H 	 -33.3737 	 16.0981 	 8.50627
| 19> C 	 -34.4132 	 17.7687 	 7.64709
| 20> H 	 -35.1683 	 18.466 	 7.79452
| 21> H 	 -33.5869 	 18.2322 	 7.11981
| 22> H 	 -34.8657 	 17.1242 	 6.86838
| 23> S 	 -32.7525 	 11.447 	 11.2421
| 24> C 	 -33.0063 	 10.0219 	 12.1415
| 25> C 	 -33.8402 	 10.1969 	 13.2127
| 26> C 	 -34.4683 	 11.4796 	 13.2591
| 27> C 	 -33.8754 	 12.3204 	 12.3319
| 28> H 	 -34.1238 	 9.36498 	 13.807
| 29> C 	 -35.4192 	 11.8656 	 14.3049
| 30> H 	 -36.0848 	 10.985 	 14.4628
| 31> H 	 -36.0558 	 12.7596 	 14.0234
| 32> C 	 -34.8479 	 12.3502 	 15.6532
| 33> H 	 -35.6738 	 12.5891 	 16.2443
| 34> H 	 -34.2933 	 13.2339 	 15.4515
| 35> C 	 -34.0781 	 11.2782 	 16.3599
| 36> H 	 -33.1167 	 10.9541 	 15.9427
| 37> H 	 -34.7288 	 10.4059 	 16.4807
| 38> H 	 -34.015 	 11.6323 	 17.3869
| 39> H 	 -34.0955 	 17.2872 	 12.3148
| 40> H 	 -32.5564 	 9.0795 	 11.9013
| 41> *
| 42>
| 43>                          ****END OF INPUT****

CARTESIAN COORDINATES (ANGSTROEM)
---------------------------------
  S    -33.845700   14.938600   13.306600
  C    -34.085800   16.210400   12.109800
  C    -34.521200   15.680400   10.925400
  C    -34.313600   14.263200   10.833000
  C    -33.912000   13.739100   12.042400
  H    -34.601400   13.736700    9.941520
  C    -35.008700   16.433200    9.768170
  H    -35.766800   17.218600   10.060700
  H    -35.685100   15.890300    9.170700
  C    -33.921200   16.958500    8.881490
  H    -33.170700   17.467900    9.476300
  H    -33.373700   16.098100    8.506270
  C    -34.413200   17.768700    7.647090
  H    -35.168300   18.466000    7.794520
  H    -33.586900   18.232200    7.119810
  H    -34.865700   17.124200    6.868380
  S    -32.752500   11.447000   11.242100
  C    -33.006300   10.021900   12.141500
  C    -33.840200   10.196900   13.212700
  C    -34.468300   11.479600   13.259100
  C    -33.875400   12.320400   12.331900
  H    -34.123800    9.364980   13.807000
  C    -35.419200   11.865600   14.304900
  H    -36.084800   10.985000   14.462800
  H    -36.055800   12.759600   14.023400
  C    -34.847900   12.350200   15.653200
  H    -35.673800   12.589100   16.244300
  H    -34.293300   13.233900   15.451500
  C    -34.078100   11.278200   16.359900
  H    -33.116700   10.954100   15.942700
  H    -34.728800   10.405900   16.480700
  H    -34.015000   11.632300   17.386900
  H    -34.095500   17.287200   12.314800
  H    -32.556400    9.079500   11.901300

 Total Charge           Charge          ....    0
 Multiplicity           Mult            ....    1
 Number of Electrons    NEL             ....  134
 Basis Dimension        Dim             ....  322

ORBITAL ENERGIES
----------------

  NO   OCC          E(Eh)            E(eV)
   0   2.0000     -88.969927     -2420.9948
   1   2.0000     -88.961706     -2420.7711
   2   2.0000     -10.328429      -281.0508
   3   2.0000     -10.323456      -280.9155
   4   2.0000     -10.313650      -280.6487
   5   2.0000     -10.308150      -280.4990
   6   2.0000     -10.298413      -280.2341
   7   2.0000     -10.295808      -280.1632
   8   2.0000     -10.292357      -280.0693
   9   2.0000     -10.289374      -279.9881
  10   2.0000     -10.286031      -279.8971
  11   2.0000     -10.285203      -279.8746
  12   2.0000     -10.284313      -279.8504
  13   2.0000     -10.275534      -279.6115
  14   2.0000     -10.274339      -279.5790
  15   2.0000     -10.271174      -279.4929
  16   2.0000      -8.083950      -219.9755
  17   2.0000      -8.076860      -219.7825
  18   2.0000      -6.042574      -164.4268
  19   2.0000      -6.038678      -164.3208
  20   2.0000      -6.035232      -164.2270
  21   2.0000      -6.034539      -164.2081
  22   2.0000      -6.031395      -164.1226
  23   2.0000      -6.027656      -164.0209
  24   2.0000      -1.008919       -27.4541
  25   2.0000      -0.986588       -26.8464
  26   2.0000      -0.918909       -25.0048
  27   2.0000      -0.915910       -24.9232
  28   2.0000      -0.868914       -23.6443
  29   2.0000      -0.854729       -23.2584
  30   2.0000      -0.849215       -23.1083
  31   2.0000      -0.811143       -22.0723
  32   2.0000      -0.786335       -21.3973
  33   2.0000      -0.773800       -21.0562
  34   2.0000      -0.711485       -19.3605
  35   2.0000      -0.708699       -19.2847
  36   2.0000      -0.690939       -18.8014
  37   2.0000      -0.665774       -18.1166
  38   2.0000      -0.639071       -17.3900
  39   2.0000      -0.621295       -16.9063
  40   2.0000      -0.596178       -16.2228
  41   2.0000      -0.571384       -15.5481
  42   2.0000      -0.561560       -15.2808
  43   2.0000      -0.552565       -15.0360
  44   2.0000      -0.541887       -14.7455
  45   2.0000      -0.530345       -14.4314
  46   2.0000      -0.520743       -14.1701
  47   2.0000      -0.513192       -13.9647
  48   2.0000      -0.503203       -13.6929
  49   2.0000      -0.494868       -13.4660
  50   2.0000      -0.491039       -13.3618
  51   2.0000      -0.481671       -13.1069
  52   2.0000      -0.473188       -12.8761
  53   2.0000      -0.464777       -12.6472
  54   2.0000      -0.459882       -12.5140
  55   2.0000      -0.447263       -12.1706
  56   2.0000      -0.445430       -12.1208
  57   2.0000      -0.442155       -12.0316
  58   2.0000      -0.438277       -11.9261
  59   2.0000      -0.427599       -11.6356
  60   2.0000      -0.419200       -11.4070
  61   2.0000      -0.412706       -11.2303
  62   2.0000      -0.406401       -11.0587
  63   2.0000      -0.345760        -9.4086
  64   2.0000      -0.331996        -9.0341
  65   2.0000      -0.327886        -8.9222
  66   2.0000      -0.288179        -7.8418
  67   0.0000       0.031793         0.8651
  68   0.0000       0.071182         1.9370
  69   0.0000       0.094631         2.5750
  70   0.0000       0.118954         3.2369
  71   0.0000       0.132127         3.5954

MULLIKEN ATOMIC CHARGES
-----------------------
   0 S :    0.101244
   1 C :   -0.112476
   2 C :   -0.087789
   3 C :    0.027058
   4 C :   -0.099492
   5 H :    0.015363
   6 C :    0.058597
   7 H :    0.021865
   8 H :   -0.005100
   9 C :   -0.049226
  10 H :    0.022438
  11 H :    0.020491
  12 C :   -0.020464
  13 H :    0.015446
  14 H :    0.033605
  15 H :    0.022324
  16 S :    0.104568
  17 C :   -0.072120
  18 C :   -0.031404
  19 C :   -0.004954
  20 C :   -0.181927
  21 H :    0.004577
  22 C :   -0.016675
  23 H :    0.027347
  24 H :    0.037233
  25 C :   -0.008237
  26 H :    0.014486
  27 H :    0.019053
  28 C :   -0.046100
  29 H :    0.055582
  30 H :    0.010601
  31 H :    0.025047
  32 H :    0.052578
  33 H :    0.046462
Sum of atomic charges:   -0.0000000

LOEWDIN ATOMIC CHARGES
----------------------
   0 S :    0.414659
   1 C :   -0.194701
   2 C :   -0.059262
   3 C :   -0.056955
   4 C :   -0.196451
   5 H :    0.031703
   6 C :   -0.043950
   7 H :    0.034712
   8 H :    0.022737
   9 C :   -0.034269
  10 H :    0.021934
  11 H :    0.027165
  12 C :   -0.064559
  13 H :    0.013658
  14 H :    0.029300
  15 H :    0.029311
  16 S :    0.408410
  17 C :   -0.194082
  18 C :   -0.069561
  19 C :   -0.061712
  20 C :   -0.176771
  21 H :    0.024605
  22 C :   -0.044187
  23 H :    0.032652
  24 H :    0.036803
  25 C :   -0.029642
  26 H :    0.020726
  27 H :    0.008927
  28 C :   -0.068163
  29 H :    0.028810
  30 H :    0.022605
  31 H :    0.028228
  32 H :    0.032408
  33 H :    0.024914

  Mayer bond orders larger than 0.100000
B(  0-S ,  1-C ) :   1.1215 B(  0-S ,  4-C ) :   1.1473 B(  1-C ,  2-C ) :   1.6195
B(  1-C , 32-H ) :   0.9672 B(  2-C ,  3-C ) :   1.2482 B(  2-C ,  6-C ) :   1.0511
B(  3-C ,  4-C ) :   1.5430 B(  3-C ,  5-H ) :   0.9954 B(  4-C , 20-C ) :   1.0300
B(  6-C ,  7-H ) :   0.9301 B(  6-C ,  8-H ) :   0.9291 B(  6-C ,  9-C ) :   1.0618
B(  9-C , 10-H ) :   0.9600 B(  9-C , 11-H ) :   0.9501 B(  9-C , 12-C ) :   1.0715
B( 12-C , 13-H ) :   0.9783 B( 12-C , 14-H ) :   0.9740 B( 12-C , 15-H ) :   0.9721
B( 16-S , 17-C ) :   1.1549 B( 16-S , 20-C ) :   1.1376 B( 17-C , 18-C ) :   1.6231
B( 17-C , 33-H ) :   0.9669 B( 18-C , 19-C ) :   1.2157 B( 18-C , 21-H ) :   0.9880
B( 19-C , 20-C ) :   1.5957 B( 19-C , 22-C ) :   1.0743 B( 22-C , 23-H ) :   0.9249
B( 22-C , 24-H ) :   0.9318 B( 22-C , 25-C ) :   1.0826 B( 25-C , 26-H ) :   0.9472
B( 25-C , 27-H ) :   0.9443 B( 25-C , 28-C ) :   1.0960 B( 28-C , 29-H ) :   0.9707
B( 28-C , 30-H ) :   0.9682 B( 28-C , 31-H ) :   0.9689

Dispersion correction           -0.014644291
FINAL SINGLE POINT ENERGY     -1339.875159428810

DIPOLE MOMENT
-------------
                                X             Y             Z
Electronic contribution:      7.45295      -8.26530       1.47177
Nuclear contribution   :     -7.86656       8.36864      -1.55508
                        -----------------------------------------
Total Dipole Moment    :     -0.41361       0.10335      -0.08331
                        -----------------------------------------
Magnitude (a.u.)       :      0.43439
Magnitude (Debye)      :      1.10412

Rotational constants in cm-1:     0.025967     0.007524     0.006225
Rotational constants in MHz :   778.460440   225.574227   186.622934

                             ****ORCA TERMINATED NORMALLY****
TOTAL RUN TIME: 0 days 0 hours 0 minutes 20 seconds 602 msec
