                         Program Version 4.2.1 -  RELEASE  -
|  1> ! wB97X-D3 SP def2-SVP
|  2> %pal
|  3> nprocs 24
|  4> end
|  5>
|  6> * xyz 0 1
|  7> S 	 -45.4967 	 16.222 	 24.6788
|  8> C 	 -46.8685 	 17.1442 	 24.1421
|  9> C 	 -47.9074 	 17.2656 	 25.057
| 10> C 	 -47.5217 	 16.5717 	 26.2675
| 11> C 	 -46.3053 	 15.9268 	 26.1954
| 12> H 	 -48.0253 	 16.4988 	 27.207
| 13> C 	 -49.1516 	 18.182 	 24.8966
| 14> H 	 -49.9264 	 17.6369 	 24.3412
| 15> H 	 -48.8368 	 19.043 	 24.2687
| 16> C 	 -49.8015 	 18.7249 	 26.1876
| 17> H 	 -49.0276 	 19.0205 	 26.8914
| 18> H 	 -50.3875 	 19.6186 	 25.9399
| 19> C 	 -50.9618 	 17.7916 	 26.7125
| 20> H 	 -50.6437 	 16.7426 	 26.8769
| 21> H 	 -51.3102 	 18.1131 	 27.7093
| 22> H 	 -51.7934 	 17.7743 	 26.0481
| 23> S 	 -45.3847 	 13.7093 	 27.52
| 24> C 	 -44.5812 	 13.7914 	 29.0158
| 25> C 	 -44.2699 	 15.0945 	 29.2442
| 26> C 	 -44.896 	 16.0086 	 28.3796
| 27> C 	 -45.5706 	 15.3919 	 27.3259
| 28> H 	 -43.6567 	 15.3567 	 30.0999
| 29> C 	 -44.6019 	 17.4459 	 28.5573
| 30> H 	 -44.6673 	 17.8289 	 27.5505
| 31> H 	 -43.563 	 17.6069 	 28.9755
| 32> C 	 -45.6842 	 18.2798 	 29.3064
| 33> H 	 -46.5551 	 18.3246 	 28.6246
| 34> H 	 -45.3414 	 19.4087 	 29.4382
| 35> C 	 -46.1207 	 17.5802 	 30.6183
| 36> H 	 -45.3307 	 17.3716 	 31.3578
| 37> H 	 -46.5035 	 16.5706 	 30.4109
| 38> H 	 -46.8353 	 18.1809 	 31.1547
| 39> H 	 -46.9716 	 17.5057 	 23.1624
| 40> H 	 -44.1619 	 12.9435 	 29.6346
| 41> *
| 42>
| 43>                          ****END OF INPUT****

CARTESIAN COORDINATES (ANGSTROEM)
---------------------------------
  S    -45.496700   16.222000   24.678800
  C    -46.868500   17.144200   24.142100
  C    -47.907400   17.265600   25.057000
  C    -47.521700   16.571700   26.267500
  C    -46.305300   15.926800   26.195400
  H    -48.025300   16.498800   27.207000
  C    -49.151600   18.182000   24.896600
  H    -49.926400   17.636900   24.341200
  H    -48.836800   19.043000   24.268700
  C    -49.801500   18.724900   26.187600
  H    -49.027600   19.020500   26.891400
  H    -50.387500   19.618600   25.939900
  C    -50.961800   17.791600   26.712500
  H    -50.643700   16.742600   26.876900
  H    -51.310200   18.113100   27.709300
  H    -51.793400   17.774300   26.048100
  S    -45.384700   13.709300   27.520000
  C    -44.581200   13.791400   29.015800
  C    -44.269900   15.094500   29.244200
  C    -44.896000   16.008600   28.379600
  C    -45.570600   15.391900   27.325900
  H    -43.656700   15.356700   30.099900
  C    -44.601900   17.445900   28.557300
  H    -44.667300   17.828900   27.550500
  H    -43.563000   17.606900   28.975500
  C    -45.684200   18.279800   29.306400
  H    -46.555100   18.324600   28.624600
  H    -45.341400   19.408700   29.438200
  C    -46.120700   17.580200   30.618300
  H    -45.330700   17.371600   31.357800
  H    -46.503500   16.570600   30.410900
  H    -46.835300   18.180900   31.154700
  H    -46.971600   17.505700   23.162400
  H    -44.161900   12.943500   29.634600

 Total Charge           Charge          ....    0
 Multiplicity           Mult            ....    1
 Number of Electrons    NEL             ....  134
 Basis Dimension        Dim             ....  322

ORBITAL ENERGIES
----------------

  NO   OCC          E(Eh)            E(eV)
   0   2.0000     -88.969896     -2420.9939
   1   2.0000     -88.960582     -2420.7405
   2   2.0000     -10.325673      -280.9759
   3   2.0000     -10.320142      -280.8253
   4   2.0000     -10.313825      -280.6534
   5   2.0000     -10.312116      -280.6070
   6   2.0000     -10.308710      -280.5143
   7   2.0000     -10.302366      -280.3416
   8   2.0000     -10.297444      -280.2077
   9   2.0000     -10.296421      -280.1799
  10   2.0000     -10.295186      -280.1463
  11   2.0000     -10.295016      -280.1416
  12   2.0000     -10.285839      -279.8919
  13   2.0000     -10.283906      -279.8393
  14   2.0000     -10.283629      -279.8318
  15   2.0000     -10.274055      -279.5713
  16   2.0000      -8.084707      -219.9960
  17   2.0000      -8.077167      -219.7909
  18   2.0000      -6.043086      -164.4407
  19   2.0000      -6.039234      -164.3359
  20   2.0000      -6.035574      -164.2363
  21   2.0000      -6.035460      -164.2332
  22   2.0000      -6.031239      -164.1183
  23   2.0000      -6.028197      -164.0356
  24   2.0000      -1.016008       -27.6470
  25   2.0000      -0.990656       -26.9571
  26   2.0000      -0.907700       -24.6998
  27   2.0000      -0.906357       -24.6632
  28   2.0000      -0.872925       -23.7535
  29   2.0000      -0.846578       -23.0366
  30   2.0000      -0.842181       -22.9169
  31   2.0000      -0.817287       -22.2395
  32   2.0000      -0.783342       -21.3158
  33   2.0000      -0.771868       -21.0036
  34   2.0000      -0.710416       -19.3314
  35   2.0000      -0.698026       -18.9943
  36   2.0000      -0.683780       -18.6066
  37   2.0000      -0.658851       -17.9282
  38   2.0000      -0.649272       -17.6676
  39   2.0000      -0.620173       -16.8758
  40   2.0000      -0.586766       -15.9667
  41   2.0000      -0.572221       -15.5709
  42   2.0000      -0.550286       -14.9740
  43   2.0000      -0.544225       -14.8091
  44   2.0000      -0.543161       -14.7802
  45   2.0000      -0.538853       -14.6629
  46   2.0000      -0.514276       -13.9942
  47   2.0000      -0.507805       -13.8181
  48   2.0000      -0.503037       -13.6883
  49   2.0000      -0.493028       -13.4160
  50   2.0000      -0.489598       -13.3226
  51   2.0000      -0.480332       -13.0705
  52   2.0000      -0.477592       -12.9959
  53   2.0000      -0.467236       -12.7141
  54   2.0000      -0.464134       -12.6297
  55   2.0000      -0.450045       -12.2463
  56   2.0000      -0.440980       -11.9997
  57   2.0000      -0.433747       -11.8029
  58   2.0000      -0.428798       -11.6682
  59   2.0000      -0.426171       -11.5967
  60   2.0000      -0.420020       -11.4293
  61   2.0000      -0.416459       -11.3324
  62   2.0000      -0.408712       -11.1216
  63   2.0000      -0.337245        -9.1769
  64   2.0000      -0.331480        -9.0200
  65   2.0000      -0.320564        -8.7230
  66   2.0000      -0.309544        -8.4231
  67   0.0000       0.045487         1.2378
  68   0.0000       0.056526         1.5381
  69   0.0000       0.112201         3.0531
  70   0.0000       0.120801         3.2872
  71   0.0000       0.131294         3.5727

MULLIKEN ATOMIC CHARGES
-----------------------
   0 S :    0.132192
   1 C :   -0.109885
   2 C :   -0.069146
   3 C :    0.033411
   4 C :   -0.165731
   5 H :    0.012444
   6 C :    0.050636
   7 H :    0.040546
   8 H :    0.039646
   9 C :   -0.081939
  10 H :    0.042906
  11 H :    0.035318
  12 C :   -0.072285
  13 H :    0.035650
  14 H :    0.035997
  15 H :    0.033169
  16 S :    0.116402
  17 C :   -0.107191
  18 C :   -0.053482
  19 C :   -0.041117
  20 C :   -0.185214
  21 H :    0.016430
  22 C :    0.075768
  23 H :    0.018826
  24 H :    0.044454
  25 C :   -0.107143
  26 H :    0.031574
  27 H :    0.049071
  28 C :   -0.058408
  29 H :    0.023386
  30 H :    0.047066
  31 H :    0.030097
  32 H :    0.027424
  33 H :    0.079126
Sum of atomic charges:    0.0000000

LOEWDIN ATOMIC CHARGES
----------------------
   0 S :    0.421238
   1 C :   -0.189457
   2 C :   -0.060254
   3 C :   -0.052021
   4 C :   -0.207148
   5 H :    0.029149
   6 C :   -0.032789
   7 H :    0.034493
   8 H :    0.036751
   9 C :   -0.042803
  10 H :    0.024722
  11 H :    0.031810
  12 C :   -0.067008
  13 H :    0.023933
  14 H :    0.028640
  15 H :    0.020794
  16 S :    0.450876
  17 C :   -0.213775
  18 C :   -0.080449
  19 C :   -0.063192
  20 C :   -0.228735
  21 H :    0.029762
  22 C :   -0.037925
  23 H :    0.030090
  24 H :    0.037857
  25 C :   -0.044668
  26 H :    0.022405
  27 H :    0.035174
  28 C :   -0.075909
  29 H :    0.023439
  30 H :    0.029699
  31 H :    0.021673
  32 H :    0.015601
  33 H :    0.048028

  Mayer bond orders larger than 0.100000
B(  0-S ,  1-C ) :   1.1582 B(  0-S ,  4-C ) :   1.1490 B(  1-C ,  2-C ) :   1.6259
B(  1-C , 32-H ) :   0.9699 B(  2-C ,  3-C ) :   1.2235 B(  2-C ,  6-C ) :   1.0026
B(  3-C ,  4-C ) :   1.6082 B(  3-C ,  5-H ) :   0.9931 B(  4-C , 20-C ) :   1.0021
B(  6-C ,  7-H ) :   0.9360 B(  6-C ,  8-H ) :   0.9496 B(  6-C ,  9-C ) :   1.0745
B(  9-C , 10-H ) :   0.9616 B(  9-C , 11-H ) :   0.9551 B(  9-C , 12-C ) :   1.0621
B( 12-C , 13-H ) :   0.9818 B( 12-C , 14-H ) :   0.9750 B( 12-C , 15-H ) :   0.9755
B( 16-S , 17-C ) :   1.1862 B( 16-S , 20-C ) :   1.1730 B( 17-C , 18-C ) :   1.5630
B( 17-C , 20-C ) :   0.1020 B( 17-C , 33-H ) :   0.9599 B( 18-C , 19-C ) :   1.2805
B( 18-C , 21-H ) :   0.9920 B( 19-C , 20-C ) :   1.5471 B( 19-C , 22-C ) :   1.0393
B( 22-C , 23-H ) :   0.9252 B( 22-C , 24-H ) :   0.9473 B( 22-C , 25-C ) :   1.0635
B( 25-C , 26-H ) :   0.9529 B( 25-C , 27-H ) :   0.9570 B( 25-C , 28-C ) :   1.0737
B( 28-C , 29-H ) :   0.9756 B( 28-C , 30-H ) :   0.9655 B( 28-C , 31-H ) :   0.9755

Dispersion correction           -0.015666977
FINAL SINGLE POINT ENERGY     -1339.878678281493

DIPOLE MOMENT
-------------
                                X             Y             Z
Electronic contribution:     16.13400     -18.94206     -12.50344
Nuclear contribution   :    -16.40358      19.45409      12.69755
                        -----------------------------------------
Total Dipole Moment    :     -0.26958       0.51204       0.19411
                        -----------------------------------------
Magnitude (a.u.)       :      0.61035
Magnitude (Debye)      :      1.55140

Rotational constants in cm-1:     0.018055     0.009605     0.007771
Rotational constants in MHz :   541.265525   287.951842   232.981959

                             ****ORCA TERMINATED NORMALLY****
TOTAL RUN TIME: 0 days 0 hours 0 minutes 22 seconds 561 msec
