                         Program Version 4.2.1 -  RELEASE  -
|  1> ! wB97X-D3 SP def2-SVP
|  2> %pal
|  3> nprocs 24
|  4> end
|  5>
|  6> * xyz 0 1
|  7> S 	 -33.7154 	 -1.38821 	 11.1284
|  8> C 	 -32.6669 	 -2.34729 	 12.096
|  9> C 	 -33.1715 	 -2.35616 	 13.4128
| 10> C 	 -34.3668 	 -1.60214 	 13.6037
| 11> C 	 -34.837 	 -1.02317 	 12.4308
| 12> H 	 -34.8861 	 -1.52534 	 14.5169
| 13> C 	 -32.4574 	 -3.12311 	 14.4759
| 14> H 	 -32.4394 	 -4.12309 	 14.0758
| 15> H 	 -33.0724 	 -3.16458 	 15.392
| 16> C 	 -30.9682 	 -2.81351 	 14.869
| 17> H 	 -30.5083 	 -3.5814 	 15.5483
| 18> H 	 -30.3439 	 -2.79971 	 13.9653
| 19> C 	 -30.8678 	 -1.45339 	 15.5795
| 20> H 	 -31.5829 	 -1.38309 	 16.3448
| 21> H 	 -29.8736 	 -1.321 	 16.0278
| 22> H 	 -31.0339 	 -0.678749 	 14.8352
| 23> S 	 -36.8062 	 -0.534617 	 10.531
| 24> C 	 -38.0417 	 0.600041 	 10.9359
| 25> C 	 -38.0805 	 0.915745 	 12.3024
| 26> C 	 -36.8954 	 0.498655 	 12.965
| 27> C 	 -36.1035 	 -0.325364 	 12.1754
| 28> H 	 -38.9261 	 1.53872 	 12.6967
| 29> C 	 -36.5603 	 1.00554 	 14.431
| 30> H 	 -36.5741 	 2.1174 	 14.5011
| 31> H 	 -35.5559 	 0.673542 	 14.7096
| 32> C 	 -37.4697 	 0.455622 	 15.5287
| 33> H 	 -37.3409 	 -0.598921 	 15.5619
| 34> H 	 -38.4202 	 0.730983 	 15.1161
| 35> C 	 -37.2848 	 1.00783 	 16.947
| 36> H 	 -38.1712 	 1.59237 	 17.1716
| 37> H 	 -36.4479 	 1.69488 	 17.0073
| 38> H 	 -37.0345 	 0.300073 	 17.6365
| 39> H 	 -31.8826 	 -3.07969 	 11.8475
| 40> H 	 -38.704 	 0.857617 	 10.1943
| 41> *
| 42>
| 43>                          ****END OF INPUT****

CARTESIAN COORDINATES (ANGSTROEM)
---------------------------------
  S    -33.715400   -1.388210   11.128400
  C    -32.666900   -2.347290   12.096000
  C    -33.171500   -2.356160   13.412800
  C    -34.366800   -1.602140   13.603700
  C    -34.837000   -1.023170   12.430800
  H    -34.886100   -1.525340   14.516900
  C    -32.457400   -3.123110   14.475900
  H    -32.439400   -4.123090   14.075800
  H    -33.072400   -3.164580   15.392000
  C    -30.968200   -2.813510   14.869000
  H    -30.508300   -3.581400   15.548300
  H    -30.343900   -2.799710   13.965300
  C    -30.867800   -1.453390   15.579500
  H    -31.582900   -1.383090   16.344800
  H    -29.873600   -1.321000   16.027800
  H    -31.033900   -0.678749   14.835200
  S    -36.806200   -0.534617   10.531000
  C    -38.041700    0.600041   10.935900
  C    -38.080500    0.915745   12.302400
  C    -36.895400    0.498655   12.965000
  C    -36.103500   -0.325364   12.175400
  H    -38.926100    1.538720   12.696700
  C    -36.560300    1.005540   14.431000
  H    -36.574100    2.117400   14.501100
  H    -35.555900    0.673542   14.709600
  C    -37.469700    0.455622   15.528700
  H    -37.340900   -0.598921   15.561900
  H    -38.420200    0.730983   15.116100
  C    -37.284800    1.007830   16.947000
  H    -38.171200    1.592370   17.171600
  H    -36.447900    1.694880   17.007300
  H    -37.034500    0.300073   17.636500
  H    -31.882600   -3.079690   11.847500
  H    -38.704000    0.857617   10.194300

 Total Charge           Charge          ....    0
 Multiplicity           Mult            ....    1
 Number of Electrons    NEL             ....  134
 Basis Dimension        Dim             ....  322

ORBITAL ENERGIES
----------------

  NO   OCC          E(Eh)            E(eV)
   0   2.0000     -88.968159     -2420.9467
   1   2.0000     -88.967769     -2420.9361
   2   2.0000     -10.334439      -281.2144
   3   2.0000     -10.333532      -281.1897
   4   2.0000     -10.316434      -280.7244
   5   2.0000     -10.313956      -280.6570
   6   2.0000     -10.312387      -280.6143
   7   2.0000     -10.303456      -280.3713
   8   2.0000     -10.301118      -280.3077
   9   2.0000     -10.299002      -280.2501
  10   2.0000     -10.292797      -280.0813
  11   2.0000     -10.292711      -280.0789
  12   2.0000     -10.290169      -280.0097
  13   2.0000     -10.280498      -279.7466
  14   2.0000     -10.272132      -279.5189
  15   2.0000     -10.269905      -279.4583
  16   2.0000      -8.082752      -219.9429
  17   2.0000      -8.082490      -219.9357
  18   2.0000      -6.041307      -164.3923
  19   2.0000      -6.040810      -164.3788
  20   2.0000      -6.037160      -164.2795
  21   2.0000      -6.037017      -164.2756
  22   2.0000      -6.033718      -164.1858
  23   2.0000      -6.033280      -164.1739
  24   2.0000      -1.005886       -27.3715
  25   2.0000      -0.984498       -26.7896
  26   2.0000      -0.910514       -24.7763
  27   2.0000      -0.907777       -24.7019
  28   2.0000      -0.866634       -23.5823
  29   2.0000      -0.856002       -23.2930
  30   2.0000      -0.846625       -23.0378
  31   2.0000      -0.814262       -22.1572
  32   2.0000      -0.789198       -21.4752
  33   2.0000      -0.769423       -20.9371
  34   2.0000      -0.703775       -19.1507
  35   2.0000      -0.701910       -19.0999
  36   2.0000      -0.695779       -18.9331
  37   2.0000      -0.663954       -18.0671
  38   2.0000      -0.636721       -17.3261
  39   2.0000      -0.617233       -16.7958
  40   2.0000      -0.599245       -16.3063
  41   2.0000      -0.579617       -15.7722
  42   2.0000      -0.572205       -15.5705
  43   2.0000      -0.548726       -14.9316
  44   2.0000      -0.541514       -14.7353
  45   2.0000      -0.519857       -14.1460
  46   2.0000      -0.512956       -13.9582
  47   2.0000      -0.510924       -13.9029
  48   2.0000      -0.507802       -13.8180
  49   2.0000      -0.503827       -13.7098
  50   2.0000      -0.490891       -13.3578
  51   2.0000      -0.488544       -13.2940
  52   2.0000      -0.474135       -12.9019
  53   2.0000      -0.467396       -12.7185
  54   2.0000      -0.463700       -12.6179
  55   2.0000      -0.453756       -12.3473
  56   2.0000      -0.439441       -11.9578
  57   2.0000      -0.434001       -11.8098
  58   2.0000      -0.432179       -11.7602
  59   2.0000      -0.426630       -11.6092
  60   2.0000      -0.421605       -11.4725
  61   2.0000      -0.414276       -11.2730
  62   2.0000      -0.410805       -11.1786
  63   2.0000      -0.354406        -9.6439
  64   2.0000      -0.335975        -9.1423
  65   2.0000      -0.327290        -8.9060
  66   2.0000      -0.283544        -7.7156
  67   0.0000       0.017012         0.4629
  68   0.0000       0.075769         2.0618
  69   0.0000       0.099904         2.7185
  70   0.0000       0.116388         3.1671
  71   0.0000       0.131510         3.5786

MULLIKEN ATOMIC CHARGES
-----------------------
   0 S :    0.112929
   1 C :   -0.114697
   2 C :   -0.119047
   3 C :    0.047751
   4 C :   -0.131007
   5 H :   -0.011876
   6 C :    0.040879
   7 H :    0.031178
   8 H :    0.020336
   9 C :   -0.084552
  10 H :    0.037597
  11 H :    0.025006
  12 C :   -0.031803
  13 H :    0.012815
  14 H :    0.032516
  15 H :    0.041064
  16 S :    0.101948
  17 C :   -0.073755
  18 C :   -0.046232
  19 C :   -0.038641
  20 C :   -0.134023
  21 H :    0.046640
  22 C :    0.043665
  23 H :    0.040335
  24 H :    0.013561
  25 C :   -0.080970
  26 H :    0.025999
  27 H :    0.015346
  28 C :    0.008732
  29 H :    0.038407
  30 H :    0.014915
  31 H :    0.018238
  32 H :    0.063534
  33 H :    0.033212
Sum of atomic charges:    0.0000000

LOEWDIN ATOMIC CHARGES
----------------------
   0 S :    0.422810
   1 C :   -0.224750
   2 C :   -0.063472
   3 C :   -0.065332
   4 C :   -0.186504
   5 H :    0.022804
   6 C :   -0.040401
   7 H :    0.033716
   8 H :    0.028612
   9 C :   -0.039446
  10 H :    0.028797
  11 H :    0.020444
  12 C :   -0.061758
  13 H :    0.013508
  14 H :    0.026687
  15 H :    0.028319
  16 S :    0.396514
  17 C :   -0.169385
  18 C :   -0.075656
  19 C :   -0.052223
  20 C :   -0.180514
  21 H :    0.042199
  22 C :   -0.025646
  23 H :    0.032667
  24 H :    0.021313
  25 C :   -0.039164
  26 H :    0.019304
  27 H :    0.018121
  28 C :   -0.056339
  29 H :    0.033554
  30 H :    0.025896
  31 H :    0.015915
  32 H :    0.040772
  33 H :    0.008639

  Mayer bond orders larger than 0.100000
B(  0-S ,  1-C ) :   1.1444 B(  0-S ,  4-C ) :   1.1667 B(  1-C ,  2-C ) :   1.5609
B(  1-C ,  4-C ) :   0.1023 B(  1-C , 32-H ) :   0.9647 B(  2-C ,  3-C ) :   1.2852
B(  2-C ,  6-C ) :   1.0250 B(  3-C ,  4-C ) :   1.5143 B(  3-C ,  5-H ) :   0.9991
B(  4-C , 20-C ) :   1.0666 B(  6-C ,  7-H ) :   0.9314 B(  6-C ,  8-H ) :   0.9478
B(  6-C ,  9-C ) :   1.0724 B(  9-C , 10-H ) :   0.9573 B(  9-C , 11-H ) :   0.9550
B(  9-C , 12-C ) :   1.0733 B( 12-C , 13-H ) :   0.9772 B( 12-C , 14-H ) :   0.9751
B( 12-C , 15-H ) :   0.9775 B( 16-S , 17-C ) :   1.1727 B( 16-S , 20-C ) :   1.1296
B( 17-C , 18-C ) :   1.5893 B( 17-C , 20-C ) :   0.1027 B( 17-C , 33-H ) :   0.9800
B( 18-C , 19-C ) :   1.2365 B( 18-C , 21-H ) :   0.9808 B( 19-C , 20-C ) :   1.6120
B( 19-C , 22-C ) :   1.0240 B( 22-C , 23-H ) :   0.9436 B( 22-C , 24-H ) :   0.9345
B( 22-C , 25-C ) :   1.0659 B( 25-C , 26-H ) :   0.9589 B( 25-C , 27-H ) :   0.9661
B( 25-C , 28-C ) :   1.0668 B( 28-C , 29-H ) :   0.9762 B( 28-C , 30-H ) :   0.9749
B( 28-C , 31-H ) :   0.9768

Dispersion correction           -0.013760483
FINAL SINGLE POINT ENERGY     -1339.867344634870

DIPOLE MOMENT
-------------
                                X             Y             Z
Electronic contribution:     -7.33412      -1.63703     -29.85048
Nuclear contribution   :      7.22344       1.62509      30.45894
                        -----------------------------------------
Total Dipole Moment    :     -0.11068      -0.01194       0.60846
                        -----------------------------------------
Magnitude (a.u.)       :      0.61856
Magnitude (Debye)      :      1.57224

Rotational constants in cm-1:     0.017070     0.009101     0.006223
Rotational constants in MHz :   511.731533   272.852798   186.557316

                             ****ORCA TERMINATED NORMALLY****
TOTAL RUN TIME: 0 days 0 hours 0 minutes 21 seconds 295 msec
