                         Program Version 4.2.1 -  RELEASE  -
|  1> ! wB97X-D3 SP def2-SVP
|  2> %pal
|  3> nprocs 24
|  4> end
|  5>
|  6> * xyz 0 1
|  7> S 	 -108.508 	 55.3367 	 -100.483
|  8> C 	 -110.101 	 54.6054 	 -100.575
|  9> C 	 -111.084 	 55.5232 	 -100.261
| 10> C 	 -110.553 	 56.8714 	 -100.086
| 11> C 	 -109.159 	 56.9259 	 -100.129
| 12> H 	 -111.176 	 57.7385 	 -99.8976
| 13> C 	 -112.588 	 55.353 	 -100.136
| 14> H 	 -113.101 	 56.3183 	 -99.9495
| 15> H 	 -112.733 	 54.6847 	 -99.2864
| 16> C 	 -113.152 	 54.7752 	 -101.469
| 17> H 	 -112.803 	 55.3659 	 -102.377
| 18> H 	 -112.644 	 53.8258 	 -101.664
| 19> C 	 -114.705 	 54.4806 	 -101.404
| 20> H 	 -114.973 	 53.9715 	 -100.498
| 21> H 	 -115.32 	 55.3864 	 -101.505
| 22> H 	 -114.948 	 53.847 	 -102.251
| 23> S 	 -107.211 	 57.7018 	 -98.441
| 24> C 	 -106.604 	 59.3727 	 -98.4515
| 25> C 	 -107.192 	 60.1548 	 -99.4169
| 26> C 	 -108.26 	 59.4052 	 -100.099
| 27> C 	 -108.299 	 58.0376 	 -99.7814
| 28> H 	 -106.973 	 61.2322 	 -99.5101
| 29> C 	 -109.1 	 60.0234 	 -101.274
| 30> H 	 -109.975 	 59.4161 	 -101.413
| 31> H 	 -108.491 	 60.1185 	 -102.236
| 32> C 	 -109.63 	 61.3574 	 -100.873
| 33> H 	 -110.092 	 61.7514 	 -101.74
| 34> H 	 -108.924 	 62.1344 	 -100.474
| 35> C 	 -110.683 	 61.2166 	 -99.7679
| 36> H 	 -111.693 	 60.797 	 -100.148
| 37> H 	 -110.925 	 62.1663 	 -99.3112
| 38> H 	 -110.226 	 60.7062 	 -98.9211
| 39> H 	 -110.292 	 53.6385 	 -100.697
| 40> H 	 -105.922 	 59.7333 	 -97.7452
| 41> *
| 42>
| 43>                          ****END OF INPUT****

CARTESIAN COORDINATES (ANGSTROEM)
---------------------------------
  S    -108.508000   55.336700  -100.483000
  C    -110.101000   54.605400  -100.575000
  C    -111.084000   55.523200  -100.261000
  C    -110.553000   56.871400  -100.086000
  C    -109.159000   56.925900  -100.129000
  H    -111.176000   57.738500  -99.897600
  C    -112.588000   55.353000  -100.136000
  H    -113.101000   56.318300  -99.949500
  H    -112.733000   54.684700  -99.286400
  C    -113.152000   54.775200  -101.469000
  H    -112.803000   55.365900  -102.377000
  H    -112.644000   53.825800  -101.664000
  C    -114.705000   54.480600  -101.404000
  H    -114.973000   53.971500  -100.498000
  H    -115.320000   55.386400  -101.505000
  H    -114.948000   53.847000  -102.251000
  S    -107.211000   57.701800  -98.441000
  C    -106.604000   59.372700  -98.451500
  C    -107.192000   60.154800  -99.416900
  C    -108.260000   59.405200  -100.099000
  C    -108.299000   58.037600  -99.781400
  H    -106.973000   61.232200  -99.510100
  C    -109.100000   60.023400  -101.274000
  H    -109.975000   59.416100  -101.413000
  H    -108.491000   60.118500  -102.236000
  C    -109.630000   61.357400  -100.873000
  H    -110.092000   61.751400  -101.740000
  H    -108.924000   62.134400  -100.474000
  C    -110.683000   61.216600  -99.767900
  H    -111.693000   60.797000  -100.148000
  H    -110.925000   62.166300  -99.311200
  H    -110.226000   60.706200  -98.921100
  H    -110.292000   53.638500  -100.697000
  H    -105.922000   59.733300  -97.745200

 Total Charge           Charge          ....    0
 Multiplicity           Mult            ....    1
 Number of Electrons    NEL             ....  134
 Basis Dimension        Dim             ....  322

ORBITAL ENERGIES
----------------

  NO   OCC          E(Eh)            E(eV)
   0   2.0000     -88.967228     -2420.9214
   1   2.0000     -88.963608     -2420.8229
   2   2.0000     -10.331907      -281.1455
   3   2.0000     -10.329221      -281.0724
   4   2.0000     -10.317595      -280.7560
   5   2.0000     -10.311772      -280.5976
   6   2.0000     -10.306708      -280.4598
   7   2.0000     -10.302731      -280.3516
   8   2.0000     -10.302481      -280.3447
   9   2.0000     -10.297042      -280.1968
  10   2.0000     -10.296168      -280.1730
  11   2.0000     -10.295406      -280.1522
  12   2.0000     -10.294656      -280.1318
  13   2.0000     -10.281720      -279.7798
  14   2.0000     -10.281134      -279.7639
  15   2.0000     -10.279123      -279.7092
  16   2.0000      -8.081624      -219.9122
  17   2.0000      -8.078061      -219.8152
  18   2.0000      -6.040274      -164.3642
  19   2.0000      -6.036622      -164.2648
  20   2.0000      -6.036125      -164.2513
  21   2.0000      -6.032630      -164.1562
  22   2.0000      -6.032306      -164.1474
  23   2.0000      -6.028731      -164.0501
  24   2.0000      -1.002179       -27.2707
  25   2.0000      -0.977609       -26.6021
  26   2.0000      -0.913992       -24.8710
  27   2.0000      -0.906270       -24.6609
  28   2.0000      -0.869314       -23.6552
  29   2.0000      -0.844437       -22.9783
  30   2.0000      -0.836376       -22.7589
  31   2.0000      -0.814140       -22.1539
  32   2.0000      -0.779735       -21.2177
  33   2.0000      -0.772707       -21.0264
  34   2.0000      -0.710976       -19.3466
  35   2.0000      -0.700422       -19.0595
  36   2.0000      -0.691081       -18.8053
  37   2.0000      -0.655516       -17.8375
  38   2.0000      -0.645227       -17.5575
  39   2.0000      -0.615236       -16.7414
  40   2.0000      -0.599872       -16.3234
  41   2.0000      -0.569559       -15.4985
  42   2.0000      -0.557946       -15.1825
  43   2.0000      -0.554098       -15.0778
  44   2.0000      -0.541040       -14.7224
  45   2.0000      -0.522802       -14.2262
  46   2.0000      -0.520570       -14.1654
  47   2.0000      -0.510529       -13.8922
  48   2.0000      -0.504244       -13.7212
  49   2.0000      -0.498720       -13.5709
  50   2.0000      -0.486992       -13.2517
  51   2.0000      -0.476028       -12.9534
  52   2.0000      -0.473629       -12.8881
  53   2.0000      -0.460939       -12.5428
  54   2.0000      -0.457601       -12.4520
  55   2.0000      -0.449775       -12.2390
  56   2.0000      -0.446182       -12.1412
  57   2.0000      -0.435440       -11.8489
  58   2.0000      -0.435158       -11.8413
  59   2.0000      -0.422447       -11.4954
  60   2.0000      -0.419483       -11.4147
  61   2.0000      -0.412152       -11.2152
  62   2.0000      -0.407077       -11.0771
  63   2.0000      -0.349719        -9.5163
  64   2.0000      -0.328810        -8.9474
  65   2.0000      -0.327031        -8.8990
  66   2.0000      -0.292707        -7.9650
  67   0.0000       0.030753         0.8368
  68   0.0000       0.066211         1.8017
  69   0.0000       0.112520         3.0618
  70   0.0000       0.120438         3.2773
  71   0.0000       0.127240         3.4624

MULLIKEN ATOMIC CHARGES
-----------------------
   0 S :    0.112282
   1 C :   -0.066200
   2 C :   -0.101769
   3 C :    0.031495
   4 C :   -0.155873
   5 H :    0.012574
   6 C :    0.080388
   7 H :    0.031071
   8 H :    0.041624
   9 C :   -0.135962
  10 H :    0.045650
  11 H :    0.023652
  12 C :   -0.027737
  13 H :    0.029092
  14 H :    0.037572
  15 H :    0.033311
  16 S :    0.093939
  17 C :   -0.072517
  18 C :   -0.028923
  19 C :   -0.092615
  20 C :   -0.123036
  21 H :    0.038469
  22 C :    0.093386
  23 H :    0.011888
  24 H :    0.061214
  25 C :   -0.082341
  26 H :    0.017521
  27 H :    0.034226
  28 C :   -0.086728
  29 H :    0.045172
  30 H :    0.020763
  31 H :    0.046323
  32 H :   -0.008384
  33 H :    0.040471
Sum of atomic charges:   -0.0000000

LOEWDIN ATOMIC CHARGES
----------------------
   0 S :    0.407654
   1 C :   -0.182284
   2 C :   -0.052252
   3 C :   -0.061970
   4 C :   -0.196905
   5 H :    0.029033
   6 C :   -0.031569
   7 H :    0.031902
   8 H :    0.034354
   9 C :   -0.045728
  10 H :    0.033795
  11 H :    0.019344
  12 C :   -0.066105
  13 H :    0.022797
  14 H :    0.026258
  15 H :    0.027186
  16 S :    0.390868
  17 C :   -0.163031
  18 C :   -0.072631
  19 C :   -0.054869
  20 C :   -0.196893
  21 H :    0.038926
  22 C :   -0.027249
  23 H :    0.027111
  24 H :    0.042583
  25 C :   -0.049714
  26 H :    0.018780
  27 H :    0.026501
  28 C :   -0.074601
  29 H :    0.031865
  30 H :    0.021815
  31 H :    0.027896
  32 H :   -0.000630
  33 H :    0.017763

  Mayer bond orders larger than 0.100000
B(  0-S ,  1-C ) :   1.1234 B(  0-S ,  4-C ) :   1.1555 B(  1-C ,  2-C ) :   1.6146
B(  1-C , 32-H ) :   0.9860 B(  2-C ,  3-C ) :   1.2428 B(  2-C ,  6-C ) :   1.0163
B(  3-C ,  4-C ) :   1.5655 B(  3-C ,  5-H ) :   0.9895 B(  4-C , 20-C ) :   1.0343
B(  6-C ,  7-H ) :   0.9495 B(  6-C ,  8-H ) :   0.9325 B(  6-C ,  9-C ) :   1.0583
B(  9-C , 10-H ) :   0.9587 B(  9-C , 11-H ) :   0.9587 B(  9-C , 12-C ) :   1.0688
B( 12-C , 13-H ) :   0.9751 B( 12-C , 14-H ) :   0.9779 B( 12-C , 15-H ) :   0.9760
B( 16-S , 17-C ) :   1.1466 B( 16-S , 20-C ) :   1.1333 B( 17-C , 18-C ) :   1.6351
B( 17-C , 33-H ) :   0.9731 B( 18-C , 19-C ) :   1.2023 B( 18-C , 21-H ) :   0.9836
B( 19-C , 20-C ) :   1.6155 B( 19-C , 22-C ) :   1.0329 B( 22-C , 23-H ) :   0.9331
B( 22-C , 24-H ) :   0.9434 B( 22-C , 25-C ) :   1.0652 B( 25-C , 26-H ) :   0.9523
B( 25-C , 27-H ) :   0.9562 B( 25-C , 28-C ) :   1.0801 B( 28-C , 29-H ) :   0.9709
B( 28-C , 30-H ) :   0.9719 B( 28-C , 31-H ) :   0.9701

Dispersion correction           -0.014245722
FINAL SINGLE POINT ENERGY     -1339.870819293157

DIPOLE MOMENT
-------------
                                X             Y             Z
Electronic contribution:     26.35312      -8.23550       7.66916
Nuclear contribution   :    -26.91449       8.59599      -7.72087
                        -----------------------------------------
Total Dipole Moment    :     -0.56137       0.36049      -0.05171
                        -----------------------------------------
Magnitude (a.u.)       :      0.66915
Magnitude (Debye)      :      1.70085

Rotational constants in cm-1:     0.020423     0.008017     0.006241
Rotational constants in MHz :   612.279984   240.331388   187.099309

                             ****ORCA TERMINATED NORMALLY****
TOTAL RUN TIME: 0 days 0 hours 0 minutes 21 seconds 454 msec
