                         Program Version 4.2.1 -  RELEASE  -
|  1> ! wB97X-D3 SP def2-SVP
|  2> %pal
|  3> nprocs 24
|  4> end
|  5>
|  6> * xyz 0 1
|  7> S 	 -132.939 	 20.623 	 -20.1645
|  8> C 	 -133.565 	 19.2929 	 -19.2017
|  9> C 	 -134.81 	 18.8296 	 -19.6599
| 10> C 	 -135.192 	 19.5864 	 -20.8336
| 11> C 	 -134.25 	 20.5196 	 -21.2549
| 12> H 	 -136.071 	 19.5066 	 -21.4702
| 13> C 	 -135.611 	 17.7434 	 -18.9914
| 14> H 	 -135.144 	 17.59 	 -17.9834
| 15> H 	 -135.352 	 16.8243 	 -19.5274
| 16> C 	 -137.168 	 17.9293 	 -18.8561
| 17> H 	 -137.435 	 18.1279 	 -19.9045
| 18> H 	 -137.547 	 16.9701 	 -18.4764
| 19> C 	 -137.569 	 19.147 	 -17.9489
| 20> H 	 -138.613 	 18.9411 	 -17.7602
| 21> H 	 -136.94 	 19.2079 	 -17.0529
| 22> H 	 -137.473 	 20.129 	 -18.5298
| 23> S 	 -134.712 	 22.9038 	 -22.4259
| 24> C 	 -134.642 	 23.1241 	 -24.158
| 25> C 	 -134.265 	 21.917 	 -24.8022
| 26> C 	 -133.961 	 20.889 	 -23.8569
| 27> C 	 -134.239 	 21.2506 	 -22.5679
| 28> H 	 -134.161 	 21.8065 	 -25.9161
| 29> C 	 -133.427 	 19.538 	 -24.223
| 30> H 	 -133.258 	 19.0464 	 -23.2688
| 31> H 	 -132.508 	 19.7477 	 -24.7767
| 32> C 	 -134.435 	 18.6931 	 -25.0547
| 33> H 	 -134.545 	 19.0759 	 -26.0478
| 34> H 	 -135.435 	 18.617 	 -24.5456
| 35> C 	 -133.914 	 17.17 	 -25.0539
| 36> H 	 -133.672 	 16.7579 	 -24.116
| 37> H 	 -133.118 	 17.0562 	 -25.7321
| 38> H 	 -134.695 	 16.5337 	 -25.4965
| 39> H 	 -133.063 	 18.9979 	 -18.2769
| 40> H 	 -134.949 	 24.0683 	 -24.6632
| 41> *
| 42>
| 43>                          ****END OF INPUT****

CARTESIAN COORDINATES (ANGSTROEM)
---------------------------------
  S    -132.939000   20.623000  -20.164500
  C    -133.565000   19.292900  -19.201700
  C    -134.810000   18.829600  -19.659900
  C    -135.192000   19.586400  -20.833600
  C    -134.250000   20.519600  -21.254900
  H    -136.071000   19.506600  -21.470200
  C    -135.611000   17.743400  -18.991400
  H    -135.144000   17.590000  -17.983400
  H    -135.352000   16.824300  -19.527400
  C    -137.168000   17.929300  -18.856100
  H    -137.435000   18.127900  -19.904500
  H    -137.547000   16.970100  -18.476400
  C    -137.569000   19.147000  -17.948900
  H    -138.613000   18.941100  -17.760200
  H    -136.940000   19.207900  -17.052900
  H    -137.473000   20.129000  -18.529800
  S    -134.712000   22.903800  -22.425900
  C    -134.642000   23.124100  -24.158000
  C    -134.265000   21.917000  -24.802200
  C    -133.961000   20.889000  -23.856900
  C    -134.239000   21.250600  -22.567900
  H    -134.161000   21.806500  -25.916100
  C    -133.427000   19.538000  -24.223000
  H    -133.258000   19.046400  -23.268800
  H    -132.508000   19.747700  -24.776700
  C    -134.435000   18.693100  -25.054700
  H    -134.545000   19.075900  -26.047800
  H    -135.435000   18.617000  -24.545600
  C    -133.914000   17.170000  -25.053900
  H    -133.672000   16.757900  -24.116000
  H    -133.118000   17.056200  -25.732100
  H    -134.695000   16.533700  -25.496500
  H    -133.063000   18.997900  -18.276900
  H    -134.949000   24.068300  -24.663200

 Total Charge           Charge          ....    0
 Multiplicity           Mult            ....    1
 Number of Electrons    NEL             ....  134
 Basis Dimension        Dim             ....  322

ORBITAL ENERGIES
----------------

  NO   OCC          E(Eh)            E(eV)
   0   2.0000     -88.965461     -2420.8733
   1   2.0000     -88.962859     -2420.8025
   2   2.0000     -10.327502      -281.0256
   3   2.0000     -10.323260      -280.9102
   4   2.0000     -10.320594      -280.8376
   5   2.0000     -10.316560      -280.7279
   6   2.0000     -10.308180      -280.4998
   7   2.0000     -10.301160      -280.3088
   8   2.0000     -10.297438      -280.2075
   9   2.0000     -10.297054      -280.1971
  10   2.0000     -10.296478      -280.1814
  11   2.0000     -10.296283      -280.1761
  12   2.0000     -10.293961      -280.1129
  13   2.0000     -10.287947      -279.9493
  14   2.0000     -10.285301      -279.8773
  15   2.0000     -10.272523      -279.5296
  16   2.0000      -8.080734      -219.8880
  17   2.0000      -8.078145      -219.8175
  18   2.0000      -6.039039      -164.3306
  19   2.0000      -6.036557      -164.2631
  20   2.0000      -6.035048      -164.2220
  21   2.0000      -6.032468      -164.1518
  22   2.0000      -6.031801      -164.1337
  23   2.0000      -6.029096      -164.0600
  24   2.0000      -1.006160       -27.3790
  25   2.0000      -0.983358       -26.7585
  26   2.0000      -0.906089       -24.6559
  27   2.0000      -0.903692       -24.5907
  28   2.0000      -0.860253       -23.4087
  29   2.0000      -0.845738       -23.0137
  30   2.0000      -0.842409       -22.9231
  31   2.0000      -0.810736       -22.0613
  32   2.0000      -0.779831       -21.2203
  33   2.0000      -0.769100       -20.9283
  34   2.0000      -0.705377       -19.1943
  35   2.0000      -0.699704       -19.0399
  36   2.0000      -0.682947       -18.5839
  37   2.0000      -0.659527       -17.9466
  38   2.0000      -0.641604       -17.4589
  39   2.0000      -0.615086       -16.7373
  40   2.0000      -0.588499       -16.0139
  41   2.0000      -0.568388       -15.4666
  42   2.0000      -0.558673       -15.2023
  43   2.0000      -0.547387       -14.8952
  44   2.0000      -0.539534       -14.6815
  45   2.0000      -0.520127       -14.1534
  46   2.0000      -0.515395       -14.0246
  47   2.0000      -0.509710       -13.8699
  48   2.0000      -0.501574       -13.6485
  49   2.0000      -0.494786       -13.4638
  50   2.0000      -0.486219       -13.2307
  51   2.0000      -0.477442       -12.9918
  52   2.0000      -0.471126       -12.8200
  53   2.0000      -0.462249       -12.5784
  54   2.0000      -0.460839       -12.5401
  55   2.0000      -0.446110       -12.1393
  56   2.0000      -0.442069       -12.0293
  57   2.0000      -0.436639       -11.8815
  58   2.0000      -0.431325       -11.7370
  59   2.0000      -0.429811       -11.6958
  60   2.0000      -0.425896       -11.5892
  61   2.0000      -0.416706       -11.3391
  62   2.0000      -0.409256       -11.1364
  63   2.0000      -0.333577        -9.0771
  64   2.0000      -0.327666        -8.9162
  65   2.0000      -0.320552        -8.7227
  66   2.0000      -0.307713        -8.3733
  67   0.0000       0.048627         1.3232
  68   0.0000       0.056460         1.5364
  69   0.0000       0.116539         3.1712
  70   0.0000       0.125024         3.4021
  71   0.0000       0.130905         3.5621

MULLIKEN ATOMIC CHARGES
-----------------------
   0 S :    0.128884
   1 C :   -0.141362
   2 C :   -0.079594
   3 C :    0.040070
   4 C :   -0.192068
   5 H :    0.013907
   6 C :    0.037733
   7 H :    0.017364
   8 H :    0.043926
   9 C :   -0.086312
  10 H :    0.039901
  11 H :    0.041665
  12 C :   -0.065149
  13 H :    0.042518
  14 H :    0.042319
  15 H :    0.056722
  16 S :    0.111685
  17 C :   -0.116574
  18 C :   -0.054125
  19 C :   -0.027156
  20 C :   -0.199817
  21 H :    0.039201
  22 C :    0.092615
  23 H :    0.029366
  24 H :    0.038516
  25 C :   -0.101241
  26 H :    0.031753
  27 H :    0.042802
  28 C :   -0.031770
  29 H :    0.030412
  30 H :    0.017860
  31 H :    0.025919
  32 H :    0.054644
  33 H :    0.075386
Sum of atomic charges:    0.0000000

LOEWDIN ATOMIC CHARGES
----------------------
   0 S :    0.424319
   1 C :   -0.200802
   2 C :   -0.062490
   3 C :   -0.069123
   4 C :   -0.219902
   5 H :    0.031495
   6 C :   -0.041561
   7 H :    0.028927
   8 H :    0.035371
   9 C :   -0.038252
  10 H :    0.025988
  11 H :    0.027475
  12 C :   -0.068156
  13 H :    0.027035
  14 H :    0.026491
  15 H :    0.039163
  16 S :    0.421059
  17 C :   -0.194944
  18 C :   -0.078910
  19 C :   -0.060619
  20 C :   -0.216507
  21 H :    0.039569
  22 C :   -0.027893
  23 H :    0.032464
  24 H :    0.035970
  25 C :   -0.029635
  26 H :    0.018363
  27 H :    0.030560
  28 C :   -0.060690
  29 H :    0.018670
  30 H :    0.016504
  31 H :    0.026658
  32 H :    0.027206
  33 H :    0.036197

  Mayer bond orders larger than 0.100000
B(  0-S ,  1-C ) :   1.1526 B(  0-S ,  4-C ) :   1.1775 B(  1-C ,  2-C ) :   1.5931
B(  1-C , 32-H ) :   0.9664 B(  2-C ,  3-C ) :   1.2235 B(  2-C ,  6-C ) :   1.0171
B(  3-C ,  4-C ) :   1.5908 B(  3-C ,  5-H ) :   0.9929 B(  4-C , 20-C ) :   0.9601
B(  6-C ,  7-H ) :   0.9406 B(  6-C ,  8-H ) :   0.9358 B(  6-C ,  9-C ) :   1.0643
B(  9-C , 10-H ) :   0.9556 B(  9-C , 11-H ) :   0.9590 B(  9-C , 12-C ) :   1.0620
B( 12-C , 13-H ) :   0.9770 B( 12-C , 14-H ) :   0.9791 B( 12-C , 15-H ) :   0.9738
B( 16-S , 17-C ) :   1.1738 B( 16-S , 20-C ) :   1.1596 B( 17-C , 18-C ) :   1.5800
B( 17-C , 20-C ) :   0.1020 B( 17-C , 33-H ) :   0.9655 B( 18-C , 19-C ) :   1.2416
B( 18-C , 21-H ) :   0.9825 B( 19-C , 20-C ) :   1.6248 B( 19-C , 22-C ) :   1.0390
B( 22-C , 23-H ) :   0.9353 B( 22-C , 24-H ) :   0.9283 B( 22-C , 25-C ) :   1.0654
B( 25-C , 26-H ) :   0.9571 B( 25-C , 27-H ) :   0.9609 B( 25-C , 28-C ) :   1.0774
B( 28-C , 29-H ) :   0.9791 B( 28-C , 30-H ) :   0.9762 B( 28-C , 31-H ) :   0.9768

Dispersion correction           -0.014471992
FINAL SINGLE POINT ENERGY     -1339.882889073037

DIPOLE MOMENT
-------------
                                X             Y             Z
Electronic contribution:     10.71804      21.91030       2.00601
Nuclear contribution   :    -10.97542     -22.44872      -2.18114
                        -----------------------------------------
Total Dipole Moment    :     -0.25738      -0.53843      -0.17512
                        -----------------------------------------
Magnitude (a.u.)       :      0.62195
Magnitude (Debye)      :      1.58086

Rotational constants in cm-1:     0.017088     0.008825     0.007338
Rotational constants in MHz :   512.279463   264.556751   219.988988

                             ****ORCA TERMINATED NORMALLY****
TOTAL RUN TIME: 0 days 0 hours 0 minutes 21 seconds 453 msec
