                         Program Version 4.2.1 -  RELEASE  -
|  1> ! wB97X-D3 SP def2-SVP
|  2> %pal
|  3> nprocs 24
|  4> end
|  5>
|  6> * xyz 0 1
|  7> S 	 36.8386 	 -30.4475 	 -125.944
|  8> C 	 38.1495 	 -31.6704 	 -125.767
|  9> C 	 37.6796 	 -32.9518 	 -126.009
| 10> C 	 36.2768 	 -32.9233 	 -126.345
| 11> C 	 35.676 	 -31.684 	 -126.318
| 12> H 	 35.667 	 -33.7249 	 -126.575
| 13> C 	 38.5428 	 -34.2597 	 -125.882
| 14> H 	 39.5106 	 -34.1542 	 -126.13
| 15> H 	 38.3195 	 -34.8436 	 -126.794
| 16> C 	 38.2142 	 -35.1687 	 -124.726
| 17> H 	 37.1879 	 -35.6459 	 -124.826
| 18> H 	 38.9136 	 -35.9243 	 -124.81
| 19> C 	 38.3542 	 -34.4154 	 -123.357
| 20> H 	 38.0726 	 -35.1063 	 -122.527
| 21> H 	 39.4359 	 -34.186 	 -123.222
| 22> H 	 37.83 	 -33.3881 	 -123.189
| 23> S 	 33.3945 	 -30.8527 	 -127.68
| 24> C 	 31.8547 	 -31.1831 	 -127.055
| 25> C 	 31.9132 	 -31.5928 	 -125.746
| 26> C 	 33.2853 	 -31.8141 	 -125.321
| 27> C 	 34.2168 	 -31.4332 	 -126.235
| 28> H 	 31.0357 	 -31.914 	 -125.145
| 29> C 	 33.6209 	 -32.5311 	 -124.078
| 30> H 	 34.1335 	 -33.5092 	 -124.348
| 31> H 	 32.6767 	 -32.8939 	 -123.707
| 32> C 	 34.3106 	 -31.7909 	 -123.01
| 33> H 	 33.6087 	 -31.0609 	 -122.597
| 34> H 	 35.1673 	 -31.2701 	 -123.336
| 35> C 	 34.6573 	 -32.7429 	 -121.872
| 36> H 	 35.5366 	 -33.3285 	 -122.184
| 37> H 	 33.8727 	 -33.5636 	 -121.78
| 38> H 	 34.8135 	 -32.1948 	 -120.923
| 39> H 	 39.1939 	 -31.47 	 -125.593
| 40> H 	 30.9573 	 -30.8989 	 -127.535
| 41> *
| 42>
| 43>                          ****END OF INPUT****

CARTESIAN COORDINATES (ANGSTROEM)
---------------------------------
  S     36.838600  -30.447500  -125.944000
  C     38.149500  -31.670400  -125.767000
  C     37.679600  -32.951800  -126.009000
  C     36.276800  -32.923300  -126.345000
  C     35.676000  -31.684000  -126.318000
  H     35.667000  -33.724900  -126.575000
  C     38.542800  -34.259700  -125.882000
  H     39.510600  -34.154200  -126.130000
  H     38.319500  -34.843600  -126.794000
  C     38.214200  -35.168700  -124.726000
  H     37.187900  -35.645900  -124.826000
  H     38.913600  -35.924300  -124.810000
  C     38.354200  -34.415400  -123.357000
  H     38.072600  -35.106300  -122.527000
  H     39.435900  -34.186000  -123.222000
  H     37.830000  -33.388100  -123.189000
  S     33.394500  -30.852700  -127.680000
  C     31.854700  -31.183100  -127.055000
  C     31.913200  -31.592800  -125.746000
  C     33.285300  -31.814100  -125.321000
  C     34.216800  -31.433200  -126.235000
  H     31.035700  -31.914000  -125.145000
  C     33.620900  -32.531100  -124.078000
  H     34.133500  -33.509200  -124.348000
  H     32.676700  -32.893900  -123.707000
  C     34.310600  -31.790900  -123.010000
  H     33.608700  -31.060900  -122.597000
  H     35.167300  -31.270100  -123.336000
  C     34.657300  -32.742900  -121.872000
  H     35.536600  -33.328500  -122.184000
  H     33.872700  -33.563600  -121.780000
  H     34.813500  -32.194800  -120.923000
  H     39.193900  -31.470000  -125.593000
  H     30.957300  -30.898900  -127.535000

 Total Charge           Charge          ....    0
 Multiplicity           Mult            ....    1
 Number of Electrons    NEL             ....  134
 Basis Dimension        Dim             ....  322

ORBITAL ENERGIES
----------------

  NO   OCC          E(Eh)            E(eV)
   0   2.0000     -88.966716     -2420.9074
   1   2.0000     -88.960210     -2420.7304
   2   2.0000     -10.329327      -281.0753
   3   2.0000     -10.321871      -280.8724
   4   2.0000     -10.319334      -280.8034
   5   2.0000     -10.312453      -280.6161
   6   2.0000     -10.309404      -280.5331
   7   2.0000     -10.297730      -280.2155
   8   2.0000     -10.296059      -280.1700
   9   2.0000     -10.292740      -280.0797
  10   2.0000     -10.291958      -280.0584
  11   2.0000     -10.290777      -280.0263
  12   2.0000     -10.289809      -279.9999
  13   2.0000     -10.282763      -279.8082
  14   2.0000     -10.279238      -279.7123
  15   2.0000     -10.272225      -279.5215
  16   2.0000      -8.080578      -219.8837
  17   2.0000      -8.076225      -219.7653
  18   2.0000      -6.039192      -164.3348
  19   2.0000      -6.035122      -164.2240
  20   2.0000      -6.034670      -164.2117
  21   2.0000      -6.031336      -164.1210
  22   2.0000      -6.030391      -164.0953
  23   2.0000      -6.027139      -164.0068
  24   2.0000      -1.008089       -27.4315
  25   2.0000      -0.983837       -26.7716
  26   2.0000      -0.920008       -25.0347
  27   2.0000      -0.913206       -24.8496
  28   2.0000      -0.866975       -23.5916
  29   2.0000      -0.851182       -23.1619
  30   2.0000      -0.840368       -22.8676
  31   2.0000      -0.813291       -22.1308
  32   2.0000      -0.785822       -21.3833
  33   2.0000      -0.771325       -20.9888
  34   2.0000      -0.706930       -19.2365
  35   2.0000      -0.698936       -19.0190
  36   2.0000      -0.689826       -18.7711
  37   2.0000      -0.664764       -18.0892
  38   2.0000      -0.647573       -17.6214
  39   2.0000      -0.621098       -16.9009
  40   2.0000      -0.599515       -16.3136
  41   2.0000      -0.571667       -15.5558
  42   2.0000      -0.567370       -15.4389
  43   2.0000      -0.545852       -14.8534
  44   2.0000      -0.542621       -14.7655
  45   2.0000      -0.529303       -14.4031
  46   2.0000      -0.514696       -14.0056
  47   2.0000      -0.509256       -13.8575
  48   2.0000      -0.503845       -13.7103
  49   2.0000      -0.500691       -13.6245
  50   2.0000      -0.488875       -13.3030
  51   2.0000      -0.479661       -13.0522
  52   2.0000      -0.466399       -12.6913
  53   2.0000      -0.461397       -12.5553
  54   2.0000      -0.456720       -12.4280
  55   2.0000      -0.447309       -12.1719
  56   2.0000      -0.443459       -12.0671
  57   2.0000      -0.442362       -12.0373
  58   2.0000      -0.438530       -11.9330
  59   2.0000      -0.420820       -11.4511
  60   2.0000      -0.415201       -11.2982
  61   2.0000      -0.408784       -11.1236
  62   2.0000      -0.407437       -11.0869
  63   2.0000      -0.333648        -9.0790
  64   2.0000      -0.331099        -9.0097
  65   2.0000      -0.325065        -8.8455
  66   2.0000      -0.313428        -8.5288
  67   0.0000       0.042768         1.1638
  68   0.0000       0.058045         1.5795
  69   0.0000       0.115895         3.1537
  70   0.0000       0.119944         3.2639
  71   0.0000       0.127394         3.4666

MULLIKEN ATOMIC CHARGES
-----------------------
   0 S :    0.101617
   1 C :   -0.119925
   2 C :   -0.087563
   3 C :    0.069147
   4 C :   -0.147308
   5 H :   -0.016295
   6 C :    0.095806
   7 H :   -0.011099
   8 H :    0.017268
   9 C :   -0.026142
  10 H :    0.041635
  11 H :    0.017352
  12 C :   -0.118039
  13 H :    0.043780
  14 H :    0.027529
  15 H :    0.075561
  16 S :    0.102878
  17 C :   -0.068778
  18 C :   -0.037742
  19 C :   -0.060762
  20 C :   -0.160662
  21 H :    0.033594
  22 C :    0.054421
  23 H :    0.030333
  24 H :   -0.008903
  25 C :   -0.019288
  26 H :    0.021905
  27 H :    0.024719
  28 C :   -0.066290
  29 H :    0.027200
  30 H :    0.025099
  31 H :    0.046518
  32 H :    0.044421
  33 H :    0.048014
Sum of atomic charges:    0.0000000

LOEWDIN ATOMIC CHARGES
----------------------
   0 S :    0.392320
   1 C :   -0.180786
   2 C :   -0.054246
   3 C :   -0.048187
   4 C :   -0.199432
   5 H :    0.018893
   6 C :   -0.029294
   7 H :    0.013646
   8 H :    0.040713
   9 C :   -0.033952
  10 H :    0.030707
  11 H :    0.018927
  12 C :   -0.084936
  13 H :    0.027279
  14 H :    0.025970
  15 H :    0.039770
  16 S :    0.421888
  17 C :   -0.189425
  18 C :   -0.080326
  19 C :   -0.052308
  20 C :   -0.205825
  21 H :    0.037492
  22 C :   -0.039626
  23 H :    0.036648
  24 H :    0.024145
  25 C :   -0.037100
  26 H :    0.026716
  27 H :    0.015579
  28 C :   -0.067764
  29 H :    0.025226
  30 H :    0.027814
  31 H :    0.028769
  32 H :    0.027044
  33 H :    0.023661

  Mayer bond orders larger than 0.100000
B(  0-S ,  1-C ) :   1.1310 B(  0-S ,  4-C ) :   1.1478 B(  1-C ,  2-C ) :   1.6246
B(  1-C , 32-H ) :   0.9711 B(  2-C ,  3-C ) :   1.2145 B(  2-C ,  6-C ) :   1.0118
B(  3-C ,  4-C ) :   1.6050 B(  3-C ,  5-H ) :   1.0105 B(  4-C , 20-C ) :   0.9806
B(  6-C ,  7-H ) :   0.9405 B(  6-C ,  8-H ) :   0.9279 B(  6-C ,  9-C ) :   1.0778
B(  9-C , 10-H ) :   0.9564 B(  9-C , 11-H ) :   0.9495 B(  9-C , 12-C ) :   1.0643
B( 12-C , 13-H ) :   0.9757 B( 12-C , 14-H ) :   0.9715 B( 12-C , 15-H ) :   0.9680
B( 16-S , 17-C ) :   1.1911 B( 16-S , 20-C ) :   1.1265 B( 17-C , 18-C ) :   1.5897
B( 17-C , 33-H ) :   0.9675 B( 18-C , 19-C ) :   1.2532 B( 18-C , 21-H ) :   0.9825
B( 19-C , 20-C ) :   1.6276 B( 19-C , 22-C ) :   1.0455 B( 22-C , 23-H ) :   0.9292
B( 22-C , 24-H ) :   0.9107 B( 22-C , 25-C ) :   1.0793 B( 25-C , 26-H ) :   0.9457
B( 25-C , 27-H ) :   0.9558 B( 25-C , 28-C ) :   1.0804 B( 28-C , 29-H ) :   0.9721
B( 28-C , 30-H ) :   0.9683 B( 28-C , 31-H ) :   0.9737

Dispersion correction           -0.016302704
FINAL SINGLE POINT ENERGY     -1339.863858739969

DIPOLE MOMENT
-------------
                                X             Y             Z
Electronic contribution:     -7.80523      18.69551     -21.87580
Nuclear contribution   :      7.90954     -19.39443      22.16645
                        -----------------------------------------
Total Dipole Moment    :      0.10431      -0.69892       0.29066
                        -----------------------------------------
Magnitude (a.u.)       :      0.76410
Magnitude (Debye)      :      1.94220

Rotational constants in cm-1:     0.019638     0.009766     0.007904
Rotational constants in MHz :   588.741738   292.782951   236.954184

                             ****ORCA TERMINATED NORMALLY****
TOTAL RUN TIME: 0 days 0 hours 0 minutes 23 seconds 459 msec
