                         Program Version 4.2.1 -  RELEASE  -
|  1> ! wB97X-D3 SP def2-SVP
|  2> %pal
|  3> nprocs 24
|  4> end
|  5>
|  6> * xyz 0 1
|  7> S 	 -95.0832 	 4.97152 	 -4.50263
|  8> C 	 -93.93 	 5.92249 	 -5.17143
|  9> C 	 -94.3808 	 7.05026 	 -5.82288
| 10> C 	 -95.7446 	 7.06325 	 -5.88335
| 11> C 	 -96.2693 	 6.09382 	 -5.00872
| 12> H 	 -96.3901 	 7.63746 	 -6.5166
| 13> C 	 -93.4213 	 8.01545 	 -6.60812
| 14> H 	 -93.9666 	 8.15597 	 -7.56186
| 15> H 	 -92.5461 	 7.39536 	 -6.84605
| 16> C 	 -93.1936 	 9.44426 	 -6.02196
| 17> H 	 -92.5606 	 9.44683 	 -5.06987
| 18> H 	 -92.6663 	 10.0092 	 -6.7154
| 19> C 	 -94.5451 	 10.1818 	 -5.83898
| 20> H 	 -95.0844 	 10.0067 	 -6.82075
| 21> H 	 -95.138 	 9.80119 	 -4.98717
| 22> H 	 -94.4217 	 11.2068 	 -5.64373
| 23> S 	 -98.2838 	 4.26039 	 -5.27201
| 24> C 	 -99.8486 	 4.55301 	 -4.53329
| 25> C 	 -99.8882 	 5.80726 	 -4.07764
| 26> C 	 -98.7062 	 6.57858 	 -4.09651
| 27> C 	 -97.6759 	 5.84396 	 -4.71378
| 28> H 	 -100.831 	 6.24084 	 -3.71887
| 29> C 	 -98.5212 	 7.99087 	 -3.66111
| 30> H 	 -97.4477 	 8.0998 	 -3.51497
| 31> H 	 -99.0508 	 8.44076 	 -2.7676
| 32> C 	 -98.7858 	 8.8965 	 -4.79126
| 33> H 	 -99.8216 	 8.68237 	 -5.18054
| 34> H 	 -98.1122 	 8.64617 	 -5.67144
| 35> C 	 -98.5529 	 10.3645 	 -4.46641
| 36> H 	 -97.5151 	 10.4171 	 -4.22923
| 37> H 	 -99.0389 	 10.7907 	 -3.50971
| 38> H 	 -98.822 	 11.1012 	 -5.2225
| 39> H 	 -92.8686 	 5.63165 	 -5.09445
| 40> H 	 -100.726 	 3.97349 	 -4.52455
| 41> *
| 42>
| 43>                          ****END OF INPUT****

CARTESIAN COORDINATES (ANGSTROEM)
---------------------------------
  S    -95.083200    4.971520   -4.502630
  C    -93.930000    5.922490   -5.171430
  C    -94.380800    7.050260   -5.822880
  C    -95.744600    7.063250   -5.883350
  C    -96.269300    6.093820   -5.008720
  H    -96.390100    7.637460   -6.516600
  C    -93.421300    8.015450   -6.608120
  H    -93.966600    8.155970   -7.561860
  H    -92.546100    7.395360   -6.846050
  C    -93.193600    9.444260   -6.021960
  H    -92.560600    9.446830   -5.069870
  H    -92.666300   10.009200   -6.715400
  C    -94.545100   10.181800   -5.838980
  H    -95.084400   10.006700   -6.820750
  H    -95.138000    9.801190   -4.987170
  H    -94.421700   11.206800   -5.643730
  S    -98.283800    4.260390   -5.272010
  C    -99.848600    4.553010   -4.533290
  C    -99.888200    5.807260   -4.077640
  C    -98.706200    6.578580   -4.096510
  C    -97.675900    5.843960   -4.713780
  H    -100.831000    6.240840   -3.718870
  C    -98.521200    7.990870   -3.661110
  H    -97.447700    8.099800   -3.514970
  H    -99.050800    8.440760   -2.767600
  C    -98.785800    8.896500   -4.791260
  H    -99.821600    8.682370   -5.180540
  H    -98.112200    8.646170   -5.671440
  C    -98.552900   10.364500   -4.466410
  H    -97.515100   10.417100   -4.229230
  H    -99.038900   10.790700   -3.509710
  H    -98.822000   11.101200   -5.222500
  H    -92.868600    5.631650   -5.094450
  H    -100.726000    3.973490   -4.524550

 Total Charge           Charge          ....    0
 Multiplicity           Mult            ....    1
 Number of Electrons    NEL             ....  134
 Basis Dimension        Dim             ....  322

ORBITAL ENERGIES
----------------

  NO   OCC          E(Eh)            E(eV)
   0   2.0000     -88.970386     -2421.0073
   1   2.0000     -88.960863     -2420.7481
   2   2.0000     -10.325979      -280.9842
   3   2.0000     -10.322414      -280.8872
   4   2.0000     -10.306526      -280.4548
   5   2.0000     -10.305005      -280.4135
   6   2.0000     -10.301063      -280.3062
   7   2.0000     -10.300796      -280.2989
   8   2.0000     -10.295326      -280.1501
   9   2.0000     -10.292653      -280.0773
  10   2.0000     -10.292396      -280.0703
  11   2.0000     -10.288489      -279.9640
  12   2.0000     -10.287245      -279.9302
  13   2.0000     -10.284828      -279.8644
  14   2.0000     -10.282424      -279.7990
  15   2.0000     -10.279782      -279.7271
  16   2.0000      -8.088003      -220.0858
  17   2.0000      -8.075062      -219.7336
  18   2.0000      -6.045883      -164.5168
  19   2.0000      -6.042132      -164.4148
  20   2.0000      -6.039202      -164.3350
  21   2.0000      -6.033675      -164.1847
  22   2.0000      -6.029639      -164.0748
  23   2.0000      -6.025746      -163.9689
  24   2.0000      -1.022689       -27.8288
  25   2.0000      -0.990311       -26.9477
  26   2.0000      -0.920644       -25.0520
  27   2.0000      -0.908386       -24.7184
  28   2.0000      -0.870159       -23.6782
  29   2.0000      -0.861496       -23.4425
  30   2.0000      -0.845795       -23.0152
  31   2.0000      -0.814053       -22.1515
  32   2.0000      -0.782013       -21.2797
  33   2.0000      -0.769487       -20.9388
  34   2.0000      -0.705391       -19.1947
  35   2.0000      -0.698811       -19.0156
  36   2.0000      -0.688277       -18.7290
  37   2.0000      -0.662622       -18.0309
  38   2.0000      -0.646055       -17.5801
  39   2.0000      -0.616103       -16.7650
  40   2.0000      -0.601640       -16.3715
  41   2.0000      -0.570741       -15.5307
  42   2.0000      -0.567207       -15.4345
  43   2.0000      -0.553052       -15.0493
  44   2.0000      -0.545018       -14.8307
  45   2.0000      -0.528246       -14.3743
  46   2.0000      -0.517048       -14.0696
  47   2.0000      -0.510612       -13.8944
  48   2.0000      -0.503680       -13.7058
  49   2.0000      -0.490635       -13.3509
  50   2.0000      -0.489053       -13.3078
  51   2.0000      -0.478867       -13.0306
  52   2.0000      -0.470509       -12.8032
  53   2.0000      -0.463810       -12.6209
  54   2.0000      -0.456580       -12.4242
  55   2.0000      -0.450611       -12.2617
  56   2.0000      -0.448966       -12.2170
  57   2.0000      -0.442850       -12.0506
  58   2.0000      -0.433038       -11.7835
  59   2.0000      -0.428840       -11.6693
  60   2.0000      -0.420856       -11.4521
  61   2.0000      -0.420611       -11.4454
  62   2.0000      -0.404981       -11.0201
  63   2.0000      -0.345468        -9.4007
  64   2.0000      -0.332186        -9.0392
  65   2.0000      -0.327244        -8.9048
  66   2.0000      -0.292068        -7.9476
  67   0.0000       0.032722         0.8904
  68   0.0000       0.069140         1.8814
  69   0.0000       0.112246         3.0544
  70   0.0000       0.124545         3.3890
  71   0.0000       0.131521         3.5789

MULLIKEN ATOMIC CHARGES
-----------------------
   0 S :    0.167939
   1 C :   -0.136674
   2 C :   -0.070214
   3 C :    0.024298
   4 C :   -0.193941
   5 H :    0.022865
   6 C :    0.041244
   7 H :    0.027304
   8 H :    0.027851
   9 C :   -0.030473
  10 H :    0.041939
  11 H :    0.019042
  12 C :   -0.083160
  13 H :    0.032952
  14 H :    0.055350
  15 H :    0.029651
  16 S :    0.090034
  17 C :   -0.046190
  18 C :   -0.055687
  19 C :    0.012931
  20 C :   -0.202337
  21 H :    0.013470
  22 C :    0.079827
  23 H :    0.017581
  24 H :    0.038184
  25 C :   -0.108683
  26 H :    0.024529
  27 H :    0.022166
  28 C :   -0.028256
  29 H :    0.011201
  30 H :    0.027569
  31 H :    0.042346
  32 H :    0.052243
  33 H :    0.033099
Sum of atomic charges:   -0.0000000

LOEWDIN ATOMIC CHARGES
----------------------
   0 S :    0.491513
   1 C :   -0.234651
   2 C :   -0.074065
   3 C :   -0.050166
   4 C :   -0.224135
   5 H :    0.029312
   6 C :   -0.028434
   7 H :    0.031645
   8 H :    0.030186
   9 C :   -0.036374
  10 H :    0.030747
  11 H :    0.015274
  12 C :   -0.064806
  13 H :    0.030306
  14 H :    0.026968
  15 H :    0.018660
  16 S :    0.380905
  17 C :   -0.181620
  18 C :   -0.075065
  19 C :   -0.052115
  20 C :   -0.186037
  21 H :    0.031300
  22 C :   -0.039386
  23 H :    0.032631
  24 H :    0.038714
  25 C :   -0.048085
  26 H :    0.021244
  27 H :    0.026637
  28 C :   -0.072878
  29 H :    0.019586
  30 H :    0.030080
  31 H :    0.027869
  32 H :    0.028508
  33 H :    0.025733

  Mayer bond orders larger than 0.100000
B(  0-S ,  1-C ) :   1.2049 B(  0-S ,  4-C ) :   1.2030 B(  1-C ,  2-C ) :   1.5508
B(  1-C ,  4-C ) :   0.1033 B(  1-C , 32-H ) :   0.9608 B(  2-C ,  3-C ) :   1.3134
B(  2-C ,  6-C ) :   0.9957 B(  3-C ,  4-C ) :   1.5030 B(  3-C ,  5-H ) :   0.9914
B(  4-C , 20-C ) :   1.0252 B(  6-C ,  7-H ) :   0.9456 B(  6-C ,  8-H ) :   0.9486
B(  6-C ,  9-C ) :   1.0634 B(  9-C , 10-H ) :   0.9550 B(  9-C , 11-H ) :   0.9551
B(  9-C , 12-C ) :   1.0753 B( 12-C , 13-H ) :   0.9729 B( 12-C , 14-H ) :   0.9693
B( 12-C , 15-H ) :   0.9728 B( 16-S , 17-C ) :   1.1201 B( 16-S , 20-C ) :   1.1523
B( 17-C , 18-C ) :   1.6383 B( 17-C , 20-C ) :   0.1010 B( 17-C , 33-H ) :   0.9688
B( 18-C , 19-C ) :   1.2437 B( 18-C , 21-H ) :   0.9793 B( 19-C , 20-C ) :   1.5834
B( 19-C , 22-C ) :   1.0489 B( 22-C , 23-H ) :   0.9118 B( 22-C , 24-H ) :   0.9403
B( 22-C , 25-C ) :   1.0667 B( 25-C , 26-H ) :   0.9526 B( 25-C , 27-H ) :   0.9445
B( 25-C , 28-C ) :   1.0733 B( 28-C , 29-H ) :   0.9685 B( 28-C , 30-H ) :   0.9695
B( 28-C , 31-H ) :   0.9735

Dispersion correction           -0.015764364
FINAL SINGLE POINT ENERGY     -1339.861963132266

DIPOLE MOMENT
-------------
                                X             Y             Z
Electronic contribution:     -2.63321     -30.97729       2.90998
Nuclear contribution   :      2.78318      31.56230      -3.06019
                        -----------------------------------------
Total Dipole Moment    :      0.14997       0.58501      -0.15021
                        -----------------------------------------
Magnitude (a.u.)       :      0.62233
Magnitude (Debye)      :      1.58184

Rotational constants in cm-1:     0.018169     0.010739     0.007244
Rotational constants in MHz :   544.706161   321.934881   217.172926

                             ****ORCA TERMINATED NORMALLY****
TOTAL RUN TIME: 0 days 0 hours 0 minutes 23 seconds 293 msec
