                         Program Version 4.2.1 -  RELEASE  -
|  1> ! wB97X-D3 SP def2-SVP
|  2> %pal
|  3> nprocs 24
|  4> end
|  5>
|  6> * xyz 0 1
|  7> S 	 -58.1561 	 13.6153 	 -98.3758
|  8> C 	 -56.6091 	 13.7543 	 -99.1385
|  9> C 	 -55.6999 	 14.2131 	 -98.1884
| 10> C 	 -56.2727 	 14.317 	 -96.8731
| 11> C 	 -57.6162 	 14.0445 	 -96.8145
| 12> H 	 -55.6078 	 14.5765 	 -96.0781
| 13> C 	 -54.2483 	 14.4622 	 -98.4711
| 14> H 	 -53.8168 	 15.1911 	 -97.7459
| 15> H 	 -54.2127 	 14.9873 	 -99.3869
| 16> C 	 -53.2718 	 13.2918 	 -98.496
| 17> H 	 -53.2754 	 12.8811 	 -97.499
| 18> H 	 -53.5799 	 12.4762 	 -99.0597
| 19> C 	 -52.0136 	 13.7701 	 -99.1831
| 20> H 	 -51.2885 	 13.0231 	 -98.9017
| 21> H 	 -52.0694 	 13.7918 	 -100.277
| 22> H 	 -51.6107 	 14.7181 	 -98.8522
| 23> S 	 -60.273 	 14.0954 	 -96.0675
| 24> C 	 -60.7077 	 14.4038 	 -94.3849
| 25> C 	 -59.576 	 14.5541 	 -93.637
| 26> C 	 -58.3552 	 14.3929 	 -94.3177
| 27> C 	 -58.5356 	 14.2174 	 -95.7202
| 28> H 	 -59.7338 	 14.8275 	 -92.6692
| 29> C 	 -57.0439 	 14.3712 	 -93.5645
| 30> H 	 -56.268 	 13.8219 	 -94.1448
| 31> H 	 -57.2367 	 13.7305 	 -92.6625
| 32> C 	 -56.4901 	 15.7034 	 -93.1368
| 33> H 	 -56.4835 	 16.4224 	 -93.952
| 34> H 	 -55.4199 	 15.5061 	 -92.9032
| 35> C 	 -56.9637 	 16.2433 	 -91.8582
| 36> H 	 -56.9891 	 15.4405 	 -91.1318
| 37> H 	 -57.9453 	 16.6453 	 -91.9689
| 38> H 	 -56.2262 	 16.9876 	 -91.5219
| 39> H 	 -56.3645 	 13.475 	 -100.152
| 40> H 	 -61.6787 	 14.5681 	 -93.9043
| 41> *
| 42>
| 43>                          ****END OF INPUT****

CARTESIAN COORDINATES (ANGSTROEM)
---------------------------------
  S    -58.156100   13.615300  -98.375800
  C    -56.609100   13.754300  -99.138500
  C    -55.699900   14.213100  -98.188400
  C    -56.272700   14.317000  -96.873100
  C    -57.616200   14.044500  -96.814500
  H    -55.607800   14.576500  -96.078100
  C    -54.248300   14.462200  -98.471100
  H    -53.816800   15.191100  -97.745900
  H    -54.212700   14.987300  -99.386900
  C    -53.271800   13.291800  -98.496000
  H    -53.275400   12.881100  -97.499000
  H    -53.579900   12.476200  -99.059700
  C    -52.013600   13.770100  -99.183100
  H    -51.288500   13.023100  -98.901700
  H    -52.069400   13.791800  -100.277000
  H    -51.610700   14.718100  -98.852200
  S    -60.273000   14.095400  -96.067500
  C    -60.707700   14.403800  -94.384900
  C    -59.576000   14.554100  -93.637000
  C    -58.355200   14.392900  -94.317700
  C    -58.535600   14.217400  -95.720200
  H    -59.733800   14.827500  -92.669200
  C    -57.043900   14.371200  -93.564500
  H    -56.268000   13.821900  -94.144800
  H    -57.236700   13.730500  -92.662500
  C    -56.490100   15.703400  -93.136800
  H    -56.483500   16.422400  -93.952000
  H    -55.419900   15.506100  -92.903200
  C    -56.963700   16.243300  -91.858200
  H    -56.989100   15.440500  -91.131800
  H    -57.945300   16.645300  -91.968900
  H    -56.226200   16.987600  -91.521900
  H    -56.364500   13.475000  -100.152000
  H    -61.678700   14.568100  -93.904300

 Total Charge           Charge          ....    0
 Multiplicity           Mult            ....    1
 Number of Electrons    NEL             ....  134
 Basis Dimension        Dim             ....  322

ORBITAL ENERGIES
----------------

  NO   OCC          E(Eh)            E(eV)
   0   2.0000     -88.966524     -2420.9022
   1   2.0000     -88.964449     -2420.8457
   2   2.0000     -10.333704      -281.1944
   3   2.0000     -10.329013      -281.0667
   4   2.0000     -10.317312      -280.7483
   5   2.0000     -10.312782      -280.6251
   6   2.0000     -10.304821      -280.4084
   7   2.0000     -10.297877      -280.2195
   8   2.0000     -10.294709      -280.1333
   9   2.0000     -10.289764      -279.9987
  10   2.0000     -10.284717      -279.8614
  11   2.0000     -10.282837      -279.8102
  12   2.0000     -10.280910      -279.7578
  13   2.0000     -10.278742      -279.6988
  14   2.0000     -10.277568      -279.6668
  15   2.0000     -10.272748      -279.5357
  16   2.0000      -8.080438      -219.8799
  17   2.0000      -8.080280      -219.8756
  18   2.0000      -6.039138      -164.3333
  19   2.0000      -6.038856      -164.3256
  20   2.0000      -6.035041      -164.2218
  21   2.0000      -6.034493      -164.2069
  22   2.0000      -6.031061      -164.1135
  23   2.0000      -6.031047      -164.1131
  24   2.0000      -1.011865       -27.5342
  25   2.0000      -0.985290       -26.8111
  26   2.0000      -0.921202       -25.0672
  27   2.0000      -0.918508       -24.9939
  28   2.0000      -0.876630       -23.8543
  29   2.0000      -0.857268       -23.3274
  30   2.0000      -0.847434       -23.0599
  31   2.0000      -0.819943       -22.3118
  32   2.0000      -0.784537       -21.3483
  33   2.0000      -0.772578       -21.0229
  34   2.0000      -0.713947       -19.4275
  35   2.0000      -0.708881       -19.2896
  36   2.0000      -0.688183       -18.7264
  37   2.0000      -0.665296       -18.1036
  38   2.0000      -0.637805       -17.3556
  39   2.0000      -0.630769       -17.1641
  40   2.0000      -0.597904       -16.2698
  41   2.0000      -0.577490       -15.7143
  42   2.0000      -0.566253       -15.4085
  43   2.0000      -0.555188       -15.1074
  44   2.0000      -0.550726       -14.9860
  45   2.0000      -0.530341       -14.4313
  46   2.0000      -0.522002       -14.2044
  47   2.0000      -0.513932       -13.9848
  48   2.0000      -0.512019       -13.9327
  49   2.0000      -0.502967       -13.6864
  50   2.0000      -0.494883       -13.4664
  51   2.0000      -0.482735       -13.1359
  52   2.0000      -0.475049       -12.9267
  53   2.0000      -0.471178       -12.8214
  54   2.0000      -0.464768       -12.6470
  55   2.0000      -0.454713       -12.3734
  56   2.0000      -0.443463       -12.0673
  57   2.0000      -0.437063       -11.8931
  58   2.0000      -0.434278       -11.8173
  59   2.0000      -0.424385       -11.5481
  60   2.0000      -0.417177       -11.3520
  61   2.0000      -0.407191       -11.0802
  62   2.0000      -0.404838       -11.0162
  63   2.0000      -0.364999        -9.9321
  64   2.0000      -0.335371        -9.1259
  65   2.0000      -0.324699        -8.8355
  66   2.0000      -0.279122        -7.5953
  67   0.0000       0.016698         0.4544
  68   0.0000       0.089912         2.4466
  69   0.0000       0.101128         2.7518
  70   0.0000       0.117897         3.2081
  71   0.0000       0.134787         3.6677

MULLIKEN ATOMIC CHARGES
-----------------------
   0 S :    0.097968
   1 C :   -0.110118
   2 C :   -0.097450
   3 C :   -0.013553
   4 C :   -0.067297
   5 H :   -0.008667
   6 C :    0.031719
   7 H :    0.023365
   8 H :    0.010485
   9 C :   -0.013814
  10 H :    0.020600
  11 H :    0.005075
  12 C :   -0.042120
  13 H :    0.027078
  14 H :    0.041370
  15 H :    0.024933
  16 S :    0.090337
  17 C :   -0.078849
  18 C :   -0.016060
  19 C :   -0.028234
  20 C :   -0.115504
  21 H :   -0.022412
  22 C :    0.016417
  23 H :    0.031341
  24 H :    0.032753
  25 C :   -0.073697
  26 H :    0.032723
  27 H :    0.019735
  28 C :   -0.006938
  29 H :    0.014186
  30 H :    0.029387
  31 H :    0.038285
  32 H :    0.047777
  33 H :    0.059179
Sum of atomic charges:   -0.0000000

LOEWDIN ATOMIC CHARGES
----------------------
   0 S :    0.430522
   1 C :   -0.204014
   2 C :   -0.061269
   3 C :   -0.072776
   4 C :   -0.201003
   5 H :    0.023720
   6 C :   -0.037884
   7 H :    0.033383
   8 H :    0.023937
   9 C :   -0.034332
  10 H :    0.024409
  11 H :    0.016713
  12 C :   -0.059645
  13 H :    0.027877
  14 H :    0.030239
  15 H :    0.020533
  16 S :    0.386649
  17 C :   -0.181375
  18 C :   -0.066952
  19 C :   -0.054781
  20 C :   -0.181534
  21 H :    0.015603
  22 C :   -0.037969
  23 H :    0.032787
  24 H :    0.037400
  25 C :   -0.048838
  26 H :    0.024956
  27 H :    0.028721
  28 C :   -0.058316
  29 H :    0.022321
  30 H :    0.018332
  31 H :    0.032754
  32 H :    0.030416
  33 H :    0.039418

  Mayer bond orders larger than 0.100000
B(  0-S ,  1-C ) :   1.1407 B(  0-S ,  4-C ) :   1.1613 B(  1-C ,  2-C ) :   1.5729
B(  1-C , 32-H ) :   0.9769 B(  2-C ,  3-C ) :   1.2929 B(  2-C ,  6-C ) :   1.0274
B(  3-C ,  4-C ) :   1.4951 B(  3-C ,  5-H ) :   1.0013 B(  4-C , 20-C ) :   1.1068
B(  6-C ,  7-H ) :   0.9386 B(  6-C ,  8-H ) :   0.9390 B(  6-C ,  9-C ) :   1.0668
B(  9-C , 10-H ) :   0.9553 B(  9-C , 11-H ) :   0.9510 B(  9-C , 12-C ) :   1.0680
B( 12-C , 13-H ) :   0.9714 B( 12-C , 14-H ) :   0.9744 B( 12-C , 15-H ) :   0.9765
B( 16-S , 17-C ) :   1.1379 B( 16-S , 20-C ) :   1.1337 B( 17-C , 18-C ) :   1.6272
B( 17-C , 20-C ) :   0.1012 B( 17-C , 33-H ) :   0.9612 B( 18-C , 19-C ) :   1.2482
B( 18-C , 21-H ) :   1.0003 B( 19-C , 20-C ) :   1.5541 B( 19-C , 22-C ) :   1.0406
B( 22-C , 23-H ) :   0.9342 B( 22-C , 24-H ) :   0.9336 B( 22-C , 25-C ) :   1.0794
B( 25-C , 26-H ) :   0.9483 B( 25-C , 27-H ) :   0.9524 B( 25-C , 28-C ) :   1.0953
B( 28-C , 29-H ) :   0.9685 B( 28-C , 30-H ) :   0.9705 B( 28-C , 31-H ) :   0.9709

Dispersion correction           -0.013696973
FINAL SINGLE POINT ENERGY     -1339.870023144356

DIPOLE MOMENT
-------------
                                X             Y             Z
Electronic contribution:    -28.08694      -5.52090      -9.31750
Nuclear contribution   :     28.76042       5.63491       9.67727
                        -----------------------------------------
Total Dipole Moment    :      0.67348       0.11401       0.35977
                        -----------------------------------------
Magnitude (a.u.)       :      0.77202
Magnitude (Debye)      :      1.96231

Rotational constants in cm-1:     0.019702     0.008155     0.005937
Rotational constants in MHz :   590.645075   244.472274   177.995180

                             ****ORCA TERMINATED NORMALLY****
TOTAL RUN TIME: 0 days 0 hours 0 minutes 21 seconds 460 msec
