                         Program Version 4.2.1 -  RELEASE  -
|  1> ! wB97X-D3 SP def2-SVP
|  2> %pal
|  3> nprocs 24
|  4> end
|  5>
|  6> * xyz 0 1
|  7> S 	 -105.94 	 19.4374 	 -109.033
|  8> C 	 -104.275 	 19.6329 	 -108.75
|  9> C 	 -103.641 	 20.1751 	 -109.791
| 10> C 	 -104.487 	 20.3795 	 -110.923
| 11> C 	 -105.752 	 20.0677 	 -110.636
| 12> H 	 -104.247 	 20.8188 	 -111.883
| 13> C 	 -102.169 	 20.5644 	 -109.735
| 14> H 	 -101.735 	 20.3839 	 -110.759
| 15> H 	 -101.59 	 19.8655 	 -109.14
| 16> C 	 -101.851 	 21.917 	 -109.108
| 17> H 	 -102.135 	 22.0031 	 -107.981
| 18> H 	 -100.79 	 22.0577 	 -109.045
| 19> C 	 -102.581 	 23.0616 	 -109.776
| 20> H 	 -102.108 	 23.1 	 -110.799
| 21> H 	 -103.638 	 22.8551 	 -109.816
| 22> H 	 -102.47 	 23.9461 	 -109.24
| 23> S 	 -108.428 	 20.933 	 -110.978
| 24> C 	 -109.141 	 20.8507 	 -112.569
| 25> C 	 -108.448 	 19.9628 	 -113.318
| 26> C 	 -107.169 	 19.589 	 -112.806
| 27> C 	 -106.895 	 20.1741 	 -111.524
| 28> H 	 -108.815 	 19.6411 	 -114.273
| 29> C 	 -106.253 	 18.726 	 -113.72
| 30> H 	 -106.655 	 17.7465 	 -114.013
| 31> H 	 -105.37 	 18.6259 	 -113.19
| 32> C 	 -105.871 	 19.3878 	 -115.034
| 33> H 	 -106.771 	 19.726 	 -115.612
| 34> H 	 -105.441 	 18.6677 	 -115.747
| 35> C 	 -104.99 	 20.5674 	 -114.845
| 36> H 	 -105.221 	 21.1844 	 -113.997
| 37> H 	 -104.996 	 21.2275 	 -115.768
| 38> H 	 -103.958 	 20.1971 	 -114.915
| 39> H 	 -103.915 	 19.5238 	 -107.768
| 40> H 	 -110.048 	 21.3941 	 -112.877
| 41> *
| 42>
| 43>                          ****END OF INPUT****

CARTESIAN COORDINATES (ANGSTROEM)
---------------------------------
  S    -105.940000   19.437400  -109.033000
  C    -104.275000   19.632900  -108.750000
  C    -103.641000   20.175100  -109.791000
  C    -104.487000   20.379500  -110.923000
  C    -105.752000   20.067700  -110.636000
  H    -104.247000   20.818800  -111.883000
  C    -102.169000   20.564400  -109.735000
  H    -101.735000   20.383900  -110.759000
  H    -101.590000   19.865500  -109.140000
  C    -101.851000   21.917000  -109.108000
  H    -102.135000   22.003100  -107.981000
  H    -100.790000   22.057700  -109.045000
  C    -102.581000   23.061600  -109.776000
  H    -102.108000   23.100000  -110.799000
  H    -103.638000   22.855100  -109.816000
  H    -102.470000   23.946100  -109.240000
  S    -108.428000   20.933000  -110.978000
  C    -109.141000   20.850700  -112.569000
  C    -108.448000   19.962800  -113.318000
  C    -107.169000   19.589000  -112.806000
  C    -106.895000   20.174100  -111.524000
  H    -108.815000   19.641100  -114.273000
  C    -106.253000   18.726000  -113.720000
  H    -106.655000   17.746500  -114.013000
  H    -105.370000   18.625900  -113.190000
  C    -105.871000   19.387800  -115.034000
  H    -106.771000   19.726000  -115.612000
  H    -105.441000   18.667700  -115.747000
  C    -104.990000   20.567400  -114.845000
  H    -105.221000   21.184400  -113.997000
  H    -104.996000   21.227500  -115.768000
  H    -103.958000   20.197100  -114.915000
  H    -103.915000   19.523800  -107.768000
  H    -110.048000   21.394100  -112.877000

 Total Charge           Charge          ....    0
 Multiplicity           Mult            ....    1
 Number of Electrons    NEL             ....  134
 Basis Dimension        Dim             ....  322

ORBITAL ENERGIES
----------------

  NO   OCC          E(Eh)            E(eV)
   0   2.0000     -88.962932     -2420.8045
   1   2.0000     -88.961238     -2420.7583
   2   2.0000     -10.335180      -281.2346
   3   2.0000     -10.323187      -280.9082
   4   2.0000     -10.318725      -280.7868
   5   2.0000     -10.311461      -280.5891
   6   2.0000     -10.301247      -280.3112
   7   2.0000     -10.295398      -280.1520
   8   2.0000     -10.292682      -280.0781
   9   2.0000     -10.289834      -280.0006
  10   2.0000     -10.289241      -279.9845
  11   2.0000     -10.288522      -279.9649
  12   2.0000     -10.287487      -279.9368
  13   2.0000     -10.284481      -279.8550
  14   2.0000     -10.275796      -279.6186
  15   2.0000     -10.267912      -279.4041
  16   2.0000      -8.077971      -219.8128
  17   2.0000      -8.077349      -219.7958
  18   2.0000      -6.036361      -164.2577
  19   2.0000      -6.035988      -164.2476
  20   2.0000      -6.032306      -164.1474
  21   2.0000      -6.032009      -164.1393
  22   2.0000      -6.028622      -164.0471
  23   2.0000      -6.027870      -164.0267
  24   2.0000      -1.016515       -27.6608
  25   2.0000      -0.987377       -26.8679
  26   2.0000      -0.915061       -24.9001
  27   2.0000      -0.912577       -24.8325
  28   2.0000      -0.875560       -23.8252
  29   2.0000      -0.852347       -23.1935
  30   2.0000      -0.843489       -22.9525
  31   2.0000      -0.819571       -22.3017
  32   2.0000      -0.785297       -21.3690
  33   2.0000      -0.773874       -21.0582
  34   2.0000      -0.705664       -19.2021
  35   2.0000      -0.697703       -18.9855
  36   2.0000      -0.691618       -18.8199
  37   2.0000      -0.656956       -17.8767
  38   2.0000      -0.646989       -17.6055
  39   2.0000      -0.616353       -16.7718
  40   2.0000      -0.598680       -16.2909
  41   2.0000      -0.571800       -15.5595
  42   2.0000      -0.561576       -15.2813
  43   2.0000      -0.554913       -15.0999
  44   2.0000      -0.547410       -14.8958
  45   2.0000      -0.541128       -14.7248
  46   2.0000      -0.520235       -14.1563
  47   2.0000      -0.518180       -14.1004
  48   2.0000      -0.504346       -13.7239
  49   2.0000      -0.500622       -13.6226
  50   2.0000      -0.492469       -13.4008
  51   2.0000      -0.475527       -12.9397
  52   2.0000      -0.470941       -12.8150
  53   2.0000      -0.465722       -12.6729
  54   2.0000      -0.458229       -12.4691
  55   2.0000      -0.447939       -12.1890
  56   2.0000      -0.446257       -12.1433
  57   2.0000      -0.438683       -11.9372
  58   2.0000      -0.431330       -11.7371
  59   2.0000      -0.426555       -11.6071
  60   2.0000      -0.421601       -11.4723
  61   2.0000      -0.401411       -10.9230
  62   2.0000      -0.398283       -10.8378
  63   2.0000      -0.351684        -9.5698
  64   2.0000      -0.333702        -9.0805
  65   2.0000      -0.327464        -8.9107
  66   2.0000      -0.294388        -8.0107
  67   0.0000       0.031570         0.8591
  68   0.0000       0.066314         1.8045
  69   0.0000       0.112091         3.0501
  70   0.0000       0.125838         3.4242
  71   0.0000       0.131201         3.5702

MULLIKEN ATOMIC CHARGES
-----------------------
   0 S :    0.111562
   1 C :   -0.105398
   2 C :   -0.075002
   3 C :    0.015097
   4 C :   -0.134595
   5 H :    0.001503
   6 C :    0.066991
   7 H :    0.032188
   8 H :    0.018197
   9 C :   -0.097360
  10 H :    0.027323
  11 H :    0.025441
  12 C :   -0.028288
  13 H :    0.031501
  14 H :    0.047334
  15 H :    0.020406
  16 S :    0.089988
  17 C :   -0.094954
  18 C :   -0.015898
  19 C :   -0.050939
  20 C :   -0.168290
  21 H :    0.012390
  22 C :    0.134102
  23 H :    0.038397
  24 H :   -0.001674
  25 C :   -0.102991
  26 H :    0.023139
  27 H :    0.026841
  28 C :   -0.070039
  29 H :    0.059593
  30 H :    0.028885
  31 H :    0.030333
  32 H :    0.032244
  33 H :    0.071970
Sum of atomic charges:   -0.0000000

LOEWDIN ATOMIC CHARGES
----------------------
   0 S :    0.423392
   1 C :   -0.193738
   2 C :   -0.067288
   3 C :   -0.063376
   4 C :   -0.194091
   5 H :    0.033727
   6 C :   -0.035992
   7 H :    0.035041
   8 H :    0.030522
   9 C :   -0.046590
  10 H :    0.028556
  11 H :    0.018875
  12 C :   -0.061871
  13 H :    0.030328
  14 H :    0.027411
  15 H :    0.015863
  16 S :    0.381620
  17 C :   -0.180489
  18 C :   -0.072596
  19 C :   -0.047266
  20 C :   -0.188557
  21 H :    0.027046
  22 C :   -0.022137
  23 H :    0.037737
  24 H :    0.018137
  25 C :   -0.050725
  26 H :    0.020708
  27 H :    0.026094
  28 C :   -0.073764
  29 H :    0.022936
  30 H :    0.033720
  31 H :    0.028445
  32 H :    0.019371
  33 H :    0.038952

  Mayer bond orders larger than 0.100000
B(  0-S ,  1-C ) :   1.1360 B(  0-S ,  4-C ) :   1.1550 B(  1-C ,  2-C ) :   1.6435
B(  1-C , 32-H ) :   0.9739 B(  2-C ,  3-C ) :   1.2033 B(  2-C ,  6-C ) :   1.0158
B(  3-C ,  4-C ) :   1.6050 B(  3-C ,  5-H ) :   1.0050 B(  4-C , 20-C ) :   1.0452
B(  6-C ,  7-H ) :   0.9419 B(  6-C ,  8-H ) :   0.9372 B(  6-C ,  9-C ) :   1.0737
B(  9-C , 10-H ) :   0.9534 B(  9-C , 11-H ) :   0.9555 B(  9-C , 12-C ) :   1.0776
B( 12-C , 13-H ) :   0.9752 B( 12-C , 14-H ) :   0.9719 B( 12-C , 15-H ) :   0.9725
B( 16-S , 17-C ) :   1.1484 B( 16-S , 20-C ) :   1.1316 B( 17-C , 18-C ) :   1.6036
B( 17-C , 20-C ) :   0.1074 B( 17-C , 33-H ) :   0.9669 B( 18-C , 19-C ) :   1.2403
B( 18-C , 21-H ) :   0.9927 B( 19-C , 20-C ) :   1.5546 B( 19-C , 22-C ) :   1.0465
B( 22-C , 23-H ) :   0.9361 B( 22-C , 24-H ) :   0.9299 B( 22-C , 25-C ) :   1.0681
B( 25-C , 26-H ) :   0.9569 B( 25-C , 27-H ) :   0.9536 B( 25-C , 28-C ) :   1.0780
B( 28-C , 29-H ) :   0.9694 B( 28-C , 30-H ) :   0.9676 B( 28-C , 31-H ) :   0.9724

Dispersion correction           -0.015204774
FINAL SINGLE POINT ENERGY     -1339.867226753460

DIPOLE MOMENT
-------------
                                X             Y             Z
Electronic contribution:    -20.79696      -6.38168      13.38191
Nuclear contribution   :     21.17020       6.39460     -13.83781
                        -----------------------------------------
Total Dipole Moment    :      0.37323       0.01292      -0.45590
                        -----------------------------------------
Magnitude (a.u.)       :      0.58934
Magnitude (Debye)      :      1.49797

Rotational constants in cm-1:     0.019517     0.009069     0.007448
Rotational constants in MHz :   585.118256   271.895132   223.300188

                             ****ORCA TERMINATED NORMALLY****
TOTAL RUN TIME: 0 days 0 hours 0 minutes 22 seconds 407 msec
