                         Program Version 4.2.1 -  RELEASE  -
|  1> ! wB97X-D3 SP def2-SVP
|  2> %pal
|  3> nprocs 24
|  4> end
|  5>
|  6> * xyz 0 1
|  7> S 	 -69.9387 	 9.16501 	 -74.329
|  8> C 	 -69.2799 	 9.2099 	 -72.6352
|  9> C 	 -69.6938 	 10.3668 	 -72.0029
| 10> C 	 -70.6323 	 11.1451 	 -72.7702
| 11> C 	 -70.8719 	 10.6432 	 -74.0602
| 12> H 	 -70.9989 	 12.0145 	 -72.3891
| 13> C 	 -69.2566 	 10.7186 	 -70.5866
| 14> H 	 -68.5471 	 11.5575 	 -70.7397
| 15> H 	 -68.7792 	 9.83659 	 -70.1385
| 16> C 	 -70.2149 	 11.3489 	 -69.6065
| 17> H 	 -69.8335 	 11.5003 	 -68.5801
| 18> H 	 -70.5906 	 12.3269 	 -69.9385
| 19> C 	 -71.4469 	 10.4812 	 -69.2761
| 20> H 	 -72.1757 	 10.3088 	 -70.0532
| 21> H 	 -71.2464 	 9.47127 	 -68.8207
| 22> H 	 -71.986 	 10.977 	 -68.4887
| 23> S 	 -70.7602 	 11.8016 	 -76.5577
| 24> C 	 -72.0593 	 12.8647 	 -77.0814
| 25> C 	 -73.1181 	 12.8577 	 -76.1481
| 26> C 	 -72.8594 	 12.1205 	 -75.0017
| 27> C 	 -71.6279 	 11.3696 	 -75.0563
| 28> H 	 -73.9319 	 13.4876 	 -76.3818
| 29> C 	 -73.8831 	 12.1778 	 -73.8531
| 30> H 	 -74.4238 	 13.1136 	 -74.0139
| 31> H 	 -73.5311 	 12.2131 	 -72.8555
| 32> C 	 -74.8288 	 11.0158 	 -73.8414
| 33> H 	 -74.2342 	 10.1384 	 -73.5719
| 34> H 	 -75.3177 	 10.9444 	 -74.8779
| 35> C 	 -75.9865 	 11.0239 	 -72.8296
| 36> H 	 -76.5462 	 10.0875 	 -72.8143
| 37> H 	 -76.6912 	 11.7614 	 -73.3321
| 38> H 	 -75.6369 	 11.3486 	 -71.8603
| 39> H 	 -68.5259 	 8.51442 	 -72.2434
| 40> H 	 -72.152 	 13.4484 	 -77.9825
| 41> *
| 42>
| 43>                          ****END OF INPUT****

CARTESIAN COORDINATES (ANGSTROEM)
---------------------------------
  S    -69.938700    9.165010  -74.329000
  C    -69.279900    9.209900  -72.635200
  C    -69.693800   10.366800  -72.002900
  C    -70.632300   11.145100  -72.770200
  C    -70.871900   10.643200  -74.060200
  H    -70.998900   12.014500  -72.389100
  C    -69.256600   10.718600  -70.586600
  H    -68.547100   11.557500  -70.739700
  H    -68.779200    9.836590  -70.138500
  C    -70.214900   11.348900  -69.606500
  H    -69.833500   11.500300  -68.580100
  H    -70.590600   12.326900  -69.938500
  C    -71.446900   10.481200  -69.276100
  H    -72.175700   10.308800  -70.053200
  H    -71.246400    9.471270  -68.820700
  H    -71.986000   10.977000  -68.488700
  S    -70.760200   11.801600  -76.557700
  C    -72.059300   12.864700  -77.081400
  C    -73.118100   12.857700  -76.148100
  C    -72.859400   12.120500  -75.001700
  C    -71.627900   11.369600  -75.056300
  H    -73.931900   13.487600  -76.381800
  C    -73.883100   12.177800  -73.853100
  H    -74.423800   13.113600  -74.013900
  H    -73.531100   12.213100  -72.855500
  C    -74.828800   11.015800  -73.841400
  H    -74.234200   10.138400  -73.571900
  H    -75.317700   10.944400  -74.877900
  C    -75.986500   11.023900  -72.829600
  H    -76.546200   10.087500  -72.814300
  H    -76.691200   11.761400  -73.332100
  H    -75.636900   11.348600  -71.860300
  H    -68.525900    8.514420  -72.243400
  H    -72.152000   13.448400  -77.982500

 Total Charge           Charge          ....    0
 Multiplicity           Mult            ....    1
 Number of Electrons    NEL             ....  134
 Basis Dimension        Dim             ....  322

ORBITAL ENERGIES
----------------

  NO   OCC          E(Eh)            E(eV)
   0   2.0000     -88.971538     -2421.0386
   1   2.0000     -88.969221     -2420.9756
   2   2.0000     -10.337481      -281.2972
   3   2.0000     -10.335968      -281.2560
   4   2.0000     -10.321149      -280.8528
   5   2.0000     -10.320694      -280.8403
   6   2.0000     -10.311337      -280.5858
   7   2.0000     -10.305194      -280.4186
   8   2.0000     -10.297214      -280.2014
   9   2.0000     -10.294196      -280.1193
  10   2.0000     -10.292152      -280.0637
  11   2.0000     -10.291863      -280.0558
  12   2.0000     -10.288984      -279.9775
  13   2.0000     -10.283949      -279.8405
  14   2.0000     -10.280786      -279.7544
  15   2.0000     -10.275048      -279.5983
  16   2.0000      -8.085066      -220.0058
  17   2.0000      -8.082393      -219.9331
  18   2.0000      -6.043525      -164.4527
  19   2.0000      -6.041090      -164.3864
  20   2.0000      -6.039563      -164.3449
  21   2.0000      -6.037173      -164.2798
  22   2.0000      -6.036118      -164.2511
  23   2.0000      -6.032988      -164.1660
  24   2.0000      -0.998747       -27.1773
  25   2.0000      -0.976315       -26.5669
  26   2.0000      -0.914280       -24.8788
  27   2.0000      -0.911078       -24.7917
  28   2.0000      -0.869813       -23.6688
  29   2.0000      -0.850800       -23.1515
  30   2.0000      -0.843321       -22.9479
  31   2.0000      -0.812365       -22.1056
  32   2.0000      -0.786239       -21.3947
  33   2.0000      -0.773889       -21.0586
  34   2.0000      -0.713011       -19.4020
  35   2.0000      -0.695036       -18.9129
  36   2.0000      -0.680872       -18.5275
  37   2.0000      -0.661857       -18.0100
  38   2.0000      -0.636512       -17.3204
  39   2.0000      -0.627614       -17.0782
  40   2.0000      -0.599804       -16.3215
  41   2.0000      -0.570301       -15.5187
  42   2.0000      -0.564175       -15.3520
  43   2.0000      -0.557570       -15.1723
  44   2.0000      -0.547032       -14.8855
  45   2.0000      -0.523419       -14.2430
  46   2.0000      -0.519144       -14.1266
  47   2.0000      -0.511451       -13.9173
  48   2.0000      -0.504719       -13.7341
  49   2.0000      -0.499538       -13.5931
  50   2.0000      -0.491834       -13.3835
  51   2.0000      -0.483282       -13.1508
  52   2.0000      -0.469141       -12.7660
  53   2.0000      -0.465388       -12.6639
  54   2.0000      -0.458876       -12.4866
  55   2.0000      -0.447450       -12.1757
  56   2.0000      -0.445398       -12.1199
  57   2.0000      -0.431933       -11.7535
  58   2.0000      -0.430977       -11.7275
  59   2.0000      -0.424994       -11.5647
  60   2.0000      -0.419447       -11.4137
  61   2.0000      -0.411300       -11.1921
  62   2.0000      -0.403002       -10.9662
  63   2.0000      -0.346062        -9.4168
  64   2.0000      -0.335221        -9.1218
  65   2.0000      -0.329590        -8.9686
  66   2.0000      -0.286214        -7.7883
  67   0.0000       0.019753         0.5375
  68   0.0000       0.062791         1.7086
  69   0.0000       0.108453         2.9512
  70   0.0000       0.117571         3.1993
  71   0.0000       0.125745         3.4217

MULLIKEN ATOMIC CHARGES
-----------------------
   0 S :    0.097702
   1 C :   -0.148562
   2 C :   -0.089375
   3 C :    0.071344
   4 C :   -0.123826
   5 H :   -0.033470
   6 C :    0.092496
   7 H :    0.047101
   8 H :    0.026722
   9 C :   -0.087619
  10 H :    0.039215
  11 H :    0.029380
  12 C :   -0.077231
  13 H :    0.032250
  14 H :    0.031025
  15 H :    0.019104
  16 S :    0.113442
  17 C :   -0.095609
  18 C :   -0.043895
  19 C :   -0.012930
  20 C :   -0.147992
  21 H :    0.008404
  22 C :    0.108938
  23 H :    0.009845
  24 H :    0.004781
  25 C :   -0.125099
  26 H :    0.037942
  27 H :    0.033590
  28 C :   -0.039791
  29 H :    0.045521
  30 H :    0.028909
  31 H :    0.031150
  32 H :    0.061348
  33 H :    0.055188
Sum of atomic charges:   -0.0000000

LOEWDIN ATOMIC CHARGES
----------------------
   0 S :    0.372765
   1 C :   -0.185829
   2 C :   -0.056522
   3 C :   -0.048399
   4 C :   -0.187583
   5 H :    0.011256
   6 C :   -0.035360
   7 H :    0.043583
   8 H :    0.032983
   9 C :   -0.046453
  10 H :    0.036048
  11 H :    0.024260
  12 C :   -0.075824
  13 H :    0.018642
  14 H :    0.028723
  15 H :    0.021353
  16 S :    0.408687
  17 C :   -0.185452
  18 C :   -0.070153
  19 C :   -0.045312
  20 C :   -0.190902
  21 H :    0.027376
  22 C :   -0.029040
  23 H :    0.027659
  24 H :    0.021132
  25 C :   -0.047648
  26 H :    0.024207
  27 H :    0.028331
  28 C :   -0.067308
  29 H :    0.029845
  30 H :    0.030598
  31 H :    0.019305
  32 H :    0.034474
  33 H :    0.030558

  Mayer bond orders larger than 0.100000
B(  0-S ,  1-C ) :   1.1080 B(  0-S ,  4-C ) :   1.1445 B(  1-C ,  2-C ) :   1.6277
B(  1-C , 32-H ) :   0.9652 B(  2-C ,  3-C ) :   1.2429 B(  2-C ,  6-C ) :   1.0167
B(  3-C ,  4-C ) :   1.5414 B(  3-C ,  5-H ) :   1.0056 B(  4-C , 20-C ) :   1.0687
B(  6-C ,  7-H ) :   0.9267 B(  6-C ,  8-H ) :   0.9468 B(  6-C ,  9-C ) :   1.0848
B(  9-C , 10-H ) :   0.9551 B(  9-C , 11-H ) :   0.9474 B(  9-C , 12-C ) :   1.0741
B( 12-C , 13-H ) :   0.9757 B( 12-C , 14-H ) :   0.9746 B( 12-C , 15-H ) :   0.9761
B( 16-S , 17-C ) :   1.1753 B( 16-S , 20-C ) :   1.1500 B( 17-C , 18-C ) :   1.5712
B( 17-C , 20-C ) :   0.1211 B( 17-C , 33-H ) :   0.9661 B( 18-C , 19-C ) :   1.2946
B( 18-C , 21-H ) :   0.9946 B( 19-C , 20-C ) :   1.5220 B( 19-C , 22-C ) :   1.0338
B( 22-C , 23-H ) :   0.9320 B( 22-C , 24-H ) :   0.9315 B( 22-C , 25-C ) :   1.0705
B( 25-C , 26-H ) :   0.9550 B( 25-C , 27-H ) :   0.9578 B( 25-C , 28-C ) :   1.0778
B( 28-C , 29-H ) :   0.9741 B( 28-C , 30-H ) :   0.9781 B( 28-C , 31-H ) :   0.9726

Dispersion correction           -0.014206361
FINAL SINGLE POINT ENERGY     -1339.861141356968

DIPOLE MOMENT
-------------
                                X             Y             Z
Electronic contribution:     16.76286      -3.49081     -25.30329
Nuclear contribution   :    -16.97966       3.95336      25.87454
                        -----------------------------------------
Total Dipole Moment    :     -0.21680       0.46254       0.57126
                        -----------------------------------------
Magnitude (a.u.)       :      0.76634
Magnitude (Debye)      :      1.94789

Rotational constants in cm-1:     0.015916     0.009845     0.007106
Rotational constants in MHz :   477.135524   295.145028   213.040259

                             ****ORCA TERMINATED NORMALLY****
TOTAL RUN TIME: 0 days 0 hours 0 minutes 21 seconds 744 msec
