                         Program Version 4.2.1 -  RELEASE  -
|  1> ! wB97X-D3 SP def2-SVP
|  2> %pal
|  3> nprocs 24
|  4> end
|  5>
|  6> * xyz 0 1
|  7> S 	 9.36254 	 -17.1413 	 -110.808
|  8> C 	 8.28609 	 -17.2343 	 -112.171
|  9> C 	 6.96483 	 -17.1997 	 -111.715
| 10> C 	 6.89084 	 -17.129 	 -110.336
| 11> C 	 8.0879 	 -17.1298 	 -109.623
| 12> H 	 6.05572 	 -17.1364 	 -109.706
| 13> C 	 5.75686 	 -17.2616 	 -112.627
| 14> H 	 6.08411 	 -16.9642 	 -113.636
| 15> H 	 5.13209 	 -16.5219 	 -112.187
| 16> C 	 5.04636 	 -18.5941 	 -112.654
| 17> H 	 5.74214 	 -19.3453 	 -113.155
| 18> H 	 4.82797 	 -19.1338 	 -111.716
| 19> C 	 3.65547 	 -18.3983 	 -113.395
| 20> H 	 3.16248 	 -19.3757 	 -113.372
| 21> H 	 3.09007 	 -17.781 	 -112.74
| 22> H 	 3.83702 	 -18.0298 	 -114.409
| 23> S 	 9.02167 	 -18.4825 	 -107.365
| 24> C 	 8.71843 	 -17.7966 	 -105.811
| 25> C 	 7.9573 	 -16.6696 	 -105.941
| 26> C 	 7.493 	 -16.3922 	 -107.249
| 27> C 	 8.20947 	 -17.1669 	 -108.179
| 28> H 	 7.74918 	 -15.9405 	 -105.127
| 29> C 	 6.48149 	 -15.3093 	 -107.474
| 30> H 	 6.36487 	 -15.1067 	 -108.499
| 31> H 	 6.91156 	 -14.3785 	 -107.123
| 32> C 	 5.18203 	 -15.558 	 -106.654
| 33> H 	 4.51589 	 -14.7035 	 -106.838
| 34> H 	 5.30481 	 -15.5001 	 -105.586
| 35> C 	 4.49324 	 -16.8293 	 -106.887
| 36> H 	 3.37258 	 -16.8282 	 -106.683
| 37> H 	 5.06756 	 -17.7062 	 -106.37
| 38> H 	 4.58079 	 -16.9906 	 -107.967
| 39> H 	 8.50263 	 -17.2753 	 -113.183
| 40> H 	 9.14543 	 -18.3109 	 -104.967
| 41> *
| 42>
| 43>                          ****END OF INPUT****

CARTESIAN COORDINATES (ANGSTROEM)
---------------------------------
  S      9.362540  -17.141300  -110.808000
  C      8.286090  -17.234300  -112.171000
  C      6.964830  -17.199700  -111.715000
  C      6.890840  -17.129000  -110.336000
  C      8.087900  -17.129800  -109.623000
  H      6.055720  -17.136400  -109.706000
  C      5.756860  -17.261600  -112.627000
  H      6.084110  -16.964200  -113.636000
  H      5.132090  -16.521900  -112.187000
  C      5.046360  -18.594100  -112.654000
  H      5.742140  -19.345300  -113.155000
  H      4.827970  -19.133800  -111.716000
  C      3.655470  -18.398300  -113.395000
  H      3.162480  -19.375700  -113.372000
  H      3.090070  -17.781000  -112.740000
  H      3.837020  -18.029800  -114.409000
  S      9.021670  -18.482500  -107.365000
  C      8.718430  -17.796600  -105.811000
  C      7.957300  -16.669600  -105.941000
  C      7.493000  -16.392200  -107.249000
  C      8.209470  -17.166900  -108.179000
  H      7.749180  -15.940500  -105.127000
  C      6.481490  -15.309300  -107.474000
  H      6.364870  -15.106700  -108.499000
  H      6.911560  -14.378500  -107.123000
  C      5.182030  -15.558000  -106.654000
  H      4.515890  -14.703500  -106.838000
  H      5.304810  -15.500100  -105.586000
  C      4.493240  -16.829300  -106.887000
  H      3.372580  -16.828200  -106.683000
  H      5.067560  -17.706200  -106.370000
  H      4.580790  -16.990600  -107.967000
  H      8.502630  -17.275300  -113.183000
  H      9.145430  -18.310900  -104.967000

 Total Charge           Charge          ....    0
 Multiplicity           Mult            ....    1
 Number of Electrons    NEL             ....  134
 Basis Dimension        Dim             ....  322

ORBITAL ENERGIES
----------------

  NO   OCC          E(Eh)            E(eV)
   0   2.0000     -88.965767     -2420.8816
   1   2.0000     -88.963740     -2420.8265
   2   2.0000     -10.327855      -281.0352
   3   2.0000     -10.325494      -280.9710
   4   2.0000     -10.316486      -280.7259
   5   2.0000     -10.308050      -280.4963
   6   2.0000     -10.302786      -280.3531
   7   2.0000     -10.294725      -280.1337
   8   2.0000     -10.294707      -280.1332
   9   2.0000     -10.292207      -280.0652
  10   2.0000     -10.290914      -280.0300
  11   2.0000     -10.290094      -280.0077
  12   2.0000     -10.285308      -279.8775
  13   2.0000     -10.284923      -279.8670
  14   2.0000     -10.282502      -279.8011
  15   2.0000     -10.280289      -279.7409
  16   2.0000      -8.080290      -219.8759
  17   2.0000      -8.079263      -219.8479
  18   2.0000      -6.038754      -164.3228
  19   2.0000      -6.037722      -164.2948
  20   2.0000      -6.034552      -164.2085
  21   2.0000      -6.033625      -164.1833
  22   2.0000      -6.031396      -164.1226
  23   2.0000      -6.030065      -164.0864
  24   2.0000      -1.010389       -27.4941
  25   2.0000      -0.990029       -26.9401
  26   2.0000      -0.918849       -25.0032
  27   2.0000      -0.912526       -24.8311
  28   2.0000      -0.871107       -23.7040
  29   2.0000      -0.855058       -23.2673
  30   2.0000      -0.846492       -23.0342
  31   2.0000      -0.813555       -22.1380
  32   2.0000      -0.786657       -21.4060
  33   2.0000      -0.772768       -21.0281
  34   2.0000      -0.706549       -19.2262
  35   2.0000      -0.699556       -19.0359
  36   2.0000      -0.697035       -18.9673
  37   2.0000      -0.656265       -17.8579
  38   2.0000      -0.646055       -17.5801
  39   2.0000      -0.622507       -16.9393
  40   2.0000      -0.606991       -16.5171
  41   2.0000      -0.568959       -15.4822
  42   2.0000      -0.563495       -15.3335
  43   2.0000      -0.559353       -15.2208
  44   2.0000      -0.544209       -14.8087
  45   2.0000      -0.530754       -14.4425
  46   2.0000      -0.520397       -14.1607
  47   2.0000      -0.514221       -13.9927
  48   2.0000      -0.505659       -13.7597
  49   2.0000      -0.501288       -13.6407
  50   2.0000      -0.490154       -13.3378
  51   2.0000      -0.482328       -13.1248
  52   2.0000      -0.476161       -12.9570
  53   2.0000      -0.469074       -12.7642
  54   2.0000      -0.460118       -12.5204
  55   2.0000      -0.448702       -12.2098
  56   2.0000      -0.444942       -12.1075
  57   2.0000      -0.439288       -11.9536
  58   2.0000      -0.434265       -11.8169
  59   2.0000      -0.419162       -11.4060
  60   2.0000      -0.418846       -11.3974
  61   2.0000      -0.410984       -11.1834
  62   2.0000      -0.407358       -11.0848
  63   2.0000      -0.346588        -9.4311
  64   2.0000      -0.329905        -8.9772
  65   2.0000      -0.327879        -8.9220
  66   2.0000      -0.289655        -7.8819
  67   0.0000       0.029540         0.8038
  68   0.0000       0.073641         2.0039
  69   0.0000       0.113100         3.0776
  70   0.0000       0.124344         3.3836
  71   0.0000       0.129974         3.5368

MULLIKEN ATOMIC CHARGES
-----------------------
   0 S :    0.119666
   1 C :   -0.090944
   2 C :   -0.085348
   3 C :    0.061196
   4 C :   -0.173901
   5 H :   -0.053145
   6 C :    0.110548
   7 H :    0.021705
   8 H :    0.015581
   9 C :   -0.126741
  10 H :    0.031269
  11 H :    0.037744
  12 C :   -0.028263
  13 H :    0.035014
  14 H :    0.027752
  15 H :    0.043755
  16 S :    0.108375
  17 C :   -0.094439
  18 C :   -0.028239
  19 C :   -0.076030
  20 C :   -0.146257
  21 H :    0.034967
  22 C :    0.116365
  23 H :    0.007570
  24 H :    0.026503
  25 C :   -0.075792
  26 H :    0.025684
  27 H :    0.023295
  28 C :   -0.078889
  29 H :    0.050782
  30 H :    0.061993
  31 H :    0.021046
  32 H :    0.014437
  33 H :    0.062739
Sum of atomic charges:   -0.0000000

LOEWDIN ATOMIC CHARGES
----------------------
   0 S :    0.422548
   1 C :   -0.196463
   2 C :   -0.063725
   3 C :   -0.063580
   4 C :   -0.202105
   5 H :    0.014876
   6 C :   -0.027829
   7 H :    0.032861
   8 H :    0.026803
   9 C :   -0.047105
  10 H :    0.026938
  11 H :    0.025942
  12 C :   -0.058249
  13 H :    0.027799
  14 H :    0.020339
  15 H :    0.026790
  16 S :    0.417356
  17 C :   -0.188128
  18 C :   -0.074979
  19 C :   -0.052416
  20 C :   -0.204436
  21 H :    0.037834
  22 C :   -0.025708
  23 H :    0.023982
  24 H :    0.038184
  25 C :   -0.048195
  26 H :    0.027399
  27 H :    0.020737
  28 C :   -0.079965
  29 H :    0.037313
  30 H :    0.041983
  31 H :    0.019647
  32 H :    0.015692
  33 H :    0.027861

  Mayer bond orders larger than 0.100000
B(  0-S ,  1-C ) :   1.1568 B(  0-S ,  4-C ) :   1.1646 B(  1-C ,  2-C ) :   1.5523
B(  1-C ,  4-C ) :   0.1076 B(  1-C , 32-H ) :   0.9788 B(  2-C ,  3-C ) :   1.2882
B(  2-C ,  6-C ) :   1.0145 B(  3-C ,  4-C ) :   1.5295 B(  3-C ,  5-H ) :   1.0068
B(  4-C , 20-C ) :   1.0502 B(  6-C ,  7-H ) :   0.9360 B(  6-C ,  8-H ) :   0.9380
B(  6-C ,  9-C ) :   1.0617 B(  9-C , 10-H ) :   0.9530 B(  9-C , 11-H ) :   0.9626
B(  9-C , 12-C ) :   1.0667 B( 12-C , 13-H ) :   0.9757 B( 12-C , 14-H ) :   0.9781
B( 12-C , 15-H ) :   0.9763 B( 16-S , 17-C ) :   1.1631 B( 16-S , 20-C ) :   1.1567
B( 17-C , 18-C ) :   1.5654 B( 17-C , 20-C ) :   0.1024 B( 17-C , 33-H ) :   0.9763
B( 18-C , 19-C ) :   1.2600 B( 18-C , 21-H ) :   0.9853 B( 19-C , 20-C ) :   1.5533
B( 19-C , 22-C ) :   1.0536 B( 22-C , 23-H ) :   0.9308 B( 22-C , 24-H ) :   0.9254
B( 22-C , 25-C ) :   1.0689 B( 25-C , 26-H ) :   0.9504 B( 25-C , 27-H ) :   0.9516
B( 25-C , 28-C ) :   1.0816 B( 28-C , 29-H ) :   0.9658 B( 28-C , 30-H ) :   0.9635
B( 28-C , 31-H ) :   0.9755

Dispersion correction           -0.014820313
FINAL SINGLE POINT ENERGY     -1339.867234324370

DIPOLE MOMENT
-------------
                                X             Y             Z
Electronic contribution:     28.16790      -2.95073       5.72070
Nuclear contribution   :    -28.83006       3.19006      -5.62008
                        -----------------------------------------
Total Dipole Moment    :     -0.66217       0.23933       0.10062
                        -----------------------------------------
Magnitude (a.u.)       :      0.71124
Magnitude (Debye)      :      1.80784

Rotational constants in cm-1:     0.018482     0.008934     0.006919
Rotational constants in MHz :   554.081175   267.837822   207.441038

                             ****ORCA TERMINATED NORMALLY****
TOTAL RUN TIME: 0 days 0 hours 0 minutes 22 seconds 241 msec
