                         Program Version 4.2.1 -  RELEASE  -
|  1> ! wB97X-D3 SP def2-SVP
|  2> %pal
|  3> nprocs 24
|  4> end
|  5>
|  6> * xyz 0 1
|  7> S 	 -35.327 	 6.65584 	 5.47683
|  8> C 	 -35.7867 	 7.43798 	 7.00931
|  9> C 	 -37.1103 	 7.79361 	 7.12855
| 10> C 	 -37.81 	 7.22424 	 6.02661
| 11> C 	 -37.0279 	 6.64591 	 4.9914
| 12> H 	 -38.8893 	 7.24433 	 5.97157
| 13> C 	 -37.8042 	 8.45334 	 8.22008
| 14> H 	 -36.9659 	 8.63781 	 8.86477
| 15> H 	 -38.4198 	 7.61473 	 8.57618
| 16> C 	 -38.6748 	 9.70366 	 7.8723
| 17> H 	 -39.5839 	 9.46662 	 7.34491
| 18> H 	 -39.0458 	 10.0076 	 8.86775
| 19> C 	 -37.9093 	 10.8662 	 7.2212
| 20> H 	 -37.4353 	 11.3083 	 8.06905
| 21> H 	 -37.1938 	 10.572 	 6.45538
| 22> H 	 -38.6256 	 11.5054 	 6.76374
| 23> S 	 -38.0762 	 4.4306 	 3.70543
| 24> C 	 -38.5008 	 4.57968 	 2.06519
| 25> C 	 -37.9759 	 5.67453 	 1.47827
| 26> C 	 -37.386 	 6.54449 	 2.47603
| 27> C 	 -37.4402 	 6.02878 	 3.7771
| 28> H 	 -38.1011 	 5.83327 	 0.432245
| 29> C 	 -36.7 	 7.83488 	 2.06155
| 30> H 	 -36.2312 	 8.15606 	 2.9894
| 31> H 	 -37.4148 	 8.52396 	 1.6628
| 32> C 	 -35.4978 	 7.54195 	 1.08374
| 33> H 	 -35.1339 	 8.54492 	 0.717718
| 34> H 	 -35.7523 	 7.02766 	 0.151458
| 35> C 	 -34.3831 	 6.7588 	 1.81789
| 36> H 	 -34.7331 	 5.81561 	 2.00521
| 37> H 	 -34.299 	 7.33018 	 2.71763
| 38> H 	 -33.4503 	 6.6649 	 1.23196
| 39> H 	 -35.0394 	 7.6367 	 7.73866
| 40> H 	 -39.0562 	 3.87329 	 1.4184
| 41> *
| 42>
| 43>                          ****END OF INPUT****

CARTESIAN COORDINATES (ANGSTROEM)
---------------------------------
  S    -35.327000    6.655840    5.476830
  C    -35.786700    7.437980    7.009310
  C    -37.110300    7.793610    7.128550
  C    -37.810000    7.224240    6.026610
  C    -37.027900    6.645910    4.991400
  H    -38.889300    7.244330    5.971570
  C    -37.804200    8.453340    8.220080
  H    -36.965900    8.637810    8.864770
  H    -38.419800    7.614730    8.576180
  C    -38.674800    9.703660    7.872300
  H    -39.583900    9.466620    7.344910
  H    -39.045800   10.007600    8.867750
  C    -37.909300   10.866200    7.221200
  H    -37.435300   11.308300    8.069050
  H    -37.193800   10.572000    6.455380
  H    -38.625600   11.505400    6.763740
  S    -38.076200    4.430600    3.705430
  C    -38.500800    4.579680    2.065190
  C    -37.975900    5.674530    1.478270
  C    -37.386000    6.544490    2.476030
  C    -37.440200    6.028780    3.777100
  H    -38.101100    5.833270    0.432245
  C    -36.700000    7.834880    2.061550
  H    -36.231200    8.156060    2.989400
  H    -37.414800    8.523960    1.662800
  C    -35.497800    7.541950    1.083740
  H    -35.133900    8.544920    0.717718
  H    -35.752300    7.027660    0.151458
  C    -34.383100    6.758800    1.817890
  H    -34.733100    5.815610    2.005210
  H    -34.299000    7.330180    2.717630
  H    -33.450300    6.664900    1.231960
  H    -35.039400    7.636700    7.738660
  H    -39.056200    3.873290    1.418400

 Total Charge           Charge          ....    0
 Multiplicity           Mult            ....    1
 Number of Electrons    NEL             ....  134
 Basis Dimension        Dim             ....  322

ORBITAL ENERGIES
----------------

  NO   OCC          E(Eh)            E(eV)
   0   2.0000     -88.966495     -2420.9014
   1   2.0000     -88.962202     -2420.7846
   2   2.0000     -10.329372      -281.0765
   3   2.0000     -10.317691      -280.7586
   4   2.0000     -10.313106      -280.6339
   5   2.0000     -10.310235      -280.5558
   6   2.0000     -10.299973      -280.2765
   7   2.0000     -10.296243      -280.1750
   8   2.0000     -10.295351      -280.1507
   9   2.0000     -10.292905      -280.0842
  10   2.0000     -10.292614      -280.0763
  11   2.0000     -10.287386      -279.9340
  12   2.0000     -10.286128      -279.8998
  13   2.0000     -10.284914      -279.8667
  14   2.0000     -10.273754      -279.5631
  15   2.0000     -10.263778      -279.2916
  16   2.0000      -8.080109      -219.8709
  17   2.0000      -8.078319      -219.8222
  18   2.0000      -6.038604      -164.3188
  19   2.0000      -6.036800      -164.2697
  20   2.0000      -6.034810      -164.2155
  21   2.0000      -6.032643      -164.1566
  22   2.0000      -6.030920      -164.1097
  23   2.0000      -6.029004      -164.0575
  24   2.0000      -1.008454       -27.4414
  25   2.0000      -0.984635       -26.7933
  26   2.0000      -0.918513       -24.9940
  27   2.0000      -0.904238       -24.6056
  28   2.0000      -0.873211       -23.7613
  29   2.0000      -0.850140       -23.1335
  30   2.0000      -0.841719       -22.9043
  31   2.0000      -0.813183       -22.1278
  32   2.0000      -0.787578       -21.4311
  33   2.0000      -0.768385       -20.9088
  34   2.0000      -0.714911       -19.4537
  35   2.0000      -0.701637       -19.0925
  36   2.0000      -0.691229       -18.8093
  37   2.0000      -0.651757       -17.7352
  38   2.0000      -0.636435       -17.3183
  39   2.0000      -0.622157       -16.9298
  40   2.0000      -0.591126       -16.0854
  41   2.0000      -0.567334       -15.4379
  42   2.0000      -0.560523       -15.2526
  43   2.0000      -0.558304       -15.1922
  44   2.0000      -0.545197       -14.8356
  45   2.0000      -0.536380       -14.5956
  46   2.0000      -0.526889       -14.3374
  47   2.0000      -0.514731       -14.0065
  48   2.0000      -0.499754       -13.5990
  49   2.0000      -0.494032       -13.4433
  50   2.0000      -0.489015       -13.3068
  51   2.0000      -0.476633       -12.9698
  52   2.0000      -0.468692       -12.7538
  53   2.0000      -0.461427       -12.5561
  54   2.0000      -0.453308       -12.3351
  55   2.0000      -0.446532       -12.1508
  56   2.0000      -0.443550       -12.0696
  57   2.0000      -0.435784       -11.8583
  58   2.0000      -0.434673       -11.8281
  59   2.0000      -0.431008       -11.7283
  60   2.0000      -0.421719       -11.4756
  61   2.0000      -0.417157       -11.3514
  62   2.0000      -0.406627       -11.0649
  63   2.0000      -0.332741        -9.0543
  64   2.0000      -0.326987        -8.8978
  65   2.0000      -0.320360        -8.7174
  66   2.0000      -0.303983        -8.2718
  67   0.0000       0.041049         1.1170
  68   0.0000       0.059746         1.6258
  69   0.0000       0.109129         2.9695
  70   0.0000       0.116921         3.1816
  71   0.0000       0.124571         3.3897

MULLIKEN ATOMIC CHARGES
-----------------------
   0 S :    0.112013
   1 C :   -0.131194
   2 C :   -0.094259
   3 C :    0.042380
   4 C :   -0.202263
   5 H :    0.005777
   6 C :    0.085482
   7 H :    0.007859
   8 H :    0.049503
   9 C :   -0.081107
  10 H :    0.026481
  11 H :    0.029941
  12 C :   -0.022617
  13 H :    0.030072
  14 H :    0.050843
  15 H :    0.030551
  16 S :    0.133235
  17 C :   -0.092572
  18 C :   -0.026973
  19 C :   -0.068328
  20 C :   -0.161344
  21 H :    0.010487
  22 C :    0.103013
  23 H :    0.020516
  24 H :    0.034960
  25 C :   -0.116026
  26 H :    0.029991
  27 H :    0.026638
  28 C :   -0.013404
  29 H :    0.025116
  30 H :    0.023795
  31 H :    0.040926
  32 H :    0.031532
  33 H :    0.058974
Sum of atomic charges:    0.0000000

LOEWDIN ATOMIC CHARGES
----------------------
   0 S :    0.394318
   1 C :   -0.182473
   2 C :   -0.069537
   3 C :   -0.045495
   4 C :   -0.196349
   5 H :    0.026926
   6 C :   -0.033888
   7 H :    0.029768
   8 H :    0.046362
   9 C :   -0.035362
  10 H :    0.019132
  11 H :    0.028759
  12 C :   -0.057343
  13 H :    0.026199
  14 H :    0.030090
  15 H :    0.025339
  16 S :    0.435548
  17 C :   -0.200850
  18 C :   -0.076287
  19 C :   -0.046770
  20 C :   -0.234744
  21 H :    0.028317
  22 C :   -0.025998
  23 H :    0.025413
  24 H :    0.028665
  25 C :   -0.038446
  26 H :    0.023887
  27 H :    0.015477
  28 C :   -0.055052
  29 H :    0.012924
  30 H :    0.016598
  31 H :    0.031233
  32 H :    0.015247
  33 H :    0.038394

  Mayer bond orders larger than 0.100000
B(  0-S ,  1-C ) :   1.1392 B(  0-S ,  4-C ) :   1.1384 B(  1-C ,  2-C ) :   1.6060
B(  1-C ,  4-C ) :   0.1009 B(  1-C , 32-H ) :   0.9635 B(  2-C ,  3-C ) :   1.2256
B(  2-C ,  6-C ) :   1.0119 B(  3-C ,  4-C ) :   1.5897 B(  3-C ,  5-H ) :   0.9925
B(  4-C , 20-C ) :   1.0526 B(  6-C ,  7-H ) :   0.9343 B(  6-C ,  8-H ) :   0.9302
B(  6-C ,  9-C ) :   1.0666 B(  9-C , 10-H ) :   0.9582 B(  9-C , 11-H ) :   0.9595
B(  9-C , 12-C ) :   1.0604 B( 12-C , 13-H ) :   0.9789 B( 12-C , 14-H ) :   0.9785
B( 12-C , 15-H ) :   0.9743 B( 16-S , 17-C ) :   1.1673 B( 16-S , 20-C ) :   1.1387
B( 17-C , 18-C ) :   1.6238 B( 17-C , 33-H ) :   0.9582 B( 18-C , 19-C ) :   1.2287
B( 18-C , 21-H ) :   0.9965 B( 19-C , 20-C ) :   1.5830 B( 19-C , 22-C ) :   1.0421
B( 22-C , 23-H ) :   0.9327 B( 22-C , 24-H ) :   0.9347 B( 22-C , 25-C ) :   1.0640
B( 25-C , 26-H ) :   0.9597 B( 25-C , 27-H ) :   0.9592 B( 25-C , 28-C ) :   1.0564
B( 28-C , 29-H ) :   0.9767 B( 28-C , 30-H ) :   0.9750 B( 28-C , 31-H ) :   0.9727

Dispersion correction           -0.015529555
FINAL SINGLE POINT ENERGY     -1339.866408838506

DIPOLE MOMENT
-------------
                                X             Y             Z
Electronic contribution:     -1.15406     -19.03246      -0.22166
Nuclear contribution   :      0.86467      19.45748       0.26901
                        -----------------------------------------
Total Dipole Moment    :     -0.28939       0.42503       0.04735
                        -----------------------------------------
Magnitude (a.u.)       :      0.51637
Magnitude (Debye)      :      1.31251

Rotational constants in cm-1:     0.021089     0.008395     0.007699
Rotational constants in MHz :   632.236002   251.675063   230.813963

                             ****ORCA TERMINATED NORMALLY****
TOTAL RUN TIME: 0 days 0 hours 0 minutes 22 seconds 351 msec
