                         Program Version 4.2.1 -  RELEASE  -
|  1> ! wB97X-D3 SP def2-SVP
|  2> %pal
|  3> nprocs 24
|  4> end
|  5>
|  6> * xyz 0 1
|  7> S 	 -68.1466 	 15.8255 	 -70.7653
|  8> C 	 -66.8458 	 14.8886 	 -69.9802
|  9> C 	 -65.9995 	 15.7614 	 -69.2644
| 10> C 	 -66.2343 	 17.1553 	 -69.5538
| 11> C 	 -67.3002 	 17.3226 	 -70.438
| 12> H 	 -65.5579 	 17.9894 	 -69.2528
| 13> C 	 -64.8411 	 15.3624 	 -68.3453
| 14> H 	 -65.0489 	 14.3809 	 -68.0047
| 15> H 	 -64.9219 	 16.1219 	 -67.5062
| 16> C 	 -63.382 	 15.4631 	 -68.8985
| 17> H 	 -62.787 	 15.3473 	 -68.0318
| 18> H 	 -63.1144 	 14.7491 	 -69.641
| 19> C 	 -62.9761 	 16.7633 	 -69.5233
| 20> H 	 -63.4272 	 16.8821 	 -70.477
| 21> H 	 -63.1608 	 17.6781 	 -68.8806
| 22> H 	 -61.8937 	 16.8624 	 -69.755
| 23> S 	 -68.2115 	 18.9243 	 -72.562
| 24> C 	 -68.8828 	 20.5153 	 -72.1364
| 25> C 	 -68.3851 	 20.919 	 -70.9232
| 26> C 	 -67.7872 	 19.8127 	 -70.1702
| 27> C 	 -67.7717 	 18.6132 	 -70.8815
| 28> H 	 -68.5825 	 21.8994 	 -70.4613
| 29> C 	 -67.4147 	 19.9628 	 -68.6919
| 30> H 	 -67.5678 	 20.9602 	 -68.3861
| 31> H 	 -66.3622 	 19.7503 	 -68.6983
| 32> C 	 -68.2957 	 19.158 	 -67.6706
| 33> H 	 -68.3237 	 19.5924 	 -66.7034
| 34> H 	 -67.9626 	 18.1045 	 -67.433
| 35> C 	 -69.7933 	 19.1844 	 -68.213
| 36> H 	 -70.2676 	 20.1886 	 -68.0731
| 37> H 	 -70.3768 	 18.4787 	 -67.5755
| 38> H 	 -69.9988 	 18.7481 	 -69.1883
| 39> H 	 -66.8589 	 13.7767 	 -69.9017
| 40> H 	 -69.4207 	 21.2442 	 -72.7635
| 41> *
| 42>
| 43>                          ****END OF INPUT****

CARTESIAN COORDINATES (ANGSTROEM)
---------------------------------
  S    -68.146600   15.825500  -70.765300
  C    -66.845800   14.888600  -69.980200
  C    -65.999500   15.761400  -69.264400
  C    -66.234300   17.155300  -69.553800
  C    -67.300200   17.322600  -70.438000
  H    -65.557900   17.989400  -69.252800
  C    -64.841100   15.362400  -68.345300
  H    -65.048900   14.380900  -68.004700
  H    -64.921900   16.121900  -67.506200
  C    -63.382000   15.463100  -68.898500
  H    -62.787000   15.347300  -68.031800
  H    -63.114400   14.749100  -69.641000
  C    -62.976100   16.763300  -69.523300
  H    -63.427200   16.882100  -70.477000
  H    -63.160800   17.678100  -68.880600
  H    -61.893700   16.862400  -69.755000
  S    -68.211500   18.924300  -72.562000
  C    -68.882800   20.515300  -72.136400
  C    -68.385100   20.919000  -70.923200
  C    -67.787200   19.812700  -70.170200
  C    -67.771700   18.613200  -70.881500
  H    -68.582500   21.899400  -70.461300
  C    -67.414700   19.962800  -68.691900
  H    -67.567800   20.960200  -68.386100
  H    -66.362200   19.750300  -68.698300
  C    -68.295700   19.158000  -67.670600
  H    -68.323700   19.592400  -66.703400
  H    -67.962600   18.104500  -67.433000
  C    -69.793300   19.184400  -68.213000
  H    -70.267600   20.188600  -68.073100
  H    -70.376800   18.478700  -67.575500
  H    -69.998800   18.748100  -69.188300
  H    -66.858900   13.776700  -69.901700
  H    -69.420700   21.244200  -72.763500

 Total Charge           Charge          ....    0
 Multiplicity           Mult            ....    1
 Number of Electrons    NEL             ....  134
 Basis Dimension        Dim             ....  322

ORBITAL ENERGIES
----------------

  NO   OCC          E(Eh)            E(eV)
   0   2.0000     -88.968696     -2420.9613
   1   2.0000     -88.963375     -2420.8165
   2   2.0000     -10.329896      -281.0908
   3   2.0000     -10.324030      -280.9311
   4   2.0000     -10.323060      -280.9047
   5   2.0000     -10.320423      -280.8330
   6   2.0000     -10.307078      -280.4699
   7   2.0000     -10.303800      -280.3806
   8   2.0000     -10.298964      -280.2491
   9   2.0000     -10.298105      -280.2257
  10   2.0000     -10.297368      -280.2056
  11   2.0000     -10.291518      -280.0465
  12   2.0000     -10.289241      -279.9845
  13   2.0000     -10.283255      -279.8216
  14   2.0000     -10.277941      -279.6770
  15   2.0000     -10.277487      -279.6646
  16   2.0000      -8.082595      -219.9386
  17   2.0000      -8.077446      -219.7985
  18   2.0000      -6.041176      -164.3887
  19   2.0000      -6.037280      -164.2827
  20   2.0000      -6.036167      -164.2525
  21   2.0000      -6.033267      -164.1735
  22   2.0000      -6.032217      -164.1450
  23   2.0000      -6.027836      -164.0257
  24   2.0000      -1.000633       -27.2286
  25   2.0000      -0.975846       -26.5541
  26   2.0000      -0.911149       -24.7936
  27   2.0000      -0.899314       -24.4716
  28   2.0000      -0.867844       -23.6152
  29   2.0000      -0.846981       -23.0475
  30   2.0000      -0.833641       -22.6845
  31   2.0000      -0.810329       -22.0502
  32   2.0000      -0.782766       -21.3002
  33   2.0000      -0.769136       -20.9293
  34   2.0000      -0.706371       -19.2213
  35   2.0000      -0.702192       -19.1076
  36   2.0000      -0.687906       -18.7189
  37   2.0000      -0.658813       -17.9272
  38   2.0000      -0.633716       -17.2443
  39   2.0000      -0.612392       -16.6640
  40   2.0000      -0.579414       -15.7667
  41   2.0000      -0.575490       -15.6599
  42   2.0000      -0.558829       -15.2065
  43   2.0000      -0.548740       -14.9320
  44   2.0000      -0.540658       -14.7120
  45   2.0000      -0.536487       -14.5986
  46   2.0000      -0.516348       -14.0505
  47   2.0000      -0.506470       -13.7817
  48   2.0000      -0.495169       -13.4742
  49   2.0000      -0.492837       -13.4108
  50   2.0000      -0.486510       -13.2386
  51   2.0000      -0.477062       -12.9815
  52   2.0000      -0.467387       -12.7182
  53   2.0000      -0.460278       -12.5248
  54   2.0000      -0.454712       -12.3733
  55   2.0000      -0.447194       -12.1688
  56   2.0000      -0.441144       -12.0041
  57   2.0000      -0.440489       -11.9863
  58   2.0000      -0.424030       -11.5384
  59   2.0000      -0.423275       -11.5179
  60   2.0000      -0.418956       -11.4004
  61   2.0000      -0.414025       -11.2662
  62   2.0000      -0.408142       -11.1061
  63   2.0000      -0.346958        -9.4412
  64   2.0000      -0.329381        -8.9629
  65   2.0000      -0.325141        -8.8475
  66   2.0000      -0.287104        -7.8125
  67   0.0000       0.018200         0.4952
  68   0.0000       0.076167         2.0726
  69   0.0000       0.101299         2.7565
  70   0.0000       0.104942         2.8556
  71   0.0000       0.137085         3.7303

MULLIKEN ATOMIC CHARGES
-----------------------
   0 S :    0.112500
   1 C :   -0.138427
   2 C :   -0.103610
   3 C :   -0.005785
   4 C :   -0.136032
   5 H :    0.033876
   6 C :    0.066129
   7 H :    0.014708
   8 H :    0.036904
   9 C :   -0.008489
  10 H :    0.023372
  11 H :    0.028377
  12 C :   -0.099912
  13 H :    0.039664
  14 H :    0.030534
  15 H :    0.034092
  16 S :    0.102426
  17 C :   -0.096506
  18 C :   -0.024803
  19 C :   -0.105391
  20 C :   -0.144657
  21 H :    0.028511
  22 C :    0.123471
  23 H :    0.001606
  24 H :    0.023340
  25 C :   -0.064783
  26 H :    0.024781
  27 H :    0.044731
  28 C :   -0.087866
  29 H :    0.039612
  30 H :    0.025065
  31 H :    0.051738
  32 H :    0.065289
  33 H :    0.065535
Sum of atomic charges:    0.0000000

LOEWDIN ATOMIC CHARGES
----------------------
   0 S :    0.395515
   1 C :   -0.201506
   2 C :   -0.061840
   3 C :   -0.061912
   4 C :   -0.192120
   5 H :    0.039899
   6 C :   -0.026495
   7 H :    0.023969
   8 H :    0.040247
   9 C :   -0.033563
  10 H :    0.022324
  11 H :    0.024967
  12 C :   -0.073537
  13 H :    0.021701
  14 H :    0.023981
  15 H :    0.031666
  16 S :    0.380873
  17 C :   -0.180648
  18 C :   -0.071121
  19 C :   -0.049660
  20 C :   -0.201513
  21 H :    0.033959
  22 C :   -0.029134
  23 H :    0.024015
  24 H :    0.024700
  25 C :   -0.035084
  26 H :    0.019303
  27 H :    0.028690
  28 C :   -0.072701
  29 H :    0.027378
  30 H :    0.026668
  31 H :    0.027194
  32 H :    0.036096
  33 H :    0.037690

  Mayer bond orders larger than 0.100000
B(  0-S ,  1-C ) :   1.1216 B(  0-S ,  4-C ) :   1.1557 B(  1-C ,  2-C ) :   1.6028
B(  1-C , 32-H ) :   0.9656 B(  2-C ,  3-C ) :   1.2329 B(  2-C ,  6-C ) :   1.0233
B(  3-C ,  4-C ) :   1.5547 B(  3-C ,  5-H ) :   0.9802 B(  4-C , 20-C ) :   1.0850
B(  6-C ,  7-H ) :   0.9386 B(  6-C ,  8-H ) :   0.9404 B(  6-C ,  9-C ) :   1.0712
B(  9-C , 10-H ) :   0.9530 B(  9-C , 11-H ) :   0.9533 B(  9-C , 12-C ) :   1.0963
B( 12-C , 13-H ) :   0.9685 B( 12-C , 14-H ) :   0.9689 B( 12-C , 15-H ) :   0.9677
B( 16-S , 17-C ) :   1.1300 B( 16-S , 20-C ) :   1.1174 B( 17-C , 18-C ) :   1.6357
B( 17-C , 33-H ) :   0.9634 B( 18-C , 19-C ) :   1.2310 B( 18-C , 21-H ) :   0.9786
B( 19-C , 20-C ) :   1.5968 B( 19-C , 22-C ) :   1.0416 B( 22-C , 23-H ) :   0.9299
B( 22-C , 24-H ) :   0.9352 B( 22-C , 25-C ) :   1.0488 B( 25-C , 26-H ) :   0.9623
B( 25-C , 27-H ) :   0.9559 B( 25-C , 28-C ) :   1.0755 B( 28-C , 29-H ) :   0.9788
B( 28-C , 30-H ) :   0.9740 B( 28-C , 31-H ) :   0.9700

Dispersion correction           -0.016390152
FINAL SINGLE POINT ENERGY     -1339.860966942995

DIPOLE MOMENT
-------------
                                X             Y             Z
Electronic contribution:    -12.09662      -2.37059     -19.11224
Nuclear contribution   :     12.48499       2.54792      19.74969
                        -----------------------------------------
Total Dipole Moment    :      0.38836       0.17732       0.63746
                        -----------------------------------------
Magnitude (a.u.)       :      0.76722
Magnitude (Debye)      :      1.95011

Rotational constants in cm-1:     0.020083     0.009133     0.008527
Rotational constants in MHz :   602.086489   273.789961   255.645721

                             ****ORCA TERMINATED NORMALLY****
TOTAL RUN TIME: 0 days 0 hours 0 minutes 23 seconds 347 msec
