                         Program Version 4.2.1 -  RELEASE  -
|  1> ! wB97X-D3 SP def2-SVP
|  2> %pal
|  3> nprocs 24
|  4> end
|  5>
|  6> * xyz 0 1
|  7> S 	 -54.7817 	 9.2067 	 23.7693
|  8> C 	 -54.9973 	 10.4117 	 22.5126
|  9> C 	 -55.3244 	 9.77526 	 21.2906
| 10> C 	 -55.518 	 8.40179 	 21.4912
| 11> C 	 -55.2892 	 7.92594 	 22.7515
| 12> H 	 -55.8201 	 7.72312 	 20.6521
| 13> C 	 -55.4254 	 10.4715 	 19.9807
| 14> H 	 -54.5438 	 11.0975 	 19.9453
| 15> H 	 -56.2616 	 11.2675 	 20.0179
| 16> C 	 -55.6635 	 9.62223 	 18.7653
| 17> H 	 -54.8493 	 8.95686 	 18.692
| 18> H 	 -56.5833 	 9.08622 	 18.8969
| 19> C 	 -55.5652 	 10.3159 	 17.4636
| 20> H 	 -56.1501 	 11.2207 	 17.5053
| 21> H 	 -54.6004 	 10.6051 	 17.2549
| 22> H 	 -56.0487 	 9.81619 	 16.6681
| 23> S 	 -56.5329 	 6.53298 	 24.854
| 24> C 	 -56.3758 	 4.80447 	 24.8794
| 25> C 	 -55.9174 	 4.32145 	 23.7039
| 26> C 	 -55.4756 	 5.38744 	 22.7959
| 27> C 	 -55.6673 	 6.62534 	 23.3171
| 28> H 	 -55.7954 	 3.18675 	 23.4987
| 29> C 	 -54.8532 	 5.07221 	 21.4668
| 30> H 	 -54.0238 	 4.4485 	 21.7535
| 31> H 	 -54.2733 	 5.92236 	 21.1263
| 32> C 	 -55.7157 	 4.53296 	 20.4137
| 33> H 	 -56.5345 	 5.20573 	 20.2254
| 34> H 	 -56.2173 	 3.64525 	 20.7467
| 35> C 	 -54.9432 	 4.39889 	 19.1105
| 36> H 	 -54.6221 	 5.41018 	 18.828
| 37> H 	 -55.6876 	 3.99356 	 18.3976
| 38> H 	 -54.1792 	 3.6823 	 19.3338
| 39> H 	 -54.7687 	 11.4403 	 22.7416
| 40> H 	 -56.5497 	 4.20324 	 25.8231
| 41> *
| 42>
| 43>                          ****END OF INPUT****

CARTESIAN COORDINATES (ANGSTROEM)
---------------------------------
  S    -54.781700    9.206700   23.769300
  C    -54.997300   10.411700   22.512600
  C    -55.324400    9.775260   21.290600
  C    -55.518000    8.401790   21.491200
  C    -55.289200    7.925940   22.751500
  H    -55.820100    7.723120   20.652100
  C    -55.425400   10.471500   19.980700
  H    -54.543800   11.097500   19.945300
  H    -56.261600   11.267500   20.017900
  C    -55.663500    9.622230   18.765300
  H    -54.849300    8.956860   18.692000
  H    -56.583300    9.086220   18.896900
  C    -55.565200   10.315900   17.463600
  H    -56.150100   11.220700   17.505300
  H    -54.600400   10.605100   17.254900
  H    -56.048700    9.816190   16.668100
  S    -56.532900    6.532980   24.854000
  C    -56.375800    4.804470   24.879400
  C    -55.917400    4.321450   23.703900
  C    -55.475600    5.387440   22.795900
  C    -55.667300    6.625340   23.317100
  H    -55.795400    3.186750   23.498700
  C    -54.853200    5.072210   21.466800
  H    -54.023800    4.448500   21.753500
  H    -54.273300    5.922360   21.126300
  C    -55.715700    4.532960   20.413700
  H    -56.534500    5.205730   20.225400
  H    -56.217300    3.645250   20.746700
  C    -54.943200    4.398890   19.110500
  H    -54.622100    5.410180   18.828000
  H    -55.687600    3.993560   18.397600
  H    -54.179200    3.682300   19.333800
  H    -54.768700   11.440300   22.741600
  H    -56.549700    4.203240   25.823100

 Total Charge           Charge          ....    0
 Multiplicity           Mult            ....    1
 Number of Electrons    NEL             ....  134
 Basis Dimension        Dim             ....  322

ORBITAL ENERGIES
----------------

  NO   OCC          E(Eh)            E(eV)
   0   2.0000     -88.964853     -2420.8567
   1   2.0000     -88.959520     -2420.7116
   2   2.0000     -10.323510      -280.9170
   3   2.0000     -10.322459      -280.8884
   4   2.0000     -10.317176      -280.7446
   5   2.0000     -10.315181      -280.6904
   6   2.0000     -10.302410      -280.3428
   7   2.0000     -10.299199      -280.2554
   8   2.0000     -10.297560      -280.2108
   9   2.0000     -10.294254      -280.1209
  10   2.0000     -10.291396      -280.0431
  11   2.0000     -10.279747      -279.7261
  12   2.0000     -10.279291      -279.7137
  13   2.0000     -10.278375      -279.6888
  14   2.0000     -10.276352      -279.6337
  15   2.0000     -10.265592      -279.3410
  16   2.0000      -8.080126      -219.8714
  17   2.0000      -8.074707      -219.7239
  18   2.0000      -6.038474      -164.3152
  19   2.0000      -6.034349      -164.2030
  20   2.0000      -6.033370      -164.1763
  21   2.0000      -6.031236      -164.1183
  22   2.0000      -6.029295      -164.0655
  23   2.0000      -6.025114      -163.9517
  24   2.0000      -1.009866       -27.4798
  25   2.0000      -0.986810       -26.8525
  26   2.0000      -0.926372       -25.2079
  27   2.0000      -0.922709       -25.1082
  28   2.0000      -0.873867       -23.7791
  29   2.0000      -0.857342       -23.3295
  30   2.0000      -0.845498       -23.0072
  31   2.0000      -0.816757       -22.2251
  32   2.0000      -0.785079       -21.3631
  33   2.0000      -0.773305       -21.0427
  34   2.0000      -0.715118       -19.4593
  35   2.0000      -0.703003       -19.1297
  36   2.0000      -0.688555       -18.7365
  37   2.0000      -0.652264       -17.7490
  38   2.0000      -0.640686       -17.4339
  39   2.0000      -0.622740       -16.9456
  40   2.0000      -0.599726       -16.3194
  41   2.0000      -0.588206       -16.0059
  42   2.0000      -0.572988       -15.5918
  43   2.0000      -0.564023       -15.3479
  44   2.0000      -0.536122       -14.5886
  45   2.0000      -0.531802       -14.4711
  46   2.0000      -0.516631       -14.0582
  47   2.0000      -0.509042       -13.8517
  48   2.0000      -0.506325       -13.7778
  49   2.0000      -0.502770       -13.6811
  50   2.0000      -0.492527       -13.4024
  51   2.0000      -0.477633       -12.9971
  52   2.0000      -0.475583       -12.9413
  53   2.0000      -0.470366       -12.7993
  54   2.0000      -0.458833       -12.4855
  55   2.0000      -0.453279       -12.3344
  56   2.0000      -0.446281       -12.1439
  57   2.0000      -0.441921       -12.0253
  58   2.0000      -0.437680       -11.9099
  59   2.0000      -0.424056       -11.5392
  60   2.0000      -0.420307       -11.4371
  61   2.0000      -0.414527       -11.2799
  62   2.0000      -0.407088       -11.0774
  63   2.0000      -0.348771        -9.4905
  64   2.0000      -0.330041        -8.9809
  65   2.0000      -0.325525        -8.8580
  66   2.0000      -0.289880        -7.8880
  67   0.0000       0.028690         0.7807
  68   0.0000       0.080454         2.1893
  69   0.0000       0.112603         3.0641
  70   0.0000       0.121654         3.3104
  71   0.0000       0.123340         3.3563

MULLIKEN ATOMIC CHARGES
-----------------------
   0 S :    0.112417
   1 C :   -0.148112
   2 C :   -0.066174
   3 C :   -0.010385
   4 C :   -0.145495
   5 H :    0.020936
   6 C :    0.034638
   7 H :    0.025355
   8 H :    0.041014
   9 C :   -0.078086
  10 H :    0.017615
  11 H :    0.037572
  12 C :    0.045951
  13 H :   -0.000070
  14 H :    0.013812
  15 H :    0.020553
  16 S :    0.098634
  17 C :   -0.123666
  18 C :   -0.040535
  19 C :   -0.068948
  20 C :   -0.122162
  21 H :    0.051038
  22 C :    0.061649
  23 H :    0.014030
  24 H :    0.004645
  25 C :   -0.049199
  26 H :    0.014234
  27 H :    0.014579
  28 C :   -0.017665
  29 H :    0.038137
  30 H :    0.039951
  31 H :    0.031203
  32 H :    0.048914
  33 H :    0.083621
Sum of atomic charges:   -0.0000000

LOEWDIN ATOMIC CHARGES
----------------------
   0 S :    0.430146
   1 C :   -0.196643
   2 C :   -0.061928
   3 C :   -0.074483
   4 C :   -0.207691
   5 H :    0.036732
   6 C :   -0.038818
   7 H :    0.032097
   8 H :    0.041267
   9 C :   -0.043376
  10 H :    0.021188
  11 H :    0.025175
  12 C :   -0.047612
  13 H :    0.021876
  14 H :    0.016682
  15 H :    0.026323
  16 S :    0.386962
  17 C :   -0.196086
  18 C :   -0.084536
  19 C :   -0.054979
  20 C :   -0.192320
  21 H :    0.046551
  22 C :   -0.041473
  23 H :    0.030889
  24 H :    0.027800
  25 C :   -0.041484
  26 H :    0.019937
  27 H :    0.019789
  28 C :   -0.052638
  29 H :    0.027868
  30 H :    0.031572
  31 H :    0.023122
  32 H :    0.023354
  33 H :    0.044736

  Mayer bond orders larger than 0.100000
B(  0-S ,  1-C ) :   1.1673 B(  0-S ,  4-C ) :   1.1769 B(  1-C ,  2-C ) :   1.5265
B(  1-C ,  4-C ) :   0.1090 B(  1-C , 32-H ) :   0.9811 B(  2-C ,  3-C ) :   1.3247
B(  2-C ,  6-C ) :   1.0054 B(  3-C ,  4-C ) :   1.5113 B(  3-C ,  5-H ) :   0.9763
B(  4-C , 20-C ) :   1.0311 B(  6-C ,  7-H ) :   0.9362 B(  6-C ,  8-H ) :   0.9244
B(  6-C ,  9-C ) :   1.0991 B(  9-C , 10-H ) :   0.9478 B(  9-C , 11-H ) :   0.9414
B(  9-C , 12-C ) :   1.0969 B( 12-C , 13-H ) :   0.9633 B( 12-C , 14-H ) :   0.9731
B( 12-C , 15-H ) :   0.9656 B( 16-S , 17-C ) :   1.1396 B( 16-S , 20-C ) :   1.1110
B( 17-C , 18-C ) :   1.6473 B( 17-C , 33-H ) :   0.9571 B( 18-C , 19-C ) :   1.2030
B( 18-C , 21-H ) :   0.9745 B( 19-C , 20-C ) :   1.6545 B( 19-C , 22-C ) :   1.0439
B( 22-C , 23-H ) :   0.9182 B( 22-C , 24-H ) :   0.9229 B( 22-C , 25-C ) :   1.0730
B( 25-C , 26-H ) :   0.9463 B( 25-C , 27-H ) :   0.9465 B( 25-C , 28-C ) :   1.0798
B( 28-C , 29-H ) :   0.9737 B( 28-C , 30-H ) :   0.9736 B( 28-C , 31-H ) :   0.9762

Dispersion correction           -0.014105623
FINAL SINGLE POINT ENERGY     -1339.870867673488

DIPOLE MOMENT
-------------
                                X             Y             Z
Electronic contribution:     -1.67376       2.68680      32.39822
Nuclear contribution   :      1.76787      -2.80657     -33.09284
                        -----------------------------------------
Total Dipole Moment    :      0.09411      -0.11977      -0.69462
                        -----------------------------------------
Magnitude (a.u.)       :      0.71112
Magnitude (Debye)      :      1.80752

Rotational constants in cm-1:     0.017073     0.009799     0.006596
Rotational constants in MHz :   511.824922   293.754710   197.740443

                             ****ORCA TERMINATED NORMALLY****
TOTAL RUN TIME: 0 days 0 hours 0 minutes 20 seconds 922 msec
