                         Program Version 4.2.1 -  RELEASE  -
|  1> ! wB97X-D3 SP def2-SVP
|  2> %pal
|  3> nprocs 24
|  4> end
|  5>
|  6> * xyz 0 1
|  7> S 	 -60.3058 	 -52.4768 	 -82.3362
|  8> C 	 -60.2127 	 -51.4757 	 -80.9454
|  9> C 	 -59.6887 	 -52.1674 	 -79.8266
| 10> C 	 -59.3751 	 -53.4794 	 -80.122
| 11> C 	 -59.7709 	 -53.8787 	 -81.3862
| 12> H 	 -59.1334 	 -54.1776 	 -79.3387
| 13> C 	 -59.463 	 -51.4793 	 -78.4745
| 14> H 	 -59.6094 	 -50.4337 	 -78.6156
| 15> H 	 -58.4537 	 -51.882 	 -78.2362
| 16> C 	 -60.3523 	 -51.9441 	 -77.3721
| 17> H 	 -61.4131 	 -51.6616 	 -77.6008
| 18> H 	 -60.3089 	 -53.0259 	 -77.3026
| 19> C 	 -60.0216 	 -51.3294 	 -76.0019
| 20> H 	 -58.9645 	 -51.2448 	 -75.767
| 21> H 	 -60.4696 	 -50.3219 	 -75.8935
| 22> H 	 -60.5124 	 -51.8816 	 -75.1894
| 23> S 	 -58.0436 	 -55.8751 	 -82.0253
| 24> C 	 -58.6819 	 -57.2016 	 -82.971
| 25> C 	 -60.0525 	 -57.1459 	 -83.2499
| 26> C 	 -60.6029 	 -55.918 	 -82.7113
| 27> C 	 -59.7076 	 -55.2369 	 -81.9349
| 28> H 	 -60.5533 	 -57.8471 	 -83.9079
| 29> C 	 -61.9938 	 -55.4477 	 -83.1146
| 30> H 	 -62.3743 	 -54.6797 	 -82.4604
| 31> H 	 -62.6974 	 -56.2872 	 -82.8703
| 32> C 	 -62.2815 	 -55.0498 	 -84.6401
| 33> H 	 -61.5996 	 -55.5495 	 -85.299
| 34> H 	 -61.8874 	 -54.0943 	 -84.8339
| 35> C 	 -63.6929 	 -55.195 	 -85.1114
| 36> H 	 -63.9339 	 -56.2169 	 -85.1536
| 37> H 	 -63.7882 	 -54.5968 	 -86.0662
| 38> H 	 -64.4411 	 -54.814 	 -84.4935
| 39> H 	 -60.6428 	 -50.5251 	 -80.9513
| 40> H 	 -58.0669 	 -57.9819 	 -83.4016
| 41> *
| 42>
| 43>                          ****END OF INPUT****

CARTESIAN COORDINATES (ANGSTROEM)
---------------------------------
  S    -60.305800  -52.476800  -82.336200
  C    -60.212700  -51.475700  -80.945400
  C    -59.688700  -52.167400  -79.826600
  C    -59.375100  -53.479400  -80.122000
  C    -59.770900  -53.878700  -81.386200
  H    -59.133400  -54.177600  -79.338700
  C    -59.463000  -51.479300  -78.474500
  H    -59.609400  -50.433700  -78.615600
  H    -58.453700  -51.882000  -78.236200
  C    -60.352300  -51.944100  -77.372100
  H    -61.413100  -51.661600  -77.600800
  H    -60.308900  -53.025900  -77.302600
  C    -60.021600  -51.329400  -76.001900
  H    -58.964500  -51.244800  -75.767000
  H    -60.469600  -50.321900  -75.893500
  H    -60.512400  -51.881600  -75.189400
  S    -58.043600  -55.875100  -82.025300
  C    -58.681900  -57.201600  -82.971000
  C    -60.052500  -57.145900  -83.249900
  C    -60.602900  -55.918000  -82.711300
  C    -59.707600  -55.236900  -81.934900
  H    -60.553300  -57.847100  -83.907900
  C    -61.993800  -55.447700  -83.114600
  H    -62.374300  -54.679700  -82.460400
  H    -62.697400  -56.287200  -82.870300
  C    -62.281500  -55.049800  -84.640100
  H    -61.599600  -55.549500  -85.299000
  H    -61.887400  -54.094300  -84.833900
  C    -63.692900  -55.195000  -85.111400
  H    -63.933900  -56.216900  -85.153600
  H    -63.788200  -54.596800  -86.066200
  H    -64.441100  -54.814000  -84.493500
  H    -60.642800  -50.525100  -80.951300
  H    -58.066900  -57.981900  -83.401600

 Total Charge           Charge          ....    0
 Multiplicity           Mult            ....    1
 Number of Electrons    NEL             ....  134
 Basis Dimension        Dim             ....  322

ORBITAL ENERGIES
----------------

  NO   OCC          E(Eh)            E(eV)
   0   2.0000     -88.968205     -2420.9479
   1   2.0000     -88.966610     -2420.9045
   2   2.0000     -10.328165      -281.0437
   3   2.0000     -10.323627      -280.9202
   4   2.0000     -10.320246      -280.8282
   5   2.0000     -10.306724      -280.4602
   6   2.0000     -10.305519      -280.4274
   7   2.0000     -10.298384      -280.2333
   8   2.0000     -10.296550      -280.1834
   9   2.0000     -10.295588      -280.1572
  10   2.0000     -10.289401      -279.9888
  11   2.0000     -10.286888      -279.9205
  12   2.0000     -10.285248      -279.8758
  13   2.0000     -10.280744      -279.7533
  14   2.0000     -10.278655      -279.6964
  15   2.0000     -10.272321      -279.5241
  16   2.0000      -8.082363      -219.9323
  17   2.0000      -8.080976      -219.8945
  18   2.0000      -6.040841      -164.3796
  19   2.0000      -6.039287      -164.3374
  20   2.0000      -6.037204      -164.2807
  21   2.0000      -6.035483      -164.2338
  22   2.0000      -6.032924      -164.1642
  23   2.0000      -6.032050      -164.1404
  24   2.0000      -1.004158       -27.3245
  25   2.0000      -0.981755       -26.7149
  26   2.0000      -0.914203       -24.8767
  27   2.0000      -0.902973       -24.5711
  28   2.0000      -0.864661       -23.5286
  29   2.0000      -0.857685       -23.3388
  30   2.0000      -0.850955       -23.1557
  31   2.0000      -0.811698       -22.0874
  32   2.0000      -0.782960       -21.3054
  33   2.0000      -0.767406       -20.8822
  34   2.0000      -0.712288       -19.3823
  35   2.0000      -0.698109       -18.9965
  36   2.0000      -0.690190       -18.7810
  37   2.0000      -0.667434       -18.1618
  38   2.0000      -0.640938       -17.4408
  39   2.0000      -0.620164       -16.8755
  40   2.0000      -0.595792       -16.2123
  41   2.0000      -0.573312       -15.6006
  42   2.0000      -0.559911       -15.2359
  43   2.0000      -0.555833       -15.1250
  44   2.0000      -0.524585       -14.2747
  45   2.0000      -0.521285       -14.1849
  46   2.0000      -0.514601       -14.0030
  47   2.0000      -0.509578       -13.8663
  48   2.0000      -0.506854       -13.7922
  49   2.0000      -0.500523       -13.6199
  50   2.0000      -0.490241       -13.3401
  51   2.0000      -0.475737       -12.9455
  52   2.0000      -0.473715       -12.8904
  53   2.0000      -0.462570       -12.5872
  54   2.0000      -0.461759       -12.5651
  55   2.0000      -0.456207       -12.4140
  56   2.0000      -0.447150       -12.1676
  57   2.0000      -0.437461       -11.9039
  58   2.0000      -0.434381       -11.8201
  59   2.0000      -0.425900       -11.5893
  60   2.0000      -0.423020       -11.5110
  61   2.0000      -0.410715       -11.1761
  62   2.0000      -0.408213       -11.1080
  63   2.0000      -0.343380        -9.3438
  64   2.0000      -0.333427        -9.0730
  65   2.0000      -0.326613        -8.8876
  66   2.0000      -0.288621        -7.8538
  67   0.0000       0.031259         0.8506
  68   0.0000       0.066793         1.8175
  69   0.0000       0.098833         2.6894
  70   0.0000       0.112487         3.0609
  71   0.0000       0.125630         3.4186

MULLIKEN ATOMIC CHARGES
-----------------------
   0 S :    0.120196
   1 C :   -0.125166
   2 C :   -0.089843
   3 C :    0.020313
   4 C :   -0.158705
   5 H :    0.013491
   6 C :    0.106069
   7 H :    0.015305
   8 H :    0.033222
   9 C :   -0.091265
  10 H :    0.030104
  11 H :    0.024738
  12 C :   -0.048387
  13 H :    0.030509
  14 H :    0.029629
  15 H :    0.032926
  16 S :    0.115572
  17 C :   -0.092823
  18 C :   -0.024685
  19 C :   -0.046558
  20 C :   -0.137424
  21 H :    0.025201
  22 C :    0.032581
  23 H :    0.026764
  24 H :    0.025388
  25 C :   -0.024688
  26 H :    0.008386
  27 H :    0.003032
  28 C :   -0.020595
  29 H :    0.022890
  30 H :    0.044128
  31 H :    0.015041
  32 H :    0.029064
  33 H :    0.055591
Sum of atomic charges:   -0.0000000

LOEWDIN ATOMIC CHARGES
----------------------
   0 S :    0.421174
   1 C :   -0.209362
   2 C :   -0.058224
   3 C :   -0.073755
   4 C :   -0.184557
   5 H :    0.031936
   6 C :   -0.025931
   7 H :    0.027050
   8 H :    0.039663
   9 C :   -0.046095
  10 H :    0.028637
  11 H :    0.019966
  12 C :   -0.070893
  13 H :    0.022311
  14 H :    0.027487
  15 H :    0.028985
  16 S :    0.398163
  17 C :   -0.177196
  18 C :   -0.066534
  19 C :   -0.051119
  20 C :   -0.193280
  21 H :    0.033831
  22 C :   -0.037520
  23 H :    0.023801
  24 H :    0.034617
  25 C :   -0.038939
  26 H :    0.022069
  27 H :    0.015030
  28 C :   -0.058866
  29 H :    0.020304
  30 H :    0.041624
  31 H :    0.017384
  32 H :    0.012479
  33 H :    0.025758

  Mayer bond orders larger than 0.100000
B(  0-S ,  1-C ) :   1.1606 B(  0-S ,  4-C ) :   1.1609 B(  1-C ,  2-C ) :   1.5594
B(  1-C ,  4-C ) :   0.1073 B(  1-C , 32-H ) :   0.9756 B(  2-C ,  3-C ) :   1.3023
B(  2-C ,  6-C ) :   1.0173 B(  3-C ,  4-C ) :   1.5333 B(  3-C ,  5-H ) :   0.9876
B(  4-C , 20-C ) :   1.0368 B(  6-C ,  7-H ) :   0.9412 B(  6-C ,  8-H ) :   0.9316
B(  6-C ,  9-C ) :   1.0826 B(  9-C , 10-H ) :   0.9509 B(  9-C , 11-H ) :   0.9567
B(  9-C , 12-C ) :   1.0807 B( 12-C , 13-H ) :   0.9757 B( 12-C , 14-H ) :   0.9747
B( 12-C , 15-H ) :   0.9738 B( 16-S , 17-C ) :   1.1570 B( 16-S , 20-C ) :   1.1163
B( 17-C , 18-C ) :   1.6302 B( 17-C , 33-H ) :   0.9640 B( 18-C , 19-C ) :   1.1996
B( 18-C , 21-H ) :   0.9902 B( 19-C , 20-C ) :   1.6410 B( 19-C , 22-C ) :   1.0538
B( 22-C , 23-H ) :   0.9327 B( 22-C , 24-H ) :   0.9406 B( 22-C , 25-C ) :   1.0331
B( 25-C , 26-H ) :   0.9546 B( 25-C , 27-H ) :   0.9487 B( 25-C , 28-C ) :   1.0852
B( 28-C , 29-H ) :   0.9742 B( 28-C , 30-H ) :   0.9695 B( 28-C , 31-H ) :   0.9755

Dispersion correction           -0.013903996
FINAL SINGLE POINT ENERGY     -1339.868310853964

DIPOLE MOMENT
-------------
                                X             Y             Z
Electronic contribution:     14.89373      -5.69732      -8.78315
Nuclear contribution   :    -15.25138       5.69362       8.81209
                        -----------------------------------------
Total Dipole Moment    :     -0.35765      -0.00370       0.02894
                        -----------------------------------------
Magnitude (a.u.)       :      0.35884
Magnitude (Debye)      :      0.91209

Rotational constants in cm-1:     0.020519     0.007453     0.006200
Rotational constants in MHz :   615.139711   223.444916   185.879091

                             ****ORCA TERMINATED NORMALLY****
TOTAL RUN TIME: 0 days 0 hours 0 minutes 19 seconds 799 msec
