                         Program Version 4.2.1 -  RELEASE  -
|  1> ! wB97X-D3 SP def2-SVP
|  2> %pal
|  3> nprocs 24
|  4> end
|  5>
|  6> * xyz 0 1
|  7> S 	 -41.458 	 -50.9421 	 -69.5151
|  8> C 	 -40.9653 	 -49.2536 	 -69.6119
|  9> C 	 -41.3158 	 -48.604 	 -68.4551
| 10> C 	 -42.0317 	 -49.4057 	 -67.5085
| 11> C 	 -42.3984 	 -50.6869 	 -67.9965
| 12> H 	 -42.2808 	 -49.064 	 -66.4579
| 13> C 	 -41.0186 	 -47.0621 	 -68.2279
| 14> H 	 -40.111 	 -46.7954 	 -68.7276
| 15> H 	 -40.8318 	 -46.7997 	 -67.2017
| 16> C 	 -42.0972 	 -46.1063 	 -68.7372
| 17> H 	 -41.6644 	 -45.13 	 -68.4436
| 18> H 	 -42.2151 	 -46.1034 	 -69.8037
| 19> C 	 -43.457 	 -46.1854 	 -68.1695
| 20> H 	 -44.1357 	 -47.0032 	 -68.5539
| 21> H 	 -43.4307 	 -46.1186 	 -67.0817
| 22> H 	 -43.9796 	 -45.3213 	 -68.5153
| 23> S 	 -42.0338 	 -53.1832 	 -67.0568
| 24> C 	 -43.2353 	 -53.8236 	 -66.0264
| 25> C 	 -44.4202 	 -53.1165 	 -65.983
| 26> C 	 -44.308 	 -51.8703 	 -66.7007
| 27> C 	 -43.0327 	 -51.7552 	 -67.256
| 28> H 	 -45.1739 	 -53.4108 	 -65.2474
| 29> C 	 -45.3497 	 -50.8074 	 -66.8255
| 30> H 	 -44.7959 	 -49.8833 	 -66.7661
| 31> H 	 -46.007 	 -50.8706 	 -65.9771
| 32> C 	 -46.1595 	 -50.7764 	 -68.1505
| 33> H 	 -46.7405 	 -49.8646 	 -68.1415
| 34> H 	 -46.8347 	 -51.5996 	 -68.2059
| 35> C 	 -45.329 	 -50.7805 	 -69.4948
| 36> H 	 -44.7546 	 -49.8556 	 -69.587
| 37> H 	 -46.02 	 -50.643 	 -70.37
| 38> H 	 -44.5414 	 -51.54 	 -69.6047
| 39> H 	 -40.623 	 -48.7011 	 -70.452
| 40> H 	 -43.0987 	 -54.6845 	 -65.457
| 41> *
| 42>
| 43>                          ****END OF INPUT****

CARTESIAN COORDINATES (ANGSTROEM)
---------------------------------
  S    -41.458000  -50.942100  -69.515100
  C    -40.965300  -49.253600  -69.611900
  C    -41.315800  -48.604000  -68.455100
  C    -42.031700  -49.405700  -67.508500
  C    -42.398400  -50.686900  -67.996500
  H    -42.280800  -49.064000  -66.457900
  C    -41.018600  -47.062100  -68.227900
  H    -40.111000  -46.795400  -68.727600
  H    -40.831800  -46.799700  -67.201700
  C    -42.097200  -46.106300  -68.737200
  H    -41.664400  -45.130000  -68.443600
  H    -42.215100  -46.103400  -69.803700
  C    -43.457000  -46.185400  -68.169500
  H    -44.135700  -47.003200  -68.553900
  H    -43.430700  -46.118600  -67.081700
  H    -43.979600  -45.321300  -68.515300
  S    -42.033800  -53.183200  -67.056800
  C    -43.235300  -53.823600  -66.026400
  C    -44.420200  -53.116500  -65.983000
  C    -44.308000  -51.870300  -66.700700
  C    -43.032700  -51.755200  -67.256000
  H    -45.173900  -53.410800  -65.247400
  C    -45.349700  -50.807400  -66.825500
  H    -44.795900  -49.883300  -66.766100
  H    -46.007000  -50.870600  -65.977100
  C    -46.159500  -50.776400  -68.150500
  H    -46.740500  -49.864600  -68.141500
  H    -46.834700  -51.599600  -68.205900
  C    -45.329000  -50.780500  -69.494800
  H    -44.754600  -49.855600  -69.587000
  H    -46.020000  -50.643000  -70.370000
  H    -44.541400  -51.540000  -69.604700
  H    -40.623000  -48.701100  -70.452000
  H    -43.098700  -54.684500  -65.457000

 Total Charge           Charge          ....    0
 Multiplicity           Mult            ....    1
 Number of Electrons    NEL             ....  134
 Basis Dimension        Dim             ....  322

ORBITAL ENERGIES
----------------

  NO   OCC          E(Eh)            E(eV)
   0   2.0000     -88.967169     -2420.9198
   1   2.0000     -88.966832     -2420.9106
   2   2.0000     -10.336853      -281.2801
   3   2.0000     -10.324187      -280.9354
   4   2.0000     -10.312234      -280.6101
   5   2.0000     -10.309407      -280.5332
   6   2.0000     -10.305936      -280.4388
   7   2.0000     -10.303110      -280.3619
   8   2.0000     -10.302855      -280.3549
   9   2.0000     -10.295180      -280.1461
  10   2.0000     -10.292016      -280.0600
  11   2.0000     -10.287805      -279.9454
  12   2.0000     -10.284913      -279.8667
  13   2.0000     -10.282768      -279.8083
  14   2.0000     -10.274623      -279.5867
  15   2.0000     -10.274262      -279.5769
  16   2.0000      -8.082798      -219.9441
  17   2.0000      -8.080116      -219.8711
  18   2.0000      -6.041091      -164.3864
  19   2.0000      -6.038808      -164.3243
  20   2.0000      -6.037313      -164.2836
  21   2.0000      -6.034863      -164.2170
  22   2.0000      -6.033587      -164.1822
  23   2.0000      -6.030719      -164.1042
  24   2.0000      -1.006177       -27.3795
  25   2.0000      -0.979416       -26.6513
  26   2.0000      -0.912324       -24.8256
  27   2.0000      -0.906185       -24.6586
  28   2.0000      -0.871166       -23.7056
  29   2.0000      -0.846136       -23.0245
  30   2.0000      -0.839685       -22.8490
  31   2.0000      -0.812452       -22.1080
  32   2.0000      -0.788072       -21.4445
  33   2.0000      -0.774396       -21.0724
  34   2.0000      -0.708137       -19.2694
  35   2.0000      -0.696967       -18.9654
  36   2.0000      -0.690010       -18.7761
  37   2.0000      -0.660740       -17.9797
  38   2.0000      -0.634316       -17.2606
  39   2.0000      -0.611160       -16.6305
  40   2.0000      -0.592497       -16.1227
  41   2.0000      -0.578066       -15.7300
  42   2.0000      -0.556154       -15.1337
  43   2.0000      -0.548690       -14.9306
  44   2.0000      -0.544743       -14.8232
  45   2.0000      -0.532464       -14.4891
  46   2.0000      -0.512270       -13.9396
  47   2.0000      -0.507581       -13.8120
  48   2.0000      -0.502188       -13.6652
  49   2.0000      -0.497777       -13.5452
  50   2.0000      -0.491202       -13.3663
  51   2.0000      -0.478272       -13.0144
  52   2.0000      -0.471180       -12.8215
  53   2.0000      -0.457840       -12.4585
  54   2.0000      -0.454949       -12.3798
  55   2.0000      -0.451453       -12.2847
  56   2.0000      -0.444545       -12.0967
  57   2.0000      -0.433614       -11.7992
  58   2.0000      -0.430092       -11.7034
  59   2.0000      -0.426297       -11.6001
  60   2.0000      -0.420407       -11.4399
  61   2.0000      -0.415057       -11.2943
  62   2.0000      -0.404402       -11.0043
  63   2.0000      -0.346199        -9.4205
  64   2.0000      -0.333145        -9.0653
  65   2.0000      -0.327749        -8.9185
  66   2.0000      -0.286935        -7.8079
  67   0.0000       0.028837         0.7847
  68   0.0000       0.056292         1.5318
  69   0.0000       0.106268         2.8917
  70   0.0000       0.117486         3.1969
  71   0.0000       0.126275         3.4361

MULLIKEN ATOMIC CHARGES
-----------------------
   0 S :    0.092574
   1 C :   -0.098270
   2 C :   -0.096345
   3 C :    0.026212
   4 C :   -0.172020
   5 H :    0.042700
   6 C :    0.088659
   7 H :    0.013909
   8 H :    0.015882
   9 C :   -0.073919
  10 H :    0.024410
  11 H :    0.019757
  12 C :   -0.045548
  13 H :    0.049200
  14 H :    0.022632
  15 H :    0.019422
  16 S :    0.127789
  17 C :   -0.066229
  18 C :   -0.045528
  19 C :   -0.054885
  20 C :   -0.182698
  21 H :    0.028901
  22 C :    0.124979
  23 H :    0.012528
  24 H :    0.014582
  25 C :   -0.043273
  26 H :    0.026797
  27 H :    0.024453
  28 C :   -0.075511
  29 H :    0.022460
  30 H :    0.036286
  31 H :    0.049785
  32 H :    0.040331
  33 H :    0.029978
Sum of atomic charges:   -0.0000000

LOEWDIN ATOMIC CHARGES
----------------------
   0 S :    0.376110
   1 C :   -0.193016
   2 C :   -0.063840
   3 C :   -0.068445
   4 C :   -0.179064
   5 H :    0.040843
   6 C :   -0.024944
   7 H :    0.027046
   8 H :    0.026382
   9 C :   -0.043518
  10 H :    0.028664
  11 H :    0.019879
  12 C :   -0.071469
  13 H :    0.033297
  14 H :    0.022098
  15 H :    0.025605
  16 S :    0.426007
  17 C :   -0.182145
  18 C :   -0.074862
  19 C :   -0.046863
  20 C :   -0.203880
  21 H :    0.036259
  22 C :   -0.029823
  23 H :    0.031815
  24 H :    0.028795
  25 C :   -0.027502
  26 H :    0.025168
  27 H :    0.017350
  28 C :   -0.077456
  29 H :    0.022636
  30 H :    0.032445
  31 H :    0.024218
  32 H :    0.027693
  33 H :    0.014516

  Mayer bond orders larger than 0.100000
B(  0-S ,  1-C ) :   1.1223 B(  0-S ,  4-C ) :   1.1328 B(  1-C ,  2-C ) :   1.6273
B(  1-C ,  4-C ) :   0.1078 B(  1-C , 32-H ) :   0.9673 B(  2-C ,  3-C ) :   1.2515
B(  2-C ,  6-C ) :   1.0099 B(  3-C ,  4-C ) :   1.5639 B(  3-C ,  5-H ) :   0.9759
B(  4-C , 20-C ) :   1.0560 B(  6-C ,  7-H ) :   0.9411 B(  6-C ,  8-H ) :   0.9453
B(  6-C ,  9-C ) :   1.0799 B(  9-C , 10-H ) :   0.9512 B(  9-C , 11-H ) :   0.9532
B(  9-C , 12-C ) :   1.1006 B( 12-C , 13-H ) :   0.9671 B( 12-C , 14-H ) :   0.9711
B( 12-C , 15-H ) :   0.9647 B( 16-S , 17-C ) :   1.1642 B( 16-S , 20-C ) :   1.1432
B( 17-C , 18-C ) :   1.6273 B( 17-C , 33-H ) :   0.9713 B( 18-C , 19-C ) :   1.2218
B( 18-C , 21-H ) :   0.9853 B( 19-C , 20-C ) :   1.5983 B( 19-C , 22-C ) :   1.0450
B( 22-C , 23-H ) :   0.9210 B( 22-C , 24-H ) :   0.9277 B( 22-C , 25-C ) :   1.0747
B( 25-C , 26-H ) :   0.9545 B( 25-C , 27-H ) :   0.9586 B( 25-C , 28-C ) :   1.0804
B( 28-C , 29-H ) :   0.9694 B( 28-C , 30-H ) :   0.9715 B( 28-C , 31-H ) :   0.9692

Dispersion correction           -0.016252524
FINAL SINGLE POINT ENERGY     -1339.870163716061

DIPOLE MOMENT
-------------
                                X             Y             Z
Electronic contribution:     14.20425     -23.03401       1.89788
Nuclear contribution   :    -14.48308      23.65557      -1.57412
                        -----------------------------------------
Total Dipole Moment    :     -0.27883       0.62157       0.32376
                        -----------------------------------------
Magnitude (a.u.)       :      0.75426
Magnitude (Debye)      :      1.91718

Rotational constants in cm-1:     0.020684     0.009623     0.007974
Rotational constants in MHz :   620.092243   288.491567   239.041272

                             ****ORCA TERMINATED NORMALLY****
TOTAL RUN TIME: 0 days 0 hours 0 minutes 23 seconds 229 msec
