                         Program Version 4.2.1 -  RELEASE  -
|  1> ! wB97X-D3 SP def2-SVP
|  2> %pal
|  3> nprocs 24
|  4> end
|  5>
|  6> * xyz 0 1
|  7> S 	 -99.5304 	 -2.44419 	 -106.959
|  8> C 	 -99.5415 	 -2.61973 	 -108.767
|  9> C 	 -100.661 	 -3.27412 	 -109.212
| 10> C 	 -101.565 	 -3.47877 	 -108.102
| 11> C 	 -101.099 	 -2.9895 	 -106.914
| 12> H 	 -102.54 	 -3.82364 	 -108.08
| 13> C 	 -101.138 	 -3.57663 	 -110.593
| 14> H 	 -100.399 	 -3.33001 	 -111.336
| 15> H 	 -101.867 	 -2.85007 	 -110.834
| 16> C 	 -101.961 	 -4.87247 	 -110.879
| 17> H 	 -102.973 	 -4.68902 	 -110.492
| 18> H 	 -102.067 	 -4.97211 	 -111.968
| 19> C 	 -101.369 	 -6.15215 	 -110.24
| 20> H 	 -100.351 	 -6.26111 	 -110.624
| 21> H 	 -101.463 	 -6.14383 	 -109.134
| 22> H 	 -101.926 	 -7.06062 	 -110.589
| 23> S 	 -102.096 	 -1.09913 	 -105.139
| 24> C 	 -102.771 	 -1.68148 	 -103.607
| 25> C 	 -103.034 	 -2.99533 	 -103.709
| 26> C 	 -102.48 	 -3.66382 	 -104.848
| 27> C 	 -101.906 	 -2.76302 	 -105.722
| 28> H 	 -103.546 	 -3.40294 	 -102.866
| 29> C 	 -102.519 	 -5.18045 	 -105.125
| 30> H 	 -103.108 	 -5.49121 	 -105.932
| 31> H 	 -102.933 	 -5.59717 	 -104.19
| 32> C 	 -101.155 	 -5.82451 	 -105.378
| 33> H 	 -100.539 	 -5.38434 	 -104.573
| 34> H 	 -100.627 	 -5.56159 	 -106.287
| 35> C 	 -101.133 	 -7.4002 	 -105.201
| 36> H 	 -101.508 	 -7.60761 	 -104.197
| 37> H 	 -100.012 	 -7.47476 	 -105.265
| 38> H 	 -101.531 	 -8.04281 	 -105.992
| 39> H 	 -98.6594 	 -2.46324 	 -109.367
| 40> H 	 -103.24 	 -1.13843 	 -102.838
| 41> *
| 42>
| 43>                          ****END OF INPUT****

CARTESIAN COORDINATES (ANGSTROEM)
---------------------------------
  S    -99.530400   -2.444190  -106.959000
  C    -99.541500   -2.619730  -108.767000
  C    -100.661000   -3.274120  -109.212000
  C    -101.565000   -3.478770  -108.102000
  C    -101.099000   -2.989500  -106.914000
  H    -102.540000   -3.823640  -108.080000
  C    -101.138000   -3.576630  -110.593000
  H    -100.399000   -3.330010  -111.336000
  H    -101.867000   -2.850070  -110.834000
  C    -101.961000   -4.872470  -110.879000
  H    -102.973000   -4.689020  -110.492000
  H    -102.067000   -4.972110  -111.968000
  C    -101.369000   -6.152150  -110.240000
  H    -100.351000   -6.261110  -110.624000
  H    -101.463000   -6.143830  -109.134000
  H    -101.926000   -7.060620  -110.589000
  S    -102.096000   -1.099130  -105.139000
  C    -102.771000   -1.681480  -103.607000
  C    -103.034000   -2.995330  -103.709000
  C    -102.480000   -3.663820  -104.848000
  C    -101.906000   -2.763020  -105.722000
  H    -103.546000   -3.402940  -102.866000
  C    -102.519000   -5.180450  -105.125000
  H    -103.108000   -5.491210  -105.932000
  H    -102.933000   -5.597170  -104.190000
  C    -101.155000   -5.824510  -105.378000
  H    -100.539000   -5.384340  -104.573000
  H    -100.627000   -5.561590  -106.287000
  C    -101.133000   -7.400200  -105.201000
  H    -101.508000   -7.607610  -104.197000
  H    -100.012000   -7.474760  -105.265000
  H    -101.531000   -8.042810  -105.992000
  H    -98.659400   -2.463240  -109.367000
  H    -103.240000   -1.138430  -102.838000

 Total Charge           Charge          ....    0
 Multiplicity           Mult            ....    1
 Number of Electrons    NEL             ....  134
 Basis Dimension        Dim             ....  322

ORBITAL ENERGIES
----------------

  NO   OCC          E(Eh)            E(eV)
   0   2.0000     -88.964995     -2420.8606
   1   2.0000     -88.962560     -2420.7943
   2   2.0000     -10.324511      -280.9442
   3   2.0000     -10.319249      -280.8010
   4   2.0000     -10.314918      -280.6832
   5   2.0000     -10.309654      -280.5399
   6   2.0000     -10.306231      -280.4468
   7   2.0000     -10.303119      -280.3621
   8   2.0000     -10.295850      -280.1643
   9   2.0000     -10.289165      -279.9824
  10   2.0000     -10.288613      -279.9674
  11   2.0000     -10.288021      -279.9513
  12   2.0000     -10.284443      -279.8539
  13   2.0000     -10.284153      -279.8460
  14   2.0000     -10.283006      -279.8148
  15   2.0000     -10.282821      -279.8098
  16   2.0000      -8.080610      -219.8846
  17   2.0000      -8.076685      -219.7778
  18   2.0000      -6.039039      -164.3306
  19   2.0000      -6.035349      -164.2302
  20   2.0000      -6.035146      -164.2247
  21   2.0000      -6.031336      -164.1210
  22   2.0000      -6.031205      -164.1174
  23   2.0000      -6.027235      -164.0094
  24   2.0000      -1.011878       -27.5346
  25   2.0000      -0.984528       -26.7904
  26   2.0000      -0.915935       -24.9238
  27   2.0000      -0.903270       -24.5792
  28   2.0000      -0.870543       -23.6887
  29   2.0000      -0.846574       -23.0364
  30   2.0000      -0.840952       -22.8835
  31   2.0000      -0.818235       -22.2653
  32   2.0000      -0.790172       -21.5017
  33   2.0000      -0.773658       -21.0523
  34   2.0000      -0.710676       -19.3385
  35   2.0000      -0.699684       -19.0394
  36   2.0000      -0.686559       -18.6822
  37   2.0000      -0.656677       -17.8691
  38   2.0000      -0.645273       -17.5588
  39   2.0000      -0.623432       -16.9644
  40   2.0000      -0.595732       -16.2107
  41   2.0000      -0.569875       -15.5071
  42   2.0000      -0.565684       -15.3931
  43   2.0000      -0.555827       -15.1248
  44   2.0000      -0.539177       -14.6717
  45   2.0000      -0.522777       -14.2255
  46   2.0000      -0.516645       -14.0586
  47   2.0000      -0.506506       -13.7827
  48   2.0000      -0.504771       -13.7355
  49   2.0000      -0.497689       -13.5428
  50   2.0000      -0.493913       -13.4401
  51   2.0000      -0.483039       -13.1441
  52   2.0000      -0.471090       -12.8190
  53   2.0000      -0.469774       -12.7832
  54   2.0000      -0.456986       -12.4352
  55   2.0000      -0.446994       -12.1633
  56   2.0000      -0.440140       -11.9768
  57   2.0000      -0.435038       -11.8380
  58   2.0000      -0.432178       -11.7602
  59   2.0000      -0.425098       -11.5675
  60   2.0000      -0.423000       -11.5104
  61   2.0000      -0.416020       -11.3205
  62   2.0000      -0.402406       -10.9500
  63   2.0000      -0.340673        -9.2702
  64   2.0000      -0.334473        -9.1015
  65   2.0000      -0.323324        -8.7981
  66   2.0000      -0.300086        -8.1657
  67   0.0000       0.033789         0.9194
  68   0.0000       0.069306         1.8859
  69   0.0000       0.107041         2.9127
  70   0.0000       0.113906         3.0996
  71   0.0000       0.126246         3.4353

MULLIKEN ATOMIC CHARGES
-----------------------
   0 S :    0.120672
   1 C :   -0.144904
   2 C :   -0.037832
   3 C :    0.047866
   4 C :   -0.174252
   5 H :   -0.024362
   6 C :    0.089654
   7 H :    0.008998
   8 H :    0.030505
   9 C :   -0.101739
  10 H :    0.031624
  11 H :    0.038397
  12 C :   -0.058729
  13 H :    0.039129
  14 H :    0.046484
  15 H :    0.035363
  16 S :    0.102530
  17 C :   -0.067877
  18 C :   -0.045150
  19 C :   -0.022493
  20 C :   -0.172864
  21 H :    0.008826
  22 C :    0.134371
  23 H :    0.022349
  24 H :    0.008979
  25 C :   -0.155769
  26 H :    0.028731
  27 H :    0.056522
  28 C :   -0.052025
  29 H :    0.035613
  30 H :    0.040092
  31 H :    0.046957
  32 H :    0.043528
  33 H :    0.040806
Sum of atomic charges:   -0.0000000

LOEWDIN ATOMIC CHARGES
----------------------
   0 S :    0.419580
   1 C :   -0.180725
   2 C :   -0.050270
   3 C :   -0.058417
   4 C :   -0.216589
   5 H :    0.017223
   6 C :   -0.037759
   7 H :    0.026460
   8 H :    0.038526
   9 C :   -0.039108
  10 H :    0.022434
  11 H :    0.030415
  12 C :   -0.072581
  13 H :    0.027546
  14 H :    0.029060
  15 H :    0.029598
  16 S :    0.382446
  17 C :   -0.173644
  18 C :   -0.070338
  19 C :   -0.058144
  20 C :   -0.186545
  21 H :    0.028357
  22 C :   -0.028590
  23 H :    0.020567
  24 H :    0.030969
  25 C :   -0.044923
  26 H :    0.026174
  27 H :    0.022358
  28 C :   -0.068677
  29 H :    0.023534
  30 H :    0.038194
  31 H :    0.024254
  32 H :    0.023427
  33 H :    0.025190

  Mayer bond orders larger than 0.100000
B(  0-S ,  1-C ) :   1.1101 B(  0-S ,  4-C ) :   1.1697 B(  1-C ,  2-C ) :   1.6414
B(  1-C , 32-H ) :   0.9664 B(  2-C ,  3-C ) :   1.1793 B(  2-C ,  6-C ) :   1.0351
B(  3-C ,  4-C ) :   1.6093 B(  3-C ,  5-H ) :   0.9994 B(  4-C , 20-C ) :   1.0125
B(  6-C ,  7-H ) :   0.9358 B(  6-C ,  8-H ) :   0.9314 B(  6-C ,  9-C ) :   1.0614
B(  9-C , 10-H ) :   0.9512 B(  9-C , 11-H ) :   0.9549 B(  9-C , 12-C ) :   1.0883
B( 12-C , 13-H ) :   0.9768 B( 12-C , 14-H ) :   0.9687 B( 12-C , 15-H ) :   0.9735
B( 16-S , 17-C ) :   1.1267 B( 16-S , 20-C ) :   1.1413 B( 17-C , 18-C ) :   1.6691
B( 17-C , 33-H ) :   0.9619 B( 18-C , 19-C ) :   1.2189 B( 18-C , 21-H ) :   0.9869
B( 19-C , 20-C ) :   1.6132 B( 19-C , 22-C ) :   1.0334 B( 22-C , 23-H ) :   0.9352
B( 22-C , 24-H ) :   0.9305 B( 22-C , 25-C ) :   1.0536 B( 25-C , 26-H ) :   0.9607
B( 25-C , 27-H ) :   0.9526 B( 25-C , 28-C ) :   1.0680 B( 28-C , 29-H ) :   0.9741
B( 28-C , 30-H ) :   0.9781 B( 28-C , 31-H ) :   0.9776

Dispersion correction           -0.015521347
FINAL SINGLE POINT ENERGY     -1339.856797058237

DIPOLE MOMENT
-------------
                                X             Y             Z
Electronic contribution:      3.59170      25.68001      11.04671
Nuclear contribution   :     -3.91648     -26.14477     -11.36774
                        -----------------------------------------
Total Dipole Moment    :     -0.32479      -0.46476      -0.32103
                        -----------------------------------------
Magnitude (a.u.)       :      0.65157
Magnitude (Debye)      :      1.65617

Rotational constants in cm-1:     0.018025     0.010078     0.007813
Rotational constants in MHz :   540.369466   302.141428   234.227926

                             ****ORCA TERMINATED NORMALLY****
TOTAL RUN TIME: 0 days 0 hours 0 minutes 21 seconds 646 msec
