                         Program Version 4.2.1 -  RELEASE  -
|  1> ! wB97X-D3 SP def2-SVP
|  2> %pal
|  3> nprocs 24
|  4> end
|  5>
|  6> * xyz 0 1
|  7> S 	 -37.4444 	 -6.18653 	 19.1901
|  8> C 	 -37.287 	 -7.94059 	 18.8884
|  9> C 	 -38.4924 	 -8.56458 	 18.9703
| 10> C 	 -39.5653 	 -7.62127 	 19.2772
| 11> C 	 -39.1899 	 -6.30399 	 19.4793
| 12> H 	 -40.5719 	 -8.03774 	 19.5095
| 13> C 	 -38.7411 	 -10.0141 	 18.652
| 14> H 	 -39.7229 	 -10.2209 	 19.0948
| 15> H 	 -38.0718 	 -10.559 	 19.2361
| 16> C 	 -38.7723 	 -10.5332 	 17.1891
| 17> H 	 -39.5673 	 -9.95316 	 16.7003
| 18> H 	 -37.8503 	 -10.3433 	 16.6204
| 19> C 	 -38.9316 	 -12.0527 	 17.0539
| 20> H 	 -38.0856 	 -12.6525 	 17.3568
| 21> H 	 -39.8378 	 -12.3395 	 17.6438
| 22> H 	 -39.2048 	 -12.2134 	 16.027
| 23> S 	 -39.5332 	 -4.35903 	 21.3466
| 24> C 	 -41.0002 	 -3.39351 	 21.332
| 25> C 	 -41.8027 	 -3.72918 	 20.261
| 26> C 	 -41.3509 	 -4.79909 	 19.4312
| 27> C 	 -40.0856 	 -5.224 	 19.8866
| 28> H 	 -42.7418 	 -3.17599 	 20.1001
| 29> C 	 -42.0321 	 -5.24237 	 18.1476
| 30> H 	 -41.3867 	 -6.03768 	 17.6686
| 31> H 	 -42.0829 	 -4.33422 	 17.4461
| 32> C 	 -43.4412 	 -5.72868 	 18.3845
| 33> H 	 -43.9443 	 -4.90282 	 18.8517
| 34> H 	 -43.414 	 -6.61422 	 19.0821
| 35> C 	 -44.3616 	 -6.11114 	 17.176
| 36> H 	 -44.1045 	 -7.05427 	 16.8479
| 37> H 	 -44.2813 	 -5.37403 	 16.4266
| 38> H 	 -45.422 	 -6.19969 	 17.4247
| 39> H 	 -36.4474 	 -8.38843 	 18.3914
| 40> H 	 -41.2733 	 -2.59507 	 22.0495
| 41> *
| 42>
| 43>                          ****END OF INPUT****

CARTESIAN COORDINATES (ANGSTROEM)
---------------------------------
  S    -37.444400   -6.186530   19.190100
  C    -37.287000   -7.940590   18.888400
  C    -38.492400   -8.564580   18.970300
  C    -39.565300   -7.621270   19.277200
  C    -39.189900   -6.303990   19.479300
  H    -40.571900   -8.037740   19.509500
  C    -38.741100  -10.014100   18.652000
  H    -39.722900  -10.220900   19.094800
  H    -38.071800  -10.559000   19.236100
  C    -38.772300  -10.533200   17.189100
  H    -39.567300   -9.953160   16.700300
  H    -37.850300  -10.343300   16.620400
  C    -38.931600  -12.052700   17.053900
  H    -38.085600  -12.652500   17.356800
  H    -39.837800  -12.339500   17.643800
  H    -39.204800  -12.213400   16.027000
  S    -39.533200   -4.359030   21.346600
  C    -41.000200   -3.393510   21.332000
  C    -41.802700   -3.729180   20.261000
  C    -41.350900   -4.799090   19.431200
  C    -40.085600   -5.224000   19.886600
  H    -42.741800   -3.175990   20.100100
  C    -42.032100   -5.242370   18.147600
  H    -41.386700   -6.037680   17.668600
  H    -42.082900   -4.334220   17.446100
  C    -43.441200   -5.728680   18.384500
  H    -43.944300   -4.902820   18.851700
  H    -43.414000   -6.614220   19.082100
  C    -44.361600   -6.111140   17.176000
  H    -44.104500   -7.054270   16.847900
  H    -44.281300   -5.374030   16.426600
  H    -45.422000   -6.199690   17.424700
  H    -36.447400   -8.388430   18.391400
  H    -41.273300   -2.595070   22.049500

 Total Charge           Charge          ....    0
 Multiplicity           Mult            ....    1
 Number of Electrons    NEL             ....  134
 Basis Dimension        Dim             ....  322

ORBITAL ENERGIES
----------------

  NO   OCC          E(Eh)            E(eV)
   0   2.0000     -88.967211     -2420.9209
   1   2.0000     -88.965813     -2420.8829
   2   2.0000     -10.334643      -281.2199
   3   2.0000     -10.334099      -281.2051
   4   2.0000     -10.321088      -280.8511
   5   2.0000     -10.312832      -280.6264
   6   2.0000     -10.310254      -280.5563
   7   2.0000     -10.303143      -280.3628
   8   2.0000     -10.300094      -280.2798
   9   2.0000     -10.298255      -280.2298
  10   2.0000     -10.296348      -280.1779
  11   2.0000     -10.292345      -280.0689
  12   2.0000     -10.288976      -279.9773
  13   2.0000     -10.288310      -279.9592
  14   2.0000     -10.282048      -279.7888
  15   2.0000     -10.272046      -279.5166
  16   2.0000      -8.081359      -219.9050
  17   2.0000      -8.079576      -219.8565
  18   2.0000      -6.039901      -164.3541
  19   2.0000      -6.038354      -164.3120
  20   2.0000      -6.035942      -164.2463
  21   2.0000      -6.034221      -164.1995
  22   2.0000      -6.032107      -164.1420
  23   2.0000      -6.030089      -164.0871
  24   2.0000      -1.000650       -27.2291
  25   2.0000      -0.978863       -26.6362
  26   2.0000      -0.911201       -24.7950
  27   2.0000      -0.908931       -24.7333
  28   2.0000      -0.870146       -23.6779
  29   2.0000      -0.851312       -23.1654
  30   2.0000      -0.844298       -22.9745
  31   2.0000      -0.812233       -22.1020
  32   2.0000      -0.785701       -21.3800
  33   2.0000      -0.775629       -21.1059
  34   2.0000      -0.705584       -19.1999
  35   2.0000      -0.702918       -19.1274
  36   2.0000      -0.693124       -18.8609
  37   2.0000      -0.655152       -17.8276
  38   2.0000      -0.634503       -17.2657
  39   2.0000      -0.617673       -16.8077
  40   2.0000      -0.593201       -16.1418
  41   2.0000      -0.572127       -15.5684
  42   2.0000      -0.569244       -15.4899
  43   2.0000      -0.560401       -15.2493
  44   2.0000      -0.528924       -14.3927
  45   2.0000      -0.521450       -14.1894
  46   2.0000      -0.518064       -14.0972
  47   2.0000      -0.513303       -13.9677
  48   2.0000      -0.506433       -13.7807
  49   2.0000      -0.498856       -13.5746
  50   2.0000      -0.494701       -13.4615
  51   2.0000      -0.479235       -13.0406
  52   2.0000      -0.469691       -12.7810
  53   2.0000      -0.466456       -12.6929
  54   2.0000      -0.459201       -12.4955
  55   2.0000      -0.452327       -12.3084
  56   2.0000      -0.443572       -12.0702
  57   2.0000      -0.436295       -11.8722
  58   2.0000      -0.431900       -11.7526
  59   2.0000      -0.426075       -11.5941
  60   2.0000      -0.422238       -11.4897
  61   2.0000      -0.414148       -11.2695
  62   2.0000      -0.411838       -11.2067
  63   2.0000      -0.348193        -9.4748
  64   2.0000      -0.333488        -9.0747
  65   2.0000      -0.327843        -8.9211
  66   2.0000      -0.293017        -7.9734
  67   0.0000       0.027985         0.7615
  68   0.0000       0.065655         1.7866
  69   0.0000       0.109818         2.9883
  70   0.0000       0.119999         3.2653
  71   0.0000       0.124186         3.3793

MULLIKEN ATOMIC CHARGES
-----------------------
   0 S :    0.096116
   1 C :   -0.115641
   2 C :   -0.114097
   3 C :    0.017378
   4 C :   -0.137331
   5 H :    0.024559
   6 C :    0.093659
   7 H :    0.008396
   8 H :    0.012737
   9 C :   -0.078484
  10 H :    0.032262
  11 H :    0.027542
  12 C :   -0.044130
  13 H :    0.045899
  14 H :    0.026415
  15 H :    0.033450
  16 S :    0.105597
  17 C :   -0.097307
  18 C :   -0.056017
  19 C :    0.000054
  20 C :   -0.176700
  21 H :    0.028275
  22 C :    0.051951
  23 H :    0.040241
  24 H :    0.047802
  25 C :   -0.129920
  26 H :    0.022948
  27 H :    0.037474
  28 C :    0.016585
  29 H :    0.012129
  30 H :    0.017315
  31 H :    0.031211
  32 H :    0.050299
  33 H :    0.069333
Sum of atomic charges:    0.0000000

LOEWDIN ATOMIC CHARGES
----------------------
   0 S :    0.377754
   1 C :   -0.181221
   2 C :   -0.064764
   3 C :   -0.069408
   4 C :   -0.193449
   5 H :    0.033355
   6 C :   -0.033448
   7 H :    0.030571
   8 H :    0.022996
   9 C :   -0.039661
  10 H :    0.026742
  11 H :    0.023217
  12 C :   -0.062939
  13 H :    0.026084
  14 H :    0.026792
  15 H :    0.027988
  16 S :    0.394681
  17 C :   -0.190228
  18 C :   -0.075338
  19 C :   -0.052831
  20 C :   -0.180032
  21 H :    0.033721
  22 C :   -0.036880
  23 H :    0.035467
  24 H :    0.041445
  25 C :   -0.045051
  26 H :    0.018366
  27 H :    0.028679
  28 C :   -0.053209
  29 H :    0.013329
  30 H :    0.018193
  31 H :    0.031280
  32 H :    0.028624
  33 H :    0.039175

  Mayer bond orders larger than 0.100000
B(  0-S ,  1-C ) :   1.1152 B(  0-S ,  4-C ) :   1.1357 B(  1-C ,  2-C ) :   1.6464
B(  1-C , 32-H ) :   0.9670 B(  2-C ,  3-C ) :   1.2407 B(  2-C ,  6-C ) :   1.0224
B(  3-C ,  4-C ) :   1.5764 B(  3-C ,  5-H ) :   0.9815 B(  4-C , 20-C ) :   1.0401
B(  6-C ,  7-H ) :   0.9331 B(  6-C ,  8-H ) :   0.9352 B(  6-C ,  9-C ) :   1.0592
B(  9-C , 10-H ) :   0.9562 B(  9-C , 11-H ) :   0.9572 B(  9-C , 12-C ) :   1.0789
B( 12-C , 13-H ) :   0.9762 B( 12-C , 14-H ) :   0.9749 B( 12-C , 15-H ) :   0.9728
B( 16-S , 17-C ) :   1.1398 B( 16-S , 20-C ) :   1.1469 B( 17-C , 18-C ) :   1.6328
B( 17-C , 20-C ) :   0.1016 B( 17-C , 33-H ) :   0.9624 B( 18-C , 19-C ) :   1.2256
B( 18-C , 21-H ) :   0.9778 B( 19-C , 20-C ) :   1.5876 B( 19-C , 22-C ) :   1.0419
B( 22-C , 23-H ) :   0.9331 B( 22-C , 24-H ) :   0.9341 B( 22-C , 25-C ) :   1.0554
B( 25-C , 26-H ) :   0.9591 B( 25-C , 27-H ) :   0.9569 B( 25-C , 28-C ) :   1.0810
B( 28-C , 29-H ) :   0.9756 B( 28-C , 30-H ) :   0.9726 B( 28-C , 31-H ) :   0.9747

Dispersion correction           -0.013347740
FINAL SINGLE POINT ENERGY     -1339.879325127756

DIPOLE MOMENT
-------------
                                X             Y             Z
Electronic contribution:     17.63777      20.78963      17.14865
Nuclear contribution   :    -18.19706     -21.19446     -17.54018
                        -----------------------------------------
Total Dipole Moment    :     -0.55929      -0.40483      -0.39154
                        -----------------------------------------
Magnitude (a.u.)       :      0.79372
Magnitude (Debye)      :      2.01747

Rotational constants in cm-1:     0.016649     0.008373     0.005939
Rotational constants in MHz :   499.116253   251.021568   178.060239

                             ****ORCA TERMINATED NORMALLY****
TOTAL RUN TIME: 0 days 0 hours 0 minutes 20 seconds 654 msec
