                         Program Version 4.2.1 -  RELEASE  -
|  1> ! wB97X-D3 SP def2-SVP
|  2> %pal
|  3> nprocs 24
|  4> end
|  5>
|  6> * xyz 0 1
|  7> S 	 -36.9561 	 -10.0272 	 6.41504
|  8> C 	 -36.0422 	 -10.0558 	 7.92842
|  9> C 	 -35.6084 	 -8.8466 	 8.40918
| 10> C 	 -36.0534 	 -7.81177 	 7.48409
| 11> C 	 -36.7698 	 -8.25956 	 6.38473
| 12> H 	 -35.8719 	 -6.74314 	 7.61943
| 13> C 	 -34.7887 	 -8.50001 	 9.65503
| 14> H 	 -34.5554 	 -7.40943 	 9.73566
| 15> H 	 -33.8192 	 -8.98262 	 9.56067
| 16> C 	 -35.403 	 -9.10356 	 10.8754
| 17> H 	 -35.3245 	 -10.1273 	 10.7549
| 18> H 	 -34.8096 	 -8.79732 	 11.7686
| 19> C 	 -36.8317 	 -8.64161 	 11.25
| 20> H 	 -37.5373 	 -9.10676 	 10.5309
| 21> H 	 -37.069 	 -9.2372 	 12.088
| 22> H 	 -36.8447 	 -7.532 	 11.4306
| 23> S 	 -39.1431 	 -8.01704 	 4.90713
| 24> C 	 -39.1849 	 -6.79446 	 3.65978
| 25> C 	 -38.0329 	 -6.07761 	 3.53487
| 26> C 	 -37.0404 	 -6.52795 	 4.51541
| 27> C 	 -37.497 	 -7.5335 	 5.32242
| 28> H 	 -37.9093 	 -5.36859 	 2.76356
| 29> C 	 -35.6186 	 -5.93921 	 4.58633
| 30> H 	 -35.5639 	 -5.50458 	 5.57679
| 31> H 	 -35.543 	 -5.08663 	 3.95167
| 32> C 	 -34.5199 	 -6.94258 	 4.30448
| 33> H 	 -34.5508 	 -7.18823 	 3.18533
| 34> H 	 -34.8131 	 -7.88936 	 4.85614
| 35> C 	 -33.1429 	 -6.32419 	 4.59209
| 36> H 	 -33.1663 	 -5.37434 	 4.12576
| 37> H 	 -32.2353 	 -6.82651 	 4.1599
| 38> H 	 -32.9012 	 -6.37861 	 5.60953
| 39> H 	 -35.9838 	 -11.087 	 8.42734
| 40> H 	 -40.0418 	 -6.40097 	 3.04273
| 41> *
| 42>
| 43>                          ****END OF INPUT****

CARTESIAN COORDINATES (ANGSTROEM)
---------------------------------
  S    -36.956100  -10.027200    6.415040
  C    -36.042200  -10.055800    7.928420
  C    -35.608400   -8.846600    8.409180
  C    -36.053400   -7.811770    7.484090
  C    -36.769800   -8.259560    6.384730
  H    -35.871900   -6.743140    7.619430
  C    -34.788700   -8.500010    9.655030
  H    -34.555400   -7.409430    9.735660
  H    -33.819200   -8.982620    9.560670
  C    -35.403000   -9.103560   10.875400
  H    -35.324500  -10.127300   10.754900
  H    -34.809600   -8.797320   11.768600
  C    -36.831700   -8.641610   11.250000
  H    -37.537300   -9.106760   10.530900
  H    -37.069000   -9.237200   12.088000
  H    -36.844700   -7.532000   11.430600
  S    -39.143100   -8.017040    4.907130
  C    -39.184900   -6.794460    3.659780
  C    -38.032900   -6.077610    3.534870
  C    -37.040400   -6.527950    4.515410
  C    -37.497000   -7.533500    5.322420
  H    -37.909300   -5.368590    2.763560
  C    -35.618600   -5.939210    4.586330
  H    -35.563900   -5.504580    5.576790
  H    -35.543000   -5.086630    3.951670
  C    -34.519900   -6.942580    4.304480
  H    -34.550800   -7.188230    3.185330
  H    -34.813100   -7.889360    4.856140
  C    -33.142900   -6.324190    4.592090
  H    -33.166300   -5.374340    4.125760
  H    -32.235300   -6.826510    4.159900
  H    -32.901200   -6.378610    5.609530
  H    -35.983800  -11.087000    8.427340
  H    -40.041800   -6.400970    3.042730

 Total Charge           Charge          ....    0
 Multiplicity           Mult            ....    1
 Number of Electrons    NEL             ....  134
 Basis Dimension        Dim             ....  322

ORBITAL ENERGIES
----------------

  NO   OCC          E(Eh)            E(eV)
   0   2.0000     -88.967939     -2420.9407
   1   2.0000     -88.966194     -2420.8932
   2   2.0000     -10.333358      -281.1850
   3   2.0000     -10.324887      -280.9545
   4   2.0000     -10.321781      -280.8699
   5   2.0000     -10.317852      -280.7630
   6   2.0000     -10.307945      -280.4934
   7   2.0000     -10.302652      -280.3494
   8   2.0000     -10.298982      -280.2495
   9   2.0000     -10.296355      -280.1781
  10   2.0000     -10.291180      -280.0372
  11   2.0000     -10.287599      -279.9398
  12   2.0000     -10.285687      -279.8878
  13   2.0000     -10.280972      -279.7595
  14   2.0000     -10.276869      -279.6478
  15   2.0000     -10.271207      -279.4937
  16   2.0000      -8.082236      -219.9288
  17   2.0000      -8.080438      -219.8799
  18   2.0000      -6.040903      -164.3813
  19   2.0000      -6.038944      -164.3280
  20   2.0000      -6.036878      -164.2718
  21   2.0000      -6.035169      -164.2253
  22   2.0000      -6.032781      -164.1603
  23   2.0000      -6.031076      -164.1139
  24   2.0000      -1.002662       -27.2838
  25   2.0000      -0.979900       -26.6644
  26   2.0000      -0.917411       -24.9640
  27   2.0000      -0.907658       -24.6986
  28   2.0000      -0.865527       -23.5522
  29   2.0000      -0.848242       -23.0819
  30   2.0000      -0.842214       -22.9178
  31   2.0000      -0.812954       -22.1216
  32   2.0000      -0.787986       -21.4422
  33   2.0000      -0.772105       -21.0100
  34   2.0000      -0.702263       -19.1095
  35   2.0000      -0.698153       -18.9977
  36   2.0000      -0.682592       -18.5743
  37   2.0000      -0.661225       -17.9929
  38   2.0000      -0.634425       -17.2636
  39   2.0000      -0.612203       -16.6589
  40   2.0000      -0.591592       -16.0980
  41   2.0000      -0.582403       -15.8480
  42   2.0000      -0.564740       -15.3674
  43   2.0000      -0.555140       -15.1061
  44   2.0000      -0.540003       -14.6942
  45   2.0000      -0.520553       -14.1650
  46   2.0000      -0.514087       -13.9890
  47   2.0000      -0.507682       -13.8147
  48   2.0000      -0.498387       -13.5618
  49   2.0000      -0.492576       -13.4037
  50   2.0000      -0.488451       -13.2914
  51   2.0000      -0.480382       -13.0718
  52   2.0000      -0.476019       -12.9531
  53   2.0000      -0.465925       -12.6785
  54   2.0000      -0.452743       -12.3198
  55   2.0000      -0.449296       -12.2260
  56   2.0000      -0.442682       -12.0460
  57   2.0000      -0.435604       -11.8534
  58   2.0000      -0.431570       -11.7436
  59   2.0000      -0.421614       -11.4727
  60   2.0000      -0.420596       -11.4450
  61   2.0000      -0.408466       -11.1149
  62   2.0000      -0.407079       -11.0772
  63   2.0000      -0.348247        -9.4763
  64   2.0000      -0.332698        -9.0532
  65   2.0000      -0.330961        -9.0059
  66   2.0000      -0.291934        -7.9439
  67   0.0000       0.030997         0.8435
  68   0.0000       0.069598         1.8939
  69   0.0000       0.100871         2.7448
  70   0.0000       0.121392         3.3032
  71   0.0000       0.135489         3.6868

MULLIKEN ATOMIC CHARGES
-----------------------
   0 S :    0.096775
   1 C :   -0.181514
   2 C :   -0.064364
   3 C :    0.014729
   4 C :   -0.179137
   5 H :    0.014417
   6 C :    0.109499
   7 H :    0.027763
   8 H :    0.036870
   9 C :   -0.115974
  10 H :    0.014215
  11 H :    0.030010
  12 C :   -0.028249
  13 H :    0.039058
  14 H :    0.017126
  15 H :    0.053631
  16 S :    0.116727
  17 C :   -0.094733
  18 C :   -0.024336
  19 C :   -0.061630
  20 C :   -0.139865
  21 H :    0.004705
  22 C :    0.099329
  23 H :    0.020220
  24 H :   -0.001809
  25 C :   -0.113323
  26 H :    0.036433
  27 H :    0.065661
  28 C :   -0.013404
  29 H :    0.023515
  30 H :    0.028949
  31 H :    0.023582
  32 H :    0.074821
  33 H :    0.070305
Sum of atomic charges:    0.0000000

LOEWDIN ATOMIC CHARGES
----------------------
   0 S :    0.380309
   1 C :   -0.200768
   2 C :   -0.058352
   3 C :   -0.062507
   4 C :   -0.180172
   5 H :    0.030766
   6 C :   -0.031029
   7 H :    0.032764
   8 H :    0.038054
   9 C :   -0.042260
  10 H :    0.012439
  11 H :    0.027651
  12 C :   -0.067317
  13 H :    0.031513
  14 H :    0.021216
  15 H :    0.035427
  16 S :    0.396440
  17 C :   -0.194208
  18 C :   -0.068271
  19 C :   -0.047484
  20 C :   -0.203513
  21 H :    0.025466
  22 C :   -0.032224
  23 H :    0.027681
  24 H :    0.020728
  25 C :   -0.046530
  26 H :    0.031199
  27 H :    0.033551
  28 C :   -0.064146
  29 H :    0.021619
  30 H :    0.031827
  31 H :    0.018540
  32 H :    0.035689
  33 H :    0.045904

  Mayer bond orders larger than 0.100000
B(  0-S ,  1-C ) :   1.1324 B(  0-S ,  4-C ) :   1.1293 B(  1-C ,  2-C ) :   1.6363
B(  1-C , 32-H ) :   0.9540 B(  2-C ,  3-C ) :   1.2143 B(  2-C ,  6-C ) :   1.0012
B(  3-C ,  4-C ) :   1.6119 B(  3-C ,  5-H ) :   0.9889 B(  4-C , 20-C ) :   1.0336
B(  6-C ,  7-H ) :   0.9452 B(  6-C ,  8-H ) :   0.9321 B(  6-C ,  9-C ) :   1.0766
B(  9-C , 10-H ) :   0.9556 B(  9-C , 11-H ) :   0.9558 B(  9-C , 12-C ) :   1.0855
B( 12-C , 13-H ) :   0.9680 B( 12-C , 14-H ) :   0.9696 B( 12-C , 15-H ) :   0.9747
B( 16-S , 17-C ) :   1.1362 B( 16-S , 20-C ) :   1.1151 B( 17-C , 18-C ) :   1.6615
B( 17-C , 33-H ) :   0.9513 B( 18-C , 19-C ) :   1.2159 B( 18-C , 21-H ) :   0.9938
B( 19-C , 20-C ) :   1.6398 B( 19-C , 22-C ) :   1.0275 B( 22-C , 23-H ) :   0.9331
B( 22-C , 24-H ) :   0.9250 B( 22-C , 25-C ) :   1.0535 B( 25-C , 26-H ) :   0.9516
B( 25-C , 27-H ) :   0.9593 B( 25-C , 28-C ) :   1.0688 B( 28-C , 29-H ) :   0.9706
B( 28-C , 30-H ) :   0.9737 B( 28-C , 31-H ) :   0.9772

Dispersion correction           -0.014857082
FINAL SINGLE POINT ENERGY     -1339.868789560512

DIPOLE MOMENT
-------------
                                X             Y             Z
Electronic contribution:    -18.80095      -8.14584     -12.78639
Nuclear contribution   :     19.23023       8.51557      13.05943
                        -----------------------------------------
Total Dipole Moment    :      0.42929       0.36973       0.27303
                        -----------------------------------------
Magnitude (a.u.)       :      0.62892
Magnitude (Debye)      :      1.59858

Rotational constants in cm-1:     0.019234     0.008960     0.007169
Rotational constants in MHz :   576.616222   268.622910   214.929458

                             ****ORCA TERMINATED NORMALLY****
TOTAL RUN TIME: 0 days 0 hours 0 minutes 22 seconds 89 msec
