                         Program Version 4.2.1 -  RELEASE  -
|  1> ! wB97X-D3 SP def2-SVP
|  2> %pal
|  3> nprocs 24
|  4> end
|  5>
|  6> * xyz 0 1
|  7> S 	 -83.5981 	 0.320335 	 -118.45
|  8> C 	 -83.7678 	 -1.36835 	 -118.111
|  9> C 	 -85.078 	 -1.75239 	 -117.951
| 10> C 	 -85.946 	 -0.635625 	 -118.351
| 11> C 	 -85.3445 	 0.577353 	 -118.482
| 12> H 	 -87.0214 	 -0.74155 	 -118.426
| 13> C 	 -85.5814 	 -3.0645 	 -117.545
| 14> H 	 -84.9527 	 -3.77012 	 -117.979
| 15> H 	 -86.5559 	 -3.34786 	 -117.963
| 16> C 	 -85.5055 	 -3.43106 	 -116.068
| 17> H 	 -85.8778 	 -4.40657 	 -115.962
| 18> H 	 -84.5236 	 -3.63214 	 -115.706
| 19> C 	 -86.1257 	 -2.48621 	 -114.986
| 20> H 	 -87.2093 	 -2.319 	 -115.007
| 21> H 	 -85.9827 	 -2.90368 	 -113.903
| 22> H 	 -85.5281 	 -1.48959 	 -114.952
| 23> S 	 -85.5126 	 2.97377 	 -119.932
| 24> C 	 -86.6677 	 4.18041 	 -119.379
| 25> C 	 -87.2989 	 3.75115 	 -118.19
| 26> C 	 -87.003 	 2.44879 	 -117.807
| 27> C 	 -86.0262 	 1.86108 	 -118.655
| 28> H 	 -88.1167 	 4.34101 	 -117.73
| 29> C 	 -87.7053 	 1.91167 	 -116.603
| 30> H 	 -87.4869 	 2.65866 	 -115.822
| 31> H 	 -87.151 	 0.965975 	 -116.334
| 32> C 	 -89.2386 	 1.54431 	 -116.658
| 33> H 	 -89.6095 	 0.676598 	 -117.216
| 34> H 	 -89.5829 	 2.44001 	 -117.095
| 35> C 	 -89.8542 	 1.44375 	 -115.261
| 36> H 	 -89.9715 	 2.33668 	 -114.695
| 37> H 	 -89.4438 	 0.714704 	 -114.587
| 38> H 	 -90.8585 	 1.11513 	 -115.481
| 39> H 	 -82.9858 	 -1.97283 	 -117.667
| 40> H 	 -86.9473 	 4.99332 	 -120.042
| 41> *
| 42>
| 43>                          ****END OF INPUT****

CARTESIAN COORDINATES (ANGSTROEM)
---------------------------------
  S    -83.598100    0.320335  -118.450000
  C    -83.767800   -1.368350  -118.111000
  C    -85.078000   -1.752390  -117.951000
  C    -85.946000   -0.635625  -118.351000
  C    -85.344500    0.577353  -118.482000
  H    -87.021400   -0.741550  -118.426000
  C    -85.581400   -3.064500  -117.545000
  H    -84.952700   -3.770120  -117.979000
  H    -86.555900   -3.347860  -117.963000
  C    -85.505500   -3.431060  -116.068000
  H    -85.877800   -4.406570  -115.962000
  H    -84.523600   -3.632140  -115.706000
  C    -86.125700   -2.486210  -114.986000
  H    -87.209300   -2.319000  -115.007000
  H    -85.982700   -2.903680  -113.903000
  H    -85.528100   -1.489590  -114.952000
  S    -85.512600    2.973770  -119.932000
  C    -86.667700    4.180410  -119.379000
  C    -87.298900    3.751150  -118.190000
  C    -87.003000    2.448790  -117.807000
  C    -86.026200    1.861080  -118.655000
  H    -88.116700    4.341010  -117.730000
  C    -87.705300    1.911670  -116.603000
  H    -87.486900    2.658660  -115.822000
  H    -87.151000    0.965975  -116.334000
  C    -89.238600    1.544310  -116.658000
  H    -89.609500    0.676598  -117.216000
  H    -89.582900    2.440010  -117.095000
  C    -89.854200    1.443750  -115.261000
  H    -89.971500    2.336680  -114.695000
  H    -89.443800    0.714704  -114.587000
  H    -90.858500    1.115130  -115.481000
  H    -82.985800   -1.972830  -117.667000
  H    -86.947300    4.993320  -120.042000

 Total Charge           Charge          ....    0
 Multiplicity           Mult            ....    1
 Number of Electrons    NEL             ....  134
 Basis Dimension        Dim             ....  322

ORBITAL ENERGIES
----------------

  NO   OCC          E(Eh)            E(eV)
   0   2.0000     -88.969560     -2420.9848
   1   2.0000     -88.962334     -2420.7882
   2   2.0000     -10.332341      -281.1573
   3   2.0000     -10.327310      -281.0204
   4   2.0000     -10.323600      -280.9194
   5   2.0000     -10.308877      -280.5188
   6   2.0000     -10.302997      -280.3588
   7   2.0000     -10.299293      -280.2580
   8   2.0000     -10.296736      -280.1884
   9   2.0000     -10.295147      -280.1452
  10   2.0000     -10.292954      -280.0855
  11   2.0000     -10.290959      -280.0312
  12   2.0000     -10.290167      -280.0097
  13   2.0000     -10.287063      -279.9252
  14   2.0000     -10.284557      -279.8570
  15   2.0000     -10.273091      -279.5450
  16   2.0000      -8.083695      -219.9685
  17   2.0000      -8.077279      -219.7939
  18   2.0000      -6.042055      -164.4127
  19   2.0000      -6.038236      -164.3088
  20   2.0000      -6.035990      -164.2476
  21   2.0000      -6.034710      -164.2128
  22   2.0000      -6.031776      -164.1330
  23   2.0000      -6.027781      -164.0243
  24   2.0000      -1.003318       -27.3017
  25   2.0000      -0.983089       -26.7512
  26   2.0000      -0.915843       -24.9214
  27   2.0000      -0.908245       -24.7146
  28   2.0000      -0.866030       -23.5659
  29   2.0000      -0.859516       -23.3886
  30   2.0000      -0.841680       -22.9033
  31   2.0000      -0.810802       -22.0631
  32   2.0000      -0.784210       -21.3395
  33   2.0000      -0.772610       -21.0238
  34   2.0000      -0.709115       -19.2960
  35   2.0000      -0.706515       -19.2253
  36   2.0000      -0.694641       -18.9021
  37   2.0000      -0.661364       -17.9966
  38   2.0000      -0.637208       -17.3393
  39   2.0000      -0.614445       -16.7199
  40   2.0000      -0.595260       -16.1978
  41   2.0000      -0.574869       -15.6430
  42   2.0000      -0.567548       -15.4438
  43   2.0000      -0.549515       -14.9531
  44   2.0000      -0.539626       -14.6840
  45   2.0000      -0.525590       -14.3020
  46   2.0000      -0.518491       -14.1088
  47   2.0000      -0.508249       -13.8302
  48   2.0000      -0.506885       -13.7930
  49   2.0000      -0.496786       -13.5182
  50   2.0000      -0.494156       -13.4467
  51   2.0000      -0.477872       -13.0035
  52   2.0000      -0.469047       -12.7634
  53   2.0000      -0.461423       -12.5560
  54   2.0000      -0.454713       -12.3734
  55   2.0000      -0.449121       -12.2212
  56   2.0000      -0.442534       -12.0420
  57   2.0000      -0.436108       -11.8671
  58   2.0000      -0.433064       -11.7843
  59   2.0000      -0.425483       -11.5780
  60   2.0000      -0.421214       -11.4618
  61   2.0000      -0.415502       -11.3064
  62   2.0000      -0.408671       -11.1205
  63   2.0000      -0.346990        -9.4421
  64   2.0000      -0.334843        -9.1115
  65   2.0000      -0.323711        -8.8086
  66   2.0000      -0.288964        -7.8631
  67   0.0000       0.028292         0.7699
  68   0.0000       0.063966         1.7406
  69   0.0000       0.113041         3.0760
  70   0.0000       0.117911         3.2085
  71   0.0000       0.127983         3.4826

MULLIKEN ATOMIC CHARGES
-----------------------
   0 S :    0.103742
   1 C :   -0.098269
   2 C :   -0.126151
   3 C :    0.021926
   4 C :   -0.134088
   5 H :    0.006525
   6 C :    0.119201
   7 H :    0.007246
   8 H :    0.025284
   9 C :   -0.032960
  10 H :    0.007762
  11 H :    0.009400
  12 C :   -0.124514
  13 H :    0.039587
  14 H :    0.037459
  15 H :    0.061702
  16 S :    0.111192
  17 C :   -0.111122
  18 C :   -0.045154
  19 C :   -0.013894
  20 C :   -0.170925
  21 H :    0.036351
  22 C :    0.017820
  23 H :    0.042219
  24 H :    0.032994
  25 C :   -0.030389
  26 H :    0.044116
  27 H :    0.006309
  28 C :   -0.043309
  29 H :    0.024791
  30 H :    0.030751
  31 H :    0.021036
  32 H :    0.051627
  33 H :    0.071740
Sum of atomic charges:   -0.0000000

LOEWDIN ATOMIC CHARGES
----------------------
   0 S :    0.397261
   1 C :   -0.205520
   2 C :   -0.059690
   3 C :   -0.061850
   4 C :   -0.190581
   5 H :    0.026959
   6 C :   -0.033926
   7 H :    0.032595
   8 H :    0.036140
   9 C :   -0.039278
  10 H :    0.020205
  11 H :    0.021915
  12 C :   -0.086243
  13 H :    0.020073
  14 H :    0.035062
  15 H :    0.037436
  16 S :    0.405036
  17 C :   -0.183019
  18 C :   -0.073882
  19 C :   -0.058030
  20 C :   -0.195625
  21 H :    0.036063
  22 C :   -0.039327
  23 H :    0.039830
  24 H :    0.033191
  25 C :   -0.030200
  26 H :    0.030851
  27 H :    0.017086
  28 C :   -0.063051
  29 H :    0.020312
  30 H :    0.022675
  31 H :    0.027626
  32 H :    0.029783
  33 H :    0.030119

  Mayer bond orders larger than 0.100000
B(  0-S ,  1-C ) :   1.1312 B(  0-S ,  4-C ) :   1.1277 B(  1-C ,  2-C ) :   1.6453
B(  1-C , 32-H ) :   0.9549 B(  2-C ,  3-C ) :   1.2049 B(  2-C ,  6-C ) :   1.0385
B(  3-C ,  4-C ) :   1.6022 B(  3-C ,  5-H ) :   0.9955 B(  4-C , 20-C ) :   1.0486
B(  6-C ,  7-H ) :   0.9188 B(  6-C ,  8-H ) :   0.9414 B(  6-C ,  9-C ) :   1.0794
B(  9-C , 10-H ) :   0.9480 B(  9-C , 11-H ) :   0.9511 B(  9-C , 12-C ) :   1.0690
B( 12-C , 13-H ) :   0.9783 B( 12-C , 14-H ) :   0.9725 B( 12-C , 15-H ) :   0.9710
B( 16-S , 17-C ) :   1.1729 B( 16-S , 20-C ) :   1.1547 B( 17-C , 18-C ) :   1.5493
B( 17-C , 20-C ) :   0.1168 B( 17-C , 33-H ) :   0.9692 B( 18-C , 19-C ) :   1.2970
B( 18-C , 21-H ) :   0.9790 B( 19-C , 20-C ) :   1.5359 B( 19-C , 22-C ) :   1.0432
B( 22-C , 23-H ) :   0.9423 B( 22-C , 24-H ) :   0.9215 B( 22-C , 25-C ) :   1.0464
B( 25-C , 26-H ) :   0.9625 B( 25-C , 27-H ) :   0.9530 B( 25-C , 28-C ) :   1.0823
B( 28-C , 29-H ) :   0.9756 B( 28-C , 30-H ) :   0.9763 B( 28-C , 31-H ) :   0.9735

Dispersion correction           -0.014502828
FINAL SINGLE POINT ENERGY     -1339.856581841690

DIPOLE MOMENT
-------------
                                X             Y             Z
Electronic contribution:     18.86648      14.65203     -22.20291
Nuclear contribution   :    -19.52340     -14.99170      22.66016
                        -----------------------------------------
Total Dipole Moment    :     -0.65692      -0.33968       0.45725
                        -----------------------------------------
Magnitude (a.u.)       :      0.86949
Magnitude (Debye)      :      2.21006

Rotational constants in cm-1:     0.016204     0.010281     0.006709
Rotational constants in MHz :   485.773070   308.222440   201.126564

                             ****ORCA TERMINATED NORMALLY****
TOTAL RUN TIME: 0 days 0 hours 0 minutes 21 seconds 940 msec
