                         Program Version 4.2.1 -  RELEASE  -
|  1> ! wB97X-D3 SP def2-SVP
|  2> %pal
|  3> nprocs 24
|  4> end
|  5>
|  6> * xyz 0 1
|  7> S 	 -33.4337 	 -29.4229 	 -98.5668
|  8> C 	 -32.257 	 -29.2668 	 -99.85
|  9> C 	 -32.4832 	 -30.1022 	 -100.92
| 10> C 	 -33.6781 	 -30.8782 	 -100.667
| 11> C 	 -34.3484 	 -30.6488 	 -99.4662
| 12> H 	 -33.9488 	 -31.7378 	 -101.274
| 13> C 	 -31.6572 	 -30.1262 	 -102.155
| 14> H 	 -31.3149 	 -31.1147 	 -102.239
| 15> H 	 -30.7466 	 -29.5295 	 -102.043
| 16> C 	 -32.3561 	 -29.4382 	 -103.292
| 17> H 	 -33.1361 	 -30.0136 	 -103.722
| 18> H 	 -32.7976 	 -28.4919 	 -102.943
| 19> C 	 -31.4081 	 -29.0409 	 -104.53
| 20> H 	 -31.9511 	 -28.4996 	 -105.273
| 21> H 	 -30.6181 	 -28.3846 	 -104.104
| 22> H 	 -30.8888 	 -29.8851 	 -105.026
| 23> S 	 -36.8519 	 -30.3211 	 -98.2521
| 24> C 	 -37.8974 	 -31.6899 	 -98.0625
| 25> C 	 -37.4175 	 -32.7991 	 -98.7253
| 26> C 	 -36.0815 	 -32.5981 	 -99.1778
| 27> C 	 -35.561 	 -31.3083 	 -99.013
| 28> H 	 -38.0503 	 -33.6695 	 -98.7924
| 29> C 	 -35.309 	 -33.7142 	 -99.8749
| 30> H 	 -34.2735 	 -33.4796 	 -100.01
| 31> H 	 -35.7954 	 -33.9674 	 -100.776
| 32> C 	 -35.2504 	 -35.0337 	 -99.0548
| 33> H 	 -36.2594 	 -35.4136 	 -98.7842
| 34> H 	 -34.7237 	 -34.8698 	 -98.1482
| 35> C 	 -34.4361 	 -36.1214 	 -99.846
| 36> H 	 -33.4018 	 -35.737 	 -99.8806
| 37> H 	 -34.869 	 -36.2101 	 -100.845
| 38> H 	 -34.3679 	 -37.0627 	 -99.3548
| 39> H 	 -31.3077 	 -28.6656 	 -99.8715
| 40> H 	 -38.8243 	 -31.7585 	 -97.4808
| 41> *
| 42>
| 43>                          ****END OF INPUT****

CARTESIAN COORDINATES (ANGSTROEM)
---------------------------------
  S    -33.433700  -29.422900  -98.566800
  C    -32.257000  -29.266800  -99.850000
  C    -32.483200  -30.102200  -100.920000
  C    -33.678100  -30.878200  -100.667000
  C    -34.348400  -30.648800  -99.466200
  H    -33.948800  -31.737800  -101.274000
  C    -31.657200  -30.126200  -102.155000
  H    -31.314900  -31.114700  -102.239000
  H    -30.746600  -29.529500  -102.043000
  C    -32.356100  -29.438200  -103.292000
  H    -33.136100  -30.013600  -103.722000
  H    -32.797600  -28.491900  -102.943000
  C    -31.408100  -29.040900  -104.530000
  H    -31.951100  -28.499600  -105.273000
  H    -30.618100  -28.384600  -104.104000
  H    -30.888800  -29.885100  -105.026000
  S    -36.851900  -30.321100  -98.252100
  C    -37.897400  -31.689900  -98.062500
  C    -37.417500  -32.799100  -98.725300
  C    -36.081500  -32.598100  -99.177800
  C    -35.561000  -31.308300  -99.013000
  H    -38.050300  -33.669500  -98.792400
  C    -35.309000  -33.714200  -99.874900
  H    -34.273500  -33.479600  -100.010000
  H    -35.795400  -33.967400  -100.776000
  C    -35.250400  -35.033700  -99.054800
  H    -36.259400  -35.413600  -98.784200
  H    -34.723700  -34.869800  -98.148200
  C    -34.436100  -36.121400  -99.846000
  H    -33.401800  -35.737000  -99.880600
  H    -34.869000  -36.210100  -100.845000
  H    -34.367900  -37.062700  -99.354800
  H    -31.307700  -28.665600  -99.871500
  H    -38.824300  -31.758500  -97.480800

 Total Charge           Charge          ....    0
 Multiplicity           Mult            ....    1
 Number of Electrons    NEL             ....  134
 Basis Dimension        Dim             ....  322

ORBITAL ENERGIES
----------------

  NO   OCC          E(Eh)            E(eV)
   0   2.0000     -88.969202     -2420.9751
   1   2.0000     -88.964117     -2420.8367
   2   2.0000     -10.335436      -281.2415
   3   2.0000     -10.332456      -281.1604
   4   2.0000     -10.318569      -280.7825
   5   2.0000     -10.317068      -280.7417
   6   2.0000     -10.307286      -280.4755
   7   2.0000     -10.299884      -280.2741
   8   2.0000     -10.297315      -280.2042
   9   2.0000     -10.293730      -280.1066
  10   2.0000     -10.289405      -279.9889
  11   2.0000     -10.288763      -279.9715
  12   2.0000     -10.286889      -279.9205
  13   2.0000     -10.284869      -279.8655
  14   2.0000     -10.284289      -279.8497
  15   2.0000     -10.278768      -279.6995
  16   2.0000      -8.083219      -219.9556
  17   2.0000      -8.078563      -219.8289
  18   2.0000      -6.041876      -164.4078
  19   2.0000      -6.037783      -164.2964
  20   2.0000      -6.037129      -164.2786
  21   2.0000      -6.033895      -164.1906
  22   2.0000      -6.033099      -164.1690
  23   2.0000      -6.029283      -164.0651
  24   2.0000      -1.002989       -27.2927
  25   2.0000      -0.983425       -26.7604
  26   2.0000      -0.917530       -24.9673
  27   2.0000      -0.906973       -24.6800
  28   2.0000      -0.869546       -23.6616
  29   2.0000      -0.847911       -23.0728
  30   2.0000      -0.841359       -22.8945
  31   2.0000      -0.813920       -22.1479
  32   2.0000      -0.783550       -21.3215
  33   2.0000      -0.771216       -20.9859
  34   2.0000      -0.710870       -19.3438
  35   2.0000      -0.700119       -19.0512
  36   2.0000      -0.696396       -18.9499
  37   2.0000      -0.657938       -17.9034
  38   2.0000      -0.637243       -17.3403
  39   2.0000      -0.621973       -16.9247
  40   2.0000      -0.596360       -16.2278
  41   2.0000      -0.573497       -15.6056
  42   2.0000      -0.572804       -15.5868
  43   2.0000      -0.567122       -15.4322
  44   2.0000      -0.528517       -14.3817
  45   2.0000      -0.521769       -14.1981
  46   2.0000      -0.518878       -14.1194
  47   2.0000      -0.513666       -13.9776
  48   2.0000      -0.506244       -13.7756
  49   2.0000      -0.499584       -13.5944
  50   2.0000      -0.491160       -13.3651
  51   2.0000      -0.478610       -13.0236
  52   2.0000      -0.467304       -12.7160
  53   2.0000      -0.464197       -12.6314
  54   2.0000      -0.455925       -12.4064
  55   2.0000      -0.451043       -12.2735
  56   2.0000      -0.445807       -12.1310
  57   2.0000      -0.441246       -12.0069
  58   2.0000      -0.433429       -11.7942
  59   2.0000      -0.424735       -11.5576
  60   2.0000      -0.420254       -11.4357
  61   2.0000      -0.419579       -11.4173
  62   2.0000      -0.411732       -11.2038
  63   2.0000      -0.352647        -9.5960
  64   2.0000      -0.330668        -8.9979
  65   2.0000      -0.329825        -8.9750
  66   2.0000      -0.288415        -7.8482
  67   0.0000       0.023257         0.6329
  68   0.0000       0.076367         2.0781
  69   0.0000       0.109737         2.9861
  70   0.0000       0.118037         3.2119
  71   0.0000       0.136322         3.7095

MULLIKEN ATOMIC CHARGES
-----------------------
   0 S :    0.120190
   1 C :   -0.120573
   2 C :   -0.137277
   3 C :    0.022218
   4 C :   -0.149084
   5 H :    0.015217
   6 C :    0.131251
   7 H :    0.022692
   8 H :    0.000230
   9 C :   -0.078004
  10 H :    0.028087
  11 H :    0.040368
  12 C :   -0.073302
  13 H :    0.036903
  14 H :    0.031092
  15 H :    0.038184
  16 S :    0.096501
  17 C :   -0.094266
  18 C :   -0.038839
  19 C :   -0.036464
  20 C :   -0.129019
  21 H :    0.022318
  22 C :    0.078192
  23 H :    0.020790
  24 H :    0.023100
  25 C :   -0.104949
  26 H :    0.028916
  27 H :    0.026201
  28 C :   -0.043437
  29 H :    0.030290
  30 H :    0.031883
  31 H :    0.034137
  32 H :    0.060941
  33 H :    0.065511
Sum of atomic charges:    0.0000000

LOEWDIN ATOMIC CHARGES
----------------------
   0 S :    0.398373
   1 C :   -0.204596
   2 C :   -0.065345
   3 C :   -0.058341
   4 C :   -0.192682
   5 H :    0.028375
   6 C :   -0.030552
   7 H :    0.027660
   8 H :    0.031182
   9 C :   -0.031265
  10 H :    0.017072
  11 H :    0.032626
  12 C :   -0.067867
  13 H :    0.022095
  14 H :    0.024068
  15 H :    0.026244
  16 S :    0.392743
  17 C :   -0.186545
  18 C :   -0.074916
  19 C :   -0.050172
  20 C :   -0.187823
  21 H :    0.032973
  22 C :   -0.025406
  23 H :    0.026096
  24 H :    0.025410
  25 C :   -0.034278
  26 H :    0.018180
  27 H :    0.018418
  28 C :   -0.063011
  29 H :    0.027611
  30 H :    0.023474
  31 H :    0.021620
  32 H :    0.041343
  33 H :    0.037233

  Mayer bond orders larger than 0.100000
B(  0-S ,  1-C ) :   1.1342 B(  0-S ,  4-C ) :   1.1323 B(  1-C ,  2-C ) :   1.6305
B(  1-C , 32-H ) :   0.9507 B(  2-C ,  3-C ) :   1.2393 B(  2-C ,  6-C ) :   1.0414
B(  3-C ,  4-C ) :   1.5663 B(  3-C ,  5-H ) :   0.9868 B(  4-C , 20-C ) :   1.0781
B(  6-C ,  7-H ) :   0.9258 B(  6-C ,  8-H ) :   0.9342 B(  6-C ,  9-C ) :   1.0525
B(  9-C , 10-H ) :   0.9588 B(  9-C , 11-H ) :   0.9552 B(  9-C , 12-C ) :   1.0794
B( 12-C , 13-H ) :   0.9782 B( 12-C , 14-H ) :   0.9767 B( 12-C , 15-H ) :   0.9773
B( 16-S , 17-C ) :   1.1652 B( 16-S , 20-C ) :   1.1150 B( 17-C , 18-C ) :   1.6063
B( 17-C , 33-H ) :   0.9615 B( 18-C , 19-C ) :   1.2376 B( 18-C , 21-H ) :   0.9933
B( 19-C , 20-C ) :   1.5902 B( 19-C , 22-C ) :   1.0464 B( 22-C , 23-H ) :   0.9378
B( 22-C , 24-H ) :   0.9315 B( 22-C , 25-C ) :   1.0559 B( 25-C , 26-H ) :   0.9573
B( 25-C , 27-H ) :   0.9591 B( 25-C , 28-C ) :   1.0806 B( 28-C , 29-H ) :   0.9751
B( 28-C , 30-H ) :   0.9765 B( 28-C , 31-H ) :   0.9753

Dispersion correction           -0.013307068
FINAL SINGLE POINT ENERGY     -1339.877494862500

DIPOLE MOMENT
-------------
                                X             Y             Z
Electronic contribution:    -12.25010      15.15560      20.60915
Nuclear contribution   :     12.44608     -15.68589     -21.10774
                        -----------------------------------------
Total Dipole Moment    :      0.19598      -0.53028      -0.49859
                        -----------------------------------------
Magnitude (a.u.)       :      0.75379
Magnitude (Debye)      :      1.91598

Rotational constants in cm-1:     0.017254     0.007896     0.006262
Rotational constants in MHz :   517.256565   236.712579   187.725835

                             ****ORCA TERMINATED NORMALLY****
TOTAL RUN TIME: 0 days 0 hours 0 minutes 20 seconds 985 msec
