                         Program Version 4.2.1 -  RELEASE  -
|  1> ! wB97X-D3 SP def2-SVP
|  2> %pal
|  3> nprocs 24
|  4> end
|  5>
|  6> * xyz 0 1
|  7> S 	 -50.3668 	 15.287 	 23.0231
|  8> C 	 -51.9569 	 14.5563 	 23.5356
|  9> C 	 -52.903 	 15.0213 	 22.6488
| 10> C 	 -52.477 	 16.0241 	 21.7485
| 11> C 	 -51.1584 	 16.357 	 21.8755
| 12> H 	 -53.1403 	 16.4552 	 21.0133
| 13> C 	 -54.381 	 14.5152 	 22.7793
| 14> H 	 -54.5656 	 14.1896 	 23.8062
| 15> H 	 -54.3857 	 13.5631 	 22.2562
| 16> C 	 -55.5537 	 15.416 	 22.2662
| 17> H 	 -55.6185 	 16.299 	 22.8704
| 18> H 	 -55.4686 	 15.6725 	 21.1977
| 19> C 	 -56.8128 	 14.5519 	 22.6008
| 20> H 	 -57.1118 	 14.4945 	 23.6552
| 21> H 	 -57.6846 	 14.9689 	 22.1051
| 22> H 	 -56.7909 	 13.5476 	 22.1283
| 23> S 	 -49.3471 	 16.5384 	 19.8903
| 24> C 	 -48.9105 	 18.0575 	 19.1638
| 25> C 	 -49.594 	 19.0881 	 19.7449
| 26> C 	 -50.375 	 18.6667 	 20.8854
| 27> C 	 -50.3639 	 17.2849 	 21.0662
| 28> H 	 -49.3531 	 20.0545 	 19.4444
| 29> C 	 -51.2338 	 19.6957 	 21.6959
| 30> H 	 -52.0644 	 19.1303 	 22.0456
| 31> H 	 -51.7264 	 20.4495 	 21.0723
| 32> C 	 -50.3884 	 20.3574 	 22.7781
| 33> H 	 -49.8781 	 19.4774 	 23.2822
| 34> H 	 -51.0987 	 20.7987 	 23.4614
| 35> C 	 -49.308 	 21.3625 	 22.2686
| 36> H 	 -48.4662 	 20.9687 	 21.6902
| 37> H 	 -48.8318 	 21.6789 	 23.1882
| 38> H 	 -49.7282 	 22.2512 	 21.7686
| 39> H 	 -52.113 	 13.8989 	 24.4033
| 40> H 	 -48.3537 	 18.1746 	 18.266
| 41> *
| 42>
| 43>                          ****END OF INPUT****

CARTESIAN COORDINATES (ANGSTROEM)
---------------------------------
  S    -50.366800   15.287000   23.023100
  C    -51.956900   14.556300   23.535600
  C    -52.903000   15.021300   22.648800
  C    -52.477000   16.024100   21.748500
  C    -51.158400   16.357000   21.875500
  H    -53.140300   16.455200   21.013300
  C    -54.381000   14.515200   22.779300
  H    -54.565600   14.189600   23.806200
  H    -54.385700   13.563100   22.256200
  C    -55.553700   15.416000   22.266200
  H    -55.618500   16.299000   22.870400
  H    -55.468600   15.672500   21.197700
  C    -56.812800   14.551900   22.600800
  H    -57.111800   14.494500   23.655200
  H    -57.684600   14.968900   22.105100
  H    -56.790900   13.547600   22.128300
  S    -49.347100   16.538400   19.890300
  C    -48.910500   18.057500   19.163800
  C    -49.594000   19.088100   19.744900
  C    -50.375000   18.666700   20.885400
  C    -50.363900   17.284900   21.066200
  H    -49.353100   20.054500   19.444400
  C    -51.233800   19.695700   21.695900
  H    -52.064400   19.130300   22.045600
  H    -51.726400   20.449500   21.072300
  C    -50.388400   20.357400   22.778100
  H    -49.878100   19.477400   23.282200
  H    -51.098700   20.798700   23.461400
  C    -49.308000   21.362500   22.268600
  H    -48.466200   20.968700   21.690200
  H    -48.831800   21.678900   23.188200
  H    -49.728200   22.251200   21.768600
  H    -52.113000   13.898900   24.403300
  H    -48.353700   18.174600   18.266000

 Total Charge           Charge          ....    0
 Multiplicity           Mult            ....    1
 Number of Electrons    NEL             ....  134
 Basis Dimension        Dim             ....  322

ORBITAL ENERGIES
----------------

  NO   OCC          E(Eh)            E(eV)
   0   2.0000     -88.961954     -2420.7778
   1   2.0000     -88.961608     -2420.7684
   2   2.0000     -10.331503      -281.1345
   3   2.0000     -10.324876      -280.9542
   4   2.0000     -10.318810      -280.7891
   5   2.0000     -10.310983      -280.5761
   6   2.0000     -10.305867      -280.4369
   7   2.0000     -10.301356      -280.3141
   8   2.0000     -10.296007      -280.1686
   9   2.0000     -10.294956      -280.1400
  10   2.0000     -10.292879      -280.0835
  11   2.0000     -10.288489      -279.9640
  12   2.0000     -10.286863      -279.9198
  13   2.0000     -10.286056      -279.8978
  14   2.0000     -10.283303      -279.8229
  15   2.0000     -10.279031      -279.7066
  16   2.0000      -8.077162      -219.7907
  17   2.0000      -8.075686      -219.7506
  18   2.0000      -6.035667      -164.2388
  19   2.0000      -6.034334      -164.2026
  20   2.0000      -6.031385      -164.1223
  21   2.0000      -6.030307      -164.0930
  22   2.0000      -6.028042      -164.0314
  23   2.0000      -6.026375      -163.9860
  24   2.0000      -1.005973       -27.3739
  25   2.0000      -0.981134       -26.6980
  26   2.0000      -0.905365       -24.6362
  27   2.0000      -0.902273       -24.5521
  28   2.0000      -0.870575       -23.6896
  29   2.0000      -0.840451       -22.8698
  30   2.0000      -0.837980       -22.8026
  31   2.0000      -0.818045       -22.2601
  32   2.0000      -0.782150       -21.2834
  33   2.0000      -0.768365       -20.9083
  34   2.0000      -0.714682       -19.4475
  35   2.0000      -0.695820       -18.9342
  36   2.0000      -0.687168       -18.6988
  37   2.0000      -0.661526       -18.0010
  38   2.0000      -0.639764       -17.4089
  39   2.0000      -0.622306       -16.9338
  40   2.0000      -0.594519       -16.1777
  41   2.0000      -0.569416       -15.4946
  42   2.0000      -0.565790       -15.3959
  43   2.0000      -0.546626       -14.8744
  44   2.0000      -0.538076       -14.6418
  45   2.0000      -0.521537       -14.1917
  46   2.0000      -0.517074       -14.0703
  47   2.0000      -0.508573       -13.8390
  48   2.0000      -0.497287       -13.5319
  49   2.0000      -0.496122       -13.5002
  50   2.0000      -0.485491       -13.2109
  51   2.0000      -0.481322       -13.0974
  52   2.0000      -0.474314       -12.9068
  53   2.0000      -0.467972       -12.7342
  54   2.0000      -0.459042       -12.4912
  55   2.0000      -0.447922       -12.1886
  56   2.0000      -0.438606       -11.9351
  57   2.0000      -0.435885       -11.8610
  58   2.0000      -0.434443       -11.8218
  59   2.0000      -0.430574       -11.7165
  60   2.0000      -0.416330       -11.3289
  61   2.0000      -0.411408       -11.1950
  62   2.0000      -0.401018       -10.9123
  63   2.0000      -0.340499        -9.2654
  64   2.0000      -0.328966        -8.9516
  65   2.0000      -0.324781        -8.8377
  66   2.0000      -0.302281        -8.2255
  67   0.0000       0.040331         1.0975
  68   0.0000       0.058514         1.5922
  69   0.0000       0.115770         3.1503
  70   0.0000       0.123145         3.3509
  71   0.0000       0.138385         3.7657

MULLIKEN ATOMIC CHARGES
-----------------------
   0 S :    0.086471
   1 C :   -0.147003
   2 C :   -0.058892
   3 C :    0.060969
   4 C :   -0.154002
   5 H :    0.008873
   6 C :    0.018163
   7 H :    0.020769
   8 H :    0.036553
   9 C :   -0.058227
  10 H :    0.038254
  11 H :    0.049165
  12 C :   -0.074257
  13 H :    0.046397
  14 H :    0.019300
  15 H :    0.033405
  16 S :    0.110824
  17 C :   -0.080705
  18 C :   -0.016205
  19 C :   -0.059992
  20 C :   -0.165437
  21 H :   -0.000454
  22 C :    0.094128
  23 H :    0.009417
  24 H :    0.019411
  25 C :   -0.077209
  26 H :    0.042430
  27 H :    0.031976
  28 C :   -0.053979
  29 H :    0.043499
  30 H :    0.030063
  31 H :    0.035810
  32 H :    0.062329
  33 H :    0.048158
Sum of atomic charges:    0.0000000

LOEWDIN ATOMIC CHARGES
----------------------
   0 S :    0.370103
   1 C :   -0.182245
   2 C :   -0.062800
   3 C :   -0.066412
   4 C :   -0.187632
   5 H :    0.032679
   6 C :   -0.034002
   7 H :    0.029869
   8 H :    0.032362
   9 C :   -0.035532
  10 H :    0.025074
  11 H :    0.028268
  12 C :   -0.071054
  13 H :    0.029335
  14 H :    0.022228
  15 H :    0.028237
  16 S :    0.423301
  17 C :   -0.182564
  18 C :   -0.066379
  19 C :   -0.048703
  20 C :   -0.215787
  21 H :    0.020723
  22 C :   -0.031979
  23 H :    0.023274
  24 H :    0.026588
  25 C :   -0.038899
  26 H :    0.035413
  27 H :    0.023103
  28 C :   -0.071287
  29 H :    0.028338
  30 H :    0.029123
  31 H :    0.025709
  32 H :    0.036111
  33 H :    0.025436

  Mayer bond orders larger than 0.100000
B(  0-S ,  1-C ) :   1.1102 B(  0-S ,  4-C ) :   1.1554 B(  1-C ,  2-C ) :   1.6205
B(  1-C ,  4-C ) :   0.1057 B(  1-C , 32-H ) :   0.9738 B(  2-C ,  3-C ) :   1.2465
B(  2-C ,  6-C ) :   0.9867 B(  3-C ,  4-C ) :   1.5788 B(  3-C ,  5-H ) :   0.9963
B(  4-C , 20-C ) :   0.9899 B(  6-C ,  7-H ) :   0.9526 B(  6-C ,  8-H ) :   0.9392
B(  6-C ,  9-C ) :   1.0655 B(  9-C , 10-H ) :   0.9580 B(  9-C , 11-H ) :   0.9506
B(  9-C , 12-C ) :   1.0799 B( 12-C , 13-H ) :   0.9765 B( 12-C , 14-H ) :   0.9714
B( 12-C , 15-H ) :   0.9751 B( 16-S , 17-C ) :   1.1570 B( 16-S , 20-C ) :   1.1617
B( 17-C , 18-C ) :   1.6182 B( 17-C , 33-H ) :   0.9682 B( 18-C , 19-C ) :   1.2361
B( 18-C , 21-H ) :   0.9964 B( 19-C , 20-C ) :   1.6155 B( 19-C , 22-C ) :   1.0251
B( 22-C , 23-H ) :   0.9318 B( 22-C , 24-H ) :   0.9441 B( 22-C , 25-C ) :   1.0695
B( 25-C , 26-H ) :   0.9539 B( 25-C , 27-H ) :   0.9573 B( 25-C , 28-C ) :   1.0748
B( 28-C , 29-H ) :   0.9699 B( 28-C , 30-H ) :   0.9713 B( 28-C , 31-H ) :   0.9753

Dispersion correction           -0.013933446
FINAL SINGLE POINT ENERGY     -1339.873645229182

DIPOLE MOMENT
-------------
                                X             Y             Z
Electronic contribution:     19.80030     -10.83481      -6.21746
Nuclear contribution   :    -20.47907      11.13134       6.18794
                        -----------------------------------------
Total Dipole Moment    :     -0.67877       0.29653      -0.02952
                        -----------------------------------------
Magnitude (a.u.)       :      0.74130
Magnitude (Debye)      :      1.88424

Rotational constants in cm-1:     0.020223     0.007310     0.006602
Rotational constants in MHz :   606.266430   219.142917   197.929509

                             ****ORCA TERMINATED NORMALLY****
TOTAL RUN TIME: 0 days 0 hours 0 minutes 20 seconds 990 msec
