                         Program Version 4.2.1 -  RELEASE  -
|  1> ! wB97X-D3 SP def2-SVP
|  2> %pal
|  3> nprocs 24
|  4> end
|  5>
|  6> * xyz 0 1
|  7> S 	 -144.593 	 29.1183 	 -12.2705
|  8> C 	 -143.647 	 28.5174 	 -13.5631
|  9> C 	 -144.291 	 28.2541 	 -14.7536
| 10> C 	 -145.667 	 28.6819 	 -14.5592
| 11> C 	 -145.989 	 29.1007 	 -13.2675
| 12> H 	 -146.431 	 28.6841 	 -15.2993
| 13> C 	 -143.727 	 27.6911 	 -16.0525
| 14> H 	 -144.329 	 26.7754 	 -16.3343
| 15> H 	 -142.844 	 27.1659 	 -15.7383
| 16> C 	 -143.417 	 28.6851 	 -17.1659
| 17> H 	 -144.321 	 29.224 	 -17.4469
| 18> H 	 -142.8 	 29.4604 	 -16.768
| 19> C 	 -142.885 	 28.0763 	 -18.4745
| 20> H 	 -141.98 	 27.4375 	 -18.4452
| 21> H 	 -143.618 	 27.3949 	 -19.0144
| 22> H 	 -142.637 	 28.8527 	 -19.1335
| 23> S 	 -147.981 	 30.8789 	 -13.7281
| 24> C 	 -149.228 	 31.1462 	 -12.5373
| 25> C 	 -149.065 	 30.3409 	 -11.4396
| 26> C 	 -147.868 	 29.5066 	 -11.5116
| 27> C 	 -147.246 	 29.5989 	 -12.7428
| 28> H 	 -149.637 	 30.3941 	 -10.5326
| 29> C 	 -147.539 	 28.4107 	 -10.402
| 30> H 	 -147.832 	 28.6668 	 -9.405
| 31> H 	 -146.449 	 28.3874 	 -10.3688
| 32> C 	 -148.079 	 27.0383 	 -10.6509
| 33> H 	 -147.681 	 26.3947 	 -9.83957
| 34> H 	 -147.695 	 26.6204 	 -11.5802
| 35> C 	 -149.565 	 27.1676 	 -10.6808
| 36> H 	 -149.91 	 27.7795 	 -11.5204
| 37> H 	 -150.018 	 27.6868 	 -9.89087
| 38> H 	 -150.133 	 26.2137 	 -10.6612
| 39> H 	 -142.513 	 28.5815 	 -13.5184
| 40> H 	 -149.89 	 32.0173 	 -12.5706
| 41> *
| 42>
| 43>                          ****END OF INPUT****

CARTESIAN COORDINATES (ANGSTROEM)
---------------------------------
  S    -144.593000   29.118300  -12.270500
  C    -143.647000   28.517400  -13.563100
  C    -144.291000   28.254100  -14.753600
  C    -145.667000   28.681900  -14.559200
  C    -145.989000   29.100700  -13.267500
  H    -146.431000   28.684100  -15.299300
  C    -143.727000   27.691100  -16.052500
  H    -144.329000   26.775400  -16.334300
  H    -142.844000   27.165900  -15.738300
  C    -143.417000   28.685100  -17.165900
  H    -144.321000   29.224000  -17.446900
  H    -142.800000   29.460400  -16.768000
  C    -142.885000   28.076300  -18.474500
  H    -141.980000   27.437500  -18.445200
  H    -143.618000   27.394900  -19.014400
  H    -142.637000   28.852700  -19.133500
  S    -147.981000   30.878900  -13.728100
  C    -149.228000   31.146200  -12.537300
  C    -149.065000   30.340900  -11.439600
  C    -147.868000   29.506600  -11.511600
  C    -147.246000   29.598900  -12.742800
  H    -149.637000   30.394100  -10.532600
  C    -147.539000   28.410700  -10.402000
  H    -147.832000   28.666800   -9.405000
  H    -146.449000   28.387400  -10.368800
  C    -148.079000   27.038300  -10.650900
  H    -147.681000   26.394700   -9.839570
  H    -147.695000   26.620400  -11.580200
  C    -149.565000   27.167600  -10.680800
  H    -149.910000   27.779500  -11.520400
  H    -150.018000   27.686800   -9.890870
  H    -150.133000   26.213700  -10.661200
  H    -142.513000   28.581500  -13.518400
  H    -149.890000   32.017300  -12.570600

 Total Charge           Charge          ....    0
 Multiplicity           Mult            ....    1
 Number of Electrons    NEL             ....  134
 Basis Dimension        Dim             ....  322

ORBITAL ENERGIES
----------------

  NO   OCC          E(Eh)            E(eV)
   0   2.0000     -88.968314     -2420.9509
   1   2.0000     -88.963911     -2420.8311
   2   2.0000     -10.328860      -281.0626
   3   2.0000     -10.326214      -280.9906
   4   2.0000     -10.317807      -280.7618
   5   2.0000     -10.314737      -280.6783
   6   2.0000     -10.308228      -280.5011
   7   2.0000     -10.305443      -280.4254
   8   2.0000     -10.297673      -280.2139
   9   2.0000     -10.295414      -280.1525
  10   2.0000     -10.293880      -280.1107
  11   2.0000     -10.289889      -280.0021
  12   2.0000     -10.289229      -279.9842
  13   2.0000     -10.283114      -279.8177
  14   2.0000     -10.280156      -279.7373
  15   2.0000     -10.265217      -279.3308
  16   2.0000      -8.084060      -219.9785
  17   2.0000      -8.078560      -219.8288
  18   2.0000      -6.042447      -164.4233
  19   2.0000      -6.038457      -164.3148
  20   2.0000      -6.037133      -164.2787
  21   2.0000      -6.034862      -164.2170
  22   2.0000      -6.033087      -164.1686
  23   2.0000      -6.029242      -164.0640
  24   2.0000      -1.009822       -27.4786
  25   2.0000      -0.983696       -26.7677
  26   2.0000      -0.914432       -24.8830
  27   2.0000      -0.912403       -24.8277
  28   2.0000      -0.870941       -23.6995
  29   2.0000      -0.852260       -23.1912
  30   2.0000      -0.839585       -22.8463
  31   2.0000      -0.811462       -22.0810
  32   2.0000      -0.786185       -21.3932
  33   2.0000      -0.775290       -21.0967
  34   2.0000      -0.712538       -19.3892
  35   2.0000      -0.701542       -19.0899
  36   2.0000      -0.684913       -18.6374
  37   2.0000      -0.667130       -18.1535
  38   2.0000      -0.639444       -17.4002
  39   2.0000      -0.616653       -16.7800
  40   2.0000      -0.595873       -16.2145
  41   2.0000      -0.567559       -15.4441
  42   2.0000      -0.554226       -15.0813
  43   2.0000      -0.550119       -14.9695
  44   2.0000      -0.549164       -14.9435
  45   2.0000      -0.532538       -14.4911
  46   2.0000      -0.515570       -14.0294
  47   2.0000      -0.509540       -13.8653
  48   2.0000      -0.501871       -13.6566
  49   2.0000      -0.494673       -13.4607
  50   2.0000      -0.485079       -13.1997
  51   2.0000      -0.477147       -12.9838
  52   2.0000      -0.468270       -12.7423
  53   2.0000      -0.466239       -12.6870
  54   2.0000      -0.456962       -12.4346
  55   2.0000      -0.449784       -12.2393
  56   2.0000      -0.444582       -12.0977
  57   2.0000      -0.437338       -11.9006
  58   2.0000      -0.435740       -11.8571
  59   2.0000      -0.429286       -11.6815
  60   2.0000      -0.421622       -11.4729
  61   2.0000      -0.412187       -11.2162
  62   2.0000      -0.407331       -11.0840
  63   2.0000      -0.352672        -9.5967
  64   2.0000      -0.333300        -9.0696
  65   2.0000      -0.330599        -8.9961
  66   2.0000      -0.288947        -7.8627
  67   0.0000       0.032124         0.8741
  68   0.0000       0.071940         1.9576
  69   0.0000       0.105284         2.8649
  70   0.0000       0.114722         3.1217
  71   0.0000       0.131107         3.5676

MULLIKEN ATOMIC CHARGES
-----------------------
   0 S :    0.132377
   1 C :   -0.149091
   2 C :   -0.096154
   3 C :    0.015912
   4 C :   -0.145807
   5 H :   -0.005461
   6 C :    0.076079
   7 H :    0.038823
   8 H :    0.004936
   9 C :   -0.032318
  10 H :    0.027961
  11 H :    0.024754
  12 C :   -0.055573
  13 H :    0.029953
  14 H :    0.037482
  15 H :    0.026739
  16 S :    0.095420
  17 C :   -0.088531
  18 C :   -0.016110
  19 C :   -0.095199
  20 C :   -0.128910
  21 H :    0.015235
  22 C :    0.056494
  23 H :    0.012911
  24 H :    0.013149
  25 C :   -0.017050
  26 H :    0.034010
  27 H :    0.032919
  28 C :   -0.052329
  29 H :    0.045890
  30 H :   -0.002914
  31 H :    0.029576
  32 H :    0.066525
  33 H :    0.068302
Sum of atomic charges:    0.0000000

LOEWDIN ATOMIC CHARGES
----------------------
   0 S :    0.448136
   1 C :   -0.218546
   2 C :   -0.063102
   3 C :   -0.059579
   4 C :   -0.211754
   5 H :    0.020405
   6 C :   -0.037952
   7 H :    0.041573
   8 H :    0.027717
   9 C :   -0.037320
  10 H :    0.028739
  11 H :    0.025297
  12 C :   -0.069740
  13 H :    0.025661
  14 H :    0.033180
  15 H :    0.020971
  16 S :    0.399610
  17 C :   -0.189914
  18 C :   -0.069565
  19 C :   -0.058926
  20 C :   -0.187978
  21 H :    0.028376
  22 C :   -0.027769
  23 H :    0.024201
  24 H :    0.016069
  25 C :   -0.038424
  26 H :    0.030011
  27 H :    0.026889
  28 C :   -0.071598
  29 H :    0.033051
  30 H :    0.013416
  31 H :    0.027524
  32 H :    0.037022
  33 H :    0.034318

  Mayer bond orders larger than 0.100000
B(  0-S ,  1-C ) :   1.1636 B(  0-S ,  4-C ) :   1.1544 B(  1-C ,  2-C ) :   1.6236
B(  1-C , 32-H ) :   0.9490 B(  2-C ,  3-C ) :   1.2343 B(  2-C ,  6-C ) :   1.0226
B(  3-C ,  4-C ) :   1.5657 B(  3-C ,  5-H ) :   1.0008 B(  4-C , 20-C ) :   1.0505
B(  6-C ,  7-H ) :   0.9381 B(  6-C ,  8-H ) :   0.9308 B(  6-C ,  9-C ) :   1.0553
B(  9-C , 10-H ) :   0.9544 B(  9-C , 11-H ) :   0.9527 B(  9-C , 12-C ) :   1.0792
B( 12-C , 13-H ) :   0.9762 B( 12-C , 14-H ) :   0.9743 B( 12-C , 15-H ) :   0.9738
B( 16-S , 17-C ) :   1.1462 B( 16-S , 20-C ) :   1.1350 B( 17-C , 18-C ) :   1.6136
B( 17-C , 33-H ) :   0.9644 B( 18-C , 19-C ) :   1.2298 B( 18-C , 21-H ) :   0.9892
B( 19-C , 20-C ) :   1.6090 B( 19-C , 22-C ) :   1.0310 B( 22-C , 23-H ) :   0.9418
B( 22-C , 24-H ) :   0.9288 B( 22-C , 25-C ) :   1.0797 B( 25-C , 26-H ) :   0.9510
B( 25-C , 27-H ) :   0.9519 B( 25-C , 28-C ) :   1.0767 B( 28-C , 29-H ) :   0.9667
B( 28-C , 30-H ) :   0.9704 B( 28-C , 31-H ) :   0.9694

Dispersion correction           -0.014355057
FINAL SINGLE POINT ENERGY     -1339.877867923173

DIPOLE MOMENT
-------------
                                X             Y             Z
Electronic contribution:     -2.15467      13.63210       7.47968
Nuclear contribution   :      2.28823     -13.72127      -7.56514
                        -----------------------------------------
Total Dipole Moment    :      0.13355      -0.08917      -0.08546
                        -----------------------------------------
Magnitude (a.u.)       :      0.18191
Magnitude (Debye)      :      0.46238

Rotational constants in cm-1:     0.023877     0.007170     0.006387
Rotational constants in MHz :   715.824316   214.942102   191.466237

                             ****ORCA TERMINATED NORMALLY****
TOTAL RUN TIME: 0 days 0 hours 0 minutes 20 seconds 226 msec
