                         Program Version 4.2.1 -  RELEASE  -
|  1> ! wB97X-D3 SP def2-SVP
|  2> %pal
|  3> nprocs 24
|  4> end
|  5>
|  6> * xyz 0 1
|  7> S 	 -119.601 	 62.3408 	 -53.924
|  8> C 	 -118.152 	 63.2361 	 -53.5134
|  9> C 	 -118.426 	 64.5797 	 -53.3319
| 10> C 	 -119.813 	 64.8595 	 -53.5755
| 11> C 	 -120.59 	 63.7721 	 -53.7738
| 12> H 	 -120.272 	 65.8442 	 -53.6723
| 13> C 	 -117.392 	 65.6377 	 -52.9123
| 14> H 	 -116.435 	 65.0836 	 -52.7646
| 15> H 	 -117.677 	 65.9473 	 -51.9699
| 16> C 	 -117.044 	 66.8089 	 -53.8853
| 17> H 	 -116.502 	 67.5738 	 -53.3372
| 18> H 	 -116.545 	 66.4498 	 -54.7984
| 19> C 	 -118.22 	 67.4826 	 -54.6025
| 20> H 	 -118.803 	 66.7785 	 -55.2086
| 21> H 	 -118.864 	 67.9513 	 -53.9008
| 22> H 	 -117.885 	 68.3408 	 -55.2229
| 23> S 	 -122.656 	 63.4942 	 -55.5707
| 24> C 	 -124.274 	 63.4188 	 -54.9651
| 25> C 	 -124.361 	 63.6696 	 -53.5782
| 26> C 	 -123.061 	 63.9138 	 -52.9929
| 27> C 	 -122.03 	 63.7033 	 -53.893
| 28> H 	 -125.363 	 63.6061 	 -53.1371
| 29> C 	 -122.806 	 64.0678 	 -51.4567
| 30> H 	 -123.736 	 64.487 	 -51.0286
| 31> H 	 -121.978 	 64.7202 	 -51.3944
| 32> C 	 -122.377 	 62.7123 	 -50.7867
| 33> H 	 -122.196 	 63.0744 	 -49.8197
| 34> H 	 -121.396 	 62.3548 	 -51.1053
| 35> C 	 -123.448 	 61.5886 	 -50.9753
| 36> H 	 -123.507 	 61.3815 	 -52.0459
| 37> H 	 -124.348 	 61.907 	 -50.4997
| 38> H 	 -123.127 	 60.6322 	 -50.5315
| 39> H 	 -117.24 	 62.8098 	 -53.4176
| 40> H 	 -125.145 	 63.2277 	 -55.6011
| 41> *
| 42>
| 43>                          ****END OF INPUT****

CARTESIAN COORDINATES (ANGSTROEM)
---------------------------------
  S    -119.601000   62.340800  -53.924000
  C    -118.152000   63.236100  -53.513400
  C    -118.426000   64.579700  -53.331900
  C    -119.813000   64.859500  -53.575500
  C    -120.590000   63.772100  -53.773800
  H    -120.272000   65.844200  -53.672300
  C    -117.392000   65.637700  -52.912300
  H    -116.435000   65.083600  -52.764600
  H    -117.677000   65.947300  -51.969900
  C    -117.044000   66.808900  -53.885300
  H    -116.502000   67.573800  -53.337200
  H    -116.545000   66.449800  -54.798400
  C    -118.220000   67.482600  -54.602500
  H    -118.803000   66.778500  -55.208600
  H    -118.864000   67.951300  -53.900800
  H    -117.885000   68.340800  -55.222900
  S    -122.656000   63.494200  -55.570700
  C    -124.274000   63.418800  -54.965100
  C    -124.361000   63.669600  -53.578200
  C    -123.061000   63.913800  -52.992900
  C    -122.030000   63.703300  -53.893000
  H    -125.363000   63.606100  -53.137100
  C    -122.806000   64.067800  -51.456700
  H    -123.736000   64.487000  -51.028600
  H    -121.978000   64.720200  -51.394400
  C    -122.377000   62.712300  -50.786700
  H    -122.196000   63.074400  -49.819700
  H    -121.396000   62.354800  -51.105300
  C    -123.448000   61.588600  -50.975300
  H    -123.507000   61.381500  -52.045900
  H    -124.348000   61.907000  -50.499700
  H    -123.127000   60.632200  -50.531500
  H    -117.240000   62.809800  -53.417600
  H    -125.145000   63.227700  -55.601100

 Total Charge           Charge          ....    0
 Multiplicity           Mult            ....    1
 Number of Electrons    NEL             ....  134
 Basis Dimension        Dim             ....  322

ORBITAL ENERGIES
----------------

  NO   OCC          E(Eh)            E(eV)
   0   2.0000     -88.963856     -2420.8296
   1   2.0000     -88.963437     -2420.8182
   2   2.0000     -10.324358      -280.9401
   3   2.0000     -10.323567      -280.9185
   4   2.0000     -10.318927      -280.7923
   5   2.0000     -10.308971      -280.5214
   6   2.0000     -10.308099      -280.4976
   7   2.0000     -10.303944      -280.3846
   8   2.0000     -10.298758      -280.2435
   9   2.0000     -10.294002      -280.1140
  10   2.0000     -10.293240      -280.0933
  11   2.0000     -10.291286      -280.0401
  12   2.0000     -10.290516      -280.0192
  13   2.0000     -10.281083      -279.7625
  14   2.0000     -10.274599      -279.5860
  15   2.0000     -10.273679      -279.5610
  16   2.0000      -8.078723      -219.8332
  17   2.0000      -8.077867      -219.8099
  18   2.0000      -6.037195      -164.2804
  19   2.0000      -6.036302      -164.2561
  20   2.0000      -6.033221      -164.1723
  21   2.0000      -6.032452      -164.1514
  22   2.0000      -6.029494      -164.0709
  23   2.0000      -6.028701      -164.0493
  24   2.0000      -1.005191       -27.3526
  25   2.0000      -0.978961       -26.6389
  26   2.0000      -0.907750       -24.7011
  27   2.0000      -0.899989       -24.4899
  28   2.0000      -0.869064       -23.6484
  29   2.0000      -0.845546       -23.0085
  30   2.0000      -0.839347       -22.8398
  31   2.0000      -0.814744       -22.1703
  32   2.0000      -0.786189       -21.3933
  33   2.0000      -0.773801       -21.0562
  34   2.0000      -0.708046       -19.2669
  35   2.0000      -0.698706       -19.0128
  36   2.0000      -0.689473       -18.7615
  37   2.0000      -0.656614       -17.8674
  38   2.0000      -0.649843       -17.6831
  39   2.0000      -0.614297       -16.7159
  40   2.0000      -0.583856       -15.8875
  41   2.0000      -0.576335       -15.6829
  42   2.0000      -0.557524       -15.1710
  43   2.0000      -0.548329       -14.9208
  44   2.0000      -0.534472       -14.5437
  45   2.0000      -0.530442       -14.4341
  46   2.0000      -0.524902       -14.2833
  47   2.0000      -0.515277       -14.0214
  48   2.0000      -0.504453       -13.7269
  49   2.0000      -0.493780       -13.4364
  50   2.0000      -0.485627       -13.2146
  51   2.0000      -0.480429       -13.0731
  52   2.0000      -0.474851       -12.9214
  53   2.0000      -0.463000       -12.5989
  54   2.0000      -0.461556       -12.5596
  55   2.0000      -0.443240       -12.0612
  56   2.0000      -0.440114       -11.9761
  57   2.0000      -0.431994       -11.7551
  58   2.0000      -0.427650       -11.6370
  59   2.0000      -0.426778       -11.6132
  60   2.0000      -0.421585       -11.4719
  61   2.0000      -0.412970       -11.2375
  62   2.0000      -0.409236       -11.1359
  63   2.0000      -0.335104        -9.1186
  64   2.0000      -0.329863        -8.9760
  65   2.0000      -0.324683        -8.8351
  66   2.0000      -0.303814        -8.2672
  67   0.0000       0.038610         1.0506
  68   0.0000       0.058897         1.6027
  69   0.0000       0.114604         3.1185
  70   0.0000       0.124535         3.3888
  71   0.0000       0.126897         3.4530

MULLIKEN ATOMIC CHARGES
-----------------------
   0 S :    0.110062
   1 C :   -0.075609
   2 C :   -0.116282
   3 C :    0.046927
   4 C :   -0.185628
   5 H :    0.018884
   6 C :    0.111698
   7 H :    0.019549
   8 H :    0.020237
   9 C :   -0.064974
  10 H :    0.036654
  11 H :    0.037759
  12 C :   -0.084302
  13 H :    0.050990
  14 H :    0.015272
  15 H :    0.037096
  16 S :    0.104879
  17 C :   -0.103426
  18 C :   -0.061407
  19 C :   -0.025829
  20 C :   -0.181484
  21 H :    0.029744
  22 C :    0.082860
  23 H :    0.031424
  24 H :    0.016839
  25 C :   -0.051892
  26 H :    0.014888
  27 H :    0.027625
  28 C :   -0.044410
  29 H :    0.054701
  30 H :    0.026966
  31 H :    0.032766
  32 H :    0.003124
  33 H :    0.064299
Sum of atomic charges:   -0.0000000

LOEWDIN ATOMIC CHARGES
----------------------
   0 S :    0.404089
   1 C :   -0.174430
   2 C :   -0.060291
   3 C :   -0.064294
   4 C :   -0.203160
   5 H :    0.035928
   6 C :   -0.024978
   7 H :    0.036720
   8 H :    0.020760
   9 C :   -0.038393
  10 H :    0.026997
  11 H :    0.032012
  12 C :   -0.071780
  13 H :    0.027186
  14 H :    0.011632
  15 H :    0.031440
  16 S :    0.392170
  17 C :   -0.191220
  18 C :   -0.082415
  19 C :   -0.046802
  20 C :   -0.194340
  21 H :    0.035855
  22 C :   -0.019548
  23 H :    0.031364
  24 H :    0.024977
  25 C :   -0.030918
  26 H :    0.015014
  27 H :    0.022683
  28 C :   -0.061796
  29 H :    0.032565
  30 H :    0.019084
  31 H :    0.027861
  32 H :    0.005025
  33 H :    0.031001

  Mayer bond orders larger than 0.100000
B(  0-S ,  1-C ) :   1.1376 B(  0-S ,  4-C ) :   1.1424 B(  1-C ,  2-C ) :   1.6256
B(  1-C , 32-H ) :   0.9823 B(  2-C ,  3-C ) :   1.2076 B(  2-C ,  6-C ) :   1.0108
B(  3-C ,  4-C ) :   1.6165 B(  3-C ,  5-H ) :   0.9932 B(  4-C , 20-C ) :   1.0127
B(  6-C ,  7-H ) :   0.9389 B(  6-C ,  8-H ) :   0.9387 B(  6-C ,  9-C ) :   1.0655
B(  9-C , 10-H ) :   0.9555 B(  9-C , 11-H ) :   0.9583 B(  9-C , 12-C ) :   1.0917
B( 12-C , 13-H ) :   0.9673 B( 12-C , 14-H ) :   0.9726 B( 12-C , 15-H ) :   0.9705
B( 16-S , 17-C ) :   1.1673 B( 16-S , 20-C ) :   1.1339 B( 17-C , 18-C ) :   1.6142
B( 17-C , 20-C ) :   0.1070 B( 17-C , 33-H ) :   0.9640 B( 18-C , 19-C ) :   1.2077
B( 18-C , 21-H ) :   0.9903 B( 19-C , 20-C ) :   1.6123 B( 19-C , 22-C ) :   1.0413
B( 22-C , 23-H ) :   0.9411 B( 22-C , 24-H ) :   0.9249 B( 22-C , 25-C ) :   1.0700
B( 25-C , 26-H ) :   0.9589 B( 25-C , 27-H ) :   0.9553 B( 25-C , 28-C ) :   1.0657
B( 28-C , 29-H ) :   0.9722 B( 28-C , 30-H ) :   0.9790 B( 28-C , 31-H ) :   0.9748

Dispersion correction           -0.015574322
FINAL SINGLE POINT ENERGY     -1339.871925170058

DIPOLE MOMENT
-------------
                                X             Y             Z
Electronic contribution:     -4.92831     -10.42696     -12.98736
Nuclear contribution   :      5.01843      10.79419      13.39661
                        -----------------------------------------
Total Dipole Moment    :      0.09012       0.36723       0.40925
                        -----------------------------------------
Magnitude (a.u.)       :      0.55719
Magnitude (Debye)      :      1.41627

Rotational constants in cm-1:     0.020742     0.008546     0.007757
Rotational constants in MHz :   621.826759   256.199892   232.558839

                             ****ORCA TERMINATED NORMALLY****
TOTAL RUN TIME: 0 days 0 hours 0 minutes 21 seconds 152 msec
