                         Program Version 4.2.1 -  RELEASE  -
|  1> ! wB97X-D3 SP def2-SVP
|  2> %pal
|  3> nprocs 24
|  4> end
|  5>
|  6> * xyz 0 1
|  7> S 	 -91.4235 	 -9.24862 	 -110.776
|  8> C 	 -92.5201 	 -10.1191 	 -111.849
|  9> C 	 -92.545 	 -9.51502 	 -113.13
| 10> C 	 -91.4927 	 -8.51533 	 -113.278
| 11> C 	 -90.7525 	 -8.35579 	 -112.166
| 12> H 	 -91.2965 	 -8.01719 	 -114.223
| 13> C 	 -93.5748 	 -9.92059 	 -114.171
| 14> H 	 -94.3726 	 -10.3496 	 -113.629
| 15> H 	 -93.2061 	 -10.8166 	 -114.689
| 16> C 	 -94.0484 	 -8.80015 	 -115.134
| 17> H 	 -93.2242 	 -8.30817 	 -115.555
| 18> H 	 -94.6753 	 -9.24588 	 -115.934
| 19> C 	 -94.8582 	 -7.73137 	 -114.385
| 20> H 	 -95.1561 	 -7.0779 	 -115.221
| 21> H 	 -95.7944 	 -8.25949 	 -114.005
| 22> H 	 -94.4222 	 -7.15223 	 -113.601
| 23> S 	 -88.1462 	 -8.35489 	 -111.343
| 24> C 	 -87.1797 	 -6.87485 	 -111.533
| 25> C 	 -87.8864 	 -5.88815 	 -112.17
| 26> C 	 -89.217 	 -6.27699 	 -112.531
| 27> C 	 -89.5637 	 -7.50955 	 -112.043
| 28> H 	 -87.4538 	 -4.96523 	 -112.484
| 29> C 	 -90.1682 	 -5.29572 	 -113.207
| 30> H 	 -90.7359 	 -5.87383 	 -113.791
| 31> H 	 -89.6788 	 -4.63308 	 -113.899
| 32> C 	 -91.097 	 -4.5136 	 -112.293
| 33> H 	 -91.8789 	 -5.08394 	 -111.921
| 34> H 	 -91.6341 	 -3.88819 	 -113.023
| 35> C 	 -90.3028 	 -3.65322 	 -111.217
| 36> H 	 -90.9621 	 -3.03379 	 -110.603
| 37> H 	 -89.6248 	 -2.98054 	 -111.779
| 38> H 	 -89.7645 	 -4.25462 	 -110.523
| 39> H 	 -93.2694 	 -10.8743 	 -111.514
| 40> H 	 -86.089 	 -6.81774 	 -111.275
| 41> *
| 42>
| 43>                          ****END OF INPUT****

CARTESIAN COORDINATES (ANGSTROEM)
---------------------------------
  S    -91.423500   -9.248620  -110.776000
  C    -92.520100  -10.119100  -111.849000
  C    -92.545000   -9.515020  -113.130000
  C    -91.492700   -8.515330  -113.278000
  C    -90.752500   -8.355790  -112.166000
  H    -91.296500   -8.017190  -114.223000
  C    -93.574800   -9.920590  -114.171000
  H    -94.372600  -10.349600  -113.629000
  H    -93.206100  -10.816600  -114.689000
  C    -94.048400   -8.800150  -115.134000
  H    -93.224200   -8.308170  -115.555000
  H    -94.675300   -9.245880  -115.934000
  C    -94.858200   -7.731370  -114.385000
  H    -95.156100   -7.077900  -115.221000
  H    -95.794400   -8.259490  -114.005000
  H    -94.422200   -7.152230  -113.601000
  S    -88.146200   -8.354890  -111.343000
  C    -87.179700   -6.874850  -111.533000
  C    -87.886400   -5.888150  -112.170000
  C    -89.217000   -6.276990  -112.531000
  C    -89.563700   -7.509550  -112.043000
  H    -87.453800   -4.965230  -112.484000
  C    -90.168200   -5.295720  -113.207000
  H    -90.735900   -5.873830  -113.791000
  H    -89.678800   -4.633080  -113.899000
  C    -91.097000   -4.513600  -112.293000
  H    -91.878900   -5.083940  -111.921000
  H    -91.634100   -3.888190  -113.023000
  C    -90.302800   -3.653220  -111.217000
  H    -90.962100   -3.033790  -110.603000
  H    -89.624800   -2.980540  -111.779000
  H    -89.764500   -4.254620  -110.523000
  H    -93.269400  -10.874300  -111.514000
  H    -86.089000   -6.817740  -111.275000

 Total Charge           Charge          ....    0
 Multiplicity           Mult            ....    1
 Number of Electrons    NEL             ....  134
 Basis Dimension        Dim             ....  322

ORBITAL ENERGIES
----------------

  NO   OCC          E(Eh)            E(eV)
   0   2.0000     -88.966112     -2420.8910
   1   2.0000     -88.962459     -2420.7916
   2   2.0000     -10.329955      -281.0924
   3   2.0000     -10.326669      -281.0029
   4   2.0000     -10.321697      -280.8677
   5   2.0000     -10.318794      -280.7887
   6   2.0000     -10.306843      -280.4635
   7   2.0000     -10.300905      -280.3019
   8   2.0000     -10.295701      -280.1603
   9   2.0000     -10.291272      -280.0397
  10   2.0000     -10.290817      -280.0274
  11   2.0000     -10.289244      -279.9846
  12   2.0000     -10.283146      -279.8186
  13   2.0000     -10.281431      -279.7720
  14   2.0000     -10.279950      -279.7317
  15   2.0000     -10.278544      -279.6934
  16   2.0000      -8.080036      -219.8689
  17   2.0000      -8.076344      -219.7685
  18   2.0000      -6.038655      -164.3202
  19   2.0000      -6.034945      -164.2192
  20   2.0000      -6.034813      -164.2156
  21   2.0000      -6.031082      -164.1141
  22   2.0000      -6.030561      -164.0999
  23   2.0000      -6.026928      -164.0010
  24   2.0000      -1.001328       -27.2475
  25   2.0000      -0.977294       -26.5935
  26   2.0000      -0.911172       -24.7943
  27   2.0000      -0.908925       -24.7331
  28   2.0000      -0.867353       -23.6019
  29   2.0000      -0.845944       -23.0193
  30   2.0000      -0.838321       -22.8119
  31   2.0000      -0.816920       -22.2295
  32   2.0000      -0.787166       -21.4199
  33   2.0000      -0.769753       -20.9461
  34   2.0000      -0.713543       -19.4165
  35   2.0000      -0.701139       -19.0790
  36   2.0000      -0.685834       -18.6625
  37   2.0000      -0.662753       -18.0344
  38   2.0000      -0.637654       -17.3514
  39   2.0000      -0.624848       -17.0030
  40   2.0000      -0.593796       -16.1580
  41   2.0000      -0.565694       -15.3933
  42   2.0000      -0.558068       -15.1858
  43   2.0000      -0.549069       -14.9409
  44   2.0000      -0.544589       -14.8190
  45   2.0000      -0.537358       -14.6223
  46   2.0000      -0.519034       -14.1236
  47   2.0000      -0.503796       -13.7090
  48   2.0000      -0.496990       -13.5238
  49   2.0000      -0.495054       -13.4711
  50   2.0000      -0.486605       -13.2412
  51   2.0000      -0.481303       -13.0969
  52   2.0000      -0.472751       -12.8642
  53   2.0000      -0.464524       -12.6403
  54   2.0000      -0.453920       -12.3518
  55   2.0000      -0.450819       -12.2674
  56   2.0000      -0.442623       -12.0444
  57   2.0000      -0.439312       -11.9543
  58   2.0000      -0.432215       -11.7612
  59   2.0000      -0.427454       -11.6316
  60   2.0000      -0.423697       -11.5294
  61   2.0000      -0.416645       -11.3375
  62   2.0000      -0.413070       -11.2402
  63   2.0000      -0.350046        -9.5252
  64   2.0000      -0.330632        -8.9970
  65   2.0000      -0.324185        -8.8215
  66   2.0000      -0.291122        -7.9218
  67   0.0000       0.028333         0.7710
  68   0.0000       0.069632         1.8948
  69   0.0000       0.103409         2.8139
  70   0.0000       0.108530         2.9533
  71   0.0000       0.133300         3.6273

MULLIKEN ATOMIC CHARGES
-----------------------
   0 S :    0.110047
   1 C :   -0.138133
   2 C :   -0.129280
   3 C :    0.016608
   4 C :   -0.129267
   5 H :    0.025737
   6 C :    0.097864
   7 H :   -0.004358
   8 H :    0.039225
   9 C :   -0.066376
  10 H :    0.020392
  11 H :    0.039975
  12 C :   -0.076662
  13 H :    0.035286
  14 H :    0.035644
  15 H :    0.051259
  16 S :    0.090222
  17 C :   -0.103980
  18 C :   -0.013463
  19 C :   -0.071203
  20 C :   -0.152865
  21 H :    0.006309
  22 C :    0.158252
  23 H :   -0.046400
  24 H :    0.011923
  25 C :   -0.040657
  26 H :    0.016629
  27 H :    0.018937
  28 C :   -0.050182
  29 H :    0.032102
  30 H :    0.027402
  31 H :    0.046531
  32 H :    0.065685
  33 H :    0.076797
Sum of atomic charges:   -0.0000000

LOEWDIN ATOMIC CHARGES
----------------------
   0 S :    0.382411
   1 C :   -0.205519
   2 C :   -0.054459
   3 C :   -0.066474
   4 C :   -0.182135
   5 H :    0.032114
   6 C :   -0.036796
   7 H :    0.021986
   8 H :    0.035658
   9 C :   -0.034869
  10 H :    0.013308
  11 H :    0.033557
  12 C :   -0.066593
  13 H :    0.029265
  14 H :    0.031323
  15 H :    0.022248
  16 S :    0.375341
  17 C :   -0.179351
  18 C :   -0.069556
  19 C :   -0.051756
  20 C :   -0.180789
  21 H :    0.027074
  22 C :   -0.020863
  23 H :    0.009892
  24 H :    0.028913
  25 C :   -0.025732
  26 H :    0.013923
  27 H :    0.027098
  28 C :   -0.061075
  29 H :    0.025921
  30 H :    0.026160
  31 H :    0.023359
  32 H :    0.036100
  33 H :    0.040316

  Mayer bond orders larger than 0.100000
B(  0-S ,  1-C ) :   1.1209 B(  0-S ,  4-C ) :   1.1373 B(  1-C ,  2-C ) :   1.6281
B(  1-C , 32-H ) :   0.9621 B(  2-C ,  3-C ) :   1.2149 B(  2-C ,  6-C ) :   1.0156
B(  3-C ,  4-C ) :   1.6098 B(  3-C ,  5-H ) :   0.9883 B(  4-C , 20-C ) :   1.0276
B(  6-C ,  7-H ) :   0.9361 B(  6-C ,  8-H ) :   0.9328 B(  6-C ,  9-C ) :   1.0725
B(  9-C , 10-H ) :   0.9564 B(  9-C , 11-H ) :   0.9549 B(  9-C , 12-C ) :   1.0705
B( 12-C , 13-H ) :   0.9754 B( 12-C , 14-H ) :   0.9756 B( 12-C , 15-H ) :   0.9782
B( 16-S , 17-C ) :   1.1398 B( 16-S , 20-C ) :   1.1269 B( 17-C , 18-C ) :   1.6193
B( 17-C , 33-H ) :   0.9606 B( 18-C , 19-C ) :   1.2216 B( 18-C , 21-H ) :   0.9934
B( 19-C , 20-C ) :   1.6276 B( 19-C , 22-C ) :   1.0397 B( 22-C , 23-H ) :   0.9051
B( 22-C , 24-H ) :   0.9308 B( 22-C , 25-C ) :   1.0885 B( 25-C , 26-H ) :   0.9574
B( 25-C , 27-H ) :   0.9528 B( 25-C , 28-C ) :   1.0625 B( 28-C , 29-H ) :   0.9766
B( 28-C , 30-H ) :   0.9769 B( 28-C , 31-H ) :   0.9765

Dispersion correction           -0.015166175
FINAL SINGLE POINT ENERGY     -1339.869214804725

DIPOLE MOMENT
-------------
                                X             Y             Z
Electronic contribution:     17.22727     -15.33550      13.37721
Nuclear contribution   :    -17.59704      15.68147     -14.00313
                        -----------------------------------------
Total Dipole Moment    :     -0.36977       0.34596      -0.62593
                        -----------------------------------------
Magnitude (a.u.)       :      0.80511
Magnitude (Debye)      :      2.04644

Rotational constants in cm-1:     0.019197     0.009396     0.007364
Rotational constants in MHz :   575.519121   281.676679   220.779253

                             ****ORCA TERMINATED NORMALLY****
TOTAL RUN TIME: 0 days 0 hours 0 minutes 22 seconds 168 msec
