                         Program Version 4.2.1 -  RELEASE  -
|  1> ! wB97X-D3 SP def2-SVP
|  2> %pal
|  3> nprocs 24
|  4> end
|  5>
|  6> * xyz 0 1
|  7> S 	 -101.741 	 41.174 	 -87.4009
|  8> C 	 -103.071 	 41.2657 	 -88.6131
|  9> C 	 -103.588 	 42.5577 	 -88.6904
| 10> C 	 -102.791 	 43.4672 	 -87.9334
| 11> C 	 -101.854 	 42.8752 	 -87.149
| 12> H 	 -103.12 	 44.4924 	 -87.956
| 13> C 	 -104.825 	 42.9703 	 -89.3711
| 14> H 	 -105.099 	 42.3281 	 -90.144
| 15> H 	 -104.626 	 43.935 	 -89.8355
| 16> C 	 -105.991 	 42.8997 	 -88.4266
| 17> H 	 -106.865 	 43.0762 	 -89.036
| 18> H 	 -106.145 	 41.9472 	 -87.9486
| 19> C 	 -105.935 	 43.9899 	 -87.4274
| 20> H 	 -105.804 	 45.0323 	 -87.8398
| 21> H 	 -106.918 	 43.9675 	 -87.0135
| 22> H 	 -105.157 	 43.7682 	 -86.6496
| 23> S 	 -99.2877 	 42.8561 	 -86.1426
| 24> C 	 -98.7114 	 44.0779 	 -85.0054
| 25> C 	 -99.7722 	 44.9604 	 -84.6837
| 26> C 	 -100.995 	 44.6846 	 -85.405
| 27> C 	 -100.888 	 43.6071 	 -86.285
| 28> H 	 -99.6164 	 45.8586 	 -83.9664
| 29> C 	 -102.237 	 45.5035 	 -85.0643
| 30> H 	 -102.787 	 46.015 	 -85.857
| 31> H 	 -101.821 	 46.2604 	 -84.3882
| 32> C 	 -103.275 	 44.7617 	 -84.2507
| 33> H 	 -102.753 	 44.234 	 -83.5115
| 34> H 	 -103.693 	 43.9943 	 -84.8307
| 35> C 	 -104.378 	 45.7243 	 -83.63
| 36> H 	 -103.821 	 46.4434 	 -82.9884
| 37> H 	 -104.964 	 45.1777 	 -82.9498
| 38> H 	 -105.068 	 46.2148 	 -84.2996
| 39> H 	 -103.589 	 40.4904 	 -89.1955
| 40> H 	 -97.6676 	 44.1558 	 -84.6895
| 41> *
| 42>
| 43>                          ****END OF INPUT****

CARTESIAN COORDINATES (ANGSTROEM)
---------------------------------
  S    -101.741000   41.174000  -87.400900
  C    -103.071000   41.265700  -88.613100
  C    -103.588000   42.557700  -88.690400
  C    -102.791000   43.467200  -87.933400
  C    -101.854000   42.875200  -87.149000
  H    -103.120000   44.492400  -87.956000
  C    -104.825000   42.970300  -89.371100
  H    -105.099000   42.328100  -90.144000
  H    -104.626000   43.935000  -89.835500
  C    -105.991000   42.899700  -88.426600
  H    -106.865000   43.076200  -89.036000
  H    -106.145000   41.947200  -87.948600
  C    -105.935000   43.989900  -87.427400
  H    -105.804000   45.032300  -87.839800
  H    -106.918000   43.967500  -87.013500
  H    -105.157000   43.768200  -86.649600
  S    -99.287700   42.856100  -86.142600
  C    -98.711400   44.077900  -85.005400
  C    -99.772200   44.960400  -84.683700
  C    -100.995000   44.684600  -85.405000
  C    -100.888000   43.607100  -86.285000
  H    -99.616400   45.858600  -83.966400
  C    -102.237000   45.503500  -85.064300
  H    -102.787000   46.015000  -85.857000
  H    -101.821000   46.260400  -84.388200
  C    -103.275000   44.761700  -84.250700
  H    -102.753000   44.234000  -83.511500
  H    -103.693000   43.994300  -84.830700
  C    -104.378000   45.724300  -83.630000
  H    -103.821000   46.443400  -82.988400
  H    -104.964000   45.177700  -82.949800
  H    -105.068000   46.214800  -84.299600
  H    -103.589000   40.490400  -89.195500
  H    -97.667600   44.155800  -84.689500

 Total Charge           Charge          ....    0
 Multiplicity           Mult            ....    1
 Number of Electrons    NEL             ....  134
 Basis Dimension        Dim             ....  322

ORBITAL ENERGIES
----------------

  NO   OCC          E(Eh)            E(eV)
   0   2.0000     -88.971650     -2421.0417
   1   2.0000     -88.966143     -2420.8918
   2   2.0000     -10.333850      -281.1984
   3   2.0000     -10.331313      -281.1293
   4   2.0000     -10.325309      -280.9659
   5   2.0000     -10.315437      -280.6973
   6   2.0000     -10.309005      -280.5223
   7   2.0000     -10.308794      -280.5165
   8   2.0000     -10.294971      -280.1404
   9   2.0000     -10.289502      -279.9916
  10   2.0000     -10.287620      -279.9404
  11   2.0000     -10.282052      -279.7889
  12   2.0000     -10.280233      -279.7394
  13   2.0000     -10.278614      -279.6953
  14   2.0000     -10.276956      -279.6502
  15   2.0000     -10.275432      -279.6087
  16   2.0000      -8.085567      -220.0195
  17   2.0000      -8.080278      -219.8755
  18   2.0000      -6.044300      -164.4738
  19   2.0000      -6.040248      -164.3635
  20   2.0000      -6.038872      -164.3261
  21   2.0000      -6.036071      -164.2498
  22   2.0000      -6.034727      -164.2133
  23   2.0000      -6.031123      -164.1152
  24   2.0000      -1.005148       -27.3515
  25   2.0000      -0.979835       -26.6627
  26   2.0000      -0.930052       -25.3080
  27   2.0000      -0.908198       -24.7133
  28   2.0000      -0.866577       -23.5807
  29   2.0000      -0.849231       -23.1088
  30   2.0000      -0.842035       -22.9129
  31   2.0000      -0.814532       -22.1645
  32   2.0000      -0.784199       -21.3391
  33   2.0000      -0.774398       -21.0724
  34   2.0000      -0.710124       -19.3235
  35   2.0000      -0.703516       -19.1437
  36   2.0000      -0.689938       -18.7742
  37   2.0000      -0.661934       -18.0121
  38   2.0000      -0.632896       -17.2220
  39   2.0000      -0.622983       -16.9522
  40   2.0000      -0.598993       -16.2994
  41   2.0000      -0.578440       -15.7401
  42   2.0000      -0.562751       -15.3132
  43   2.0000      -0.556308       -15.1379
  44   2.0000      -0.541751       -14.7418
  45   2.0000      -0.524046       -14.2600
  46   2.0000      -0.513956       -13.9855
  47   2.0000      -0.512219       -13.9382
  48   2.0000      -0.507547       -13.8111
  49   2.0000      -0.497245       -13.5307
  50   2.0000      -0.488964       -13.3054
  51   2.0000      -0.484537       -13.1849
  52   2.0000      -0.465798       -12.6750
  53   2.0000      -0.462311       -12.5801
  54   2.0000      -0.460372       -12.5274
  55   2.0000      -0.450474       -12.2580
  56   2.0000      -0.445495       -12.1225
  57   2.0000      -0.440123       -11.9764
  58   2.0000      -0.434946       -11.8355
  59   2.0000      -0.428372       -11.6566
  60   2.0000      -0.420570       -11.4443
  61   2.0000      -0.413350       -11.2478
  62   2.0000      -0.409490       -11.1428
  63   2.0000      -0.350467        -9.5367
  64   2.0000      -0.332947        -9.0599
  65   2.0000      -0.330173        -8.9845
  66   2.0000      -0.286814        -7.8046
  67   0.0000       0.023770         0.6468
  68   0.0000       0.073633         2.0037
  69   0.0000       0.095745         2.6054
  70   0.0000       0.120496         3.2789
  71   0.0000       0.128336         3.4922

MULLIKEN ATOMIC CHARGES
-----------------------
   0 S :    0.113923
   1 C :   -0.118996
   2 C :   -0.143452
   3 C :    0.020201
   4 C :   -0.096813
   5 H :   -0.000654
   6 C :    0.113322
   7 H :   -0.004907
   8 H :    0.026636
   9 C :   -0.040803
  10 H :    0.018275
  11 H :    0.028328
  12 C :   -0.079710
  13 H :    0.032727
  14 H :    0.023810
  15 H :    0.062336
  16 S :    0.086278
  17 C :   -0.110114
  18 C :   -0.061149
  19 C :   -0.056400
  20 C :   -0.123578
  21 H :    0.059575
  22 C :    0.062381
  23 H :    0.032502
  24 H :    0.003173
  25 C :   -0.038905
  26 H :    0.006450
  27 H :    0.015162
  28 C :   -0.032059
  29 H :    0.027628
  30 H :    0.020398
  31 H :    0.037991
  32 H :    0.043845
  33 H :    0.072599
Sum of atomic charges:    0.0000000

LOEWDIN ATOMIC CHARGES
----------------------
   0 S :    0.398507
   1 C :   -0.197427
   2 C :   -0.055256
   3 C :   -0.066862
   4 C :   -0.197620
   5 H :    0.028237
   6 C :   -0.030203
   7 H :    0.022206
   8 H :    0.033818
   9 C :   -0.033259
  10 H :    0.022411
  11 H :    0.028345
  12 C :   -0.070788
  13 H :    0.027827
  14 H :    0.023367
  15 H :    0.031463
  16 S :    0.390545
  17 C :   -0.188095
  18 C :   -0.081227
  19 C :   -0.061755
  20 C :   -0.180469
  21 H :    0.047787
  22 C :   -0.031137
  23 H :    0.027309
  24 H :    0.027737
  25 C :   -0.029088
  26 H :    0.018709
  27 H :    0.012498
  28 C :   -0.058330
  29 H :    0.028830
  30 H :    0.020177
  31 H :    0.024034
  32 H :    0.033061
  33 H :    0.034650

  Mayer bond orders larger than 0.100000
B(  0-S ,  1-C ) :   1.1083 B(  0-S ,  4-C ) :   1.1468 B(  1-C ,  2-C ) :   1.6346
B(  1-C , 32-H ) :   0.9591 B(  2-C ,  3-C ) :   1.2524 B(  2-C ,  6-C ) :   1.0385
B(  3-C ,  4-C ) :   1.5638 B(  3-C ,  5-H ) :   0.9898 B(  4-C , 20-C ) :   1.0388
B(  6-C ,  7-H ) :   0.9222 B(  6-C ,  8-H ) :   0.9377 B(  6-C ,  9-C ) :   1.0762
B(  9-C , 10-H ) :   0.9519 B(  9-C , 11-H ) :   0.9459 B(  9-C , 12-C ) :   1.0968
B( 12-C , 13-H ) :   0.9694 B( 12-C , 14-H ) :   0.9671 B( 12-C , 15-H ) :   0.9632
B( 16-S , 17-C ) :   1.1596 B( 16-S , 20-C ) :   1.1351 B( 17-C , 18-C ) :   1.5868
B( 17-C , 20-C ) :   0.1030 B( 17-C , 33-H ) :   0.9683 B( 18-C , 19-C ) :   1.2683
B( 18-C , 21-H ) :   0.9664 B( 19-C , 20-C ) :   1.5837 B( 19-C , 22-C ) :   1.0388
B( 22-C , 23-H ) :   0.9393 B( 22-C , 24-H ) :   0.9295 B( 22-C , 25-C ) :   1.0670
B( 25-C , 26-H ) :   0.9434 B( 25-C , 27-H ) :   0.9534 B( 25-C , 28-C ) :   1.0745
B( 28-C , 29-H ) :   0.9757 B( 28-C , 30-H ) :   0.9753 B( 28-C , 31-H ) :   0.9775

Dispersion correction           -0.015707787
FINAL SINGLE POINT ENERGY     -1339.865719467618

DIPOLE MOMENT
-------------
                                X             Y             Z
Electronic contribution:     26.66371     -15.11210      -5.27507
Nuclear contribution   :    -27.33617      15.50412       5.33660
                        -----------------------------------------
Total Dipole Moment    :     -0.67246       0.39203       0.06153
                        -----------------------------------------
Magnitude (a.u.)       :      0.78082
Magnitude (Debye)      :      1.98468

Rotational constants in cm-1:     0.017581     0.010953     0.007307
Rotational constants in MHz :   527.058112   328.376699   219.050444

                             ****ORCA TERMINATED NORMALLY****
TOTAL RUN TIME: 0 days 0 hours 0 minutes 21 seconds 801 msec
