                         Program Version 4.2.1 -  RELEASE  -
|  1> ! wB97X-D3 SP def2-SVP
|  2> %pal
|  3> nprocs 24
|  4> end
|  5>
|  6> * xyz 0 1
|  7> S 	 -128.288 	 28.4052 	 -16.6909
|  8> C 	 -126.793 	 29.351 	 -16.8571
|  9> C 	 -126.373 	 29.4239 	 -18.163
| 10> C 	 -127.287 	 28.7134 	 -19.0383
| 11> C 	 -128.268 	 27.9813 	 -18.384
| 12> H 	 -127.276 	 28.6583 	 -20.1026
| 13> C 	 -125.277 	 30.1839 	 -18.8359
| 14> H 	 -124.71 	 29.4436 	 -19.5154
| 15> H 	 -124.637 	 30.547 	 -18.0617
| 16> C 	 -125.722 	 31.2972 	 -19.75
| 17> H 	 -124.929 	 31.5595 	 -20.4026
| 18> H 	 -126.375 	 31.0609 	 -20.5494
| 19> C 	 -126.264 	 32.5726 	 -19.0671
| 20> H 	 -126.736 	 33.2313 	 -19.8339
| 21> H 	 -127.024 	 32.2711 	 -18.2318
| 22> H 	 -125.498 	 33.221 	 -18.6278
| 23> S 	 -128.932 	 25.3582 	 -18.6589
| 24> C 	 -130.327 	 24.9356 	 -19.5219
| 25> C 	 -131.114 	 26.0017 	 -19.9158
| 26> C 	 -130.499 	 27.2402 	 -19.5696
| 27> C 	 -129.243 	 27.0574 	 -18.9657
| 28> H 	 -132.081 	 25.8614 	 -20.4487
| 29> C 	 -131.322 	 28.5126 	 -19.6277
| 30> H 	 -130.657 	 29.1164 	 -18.9786
| 31> H 	 -132.212 	 28.4342 	 -18.985
| 32> C 	 -131.416 	 29.2228 	 -20.9915
| 33> H 	 -132.2 	 28.6359 	 -21.5279
| 34> H 	 -130.478 	 29.2966 	 -21.5744
| 35> C 	 -131.877 	 30.6439 	 -20.8149
| 36> H 	 -132.912 	 30.6049 	 -20.4644
| 37> H 	 -131.805 	 31.2612 	 -21.6942
| 38> H 	 -131.263 	 31.2022 	 -20.0682
| 39> H 	 -126.413 	 29.9796 	 -16.0918
| 40> H 	 -130.653 	 23.8857 	 -19.6054
| 41> *
| 42>
| 43>                          ****END OF INPUT****

CARTESIAN COORDINATES (ANGSTROEM)
---------------------------------
  S    -128.288000   28.405200  -16.690900
  C    -126.793000   29.351000  -16.857100
  C    -126.373000   29.423900  -18.163000
  C    -127.287000   28.713400  -19.038300
  C    -128.268000   27.981300  -18.384000
  H    -127.276000   28.658300  -20.102600
  C    -125.277000   30.183900  -18.835900
  H    -124.710000   29.443600  -19.515400
  H    -124.637000   30.547000  -18.061700
  C    -125.722000   31.297200  -19.750000
  H    -124.929000   31.559500  -20.402600
  H    -126.375000   31.060900  -20.549400
  C    -126.264000   32.572600  -19.067100
  H    -126.736000   33.231300  -19.833900
  H    -127.024000   32.271100  -18.231800
  H    -125.498000   33.221000  -18.627800
  S    -128.932000   25.358200  -18.658900
  C    -130.327000   24.935600  -19.521900
  C    -131.114000   26.001700  -19.915800
  C    -130.499000   27.240200  -19.569600
  C    -129.243000   27.057400  -18.965700
  H    -132.081000   25.861400  -20.448700
  C    -131.322000   28.512600  -19.627700
  H    -130.657000   29.116400  -18.978600
  H    -132.212000   28.434200  -18.985000
  C    -131.416000   29.222800  -20.991500
  H    -132.200000   28.635900  -21.527900
  H    -130.478000   29.296600  -21.574400
  C    -131.877000   30.643900  -20.814900
  H    -132.912000   30.604900  -20.464400
  H    -131.805000   31.261200  -21.694200
  H    -131.263000   31.202200  -20.068200
  H    -126.413000   29.979600  -16.091800
  H    -130.653000   23.885700  -19.605400

 Total Charge           Charge          ....    0
 Multiplicity           Mult            ....    1
 Number of Electrons    NEL             ....  134
 Basis Dimension        Dim             ....  322

ORBITAL ENERGIES
----------------

  NO   OCC          E(Eh)            E(eV)
   0   2.0000     -88.965405     -2420.8718
   1   2.0000     -88.963694     -2420.8252
   2   2.0000     -10.327068      -281.0138
   3   2.0000     -10.325044      -280.9587
   4   2.0000     -10.314598      -280.6745
   5   2.0000     -10.313271      -280.6384
   6   2.0000     -10.304226      -280.3922
   7   2.0000     -10.301679      -280.3229
   8   2.0000     -10.297594      -280.2118
   9   2.0000     -10.291948      -280.0581
  10   2.0000     -10.291013      -280.0327
  11   2.0000     -10.290946      -280.0309
  12   2.0000     -10.290371      -280.0152
  13   2.0000     -10.287687      -279.9422
  14   2.0000     -10.281510      -279.7741
  15   2.0000     -10.274729      -279.5896
  16   2.0000      -8.081237      -219.9017
  17   2.0000      -8.078094      -219.8161
  18   2.0000      -6.039498      -164.3431
  19   2.0000      -6.036672      -164.2662
  20   2.0000      -6.035640      -164.2381
  21   2.0000      -6.032713      -164.1585
  22   2.0000      -6.032147      -164.1431
  23   2.0000      -6.028732      -164.0501
  24   2.0000      -1.005929       -27.3727
  25   2.0000      -0.983894       -26.7731
  26   2.0000      -0.916021       -24.9262
  27   2.0000      -0.910295       -24.7704
  28   2.0000      -0.866738       -23.5852
  29   2.0000      -0.855363       -23.2756
  30   2.0000      -0.842551       -22.9270
  31   2.0000      -0.810479       -22.0542
  32   2.0000      -0.781759       -21.2727
  33   2.0000      -0.770793       -20.9743
  34   2.0000      -0.709699       -19.3119
  35   2.0000      -0.699603       -19.0372
  36   2.0000      -0.690341       -18.7851
  37   2.0000      -0.655652       -17.8412
  38   2.0000      -0.643476       -17.5099
  39   2.0000      -0.618973       -16.8431
  40   2.0000      -0.594418       -16.1749
  41   2.0000      -0.569274       -15.4907
  42   2.0000      -0.562587       -15.3088
  43   2.0000      -0.553581       -15.0637
  44   2.0000      -0.531294       -14.4572
  45   2.0000      -0.529351       -14.4044
  46   2.0000      -0.517793       -14.0899
  47   2.0000      -0.515392       -14.0245
  48   2.0000      -0.500899       -13.6302
  49   2.0000      -0.495402       -13.4806
  50   2.0000      -0.487023       -13.2526
  51   2.0000      -0.477927       -13.0051
  52   2.0000      -0.472379       -12.8541
  53   2.0000      -0.464391       -12.6367
  54   2.0000      -0.457130       -12.4391
  55   2.0000      -0.446704       -12.1554
  56   2.0000      -0.442680       -12.0459
  57   2.0000      -0.435769       -11.8579
  58   2.0000      -0.434065       -11.8115
  59   2.0000      -0.429555       -11.6888
  60   2.0000      -0.418739       -11.3945
  61   2.0000      -0.407852       -11.0982
  62   2.0000      -0.406895       -11.0722
  63   2.0000      -0.333892        -9.0857
  64   2.0000      -0.325333        -8.8528
  65   2.0000      -0.324040        -8.8176
  66   2.0000      -0.307572        -8.3695
  67   0.0000       0.046684         1.2703
  68   0.0000       0.054562         1.4847
  69   0.0000       0.111411         3.0316
  70   0.0000       0.115580         3.1451
  71   0.0000       0.124184         3.3792

MULLIKEN ATOMIC CHARGES
-----------------------
   0 S :    0.107854
   1 C :   -0.114242
   2 C :   -0.072239
   3 C :    0.043846
   4 C :   -0.178072
   5 H :   -0.000002
   6 C :    0.080703
   7 H :    0.049079
   8 H :    0.013829
   9 C :   -0.032636
  10 H :    0.006898
  11 H :    0.010154
  12 C :   -0.094646
  13 H :    0.037629
  14 H :    0.054322
  15 H :    0.033850
  16 S :    0.129679
  17 C :   -0.096199
  18 C :   -0.049570
  19 C :   -0.008094
  20 C :   -0.199719
  21 H :    0.034514
  22 C :    0.023455
  23 H :    0.011061
  24 H :    0.047304
  25 C :   -0.054794
  26 H :    0.034472
  27 H :    0.040030
  28 C :   -0.049379
  29 H :    0.027337
  30 H :    0.030612
  31 H :    0.033297
  32 H :    0.036832
  33 H :    0.062836
Sum of atomic charges:    0.0000000

LOEWDIN ATOMIC CHARGES
----------------------
   0 S :    0.391497
   1 C :   -0.186542
   2 C :   -0.063209
   3 C :   -0.051440
   4 C :   -0.204408
   5 H :    0.025046
   6 C :   -0.029565
   7 H :    0.048276
   8 H :    0.026403
   9 C :   -0.049162
  10 H :    0.023619
  11 H :    0.022071
  12 C :   -0.075502
  13 H :    0.030169
  14 H :    0.037252
  15 H :    0.021748
  16 S :    0.438231
  17 C :   -0.203077
  18 C :   -0.082557
  19 C :   -0.049113
  20 C :   -0.213865
  21 H :    0.039378
  22 C :   -0.040586
  23 H :    0.030277
  24 H :    0.039363
  25 C :   -0.041615
  26 H :    0.026802
  27 H :    0.031398
  28 C :   -0.068860
  29 H :    0.024885
  30 H :    0.021973
  31 H :    0.028399
  32 H :    0.021617
  33 H :    0.031098

  Mayer bond orders larger than 0.100000
B(  0-S ,  1-C ) :   1.1242 B(  0-S ,  4-C ) :   1.1392 B(  1-C ,  2-C ) :   1.6320
B(  1-C , 32-H ) :   0.9696 B(  2-C ,  3-C ) :   1.1931 B(  2-C ,  6-C ) :   1.0388
B(  3-C ,  4-C ) :   1.6243 B(  3-C ,  5-H ) :   0.9959 B(  4-C , 20-C ) :   1.0095
B(  6-C ,  7-H ) :   0.9309 B(  6-C ,  8-H ) :   0.9391 B(  6-C ,  9-C ) :   1.0767
B(  9-C , 10-H ) :   0.9422 B(  9-C , 11-H ) :   0.9494 B(  9-C , 12-C ) :   1.0694
B( 12-C , 13-H ) :   0.9735 B( 12-C , 14-H ) :   0.9765 B( 12-C , 15-H ) :   0.9763
B( 16-S , 17-C ) :   1.1865 B( 16-S , 20-C ) :   1.1576 B( 17-C , 18-C ) :   1.5890
B( 17-C , 33-H ) :   0.9612 B( 18-C , 19-C ) :   1.2517 B( 18-C , 21-H ) :   0.9874
B( 19-C , 20-C ) :   1.5890 B( 19-C , 22-C ) :   1.0294 B( 22-C , 23-H ) :   0.9329
B( 22-C , 24-H ) :   0.9453 B( 22-C , 25-C ) :   1.0450 B( 25-C , 26-H ) :   0.9564
B( 25-C , 27-H ) :   0.9571 B( 25-C , 28-C ) :   1.0896 B( 28-C , 29-H ) :   0.9721
B( 28-C , 30-H ) :   0.9751 B( 28-C , 31-H ) :   0.9742

Dispersion correction           -0.014332010
FINAL SINGLE POINT ENERGY     -1339.868485508282

DIPOLE MOMENT
-------------
                                X             Y             Z
Electronic contribution:      1.43798     -25.29456      13.64718
Nuclear contribution   :     -1.50344      25.72401     -14.06964
                        -----------------------------------------
Total Dipole Moment    :     -0.06546       0.42945      -0.42246
                        -----------------------------------------
Magnitude (a.u.)       :      0.60596
Magnitude (Debye)      :      1.54023

Rotational constants in cm-1:     0.017275     0.009348     0.007067
Rotational constants in MHz :   517.879876   280.244752   211.864321

                             ****ORCA TERMINATED NORMALLY****
TOTAL RUN TIME: 0 days 0 hours 0 minutes 21 seconds 614 msec
