                         Program Version 4.2.1 -  RELEASE  -
|  1> ! wB97X-D3 SP def2-SVP
|  2> %pal
|  3> nprocs 24
|  4> end
|  5>
|  6> * xyz 0 1
|  7> S 	 -42.8963 	 -7.3661 	 8.24403
|  8> C 	 -41.9114 	 -7.04221 	 6.82942
|  9> C 	 -41.5026 	 -5.72767 	 6.73461
| 10> C 	 -42.0669 	 -4.94981 	 7.75178
| 11> C 	 -42.9574 	 -5.62831 	 8.57222
| 12> H 	 -42.0751 	 -3.87552 	 7.77518
| 13> C 	 -40.7045 	 -5.21274 	 5.54802
| 14> H 	 -40.2802 	 -5.97936 	 4.95194
| 15> H 	 -39.931 	 -4.63163 	 5.99395
| 16> C 	 -41.4999 	 -4.35763 	 4.54325
| 17> H 	 -41.1364 	 -4.39919 	 3.5157
| 18> H 	 -42.5024 	 -4.67491 	 4.46044
| 19> C 	 -41.5711 	 -2.81189 	 4.77004
| 20> H 	 -42.2755 	 -2.36543 	 4.09416
| 21> H 	 -41.8923 	 -2.46381 	 5.78457
| 22> H 	 -40.5938 	 -2.38868 	 4.61023
| 23> S 	 -45.5522 	 -5.29563 	 9.33801
| 24> C 	 -46.0089 	 -4.36686 	 10.7428
| 25> C 	 -44.8507 	 -3.88644 	 11.3477
| 26> C 	 -43.5974 	 -4.26347 	 10.7514
| 27> C 	 -43.8168 	 -5.07449 	 9.64177
| 28> H 	 -44.9198 	 -3.23509 	 12.1372
| 29> C 	 -42.2552 	 -3.79641 	 11.3051
| 30> H 	 -41.4284 	 -4.25945 	 10.8065
| 31> H 	 -42.2523 	 -4.165 	 12.3152
| 32> C 	 -42.2118 	 -2.25036 	 11.2102
| 33> H 	 -42.846 	 -1.85828 	 11.961
| 34> H 	 -42.6719 	 -2.10632 	 10.22
| 35> C 	 -40.8017 	 -1.61592 	 11.4062
| 36> H 	 -40.3655 	 -1.87899 	 12.3543
| 37> H 	 -40.8327 	 -0.549803 	 11.2309
| 38> H 	 -40.0565 	 -2.03024 	 10.6833
| 39> H 	 -41.8618 	 -7.70793 	 6.01079
| 40> H 	 -47.0102 	 -4.12002 	 10.9965
| 41> *
| 42>
| 43>                          ****END OF INPUT****

CARTESIAN COORDINATES (ANGSTROEM)
---------------------------------
  S    -42.896300   -7.366100    8.244030
  C    -41.911400   -7.042210    6.829420
  C    -41.502600   -5.727670    6.734610
  C    -42.066900   -4.949810    7.751780
  C    -42.957400   -5.628310    8.572220
  H    -42.075100   -3.875520    7.775180
  C    -40.704500   -5.212740    5.548020
  H    -40.280200   -5.979360    4.951940
  H    -39.931000   -4.631630    5.993950
  C    -41.499900   -4.357630    4.543250
  H    -41.136400   -4.399190    3.515700
  H    -42.502400   -4.674910    4.460440
  C    -41.571100   -2.811890    4.770040
  H    -42.275500   -2.365430    4.094160
  H    -41.892300   -2.463810    5.784570
  H    -40.593800   -2.388680    4.610230
  S    -45.552200   -5.295630    9.338010
  C    -46.008900   -4.366860   10.742800
  C    -44.850700   -3.886440   11.347700
  C    -43.597400   -4.263470   10.751400
  C    -43.816800   -5.074490    9.641770
  H    -44.919800   -3.235090   12.137200
  C    -42.255200   -3.796410   11.305100
  H    -41.428400   -4.259450   10.806500
  H    -42.252300   -4.165000   12.315200
  C    -42.211800   -2.250360   11.210200
  H    -42.846000   -1.858280   11.961000
  H    -42.671900   -2.106320   10.220000
  C    -40.801700   -1.615920   11.406200
  H    -40.365500   -1.878990   12.354300
  H    -40.832700   -0.549803   11.230900
  H    -40.056500   -2.030240   10.683300
  H    -41.861800   -7.707930    6.010790
  H    -47.010200   -4.120020   10.996500

 Total Charge           Charge          ....    0
 Multiplicity           Mult            ....    1
 Number of Electrons    NEL             ....  134
 Basis Dimension        Dim             ....  322

ORBITAL ENERGIES
----------------

  NO   OCC          E(Eh)            E(eV)
   0   2.0000     -88.964954     -2420.8595
   1   2.0000     -88.962016     -2420.7795
   2   2.0000     -10.331436      -281.1327
   3   2.0000     -10.328582      -281.0550
   4   2.0000     -10.318591      -280.7831
   5   2.0000     -10.307109      -280.4707
   6   2.0000     -10.306720      -280.4601
   7   2.0000     -10.298737      -280.2429
   8   2.0000     -10.292256      -280.0665
   9   2.0000     -10.290025      -280.0058
  10   2.0000     -10.289970      -280.0043
  11   2.0000     -10.289210      -279.9836
  12   2.0000     -10.288363      -279.9606
  13   2.0000     -10.283934      -279.8401
  14   2.0000     -10.282372      -279.7976
  15   2.0000     -10.278063      -279.6803
  16   2.0000      -8.079406      -219.8518
  17   2.0000      -8.076644      -219.7767
  18   2.0000      -6.037790      -164.2966
  19   2.0000      -6.035176      -164.2255
  20   2.0000      -6.034030      -164.1943
  21   2.0000      -6.031038      -164.1129
  22   2.0000      -6.030241      -164.0912
  23   2.0000      -6.027498      -164.0166
  24   2.0000      -1.002760       -27.2865
  25   2.0000      -0.982516       -26.7356
  26   2.0000      -0.910208       -24.7680
  27   2.0000      -0.908378       -24.7182
  28   2.0000      -0.865066       -23.5396
  29   2.0000      -0.848772       -23.0963
  30   2.0000      -0.844386       -22.9769
  31   2.0000      -0.815734       -22.1972
  32   2.0000      -0.785825       -21.3834
  33   2.0000      -0.774244       -21.0682
  34   2.0000      -0.706999       -19.2384
  35   2.0000      -0.703218       -19.1355
  36   2.0000      -0.698202       -18.9990
  37   2.0000      -0.663921       -18.0662
  38   2.0000      -0.643331       -17.5059
  39   2.0000      -0.621233       -16.9046
  40   2.0000      -0.598234       -16.2788
  41   2.0000      -0.571758       -15.5583
  42   2.0000      -0.568735       -15.4761
  43   2.0000      -0.544460       -14.8155
  44   2.0000      -0.538210       -14.6454
  45   2.0000      -0.528547       -14.3825
  46   2.0000      -0.524694       -14.2777
  47   2.0000      -0.514846       -14.0097
  48   2.0000      -0.507948       -13.8220
  49   2.0000      -0.495124       -13.4730
  50   2.0000      -0.491244       -13.3674
  51   2.0000      -0.478896       -13.0314
  52   2.0000      -0.472882       -12.8678
  53   2.0000      -0.466084       -12.6828
  54   2.0000      -0.457116       -12.4388
  55   2.0000      -0.447796       -12.1852
  56   2.0000      -0.440074       -11.9750
  57   2.0000      -0.436215       -11.8700
  58   2.0000      -0.434963       -11.8360
  59   2.0000      -0.427321       -11.6280
  60   2.0000      -0.424841       -11.5605
  61   2.0000      -0.416937       -11.3454
  62   2.0000      -0.416311       -11.3284
  63   2.0000      -0.338966        -9.2237
  64   2.0000      -0.332112        -9.0372
  65   2.0000      -0.327201        -8.9036
  66   2.0000      -0.297395        -8.0925
  67   0.0000       0.030673         0.8347
  68   0.0000       0.065486         1.7820
  69   0.0000       0.116894         3.1809
  70   0.0000       0.123590         3.3631
  71   0.0000       0.128618         3.4999

MULLIKEN ATOMIC CHARGES
-----------------------
   0 S :    0.112876
   1 C :   -0.110620
   2 C :   -0.097803
   3 C :    0.050898
   4 C :   -0.171310
   5 H :    0.003802
   6 C :    0.133289
   7 H :    0.013441
   8 H :    0.022817
   9 C :   -0.071282
  10 H :    0.027564
  11 H :    0.022898
  12 C :   -0.073177
  13 H :    0.031732
  14 H :    0.027993
  15 H :    0.027538
  16 S :    0.096331
  17 C :   -0.071647
  18 C :   -0.016137
  19 C :   -0.054214
  20 C :   -0.180815
  21 H :   -0.016795
  22 C :    0.127836
  23 H :    0.017385
  24 H :    0.026908
  25 C :   -0.109007
  26 H :    0.029960
  27 H :    0.044654
  28 C :   -0.032603
  29 H :    0.029080
  30 H :    0.042014
  31 H :    0.027832
  32 H :    0.036412
  33 H :    0.052147
Sum of atomic charges:   -0.0000000

LOEWDIN ATOMIC CHARGES
----------------------
   0 S :    0.395860
   1 C :   -0.190410
   2 C :   -0.059025
   3 C :   -0.063368
   4 C :   -0.187823
   5 H :    0.028252
   6 C :   -0.019512
   7 H :    0.029587
   8 H :    0.030490
   9 C :   -0.038573
  10 H :    0.027647
  11 H :    0.019286
  12 C :   -0.066750
  13 H :    0.024725
  14 H :    0.022022
  15 H :    0.019184
  16 S :    0.400016
  17 C :   -0.176243
  18 C :   -0.063247
  19 C :   -0.049521
  20 C :   -0.198042
  21 H :    0.012644
  22 C :   -0.021952
  23 H :    0.026187
  24 H :    0.029992
  25 C :   -0.035787
  26 H :    0.018390
  27 H :    0.028660
  28 C :   -0.066006
  29 H :    0.024111
  30 H :    0.027035
  31 H :    0.028287
  32 H :    0.018123
  33 H :    0.025761

  Mayer bond orders larger than 0.100000
B(  0-S ,  1-C ) :   1.1396 B(  0-S ,  4-C ) :   1.1596 B(  1-C ,  2-C ) :   1.6149
B(  1-C ,  4-C ) :   0.1032 B(  1-C , 32-H ) :   0.9668 B(  2-C ,  3-C ) :   1.2467
B(  2-C ,  6-C ) :   1.0336 B(  3-C ,  4-C ) :   1.5807 B(  3-C ,  5-H ) :   0.9953
B(  4-C , 20-C ) :   1.0074 B(  6-C ,  7-H ) :   0.9390 B(  6-C ,  8-H ) :   0.9397
B(  6-C ,  9-C ) :   1.0473 B(  9-C , 10-H ) :   0.9595 B(  9-C , 11-H ) :   0.9607
B(  9-C , 12-C ) :   1.0771 B( 12-C , 13-H ) :   0.9736 B( 12-C , 14-H ) :   0.9772
B( 12-C , 15-H ) :   0.9774 B( 16-S , 17-C ) :   1.1575 B( 16-S , 20-C ) :   1.1494
B( 17-C , 18-C ) :   1.5903 B( 17-C , 20-C ) :   0.1001 B( 17-C , 33-H ) :   0.9761
B( 18-C , 19-C ) :   1.2332 B( 18-C , 21-H ) :   1.0017 B( 19-C , 20-C ) :   1.5955
B( 19-C , 22-C ) :   1.0447 B( 22-C , 23-H ) :   0.9381 B( 22-C , 24-H ) :   0.9269
B( 22-C , 25-C ) :   1.0425 B( 25-C , 26-H ) :   0.9538 B( 25-C , 27-H ) :   0.9643
B( 25-C , 28-C ) :   1.0843 B( 28-C , 29-H ) :   0.9719 B( 28-C , 30-H ) :   0.9759
B( 28-C , 31-H ) :   0.9755

Dispersion correction           -0.014242179
FINAL SINGLE POINT ENERGY     -1339.877025467380

DIPOLE MOMENT
-------------
                                X             Y             Z
Electronic contribution:    -16.65503     -21.68163       5.58974
Nuclear contribution   :     16.90410      22.30632      -5.70674
                        -----------------------------------------
Total Dipole Moment    :      0.24907       0.62469      -0.11700
                        -----------------------------------------
Magnitude (a.u.)       :      0.68261
Magnitude (Debye)      :      1.73506

Rotational constants in cm-1:     0.015812     0.009246     0.007235
Rotational constants in MHz :   474.021033   277.196559   216.896906

                             ****ORCA TERMINATED NORMALLY****
TOTAL RUN TIME: 0 days 0 hours 0 minutes 21 seconds 522 msec
