                         Program Version 4.2.1 -  RELEASE  -
|  1> ! wB97X-D3 SP def2-SVP
|  2> %pal
|  3> nprocs 24
|  4> end
|  5>
|  6> * xyz 0 1
|  7> S 	 -110.372 	 52.5756 	 -77.3239
|  8> C 	 -111.674 	 52.7166 	 -78.5081
|  9> C 	 -112.884 	 52.4894 	 -77.9056
| 10> C 	 -112.856 	 52.2095 	 -76.5096
| 11> C 	 -111.584 	 52.1678 	 -76.006
| 12> H 	 -113.699 	 52.0815 	 -75.8491
| 13> C 	 -114.141 	 52.4931 	 -78.7114
| 14> H 	 -114.145 	 52.9755 	 -79.6955
| 15> H 	 -114.649 	 53.1879 	 -78.1042
| 16> C 	 -114.893 	 51.1342 	 -78.6528
| 17> H 	 -114.321 	 50.3373 	 -79.1016
| 18> H 	 -114.893 	 50.7971 	 -77.6417
| 19> C 	 -116.299 	 51.2565 	 -79.1821
| 20> H 	 -116.896 	 51.9258 	 -78.6507
| 21> H 	 -116.372 	 51.5048 	 -80.2691
| 22> H 	 -116.747 	 50.2562 	 -79.046
| 23> S 	 -110.328 	 50.573 	 -74.0512
| 24> C 	 -110.235 	 51.1617 	 -72.4546
| 25> C 	 -110.677 	 52.4679 	 -72.3729
| 26> C 	 -111.311 	 52.951 	 -73.5915
| 27> C 	 -111.173 	 52.033 	 -74.6409
| 28> H 	 -110.677 	 52.9737 	 -71.4635
| 29> C 	 -111.978 	 54.2989 	 -73.6928
| 30> H 	 -112.696 	 54.293 	 -72.8269
| 31> H 	 -112.551 	 54.321 	 -74.6074
| 32> C 	 -111.053 	 55.4838 	 -73.742
| 33> H 	 -110.403 	 55.3626 	 -74.6192
| 34> H 	 -110.325 	 55.5228 	 -72.9569
| 35> C 	 -111.864 	 56.7367 	 -73.9357
| 36> H 	 -112.271 	 56.9273 	 -73.0157
| 37> H 	 -112.557 	 56.5986 	 -74.7277
| 38> H 	 -111.169 	 57.5994 	 -74.1882
| 39> H 	 -111.599 	 53.1098 	 -79.5017
| 40> H 	 -109.932 	 50.6818 	 -71.5247
| 41> *
| 42>
| 43>                          ****END OF INPUT****

CARTESIAN COORDINATES (ANGSTROEM)
---------------------------------
  S    -110.372000   52.575600  -77.323900
  C    -111.674000   52.716600  -78.508100
  C    -112.884000   52.489400  -77.905600
  C    -112.856000   52.209500  -76.509600
  C    -111.584000   52.167800  -76.006000
  H    -113.699000   52.081500  -75.849100
  C    -114.141000   52.493100  -78.711400
  H    -114.145000   52.975500  -79.695500
  H    -114.649000   53.187900  -78.104200
  C    -114.893000   51.134200  -78.652800
  H    -114.321000   50.337300  -79.101600
  H    -114.893000   50.797100  -77.641700
  C    -116.299000   51.256500  -79.182100
  H    -116.896000   51.925800  -78.650700
  H    -116.372000   51.504800  -80.269100
  H    -116.747000   50.256200  -79.046000
  S    -110.328000   50.573000  -74.051200
  C    -110.235000   51.161700  -72.454600
  C    -110.677000   52.467900  -72.372900
  C    -111.311000   52.951000  -73.591500
  C    -111.173000   52.033000  -74.640900
  H    -110.677000   52.973700  -71.463500
  C    -111.978000   54.298900  -73.692800
  H    -112.696000   54.293000  -72.826900
  H    -112.551000   54.321000  -74.607400
  C    -111.053000   55.483800  -73.742000
  H    -110.403000   55.362600  -74.619200
  H    -110.325000   55.522800  -72.956900
  C    -111.864000   56.736700  -73.935700
  H    -112.271000   56.927300  -73.015700
  H    -112.557000   56.598600  -74.727700
  H    -111.169000   57.599400  -74.188200
  H    -111.599000   53.109800  -79.501700
  H    -109.932000   50.681800  -71.524700

 Total Charge           Charge          ....    0
 Multiplicity           Mult            ....    1
 Number of Electrons    NEL             ....  134
 Basis Dimension        Dim             ....  322

ORBITAL ENERGIES
----------------

  NO   OCC          E(Eh)            E(eV)
   0   2.0000     -88.965348     -2420.8702
   1   2.0000     -88.961121     -2420.7552
   2   2.0000     -10.333034      -281.1762
   3   2.0000     -10.324843      -280.9533
   4   2.0000     -10.316520      -280.7268
   5   2.0000     -10.310182      -280.5543
   6   2.0000     -10.306039      -280.4416
   7   2.0000     -10.297637      -280.2129
   8   2.0000     -10.297220      -280.2016
   9   2.0000     -10.289801      -279.9997
  10   2.0000     -10.288495      -279.9642
  11   2.0000     -10.284458      -279.8543
  12   2.0000     -10.281996      -279.7873
  13   2.0000     -10.277310      -279.6598
  14   2.0000     -10.276083      -279.6264
  15   2.0000     -10.269534      -279.4482
  16   2.0000      -8.080168      -219.8725
  17   2.0000      -8.074541      -219.7194
  18   2.0000      -6.038732      -164.3223
  19   2.0000      -6.034588      -164.2095
  20   2.0000      -6.033231      -164.1726
  21   2.0000      -6.030919      -164.1096
  22   2.0000      -6.029279      -164.0650
  23   2.0000      -6.025124      -163.9520
  24   2.0000      -1.001616       -27.2553
  25   2.0000      -0.980897       -26.6916
  26   2.0000      -0.918212       -24.9858
  27   2.0000      -0.912968       -24.8431
  28   2.0000      -0.873815       -23.7777
  29   2.0000      -0.852585       -23.2000
  30   2.0000      -0.846916       -23.0458
  31   2.0000      -0.818834       -22.2816
  32   2.0000      -0.782174       -21.2840
  33   2.0000      -0.765902       -20.8412
  34   2.0000      -0.714035       -19.4299
  35   2.0000      -0.702645       -19.1199
  36   2.0000      -0.697787       -18.9878
  37   2.0000      -0.657712       -17.8973
  38   2.0000      -0.644441       -17.5361
  39   2.0000      -0.622891       -16.9497
  40   2.0000      -0.597859       -16.2686
  41   2.0000      -0.572758       -15.5855
  42   2.0000      -0.564824       -15.3696
  43   2.0000      -0.557938       -15.1823
  44   2.0000      -0.528812       -14.3897
  45   2.0000      -0.525457       -14.2984
  46   2.0000      -0.519490       -14.1360
  47   2.0000      -0.516154       -14.0453
  48   2.0000      -0.511561       -13.9203
  49   2.0000      -0.503665       -13.7054
  50   2.0000      -0.496997       -13.5240
  51   2.0000      -0.476066       -12.9544
  52   2.0000      -0.471149       -12.8206
  53   2.0000      -0.468617       -12.7517
  54   2.0000      -0.463487       -12.6121
  55   2.0000      -0.450153       -12.2493
  56   2.0000      -0.445242       -12.1157
  57   2.0000      -0.439370       -11.9559
  58   2.0000      -0.435256       -11.8439
  59   2.0000      -0.424296       -11.5457
  60   2.0000      -0.422053       -11.4847
  61   2.0000      -0.409525       -11.1437
  62   2.0000      -0.402379       -10.9493
  63   2.0000      -0.339436        -9.2365
  64   2.0000      -0.328187        -8.9304
  65   2.0000      -0.324548        -8.8314
  66   2.0000      -0.299141        -8.1400
  67   0.0000       0.041258         1.1227
  68   0.0000       0.051538         1.4024
  69   0.0000       0.116108         3.1594
  70   0.0000       0.123596         3.3632
  71   0.0000       0.131047         3.5660

MULLIKEN ATOMIC CHARGES
-----------------------
   0 S :    0.086920
   1 C :   -0.106021
   2 C :   -0.096893
   3 C :    0.051123
   4 C :   -0.162338
   5 H :    0.020904
   6 C :    0.082696
   7 H :    0.020013
   8 H :    0.006920
   9 C :   -0.057517
  10 H :    0.025897
  11 H :    0.011770
  12 C :   -0.029125
  13 H :    0.017469
  14 H :    0.038312
  15 H :    0.031721
  16 S :    0.122067
  17 C :   -0.080029
  18 C :   -0.023445
  19 C :   -0.028927
  20 C :   -0.192261
  21 H :   -0.007327
  22 C :    0.066950
  23 H :    0.034605
  24 H :    0.010249
  25 C :   -0.074461
  26 H :    0.022631
  27 H :    0.017193
  28 C :    0.013583
  29 H :    0.010275
  30 H :    0.025848
  31 H :    0.036986
  32 H :    0.042952
  33 H :    0.061259
Sum of atomic charges:   -0.0000000

LOEWDIN ATOMIC CHARGES
----------------------
   0 S :    0.354652
   1 C :   -0.190211
   2 C :   -0.063999
   3 C :   -0.055059
   4 C :   -0.162251
   5 H :    0.035538
   6 C :   -0.032929
   7 H :    0.029693
   8 H :    0.026082
   9 C :   -0.036062
  10 H :    0.025065
  11 H :    0.021124
  12 C :   -0.062106
  13 H :    0.015022
  14 H :    0.030022
  15 H :    0.031567
  16 S :    0.412303
  17 C :   -0.197037
  18 C :   -0.071904
  19 C :   -0.038158
  20 C :   -0.209656
  21 H :    0.017730
  22 C :   -0.034055
  23 H :    0.035408
  24 H :    0.028048
  25 C :   -0.040212
  26 H :    0.027097
  27 H :    0.017586
  28 C :   -0.049581
  29 H :    0.012480
  30 H :    0.021813
  31 H :    0.034862
  32 H :    0.028616
  33 H :    0.038513

  Mayer bond orders larger than 0.100000
B(  0-S ,  1-C ) :   1.1105 B(  0-S ,  4-C ) :   1.1205 B(  1-C ,  2-C ) :   1.6472
B(  1-C , 32-H ) :   0.9704 B(  2-C ,  3-C ) :   1.1986 B(  2-C ,  6-C ) :   1.0092
B(  3-C ,  4-C ) :   1.6127 B(  3-C ,  5-H ) :   0.9926 B(  4-C , 20-C ) :   1.0567
B(  6-C ,  7-H ) :   0.9502 B(  6-C ,  8-H ) :   0.9288 B(  6-C ,  9-C ) :   1.0562
B(  9-C , 10-H ) :   0.9538 B(  9-C , 11-H ) :   0.9501 B(  9-C , 12-C ) :   1.0881
B( 12-C , 13-H ) :   0.9756 B( 12-C , 14-H ) :   0.9742 B( 12-C , 15-H ) :   0.9711
B( 16-S , 17-C ) :   1.1655 B( 16-S , 20-C ) :   1.1221 B( 17-C , 18-C ) :   1.6110
B( 17-C , 33-H ) :   0.9634 B( 18-C , 19-C ) :   1.2369 B( 18-C , 21-H ) :   0.9949
B( 19-C , 20-C ) :   1.5886 B( 19-C , 22-C ) :   1.0460 B( 22-C , 23-H ) :   0.9298
B( 22-C , 24-H ) :   0.9228 B( 22-C , 25-C ) :   1.0726 B( 25-C , 26-H ) :   0.9467
B( 25-C , 27-H ) :   0.9561 B( 25-C , 28-C ) :   1.0831 B( 28-C , 29-H ) :   0.9753
B( 28-C , 30-H ) :   0.9719 B( 28-C , 31-H ) :   0.9723

Dispersion correction           -0.014131435
FINAL SINGLE POINT ENERGY     -1339.869906251482

DIPOLE MOMENT
-------------
                                X             Y             Z
Electronic contribution:     20.17855     -13.39029       4.68424
Nuclear contribution   :    -20.79818      13.78293      -4.48619
                        -----------------------------------------
Total Dipole Moment    :     -0.61963       0.39264       0.19806
                        -----------------------------------------
Magnitude (a.u.)       :      0.75983
Magnitude (Debye)      :      1.93132

Rotational constants in cm-1:     0.017819     0.008057     0.006980
Rotational constants in MHz :   534.194591   241.547603   209.269881

                             ****ORCA TERMINATED NORMALLY****
TOTAL RUN TIME: 0 days 0 hours 0 minutes 21 seconds 502 msec
