                         Program Version 4.2.1 -  RELEASE  -
|  1> ! wB97X-D3 SP def2-SVP
|  2> %pal
|  3> nprocs 24
|  4> end
|  5>
|  6> * xyz 0 1
|  7> S 	 -103.594 	 13.0114 	 -8.26233
|  8> C 	 -102.726 	 13.5337 	 -6.82112
|  9> C 	 -103.561 	 13.4826 	 -5.703
| 10> C 	 -104.803 	 12.8577 	 -6.07274
| 11> C 	 -104.984 	 12.4491 	 -7.34336
| 12> H 	 -105.627 	 12.6657 	 -5.38927
| 13> C 	 -103.3 	 14.1493 	 -4.33666
| 14> H 	 -104.288 	 14.3955 	 -3.9679
| 15> H 	 -102.535 	 14.8701 	 -4.46257
| 16> C 	 -102.72 	 13.1787 	 -3.33591
| 17> H 	 -101.741 	 12.6907 	 -3.60599
| 18> H 	 -102.628 	 13.7407 	 -2.40688
| 19> C 	 -103.711 	 12.0471 	 -3.03891
| 20> H 	 -104.655 	 12.5521 	 -2.73785
| 21> H 	 -103.961 	 11.4388 	 -3.84862
| 22> H 	 -103.413 	 11.4343 	 -2.1897
| 23> S 	 -106.154 	 10.8501 	 -9.34837
| 24> C 	 -107.775 	 11.1881 	 -9.68022
| 25> C 	 -108.467 	 11.7301 	 -8.61319
| 26> C 	 -107.571 	 12.2763 	 -7.62949
| 27> C 	 -106.229 	 12.0274 	 -8.01034
| 28> H 	 -109.571 	 11.7565 	 -8.70748
| 29> C 	 -108.097 	 13.1579 	 -6.49986
| 30> H 	 -108.756 	 13.9319 	 -6.93503
| 31> H 	 -107.226 	 13.7377 	 -6.25522
| 32> C 	 -108.823 	 12.4078 	 -5.37309
| 33> H 	 -108.088 	 11.6845 	 -4.96431
| 34> H 	 -109.62 	 11.841 	 -5.74813
| 35> C 	 -109.327 	 13.5016 	 -4.33676
| 36> H 	 -110.06 	 14.1784 	 -4.72851
| 37> H 	 -108.5 	 14.0798 	 -3.81443
| 38> H 	 -109.74 	 12.9874 	 -3.56006
| 39> H 	 -101.775 	 14.0612 	 -6.78062
| 40> H 	 -108.278 	 11.0265 	 -10.6624
| 41> *
| 42>
| 43>                          ****END OF INPUT****

CARTESIAN COORDINATES (ANGSTROEM)
---------------------------------
  S    -103.594000   13.011400   -8.262330
  C    -102.726000   13.533700   -6.821120
  C    -103.561000   13.482600   -5.703000
  C    -104.803000   12.857700   -6.072740
  C    -104.984000   12.449100   -7.343360
  H    -105.627000   12.665700   -5.389270
  C    -103.300000   14.149300   -4.336660
  H    -104.288000   14.395500   -3.967900
  H    -102.535000   14.870100   -4.462570
  C    -102.720000   13.178700   -3.335910
  H    -101.741000   12.690700   -3.605990
  H    -102.628000   13.740700   -2.406880
  C    -103.711000   12.047100   -3.038910
  H    -104.655000   12.552100   -2.737850
  H    -103.961000   11.438800   -3.848620
  H    -103.413000   11.434300   -2.189700
  S    -106.154000   10.850100   -9.348370
  C    -107.775000   11.188100   -9.680220
  C    -108.467000   11.730100   -8.613190
  C    -107.571000   12.276300   -7.629490
  C    -106.229000   12.027400   -8.010340
  H    -109.571000   11.756500   -8.707480
  C    -108.097000   13.157900   -6.499860
  H    -108.756000   13.931900   -6.935030
  H    -107.226000   13.737700   -6.255220
  C    -108.823000   12.407800   -5.373090
  H    -108.088000   11.684500   -4.964310
  H    -109.620000   11.841000   -5.748130
  C    -109.327000   13.501600   -4.336760
  H    -110.060000   14.178400   -4.728510
  H    -108.500000   14.079800   -3.814430
  H    -109.740000   12.987400   -3.560060
  H    -101.775000   14.061200   -6.780620
  H    -108.278000   11.026500  -10.662400

 Total Charge           Charge          ....    0
 Multiplicity           Mult            ....    1
 Number of Electrons    NEL             ....  134
 Basis Dimension        Dim             ....  322

ORBITAL ENERGIES
----------------

  NO   OCC          E(Eh)            E(eV)
   0   2.0000     -88.965244     -2420.8674
   1   2.0000     -88.961663     -2420.7699
   2   2.0000     -10.331782      -281.1421
   3   2.0000     -10.325726      -280.9773
   4   2.0000     -10.316318      -280.7213
   5   2.0000     -10.314168      -280.6628
   6   2.0000     -10.309217      -280.5281
   7   2.0000     -10.303086      -280.3612
   8   2.0000     -10.294841      -280.1369
   9   2.0000     -10.294627      -280.1311
  10   2.0000     -10.293777      -280.1079
  11   2.0000     -10.291073      -280.0343
  12   2.0000     -10.289296      -279.9860
  13   2.0000     -10.287151      -279.9276
  14   2.0000     -10.280613      -279.7497
  15   2.0000     -10.270457      -279.4733
  16   2.0000      -8.080807      -219.8899
  17   2.0000      -8.076158      -219.7634
  18   2.0000      -6.039147      -164.3335
  19   2.0000      -6.035527      -164.2350
  20   2.0000      -6.034780      -164.2147
  21   2.0000      -6.031377      -164.1221
  22   2.0000      -6.030738      -164.1047
  23   2.0000      -6.026740      -163.9959
  24   2.0000      -1.005516       -27.3615
  25   2.0000      -0.984965       -26.8023
  26   2.0000      -0.918877       -25.0039
  27   2.0000      -0.909497       -24.7487
  28   2.0000      -0.866445       -23.5772
  29   2.0000      -0.851545       -23.1717
  30   2.0000      -0.837614       -22.7926
  31   2.0000      -0.813039       -22.1239
  32   2.0000      -0.787616       -21.4321
  33   2.0000      -0.773977       -21.0610
  34   2.0000      -0.714229       -19.4352
  35   2.0000      -0.698060       -18.9952
  36   2.0000      -0.692474       -18.8432
  37   2.0000      -0.654261       -17.8033
  38   2.0000      -0.636126       -17.3099
  39   2.0000      -0.618121       -16.8199
  40   2.0000      -0.591841       -16.1048
  41   2.0000      -0.580313       -15.7911
  42   2.0000      -0.566524       -15.4159
  43   2.0000      -0.553162       -15.0523
  44   2.0000      -0.542834       -14.7713
  45   2.0000      -0.525841       -14.3089
  46   2.0000      -0.517611       -14.0849
  47   2.0000      -0.510539       -13.8925
  48   2.0000      -0.504586       -13.7305
  49   2.0000      -0.497233       -13.5304
  50   2.0000      -0.490871       -13.3573
  51   2.0000      -0.476483       -12.9658
  52   2.0000      -0.472972       -12.8702
  53   2.0000      -0.464502       -12.6398
  54   2.0000      -0.458510       -12.4767
  55   2.0000      -0.451450       -12.2846
  56   2.0000      -0.445352       -12.1186
  57   2.0000      -0.436180       -11.8691
  58   2.0000      -0.435461       -11.8495
  59   2.0000      -0.428275       -11.6540
  60   2.0000      -0.424388       -11.5482
  61   2.0000      -0.415826       -11.3152
  62   2.0000      -0.411768       -11.2048
  63   2.0000      -0.347080        -9.4445
  64   2.0000      -0.329670        -8.9708
  65   2.0000      -0.325326        -8.8526
  66   2.0000      -0.286452        -7.7947
  67   0.0000       0.021538         0.5861
  68   0.0000       0.075912         2.0657
  69   0.0000       0.100714         2.7406
  70   0.0000       0.107086         2.9140
  71   0.0000       0.125806         3.4234

MULLIKEN ATOMIC CHARGES
-----------------------
   0 S :    0.093457
   1 C :   -0.116869
   2 C :   -0.120571
   3 C :   -0.028562
   4 C :   -0.098500
   5 H :    0.004747
   6 C :    0.139184
   7 H :    0.024068
   8 H :    0.016288
   9 C :   -0.085007
  10 H :    0.042293
  11 H :    0.029951
  12 C :   -0.061386
  13 H :    0.008967
  14 H :    0.040445
  15 H :    0.035324
  16 S :    0.121980
  17 C :   -0.111973
  18 C :   -0.051718
  19 C :   -0.031064
  20 C :   -0.158246
  21 H :    0.032218
  22 C :    0.035805
  23 H :    0.027557
  24 H :    0.015723
  25 C :   -0.049649
  26 H :    0.036919
  27 H :    0.024044
  28 C :   -0.020159
  29 H :    0.037367
  30 H :    0.035665
  31 H :    0.010191
  32 H :    0.049737
  33 H :    0.071772
Sum of atomic charges:   -0.0000000

LOEWDIN ATOMIC CHARGES
----------------------
   0 S :    0.394406
   1 C :   -0.195213
   2 C :   -0.061354
   3 C :   -0.075776
   4 C :   -0.194290
   5 H :    0.026968
   6 C :   -0.017561
   7 H :    0.033537
   8 H :    0.028450
   9 C :   -0.040633
  10 H :    0.028923
  11 H :    0.023618
  12 C :   -0.064828
  13 H :    0.021827
  14 H :    0.016158
  15 H :    0.026151
  16 S :    0.409733
  17 C :   -0.204294
  18 C :   -0.079685
  19 C :   -0.046517
  20 C :   -0.193051
  21 H :    0.037580
  22 C :   -0.038003
  23 H :    0.032586
  24 H :    0.026570
  25 C :   -0.025074
  26 H :    0.029140
  27 H :    0.018625
  28 C :   -0.058030
  29 H :    0.025035
  30 H :    0.034734
  31 H :    0.011775
  32 H :    0.030829
  33 H :    0.037663

  Mayer bond orders larger than 0.100000
B(  0-S ,  1-C ) :   1.1438 B(  0-S ,  4-C ) :   1.1314 B(  1-C ,  2-C ) :   1.6147
B(  1-C , 32-H ) :   0.9638 B(  2-C ,  3-C ) :   1.2338 B(  2-C ,  6-C ) :   1.0140
B(  3-C ,  4-C ) :   1.6059 B(  3-C ,  5-H ) :   0.9872 B(  4-C , 20-C ) :   1.0498
B(  6-C ,  7-H ) :   0.9380 B(  6-C ,  8-H ) :   0.9334 B(  6-C ,  9-C ) :   1.0849
B(  9-C , 10-H ) :   0.9533 B(  9-C , 11-H ) :   0.9555 B(  9-C , 12-C ) :   1.0792
B( 12-C , 13-H ) :   0.9712 B( 12-C , 14-H ) :   0.9733 B( 12-C , 15-H ) :   0.9725
B( 16-S , 17-C ) :   1.1631 B( 16-S , 20-C ) :   1.1330 B( 17-C , 18-C ) :   1.6224
B( 17-C , 33-H ) :   0.9602 B( 18-C , 19-C ) :   1.2226 B( 18-C , 21-H ) :   0.9869
B( 19-C , 20-C ) :   1.5814 B( 19-C , 22-C ) :   1.0278 B( 22-C , 23-H ) :   0.9385
B( 22-C , 24-H ) :   0.9386 B( 22-C , 25-C ) :   1.0508 B( 25-C , 26-H ) :   0.9547
B( 25-C , 27-H ) :   0.9559 B( 25-C , 28-C ) :   1.0752 B( 28-C , 29-H ) :   0.9760
B( 28-C , 30-H ) :   0.9754 B( 28-C , 31-H ) :   0.9739

Dispersion correction           -0.014498713
FINAL SINGLE POINT ENERGY     -1339.851621392573

DIPOLE MOMENT
-------------
                                X             Y             Z
Electronic contribution:      8.12843      -6.75751     -28.90163
Nuclear contribution   :     -8.59884       7.10137      29.50894
                        -----------------------------------------
Total Dipole Moment    :     -0.47041       0.34386       0.60731
                        -----------------------------------------
Magnitude (a.u.)       :      0.84164
Magnitude (Debye)      :      2.13927

Rotational constants in cm-1:     0.016467     0.010058     0.006897
Rotational constants in MHz :   493.659103   301.516873   206.758581

                             ****ORCA TERMINATED NORMALLY****
TOTAL RUN TIME: 0 days 0 hours 0 minutes 22 seconds 329 msec
