                         Program Version 4.2.1 -  RELEASE  -
|  1> ! wB97X-D3 SP def2-SVP
|  2> %pal
|  3> nprocs 24
|  4> end
|  5>
|  6> * xyz 0 1
|  7> S 	 30.2521 	 -6.96633 	 -116.406
|  8> C 	 31.7933 	 -7.66893 	 -116.771
|  9> C 	 32.2993 	 -8.43321 	 -115.707
| 10> C 	 31.6438 	 -8.08004 	 -114.48
| 11> C 	 30.5584 	 -7.28651 	 -114.708
| 12> H 	 31.8256 	 -8.4601 	 -113.494
| 13> C 	 33.4701 	 -9.41888 	 -115.857
| 14> H 	 34.3451 	 -9.00477 	 -115.252
| 15> H 	 33.8953 	 -9.53631 	 -116.839
| 16> C 	 33.164 	 -10.8812 	 -115.499
| 17> H 	 34.0325 	 -11.491 	 -115.814
| 18> H 	 33.051 	 -11.0519 	 -114.421
| 19> C 	 31.8905 	 -11.3566 	 -116.308
| 20> H 	 31.8025 	 -12.4103 	 -116.29
| 21> H 	 31.0213 	 -10.9237 	 -115.887
| 22> H 	 32.1403 	 -10.9298 	 -117.348
| 23> S 	 27.9582 	 -7.51892 	 -113.986
| 24> C 	 27.4535 	 -6.90325 	 -112.454
| 25> C 	 28.4482 	 -6.33634 	 -111.729
| 26> C 	 29.7395 	 -6.39877 	 -112.437
| 27> C 	 29.585 	 -6.96445 	 -113.724
| 28> H 	 28.2098 	 -5.84893 	 -110.844
| 29> C 	 30.9807 	 -5.73173 	 -111.922
| 30> H 	 30.7127 	 -4.71032 	 -111.667
| 31> H 	 31.619 	 -5.49134 	 -112.746
| 32> C 	 31.7447 	 -6.44781 	 -110.822
| 33> H 	 31.9667 	 -7.50313 	 -111.172
| 34> H 	 31.1253 	 -6.47029 	 -109.975
| 35> C 	 33.1434 	 -5.88482 	 -110.506
| 36> H 	 33.5257 	 -6.48506 	 -109.671
| 37> H 	 33.0402 	 -4.91184 	 -110.133
| 38> H 	 33.8499 	 -5.75109 	 -111.303
| 39> H 	 32.3452 	 -7.71389 	 -117.667
| 40> H 	 26.4436 	 -6.89539 	 -112.056
| 41> *
| 42>
| 43>                          ****END OF INPUT****

CARTESIAN COORDINATES (ANGSTROEM)
---------------------------------
  S     30.252100   -6.966330  -116.406000
  C     31.793300   -7.668930  -116.771000
  C     32.299300   -8.433210  -115.707000
  C     31.643800   -8.080040  -114.480000
  C     30.558400   -7.286510  -114.708000
  H     31.825600   -8.460100  -113.494000
  C     33.470100   -9.418880  -115.857000
  H     34.345100   -9.004770  -115.252000
  H     33.895300   -9.536310  -116.839000
  C     33.164000  -10.881200  -115.499000
  H     34.032500  -11.491000  -115.814000
  H     33.051000  -11.051900  -114.421000
  C     31.890500  -11.356600  -116.308000
  H     31.802500  -12.410300  -116.290000
  H     31.021300  -10.923700  -115.887000
  H     32.140300  -10.929800  -117.348000
  S     27.958200   -7.518920  -113.986000
  C     27.453500   -6.903250  -112.454000
  C     28.448200   -6.336340  -111.729000
  C     29.739500   -6.398770  -112.437000
  C     29.585000   -6.964450  -113.724000
  H     28.209800   -5.848930  -110.844000
  C     30.980700   -5.731730  -111.922000
  H     30.712700   -4.710320  -111.667000
  H     31.619000   -5.491340  -112.746000
  C     31.744700   -6.447810  -110.822000
  H     31.966700   -7.503130  -111.172000
  H     31.125300   -6.470290  -109.975000
  C     33.143400   -5.884820  -110.506000
  H     33.525700   -6.485060  -109.671000
  H     33.040200   -4.911840  -110.133000
  H     33.849900   -5.751090  -111.303000
  H     32.345200   -7.713890  -117.667000
  H     26.443600   -6.895390  -112.056000

 Total Charge           Charge          ....    0
 Multiplicity           Mult            ....    1
 Number of Electrons    NEL             ....  134
 Basis Dimension        Dim             ....  322

ORBITAL ENERGIES
----------------

  NO   OCC          E(Eh)            E(eV)
   0   2.0000     -88.970420     -2421.0082
   1   2.0000     -88.963701     -2420.8254
   2   2.0000     -10.323850      -280.9262
   3   2.0000     -10.322166      -280.8804
   4   2.0000     -10.310639      -280.5667
   5   2.0000     -10.309958      -280.5482
   6   2.0000     -10.305949      -280.4391
   7   2.0000     -10.305015      -280.4137
   8   2.0000     -10.298160      -280.2272
   9   2.0000     -10.294255      -280.1209
  10   2.0000     -10.290407      -280.0162
  11   2.0000     -10.287845      -279.9465
  12   2.0000     -10.286367      -279.9063
  13   2.0000     -10.282236      -279.7939
  14   2.0000     -10.277052      -279.6528
  15   2.0000     -10.272718      -279.5349
  16   2.0000      -8.085179      -220.0089
  17   2.0000      -8.079166      -219.8453
  18   2.0000      -6.043652      -164.4561
  19   2.0000      -6.039960      -164.3557
  20   2.0000      -6.037708      -164.2944
  21   2.0000      -6.035702      -164.2398
  22   2.0000      -6.033589      -164.1823
  23   2.0000      -6.029852      -164.0806
  24   2.0000      -1.010670       -27.5017
  25   2.0000      -0.983534       -26.7633
  26   2.0000      -0.910256       -24.7693
  27   2.0000      -0.908846       -24.7309
  28   2.0000      -0.873317       -23.7642
  29   2.0000      -0.852345       -23.1935
  30   2.0000      -0.844893       -22.9907
  31   2.0000      -0.815952       -22.2032
  32   2.0000      -0.783471       -21.3193
  33   2.0000      -0.770546       -20.9676
  34   2.0000      -0.710791       -19.3416
  35   2.0000      -0.698608       -19.0101
  36   2.0000      -0.690881       -18.7998
  37   2.0000      -0.659510       -17.9462
  38   2.0000      -0.640098       -17.4179
  39   2.0000      -0.623544       -16.9675
  40   2.0000      -0.595693       -16.2096
  41   2.0000      -0.569962       -15.5095
  42   2.0000      -0.560870       -15.2620
  43   2.0000      -0.555113       -15.1054
  44   2.0000      -0.545355       -14.8399
  45   2.0000      -0.532780       -14.4977
  46   2.0000      -0.517181       -14.0732
  47   2.0000      -0.507491       -13.8095
  48   2.0000      -0.500402       -13.6166
  49   2.0000      -0.494954       -13.4684
  50   2.0000      -0.492333       -13.3971
  51   2.0000      -0.477061       -12.9815
  52   2.0000      -0.467956       -12.7337
  53   2.0000      -0.464307       -12.6344
  54   2.0000      -0.459897       -12.5144
  55   2.0000      -0.454803       -12.3758
  56   2.0000      -0.446705       -12.1555
  57   2.0000      -0.435938       -11.8625
  58   2.0000      -0.429784       -11.6950
  59   2.0000      -0.426478       -11.6051
  60   2.0000      -0.425129       -11.5684
  61   2.0000      -0.414808       -11.2875
  62   2.0000      -0.409488       -11.1427
  63   2.0000      -0.351568        -9.5666
  64   2.0000      -0.331105        -9.0098
  65   2.0000      -0.326689        -8.8897
  66   2.0000      -0.286604        -7.7989
  67   0.0000       0.032304         0.8790
  68   0.0000       0.067604         1.8396
  69   0.0000       0.111881         3.0444
  70   0.0000       0.124193         3.3795
  71   0.0000       0.125502         3.4151

MULLIKEN ATOMIC CHARGES
-----------------------
   0 S :    0.125077
   1 C :   -0.072898
   2 C :   -0.106001
   3 C :    0.048584
   4 C :   -0.155493
   5 H :    0.006357
   6 C :    0.033141
   7 H :    0.046178
   8 H :    0.015931
   9 C :   -0.107864
  10 H :    0.035223
  11 H :    0.033263
  12 C :   -0.040273
  13 H :    0.033094
  14 H :    0.046170
  15 H :    0.032847
  16 S :    0.108654
  17 C :   -0.084113
  18 C :   -0.007039
  19 C :   -0.040738
  20 C :   -0.153447
  21 H :   -0.006771
  22 C :    0.070471
  23 H :    0.016976
  24 H :    0.006868
  25 C :   -0.071526
  26 H :    0.032415
  27 H :    0.019911
  28 C :   -0.015614
  29 H :    0.036599
  30 H :    0.006337
  31 H :    0.032377
  32 H :    0.023257
  33 H :    0.052045
Sum of atomic charges:   -0.0000000

LOEWDIN ATOMIC CHARGES
----------------------
   0 S :    0.411622
   1 C :   -0.197183
   2 C :   -0.055529
   3 C :   -0.049400
   4 C :   -0.193210
   5 H :    0.030789
   6 C :   -0.041685
   7 H :    0.038218
   8 H :    0.025488
   9 C :   -0.043196
  10 H :    0.026314
  11 H :    0.017312
  12 C :   -0.056314
  13 H :    0.018548
  14 H :    0.022646
  15 H :    0.034306
  16 S :    0.410561
  17 C :   -0.193318
  18 C :   -0.062889
  19 C :   -0.050514
  20 C :   -0.203571
  21 H :    0.021176
  22 C :   -0.042187
  23 H :    0.031177
  24 H :    0.026964
  25 C :   -0.033294
  26 H :    0.027799
  27 H :    0.017278
  28 C :   -0.061033
  29 H :    0.032111
  30 H :    0.015621
  31 H :    0.024745
  32 H :    0.019275
  33 H :    0.031375

  Mayer bond orders larger than 0.100000
B(  0-S ,  1-C ) :   1.1340 B(  0-S ,  4-C ) :   1.1337 B(  1-C ,  2-C ) :   1.6220
B(  1-C , 32-H ) :   0.9697 B(  2-C ,  3-C ) :   1.2163 B(  2-C ,  6-C ) :   1.0244
B(  3-C ,  4-C ) :   1.5805 B(  3-C ,  5-H ) :   0.9985 B(  4-C , 20-C ) :   1.0551
B(  6-C ,  7-H ) :   0.9421 B(  6-C ,  8-H ) :   0.9458 B(  6-C ,  9-C ) :   1.0669
B(  9-C , 10-H ) :   0.9614 B(  9-C , 11-H ) :   0.9577 B(  9-C , 12-C ) :   1.0608
B( 12-C , 13-H ) :   0.9771 B( 12-C , 14-H ) :   0.9735 B( 12-C , 15-H ) :   0.9767
B( 16-S , 17-C ) :   1.1381 B( 16-S , 20-C ) :   1.1391 B( 17-C , 18-C ) :   1.6537
B( 17-C , 33-H ) :   0.9621 B( 18-C , 19-C ) :   1.1993 B( 18-C , 21-H ) :   0.9999
B( 19-C , 20-C ) :   1.6034 B( 19-C , 22-C ) :   1.0559 B( 22-C , 23-H ) :   0.9303
B( 22-C , 24-H ) :   0.9303 B( 22-C , 25-C ) :   1.0529 B( 25-C , 26-H ) :   0.9562
B( 25-C , 27-H ) :   0.9552 B( 25-C , 28-C ) :   1.0858 B( 28-C , 29-H ) :   0.9737
B( 28-C , 30-H ) :   0.9698 B( 28-C , 31-H ) :   0.9750

Dispersion correction           -0.014745058
FINAL SINGLE POINT ENERGY     -1339.865805395301

DIPOLE MOMENT
-------------
                                X             Y             Z
Electronic contribution:    -21.04942       7.98099     -10.56943
Nuclear contribution   :     21.48498      -8.08701      10.94044
                        -----------------------------------------
Total Dipole Moment    :      0.43555      -0.10602       0.37101
                        -----------------------------------------
Magnitude (a.u.)       :      0.58189
Magnitude (Debye)      :      1.47904

Rotational constants in cm-1:     0.016856     0.009539     0.007406
Rotational constants in MHz :   505.325229   285.979293   222.037535

                             ****ORCA TERMINATED NORMALLY****
TOTAL RUN TIME: 0 days 0 hours 0 minutes 21 seconds 947 msec
