                         Program Version 4.2.1 -  RELEASE  -
|  1> ! wB97X-D3 SP def2-SVP
|  2> %pal
|  3> nprocs 24
|  4> end
|  5>
|  6> * xyz 0 1
|  7> S 	 -118.266 	 14.6136 	 -7.76545
|  8> C 	 -117.338 	 14.4716 	 -6.26958
|  9> C 	 -115.996 	 14.0985 	 -6.57818
| 10> C 	 -115.82 	 13.8148 	 -7.96432
| 11> C 	 -116.976 	 13.952 	 -8.71186
| 12> H 	 -114.837 	 13.5382 	 -8.308
| 13> C 	 -114.874 	 13.8899 	 -5.60921
| 14> H 	 -114.814 	 14.7538 	 -4.93642
| 15> H 	 -113.938 	 13.8546 	 -6.20613
| 16> C 	 -114.916 	 12.5528 	 -4.78169
| 17> H 	 -115.885 	 12.3712 	 -4.29776
| 18> H 	 -114.897 	 11.7194 	 -5.48005
| 19> C 	 -113.796 	 12.3902 	 -3.75126
| 20> H 	 -113.925 	 11.4612 	 -3.20699
| 21> H 	 -112.82 	 12.3304 	 -4.2444
| 22> H 	 -113.765 	 13.2345 	 -3.07537
| 23> S 	 -117.346 	 14.9892 	 -11.2481
| 24> C 	 -117.26 	 13.7979 	 -12.6257
| 25> C 	 -117.068 	 12.4998 	 -12.2273
| 26> C 	 -117.019 	 12.4177 	 -10.8042
| 27> C 	 -117.089 	 13.6404 	 -10.1382
| 28> H 	 -117.117 	 11.6943 	 -12.9649
| 29> C 	 -116.987 	 11.0657 	 -10.0679
| 30> H 	 -116.617 	 11.1539 	 -9.0606
| 31> H 	 -116.108 	 10.5593 	 -10.6163
| 32> C 	 -118.183 	 10.1057 	 -10.1698
| 33> H 	 -117.981 	 9.09361 	 -9.85002
| 34> H 	 -118.53 	 10.0747 	 -11.2028
| 35> C 	 -119.296 	 10.8278 	 -9.37381
| 36> H 	 -118.98 	 11.0631 	 -8.38136
| 37> H 	 -120.126 	 10.2205 	 -9.29933
| 38> H 	 -119.599 	 11.7577 	 -9.94703
| 39> H 	 -117.743 	 14.7697 	 -5.25479
| 40> H 	 -117.441 	 14.1027 	 -13.6641
| 41> *
| 42>
| 43>                          ****END OF INPUT****

CARTESIAN COORDINATES (ANGSTROEM)
---------------------------------
  S    -118.266000   14.613600   -7.765450
  C    -117.338000   14.471600   -6.269580
  C    -115.996000   14.098500   -6.578180
  C    -115.820000   13.814800   -7.964320
  C    -116.976000   13.952000   -8.711860
  H    -114.837000   13.538200   -8.308000
  C    -114.874000   13.889900   -5.609210
  H    -114.814000   14.753800   -4.936420
  H    -113.938000   13.854600   -6.206130
  C    -114.916000   12.552800   -4.781690
  H    -115.885000   12.371200   -4.297760
  H    -114.897000   11.719400   -5.480050
  C    -113.796000   12.390200   -3.751260
  H    -113.925000   11.461200   -3.206990
  H    -112.820000   12.330400   -4.244400
  H    -113.765000   13.234500   -3.075370
  S    -117.346000   14.989200  -11.248100
  C    -117.260000   13.797900  -12.625700
  C    -117.068000   12.499800  -12.227300
  C    -117.019000   12.417700  -10.804200
  C    -117.089000   13.640400  -10.138200
  H    -117.117000   11.694300  -12.964900
  C    -116.987000   11.065700  -10.067900
  H    -116.617000   11.153900   -9.060600
  H    -116.108000   10.559300  -10.616300
  C    -118.183000   10.105700  -10.169800
  H    -117.981000    9.093610   -9.850020
  H    -118.530000   10.074700  -11.202800
  C    -119.296000   10.827800   -9.373810
  H    -118.980000   11.063100   -8.381360
  H    -120.126000   10.220500   -9.299330
  H    -119.599000   11.757700   -9.947030
  H    -117.743000   14.769700   -5.254790
  H    -117.441000   14.102700  -13.664100

 Total Charge           Charge          ....    0
 Multiplicity           Mult            ....    1
 Number of Electrons    NEL             ....  134
 Basis Dimension        Dim             ....  322

ORBITAL ENERGIES
----------------

  NO   OCC          E(Eh)            E(eV)
   0   2.0000     -88.970207     -2421.0024
   1   2.0000     -88.965340     -2420.8700
   2   2.0000     -10.328585      -281.0551
   3   2.0000     -10.326930      -281.0100
   4   2.0000     -10.324604      -280.9468
   5   2.0000     -10.324463      -280.9429
   6   2.0000     -10.307487      -280.4810
   7   2.0000     -10.303807      -280.3808
   8   2.0000     -10.298854      -280.2461
   9   2.0000     -10.296932      -280.1938
  10   2.0000     -10.293155      -280.0910
  11   2.0000     -10.291390      -280.0429
  12   2.0000     -10.288941      -279.9763
  13   2.0000     -10.284518      -279.8560
  14   2.0000     -10.278741      -279.6988
  15   2.0000     -10.263950      -279.2963
  16   2.0000      -8.084558      -219.9920
  17   2.0000      -8.078984      -219.8403
  18   2.0000      -6.043061      -164.4400
  19   2.0000      -6.038996      -164.3294
  20   2.0000      -6.037551      -164.2901
  21   2.0000      -6.035473      -164.2336
  22   2.0000      -6.033817      -164.1885
  23   2.0000      -6.029575      -164.0731
  24   2.0000      -1.002148       -27.2698
  25   2.0000      -0.978146       -26.6167
  26   2.0000      -0.908011       -24.7082
  27   2.0000      -0.903074       -24.5739
  28   2.0000      -0.866902       -23.5896
  29   2.0000      -0.851925       -23.1821
  30   2.0000      -0.842093       -22.9145
  31   2.0000      -0.811323       -22.0772
  32   2.0000      -0.778195       -21.1758
  33   2.0000      -0.764206       -20.7951
  34   2.0000      -0.702978       -19.1290
  35   2.0000      -0.701748       -19.0955
  36   2.0000      -0.691442       -18.8151
  37   2.0000      -0.657552       -17.8929
  38   2.0000      -0.638023       -17.3615
  39   2.0000      -0.621621       -16.9152
  40   2.0000      -0.594114       -16.1667
  41   2.0000      -0.565962       -15.4006
  42   2.0000      -0.555381       -15.1127
  43   2.0000      -0.552405       -15.0317
  44   2.0000      -0.536776       -14.6064
  45   2.0000      -0.525282       -14.2936
  46   2.0000      -0.517895       -14.0926
  47   2.0000      -0.505688       -13.7605
  48   2.0000      -0.502267       -13.6674
  49   2.0000      -0.493556       -13.4303
  50   2.0000      -0.485785       -13.2189
  51   2.0000      -0.472017       -12.8442
  52   2.0000      -0.467248       -12.7145
  53   2.0000      -0.461778       -12.5656
  54   2.0000      -0.460389       -12.5278
  55   2.0000      -0.448692       -12.2095
  56   2.0000      -0.447768       -12.1844
  57   2.0000      -0.435896       -11.8613
  58   2.0000      -0.431924       -11.7533
  59   2.0000      -0.427896       -11.6437
  60   2.0000      -0.421977       -11.4826
  61   2.0000      -0.416217       -11.3258
  62   2.0000      -0.407250       -11.0818
  63   2.0000      -0.342038        -9.3073
  64   2.0000      -0.331592        -9.0231
  65   2.0000      -0.323446        -8.8014
  66   2.0000      -0.296240        -8.0611
  67   0.0000       0.033965         0.9242
  68   0.0000       0.057622         1.5680
  69   0.0000       0.103899         2.8272
  70   0.0000       0.117157         3.1880
  71   0.0000       0.125344         3.4108

MULLIKEN ATOMIC CHARGES
-----------------------
   0 S :    0.126195
   1 C :   -0.153390
   2 C :   -0.099704
   3 C :    0.060093
   4 C :   -0.164180
   5 H :    0.008405
   6 C :    0.053207
   7 H :    0.031941
   8 H :    0.022305
   9 C :   -0.077229
  10 H :    0.024371
  11 H :    0.016991
  12 C :   -0.028645
  13 H :    0.036850
  14 H :    0.027316
  15 H :    0.029266
  16 S :    0.092535
  17 C :   -0.105635
  18 C :   -0.023323
  19 C :   -0.033325
  20 C :   -0.157630
  21 H :    0.033077
  22 C :    0.025405
  23 H :    0.025028
  24 H :    0.026494
  25 C :   -0.038647
  26 H :    0.034075
  27 H :    0.021126
  28 C :   -0.032451
  29 H :    0.023679
  30 H :    0.008151
  31 H :    0.050373
  32 H :    0.074896
  33 H :    0.062383
Sum of atomic charges:   -0.0000000

LOEWDIN ATOMIC CHARGES
----------------------
   0 S :    0.420372
   1 C :   -0.209719
   2 C :   -0.063421
   3 C :   -0.057240
   4 C :   -0.207461
   5 H :    0.031052
   6 C :   -0.034324
   7 H :    0.030575
   8 H :    0.032680
   9 C :   -0.041603
  10 H :    0.022660
  11 H :    0.021573
  12 C :   -0.063182
  13 H :    0.028954
  14 H :    0.025037
  15 H :    0.022576
  16 S :    0.365420
  17 C :   -0.156291
  18 C :   -0.070194
  19 C :   -0.052817
  20 C :   -0.196868
  21 H :    0.039987
  22 C :   -0.035680
  23 H :    0.024347
  24 H :    0.033644
  25 C :   -0.035309
  26 H :    0.023501
  27 H :    0.022588
  28 C :   -0.056968
  29 H :    0.018972
  30 H :    0.008854
  31 H :    0.037278
  32 H :    0.041195
  33 H :    0.029814

  Mayer bond orders larger than 0.100000
B(  0-S ,  1-C ) :   1.1483 B(  0-S ,  4-C ) :   1.1729 B(  1-C ,  2-C ) :   1.5582
B(  1-C ,  4-C ) :   0.1070 B(  1-C , 32-H ) :   0.9653 B(  2-C ,  3-C ) :   1.2840
B(  2-C ,  6-C ) :   1.0371 B(  3-C ,  4-C ) :   1.5337 B(  3-C ,  5-H ) :   0.9967
B(  4-C , 20-C ) :   1.0176 B(  6-C ,  7-H ) :   0.9378 B(  6-C ,  8-H ) :   0.9415
B(  6-C ,  9-C ) :   1.0530 B(  9-C , 10-H ) :   0.9588 B(  9-C , 11-H ) :   0.9531
B(  9-C , 12-C ) :   1.0835 B( 12-C , 13-H ) :   0.9726 B( 12-C , 14-H ) :   0.9749
B( 12-C , 15-H ) :   0.9761 B( 16-S , 17-C ) :   1.1347 B( 16-S , 20-C ) :   1.1266
B( 17-C , 18-C ) :   1.6444 B( 17-C , 33-H ) :   0.9631 B( 18-C , 19-C ) :   1.2102
B( 18-C , 21-H ) :   0.9865 B( 19-C , 20-C ) :   1.6282 B( 19-C , 22-C ) :   1.0349
B( 22-C , 23-H ) :   0.9407 B( 22-C , 24-H ) :   0.9314 B( 22-C , 25-C ) :   1.0727
B( 25-C , 26-H ) :   0.9557 B( 25-C , 27-H ) :   0.9539 B( 25-C , 28-C ) :   1.0713
B( 28-C , 29-H ) :   0.9777 B( 28-C , 30-H ) :   0.9731 B( 28-C , 31-H ) :   0.9745

Dispersion correction           -0.014998008
FINAL SINGLE POINT ENERGY     -1339.883519574085

DIPOLE MOMENT
-------------
                                X             Y             Z
Electronic contribution:     -8.39103      19.48904     -15.59440
Nuclear contribution   :      8.64324     -20.01097      15.77441
                        -----------------------------------------
Total Dipole Moment    :      0.25220      -0.52192       0.18001
                        -----------------------------------------
Magnitude (a.u.)       :      0.60697
Magnitude (Debye)      :      1.54280

Rotational constants in cm-1:     0.020503     0.007978     0.007059
Rotational constants in MHz :   614.674037   239.181453   211.633461

                             ****ORCA TERMINATED NORMALLY****
TOTAL RUN TIME: 0 days 0 hours 0 minutes 21 seconds 756 msec
