                         Program Version 4.2.1 -  RELEASE  -
|  1> ! wB97X-D3 SP def2-SVP
|  2> %pal
|  3> nprocs 24
|  4> end
|  5>
|  6> * xyz 0 1
|  7> S 	 -54.1739 	 11.9472 	 22.2615
|  8> C 	 -54.8571 	 11.348 	 20.8434
|  9> C 	 -55.4577 	 10.1319 	 20.9272
| 10> C 	 -55.2182 	 9.54503 	 22.2465
| 11> C 	 -54.6985 	 10.4651 	 23.112
| 12> H 	 -55.3589 	 8.53558 	 22.6412
| 13> C 	 -56.2434 	 9.34264 	 19.8886
| 14> H 	 -56.8099 	 8.5431 	 20.3791
| 15> H 	 -55.59 	 8.85517 	 19.187
| 16> C 	 -57.2812 	 10.1814 	 19.1206
| 17> H 	 -57.6902 	 10.8756 	 19.8125
| 18> H 	 -56.8346 	 10.9088 	 18.422
| 19> C 	 -58.3864 	 9.36883 	 18.4794
| 20> H 	 -59.1415 	 8.80636 	 19.1115
| 21> H 	 -58.9035 	 10.1844 	 17.9981
| 22> H 	 -58.0451 	 8.63463 	 17.6779
| 23> S 	 -55.4134 	 9.43457 	 25.6286
| 24> C 	 -54.2084 	 9.30505 	 26.9113
| 25> C 	 -53.0671 	 10.0302 	 26.5239
| 26> C 	 -53.0686 	 10.4161 	 25.1342
| 27> C 	 -54.2688 	 10.1682 	 24.488
| 28> H 	 -52.1988 	 10.0818 	 27.2456
| 29> C 	 -51.7963 	 11.0214 	 24.4372
| 30> H 	 -51.1379 	 11.4328 	 25.1958
| 31> H 	 -52.096 	 11.8926 	 23.8787
| 32> C 	 -51.1059 	 10.0569 	 23.4461
| 33> H 	 -50.3695 	 10.501 	 22.7667
| 34> H 	 -51.9266 	 9.66416 	 22.7835
| 35> C 	 -50.3827 	 8.84566 	 24.0629
| 36> H 	 -51.0643 	 8.42654 	 24.8162
| 37> H 	 -49.4708 	 9.06117 	 24.6003
| 38> H 	 -50.2476 	 8.15178 	 23.2068
| 39> H 	 -54.763 	 11.8858 	 19.9464
| 40> H 	 -54.3356 	 8.74619 	 27.8294
| 41> *
| 42>
| 43>                          ****END OF INPUT****

CARTESIAN COORDINATES (ANGSTROEM)
---------------------------------
  S    -54.173900   11.947200   22.261500
  C    -54.857100   11.348000   20.843400
  C    -55.457700   10.131900   20.927200
  C    -55.218200    9.545030   22.246500
  C    -54.698500   10.465100   23.112000
  H    -55.358900    8.535580   22.641200
  C    -56.243400    9.342640   19.888600
  H    -56.809900    8.543100   20.379100
  H    -55.590000    8.855170   19.187000
  C    -57.281200   10.181400   19.120600
  H    -57.690200   10.875600   19.812500
  H    -56.834600   10.908800   18.422000
  C    -58.386400    9.368830   18.479400
  H    -59.141500    8.806360   19.111500
  H    -58.903500   10.184400   17.998100
  H    -58.045100    8.634630   17.677900
  S    -55.413400    9.434570   25.628600
  C    -54.208400    9.305050   26.911300
  C    -53.067100   10.030200   26.523900
  C    -53.068600   10.416100   25.134200
  C    -54.268800   10.168200   24.488000
  H    -52.198800   10.081800   27.245600
  C    -51.796300   11.021400   24.437200
  H    -51.137900   11.432800   25.195800
  H    -52.096000   11.892600   23.878700
  C    -51.105900   10.056900   23.446100
  H    -50.369500   10.501000   22.766700
  H    -51.926600    9.664160   22.783500
  C    -50.382700    8.845660   24.062900
  H    -51.064300    8.426540   24.816200
  H    -49.470800    9.061170   24.600300
  H    -50.247600    8.151780   23.206800
  H    -54.763000   11.885800   19.946400
  H    -54.335600    8.746190   27.829400

 Total Charge           Charge          ....    0
 Multiplicity           Mult            ....    1
 Number of Electrons    NEL             ....  134
 Basis Dimension        Dim             ....  322

ORBITAL ENERGIES
----------------

  NO   OCC          E(Eh)            E(eV)
   0   2.0000     -88.967225     -2420.9213
   1   2.0000     -88.965349     -2420.8702
   2   2.0000     -10.329385      -281.0768
   3   2.0000     -10.328536      -281.0538
   4   2.0000     -10.322123      -280.8793
   5   2.0000     -10.308140      -280.4988
   6   2.0000     -10.306929      -280.4658
   7   2.0000     -10.303589      -280.3749
   8   2.0000     -10.303518      -280.3730
   9   2.0000     -10.298553      -280.2379
  10   2.0000     -10.290913      -280.0300
  11   2.0000     -10.290432      -280.0169
  12   2.0000     -10.286365      -279.9062
  13   2.0000     -10.285249      -279.8758
  14   2.0000     -10.284391      -279.8525
  15   2.0000     -10.271478      -279.5011
  16   2.0000      -8.082561      -219.9377
  17   2.0000      -8.079268      -219.8481
  18   2.0000      -6.041054      -164.3854
  19   2.0000      -6.037853      -164.2983
  20   2.0000      -6.037128      -164.2786
  21   2.0000      -6.033771      -164.1873
  22   2.0000      -6.033158      -164.1706
  23   2.0000      -6.030125      -164.0880
  24   2.0000      -1.007009       -27.4021
  25   2.0000      -0.981994       -26.7214
  26   2.0000      -0.912106       -24.8197
  27   2.0000      -0.897711       -24.4280
  28   2.0000      -0.870917       -23.6988
  29   2.0000      -0.854598       -23.2548
  30   2.0000      -0.839123       -22.8337
  31   2.0000      -0.812366       -22.1056
  32   2.0000      -0.780156       -21.2291
  33   2.0000      -0.772553       -21.0222
  34   2.0000      -0.707316       -19.2470
  35   2.0000      -0.697316       -18.9749
  36   2.0000      -0.680750       -18.5242
  37   2.0000      -0.665267       -18.1028
  38   2.0000      -0.645443       -17.5634
  39   2.0000      -0.610335       -16.6080
  40   2.0000      -0.585932       -15.9440
  41   2.0000      -0.568894       -15.4804
  42   2.0000      -0.562142       -15.2967
  43   2.0000      -0.546972       -14.8839
  44   2.0000      -0.542144       -14.7525
  45   2.0000      -0.524933       -14.2841
  46   2.0000      -0.516987       -14.0679
  47   2.0000      -0.512475       -13.9452
  48   2.0000      -0.507539       -13.8108
  49   2.0000      -0.489840       -13.3292
  50   2.0000      -0.488246       -13.2859
  51   2.0000      -0.483736       -13.1631
  52   2.0000      -0.475732       -12.9453
  53   2.0000      -0.464817       -12.6483
  54   2.0000      -0.458053       -12.4642
  55   2.0000      -0.454186       -12.3590
  56   2.0000      -0.439387       -11.9563
  57   2.0000      -0.432538       -11.7700
  58   2.0000      -0.426481       -11.6051
  59   2.0000      -0.421413       -11.4672
  60   2.0000      -0.416365       -11.3299
  61   2.0000      -0.411927       -11.2091
  62   2.0000      -0.404926       -11.0186
  63   2.0000      -0.351286        -9.5590
  64   2.0000      -0.330498        -8.9933
  65   2.0000      -0.327100        -8.9008
  66   2.0000      -0.293798        -7.9947
  67   0.0000       0.025994         0.7073
  68   0.0000       0.077197         2.1006
  69   0.0000       0.107980         2.9383
  70   0.0000       0.116588         3.1725
  71   0.0000       0.126621         3.4455

MULLIKEN ATOMIC CHARGES
-----------------------
   0 S :    0.108929
   1 C :   -0.104504
   2 C :   -0.075727
   3 C :    0.001762
   4 C :   -0.145419
   5 H :    0.031726
   6 C :    0.112745
   7 H :    0.020807
   8 H :    0.034144
   9 C :   -0.096644
  10 H :    0.020855
  11 H :    0.027397
  12 C :   -0.074639
  13 H :    0.051098
  14 H :    0.031309
  15 H :    0.042592
  16 S :    0.099580
  17 C :   -0.115570
  18 C :   -0.048666
  19 C :   -0.069818
  20 C :   -0.154229
  21 H :    0.043025
  22 C :    0.099452
  23 H :    0.014266
  24 H :    0.023355
  25 C :   -0.093736
  26 H :    0.030665
  27 H :    0.041827
  28 C :   -0.054682
  29 H :    0.030037
  30 H :    0.029909
  31 H :    0.041815
  32 H :    0.029219
  33 H :    0.067118
Sum of atomic charges:    0.0000000

LOEWDIN ATOMIC CHARGES
----------------------
   0 S :    0.424023
   1 C :   -0.201258
   2 C :   -0.061954
   3 C :   -0.050374
   4 C :   -0.185013
   5 H :    0.037445
   6 C :   -0.029989
   7 H :    0.032457
   8 H :    0.029755
   9 C :   -0.046968
  10 H :    0.022190
  11 H :    0.025921
  12 C :   -0.076484
  13 H :    0.032962
  14 H :    0.029741
  15 H :    0.030877
  16 S :    0.391711
  17 C :   -0.186494
  18 C :   -0.078049
  19 C :   -0.062804
  20 C :   -0.192452
  21 H :    0.040273
  22 C :   -0.033066
  23 H :    0.025710
  24 H :    0.016286
  25 C :   -0.045465
  26 H :    0.023202
  27 H :    0.031045
  28 C :   -0.069773
  29 H :    0.024918
  30 H :    0.019295
  31 H :    0.032228
  32 H :    0.017826
  33 H :    0.032278

  Mayer bond orders larger than 0.100000
B(  0-S ,  1-C ) :   1.1477 B(  0-S ,  4-C ) :   1.1277 B(  1-C ,  2-C ) :   1.6371
B(  1-C , 32-H ) :   0.9724 B(  2-C ,  3-C ) :   1.1992 B(  2-C ,  6-C ) :   1.0192
B(  3-C ,  4-C ) :   1.6209 B(  3-C ,  5-H ) :   0.9869 B(  4-C , 20-C ) :   1.0346
B(  6-C ,  7-H ) :   0.9482 B(  6-C ,  8-H ) :   0.9281 B(  6-C ,  9-C ) :   1.0605
B(  9-C , 10-H ) :   0.9574 B(  9-C , 11-H ) :   0.9496 B(  9-C , 12-C ) :   1.0853
B( 12-C , 13-H ) :   0.9731 B( 12-C , 14-H ) :   0.9725 B( 12-C , 15-H ) :   0.9732
B( 16-S , 17-C ) :   1.1555 B( 16-S , 20-C ) :   1.1392 B( 17-C , 18-C ) :   1.5920
B( 17-C , 20-C ) :   0.1019 B( 17-C , 33-H ) :   0.9704 B( 18-C , 19-C ) :   1.2517
B( 18-C , 21-H ) :   0.9781 B( 19-C , 20-C ) :   1.5861 B( 19-C , 22-C ) :   1.0275
B( 22-C , 23-H ) :   0.9388 B( 22-C , 24-H ) :   0.9328 B( 22-C , 25-C ) :   1.0581
B( 25-C , 26-H ) :   0.9582 B( 25-C , 27-H ) :   0.9579 B( 25-C , 28-C ) :   1.0731
B( 28-C , 29-H ) :   0.9766 B( 28-C , 30-H ) :   0.9764 B( 28-C , 31-H ) :   0.9746

Dispersion correction           -0.014764614
FINAL SINGLE POINT ENERGY     -1339.875866322121

DIPOLE MOMENT
-------------
                                X             Y             Z
Electronic contribution:     -3.12032       7.20906      16.19740
Nuclear contribution   :      3.25960      -7.38888     -16.57031
                        -----------------------------------------
Total Dipole Moment    :      0.13928      -0.17981      -0.37291
                        -----------------------------------------
Magnitude (a.u.)       :      0.43680
Magnitude (Debye)      :      1.11026

Rotational constants in cm-1:     0.022768     0.007534     0.006525
Rotational constants in MHz :   682.560029   225.877587   195.625031

                             ****ORCA TERMINATED NORMALLY****
TOTAL RUN TIME: 0 days 0 hours 0 minutes 20 seconds 338 msec
