                         Program Version 4.2.1 -  RELEASE  -
|  1> ! wB97X-D3 SP def2-SVP
|  2> %pal
|  3> nprocs 24
|  4> end
|  5>
|  6> * xyz 0 1
|  7> S 	 -102.385 	 2.00888 	 -119.957
|  8> C 	 -102.905 	 1.58181 	 -121.565
|  9> C 	 -101.949 	 1.41378 	 -122.515
| 10> C 	 -100.635 	 1.69519 	 -121.952
| 11> C 	 -100.72 	 1.90507 	 -120.558
| 12> H 	 -99.6517 	 1.64663 	 -122.427
| 13> C 	 -102.165 	 1.06564 	 -123.972
| 14> H 	 -102.539 	 1.89768 	 -124.614
| 15> H 	 -103.034 	 0.426915 	 -124.003
| 16> C 	 -101.015 	 0.408199 	 -124.674
| 17> H 	 -100.24 	 1.19243 	 -124.537
| 18> H 	 -100.554 	 -0.452609 	 -124.174
| 19> C 	 -101.374 	 0.0289324 	 -126.19
| 20> H 	 -102.105 	 -0.827504 	 -126.215
| 21> H 	 -101.954 	 0.836283 	 -126.682
| 22> H 	 -100.495 	 -0.243092 	 -126.797
| 23> S 	 -99.7354 	 2.05353 	 -117.947
| 24> C 	 -98.1766 	 2.70447 	 -117.609
| 25> C 	 -97.5224 	 2.99315 	 -118.802
| 26> C 	 -98.334 	 2.82654 	 -119.965
| 27> C 	 -99.5925 	 2.30875 	 -119.676
| 28> H 	 -96.4032 	 3.26445 	 -118.671
| 29> C 	 -97.7844 	 3.03374 	 -121.369
| 30> H 	 -96.9908 	 3.82446 	 -121.248
| 31> H 	 -98.581 	 3.43623 	 -121.989
| 32> C 	 -96.996 	 1.85229 	 -121.994
| 33> H 	 -97.6754 	 1.05159 	 -122.102
| 34> H 	 -96.097 	 1.54229 	 -121.491
| 35> C 	 -96.4623 	 2.01326 	 -123.458
| 36> H 	 -97.2688 	 2.4203 	 -124.161
| 37> H 	 -96.206 	 1.06816 	 -123.86
| 38> H 	 -95.5532 	 2.70113 	 -123.461
| 39> H 	 -104.024 	 1.43637 	 -121.699
| 40> H 	 -97.7464 	 2.88995 	 -116.621
| 41> *
| 42>
| 43>                          ****END OF INPUT****

CARTESIAN COORDINATES (ANGSTROEM)
---------------------------------
  S    -102.385000    2.008880  -119.957000
  C    -102.905000    1.581810  -121.565000
  C    -101.949000    1.413780  -122.515000
  C    -100.635000    1.695190  -121.952000
  C    -100.720000    1.905070  -120.558000
  H    -99.651700    1.646630  -122.427000
  C    -102.165000    1.065640  -123.972000
  H    -102.539000    1.897680  -124.614000
  H    -103.034000    0.426915  -124.003000
  C    -101.015000    0.408199  -124.674000
  H    -100.240000    1.192430  -124.537000
  H    -100.554000   -0.452609  -124.174000
  C    -101.374000    0.028932  -126.190000
  H    -102.105000   -0.827504  -126.215000
  H    -101.954000    0.836283  -126.682000
  H    -100.495000   -0.243092  -126.797000
  S    -99.735400    2.053530  -117.947000
  C    -98.176600    2.704470  -117.609000
  C    -97.522400    2.993150  -118.802000
  C    -98.334000    2.826540  -119.965000
  C    -99.592500    2.308750  -119.676000
  H    -96.403200    3.264450  -118.671000
  C    -97.784400    3.033740  -121.369000
  H    -96.990800    3.824460  -121.248000
  H    -98.581000    3.436230  -121.989000
  C    -96.996000    1.852290  -121.994000
  H    -97.675400    1.051590  -122.102000
  H    -96.097000    1.542290  -121.491000
  C    -96.462300    2.013260  -123.458000
  H    -97.268800    2.420300  -124.161000
  H    -96.206000    1.068160  -123.860000
  H    -95.553200    2.701130  -123.461000
  H    -104.024000    1.436370  -121.699000
  H    -97.746400    2.889950  -116.621000

 Total Charge           Charge          ....    0
 Multiplicity           Mult            ....    1
 Number of Electrons    NEL             ....  134
 Basis Dimension        Dim             ....  322

ORBITAL ENERGIES
----------------

  NO   OCC          E(Eh)            E(eV)
   0   2.0000     -88.971000     -2421.0240
   1   2.0000     -88.964581     -2420.8493
   2   2.0000     -10.338028      -281.3121
   3   2.0000     -10.329431      -281.0781
   4   2.0000     -10.317796      -280.7615
   5   2.0000     -10.317041      -280.7410
   6   2.0000     -10.306833      -280.4632
   7   2.0000     -10.304845      -280.4091
   8   2.0000     -10.303382      -280.3693
   9   2.0000     -10.300746      -280.2975
  10   2.0000     -10.298085      -280.2251
  11   2.0000     -10.295850      -280.1643
  12   2.0000     -10.294855      -280.1373
  13   2.0000     -10.294426      -280.1256
  14   2.0000     -10.288885      -279.9748
  15   2.0000     -10.287658      -279.9414
  16   2.0000      -8.085539      -220.0187
  17   2.0000      -8.079734      -219.8607
  18   2.0000      -6.044033      -164.4665
  19   2.0000      -6.040314      -164.3653
  20   2.0000      -6.038186      -164.3074
  21   2.0000      -6.036093      -164.2505
  22   2.0000      -6.034124      -164.1969
  23   2.0000      -6.030601      -164.1010
  24   2.0000      -1.005695       -27.3664
  25   2.0000      -0.984796       -26.7977
  26   2.0000      -0.914038       -24.8722
  27   2.0000      -0.906484       -24.6667
  28   2.0000      -0.865270       -23.5452
  29   2.0000      -0.852804       -23.2060
  30   2.0000      -0.843515       -22.9532
  31   2.0000      -0.811049       -22.0698
  32   2.0000      -0.781755       -21.2726
  33   2.0000      -0.772789       -21.0287
  34   2.0000      -0.713361       -19.4115
  35   2.0000      -0.697343       -18.9757
  36   2.0000      -0.685823       -18.6622
  37   2.0000      -0.661312       -17.9952
  38   2.0000      -0.635478       -17.2922
  39   2.0000      -0.625180       -17.0120
  40   2.0000      -0.591160       -16.0863
  41   2.0000      -0.571768       -15.5586
  42   2.0000      -0.567722       -15.4485
  43   2.0000      -0.555330       -15.1113
  44   2.0000      -0.526175       -14.3180
  45   2.0000      -0.521443       -14.1892
  46   2.0000      -0.515677       -14.0323
  47   2.0000      -0.508653       -13.8411
  48   2.0000      -0.506170       -13.7736
  49   2.0000      -0.497315       -13.5326
  50   2.0000      -0.481927       -13.1139
  51   2.0000      -0.475066       -12.9272
  52   2.0000      -0.473664       -12.8891
  53   2.0000      -0.470496       -12.8028
  54   2.0000      -0.457269       -12.4429
  55   2.0000      -0.452778       -12.3207
  56   2.0000      -0.449654       -12.2357
  57   2.0000      -0.444653       -12.0996
  58   2.0000      -0.433048       -11.7838
  59   2.0000      -0.427529       -11.6337
  60   2.0000      -0.425502       -11.5785
  61   2.0000      -0.411642       -11.2014
  62   2.0000      -0.408867       -11.1258
  63   2.0000      -0.356444        -9.6993
  64   2.0000      -0.335973        -9.1423
  65   2.0000      -0.329541        -8.9673
  66   2.0000      -0.284743        -7.7483
  67   0.0000       0.021978         0.5981
  68   0.0000       0.080083         2.1792
  69   0.0000       0.099793         2.7155
  70   0.0000       0.115599         3.1456
  71   0.0000       0.121328         3.3015

MULLIKEN ATOMIC CHARGES
-----------------------
   0 S :    0.111572
   1 C :   -0.157205
   2 C :   -0.023749
   3 C :   -0.035352
   4 C :   -0.099510
   5 H :    0.004424
   6 C :    0.069615
   7 H :    0.043672
   8 H :    0.008370
   9 C :   -0.116978
  10 H :    0.038149
  11 H :    0.040629
  12 C :   -0.064201
  13 H :    0.040837
  14 H :    0.032842
  15 H :    0.050271
  16 S :    0.096591
  17 C :   -0.102793
  18 C :   -0.077950
  19 C :   -0.045360
  20 C :   -0.129529
  21 H :    0.052382
  22 C :    0.036793
  23 H :    0.023930
  24 H :    0.038264
  25 C :   -0.041712
  26 H :    0.017355
  27 H :    0.030930
  28 C :   -0.088374
  29 H :    0.036588
  30 H :    0.033352
  31 H :    0.044735
  32 H :    0.066630
  33 H :    0.064780
Sum of atomic charges:   -0.0000000

LOEWDIN ATOMIC CHARGES
----------------------
   0 S :    0.397794
   1 C :   -0.198864
   2 C :   -0.061181
   3 C :   -0.064710
   4 C :   -0.175018
   5 H :    0.031686
   6 C :   -0.039602
   7 H :    0.039968
   8 H :    0.025555
   9 C :   -0.047065
  10 H :    0.024073
  11 H :    0.026693
  12 C :   -0.069794
  13 H :    0.031774
  14 H :    0.026527
  15 H :    0.030271
  16 S :    0.409431
  17 C :   -0.201049
  18 C :   -0.085727
  19 C :   -0.065134
  20 C :   -0.196226
  21 H :    0.048676
  22 C :   -0.037152
  23 H :    0.035593
  24 H :    0.031001
  25 C :   -0.037533
  26 H :    0.012288
  27 H :    0.027714
  28 C :   -0.068419
  29 H :    0.027358
  30 H :    0.020183
  31 H :    0.029246
  32 H :    0.035981
  33 H :    0.035661

  Mayer bond orders larger than 0.100000
B(  0-S ,  1-C ) :   1.1330 B(  0-S ,  4-C ) :   1.1457 B(  1-C ,  2-C ) :   1.6504
B(  1-C , 32-H ) :   0.9549 B(  2-C ,  3-C ) :   1.2030 B(  2-C ,  6-C ) :   1.0163
B(  3-C ,  4-C ) :   1.5923 B(  3-C ,  5-H ) :   0.9768 B(  4-C , 20-C ) :   1.0559
B(  6-C ,  7-H ) :   0.9307 B(  6-C ,  8-H ) :   0.9363 B(  6-C ,  9-C ) :   1.0580
B(  9-C , 10-H ) :   0.9470 B(  9-C , 11-H ) :   0.9631 B(  9-C , 12-C ) :   1.0635
B( 12-C , 13-H ) :   0.9760 B( 12-C , 14-H ) :   0.9753 B( 12-C , 15-H ) :   0.9764
B( 16-S , 17-C ) :   1.1633 B( 16-S , 20-C ) :   1.1416 B( 17-C , 18-C ) :   1.6029
B( 17-C , 33-H ) :   0.9661 B( 18-C , 19-C ) :   1.2554 B( 18-C , 21-H ) :   0.9758
B( 19-C , 20-C ) :   1.5728 B( 19-C , 22-C ) :   1.0534 B( 22-C , 23-H ) :   0.9283
B( 22-C , 24-H ) :   0.9296 B( 22-C , 25-C ) :   1.0604 B( 25-C , 26-H ) :   0.9544
B( 25-C , 27-H ) :   0.9537 B( 25-C , 28-C ) :   1.0758 B( 28-C , 29-H ) :   0.9739
B( 28-C , 30-H ) :   0.9751 B( 28-C , 31-H ) :   0.9777

Dispersion correction           -0.014229540
FINAL SINGLE POINT ENERGY     -1339.873300941044

DIPOLE MOMENT
-------------
                                X             Y             Z
Electronic contribution:    -12.01427       5.15869      32.04521
Nuclear contribution   :     12.31598      -5.25160     -32.62063
                        -----------------------------------------
Total Dipole Moment    :      0.30171      -0.09291      -0.57542
                        -----------------------------------------
Magnitude (a.u.)       :      0.65633
Magnitude (Debye)      :      1.66825

Rotational constants in cm-1:     0.017520     0.009585     0.006408
Rotational constants in MHz :   525.240954   287.346737   192.120704

                             ****ORCA TERMINATED NORMALLY****
TOTAL RUN TIME: 0 days 0 hours 0 minutes 22 seconds 43 msec
