                         Program Version 4.2.1 -  RELEASE  -
|  1> ! wB97X-D3 SP def2-SVP
|  2> %pal
|  3> nprocs 24
|  4> end
|  5>
|  6> * xyz 0 1
|  7> S 	 -42.4794 	 -2.95219 	 13.511
|  8> C 	 -42.1816 	 -2.7886 	 15.174
|  9> C 	 -42.4561 	 -1.46869 	 15.5264
| 10> C 	 -42.6638 	 -0.568037 	 14.4131
| 11> C 	 -42.6574 	 -1.19764 	 13.1886
| 12> H 	 -42.8951 	 0.474172 	 14.5896
| 13> C 	 -42.4319 	 -1.00612 	 16.979
| 14> H 	 -43.1123 	 -1.73564 	 17.5348
| 15> H 	 -42.9194 	 -0.0769214 	 17.2146
| 16> C 	 -41.0743 	 -1.10544 	 17.7505
| 17> H 	 -41.2261 	 -0.883337 	 18.7966
| 18> H 	 -40.6632 	 -2.11445 	 17.7339
| 19> C 	 -39.9581 	 -0.231496 	 17.1881
| 20> H 	 -39.0631 	 -0.469045 	 17.7852
| 21> H 	 -39.772 	 -0.507281 	 16.159
| 22> H 	 -40.1688 	 0.878307 	 17.274
| 23> S 	 -43.7643 	 -1.47512 	 10.7276
| 24> C 	 -43.755 	 -0.154149 	 9.62953
| 25> C 	 -42.9493 	 0.860093 	 10.0622
| 26> C 	 -42.3925 	 0.631717 	 11.3864
| 27> C 	 -42.7202 	 -0.667018 	 11.8337
| 28> H 	 -42.7797 	 1.78824 	 9.49235
| 29> C 	 -41.4026 	 1.63632 	 12.0488
| 30> H 	 -40.6065 	 1.80853 	 11.3852
| 31> H 	 -40.8595 	 1.34935 	 12.9223
| 32> C 	 -42.1282 	 2.89218 	 12.5036
| 33> H 	 -42.8662 	 2.507 	 13.2244
| 34> H 	 -42.6865 	 3.22896 	 11.6675
| 35> C 	 -41.1288 	 3.98192 	 13.0307
| 36> H 	 -40.4557 	 3.61466 	 13.7797
| 37> H 	 -41.6128 	 4.95545 	 13.3469
| 38> H 	 -40.3946 	 4.22764 	 12.2618
| 39> H 	 -41.8752 	 -3.51099 	 15.8561
| 40> H 	 -44.3475 	 -0.114397 	 8.64423
| 41> *
| 42>
| 43>                          ****END OF INPUT****

CARTESIAN COORDINATES (ANGSTROEM)
---------------------------------
  S    -42.479400   -2.952190   13.511000
  C    -42.181600   -2.788600   15.174000
  C    -42.456100   -1.468690   15.526400
  C    -42.663800   -0.568037   14.413100
  C    -42.657400   -1.197640   13.188600
  H    -42.895100    0.474172   14.589600
  C    -42.431900   -1.006120   16.979000
  H    -43.112300   -1.735640   17.534800
  H    -42.919400   -0.076921   17.214600
  C    -41.074300   -1.105440   17.750500
  H    -41.226100   -0.883337   18.796600
  H    -40.663200   -2.114450   17.733900
  C    -39.958100   -0.231496   17.188100
  H    -39.063100   -0.469045   17.785200
  H    -39.772000   -0.507281   16.159000
  H    -40.168800    0.878307   17.274000
  S    -43.764300   -1.475120   10.727600
  C    -43.755000   -0.154149    9.629530
  C    -42.949300    0.860093   10.062200
  C    -42.392500    0.631717   11.386400
  C    -42.720200   -0.667018   11.833700
  H    -42.779700    1.788240    9.492350
  C    -41.402600    1.636320   12.048800
  H    -40.606500    1.808530   11.385200
  H    -40.859500    1.349350   12.922300
  C    -42.128200    2.892180   12.503600
  H    -42.866200    2.507000   13.224400
  H    -42.686500    3.228960   11.667500
  C    -41.128800    3.981920   13.030700
  H    -40.455700    3.614660   13.779700
  H    -41.612800    4.955450   13.346900
  H    -40.394600    4.227640   12.261800
  H    -41.875200   -3.510990   15.856100
  H    -44.347500   -0.114397    8.644230

 Total Charge           Charge          ....    0
 Multiplicity           Mult            ....    1
 Number of Electrons    NEL             ....  134
 Basis Dimension        Dim             ....  322

ORBITAL ENERGIES
----------------

  NO   OCC          E(Eh)            E(eV)
   0   2.0000     -88.968077     -2420.9445
   1   2.0000     -88.962942     -2420.8047
   2   2.0000     -10.334451      -281.2147
   3   2.0000     -10.330090      -281.0960
   4   2.0000     -10.323927      -280.9283
   5   2.0000     -10.313360      -280.6408
   6   2.0000     -10.309193      -280.5274
   7   2.0000     -10.302348      -280.3411
   8   2.0000     -10.299874      -280.2738
   9   2.0000     -10.296339      -280.1776
  10   2.0000     -10.294760      -280.1347
  11   2.0000     -10.287686      -279.9422
  12   2.0000     -10.287375      -279.9337
  13   2.0000     -10.286143      -279.9002
  14   2.0000     -10.286060      -279.8979
  15   2.0000     -10.277239      -279.6579
  16   2.0000      -8.084051      -219.9782
  17   2.0000      -8.078072      -219.8155
  18   2.0000      -6.042538      -164.4258
  19   2.0000      -6.038260      -164.3094
  20   2.0000      -6.036675      -164.2663
  21   2.0000      -6.034877      -164.2174
  22   2.0000      -6.032426      -164.1507
  23   2.0000      -6.028793      -164.0518
  24   2.0000      -1.010510       -27.4974
  25   2.0000      -0.988170       -26.8895
  26   2.0000      -0.912577       -24.8325
  27   2.0000      -0.904652       -24.6168
  28   2.0000      -0.872933       -23.7537
  29   2.0000      -0.849656       -23.1203
  30   2.0000      -0.842037       -22.9130
  31   2.0000      -0.816836       -22.2272
  32   2.0000      -0.783514       -21.3205
  33   2.0000      -0.769301       -20.9338
  34   2.0000      -0.709342       -19.3022
  35   2.0000      -0.699789       -19.0422
  36   2.0000      -0.694566       -18.9001
  37   2.0000      -0.661131       -17.9903
  38   2.0000      -0.639249       -17.3948
  39   2.0000      -0.621343       -16.9076
  40   2.0000      -0.600986       -16.3537
  41   2.0000      -0.575310       -15.6550
  42   2.0000      -0.563366       -15.3300
  43   2.0000      -0.544005       -14.8031
  44   2.0000      -0.538650       -14.6574
  45   2.0000      -0.522978       -14.2310
  46   2.0000      -0.517502       -14.0819
  47   2.0000      -0.511954       -13.9310
  48   2.0000      -0.506702       -13.7881
  49   2.0000      -0.497420       -13.5355
  50   2.0000      -0.496788       -13.5183
  51   2.0000      -0.477581       -12.9956
  52   2.0000      -0.474492       -12.9116
  53   2.0000      -0.467263       -12.7149
  54   2.0000      -0.458046       -12.4641
  55   2.0000      -0.455414       -12.3924
  56   2.0000      -0.440297       -11.9811
  57   2.0000      -0.435689       -11.8557
  58   2.0000      -0.429329       -11.6826
  59   2.0000      -0.425354       -11.5745
  60   2.0000      -0.419205       -11.4072
  61   2.0000      -0.417370       -11.3572
  62   2.0000      -0.410955       -11.1826
  63   2.0000      -0.361525        -9.8376
  64   2.0000      -0.334379        -9.0989
  65   2.0000      -0.324842        -8.8394
  66   2.0000      -0.285327        -7.7641
  67   0.0000       0.024781         0.6743
  68   0.0000       0.071464         1.9446
  69   0.0000       0.111013         3.0208
  70   0.0000       0.118652         3.2287
  71   0.0000       0.131226         3.5708

MULLIKEN ATOMIC CHARGES
-----------------------
   0 S :    0.098552
   1 C :   -0.081095
   2 C :   -0.111904
   3 C :    0.024721
   4 C :   -0.117413
   5 H :    0.007311
   6 C :    0.032892
   7 H :    0.036792
   8 H :    0.019411
   9 C :   -0.071899
  10 H :    0.025894
  11 H :    0.020071
  12 C :   -0.067798
  13 H :    0.034204
  14 H :    0.042137
  15 H :    0.036140
  16 S :    0.113032
  17 C :   -0.114989
  18 C :   -0.031809
  19 C :   -0.074881
  20 C :   -0.100570
  21 H :    0.031927
  22 C :    0.065910
  23 H :    0.016902
  24 H :    0.012238
  25 C :   -0.071164
  26 H :    0.031817
  27 H :    0.016557
  28 C :   -0.041166
  29 H :    0.022296
  30 H :    0.054053
  31 H :    0.021739
  32 H :    0.030526
  33 H :    0.089568
Sum of atomic charges:   -0.0000000

LOEWDIN ATOMIC CHARGES
----------------------
   0 S :    0.405824
   1 C :   -0.200968
   2 C :   -0.065937
   3 C :   -0.066664
   4 C :   -0.176454
   5 H :    0.030656
   6 C :   -0.041619
   7 H :    0.040209
   8 H :    0.024897
   9 C :   -0.041505
  10 H :    0.021933
  11 H :    0.020964
  12 C :   -0.070405
  13 H :    0.027924
  14 H :    0.023857
  15 H :    0.026753
  16 S :    0.434203
  17 C :   -0.207584
  18 C :   -0.077385
  19 C :   -0.046202
  20 C :   -0.209717
  21 H :    0.036383
  22 C :   -0.027366
  23 H :    0.022853
  24 H :    0.026013
  25 C :   -0.035660
  26 H :    0.024941
  27 H :    0.014971
  28 C :   -0.071320
  29 H :    0.021862
  30 H :    0.035531
  31 H :    0.026933
  32 H :    0.020854
  33 H :    0.051226

  Mayer bond orders larger than 0.100000
B(  0-S ,  1-C ) :   1.1512 B(  0-S ,  4-C ) :   1.1435 B(  1-C ,  2-C ) :   1.5761
B(  1-C , 32-H ) :   0.9815 B(  2-C ,  3-C ) :   1.2608 B(  2-C ,  6-C ) :   1.0215
B(  3-C ,  4-C ) :   1.5550 B(  3-C ,  5-H ) :   0.9953 B(  4-C , 20-C ) :   1.0320
B(  6-C ,  7-H ) :   0.9397 B(  6-C ,  8-H ) :   0.9510 B(  6-C ,  9-C ) :   1.0725
B(  9-C , 10-H ) :   0.9542 B(  9-C , 11-H ) :   0.9572 B(  9-C , 12-C ) :   1.0781
B( 12-C , 13-H ) :   0.9735 B( 12-C , 14-H ) :   0.9745 B( 12-C , 15-H ) :   0.9761
B( 16-S , 17-C ) :   1.1665 B( 16-S , 20-C ) :   1.1505 B( 17-C , 18-C ) :   1.6010
B( 17-C , 33-H ) :   0.9551 B( 18-C , 19-C ) :   1.2511 B( 18-C , 21-H ) :   0.9836
B( 19-C , 20-C ) :   1.5864 B( 19-C , 22-C ) :   1.0242 B( 22-C , 23-H ) :   0.9446
B( 22-C , 24-H ) :   0.9480 B( 22-C , 25-C ) :   1.0400 B( 25-C , 26-H ) :   0.9553
B( 25-C , 27-H ) :   0.9623 B( 25-C , 28-C ) :   1.0674 B( 28-C , 29-H ) :   0.9733
B( 28-C , 30-H ) :   0.9759 B( 28-C , 31-H ) :   0.9716

Dispersion correction           -0.014341080
FINAL SINGLE POINT ENERGY     -1339.873984345387

DIPOLE MOMENT
-------------
                                X             Y             Z
Electronic contribution:    -12.97019     -21.84177     -18.90047
Nuclear contribution   :     13.13139      22.43159      19.15412
                        -----------------------------------------
Total Dipole Moment    :      0.16120       0.58982       0.25365
                        -----------------------------------------
Magnitude (a.u.)       :      0.66198
Magnitude (Debye)      :      1.68261

Rotational constants in cm-1:     0.017106     0.009724     0.006546
Rotational constants in MHz :   512.825518   291.515315   196.239794

                             ****ORCA TERMINATED NORMALLY****
TOTAL RUN TIME: 0 days 0 hours 0 minutes 21 seconds 695 msec
