                         Program Version 4.2.1 -  RELEASE  -
|  1> ! wB97X-D3 SP def2-SVP
|  2> %pal
|  3> nprocs 24
|  4> end
|  5>
|  6> * xyz 0 1
|  7> S 	 34.3985 	 -28.3464 	 -127.872
|  8> C 	 35.5757 	 -28.433 	 -129.085
|  9> C 	 35.9458 	 -29.7444 	 -129.4
| 10> C 	 35.1577 	 -30.682 	 -128.696
| 11> C 	 34.2611 	 -30.0985 	 -127.789
| 12> H 	 35.0558 	 -31.6993 	 -128.778
| 13> C 	 36.9654 	 -30.0809 	 -130.538
| 14> H 	 37.1652 	 -29.1617 	 -131.132
| 15> H 	 36.3547 	 -30.7493 	 -131.158
| 16> C 	 38.3656 	 -30.5724 	 -130.07
| 17> H 	 38.1905 	 -31.3781 	 -129.369
| 18> H 	 39.0948 	 -30.9119 	 -130.837
| 19> C 	 39.0381 	 -29.4514 	 -129.125
| 20> H 	 38.3834 	 -29.2297 	 -128.24
| 21> H 	 40.0295 	 -29.7651 	 -128.705
| 22> H 	 39.3039 	 -28.5951 	 -129.734
| 23> S 	 31.7889 	 -29.8033 	 -126.288
| 24> C 	 31.1473 	 -31.1677 	 -125.468
| 25> C 	 31.8193 	 -32.3149 	 -125.73
| 26> C 	 33.0274 	 -32.1034 	 -126.494
| 27> C 	 33.2368 	 -30.8129 	 -126.891
| 28> H 	 31.4717 	 -33.2988 	 -125.355
| 29> C 	 33.8966 	 -33.3056 	 -126.84
| 30> H 	 33.9216 	 -33.9225 	 -126.007
| 31> H 	 34.953 	 -32.9158 	 -126.818
| 32> C 	 33.7172 	 -34.0694 	 -128.186
| 33> H 	 34.5993 	 -34.6513 	 -128.434
| 34> H 	 33.6141 	 -33.2582 	 -128.944
| 35> C 	 32.4485 	 -34.9739 	 -128.228
| 36> H 	 32.3297 	 -35.6195 	 -127.38
| 37> H 	 32.4462 	 -35.6603 	 -129.013
| 38> H 	 31.4816 	 -34.4283 	 -128.266
| 39> H 	 36.1374 	 -27.6467 	 -129.625
| 40> H 	 30.1973 	 -31.0587 	 -124.874
| 41> *
| 42>
| 43>                          ****END OF INPUT****

CARTESIAN COORDINATES (ANGSTROEM)
---------------------------------
  S     34.398500  -28.346400  -127.872000
  C     35.575700  -28.433000  -129.085000
  C     35.945800  -29.744400  -129.400000
  C     35.157700  -30.682000  -128.696000
  C     34.261100  -30.098500  -127.789000
  H     35.055800  -31.699300  -128.778000
  C     36.965400  -30.080900  -130.538000
  H     37.165200  -29.161700  -131.132000
  H     36.354700  -30.749300  -131.158000
  C     38.365600  -30.572400  -130.070000
  H     38.190500  -31.378100  -129.369000
  H     39.094800  -30.911900  -130.837000
  C     39.038100  -29.451400  -129.125000
  H     38.383400  -29.229700  -128.240000
  H     40.029500  -29.765100  -128.705000
  H     39.303900  -28.595100  -129.734000
  S     31.788900  -29.803300  -126.288000
  C     31.147300  -31.167700  -125.468000
  C     31.819300  -32.314900  -125.730000
  C     33.027400  -32.103400  -126.494000
  C     33.236800  -30.812900  -126.891000
  H     31.471700  -33.298800  -125.355000
  C     33.896600  -33.305600  -126.840000
  H     33.921600  -33.922500  -126.007000
  H     34.953000  -32.915800  -126.818000
  C     33.717200  -34.069400  -128.186000
  H     34.599300  -34.651300  -128.434000
  H     33.614100  -33.258200  -128.944000
  C     32.448500  -34.973900  -128.228000
  H     32.329700  -35.619500  -127.380000
  H     32.446200  -35.660300  -129.013000
  H     31.481600  -34.428300  -128.266000
  H     36.137400  -27.646700  -129.625000
  H     30.197300  -31.058700  -124.874000

 Total Charge           Charge          ....    0
 Multiplicity           Mult            ....    1
 Number of Electrons    NEL             ....  134
 Basis Dimension        Dim             ....  322

ORBITAL ENERGIES
----------------

  NO   OCC          E(Eh)            E(eV)
   0   2.0000     -88.973241     -2421.0850
   1   2.0000     -88.961990     -2420.7788
   2   2.0000     -10.342496      -281.4336
   3   2.0000     -10.340309      -281.3741
   4   2.0000     -10.320392      -280.8321
   5   2.0000     -10.314447      -280.6704
   6   2.0000     -10.307471      -280.4805
   7   2.0000     -10.304944      -280.4118
   8   2.0000     -10.302876      -280.3555
   9   2.0000     -10.299375      -280.2602
  10   2.0000     -10.296314      -280.1769
  11   2.0000     -10.295936      -280.1667
  12   2.0000     -10.292615      -280.0763
  13   2.0000     -10.292588      -280.0756
  14   2.0000     -10.284881      -279.8658
  15   2.0000     -10.275490      -279.6103
  16   2.0000      -8.088141      -220.0895
  17   2.0000      -8.076328      -219.7681
  18   2.0000      -6.046552      -164.5351
  19   2.0000      -6.042511      -164.4251
  20   2.0000      -6.039120      -164.3328
  21   2.0000      -6.035001      -164.2207
  22   2.0000      -6.031032      -164.1127
  23   2.0000      -6.026806      -163.9977
  24   2.0000      -1.004652       -27.3380
  25   2.0000      -0.985852       -26.8264
  26   2.0000      -0.906145       -24.6575
  27   2.0000      -0.901223       -24.5235
  28   2.0000      -0.862996       -23.4833
  29   2.0000      -0.848398       -23.0861
  30   2.0000      -0.845700       -23.0127
  31   2.0000      -0.811313       -22.0770
  32   2.0000      -0.787500       -21.4290
  33   2.0000      -0.771676       -20.9984
  34   2.0000      -0.713371       -19.4118
  35   2.0000      -0.699140       -19.0246
  36   2.0000      -0.687238       -18.7007
  37   2.0000      -0.662513       -18.0279
  38   2.0000      -0.643129       -17.5004
  39   2.0000      -0.617322       -16.7982
  40   2.0000      -0.594452       -16.1759
  41   2.0000      -0.566181       -15.4066
  42   2.0000      -0.552919       -15.0457
  43   2.0000      -0.547718       -14.9042
  44   2.0000      -0.544543       -14.8178
  45   2.0000      -0.538850       -14.6628
  46   2.0000      -0.513120       -13.9627
  47   2.0000      -0.501061       -13.6346
  48   2.0000      -0.498614       -13.5680
  49   2.0000      -0.494083       -13.4447
  50   2.0000      -0.485323       -13.2063
  51   2.0000      -0.479918       -13.0592
  52   2.0000      -0.470799       -12.8111
  53   2.0000      -0.468294       -12.7429
  54   2.0000      -0.460594       -12.5334
  55   2.0000      -0.449525       -12.2322
  56   2.0000      -0.445536       -12.1237
  57   2.0000      -0.439160       -11.9502
  58   2.0000      -0.431425       -11.7397
  59   2.0000      -0.426397       -11.6029
  60   2.0000      -0.420946       -11.4545
  61   2.0000      -0.415906       -11.3174
  62   2.0000      -0.410129       -11.1602
  63   2.0000      -0.361934        -9.8487
  64   2.0000      -0.336504        -9.1567
  65   2.0000      -0.331021        -9.0075
  66   2.0000      -0.287095        -7.8123
  67   0.0000       0.022474         0.6116
  68   0.0000       0.083684         2.2772
  69   0.0000       0.094491         2.5712
  70   0.0000       0.118902         3.2355
  71   0.0000       0.137968         3.7543

MULLIKEN ATOMIC CHARGES
-----------------------
   0 S :    0.132054
   1 C :   -0.101042
   2 C :   -0.119740
   3 C :    0.056302
   4 C :   -0.135415
   5 H :   -0.057561
   6 C :    0.059902
   7 H :    0.022992
   8 H :    0.043983
   9 C :   -0.064964
  10 H :    0.028186
  11 H :    0.050613
  12 C :   -0.111095
  13 H :    0.066439
  14 H :    0.035662
  15 H :    0.029058
  16 S :    0.064492
  17 C :   -0.100745
  18 C :   -0.023776
  19 C :   -0.085126
  20 C :   -0.096998
  21 H :    0.028243
  22 C :    0.038228
  23 H :    0.004417
  24 H :    0.030791
  25 C :   -0.063253
  26 H :    0.039255
  27 H :    0.048510
  28 C :   -0.025507
  29 H :    0.011891
  30 H :    0.015670
  31 H :    0.041357
  32 H :    0.055757
  33 H :    0.081418
Sum of atomic charges:    0.0000000

LOEWDIN ATOMIC CHARGES
----------------------
   0 S :    0.434978
   1 C :   -0.221624
   2 C :   -0.065701
   3 C :   -0.059972
   4 C :   -0.184283
   5 H :    0.013256
   6 C :   -0.030691
   7 H :    0.029192
   8 H :    0.033504
   9 C :   -0.042414
  10 H :    0.020552
  11 H :    0.030097
  12 C :   -0.074866
  13 H :    0.035117
  14 H :    0.027797
  15 H :    0.017929
  16 S :    0.355946
  17 C :   -0.189460
  18 C :   -0.082452
  19 C :   -0.061033
  20 C :   -0.152930
  21 H :    0.037752
  22 C :   -0.035443
  23 H :    0.018017
  24 H :    0.038708
  25 C :   -0.034441
  26 H :    0.027618
  27 H :    0.029642
  28 C :   -0.067953
  29 H :    0.020231
  30 H :    0.017864
  31 H :    0.033052
  32 H :    0.039441
  33 H :    0.042571

  Mayer bond orders larger than 0.100000
B(  0-S ,  1-C ) :   1.1644 B(  0-S ,  4-C ) :   1.1627 B(  1-C ,  2-C ) :   1.5884
B(  1-C , 32-H ) :   0.9554 B(  2-C ,  3-C ) :   1.2605 B(  2-C ,  6-C ) :   1.0035
B(  3-C ,  4-C ) :   1.5481 B(  3-C ,  5-H ) :   1.0054 B(  4-C , 20-C ) :   1.0330
B(  6-C ,  7-H ) :   0.9493 B(  6-C ,  8-H ) :   0.9493 B(  6-C ,  9-C ) :   1.0466
B(  9-C , 10-H ) :   0.9620 B(  9-C , 11-H ) :   0.9630 B(  9-C , 12-C ) :   1.0601
B( 12-C , 13-H ) :   0.9739 B( 12-C , 14-H ) :   0.9768 B( 12-C , 15-H ) :   0.9792
B( 16-S , 17-C ) :   1.1565 B( 16-S , 20-C ) :   1.0960 B( 17-C , 18-C ) :   1.6289
B( 17-C , 33-H ) :   0.9559 B( 18-C , 19-C ) :   1.2131 B( 18-C , 21-H ) :   0.9874
B( 19-C , 20-C ) :   1.6620 B( 19-C , 22-C ) :   1.0341 B( 22-C , 23-H ) :   0.9352
B( 22-C , 24-H ) :   0.9342 B( 22-C , 25-C ) :   1.0586 B( 25-C , 26-H ) :   0.9582
B( 25-C , 27-H ) :   0.9470 B( 25-C , 28-C ) :   1.0748 B( 28-C , 29-H ) :   0.9747
B( 28-C , 30-H ) :   0.9733 B( 28-C , 31-H ) :   0.9753

Dispersion correction           -0.014663991
FINAL SINGLE POINT ENERGY     -1339.867079363371

DIPOLE MOMENT
-------------
                                X             Y             Z
Electronic contribution:    -16.56643      18.57569      10.88565
Nuclear contribution   :     16.79867     -19.21520     -11.12761
                        -----------------------------------------
Total Dipole Moment    :      0.23224      -0.63951      -0.24196
                        -----------------------------------------
Magnitude (a.u.)       :      0.72212
Magnitude (Debye)      :      1.83548

Rotational constants in cm-1:     0.019479     0.008614     0.006423
Rotational constants in MHz :   583.979496   258.227576   192.549691

                             ****ORCA TERMINATED NORMALLY****
TOTAL RUN TIME: 0 days 0 hours 0 minutes 21 seconds 576 msec
