                         Program Version 4.2.1 -  RELEASE  -
|  1> ! wB97X-D3 SP def2-SVP
|  2> %pal
|  3> nprocs 24
|  4> end
|  5>
|  6> * xyz 0 1
|  7> S 	 -86.6504 	 -43.8173 	 -72.6574
|  8> C 	 -85.5157 	 -45.0995 	 -72.89
|  9> C 	 -85.9873 	 -46.1742 	 -73.575
| 10> C 	 -87.3834 	 -45.9843 	 -73.8945
| 11> C 	 -87.9206 	 -44.876 	 -73.3782
| 12> H 	 -88.1224 	 -46.6111 	 -74.4113
| 13> C 	 -85.1598 	 -47.4165 	 -74.0147
| 14> H 	 -84.8075 	 -47.8078 	 -73.1013
| 15> H 	 -84.1698 	 -47.0029 	 -74.4738
| 16> C 	 -85.7498 	 -48.5601 	 -74.805
| 17> H 	 -85.0991 	 -49.4705 	 -74.9919
| 18> H 	 -86.6147 	 -48.8981 	 -74.2306
| 19> C 	 -86.3548 	 -48.1294 	 -76.0914
| 20> H 	 -86.2768 	 -48.9046 	 -76.7557
| 21> H 	 -87.4226 	 -47.8156 	 -76.1284
| 22> H 	 -85.725 	 -47.3799 	 -76.572
| 23> S 	 -89.4122 	 -42.5789 	 -73.4192
| 24> C 	 -91.1567 	 -42.7531 	 -73.2632
| 25> C 	 -91.5801 	 -44.0649 	 -73.2443
| 26> C 	 -90.4974 	 -45.0056 	 -73.238
| 27> C 	 -89.2674 	 -44.3316 	 -73.4796
| 28> H 	 -92.6069 	 -44.2906 	 -73.0878
| 29> C 	 -90.7112 	 -46.5477 	 -73.0483
| 30> H 	 -91.2941 	 -46.5624 	 -72.1162
| 31> H 	 -89.7017 	 -46.8914 	 -72.9098
| 32> C 	 -91.5509 	 -47.3388 	 -74.1854
| 33> H 	 -92.4923 	 -46.752 	 -74.306
| 34> H 	 -91.9149 	 -48.3627 	 -73.9204
| 35> C 	 -90.8939 	 -47.3821 	 -75.6157
| 36> H 	 -91.0004 	 -46.4006 	 -76.0738
| 37> H 	 -91.3468 	 -48.1178 	 -76.2556
| 38> H 	 -89.8364 	 -47.6227 	 -75.5352
| 39> H 	 -84.5119 	 -45.0892 	 -72.5976
| 40> H 	 -91.9297 	 -41.9976 	 -73.2466
| 41> *
| 42>
| 43>                          ****END OF INPUT****

CARTESIAN COORDINATES (ANGSTROEM)
---------------------------------
  S    -86.650400  -43.817300  -72.657400
  C    -85.515700  -45.099500  -72.890000
  C    -85.987300  -46.174200  -73.575000
  C    -87.383400  -45.984300  -73.894500
  C    -87.920600  -44.876000  -73.378200
  H    -88.122400  -46.611100  -74.411300
  C    -85.159800  -47.416500  -74.014700
  H    -84.807500  -47.807800  -73.101300
  H    -84.169800  -47.002900  -74.473800
  C    -85.749800  -48.560100  -74.805000
  H    -85.099100  -49.470500  -74.991900
  H    -86.614700  -48.898100  -74.230600
  C    -86.354800  -48.129400  -76.091400
  H    -86.276800  -48.904600  -76.755700
  H    -87.422600  -47.815600  -76.128400
  H    -85.725000  -47.379900  -76.572000
  S    -89.412200  -42.578900  -73.419200
  C    -91.156700  -42.753100  -73.263200
  C    -91.580100  -44.064900  -73.244300
  C    -90.497400  -45.005600  -73.238000
  C    -89.267400  -44.331600  -73.479600
  H    -92.606900  -44.290600  -73.087800
  C    -90.711200  -46.547700  -73.048300
  H    -91.294100  -46.562400  -72.116200
  H    -89.701700  -46.891400  -72.909800
  C    -91.550900  -47.338800  -74.185400
  H    -92.492300  -46.752000  -74.306000
  H    -91.914900  -48.362700  -73.920400
  C    -90.893900  -47.382100  -75.615700
  H    -91.000400  -46.400600  -76.073800
  H    -91.346800  -48.117800  -76.255600
  H    -89.836400  -47.622700  -75.535200
  H    -84.511900  -45.089200  -72.597600
  H    -91.929700  -41.997600  -73.246600

 Total Charge           Charge          ....    0
 Multiplicity           Mult            ....    1
 Number of Electrons    NEL             ....  134
 Basis Dimension        Dim             ....  322

ORBITAL ENERGIES
----------------

  NO   OCC          E(Eh)            E(eV)
   0   2.0000     -88.972304     -2421.0595
   1   2.0000     -88.962343     -2420.7884
   2   2.0000     -10.330161      -281.0980
   3   2.0000     -10.325097      -280.9602
   4   2.0000     -10.317853      -280.7631
   5   2.0000     -10.311278      -280.5841
   6   2.0000     -10.304783      -280.4074
   7   2.0000     -10.304740      -280.4062
   8   2.0000     -10.304401      -280.3970
   9   2.0000     -10.303988      -280.3858
  10   2.0000     -10.297591      -280.2117
  11   2.0000     -10.292460      -280.0721
  12   2.0000     -10.290805      -280.0271
  13   2.0000     -10.290708      -280.0244
  14   2.0000     -10.280679      -279.7515
  15   2.0000     -10.266493      -279.3655
  16   2.0000      -8.086352      -220.0408
  17   2.0000      -8.077011      -219.7867
  18   2.0000      -6.044965      -164.4919
  19   2.0000      -6.041104      -164.3868
  20   2.0000      -6.036905      -164.2725
  21   2.0000      -6.035629      -164.2378
  22   2.0000      -6.031809      -164.1339
  23   2.0000      -6.027385      -164.0135
  24   2.0000      -1.006275       -27.3821
  25   2.0000      -0.981545       -26.7092
  26   2.0000      -0.915359       -24.9082
  27   2.0000      -0.894916       -24.3519
  28   2.0000      -0.874615       -23.7995
  29   2.0000      -0.851667       -23.1750
  30   2.0000      -0.842953       -22.9379
  31   2.0000      -0.821467       -22.3532
  32   2.0000      -0.786478       -21.4012
  33   2.0000      -0.773303       -21.0427
  34   2.0000      -0.709506       -19.3066
  35   2.0000      -0.697746       -18.9866
  36   2.0000      -0.692746       -18.8506
  37   2.0000      -0.658624       -17.9221
  38   2.0000      -0.644327       -17.5330
  39   2.0000      -0.620310       -16.8795
  40   2.0000      -0.583780       -15.8855
  41   2.0000      -0.565659       -15.3924
  42   2.0000      -0.556396       -15.1403
  43   2.0000      -0.545578       -14.8459
  44   2.0000      -0.545140       -14.8340
  45   2.0000      -0.540362       -14.7040
  46   2.0000      -0.519428       -14.1343
  47   2.0000      -0.510722       -13.8975
  48   2.0000      -0.500200       -13.6111
  49   2.0000      -0.495046       -13.4709
  50   2.0000      -0.492085       -13.3903
  51   2.0000      -0.481034       -13.0896
  52   2.0000      -0.468206       -12.7405
  53   2.0000      -0.462889       -12.5958
  54   2.0000      -0.461513       -12.5584
  55   2.0000      -0.450364       -12.2550
  56   2.0000      -0.442513       -12.0414
  57   2.0000      -0.438013       -11.9189
  58   2.0000      -0.430843       -11.7238
  59   2.0000      -0.429657       -11.6916
  60   2.0000      -0.420839       -11.4516
  61   2.0000      -0.416279       -11.3275
  62   2.0000      -0.412430       -11.2228
  63   2.0000      -0.358003        -9.7417
  64   2.0000      -0.337174        -9.1750
  65   2.0000      -0.327367        -8.9081
  66   2.0000      -0.283245        -7.7075
  67   0.0000       0.024950         0.6789
  68   0.0000       0.071574         1.9476
  69   0.0000       0.097901         2.6640
  70   0.0000       0.117898         3.2082
  71   0.0000       0.129261         3.5174

MULLIKEN ATOMIC CHARGES
-----------------------
   0 S :    0.091170
   1 C :   -0.090058
   2 C :   -0.063350
   3 C :    0.012530
   4 C :   -0.134293
   5 H :   -0.020447
   6 C :    0.056037
   7 H :    0.021105
   8 H :    0.041624
   9 C :   -0.068209
  10 H :    0.050221
  11 H :    0.025399
  12 C :   -0.028890
  13 H :   -0.001442
  14 H :    0.042010
  15 H :    0.022667
  16 S :    0.106212
  17 C :   -0.076868
  18 C :   -0.024248
  19 C :   -0.087798
  20 C :   -0.132922
  21 H :    0.010167
  22 C :    0.071977
  23 H :    0.044164
  24 H :    0.029107
  25 C :   -0.093414
  26 H :    0.030793
  27 H :    0.044008
  28 C :   -0.055618
  29 H :    0.048593
  30 H :    0.033920
  31 H :    0.032080
  32 H :    0.014629
  33 H :    0.049139
Sum of atomic charges:    0.0000000

LOEWDIN ATOMIC CHARGES
----------------------
   0 S :    0.373458
   1 C :   -0.190758
   2 C :   -0.054897
   3 C :   -0.073697
   4 C :   -0.166257
   5 H :    0.031420
   6 C :   -0.038361
   7 H :    0.026787
   8 H :    0.039580
   9 C :   -0.050290
  10 H :    0.041330
  11 H :    0.028623
  12 C :   -0.069360
  13 H :    0.014816
  14 H :    0.028037
  15 H :    0.027447
  16 S :    0.399855
  17 C :   -0.181123
  18 C :   -0.069404
  19 C :   -0.050818
  20 C :   -0.197174
  21 H :    0.026409
  22 C :   -0.026598
  23 H :    0.039205
  24 H :    0.024223
  25 C :   -0.042340
  26 H :    0.025408
  27 H :    0.028353
  28 C :   -0.066779
  29 H :    0.030864
  30 H :    0.026268
  31 H :    0.018688
  32 H :    0.017133
  33 H :    0.029953

  Mayer bond orders larger than 0.100000
B(  0-S ,  1-C ) :   1.1233 B(  0-S ,  4-C ) :   1.1039 B(  1-C ,  2-C ) :   1.6800
B(  1-C , 32-H ) :   0.9698 B(  2-C ,  3-C ) :   1.1765 B(  2-C ,  6-C ) :   0.9835
B(  3-C ,  4-C ) :   1.6580 B(  3-C ,  5-H ) :   0.9828 B(  4-C , 20-C ) :   1.0621
B(  6-C ,  7-H ) :   0.9348 B(  6-C ,  8-H ) :   0.9402 B(  6-C ,  9-C ) :   1.0930
B(  9-C , 10-H ) :   0.9548 B(  9-C , 11-H ) :   0.9460 B(  9-C , 12-C ) :   1.0770
B( 12-C , 13-H ) :   0.9650 B( 12-C , 14-H ) :   0.9699 B( 12-C , 15-H ) :   0.9714
B( 16-S , 17-C ) :   1.1374 B( 16-S , 20-C ) :   1.1314 B( 17-C , 18-C ) :   1.6431
B( 17-C , 33-H ) :   0.9620 B( 18-C , 19-C ) :   1.2357 B( 18-C , 21-H ) :   0.9875
B( 19-C , 20-C ) :   1.5720 B( 19-C , 22-C ) :   1.0238 B( 22-C , 23-H ) :   0.9354
B( 22-C , 24-H ) :   0.9383 B( 22-C , 25-C ) :   1.0482 B( 25-C , 26-H ) :   0.9584
B( 25-C , 27-H ) :   0.9636 B( 25-C , 28-C ) :   1.0654 B( 28-C , 29-H ) :   0.9772
B( 28-C , 30-H ) :   0.9707 B( 28-C , 31-H ) :   0.9749

Dispersion correction           -0.015276094
FINAL SINGLE POINT ENERGY     -1339.854268181640

DIPOLE MOMENT
-------------
                                X             Y             Z
Electronic contribution:      2.82374      27.46087      12.67263
Nuclear contribution   :     -3.08872     -28.15569     -12.81532
                        -----------------------------------------
Total Dipole Moment    :     -0.26498      -0.69483      -0.14269
                        -----------------------------------------
Magnitude (a.u.)       :      0.75720
Magnitude (Debye)      :      1.92466

Rotational constants in cm-1:     0.017220     0.010726     0.007179
Rotational constants in MHz :   516.237061   321.568093   215.223179

                             ****ORCA TERMINATED NORMALLY****
TOTAL RUN TIME: 0 days 0 hours 0 minutes 21 seconds 555 msec
