                         Program Version 4.2.1 -  RELEASE  -
|  1> ! wB97X-D3 SP def2-SVP
|  2> %pal
|  3> nprocs 24
|  4> end
|  5>
|  6> * xyz 0 1
|  7> S 	 -120.049 	 62.8276 	 -55.4803
|  8> C 	 -119.183 	 64.3129 	 -55.116
|  9> C 	 -120.034 	 65.4473 	 -55.0603
| 10> C 	 -121.435 	 65.1548 	 -55.3311
| 11> C 	 -121.633 	 63.7695 	 -55.4822
| 12> H 	 -122.293 	 65.8018 	 -55.4281
| 13> C 	 -119.536 	 66.8748 	 -54.6998
| 14> H 	 -118.668 	 67.1189 	 -55.2806
| 15> H 	 -119.163 	 66.8017 	 -53.6767
| 16> C 	 -120.569 	 67.947 	 -54.7361
| 17> H 	 -121.119 	 68.0283 	 -55.7202
| 18> H 	 -121.346 	 67.5392 	 -54.013
| 19> C 	 -120.042 	 69.3211 	 -54.1845
| 20> H 	 -119.163 	 69.2712 	 -53.587
| 21> H 	 -119.743 	 69.8968 	 -55.0349
| 22> H 	 -120.761 	 69.8207 	 -53.631
| 23> S 	 -123.127 	 62.4238 	 -57.4207
| 24> C 	 -124.625 	 61.6476 	 -56.9713
| 25> C 	 -125.005 	 62.0036 	 -55.699
| 26> C 	 -124.009 	 62.9054 	 -55.049
| 27> C 	 -122.866 	 63.0837 	 -55.7919
| 28> H 	 -125.928 	 61.6876 	 -55.3102
| 29> C 	 -124.177 	 63.201 	 -53.5751
| 30> H 	 -123.219 	 63.4101 	 -53.1098
| 31> H 	 -124.645 	 62.364 	 -53.0937
| 32> C 	 -125.08 	 64.3969 	 -53.4258
| 33> H 	 -126.072 	 64.2282 	 -53.9862
| 34> H 	 -124.634 	 65.245 	 -54.015
| 35> C 	 -125.382 	 64.7171 	 -51.9442
| 36> H 	 -124.61 	 64.7429 	 -51.2155
| 37> H 	 -126.127 	 64.0557 	 -51.5907
| 38> H 	 -125.926 	 65.651 	 -51.8707
| 39> H 	 -118.151 	 64.2933 	 -54.8987
| 40> H 	 -125.274 	 60.9316 	 -57.59
| 41> *
| 42>
| 43>                          ****END OF INPUT****

CARTESIAN COORDINATES (ANGSTROEM)
---------------------------------
  S    -120.049000   62.827600  -55.480300
  C    -119.183000   64.312900  -55.116000
  C    -120.034000   65.447300  -55.060300
  C    -121.435000   65.154800  -55.331100
  C    -121.633000   63.769500  -55.482200
  H    -122.293000   65.801800  -55.428100
  C    -119.536000   66.874800  -54.699800
  H    -118.668000   67.118900  -55.280600
  H    -119.163000   66.801700  -53.676700
  C    -120.569000   67.947000  -54.736100
  H    -121.119000   68.028300  -55.720200
  H    -121.346000   67.539200  -54.013000
  C    -120.042000   69.321100  -54.184500
  H    -119.163000   69.271200  -53.587000
  H    -119.743000   69.896800  -55.034900
  H    -120.761000   69.820700  -53.631000
  S    -123.127000   62.423800  -57.420700
  C    -124.625000   61.647600  -56.971300
  C    -125.005000   62.003600  -55.699000
  C    -124.009000   62.905400  -55.049000
  C    -122.866000   63.083700  -55.791900
  H    -125.928000   61.687600  -55.310200
  C    -124.177000   63.201000  -53.575100
  H    -123.219000   63.410100  -53.109800
  H    -124.645000   62.364000  -53.093700
  C    -125.080000   64.396900  -53.425800
  H    -126.072000   64.228200  -53.986200
  H    -124.634000   65.245000  -54.015000
  C    -125.382000   64.717100  -51.944200
  H    -124.610000   64.742900  -51.215500
  H    -126.127000   64.055700  -51.590700
  H    -125.926000   65.651000  -51.870700
  H    -118.151000   64.293300  -54.898700
  H    -125.274000   60.931600  -57.590000

 Total Charge           Charge          ....    0
 Multiplicity           Mult            ....    1
 Number of Electrons    NEL             ....  134
 Basis Dimension        Dim             ....  322

ORBITAL ENERGIES
----------------

  NO   OCC          E(Eh)            E(eV)
   0   2.0000     -88.968691     -2420.9612
   1   2.0000     -88.959812     -2420.7195
   2   2.0000     -10.337043      -281.2853
   3   2.0000     -10.324265      -280.9375
   4   2.0000     -10.322064      -280.8776
   5   2.0000     -10.317724      -280.7595
   6   2.0000     -10.312383      -280.6142
   7   2.0000     -10.306335      -280.4496
   8   2.0000     -10.304695      -280.4050
   9   2.0000     -10.295962      -280.1674
  10   2.0000     -10.292858      -280.0829
  11   2.0000     -10.292738      -280.0796
  12   2.0000     -10.290443      -280.0172
  13   2.0000     -10.283103      -279.8175
  14   2.0000     -10.273122      -279.5459
  15   2.0000     -10.270451      -279.4732
  16   2.0000      -8.081754      -219.9157
  17   2.0000      -8.074441      -219.7167
  18   2.0000      -6.040300      -164.3649
  19   2.0000      -6.036563      -164.2632
  20   2.0000      -6.033188      -164.1714
  21   2.0000      -6.032514      -164.1531
  22   2.0000      -6.028951      -164.0561
  23   2.0000      -6.024946      -163.9471
  24   2.0000      -0.995845       -27.0983
  25   2.0000      -0.971192       -26.4275
  26   2.0000      -0.910856       -24.7857
  27   2.0000      -0.910212       -24.7681
  28   2.0000      -0.868577       -23.6352
  29   2.0000      -0.844912       -22.9912
  30   2.0000      -0.841478       -22.8978
  31   2.0000      -0.814813       -22.1722
  32   2.0000      -0.784037       -21.3347
  33   2.0000      -0.771315       -20.9885
  34   2.0000      -0.711711       -19.3666
  35   2.0000      -0.694202       -18.8902
  36   2.0000      -0.685292       -18.6477
  37   2.0000      -0.657076       -17.8800
  38   2.0000      -0.646524       -17.5928
  39   2.0000      -0.615965       -16.7613
  40   2.0000      -0.591513       -16.0959
  41   2.0000      -0.569922       -15.5084
  42   2.0000      -0.567877       -15.4527
  43   2.0000      -0.556281       -15.1372
  44   2.0000      -0.528633       -14.3848
  45   2.0000      -0.521187       -14.1822
  46   2.0000      -0.515280       -14.0215
  47   2.0000      -0.509314       -13.8591
  48   2.0000      -0.505942       -13.7674
  49   2.0000      -0.499043       -13.5797
  50   2.0000      -0.490911       -13.3584
  51   2.0000      -0.484274       -13.1778
  52   2.0000      -0.470889       -12.8135
  53   2.0000      -0.468051       -12.7363
  54   2.0000      -0.454073       -12.3559
  55   2.0000      -0.449059       -12.2195
  56   2.0000      -0.442058       -12.0290
  57   2.0000      -0.441420       -12.0117
  58   2.0000      -0.437880       -11.9153
  59   2.0000      -0.420025       -11.4295
  60   2.0000      -0.414097       -11.2681
  61   2.0000      -0.412846       -11.2341
  62   2.0000      -0.409434       -11.1413
  63   2.0000      -0.342028        -9.3071
  64   2.0000      -0.326862        -8.8944
  65   2.0000      -0.322223        -8.7681
  66   2.0000      -0.297779        -8.1030
  67   0.0000       0.029777         0.8103
  68   0.0000       0.060290         1.6406
  69   0.0000       0.110508         3.0071
  70   0.0000       0.121732         3.3125
  71   0.0000       0.124474         3.3871

MULLIKEN ATOMIC CHARGES
-----------------------
   0 S :    0.106838
   1 C :   -0.104747
   2 C :   -0.094174
   3 C :    0.039601
   4 C :   -0.182246
   5 H :    0.028634
   6 C :    0.080855
   7 H :    0.026074
   8 H :    0.034471
   9 C :   -0.160005
  10 H :    0.050520
  11 H :    0.036909
  12 C :    0.024172
  13 H :    0.017922
  14 H :    0.028709
  15 H :    0.023607
  16 S :    0.100582
  17 C :   -0.108743
  18 C :   -0.020545
  19 C :   -0.023604
  20 C :   -0.169710
  21 H :    0.002728
  22 C :    0.100432
  23 H :    0.032073
  24 H :    0.019097
  25 C :   -0.152432
  26 H :    0.035792
  27 H :    0.028881
  28 C :    0.015548
  29 H :    0.028025
  30 H :    0.013346
  31 H :    0.019894
  32 H :    0.038018
  33 H :    0.083477
Sum of atomic charges:    0.0000000

LOEWDIN ATOMIC CHARGES
----------------------
   0 S :    0.375049
   1 C :   -0.187607
   2 C :   -0.055671
   3 C :   -0.050780
   4 C :   -0.168500
   5 H :    0.036086
   6 C :   -0.037249
   7 H :    0.024843
   8 H :    0.035791
   9 C :   -0.051317
  10 H :    0.029428
  11 H :    0.028558
  12 C :   -0.052174
  13 H :    0.023297
  14 H :    0.027644
  15 H :    0.019365
  16 S :    0.384868
  17 C :   -0.194446
  18 C :   -0.070263
  19 C :   -0.044277
  20 C :   -0.204807
  21 H :    0.021219
  22 C :   -0.028899
  23 H :    0.030773
  24 H :    0.027337
  25 C :   -0.045931
  26 H :    0.030659
  27 H :    0.022463
  28 C :   -0.066223
  29 H :    0.020880
  30 H :    0.022461
  31 H :    0.028168
  32 H :    0.018938
  33 H :    0.050315

  Mayer bond orders larger than 0.100000
B(  0-S ,  1-C ) :   1.1429 B(  0-S ,  4-C ) :   1.1306 B(  1-C ,  2-C ) :   1.6163
B(  1-C ,  4-C ) :   0.1062 B(  1-C , 32-H ) :   0.9778 B(  2-C ,  3-C ) :   1.2214
B(  2-C ,  6-C ) :   0.9955 B(  3-C ,  4-C ) :   1.5834 B(  3-C ,  5-H ) :   0.9861
B(  4-C , 20-C ) :   1.0500 B(  6-C ,  7-H ) :   0.9396 B(  6-C ,  8-H ) :   0.9338
B(  6-C ,  9-C ) :   1.0939 B(  9-C , 10-H ) :   0.9556 B(  9-C , 11-H ) :   0.9491
B(  9-C , 12-C ) :   1.0599 B( 12-C , 13-H ) :   0.9762 B( 12-C , 14-H ) :   0.9737
B( 12-C , 15-H ) :   0.9765 B( 16-S , 17-C ) :   1.1370 B( 16-S , 20-C ) :   1.1116
B( 17-C , 18-C ) :   1.6582 B( 17-C , 33-H ) :   0.9544 B( 18-C , 19-C ) :   1.1838
B( 18-C , 21-H ) :   0.9939 B( 19-C , 20-C ) :   1.6341 B( 19-C , 22-C ) :   1.0529
B( 22-C , 23-H ) :   0.9355 B( 22-C , 24-H ) :   0.9420 B( 22-C , 25-C ) :   1.0490
B( 25-C , 26-H ) :   0.9573 B( 25-C , 27-H ) :   0.9565 B( 25-C , 28-C ) :   1.0701
B( 28-C , 29-H ) :   0.9763 B( 28-C , 30-H ) :   0.9689 B( 28-C , 31-H ) :   0.9697

Dispersion correction           -0.013865239
FINAL SINGLE POINT ENERGY     -1339.865311805068

DIPOLE MOMENT
-------------
                                X             Y             Z
Electronic contribution:      6.53869     -23.58078     -18.20957
Nuclear contribution   :     -6.73555      24.05740      18.71847
                        -----------------------------------------
Total Dipole Moment    :     -0.19687       0.47662       0.50891
                        -----------------------------------------
Magnitude (a.u.)       :      0.72450
Magnitude (Debye)      :      1.84154

Rotational constants in cm-1:     0.016319     0.008790     0.006631
Rotational constants in MHz :   489.219557   263.529590   198.793286

                             ****ORCA TERMINATED NORMALLY****
TOTAL RUN TIME: 0 days 0 hours 0 minutes 20 seconds 88 msec
