                         Program Version 4.2.1 -  RELEASE  -
|  1> ! wB97X-D3 SP def2-SVP
|  2> %pal
|  3> nprocs 24
|  4> end
|  5>
|  6> * xyz 0 1
|  7> S 	 -66.7169 	 12.0152 	 -73.1506
|  8> C 	 -66.9283 	 11.0496 	 -71.6566
|  9> C 	 -66.2838 	 11.5832 	 -70.5518
| 10> C 	 -65.71 	 12.8644 	 -70.867
| 11> C 	 -65.9832 	 13.303 	 -72.1614
| 12> H 	 -65.0083 	 13.3797 	 -70.249
| 13> C 	 -66.078 	 10.8658 	 -69.2091
| 14> H 	 -65.2449 	 10.2133 	 -69.4751
| 15> H 	 -66.8894 	 10.165 	 -69.0646
| 16> C 	 -65.6676 	 11.6205 	 -67.9641
| 17> H 	 -65.3089 	 10.9647 	 -67.2336
| 18> H 	 -64.8094 	 12.187 	 -68.2567
| 19> C 	 -66.7677 	 12.5334 	 -67.3635
| 20> H 	 -67.0674 	 13.3006 	 -68.0953
| 21> H 	 -67.6936 	 11.9096 	 -67.1945
| 22> H 	 -66.5263 	 12.9141 	 -66.4137
| 23> S 	 -63.8132 	 13.9342 	 -73.7187
| 24> C 	 -63.6466 	 15.6051 	 -74.2103
| 25> C 	 -64.6502 	 16.4094 	 -73.6775
| 26> C 	 -65.6304 	 15.6987 	 -72.9466
| 27> C 	 -65.2864 	 14.3645 	 -72.8467
| 28> H 	 -64.6489 	 17.4786 	 -73.7535
| 29> C 	 -66.8505 	 16.3631 	 -72.3339
| 30> H 	 -66.5416 	 17.2459 	 -71.8248
| 31> H 	 -67.258 	 15.7345 	 -71.5497
| 32> C 	 -68.0835 	 16.6491 	 -73.1987
| 33> H 	 -68.0595 	 15.7342 	 -73.8248
| 34> H 	 -68.0403 	 17.4789 	 -73.9076
| 35> C 	 -69.4529 	 16.8366 	 -72.5006
| 36> H 	 -69.7661 	 15.9381 	 -71.9445
| 37> H 	 -70.2606 	 16.9455 	 -73.193
| 38> H 	 -69.4251 	 17.6412 	 -71.761
| 39> H 	 -67.4015 	 10.0374 	 -71.646
| 40> H 	 -62.8051 	 15.9583 	 -74.8203
| 41> *
| 42>
| 43>                          ****END OF INPUT****

CARTESIAN COORDINATES (ANGSTROEM)
---------------------------------
  S    -66.716900   12.015200  -73.150600
  C    -66.928300   11.049600  -71.656600
  C    -66.283800   11.583200  -70.551800
  C    -65.710000   12.864400  -70.867000
  C    -65.983200   13.303000  -72.161400
  H    -65.008300   13.379700  -70.249000
  C    -66.078000   10.865800  -69.209100
  H    -65.244900   10.213300  -69.475100
  H    -66.889400   10.165000  -69.064600
  C    -65.667600   11.620500  -67.964100
  H    -65.308900   10.964700  -67.233600
  H    -64.809400   12.187000  -68.256700
  C    -66.767700   12.533400  -67.363500
  H    -67.067400   13.300600  -68.095300
  H    -67.693600   11.909600  -67.194500
  H    -66.526300   12.914100  -66.413700
  S    -63.813200   13.934200  -73.718700
  C    -63.646600   15.605100  -74.210300
  C    -64.650200   16.409400  -73.677500
  C    -65.630400   15.698700  -72.946600
  C    -65.286400   14.364500  -72.846700
  H    -64.648900   17.478600  -73.753500
  C    -66.850500   16.363100  -72.333900
  H    -66.541600   17.245900  -71.824800
  H    -67.258000   15.734500  -71.549700
  C    -68.083500   16.649100  -73.198700
  H    -68.059500   15.734200  -73.824800
  H    -68.040300   17.478900  -73.907600
  C    -69.452900   16.836600  -72.500600
  H    -69.766100   15.938100  -71.944500
  H    -70.260600   16.945500  -73.193000
  H    -69.425100   17.641200  -71.761000
  H    -67.401500   10.037400  -71.646000
  H    -62.805100   15.958300  -74.820300

 Total Charge           Charge          ....    0
 Multiplicity           Mult            ....    1
 Number of Electrons    NEL             ....  134
 Basis Dimension        Dim             ....  322

ORBITAL ENERGIES
----------------

  NO   OCC          E(Eh)            E(eV)
   0   2.0000     -88.966906     -2420.9126
   1   2.0000     -88.966715     -2420.9074
   2   2.0000     -10.327268      -281.0193
   3   2.0000     -10.321329      -280.8576
   4   2.0000     -10.318776      -280.7882
   5   2.0000     -10.318625      -280.7841
   6   2.0000     -10.305920      -280.4384
   7   2.0000     -10.300232      -280.2836
   8   2.0000     -10.296729      -280.1882
   9   2.0000     -10.293775      -280.1079
  10   2.0000     -10.290964      -280.0314
  11   2.0000     -10.286144      -279.9002
  12   2.0000     -10.284348      -279.8513
  13   2.0000     -10.284345      -279.8513
  14   2.0000     -10.279212      -279.7116
  15   2.0000     -10.276308      -279.6326
  16   2.0000      -8.081444      -219.9073
  17   2.0000      -8.080262      -219.8751
  18   2.0000      -6.039837      -164.3523
  19   2.0000      -6.038820      -164.3246
  20   2.0000      -6.036070      -164.2498
  21   2.0000      -6.035157      -164.2250
  22   2.0000      -6.032254      -164.1460
  23   2.0000      -6.030814      -164.1068
  24   2.0000      -1.002899       -27.2903
  25   2.0000      -0.976895       -26.5827
  26   2.0000      -0.913176       -24.8488
  27   2.0000      -0.904497       -24.6126
  28   2.0000      -0.866687       -23.5838
  29   2.0000      -0.850585       -23.1456
  30   2.0000      -0.842157       -22.9163
  31   2.0000      -0.810550       -22.0562
  32   2.0000      -0.786988       -21.4150
  33   2.0000      -0.772717       -21.0267
  34   2.0000      -0.711826       -19.3698
  35   2.0000      -0.696239       -18.9456
  36   2.0000      -0.689980       -18.7753
  37   2.0000      -0.661425       -17.9983
  38   2.0000      -0.636060       -17.3081
  39   2.0000      -0.620886       -16.8952
  40   2.0000      -0.599019       -16.3001
  41   2.0000      -0.562732       -15.3127
  42   2.0000      -0.557877       -15.1806
  43   2.0000      -0.555857       -15.1256
  44   2.0000      -0.541769       -14.7423
  45   2.0000      -0.521773       -14.1982
  46   2.0000      -0.519158       -14.1270
  47   2.0000      -0.506542       -13.7837
  48   2.0000      -0.497936       -13.5495
  49   2.0000      -0.492139       -13.3918
  50   2.0000      -0.487915       -13.2769
  51   2.0000      -0.479809       -13.0563
  52   2.0000      -0.467014       -12.7081
  53   2.0000      -0.462683       -12.5902
  54   2.0000      -0.458285       -12.4706
  55   2.0000      -0.452773       -12.3206
  56   2.0000      -0.448697       -12.2097
  57   2.0000      -0.437435       -11.9032
  58   2.0000      -0.436240       -11.8707
  59   2.0000      -0.427136       -11.6230
  60   2.0000      -0.419595       -11.4178
  61   2.0000      -0.418439       -11.3863
  62   2.0000      -0.408187       -11.1073
  63   2.0000      -0.338617        -9.2142
  64   2.0000      -0.329066        -8.9543
  65   2.0000      -0.318252        -8.6601
  66   2.0000      -0.303691        -8.2638
  67   0.0000       0.037044         1.0080
  68   0.0000       0.050821         1.3829
  69   0.0000       0.107139         2.9154
  70   0.0000       0.116576         3.1722
  71   0.0000       0.133728         3.6389

MULLIKEN ATOMIC CHARGES
-----------------------
   0 S :    0.101508
   1 C :   -0.147441
   2 C :   -0.086722
   3 C :    0.033656
   4 C :   -0.160572
   5 H :    0.015076
   6 C :    0.049535
   7 H :    0.042482
   8 H :    0.018580
   9 C :   -0.022870
  10 H :    0.016957
  11 H :    0.016529
  12 C :   -0.046489
  13 H :    0.043590
  14 H :    0.026832
  15 H :    0.029130
  16 S :    0.124790
  17 C :   -0.106079
  18 C :   -0.014780
  19 C :   -0.024157
  20 C :   -0.199327
  21 H :    0.009029
  22 C :    0.113917
  23 H :    0.012119
  24 H :    0.015515
  25 C :   -0.088039
  26 H :    0.029675
  27 H :    0.027211
  28 C :   -0.048819
  29 H :    0.027952
  30 H :    0.032467
  31 H :    0.033269
  32 H :    0.059583
  33 H :    0.065895
Sum of atomic charges:    0.0000000

LOEWDIN ATOMIC CHARGES
----------------------
   0 S :    0.378652
   1 C :   -0.194305
   2 C :   -0.060201
   3 C :   -0.052262
   4 C :   -0.190073
   5 H :    0.028404
   6 C :   -0.032632
   7 H :    0.042873
   8 H :    0.027184
   9 C :   -0.036788
  10 H :    0.022182
  11 H :    0.020915
  12 C :   -0.062342
  13 H :    0.029528
  14 H :    0.030386
  15 H :    0.017731
  16 S :    0.403999
  17 C :   -0.187358
  18 C :   -0.066509
  19 C :   -0.052876
  20 C :   -0.203638
  21 H :    0.028338
  22 C :   -0.029834
  23 H :    0.023522
  24 H :    0.033590
  25 C :   -0.045199
  26 H :    0.029156
  27 H :    0.020307
  28 C :   -0.065876
  29 H :    0.026515
  30 H :    0.026110
  31 H :    0.024553
  32 H :    0.033938
  33 H :    0.032014

  Mayer bond orders larger than 0.100000
B(  0-S ,  1-C ) :   1.1284 B(  0-S ,  4-C ) :   1.1421 B(  1-C ,  2-C ) :   1.6375
B(  1-C , 32-H ) :   0.9604 B(  2-C ,  3-C ) :   1.2283 B(  2-C ,  6-C ) :   0.9993
B(  3-C ,  4-C ) :   1.5927 B(  3-C ,  5-H ) :   0.9916 B(  4-C , 20-C ) :   1.0201
B(  6-C ,  7-H ) :   0.9293 B(  6-C ,  8-H ) :   0.9417 B(  6-C ,  9-C ) :   1.0908
B(  9-C , 10-H ) :   0.9469 B(  9-C , 11-H ) :   0.9431 B(  9-C , 12-C ) :   1.0778
B( 12-C , 13-H ) :   0.9762 B( 12-C , 14-H ) :   0.9744 B( 12-C , 15-H ) :   0.9765
B( 16-S , 17-C ) :   1.1520 B( 16-S , 20-C ) :   1.1481 B( 17-C , 18-C ) :   1.5994
B( 17-C , 33-H ) :   0.9664 B( 18-C , 19-C ) :   1.2482 B( 18-C , 21-H ) :   0.9923
B( 19-C , 20-C ) :   1.6046 B( 19-C , 22-C ) :   1.0605 B( 22-C , 23-H ) :   0.9256
B( 22-C , 24-H ) :   0.9242 B( 22-C , 25-C ) :   1.0479 B( 25-C , 26-H ) :   0.9546
B( 25-C , 27-H ) :   0.9575 B( 25-C , 28-C ) :   1.0869 B( 28-C , 29-H ) :   0.9720
B( 28-C , 30-H ) :   0.9741 B( 28-C , 31-H ) :   0.9765

Dispersion correction           -0.014076159
FINAL SINGLE POINT ENERGY     -1339.877021149585

DIPOLE MOMENT
-------------
                                X             Y             Z
Electronic contribution:     13.71382      -7.47058     -19.43698
Nuclear contribution   :    -13.61574       7.49080      19.97735
                        -----------------------------------------
Total Dipole Moment    :      0.09808       0.02022       0.54036
                        -----------------------------------------
Magnitude (a.u.)       :      0.54956
Magnitude (Debye)      :      1.39688

Rotational constants in cm-1:     0.016446     0.008780     0.007406
Rotational constants in MHz :   493.031725   263.210844   222.014487

                             ****ORCA TERMINATED NORMALLY****
TOTAL RUN TIME: 0 days 0 hours 0 minutes 20 seconds 19 msec
