                         Program Version 4.2.1 -  RELEASE  -
|  1> ! wB97X-D3 SP def2-SVP
|  2> %pal
|  3> nprocs 24
|  4> end
|  5>
|  6> * xyz 0 1
|  7> S 	 -112.941 	 22.5076 	 -117.408
|  8> C 	 -114.112 	 21.391 	 -116.679
|  9> C 	 -113.674 	 20.9189 	 -115.447
| 10> C 	 -112.374 	 21.4514 	 -115.126
| 11> C 	 -111.84 	 22.1905 	 -116.14
| 12> H 	 -111.694 	 21.0372 	 -114.377
| 13> C 	 -114.368 	 19.9124 	 -114.536
| 14> H 	 -114.004 	 19.9731 	 -113.591
| 15> H 	 -114.077 	 18.8707 	 -114.939
| 16> C 	 -115.877 	 19.7944 	 -114.441
| 17> H 	 -116.151 	 19.6788 	 -115.437
| 18> H 	 -116.039 	 18.8638 	 -113.886
| 19> C 	 -116.638 	 20.9622 	 -113.697
| 20> H 	 -116.246 	 21.0925 	 -112.652
| 21> H 	 -116.451 	 21.8483 	 -114.217
| 22> H 	 -117.739 	 20.8745 	 -113.693
| 23> S 	 -110.236 	 24.1767 	 -115.332
| 24> C 	 -108.625 	 24.3527 	 -115.995
| 25> C 	 -108.365 	 23.3395 	 -116.895
| 26> C 	 -109.388 	 22.3338 	 -116.955
| 27> C 	 -110.506 	 22.6622 	 -116.192
| 28> H 	 -107.365 	 23.218 	 -117.357
| 29> C 	 -109.16 	 21.1007 	 -117.802
| 30> H 	 -109.322 	 21.375 	 -118.796
| 31> H 	 -110.039 	 20.4106 	 -117.658
| 32> C 	 -107.882 	 20.3358 	 -117.629
| 33> H 	 -107.711 	 20.2451 	 -116.605
| 34> H 	 -107.02 	 20.9333 	 -117.983
| 35> C 	 -107.809 	 19.0445 	 -118.39
| 36> H 	 -108.503 	 18.3452 	 -117.891
| 37> H 	 -106.834 	 18.5176 	 -118.328
| 38> H 	 -108.101 	 19.0873 	 -119.442
| 39> H 	 -114.965 	 20.9059 	 -117.252
| 40> H 	 -108.013 	 25.1284 	 -115.638
| 41> *
| 42>
| 43>                          ****END OF INPUT****

CARTESIAN COORDINATES (ANGSTROEM)
---------------------------------
  S    -112.941000   22.507600  -117.408000
  C    -114.112000   21.391000  -116.679000
  C    -113.674000   20.918900  -115.447000
  C    -112.374000   21.451400  -115.126000
  C    -111.840000   22.190500  -116.140000
  H    -111.694000   21.037200  -114.377000
  C    -114.368000   19.912400  -114.536000
  H    -114.004000   19.973100  -113.591000
  H    -114.077000   18.870700  -114.939000
  C    -115.877000   19.794400  -114.441000
  H    -116.151000   19.678800  -115.437000
  H    -116.039000   18.863800  -113.886000
  C    -116.638000   20.962200  -113.697000
  H    -116.246000   21.092500  -112.652000
  H    -116.451000   21.848300  -114.217000
  H    -117.739000   20.874500  -113.693000
  S    -110.236000   24.176700  -115.332000
  C    -108.625000   24.352700  -115.995000
  C    -108.365000   23.339500  -116.895000
  C    -109.388000   22.333800  -116.955000
  C    -110.506000   22.662200  -116.192000
  H    -107.365000   23.218000  -117.357000
  C    -109.160000   21.100700  -117.802000
  H    -109.322000   21.375000  -118.796000
  H    -110.039000   20.410600  -117.658000
  C    -107.882000   20.335800  -117.629000
  H    -107.711000   20.245100  -116.605000
  H    -107.020000   20.933300  -117.983000
  C    -107.809000   19.044500  -118.390000
  H    -108.503000   18.345200  -117.891000
  H    -106.834000   18.517600  -118.328000
  H    -108.101000   19.087300  -119.442000
  H    -114.965000   20.905900  -117.252000
  H    -108.013000   25.128400  -115.638000

 Total Charge           Charge          ....    0
 Multiplicity           Mult            ....    1
 Number of Electrons    NEL             ....  134
 Basis Dimension        Dim             ....  322

ORBITAL ENERGIES
----------------

  NO   OCC          E(Eh)            E(eV)
   0   2.0000     -88.966181     -2420.8929
   1   2.0000     -88.959846     -2420.7205
   2   2.0000     -10.321484      -280.8619
   3   2.0000     -10.319986      -280.8211
   4   2.0000     -10.318439      -280.7790
   5   2.0000     -10.315833      -280.7081
   6   2.0000     -10.305660      -280.4313
   7   2.0000     -10.305650      -280.4310
   8   2.0000     -10.295845      -280.1642
   9   2.0000     -10.291121      -280.0356
  10   2.0000     -10.290315      -280.0137
  11   2.0000     -10.285960      -279.8952
  12   2.0000     -10.284398      -279.8527
  13   2.0000     -10.280657      -279.7509
  14   2.0000     -10.280505      -279.7468
  15   2.0000     -10.277953      -279.6773
  16   2.0000      -8.081316      -219.9038
  17   2.0000      -8.074906      -219.7294
  18   2.0000      -6.039783      -164.3509
  19   2.0000      -6.035812      -164.2428
  20   2.0000      -6.033345      -164.1757
  21   2.0000      -6.032039      -164.1401
  22   2.0000      -6.029263      -164.0646
  23   2.0000      -6.025819      -163.9709
  24   2.0000      -1.009868       -27.4799
  25   2.0000      -0.982195       -26.7269
  26   2.0000      -0.916523       -24.9398
  27   2.0000      -0.913026       -24.8447
  28   2.0000      -0.869772       -23.6677
  29   2.0000      -0.851545       -23.1717
  30   2.0000      -0.846994       -23.0479
  31   2.0000      -0.808334       -21.9959
  32   2.0000      -0.786666       -21.4063
  33   2.0000      -0.774589       -21.0776
  34   2.0000      -0.709524       -19.3071
  35   2.0000      -0.706951       -19.2371
  36   2.0000      -0.697283       -18.9740
  37   2.0000      -0.659126       -17.9357
  38   2.0000      -0.638455       -17.3733
  39   2.0000      -0.609402       -16.5827
  40   2.0000      -0.599911       -16.3244
  41   2.0000      -0.578415       -15.7395
  42   2.0000      -0.569159       -15.4876
  43   2.0000      -0.544228       -14.8092
  44   2.0000      -0.542139       -14.7523
  45   2.0000      -0.528894       -14.3920
  46   2.0000      -0.517167       -14.0728
  47   2.0000      -0.511571       -13.9206
  48   2.0000      -0.507603       -13.8126
  49   2.0000      -0.493454       -13.4276
  50   2.0000      -0.490849       -13.3567
  51   2.0000      -0.479598       -13.0505
  52   2.0000      -0.471373       -12.8267
  53   2.0000      -0.464762       -12.6468
  54   2.0000      -0.456313       -12.4169
  55   2.0000      -0.450594       -12.2613
  56   2.0000      -0.446781       -12.1575
  57   2.0000      -0.439811       -11.9679
  58   2.0000      -0.435345       -11.8463
  59   2.0000      -0.424388       -11.5482
  60   2.0000      -0.423081       -11.5126
  61   2.0000      -0.414605       -11.2820
  62   2.0000      -0.407026       -11.0757
  63   2.0000      -0.335114        -9.1189
  64   2.0000      -0.329608        -8.9691
  65   2.0000      -0.317150        -8.6301
  66   2.0000      -0.309811        -8.4304
  67   0.0000       0.037027         1.0076
  68   0.0000       0.060408         1.6438
  69   0.0000       0.114116         3.1053
  70   0.0000       0.117221         3.1897
  71   0.0000       0.127605         3.4723

MULLIKEN ATOMIC CHARGES
-----------------------
   0 S :    0.131356
   1 C :   -0.167661
   2 C :   -0.080918
   3 C :    0.033707
   4 C :   -0.169139
   5 H :    0.027670
   6 C :    0.059896
   7 H :   -0.005469
   8 H :    0.048030
   9 C :   -0.043495
  10 H :    0.007432
  11 H :    0.031172
  12 C :   -0.050506
  13 H :    0.036672
  14 H :    0.024078
  15 H :    0.041132
  16 S :    0.099033
  17 C :   -0.082592
  18 C :   -0.035022
  19 C :   -0.032371
  20 C :   -0.192698
  21 H :    0.035374
  22 C :    0.093793
  23 H :    0.013829
  24 H :    0.019997
  25 C :   -0.055886
  26 H :    0.018613
  27 H :    0.023584
  28 C :   -0.054442
  29 H :    0.025089
  30 H :    0.039246
  31 H :    0.035666
  32 H :    0.076630
  33 H :    0.048199
Sum of atomic charges:    0.0000000

LOEWDIN ATOMIC CHARGES
----------------------
   0 S :    0.416516
   1 C :   -0.213235
   2 C :   -0.057741
   3 C :   -0.065052
   4 C :   -0.215167
   5 H :    0.037535
   6 C :   -0.028557
   7 H :    0.011653
   8 H :    0.049046
   9 C :   -0.032989
  10 H :    0.011356
  11 H :    0.028646
  12 C :   -0.066929
  13 H :    0.031069
  14 H :    0.017338
  15 H :    0.029582
  16 S :    0.403631
  17 C :   -0.170219
  18 C :   -0.076538
  19 C :   -0.049903
  20 C :   -0.204263
  21 H :    0.036349
  22 C :   -0.032826
  23 H :    0.025525
  24 H :    0.035518
  25 C :   -0.041984
  26 H :    0.019546
  27 H :    0.024083
  28 C :   -0.066748
  29 H :    0.026225
  30 H :    0.031587
  31 H :    0.027051
  32 H :    0.040998
  33 H :    0.018897

  Mayer bond orders larger than 0.100000
B(  0-S ,  1-C ) :   1.1234 B(  0-S ,  4-C ) :   1.1531 B(  1-C ,  2-C ) :   1.6347
B(  1-C , 32-H ) :   0.9565 B(  2-C ,  3-C ) :   1.2277 B(  2-C ,  6-C ) :   1.0178
B(  3-C ,  4-C ) :   1.6031 B(  3-C ,  5-H ) :   0.9848 B(  4-C , 20-C ) :   1.0267
B(  6-C ,  7-H ) :   0.9424 B(  6-C ,  8-H ) :   0.9311 B(  6-C ,  9-C ) :   1.0803
B(  9-C , 10-H ) :   0.9538 B(  9-C , 11-H ) :   0.9540 B(  9-C , 12-C ) :   1.0705
B( 12-C , 13-H ) :   0.9750 B( 12-C , 14-H ) :   0.9774 B( 12-C , 15-H ) :   0.9773
B( 16-S , 17-C ) :   1.1648 B( 16-S , 20-C ) :   1.1454 B( 17-C , 18-C ) :   1.5869
B( 17-C , 20-C ) :   0.1050 B( 17-C , 33-H ) :   0.9788 B( 18-C , 19-C ) :   1.2419
B( 18-C , 21-H ) :   0.9829 B( 19-C , 20-C ) :   1.5985 B( 19-C , 22-C ) :   1.0440
B( 22-C , 23-H ) :   0.9188 B( 22-C , 24-H ) :   0.9333 B( 22-C , 25-C ) :   1.0637
B( 25-C , 26-H ) :   0.9570 B( 25-C , 27-H ) :   0.9433 B( 25-C , 28-C ) :   1.0938
B( 28-C , 29-H ) :   0.9720 B( 28-C , 30-H ) :   0.9728 B( 28-C , 31-H ) :   0.9727

Dispersion correction           -0.013716259
FINAL SINGLE POINT ENERGY     -1339.865310736194

DIPOLE MOMENT
-------------
                                X             Y             Z
Electronic contribution:      3.00187      20.88934      -1.68105
Nuclear contribution   :     -2.77166     -21.51268       1.65256
                        -----------------------------------------
Total Dipole Moment    :      0.23020      -0.62334      -0.02848
                        -----------------------------------------
Magnitude (a.u.)       :      0.66509
Magnitude (Debye)      :      1.69054

Rotational constants in cm-1:     0.020860     0.007327     0.006172
Rotational constants in MHz :   625.360219   219.660168   185.030274

                             ****ORCA TERMINATED NORMALLY****
TOTAL RUN TIME: 0 days 0 hours 0 minutes 19 seconds 683 msec
