                         Program Version 4.2.1 -  RELEASE  -
|  1> ! wB97X-D3 SP def2-SVP
|  2> %pal
|  3> nprocs 24
|  4> end
|  5>
|  6> * xyz 0 1
|  7> S 	 -136.958 	 6.85195 	 -14.8561
|  8> C 	 -138.095 	 8.18027 	 -14.7843
|  9> C 	 -137.404 	 9.37537 	 -14.6077
| 10> C 	 -136.04 	 9.15286 	 -14.3094
| 11> C 	 -135.632 	 7.80871 	 -14.4796
| 12> H 	 -135.354 	 9.87355 	 -13.9863
| 13> C 	 -137.974 	 10.791 	 -14.7359
| 14> H 	 -138.055 	 11.1602 	 -13.7227
| 15> H 	 -138.983 	 10.8885 	 -15.0894
| 16> C 	 -137.077 	 11.7373 	 -15.5312
| 17> H 	 -136.139 	 11.8701 	 -14.9586
| 18> H 	 -136.899 	 11.318 	 -16.5572
| 19> C 	 -137.646 	 13.1648 	 -15.7023
| 20> H 	 -137.013 	 13.6433 	 -16.5321
| 21> H 	 -138.573 	 13.1259 	 -16.2299
| 22> H 	 -137.585 	 13.9068 	 -14.8776
| 23> S 	 -134.048 	 6.24191 	 -15.9579
| 24> C 	 -132.287 	 6.1293 	 -15.6395
| 25> C 	 -131.923 	 6.92764 	 -14.5297
| 26> C 	 -132.991 	 7.75113 	 -14.0241
| 27> C 	 -134.207 	 7.42029 	 -14.6514
| 28> H 	 -130.94 	 6.90597 	 -14.0406
| 29> C 	 -132.753 	 8.80577 	 -12.9434
| 30> H 	 -133.623 	 9.49539 	 -13.0926
| 31> H 	 -131.887 	 9.36791 	 -13.1304
| 32> C 	 -132.646 	 8.27974 	 -11.4806
| 33> H 	 -131.788 	 7.71995 	 -11.2886
| 34> H 	 -133.543 	 7.6429 	 -11.3308
| 35> C 	 -132.716 	 9.39736 	 -10.4331
| 36> H 	 -132.384 	 9.06583 	 -9.41969
| 37> H 	 -133.661 	 9.90109 	 -10.3356
| 38> H 	 -132.01 	 10.0999 	 -10.7709
| 39> H 	 -139.137 	 8.09074 	 -15.0146
| 40> H 	 -131.64 	 5.53177 	 -16.2363
| 41> *
| 42>
| 43>                          ****END OF INPUT****

CARTESIAN COORDINATES (ANGSTROEM)
---------------------------------
  S    -136.958000    6.851950  -14.856100
  C    -138.095000    8.180270  -14.784300
  C    -137.404000    9.375370  -14.607700
  C    -136.040000    9.152860  -14.309400
  C    -135.632000    7.808710  -14.479600
  H    -135.354000    9.873550  -13.986300
  C    -137.974000   10.791000  -14.735900
  H    -138.055000   11.160200  -13.722700
  H    -138.983000   10.888500  -15.089400
  C    -137.077000   11.737300  -15.531200
  H    -136.139000   11.870100  -14.958600
  H    -136.899000   11.318000  -16.557200
  C    -137.646000   13.164800  -15.702300
  H    -137.013000   13.643300  -16.532100
  H    -138.573000   13.125900  -16.229900
  H    -137.585000   13.906800  -14.877600
  S    -134.048000    6.241910  -15.957900
  C    -132.287000    6.129300  -15.639500
  C    -131.923000    6.927640  -14.529700
  C    -132.991000    7.751130  -14.024100
  C    -134.207000    7.420290  -14.651400
  H    -130.940000    6.905970  -14.040600
  C    -132.753000    8.805770  -12.943400
  H    -133.623000    9.495390  -13.092600
  H    -131.887000    9.367910  -13.130400
  C    -132.646000    8.279740  -11.480600
  H    -131.788000    7.719950  -11.288600
  H    -133.543000    7.642900  -11.330800
  C    -132.716000    9.397360  -10.433100
  H    -132.384000    9.065830   -9.419690
  H    -133.661000    9.901090  -10.335600
  H    -132.010000   10.099900  -10.770900
  H    -139.137000    8.090740  -15.014600
  H    -131.640000    5.531770  -16.236300

 Total Charge           Charge          ....    0
 Multiplicity           Mult            ....    1
 Number of Electrons    NEL             ....  134
 Basis Dimension        Dim             ....  322

ORBITAL ENERGIES
----------------

  NO   OCC          E(Eh)            E(eV)
   0   2.0000     -88.969597     -2420.9858
   1   2.0000     -88.966929     -2420.9132
   2   2.0000     -10.335776      -281.2508
   3   2.0000     -10.329272      -281.0738
   4   2.0000     -10.321160      -280.8530
   5   2.0000     -10.312100      -280.6065
   6   2.0000     -10.308301      -280.5031
   7   2.0000     -10.303658      -280.3768
   8   2.0000     -10.301737      -280.3245
   9   2.0000     -10.296488      -280.1817
  10   2.0000     -10.293869      -280.1104
  11   2.0000     -10.289754      -279.9984
  12   2.0000     -10.288618      -279.9675
  13   2.0000     -10.285286      -279.8769
  14   2.0000     -10.284766      -279.8627
  15   2.0000     -10.274842      -279.5927
  16   2.0000      -8.085176      -220.0088
  17   2.0000      -8.080739      -219.8881
  18   2.0000      -6.043612      -164.4551
  19   2.0000      -6.039360      -164.3393
  20   2.0000      -6.039278      -164.3371
  21   2.0000      -6.036162      -164.2523
  22   2.0000      -6.035434      -164.2325
  23   2.0000      -6.031461      -164.1244
  24   2.0000      -1.009607       -27.4728
  25   2.0000      -0.977916       -26.6105
  26   2.0000      -0.913284       -24.8517
  27   2.0000      -0.906962       -24.6797
  28   2.0000      -0.865445       -23.5499
  29   2.0000      -0.852828       -23.2066
  30   2.0000      -0.845587       -23.0096
  31   2.0000      -0.809038       -22.0150
  32   2.0000      -0.783298       -21.3146
  33   2.0000      -0.773960       -21.0605
  34   2.0000      -0.706715       -19.2307
  35   2.0000      -0.698020       -18.9941
  36   2.0000      -0.690528       -18.7902
  37   2.0000      -0.664744       -18.0886
  38   2.0000      -0.643545       -17.5117
  39   2.0000      -0.622829       -16.9480
  40   2.0000      -0.594539       -16.1782
  41   2.0000      -0.572754       -15.5854
  42   2.0000      -0.570682       -15.5291
  43   2.0000      -0.561070       -15.2675
  44   2.0000      -0.526503       -14.3269
  45   2.0000      -0.523437       -14.2434
  46   2.0000      -0.515899       -14.0383
  47   2.0000      -0.508975       -13.8499
  48   2.0000      -0.506228       -13.7752
  49   2.0000      -0.501088       -13.6353
  50   2.0000      -0.491269       -13.3681
  51   2.0000      -0.488829       -13.3017
  52   2.0000      -0.470012       -12.7897
  53   2.0000      -0.467452       -12.7200
  54   2.0000      -0.461438       -12.5564
  55   2.0000      -0.448884       -12.2148
  56   2.0000      -0.445845       -12.1321
  57   2.0000      -0.433056       -11.7841
  58   2.0000      -0.428400       -11.6573
  59   2.0000      -0.423958       -11.5365
  60   2.0000      -0.422870       -11.5069
  61   2.0000      -0.418945       -11.4001
  62   2.0000      -0.413594       -11.2545
  63   2.0000      -0.350315        -9.5326
  64   2.0000      -0.332169        -9.0388
  65   2.0000      -0.329643        -8.9700
  66   2.0000      -0.280867        -7.6428
  67   0.0000       0.024845         0.6761
  68   0.0000       0.070213         1.9106
  69   0.0000       0.105927         2.8824
  70   0.0000       0.120921         3.2904
  71   0.0000       0.131901         3.5892

MULLIKEN ATOMIC CHARGES
-----------------------
   0 S :    0.114050
   1 C :   -0.127472
   2 C :   -0.060928
   3 C :    0.010323
   4 C :   -0.104574
   5 H :   -0.009991
   6 C :    0.102589
   7 H :    0.026453
   8 H :    0.005660
   9 C :   -0.119935
  10 H :    0.037456
  11 H :    0.050661
  12 C :   -0.066937
  13 H :    0.031022
  14 H :    0.024635
  15 H :    0.051305
  16 S :    0.086443
  17 C :   -0.091502
  18 C :   -0.026246
  19 C :   -0.063566
  20 C :   -0.148389
  21 H :    0.028869
  22 C :    0.080611
  23 H :    0.013746
  24 H :    0.015350
  25 C :   -0.058040
  26 H :    0.020025
  27 H :    0.038332
  28 C :   -0.036296
  29 H :    0.037638
  30 H :    0.034244
  31 H :    0.009930
  32 H :    0.043343
  33 H :    0.051193
Sum of atomic charges:   -0.0000000

LOEWDIN ATOMIC CHARGES
----------------------
   0 S :    0.442865
   1 C :   -0.206615
   2 C :   -0.053197
   3 C :   -0.064716
   4 C :   -0.221066
   5 H :    0.014001
   6 C :   -0.034313
   7 H :    0.033089
   8 H :    0.023646
   9 C :   -0.042932
  10 H :    0.026107
  11 H :    0.034476
  12 C :   -0.077997
  13 H :    0.037215
  14 H :    0.019527
  15 H :    0.029798
  16 S :    0.383099
  17 C :   -0.175470
  18 C :   -0.062918
  19 C :   -0.062642
  20 C :   -0.174640
  21 H :    0.034890
  22 C :   -0.027167
  23 H :    0.035074
  24 H :    0.022089
  25 C :   -0.032098
  26 H :    0.015702
  27 H :    0.030001
  28 C :   -0.062340
  29 H :    0.031570
  30 H :    0.023256
  31 H :    0.015647
  32 H :    0.025587
  33 H :    0.020472

  Mayer bond orders larger than 0.100000
B(  0-S ,  1-C ) :   1.1414 B(  0-S ,  4-C ) :   1.1920 B(  1-C ,  2-C ) :   1.5675
B(  1-C , 32-H ) :   0.9753 B(  2-C ,  3-C ) :   1.2992 B(  2-C ,  6-C ) :   1.0187
B(  3-C ,  4-C ) :   1.4970 B(  3-C ,  5-H ) :   0.9959 B(  4-C , 20-C ) :   1.0392
B(  6-C ,  7-H ) :   0.9300 B(  6-C ,  8-H ) :   0.9465 B(  6-C ,  9-C ) :   1.0691
B(  9-C , 10-H ) :   0.9482 B(  9-C , 11-H ) :   0.9592 B(  9-C , 12-C ) :   1.0905
B( 12-C , 13-H ) :   0.9717 B( 12-C , 14-H ) :   0.9706 B( 12-C , 15-H ) :   0.9754
B( 16-S , 17-C ) :   1.1365 B( 16-S , 20-C ) :   1.1446 B( 17-C , 18-C ) :   1.5989
B( 17-C , 20-C ) :   0.1022 B( 17-C , 33-H ) :   0.9766 B( 18-C , 19-C ) :   1.2478
B( 18-C , 21-H ) :   0.9827 B( 19-C , 20-C ) :   1.5942 B( 19-C , 22-C ) :   1.0395
B( 22-C , 23-H ) :   0.9396 B( 22-C , 24-H ) :   0.9251 B( 22-C , 25-C ) :   1.0597
B( 25-C , 26-H ) :   0.9575 B( 25-C , 27-H ) :   0.9583 B( 25-C , 28-C ) :   1.0831
B( 28-C , 29-H ) :   0.9748 B( 28-C , 30-H ) :   0.9770 B( 28-C , 31-H ) :   0.9719

Dispersion correction           -0.013455363
FINAL SINGLE POINT ENERGY     -1339.864202738122

DIPOLE MOMENT
-------------
                                X             Y             Z
Electronic contribution:     -2.22737     -26.27951     -12.15233
Nuclear contribution   :      2.38921      26.90968      12.32780
                        -----------------------------------------
Total Dipole Moment    :      0.16184       0.63016       0.17548
                        -----------------------------------------
Magnitude (a.u.)       :      0.67386
Magnitude (Debye)      :      1.71282

Rotational constants in cm-1:     0.015656     0.008811     0.006875
Rotational constants in MHz :   469.367278   264.134850   206.119081

                             ****ORCA TERMINATED NORMALLY****
TOTAL RUN TIME: 0 days 0 hours 0 minutes 21 seconds 89 msec
