                         Program Version 4.2.1 -  RELEASE  -
|  1> ! wB97X-D3 SP def2-SVP
|  2> %pal
|  3> nprocs 24
|  4> end
|  5>
|  6> * xyz 0 1
|  7> S 	 -49.4045 	 21.7531 	 29.4192
|  8> C 	 -49.1674 	 20.3889 	 28.3847
|  9> C 	 -50.2372 	 19.5032 	 28.455
| 10> C 	 -51.2254 	 19.9085 	 29.3738
| 11> C 	 -50.8568 	 21.0225 	 30.1488
| 12> H 	 -52.0716 	 19.3259 	 29.6998
| 13> C 	 -50.2795 	 18.1842 	 27.6885
| 14> H 	 -50.9796 	 17.5489 	 28.2807
| 15> H 	 -49.2835 	 17.811 	 27.8565
| 16> C 	 -50.8217 	 18.2161 	 26.2361
| 17> H 	 -50.0724 	 18.5766 	 25.553
| 18> H 	 -50.9696 	 17.1537 	 25.965
| 19> C 	 -52.1114 	 18.9744 	 25.9916
| 20> H 	 -52.8989 	 18.5292 	 26.6783
| 21> H 	 -52.0652 	 20.0294 	 26.2302
| 22> H 	 -52.4208 	 18.8986 	 24.9807
| 23> S 	 -50.5431 	 22.1999 	 32.5031
| 24> C 	 -51.8579 	 22.5778 	 33.5574
| 25> C 	 -53.0454 	 22.3829 	 32.8719
| 26> C 	 -52.9012 	 21.8394 	 31.5338
| 27> C 	 -51.5662 	 21.6905 	 31.2399
| 28> H 	 -53.9894 	 22.5844 	 33.2988
| 29> C 	 -54.0893 	 21.3959 	 30.6488
| 30> H 	 -53.7496 	 21.2273 	 29.6662
| 31> H 	 -54.6453 	 22.3017 	 30.5097
| 32> C 	 -55.0909 	 20.2517 	 31.166
| 33> H 	 -55.4327 	 20.441 	 32.1797
| 34> H 	 -54.588 	 19.2452 	 31.1828
| 35> C 	 -56.3998 	 20.1851 	 30.3209
| 36> H 	 -57.0632 	 21.0624 	 30.5623
| 37> H 	 -57.0721 	 19.3944 	 30.5735
| 38> H 	 -56.1193 	 20.1329 	 29.2212
| 39> H 	 -48.297 	 20.1199 	 27.7979
| 40> H 	 -51.8215 	 23.0632 	 34.5021
| 41> *
| 42>
| 43>                          ****END OF INPUT****

CARTESIAN COORDINATES (ANGSTROEM)
---------------------------------
  S    -49.404500   21.753100   29.419200
  C    -49.167400   20.388900   28.384700
  C    -50.237200   19.503200   28.455000
  C    -51.225400   19.908500   29.373800
  C    -50.856800   21.022500   30.148800
  H    -52.071600   19.325900   29.699800
  C    -50.279500   18.184200   27.688500
  H    -50.979600   17.548900   28.280700
  H    -49.283500   17.811000   27.856500
  C    -50.821700   18.216100   26.236100
  H    -50.072400   18.576600   25.553000
  H    -50.969600   17.153700   25.965000
  C    -52.111400   18.974400   25.991600
  H    -52.898900   18.529200   26.678300
  H    -52.065200   20.029400   26.230200
  H    -52.420800   18.898600   24.980700
  S    -50.543100   22.199900   32.503100
  C    -51.857900   22.577800   33.557400
  C    -53.045400   22.382900   32.871900
  C    -52.901200   21.839400   31.533800
  C    -51.566200   21.690500   31.239900
  H    -53.989400   22.584400   33.298800
  C    -54.089300   21.395900   30.648800
  H    -53.749600   21.227300   29.666200
  H    -54.645300   22.301700   30.509700
  C    -55.090900   20.251700   31.166000
  H    -55.432700   20.441000   32.179700
  H    -54.588000   19.245200   31.182800
  C    -56.399800   20.185100   30.320900
  H    -57.063200   21.062400   30.562300
  H    -57.072100   19.394400   30.573500
  H    -56.119300   20.132900   29.221200
  H    -48.297000   20.119900   27.797900
  H    -51.821500   23.063200   34.502100

 Total Charge           Charge          ....    0
 Multiplicity           Mult            ....    1
 Number of Electrons    NEL             ....  134
 Basis Dimension        Dim             ....  322

ORBITAL ENERGIES
----------------

  NO   OCC          E(Eh)            E(eV)
   0   2.0000     -88.966895     -2420.9123
   1   2.0000     -88.963953     -2420.8322
   2   2.0000     -10.332915      -281.1729
   3   2.0000     -10.323241      -280.9097
   4   2.0000     -10.314730      -280.6781
   5   2.0000     -10.309999      -280.5493
   6   2.0000     -10.306330      -280.4495
   7   2.0000     -10.300949      -280.3031
   8   2.0000     -10.296917      -280.1933
   9   2.0000     -10.295320      -280.1499
  10   2.0000     -10.294095      -280.1166
  11   2.0000     -10.293270      -280.0941
  12   2.0000     -10.293086      -280.0891
  13   2.0000     -10.288526      -279.9650
  14   2.0000     -10.287854      -279.9467
  15   2.0000     -10.277382      -279.6618
  16   2.0000      -8.081181      -219.9001
  17   2.0000      -8.080054      -219.8695
  18   2.0000      -6.039683      -164.3481
  19   2.0000      -6.038590      -164.3184
  20   2.0000      -6.035692      -164.2395
  21   2.0000      -6.034216      -164.1994
  22   2.0000      -6.032030      -164.1399
  23   2.0000      -6.030819      -164.1069
  24   2.0000      -1.010888       -27.5077
  25   2.0000      -0.985245       -26.8099
  26   2.0000      -0.908466       -24.7206
  27   2.0000      -0.899194       -24.4683
  28   2.0000      -0.869585       -23.6626
  29   2.0000      -0.852344       -23.1935
  30   2.0000      -0.845247       -23.0003
  31   2.0000      -0.816106       -22.2074
  32   2.0000      -0.782772       -21.3003
  33   2.0000      -0.772404       -21.0182
  34   2.0000      -0.705773       -19.2051
  35   2.0000      -0.700136       -19.0517
  36   2.0000      -0.699376       -19.0310
  37   2.0000      -0.666688       -18.1415
  38   2.0000      -0.635652       -17.2970
  39   2.0000      -0.614841       -16.7307
  40   2.0000      -0.595537       -16.2054
  41   2.0000      -0.570533       -15.5250
  42   2.0000      -0.557492       -15.1701
  43   2.0000      -0.553148       -15.0519
  44   2.0000      -0.540420       -14.7056
  45   2.0000      -0.527874       -14.3642
  46   2.0000      -0.518959       -14.1216
  47   2.0000      -0.511607       -13.9215
  48   2.0000      -0.503636       -13.7046
  49   2.0000      -0.496581       -13.5126
  50   2.0000      -0.487990       -13.2789
  51   2.0000      -0.473776       -12.8921
  52   2.0000      -0.470509       -12.8032
  53   2.0000      -0.469455       -12.7745
  54   2.0000      -0.458774       -12.4839
  55   2.0000      -0.451950       -12.2982
  56   2.0000      -0.445676       -12.1275
  57   2.0000      -0.438752       -11.9391
  58   2.0000      -0.431459       -11.7406
  59   2.0000      -0.426071       -11.5940
  60   2.0000      -0.422944       -11.5089
  61   2.0000      -0.420672       -11.4471
  62   2.0000      -0.410377       -11.1669
  63   2.0000      -0.351573        -9.5668
  64   2.0000      -0.331926        -9.0322
  65   2.0000      -0.328658        -8.9432
  66   2.0000      -0.288748        -7.8572
  67   0.0000       0.025931         0.7056
  68   0.0000       0.076393         2.0788
  69   0.0000       0.117540         3.1984
  70   0.0000       0.119625         3.2552
  71   0.0000       0.124822         3.3966

MULLIKEN ATOMIC CHARGES
-----------------------
   0 S :    0.109938
   1 C :   -0.104129
   2 C :   -0.120949
   3 C :    0.021900
   4 C :   -0.146984
   5 H :    0.012009
   6 C :    0.061547
   7 H :    0.020883
   8 H :    0.031808
   9 C :   -0.054988
  10 H :    0.023341
  11 H :    0.032713
  12 C :   -0.050795
  13 H :    0.026443
  14 H :    0.045214
  15 H :    0.032623
  16 S :    0.113790
  17 C :   -0.070981
  18 C :   -0.031590
  19 C :   -0.046569
  20 C :   -0.152122
  21 H :   -0.001293
  22 C :    0.094813
  23 H :    0.005954
  24 H :    0.017811
  25 C :   -0.070579
  26 H :    0.027876
  27 H :    0.044482
  28 C :   -0.085564
  29 H :    0.037315
  30 H :    0.032955
  31 H :    0.048758
  32 H :    0.042640
  33 H :    0.051729
Sum of atomic charges:    0.0000000

LOEWDIN ATOMIC CHARGES
----------------------
   0 S :    0.403309
   1 C :   -0.211381
   2 C :   -0.067153
   3 C :   -0.069173
   4 C :   -0.180821
   5 H :    0.029387
   6 C :   -0.031401
   7 H :    0.031429
   8 H :    0.032747
   9 C :   -0.040931
  10 H :    0.019089
  11 H :    0.028456
  12 C :   -0.063589
  13 H :    0.029117
  14 H :    0.026718
  15 H :    0.023476
  16 S :    0.438682
  17 C :   -0.192422
  18 C :   -0.060890
  19 C :   -0.056382
  20 C :   -0.215583
  21 H :    0.020604
  22 C :   -0.027855
  23 H :    0.022779
  24 H :    0.032510
  25 C :   -0.037669
  26 H :    0.021879
  27 H :    0.027433
  28 C :   -0.075750
  29 H :    0.030847
  30 H :    0.022430
  31 H :    0.032151
  32 H :    0.030024
  33 H :    0.027932

  Mayer bond orders larger than 0.100000
B(  0-S ,  1-C ) :   1.1417 B(  0-S ,  4-C ) :   1.1570 B(  1-C ,  2-C ) :   1.5944
B(  1-C ,  4-C ) :   0.1107 B(  1-C , 32-H ) :   0.9658 B(  2-C ,  3-C ) :   1.2702
B(  2-C ,  6-C ) :   1.0035 B(  3-C ,  4-C ) :   1.5585 B(  3-C ,  5-H ) :   0.9892
B(  4-C , 20-C ) :   1.0219 B(  6-C ,  7-H ) :   0.9431 B(  6-C ,  8-H ) :   0.9447
B(  6-C ,  9-C ) :   1.0633 B(  9-C , 10-H ) :   0.9551 B(  9-C , 11-H ) :   0.9560
B(  9-C , 12-C ) :   1.0870 B( 12-C , 13-H ) :   0.9739 B( 12-C , 14-H ) :   0.9702
B( 12-C , 15-H ) :   0.9723 B( 16-S , 17-C ) :   1.1519 B( 16-S , 20-C ) :   1.1612
B( 17-C , 18-C ) :   1.5959 B( 17-C , 33-H ) :   0.9735 B( 18-C , 19-C ) :   1.2431
B( 18-C , 21-H ) :   0.9953 B( 19-C , 20-C ) :   1.5909 B( 19-C , 22-C ) :   1.0391
B( 22-C , 23-H ) :   0.9324 B( 22-C , 24-H ) :   0.9299 B( 22-C , 25-C ) :   1.0426
B( 25-C , 26-H ) :   0.9580 B( 25-C , 27-H ) :   0.9599 B( 25-C , 28-C ) :   1.0746
B( 28-C , 29-H ) :   0.9748 B( 28-C , 30-H ) :   0.9745 B( 28-C , 31-H ) :   0.9769

Dispersion correction           -0.014223854
FINAL SINGLE POINT ENERGY     -1339.881929512915

DIPOLE MOMENT
-------------
                                X             Y             Z
Electronic contribution:     22.21451      15.74144      15.42712
Nuclear contribution   :    -22.78375     -16.11866     -15.55824
                        -----------------------------------------
Total Dipole Moment    :     -0.56924      -0.37722      -0.13111
                        -----------------------------------------
Magnitude (a.u.)       :      0.69536
Magnitude (Debye)      :      1.76746

Rotational constants in cm-1:     0.016405     0.009785     0.006501
Rotational constants in MHz :   491.808467   293.356610   194.902018

                             ****ORCA TERMINATED NORMALLY****
TOTAL RUN TIME: 0 days 0 hours 0 minutes 21 seconds 467 msec
