                         Program Version 4.2.1 -  RELEASE  -
|  1> ! wB97X-D3 SP def2-SVP
|  2> %pal
|  3> nprocs 24
|  4> end
|  5>
|  6> * xyz 0 1
|  7> S 	 -127.543 	 62.299 	 -48.7919
|  8> C 	 -125.972 	 62.3055 	 -49.5092
|  9> C 	 -125.447 	 63.5739 	 -49.7571
| 10> C 	 -126.433 	 64.5389 	 -49.424
| 11> C 	 -127.596 	 64.0203 	 -48.9277
| 12> H 	 -126.376 	 65.6144 	 -49.6428
| 13> C 	 -124.088 	 63.9121 	 -50.3059
| 14> H 	 -123.634 	 64.059 	 -49.3405
| 15> H 	 -124.005 	 64.9054 	 -50.6899
| 16> C 	 -123.362 	 63.028 	 -51.2876
| 17> H 	 -122.311 	 63.2631 	 -51.4459
| 18> H 	 -123.263 	 62.0326 	 -50.7841
| 19> C 	 -124.133 	 62.9307 	 -52.5403
| 20> H 	 -125.122 	 62.6417 	 -52.3543
| 21> H 	 -124.205 	 63.854 	 -53.1329
| 22> H 	 -123.706 	 62.2171 	 -53.2277
| 23> S 	 -130.236 	 64.4949 	 -49.5788
| 24> C 	 -130.898 	 65.9768 	 -49.2022
| 25> C 	 -130.225 	 66.6529 	 -48.1546
| 26> C 	 -128.976 	 65.9641 	 -47.8505
| 27> C 	 -128.783 	 64.8157 	 -48.6243
| 28> H 	 -130.598 	 67.5694 	 -47.7119
| 29> C 	 -128.084 	 66.5433 	 -46.7826
| 30> H 	 -127.779 	 67.6446 	 -46.9108
| 31> H 	 -127.149 	 65.9893 	 -46.8399
| 32> C 	 -128.57 	 66.3754 	 -45.3466
| 33> H 	 -128.852 	 65.4053 	 -45.0109
| 34> H 	 -129.412 	 67.0367 	 -45.3059
| 35> C 	 -127.554 	 66.9047 	 -44.2883
| 36> H 	 -126.945 	 67.7076 	 -44.6513
| 37> H 	 -126.832 	 66.1524 	 -44.0534
| 38> H 	 -128.091 	 67.2455 	 -43.4183
| 39> H 	 -125.42 	 61.4362 	 -49.7847
| 40> H 	 -131.75 	 66.372 	 -49.7111
| 41> *
| 42>
| 43>                          ****END OF INPUT****

CARTESIAN COORDINATES (ANGSTROEM)
---------------------------------
  S    -127.543000   62.299000  -48.791900
  C    -125.972000   62.305500  -49.509200
  C    -125.447000   63.573900  -49.757100
  C    -126.433000   64.538900  -49.424000
  C    -127.596000   64.020300  -48.927700
  H    -126.376000   65.614400  -49.642800
  C    -124.088000   63.912100  -50.305900
  H    -123.634000   64.059000  -49.340500
  H    -124.005000   64.905400  -50.689900
  C    -123.362000   63.028000  -51.287600
  H    -122.311000   63.263100  -51.445900
  H    -123.263000   62.032600  -50.784100
  C    -124.133000   62.930700  -52.540300
  H    -125.122000   62.641700  -52.354300
  H    -124.205000   63.854000  -53.132900
  H    -123.706000   62.217100  -53.227700
  S    -130.236000   64.494900  -49.578800
  C    -130.898000   65.976800  -49.202200
  C    -130.225000   66.652900  -48.154600
  C    -128.976000   65.964100  -47.850500
  C    -128.783000   64.815700  -48.624300
  H    -130.598000   67.569400  -47.711900
  C    -128.084000   66.543300  -46.782600
  H    -127.779000   67.644600  -46.910800
  H    -127.149000   65.989300  -46.839900
  C    -128.570000   66.375400  -45.346600
  H    -128.852000   65.405300  -45.010900
  H    -129.412000   67.036700  -45.305900
  C    -127.554000   66.904700  -44.288300
  H    -126.945000   67.707600  -44.651300
  H    -126.832000   66.152400  -44.053400
  H    -128.091000   67.245500  -43.418300
  H    -125.420000   61.436200  -49.784700
  H    -131.750000   66.372000  -49.711100

 Total Charge           Charge          ....    0
 Multiplicity           Mult            ....    1
 Number of Electrons    NEL             ....  134
 Basis Dimension        Dim             ....  322

ORBITAL ENERGIES
----------------

  NO   OCC          E(Eh)            E(eV)
   0   2.0000     -88.966817     -2420.9102
   1   2.0000     -88.963863     -2420.8298
   2   2.0000     -10.325581      -280.9733
   3   2.0000     -10.323190      -280.9083
   4   2.0000     -10.314331      -280.6672
   5   2.0000     -10.307586      -280.4837
   6   2.0000     -10.306358      -280.4502
   7   2.0000     -10.302039      -280.3327
   8   2.0000     -10.296502      -280.1821
   9   2.0000     -10.292594      -280.0757
  10   2.0000     -10.289134      -279.9816
  11   2.0000     -10.287772      -279.9445
  12   2.0000     -10.287256      -279.9305
  13   2.0000     -10.279352      -279.7154
  14   2.0000     -10.270567      -279.4763
  15   2.0000     -10.267039      -279.3803
  16   2.0000      -8.082226      -219.9286
  17   2.0000      -8.080233      -219.8743
  18   2.0000      -6.040610      -164.3734
  19   2.0000      -6.038539      -164.3170
  20   2.0000      -6.036782      -164.2692
  21   2.0000      -6.034439      -164.2054
  22   2.0000      -6.032961      -164.1652
  23   2.0000      -6.031180      -164.1168
  24   2.0000      -1.009427       -27.4679
  25   2.0000      -0.987822       -26.8800
  26   2.0000      -0.923149       -25.1202
  27   2.0000      -0.909307       -24.7435
  28   2.0000      -0.867680       -23.6108
  29   2.0000      -0.857008       -23.3204
  30   2.0000      -0.848146       -23.0792
  31   2.0000      -0.809499       -22.0276
  32   2.0000      -0.786468       -21.4009
  33   2.0000      -0.773551       -21.0494
  34   2.0000      -0.711337       -19.3565
  35   2.0000      -0.702536       -19.1170
  36   2.0000      -0.691128       -18.8066
  37   2.0000      -0.660155       -17.9637
  38   2.0000      -0.638902       -17.3854
  39   2.0000      -0.611776       -16.6473
  40   2.0000      -0.597086       -16.2475
  41   2.0000      -0.579142       -15.7592
  42   2.0000      -0.568801       -15.4779
  43   2.0000      -0.567527       -15.4432
  44   2.0000      -0.541608       -14.7379
  45   2.0000      -0.520764       -14.1707
  46   2.0000      -0.517828       -14.0908
  47   2.0000      -0.509314       -13.8591
  48   2.0000      -0.501799       -13.6546
  49   2.0000      -0.495662       -13.4876
  50   2.0000      -0.487523       -13.2662
  51   2.0000      -0.481245       -13.0953
  52   2.0000      -0.472230       -12.8500
  53   2.0000      -0.465416       -12.6646
  54   2.0000      -0.459278       -12.4976
  55   2.0000      -0.451044       -12.2735
  56   2.0000      -0.445276       -12.1166
  57   2.0000      -0.444011       -12.0821
  58   2.0000      -0.437571       -11.9069
  59   2.0000      -0.432074       -11.7573
  60   2.0000      -0.419602       -11.4180
  61   2.0000      -0.408914       -11.1271
  62   2.0000      -0.408370       -11.1123
  63   2.0000      -0.341581        -9.2949
  64   2.0000      -0.329361        -8.9624
  65   2.0000      -0.326494        -8.8844
  66   2.0000      -0.288941        -7.8625
  67   0.0000       0.038359         1.0438
  68   0.0000       0.063752         1.7348
  69   0.0000       0.116320         3.1652
  70   0.0000       0.124711         3.3936
  71   0.0000       0.134342         3.6556

MULLIKEN ATOMIC CHARGES
-----------------------
   0 S :    0.126450
   1 C :   -0.120135
   2 C :   -0.105653
   3 C :    0.015093
   4 C :   -0.157142
   5 H :    0.020253
   6 C :    0.077528
   7 H :    0.037308
   8 H :    0.008259
   9 C :   -0.045583
  10 H :    0.027547
  11 H :    0.020707
  12 C :   -0.016483
  13 H :    0.023592
  14 H :    0.023892
  15 H :    0.025133
  16 S :    0.124218
  17 C :   -0.089936
  18 C :   -0.039095
  19 C :   -0.018285
  20 C :   -0.159336
  21 H :    0.023344
  22 C :    0.024075
  23 H :    0.042709
  24 H :    0.014998
  25 C :   -0.055108
  26 H :    0.030770
  27 H :    0.013531
  28 C :   -0.033396
  29 H :    0.012081
  30 H :    0.029971
  31 H :    0.035157
  32 H :    0.029442
  33 H :    0.054092
Sum of atomic charges:   -0.0000000

LOEWDIN ATOMIC CHARGES
----------------------
   0 S :    0.421969
   1 C :   -0.212231
   2 C :   -0.053977
   3 C :   -0.064059
   4 C :   -0.206206
   5 H :    0.036252
   6 C :   -0.036977
   7 H :    0.042222
   8 H :    0.027323
   9 C :   -0.044004
  10 H :    0.028577
  11 H :    0.025687
  12 C :   -0.060650
  13 H :    0.020398
  14 H :    0.028172
  15 H :    0.025449
  16 S :    0.437106
  17 C :   -0.201506
  18 C :   -0.074685
  19 C :   -0.048051
  20 C :   -0.203905
  21 H :    0.030553
  22 C :   -0.041854
  23 H :    0.039400
  24 H :    0.024908
  25 C :   -0.030486
  26 H :    0.022894
  27 H :    0.016576
  28 C :   -0.059384
  29 H :    0.018947
  30 H :    0.022726
  31 H :    0.026861
  32 H :    0.017658
  33 H :    0.024298

  Mayer bond orders larger than 0.100000
B(  0-S ,  1-C ) :   1.1375 B(  0-S ,  4-C ) :   1.1561 B(  1-C ,  2-C ) :   1.6062
B(  1-C , 32-H ) :   0.9670 B(  2-C ,  3-C ) :   1.2503 B(  2-C ,  6-C ) :   0.9940
B(  3-C ,  4-C ) :   1.5875 B(  3-C ,  5-H ) :   0.9917 B(  4-C , 20-C ) :   1.0160
B(  6-C ,  7-H ) :   0.9211 B(  6-C ,  8-H ) :   0.9425 B(  6-C ,  9-C ) :   1.0773
B(  9-C , 10-H ) :   0.9488 B(  9-C , 11-H ) :   0.9464 B(  9-C , 12-C ) :   1.0866
B( 12-C , 13-H ) :   0.9716 B( 12-C , 14-H ) :   0.9703 B( 12-C , 15-H ) :   0.9699
B( 16-S , 17-C ) :   1.2051 B( 16-S , 20-C ) :   1.1333 B( 17-C , 18-C ) :   1.5639
B( 17-C , 33-H ) :   0.9707 B( 18-C , 19-C ) :   1.2325 B( 18-C , 21-H ) :   0.9956
B( 19-C , 20-C ) :   1.5940 B( 19-C , 22-C ) :   1.0512 B( 22-C , 23-H ) :   0.9363
B( 22-C , 24-H ) :   0.9329 B( 22-C , 25-C ) :   1.0672 B( 25-C , 26-H ) :   0.9579
B( 25-C , 27-H ) :   0.9583 B( 25-C , 28-C ) :   1.0804 B( 28-C , 29-H ) :   0.9725
B( 28-C , 30-H ) :   0.9774 B( 28-C , 31-H ) :   0.9762

Dispersion correction           -0.013841404
FINAL SINGLE POINT ENERGY     -1339.869659146541

DIPOLE MOMENT
-------------
                                X             Y             Z
Electronic contribution:    -18.73517      -9.52174      -4.56072
Nuclear contribution   :     19.14671       9.98225       4.53066
                        -----------------------------------------
Total Dipole Moment    :      0.41155       0.46051      -0.03006
                        -----------------------------------------
Magnitude (a.u.)       :      0.61834
Magnitude (Debye)      :      1.57171

Rotational constants in cm-1:     0.019724     0.007673     0.006481
Rotational constants in MHz :   591.309696   230.037748   194.295854

                             ****ORCA TERMINATED NORMALLY****
TOTAL RUN TIME: 0 days 0 hours 0 minutes 21 seconds 333 msec
