                         Program Version 4.2.1 -  RELEASE  -
|  1> ! wB97X-D3 SP def2-SVP
|  2> %pal
|  3> nprocs 24
|  4> end
|  5>
|  6> * xyz 0 1
|  7> S 	 -108.427 	 64.7113 	 -74.6161
|  8> C 	 -108.417 	 63.1308 	 -73.8179
|  9> C 	 -109.608 	 62.3914 	 -73.9585
| 10> C 	 -110.494 	 63.1563 	 -74.7205
| 11> C 	 -110.052 	 64.4023 	 -75.2145
| 12> H 	 -111.519 	 62.8602 	 -74.8507
| 13> C 	 -110.041 	 61.1459 	 -73.1955
| 14> H 	 -110.8 	 61.4795 	 -72.4802
| 15> H 	 -109.206 	 60.9323 	 -72.5076
| 16> C 	 -110.433 	 59.9611 	 -74.1216
| 17> H 	 -110.845 	 59.167 	 -73.5555
| 18> H 	 -111.303 	 60.2003 	 -74.6848
| 19> C 	 -109.291 	 59.4567 	 -75.0975
| 20> H 	 -108.375 	 59.1694 	 -74.6022
| 21> H 	 -109.541 	 58.6779 	 -75.7847
| 22> H 	 -109.066 	 60.2025 	 -75.7811
| 23> S 	 -111.432 	 66.5712 	 -74.3791
| 24> C 	 -112.201 	 67.645 	 -75.5916
| 25> C 	 -112.216 	 67.0601 	 -76.8082
| 26> C 	 -111.577 	 65.7442 	 -76.836
| 27> C 	 -110.957 	 65.4999 	 -75.6286
| 28> H 	 -112.698 	 67.424 	 -77.6992
| 29> C 	 -111.435 	 65.0122 	 -78.1159
| 30> H 	 -112.182 	 65.4268 	 -78.7423
| 31> H 	 -111.76 	 64.0338 	 -78.0126
| 32> C 	 -110.114 	 65.13 	 -78.7966
| 33> H 	 -109.305 	 64.7951 	 -78.161
| 34> H 	 -109.937 	 66.215 	 -79.0802
| 35> C 	 -109.96 	 64.5369 	 -80.2023
| 36> H 	 -109.061 	 64.8937 	 -80.7408
| 37> H 	 -110.78 	 64.8678 	 -80.8787
| 38> H 	 -109.933 	 63.4656 	 -80.1071
| 39> H 	 -107.69 	 62.6901 	 -73.1176
| 40> H 	 -112.818 	 68.54 	 -75.4656
| 41> *
| 42>
| 43>                          ****END OF INPUT****

CARTESIAN COORDINATES (ANGSTROEM)
---------------------------------
  S    -108.427000   64.711300  -74.616100
  C    -108.417000   63.130800  -73.817900
  C    -109.608000   62.391400  -73.958500
  C    -110.494000   63.156300  -74.720500
  C    -110.052000   64.402300  -75.214500
  H    -111.519000   62.860200  -74.850700
  C    -110.041000   61.145900  -73.195500
  H    -110.800000   61.479500  -72.480200
  H    -109.206000   60.932300  -72.507600
  C    -110.433000   59.961100  -74.121600
  H    -110.845000   59.167000  -73.555500
  H    -111.303000   60.200300  -74.684800
  C    -109.291000   59.456700  -75.097500
  H    -108.375000   59.169400  -74.602200
  H    -109.541000   58.677900  -75.784700
  H    -109.066000   60.202500  -75.781100
  S    -111.432000   66.571200  -74.379100
  C    -112.201000   67.645000  -75.591600
  C    -112.216000   67.060100  -76.808200
  C    -111.577000   65.744200  -76.836000
  C    -110.957000   65.499900  -75.628600
  H    -112.698000   67.424000  -77.699200
  C    -111.435000   65.012200  -78.115900
  H    -112.182000   65.426800  -78.742300
  H    -111.760000   64.033800  -78.012600
  C    -110.114000   65.130000  -78.796600
  H    -109.305000   64.795100  -78.161000
  H    -109.937000   66.215000  -79.080200
  C    -109.960000   64.536900  -80.202300
  H    -109.061000   64.893700  -80.740800
  H    -110.780000   64.867800  -80.878700
  H    -109.933000   63.465600  -80.107100
  H    -107.690000   62.690100  -73.117600
  H    -112.818000   68.540000  -75.465600

 Total Charge           Charge          ....    0
 Multiplicity           Mult            ....    1
 Number of Electrons    NEL             ....  134
 Basis Dimension        Dim             ....  322

ORBITAL ENERGIES
----------------

  NO   OCC          E(Eh)            E(eV)
   0   2.0000     -88.973658     -2421.0963
   1   2.0000     -88.964249     -2420.8403
   2   2.0000     -10.329271      -281.0737
   3   2.0000     -10.322534      -280.8904
   4   2.0000     -10.319888      -280.8184
   5   2.0000     -10.314643      -280.6757
   6   2.0000     -10.302498      -280.3452
   7   2.0000     -10.299348      -280.2595
   8   2.0000     -10.296830      -280.1910
   9   2.0000     -10.292076      -280.0616
  10   2.0000     -10.290872      -280.0289
  11   2.0000     -10.289889      -280.0021
  12   2.0000     -10.281506      -279.7740
  13   2.0000     -10.277371      -279.6615
  14   2.0000     -10.276364      -279.6341
  15   2.0000     -10.272041      -279.5164
  16   2.0000      -8.087142      -220.0623
  17   2.0000      -8.078971      -219.8400
  18   2.0000      -6.045650      -164.5105
  19   2.0000      -6.041793      -164.4055
  20   2.0000      -6.037994      -164.3022
  21   2.0000      -6.037675      -164.2935
  22   2.0000      -6.033596      -164.1825
  23   2.0000      -6.029384      -164.0679
  24   2.0000      -1.004582       -27.3361
  25   2.0000      -0.981175       -26.6991
  26   2.0000      -0.914329       -24.8802
  27   2.0000      -0.908054       -24.7094
  28   2.0000      -0.865463       -23.5505
  29   2.0000      -0.847248       -23.0548
  30   2.0000      -0.846951       -23.0467
  31   2.0000      -0.812403       -22.1066
  32   2.0000      -0.788076       -21.4446
  33   2.0000      -0.772922       -21.0323
  34   2.0000      -0.718716       -19.5573
  35   2.0000      -0.701296       -19.0832
  36   2.0000      -0.688505       -18.7352
  37   2.0000      -0.662531       -18.0284
  38   2.0000      -0.633036       -17.2258
  39   2.0000      -0.619093       -16.8464
  40   2.0000      -0.595238       -16.1973
  41   2.0000      -0.569366       -15.4932
  42   2.0000      -0.564611       -15.3638
  43   2.0000      -0.551764       -15.0142
  44   2.0000      -0.538351       -14.6493
  45   2.0000      -0.523257       -14.2385
  46   2.0000      -0.515589       -14.0299
  47   2.0000      -0.509262       -13.8577
  48   2.0000      -0.503820       -13.7096
  49   2.0000      -0.489007       -13.3066
  50   2.0000      -0.486397       -13.2355
  51   2.0000      -0.473122       -12.8743
  52   2.0000      -0.470912       -12.8142
  53   2.0000      -0.462988       -12.5985
  54   2.0000      -0.456962       -12.4346
  55   2.0000      -0.453216       -12.3326
  56   2.0000      -0.447383       -12.1739
  57   2.0000      -0.442892       -12.0517
  58   2.0000      -0.433037       -11.7835
  59   2.0000      -0.428217       -11.6524
  60   2.0000      -0.423179       -11.5153
  61   2.0000      -0.421096       -11.4586
  62   2.0000      -0.402143       -10.9429
  63   2.0000      -0.343381        -9.3439
  64   2.0000      -0.328668        -8.9435
  65   2.0000      -0.321981        -8.7616
  66   2.0000      -0.301343        -8.2000
  67   0.0000       0.035061         0.9541
  68   0.0000       0.058410         1.5894
  69   0.0000       0.109084         2.9683
  70   0.0000       0.115477         3.1423
  71   0.0000       0.128253         3.4899

MULLIKEN ATOMIC CHARGES
-----------------------
   0 S :    0.130420
   1 C :   -0.120594
   2 C :   -0.113389
   3 C :    0.037092
   4 C :   -0.170903
   5 H :    0.006834
   6 C :    0.063624
   7 H :    0.047955
   8 H :    0.013681
   9 C :   -0.033362
  10 H :    0.017668
  11 H :    0.017112
  12 C :   -0.024932
  13 H :    0.031219
  14 H :    0.022905
  15 H :    0.021190
  16 S :    0.120491
  17 C :   -0.076340
  18 C :   -0.032700
  19 C :   -0.063168
  20 C :   -0.183936
  21 H :    0.012457
  22 C :    0.177632
  23 H :   -0.016769
  24 H :   -0.000140
  25 C :   -0.090995
  26 H :    0.035647
  27 H :    0.025877
  28 C :   -0.057889
  29 H :    0.039996
  30 H :    0.027838
  31 H :    0.030289
  32 H :    0.048372
  33 H :    0.056816
Sum of atomic charges:    0.0000000

LOEWDIN ATOMIC CHARGES
----------------------
   0 S :    0.410595
   1 C :   -0.197136
   2 C :   -0.071176
   3 C :   -0.050686
   4 C :   -0.212486
   5 H :    0.025544
   6 C :   -0.028081
   7 H :    0.040287
   8 H :    0.030137
   9 C :   -0.033052
  10 H :    0.020377
  11 H :    0.021733
  12 C :   -0.059426
  13 H :    0.025261
  14 H :    0.026751
  15 H :    0.020007
  16 S :    0.405452
  17 C :   -0.183015
  18 C :   -0.064139
  19 C :   -0.052107
  20 C :   -0.208486
  21 H :    0.028111
  22 C :   -0.031209
  23 H :    0.025970
  24 H :    0.022745
  25 C :   -0.041206
  26 H :    0.023041
  27 H :    0.031354
  28 C :   -0.068223
  29 H :    0.030669
  30 H :    0.025871
  31 H :    0.018198
  32 H :    0.031734
  33 H :    0.036590

  Mayer bond orders larger than 0.100000
B(  0-S ,  1-C ) :   1.1613 B(  0-S ,  4-C ) :   1.1438 B(  1-C ,  2-C ) :   1.5865
B(  1-C ,  4-C ) :   0.1013 B(  1-C , 32-H ) :   0.9510 B(  2-C ,  3-C ) :   1.2781
B(  2-C ,  6-C ) :   1.0141 B(  3-C ,  4-C ) :   1.5630 B(  3-C ,  5-H ) :   0.9908
B(  4-C , 20-C ) :   1.0081 B(  6-C ,  7-H ) :   0.9451 B(  6-C ,  8-H ) :   0.9396
B(  6-C ,  9-C ) :   1.0560 B(  9-C , 10-H ) :   0.9572 B(  9-C , 11-H ) :   0.9563
B(  9-C , 12-C ) :   1.0639 B( 12-C , 13-H ) :   0.9798 B( 12-C , 14-H ) :   0.9738
B( 12-C , 15-H ) :   0.9721 B( 16-S , 17-C ) :   1.1145 B( 16-S , 20-C ) :   1.1524
B( 17-C , 18-C ) :   1.6574 B( 17-C , 33-H ) :   0.9609 B( 18-C , 19-C ) :   1.2287
B( 18-C , 21-H ) :   0.9814 B( 19-C , 20-C ) :   1.6197 B( 19-C , 22-C ) :   1.0625
B( 22-C , 23-H ) :   0.9093 B( 22-C , 24-H ) :   0.9071 B( 22-C , 25-C ) :   1.0736
B( 25-C , 26-H ) :   0.9561 B( 25-C , 27-H ) :   0.9554 B( 25-C , 28-C ) :   1.0808
B( 28-C , 29-H ) :   0.9762 B( 28-C , 30-H ) :   0.9730 B( 28-C , 31-H ) :   0.9756

Dispersion correction           -0.014319335
FINAL SINGLE POINT ENERGY     -1339.856491135996

DIPOLE MOMENT
-------------
                                X             Y             Z
Electronic contribution:      0.39113      20.09101      15.14793
Nuclear contribution   :     -0.75766     -20.53495     -15.27329
                        -----------------------------------------
Total Dipole Moment    :     -0.36653      -0.44394      -0.12536
                        -----------------------------------------
Magnitude (a.u.)       :      0.58919
Magnitude (Debye)      :      1.49760

Rotational constants in cm-1:     0.017687     0.008811     0.007146
Rotational constants in MHz :   530.244521   264.134738   214.234529

                             ****ORCA TERMINATED NORMALLY****
TOTAL RUN TIME: 0 days 0 hours 0 minutes 21 seconds 414 msec
