                         Program Version 4.2.1 -  RELEASE  -
|  1> ! wB97X-D3 SP def2-SVP
|  2> %pal
|  3> nprocs 24
|  4> end
|  5>
|  6> * xyz 0 1
|  7> S 	 -56.3792 	 -51.0314 	 -76.7925
|  8> C 	 -56.4102 	 -49.7287 	 -75.6969
|  9> C 	 -55.5422 	 -48.7014 	 -76.041
| 10> C 	 -54.8683 	 -48.9254 	 -77.3098
| 11> C 	 -55.2472 	 -50.1698 	 -77.8134
| 12> H 	 -54.0693 	 -48.4208 	 -77.7387
| 13> C 	 -55.2817 	 -47.3489 	 -75.3352
| 14> H 	 -54.2446 	 -47.0638 	 -75.2103
| 15> H 	 -55.7129 	 -47.5104 	 -74.2758
| 16> C 	 -56.0616 	 -46.1359 	 -76.0162
| 17> H 	 -57.1113 	 -46.3563 	 -75.8751
| 18> H 	 -55.8814 	 -45.1634 	 -75.5094
| 19> C 	 -55.5069 	 -45.9253 	 -77.4576
| 20> H 	 -55.7787 	 -46.7053 	 -78.1172
| 21> H 	 -55.9287 	 -44.9879 	 -77.8414
| 22> H 	 -54.4312 	 -45.6792 	 -77.3971
| 23> S 	 -55.4987 	 -50.6646 	 -80.5087
| 24> C 	 -54.9252 	 -52.1753 	 -81.1416
| 25> C 	 -54.1809 	 -52.8093 	 -80.1738
| 26> C 	 -54.1371 	 -52.1397 	 -78.9148
| 27> C 	 -54.7451 	 -50.896 	 -78.9494
| 28> H 	 -53.658 	 -53.6956 	 -80.356
| 29> C 	 -53.3941 	 -52.8496 	 -77.7388
| 30> H 	 -52.9812 	 -53.7682 	 -78.0431
| 31> H 	 -54.0912 	 -52.9464 	 -76.9055
| 32> C 	 -52.1727 	 -51.9864 	 -77.3611
| 33> H 	 -52.4791 	 -50.9409 	 -77.4044
| 34> H 	 -51.3542 	 -52.2131 	 -78.074
| 35> C 	 -51.6473 	 -52.2919 	 -75.9647
| 36> H 	 -52.0692 	 -51.6767 	 -75.196
| 37> H 	 -50.5383 	 -52.209 	 -75.9218
| 38> H 	 -51.8314 	 -53.3397 	 -75.7138
| 39> H 	 -56.708 	 -49.8416 	 -74.7138
| 40> H 	 -55.0818 	 -52.6152 	 -82.0474
| 41> *
| 42>
| 43>                          ****END OF INPUT****

CARTESIAN COORDINATES (ANGSTROEM)
---------------------------------
  S    -56.379200  -51.031400  -76.792500
  C    -56.410200  -49.728700  -75.696900
  C    -55.542200  -48.701400  -76.041000
  C    -54.868300  -48.925400  -77.309800
  C    -55.247200  -50.169800  -77.813400
  H    -54.069300  -48.420800  -77.738700
  C    -55.281700  -47.348900  -75.335200
  H    -54.244600  -47.063800  -75.210300
  H    -55.712900  -47.510400  -74.275800
  C    -56.061600  -46.135900  -76.016200
  H    -57.111300  -46.356300  -75.875100
  H    -55.881400  -45.163400  -75.509400
  C    -55.506900  -45.925300  -77.457600
  H    -55.778700  -46.705300  -78.117200
  H    -55.928700  -44.987900  -77.841400
  H    -54.431200  -45.679200  -77.397100
  S    -55.498700  -50.664600  -80.508700
  C    -54.925200  -52.175300  -81.141600
  C    -54.180900  -52.809300  -80.173800
  C    -54.137100  -52.139700  -78.914800
  C    -54.745100  -50.896000  -78.949400
  H    -53.658000  -53.695600  -80.356000
  C    -53.394100  -52.849600  -77.738800
  H    -52.981200  -53.768200  -78.043100
  H    -54.091200  -52.946400  -76.905500
  C    -52.172700  -51.986400  -77.361100
  H    -52.479100  -50.940900  -77.404400
  H    -51.354200  -52.213100  -78.074000
  C    -51.647300  -52.291900  -75.964700
  H    -52.069200  -51.676700  -75.196000
  H    -50.538300  -52.209000  -75.921800
  H    -51.831400  -53.339700  -75.713800
  H    -56.708000  -49.841600  -74.713800
  H    -55.081800  -52.615200  -82.047400

 Total Charge           Charge          ....    0
 Multiplicity           Mult            ....    1
 Number of Electrons    NEL             ....  134
 Basis Dimension        Dim             ....  322

ORBITAL ENERGIES
----------------

  NO   OCC          E(Eh)            E(eV)
   0   2.0000     -88.967571     -2420.9307
   1   2.0000     -88.964460     -2420.8460
   2   2.0000     -10.327227      -281.0181
   3   2.0000     -10.319028      -280.7950
   4   2.0000     -10.311109      -280.5795
   5   2.0000     -10.307084      -280.4700
   6   2.0000     -10.306541      -280.4552
   7   2.0000     -10.301658      -280.3224
   8   2.0000     -10.300980      -280.3039
   9   2.0000     -10.293439      -280.0987
  10   2.0000     -10.291673      -280.0507
  11   2.0000     -10.288472      -279.9636
  12   2.0000     -10.285079      -279.8712
  13   2.0000     -10.280636      -279.7503
  14   2.0000     -10.276066      -279.6260
  15   2.0000     -10.271539      -279.5028
  16   2.0000      -8.082911      -219.9472
  17   2.0000      -8.079366      -219.8507
  18   2.0000      -6.041265      -164.3912
  19   2.0000      -6.037935      -164.3006
  20   2.0000      -6.037277      -164.2827
  21   2.0000      -6.033851      -164.1894
  22   2.0000      -6.033637      -164.1836
  23   2.0000      -6.030254      -164.0916
  24   2.0000      -1.010382       -27.4939
  25   2.0000      -0.985756       -26.8238
  26   2.0000      -0.907019       -24.6812
  27   2.0000      -0.901454       -24.5298
  28   2.0000      -0.872581       -23.7441
  29   2.0000      -0.847521       -23.0622
  30   2.0000      -0.844147       -22.9704
  31   2.0000      -0.815340       -22.1865
  32   2.0000      -0.780849       -21.2480
  33   2.0000      -0.768930       -20.9237
  34   2.0000      -0.706635       -19.2285
  35   2.0000      -0.697706       -18.9856
  36   2.0000      -0.686693       -18.6859
  37   2.0000      -0.666689       -18.1415
  38   2.0000      -0.653448       -17.7812
  39   2.0000      -0.610931       -16.6243
  40   2.0000      -0.594191       -16.1687
  41   2.0000      -0.575214       -15.6524
  42   2.0000      -0.572070       -15.5668
  43   2.0000      -0.552914       -15.0455
  44   2.0000      -0.535010       -14.5584
  45   2.0000      -0.518152       -14.0996
  46   2.0000      -0.513186       -13.9645
  47   2.0000      -0.509380       -13.8609
  48   2.0000      -0.508053       -13.8248
  49   2.0000      -0.498363       -13.5612
  50   2.0000      -0.490171       -13.3382
  51   2.0000      -0.488257       -13.2861
  52   2.0000      -0.477678       -12.9983
  53   2.0000      -0.464810       -12.6481
  54   2.0000      -0.458423       -12.4743
  55   2.0000      -0.447871       -12.1872
  56   2.0000      -0.436755       -11.8847
  57   2.0000      -0.433131       -11.7861
  58   2.0000      -0.425891       -11.5891
  59   2.0000      -0.423731       -11.5303
  60   2.0000      -0.420232       -11.4351
  61   2.0000      -0.413732       -11.2582
  62   2.0000      -0.407255       -11.0820
  63   2.0000      -0.337345        -9.1796
  64   2.0000      -0.332984        -9.0610
  65   2.0000      -0.319844        -8.7034
  66   2.0000      -0.306667        -8.3448
  67   0.0000       0.035981         0.9791
  68   0.0000       0.057432         1.5628
  69   0.0000       0.108661         2.9568
  70   0.0000       0.120077         3.2674
  71   0.0000       0.129313         3.5188

MULLIKEN ATOMIC CHARGES
-----------------------
   0 S :    0.129433
   1 C :   -0.074790
   2 C :   -0.116636
   3 C :    0.070793
   4 C :   -0.178040
   5 H :    0.002802
   6 C :    0.017932
   7 H :    0.035810
   8 H :    0.026764
   9 C :   -0.075774
  10 H :    0.035426
  11 H :    0.035589
  12 C :   -0.058050
  13 H :    0.055969
  14 H :    0.027225
  15 H :    0.031784
  16 S :    0.112672
  17 C :   -0.041048
  18 C :   -0.016311
  19 C :   -0.082560
  20 C :   -0.161726
  21 H :   -0.005924
  22 C :    0.127989
  23 H :    0.004815
  24 H :    0.032152
  25 C :   -0.100666
  26 H :    0.038301
  27 H :    0.033123
  28 C :   -0.040667
  29 H :    0.037073
  30 H :    0.028773
  31 H :    0.019612
  32 H :    0.029776
  33 H :    0.018379
Sum of atomic charges:   -0.0000000

LOEWDIN ATOMIC CHARGES
----------------------
   0 S :    0.438965
   1 C :   -0.210672
   2 C :   -0.055943
   3 C :   -0.047451
   4 C :   -0.190553
   5 H :    0.024589
   6 C :   -0.037563
   7 H :    0.024974
   8 H :    0.032175
   9 C :   -0.036030
  10 H :    0.022719
  11 H :    0.026862
  12 C :   -0.066414
  13 H :    0.021242
  14 H :    0.026890
  15 H :    0.029035
  16 S :    0.421241
  17 C :   -0.171114
  18 C :   -0.067230
  19 C :   -0.046745
  20 C :   -0.229101
  21 H :    0.019414
  22 C :   -0.018996
  23 H :    0.021086
  24 H :    0.024319
  25 C :   -0.040401
  26 H :    0.023723
  27 H :    0.027696
  28 C :   -0.069123
  29 H :    0.023414
  30 H :    0.028175
  31 H :    0.022123
  32 H :    0.014469
  33 H :    0.014225

  Mayer bond orders larger than 0.100000
B(  0-S ,  1-C ) :   1.1461 B(  0-S ,  4-C ) :   1.1667 B(  1-C ,  2-C ) :   1.6371
B(  1-C , 32-H ) :   0.9634 B(  2-C ,  3-C ) :   1.2176 B(  2-C ,  6-C ) :   1.0228
B(  3-C ,  4-C ) :   1.5750 B(  3-C ,  5-H ) :   0.9972 B(  4-C , 20-C ) :   1.0206
B(  6-C ,  7-H ) :   0.9519 B(  6-C ,  8-H ) :   0.9442 B(  6-C ,  9-C ) :   1.0563
B(  9-C , 10-H ) :   0.9592 B(  9-C , 11-H ) :   0.9600 B(  9-C , 12-C ) :   1.0779
B( 12-C , 13-H ) :   0.9683 B( 12-C , 14-H ) :   0.9706 B( 12-C , 15-H ) :   0.9711
B( 16-S , 17-C ) :   1.1717 B( 16-S , 20-C ) :   1.1420 B( 17-C , 18-C ) :   1.5807
B( 17-C , 33-H ) :   0.9781 B( 18-C , 19-C ) :   1.2807 B( 18-C , 21-H ) :   0.9947
B( 19-C , 20-C ) :   1.5691 B( 19-C , 22-C ) :   1.0314 B( 22-C , 23-H ) :   0.9305
B( 22-C , 24-H ) :   0.9335 B( 22-C , 25-C ) :   1.0630 B( 25-C , 26-H ) :   0.9659
B( 25-C , 27-H ) :   0.9579 B( 25-C , 28-C ) :   1.0775 B( 28-C , 29-H ) :   0.9774
B( 28-C , 30-H ) :   0.9756 B( 28-C , 31-H ) :   0.9726

Dispersion correction           -0.015208392
FINAL SINGLE POINT ENERGY     -1339.862012961325

DIPOLE MOMENT
-------------
                                X             Y             Z
Electronic contribution:    -12.94994      -9.68046     -13.04835
Nuclear contribution   :     13.32458       9.62111      13.30003
                        -----------------------------------------
Total Dipole Moment    :      0.37464      -0.05934       0.25167
                        -----------------------------------------
Magnitude (a.u.)       :      0.45521
Magnitude (Debye)      :      1.15706

Rotational constants in cm-1:     0.018763     0.009486     0.007759
Rotational constants in MHz :   562.498232   284.394518   232.610325

                             ****ORCA TERMINATED NORMALLY****
TOTAL RUN TIME: 0 days 0 hours 0 minutes 21 seconds 157 msec
