                         Program Version 4.2.1 -  RELEASE  -
|  1> ! wB97X-D3 SP def2-SVP
|  2> %pal
|  3> nprocs 24
|  4> end
|  5>
|  6> * xyz 0 1
|  7> S 	 -101.688 	 -1.44679 	 -106.096
|  8> C 	 -100.826 	 -0.71761 	 -107.469
|  9> C 	 -100.587 	 0.603827 	 -107.297
| 10> C 	 -100.954 	 1.05434 	 -106.01
| 11> C 	 -101.544 	 0.0937635 	 -105.234
| 12> H 	 -100.962 	 2.10146 	 -105.731
| 13> C 	 -99.918 	 1.51586 	 -108.362
| 14> H 	 -99.6806 	 0.884021 	 -109.191
| 15> H 	 -98.9722 	 1.87054 	 -107.87
| 16> C 	 -100.814 	 2.74675 	 -108.663
| 17> H 	 -101.699 	 2.33978 	 -109.087
| 18> H 	 -101.158 	 3.3358 	 -107.81
| 19> C 	 -100.064 	 3.56388 	 -109.803
| 20> H 	 -100.48 	 4.48263 	 -110.083
| 21> H 	 -99.1071 	 3.87463 	 -109.355
| 22> H 	 -99.8137 	 3.13971 	 -110.766
| 23> S 	 -103.744 	 0.18424 	 -103.603
| 24> C 	 -103.494 	 0.747002 	 -101.994
| 25> C 	 -102.175 	 0.853399 	 -101.639
| 26> C 	 -101.304 	 0.589694 	 -102.723
| 27> C 	 -102 	 0.204919 	 -103.854
| 28> H 	 -101.802 	 1.13365 	 -100.65
| 29> C 	 -99.8302 	 0.83819 	 -102.726
| 30> H 	 -99.3101 	 0.1198 	 -103.373
| 31> H 	 -99.4841 	 0.380755 	 -101.806
| 32> C 	 -99.2145 	 2.22745 	 -102.87
| 33> H 	 -99.7185 	 3.00896 	 -102.353
| 34> H 	 -99.1879 	 2.56624 	 -103.902
| 35> C 	 -97.7375 	 2.01629 	 -102.523
| 36> H 	 -97.1646 	 1.1562 	 -103.025
| 37> H 	 -97.7258 	 1.81529 	 -101.448
| 38> H 	 -97.1529 	 2.91395 	 -102.562
| 39> H 	 -100.732 	 -1.14774 	 -108.484
| 40> H 	 -104.325 	 0.946756 	 -101.366
| 41> *
| 42>
| 43>                          ****END OF INPUT****

CARTESIAN COORDINATES (ANGSTROEM)
---------------------------------
  S    -101.688000   -1.446790  -106.096000
  C    -100.826000   -0.717610  -107.469000
  C    -100.587000    0.603827  -107.297000
  C    -100.954000    1.054340  -106.010000
  C    -101.544000    0.093763  -105.234000
  H    -100.962000    2.101460  -105.731000
  C    -99.918000    1.515860  -108.362000
  H    -99.680600    0.884021  -109.191000
  H    -98.972200    1.870540  -107.870000
  C    -100.814000    2.746750  -108.663000
  H    -101.699000    2.339780  -109.087000
  H    -101.158000    3.335800  -107.810000
  C    -100.064000    3.563880  -109.803000
  H    -100.480000    4.482630  -110.083000
  H    -99.107100    3.874630  -109.355000
  H    -99.813700    3.139710  -110.766000
  S    -103.744000    0.184240  -103.603000
  C    -103.494000    0.747002  -101.994000
  C    -102.175000    0.853399  -101.639000
  C    -101.304000    0.589694  -102.723000
  C    -102.000000    0.204919  -103.854000
  H    -101.802000    1.133650  -100.650000
  C    -99.830200    0.838190  -102.726000
  H    -99.310100    0.119800  -103.373000
  H    -99.484100    0.380755  -101.806000
  C    -99.214500    2.227450  -102.870000
  H    -99.718500    3.008960  -102.353000
  H    -99.187900    2.566240  -103.902000
  C    -97.737500    2.016290  -102.523000
  H    -97.164600    1.156200  -103.025000
  H    -97.725800    1.815290  -101.448000
  H    -97.152900    2.913950  -102.562000
  H    -100.732000   -1.147740  -108.484000
  H    -104.325000    0.946756  -101.366000

 Total Charge           Charge          ....    0
 Multiplicity           Mult            ....    1
 Number of Electrons    NEL             ....  134
 Basis Dimension        Dim             ....  322

ORBITAL ENERGIES
----------------

  NO   OCC          E(Eh)            E(eV)
   0   2.0000     -88.964700     -2420.8526
   1   2.0000     -88.962665     -2420.7972
   2   2.0000     -10.326255      -280.9917
   3   2.0000     -10.319779      -280.8155
   4   2.0000     -10.313794      -280.6526
   5   2.0000     -10.309325      -280.5310
   6   2.0000     -10.298596      -280.2390
   7   2.0000     -10.298515      -280.2368
   8   2.0000     -10.294171      -280.1186
   9   2.0000     -10.293173      -280.0915
  10   2.0000     -10.293107      -280.0897
  11   2.0000     -10.288718      -279.9702
  12   2.0000     -10.286725      -279.9160
  13   2.0000     -10.286399      -279.9071
  14   2.0000     -10.281330      -279.7692
  15   2.0000     -10.277033      -279.6523
  16   2.0000      -8.080080      -219.8702
  17   2.0000      -8.076824      -219.7816
  18   2.0000      -6.038408      -164.3134
  19   2.0000      -6.035375      -164.2309
  20   2.0000      -6.034566      -164.2089
  21   2.0000      -6.031599      -164.1281
  22   2.0000      -6.030932      -164.1100
  23   2.0000      -6.027394      -164.0137
  24   2.0000      -1.006825       -27.3971
  25   2.0000      -0.984188       -26.7811
  26   2.0000      -0.914364       -24.8811
  27   2.0000      -0.906333       -24.6626
  28   2.0000      -0.866455       -23.5774
  29   2.0000      -0.856523       -23.3072
  30   2.0000      -0.841695       -22.9037
  31   2.0000      -0.812298       -22.1038
  32   2.0000      -0.780836       -21.2476
  33   2.0000      -0.768757       -20.9189
  34   2.0000      -0.715015       -19.4565
  35   2.0000      -0.709197       -19.2982
  36   2.0000      -0.694599       -18.9010
  37   2.0000      -0.663138       -18.0449
  38   2.0000      -0.635351       -17.2888
  39   2.0000      -0.620337       -16.8802
  40   2.0000      -0.605778       -16.4841
  41   2.0000      -0.566742       -15.4218
  42   2.0000      -0.560864       -15.2619
  43   2.0000      -0.552865       -15.0442
  44   2.0000      -0.528224       -14.3737
  45   2.0000      -0.519652       -14.1404
  46   2.0000      -0.518624       -14.1125
  47   2.0000      -0.506951       -13.7948
  48   2.0000      -0.504264       -13.7217
  49   2.0000      -0.495073       -13.4716
  50   2.0000      -0.488147       -13.2832
  51   2.0000      -0.473532       -12.8855
  52   2.0000      -0.469965       -12.7884
  53   2.0000      -0.462643       -12.5892
  54   2.0000      -0.455792       -12.4027
  55   2.0000      -0.454414       -12.3652
  56   2.0000      -0.449873       -12.2417
  57   2.0000      -0.445729       -12.1289
  58   2.0000      -0.438679       -11.9371
  59   2.0000      -0.429158       -11.6780
  60   2.0000      -0.423825       -11.5329
  61   2.0000      -0.412437       -11.2230
  62   2.0000      -0.405687       -11.0393
  63   2.0000      -0.340225        -9.2580
  64   2.0000      -0.330086        -8.9821
  65   2.0000      -0.329031        -8.9534
  66   2.0000      -0.298935        -8.1344
  67   0.0000       0.039528         1.0756
  68   0.0000       0.064222         1.7476
  69   0.0000       0.114425         3.1137
  70   0.0000       0.123792         3.3685
  71   0.0000       0.129896         3.5346

MULLIKEN ATOMIC CHARGES
-----------------------
   0 S :    0.098982
   1 C :   -0.133025
   2 C :   -0.104134
   3 C :    0.037779
   4 C :   -0.157365
   5 H :    0.015903
   6 C :    0.075600
   7 H :    0.016748
   8 H :    0.043632
   9 C :   -0.071638
  10 H :    0.027244
  11 H :    0.046777
  12 C :   -0.030902
  13 H :    0.012482
  14 H :    0.015984
  15 H :    0.031693
  16 S :    0.113073
  17 C :   -0.079138
  18 C :   -0.024613
  19 C :   -0.004223
  20 C :   -0.171679
  21 H :    0.016697
  22 C :    0.030703
  23 H :    0.023884
  24 H :    0.003932
  25 C :    0.006228
  26 H :    0.023343
  27 H :    0.021827
  28 C :   -0.081920
  29 H :    0.054709
  30 H :    0.021248
  31 H :    0.023562
  32 H :    0.050448
  33 H :    0.046159
Sum of atomic charges:    0.0000000

LOEWDIN ATOMIC CHARGES
----------------------
   0 S :    0.377115
   1 C :   -0.200707
   2 C :   -0.067958
   3 C :   -0.063800
   4 C :   -0.181349
   5 H :    0.030698
   6 C :   -0.018900
   7 H :    0.026002
   8 H :    0.035845
   9 C :   -0.031578
  10 H :    0.021258
  11 H :    0.029836
  12 C :   -0.069409
  13 H :    0.015463
  14 H :    0.025523
  15 H :    0.027070
  16 S :    0.413498
  17 C :   -0.179415
  18 C :   -0.071736
  19 C :   -0.054204
  20 C :   -0.202366
  21 H :    0.034033
  22 C :   -0.040694
  23 H :    0.038216
  24 H :    0.029848
  25 C :   -0.031485
  26 H :    0.022381
  27 H :    0.022569
  28 C :   -0.070380
  29 H :    0.039343
  30 H :    0.022906
  31 H :    0.019412
  32 H :    0.032605
  33 H :    0.020363

  Mayer bond orders larger than 0.100000
B(  0-S ,  1-C ) :   1.1145 B(  0-S ,  4-C ) :   1.1432 B(  1-C ,  2-C ) :   1.6708
B(  1-C , 32-H ) :   0.9535 B(  2-C ,  3-C ) :   1.2198 B(  2-C ,  6-C ) :   1.0110
B(  3-C ,  4-C ) :   1.6150 B(  3-C ,  5-H ) :   0.9904 B(  4-C , 20-C ) :   0.9988
B(  6-C ,  7-H ) :   0.9466 B(  6-C ,  8-H ) :   0.9414 B(  6-C ,  9-C ) :   1.0465
B(  9-C , 10-H ) :   0.9585 B(  9-C , 11-H ) :   0.9602 B(  9-C , 12-C ) :   1.0657
B( 12-C , 13-H ) :   0.9758 B( 12-C , 14-H ) :   0.9746 B( 12-C , 15-H ) :   0.9789
B( 16-S , 17-C ) :   1.1709 B( 16-S , 20-C ) :   1.1448 B( 17-C , 18-C ) :   1.5842
B( 17-C , 33-H ) :   0.9724 B( 18-C , 19-C ) :   1.2449 B( 18-C , 21-H ) :   0.9940
B( 19-C , 20-C ) :   1.6128 B( 19-C , 22-C ) :   1.0396 B( 22-C , 23-H ) :   0.9227
B( 22-C , 24-H ) :   0.9331 B( 22-C , 25-C ) :   1.0566 B( 25-C , 26-H ) :   0.9558
B( 25-C , 27-H ) :   0.9478 B( 25-C , 28-C ) :   1.0685 B( 28-C , 29-H ) :   0.9732
B( 28-C , 30-H ) :   0.9759 B( 28-C , 31-H ) :   0.9707

Dispersion correction           -0.014238118
FINAL SINGLE POINT ENERGY     -1339.870253597368

DIPOLE MOMENT
-------------
                                X             Y             Z
Electronic contribution:    -21.27620     -19.30420       7.42470
Nuclear contribution   :     21.63298      19.96672      -7.42903
                        -----------------------------------------
Total Dipole Moment    :      0.35677       0.66253      -0.00433
                        -----------------------------------------
Magnitude (a.u.)       :      0.75249
Magnitude (Debye)      :      1.91269

Rotational constants in cm-1:     0.016610     0.008831     0.007079
Rotational constants in MHz :   497.965382   264.752614   212.231752

                             ****ORCA TERMINATED NORMALLY****
TOTAL RUN TIME: 0 days 0 hours 0 minutes 21 seconds 787 msec
