                         Program Version 4.2.1 -  RELEASE  -
|  1> ! wB97X-D3 SP def2-SVP
|  2> %pal
|  3> nprocs 24
|  4> end
|  5>
|  6> * xyz 0 1
|  7> S 	 -46.4158 	 11.2419 	 27.1958
|  8> C 	 -45.5356 	 12.5618 	 26.3718
|  9> C 	 -46.0955 	 13.0019 	 25.2175
| 10> C 	 -47.306 	 12.2752 	 24.9664
| 11> C 	 -47.581 	 11.3193 	 25.9304
| 12> H 	 -47.9711 	 12.5739 	 24.1599
| 13> C 	 -45.701 	 14.1747 	 24.3041
| 14> H 	 -44.7676 	 14.6522 	 24.7477
| 15> H 	 -46.4637 	 14.9521 	 24.456
| 16> C 	 -45.355 	 13.8802 	 22.8503
| 17> H 	 -46.1191 	 13.3724 	 22.3219
| 18> H 	 -45.1436 	 14.8489 	 22.3138
| 19> C 	 -44.0092 	 13.1073 	 22.673
| 20> H 	 -43.197 	 13.6244 	 23.0587
| 21> H 	 -44.1712 	 12.1172 	 23.0191
| 22> H 	 -43.7101 	 12.8554 	 21.6407
| 23> S 	 -48.2484 	 8.62018 	 26.1846
| 24> C 	 -49.9293 	 8.20009 	 26.069
| 25> C 	 -50.7492 	 9.28458 	 25.9209
| 26> C 	 -50.0841 	 10.5713 	 25.8306
| 27> C 	 -48.7322 	 10.3976 	 25.9029
| 28> H 	 -51.8227 	 9.1269 	 25.8477
| 29> C 	 -50.7839 	 11.9047 	 26.0117
| 30> H 	 -51.5975 	 11.9245 	 25.3149
| 31> H 	 -50.1369 	 12.7549 	 25.645
| 32> C 	 -51.4107 	 12.2192 	 27.4222
| 33> H 	 -51.7462 	 13.2084 	 27.2192
| 34> H 	 -50.748 	 12.2755 	 28.2825
| 35> C 	 -52.5567 	 11.2911 	 27.9239
| 36> H 	 -53.0036 	 10.8277 	 27.0239
| 37> H 	 -53.385 	 11.6722 	 28.5255
| 38> H 	 -52.0911 	 10.4895 	 28.5115
| 39> H 	 -44.6433 	 13.0007 	 26.7846
| 40> H 	 -50.3652 	 7.24831 	 26.1762
| 41> *
| 42>
| 43>                          ****END OF INPUT****

CARTESIAN COORDINATES (ANGSTROEM)
---------------------------------
  S    -46.415800   11.241900   27.195800
  C    -45.535600   12.561800   26.371800
  C    -46.095500   13.001900   25.217500
  C    -47.306000   12.275200   24.966400
  C    -47.581000   11.319300   25.930400
  H    -47.971100   12.573900   24.159900
  C    -45.701000   14.174700   24.304100
  H    -44.767600   14.652200   24.747700
  H    -46.463700   14.952100   24.456000
  C    -45.355000   13.880200   22.850300
  H    -46.119100   13.372400   22.321900
  H    -45.143600   14.848900   22.313800
  C    -44.009200   13.107300   22.673000
  H    -43.197000   13.624400   23.058700
  H    -44.171200   12.117200   23.019100
  H    -43.710100   12.855400   21.640700
  S    -48.248400    8.620180   26.184600
  C    -49.929300    8.200090   26.069000
  C    -50.749200    9.284580   25.920900
  C    -50.084100   10.571300   25.830600
  C    -48.732200   10.397600   25.902900
  H    -51.822700    9.126900   25.847700
  C    -50.783900   11.904700   26.011700
  H    -51.597500   11.924500   25.314900
  H    -50.136900   12.754900   25.645000
  C    -51.410700   12.219200   27.422200
  H    -51.746200   13.208400   27.219200
  H    -50.748000   12.275500   28.282500
  C    -52.556700   11.291100   27.923900
  H    -53.003600   10.827700   27.023900
  H    -53.385000   11.672200   28.525500
  H    -52.091100   10.489500   28.511500
  H    -44.643300   13.000700   26.784600
  H    -50.365200    7.248310   26.176200

 Total Charge           Charge          ....    0
 Multiplicity           Mult            ....    1
 Number of Electrons    NEL             ....  134
 Basis Dimension        Dim             ....  322

ORBITAL ENERGIES
----------------

  NO   OCC          E(Eh)            E(eV)
   0   2.0000     -88.969588     -2420.9856
   1   2.0000     -88.961595     -2420.7681
   2   2.0000     -10.330467      -281.1063
   3   2.0000     -10.328208      -281.0448
   4   2.0000     -10.312097      -280.6064
   5   2.0000     -10.310943      -280.5750
   6   2.0000     -10.303898      -280.3833
   7   2.0000     -10.303365      -280.3688
   8   2.0000     -10.301065      -280.3062
   9   2.0000     -10.299772      -280.2711
  10   2.0000     -10.291974      -280.0589
  11   2.0000     -10.291691      -280.0511
  12   2.0000     -10.291653      -280.0501
  13   2.0000     -10.288999      -279.9779
  14   2.0000     -10.280594      -279.7492
  15   2.0000     -10.269834      -279.4564
  16   2.0000      -8.084183      -219.9818
  17   2.0000      -8.075364      -219.7418
  18   2.0000      -6.042657      -164.4290
  19   2.0000      -6.038880      -164.3263
  20   2.0000      -6.034815      -164.2157
  21   2.0000      -6.033980      -164.1929
  22   2.0000      -6.030263      -164.0918
  23   2.0000      -6.025805      -163.9705
  24   2.0000      -1.002575       -27.2815
  25   2.0000      -0.977969       -26.6119
  26   2.0000      -0.910199       -24.7678
  27   2.0000      -0.902827       -24.5672
  28   2.0000      -0.866083       -23.5673
  29   2.0000      -0.851037       -23.1579
  30   2.0000      -0.839343       -22.8397
  31   2.0000      -0.808852       -22.0100
  32   2.0000      -0.787570       -21.4309
  33   2.0000      -0.778132       -21.1740
  34   2.0000      -0.710240       -19.3266
  35   2.0000      -0.701126       -19.0786
  36   2.0000      -0.692394       -18.8410
  37   2.0000      -0.658358       -17.9148
  38   2.0000      -0.635914       -17.3041
  39   2.0000      -0.622531       -16.9399
  40   2.0000      -0.593701       -16.1554
  41   2.0000      -0.564886       -15.3713
  42   2.0000      -0.551993       -15.0205
  43   2.0000      -0.548694       -14.9307
  44   2.0000      -0.545688       -14.8489
  45   2.0000      -0.534208       -14.5365
  46   2.0000      -0.517186       -14.0734
  47   2.0000      -0.506136       -13.7727
  48   2.0000      -0.495624       -13.4866
  49   2.0000      -0.490849       -13.3567
  50   2.0000      -0.484903       -13.1949
  51   2.0000      -0.478827       -13.0295
  52   2.0000      -0.474385       -12.9087
  53   2.0000      -0.464106       -12.6290
  54   2.0000      -0.457869       -12.4592
  55   2.0000      -0.449853       -12.2411
  56   2.0000      -0.443339       -12.0639
  57   2.0000      -0.439612       -11.9625
  58   2.0000      -0.435856       -11.8602
  59   2.0000      -0.424608       -11.5542
  60   2.0000      -0.420061       -11.4305
  61   2.0000      -0.412401       -11.2220
  62   2.0000      -0.409420       -11.1409
  63   2.0000      -0.345200        -9.3934
  64   2.0000      -0.335762        -9.1365
  65   2.0000      -0.328136        -8.9290
  66   2.0000      -0.292024        -7.9464
  67   0.0000       0.033391         0.9086
  68   0.0000       0.068255         1.8573
  69   0.0000       0.101992         2.7753
  70   0.0000       0.121453         3.3049
  71   0.0000       0.131384         3.5751

MULLIKEN ATOMIC CHARGES
-----------------------
   0 S :    0.120028
   1 C :   -0.132423
   2 C :   -0.061692
   3 C :    0.015325
   4 C :   -0.141057
   5 H :    0.016458
   6 C :    0.046499
   7 H :    0.019778
   8 H :    0.048478
   9 C :   -0.069770
  10 H :    0.027437
  11 H :    0.038500
  12 C :   -0.039354
  13 H :    0.021668
  14 H :    0.031792
  15 H :    0.024323
  16 S :    0.077045
  17 C :   -0.052121
  18 C :   -0.060971
  19 C :   -0.007259
  20 C :   -0.161315
  21 H :    0.018251
  22 C :    0.048284
  23 H :    0.016363
  24 H :    0.035334
  25 C :   -0.041136
  26 H :    0.024122
  27 H :    0.038192
  28 C :   -0.077804
  29 H :    0.019741
  30 H :    0.045114
  31 H :    0.043767
  32 H :    0.033119
  33 H :    0.035284
Sum of atomic charges:    0.0000000

LOEWDIN ATOMIC CHARGES
----------------------
   0 S :    0.403206
   1 C :   -0.182022
   2 C :   -0.064715
   3 C :   -0.063781
   4 C :   -0.201273
   5 H :    0.030240
   6 C :   -0.034016
   7 H :    0.035055
   8 H :    0.036836
   9 C :   -0.038582
  10 H :    0.016635
  11 H :    0.033013
  12 C :   -0.061167
  13 H :    0.014497
  14 H :    0.024064
  15 H :    0.030329
  16 S :    0.349545
  17 C :   -0.178693
  18 C :   -0.072014
  19 C :   -0.061054
  20 C :   -0.151421
  21 H :    0.029021
  22 C :   -0.028227
  23 H :    0.026780
  24 H :    0.040007
  25 C :   -0.031180
  26 H :    0.021757
  27 H :    0.026764
  28 C :   -0.073587
  29 H :    0.020796
  30 H :    0.029241
  31 H :    0.029633
  32 H :    0.021475
  33 H :    0.022836

  Mayer bond orders larger than 0.100000
B(  0-S ,  1-C ) :   1.1165 B(  0-S ,  4-C ) :   1.1543 B(  1-C ,  2-C ) :   1.6585
B(  1-C , 32-H ) :   0.9629 B(  2-C ,  3-C ) :   1.2204 B(  2-C ,  6-C ) :   1.0053
B(  3-C ,  4-C ) :   1.5883 B(  3-C ,  5-H ) :   0.9915 B(  4-C , 20-C ) :   1.0193
B(  6-C ,  7-H ) :   0.9415 B(  6-C ,  8-H ) :   0.9440 B(  6-C ,  9-C ) :   1.0660
B(  9-C , 10-H ) :   0.9611 B(  9-C , 11-H ) :   0.9562 B(  9-C , 12-C ) :   1.0744
B( 12-C , 13-H ) :   0.9772 B( 12-C , 14-H ) :   0.9763 B( 12-C , 15-H ) :   0.9729
B( 16-S , 17-C ) :   1.1253 B( 16-S , 20-C ) :   1.0998 B( 17-C , 18-C ) :   1.6796
B( 17-C , 33-H ) :   0.9667 B( 18-C , 19-C ) :   1.1767 B( 18-C , 21-H ) :   0.9811
B( 19-C , 20-C ) :   1.6684 B( 19-C , 22-C ) :   1.0548 B( 22-C , 23-H ) :   0.9238
B( 22-C , 24-H ) :   0.9347 B( 22-C , 25-C ) :   1.0645 B( 25-C , 26-H ) :   0.9557
B( 25-C , 27-H ) :   0.9646 B( 25-C , 28-C ) :   1.0609 B( 28-C , 29-H ) :   0.9757
B( 28-C , 30-H ) :   0.9746 B( 28-C , 31-H ) :   0.9761

Dispersion correction           -0.014326689
FINAL SINGLE POINT ENERGY     -1339.868825488295

DIPOLE MOMENT
-------------
                                X             Y             Z
Electronic contribution:      5.65726     -16.35910       8.76828
Nuclear contribution   :     -5.99088      16.92078      -8.95554
                        -----------------------------------------
Total Dipole Moment    :     -0.33362       0.56168      -0.18726
                        -----------------------------------------
Magnitude (a.u.)       :      0.67960
Magnitude (Debye)      :      1.72740

Rotational constants in cm-1:     0.022028     0.007513     0.006780
Rotational constants in MHz :   660.376255   225.227473   203.269140

                             ****ORCA TERMINATED NORMALLY****
TOTAL RUN TIME: 0 days 0 hours 0 minutes 21 seconds 330 msec
