                         Program Version 4.2.1 -  RELEASE  -
|  1> ! wB97X-D3 SP def2-SVP
|  2> %pal
|  3> nprocs 24
|  4> end
|  5>
|  6> * xyz 0 1
|  7> S 	 -119.371 	 20.4817 	 -111.428
|  8> C 	 -120.9 	 21.2812 	 -111.215
|  9> C 	 -121.974 	 20.4664 	 -111.014
| 10> C 	 -121.517 	 19.124 	 -110.866
| 11> C 	 -120.165 	 18.9599 	 -110.997
| 12> H 	 -122.156 	 18.2568 	 -110.813
| 13> C 	 -123.412 	 20.9902 	 -110.983
| 14> H 	 -123.64 	 21.1772 	 -112.02
| 15> H 	 -123.531 	 21.958 	 -110.54
| 16> C 	 -124.509 	 20.061 	 -110.4
| 17> H 	 -124.674 	 19.1219 	 -110.844
| 18> H 	 -124.12 	 19.7328 	 -109.435
| 19> C 	 -125.967 	 20.7253 	 -110.299
| 20> H 	 -125.93 	 21.7653 	 -109.971
| 21> H 	 -126.473 	 20.6349 	 -111.269
| 22> H 	 -126.534 	 20.0699 	 -109.571
| 23> S 	 -118.094 	 17.6416 	 -109.693
| 24> C 	 -117.501 	 16.0676 	 -110.195
| 25> C 	 -118.461 	 15.5509 	 -111.02
| 26> C 	 -119.475 	 16.46 	 -111.463
| 27> C 	 -119.372 	 17.7124 	 -110.909
| 28> H 	 -118.367 	 14.5126 	 -111.295
| 29> C 	 -120.622 	 15.9804 	 -112.327
| 30> H 	 -120.687 	 16.8653 	 -112.959
| 31> H 	 -121.471 	 16.0051 	 -111.638
| 32> C 	 -120.497 	 14.7522 	 -113.232
| 33> H 	 -120.461 	 13.9192 	 -112.594
| 34> H 	 -119.607 	 14.64 	 -113.804
| 35> C 	 -121.721 	 14.4453 	 -114.123
| 36> H 	 -122.505 	 14.6024 	 -113.411
| 37> H 	 -121.729 	 13.4383 	 -114.435
| 38> H 	 -121.696 	 15.0292 	 -115.025
| 39> H 	 -121.083 	 22.2049 	 -111.743
| 40> H 	 -116.853 	 15.348 	 -109.664
| 41> *
| 42>
| 43>                          ****END OF INPUT****

CARTESIAN COORDINATES (ANGSTROEM)
---------------------------------
  S    -119.371000   20.481700  -111.428000
  C    -120.900000   21.281200  -111.215000
  C    -121.974000   20.466400  -111.014000
  C    -121.517000   19.124000  -110.866000
  C    -120.165000   18.959900  -110.997000
  H    -122.156000   18.256800  -110.813000
  C    -123.412000   20.990200  -110.983000
  H    -123.640000   21.177200  -112.020000
  H    -123.531000   21.958000  -110.540000
  C    -124.509000   20.061000  -110.400000
  H    -124.674000   19.121900  -110.844000
  H    -124.120000   19.732800  -109.435000
  C    -125.967000   20.725300  -110.299000
  H    -125.930000   21.765300  -109.971000
  H    -126.473000   20.634900  -111.269000
  H    -126.534000   20.069900  -109.571000
  S    -118.094000   17.641600  -109.693000
  C    -117.501000   16.067600  -110.195000
  C    -118.461000   15.550900  -111.020000
  C    -119.475000   16.460000  -111.463000
  C    -119.372000   17.712400  -110.909000
  H    -118.367000   14.512600  -111.295000
  C    -120.622000   15.980400  -112.327000
  H    -120.687000   16.865300  -112.959000
  H    -121.471000   16.005100  -111.638000
  C    -120.497000   14.752200  -113.232000
  H    -120.461000   13.919200  -112.594000
  H    -119.607000   14.640000  -113.804000
  C    -121.721000   14.445300  -114.123000
  H    -122.505000   14.602400  -113.411000
  H    -121.729000   13.438300  -114.435000
  H    -121.696000   15.029200  -115.025000
  H    -121.083000   22.204900  -111.743000
  H    -116.853000   15.348000  -109.664000

 Total Charge           Charge          ....    0
 Multiplicity           Mult            ....    1
 Number of Electrons    NEL             ....  134
 Basis Dimension        Dim             ....  322

ORBITAL ENERGIES
----------------

  NO   OCC          E(Eh)            E(eV)
   0   2.0000     -88.967396     -2420.9259
   1   2.0000     -88.958676     -2420.6887
   2   2.0000     -10.333478      -281.1882
   3   2.0000     -10.326898      -281.0092
   4   2.0000     -10.314594      -280.6744
   5   2.0000     -10.306450      -280.4528
   6   2.0000     -10.304205      -280.3917
   7   2.0000     -10.301617      -280.3213
   8   2.0000     -10.297287      -280.2034
   9   2.0000     -10.296570      -280.1839
  10   2.0000     -10.292662      -280.0776
  11   2.0000     -10.292010      -280.0598
  12   2.0000     -10.290957      -280.0312
  13   2.0000     -10.287517      -279.9376
  14   2.0000     -10.281074      -279.7622
  15   2.0000     -10.273307      -279.5509
  16   2.0000      -8.082118      -219.9256
  17   2.0000      -8.073166      -219.6820
  18   2.0000      -6.040520      -164.3709
  19   2.0000      -6.036803      -164.2697
  20   2.0000      -6.032805      -164.1610
  21   2.0000      -6.031837      -164.1346
  22   2.0000      -6.027671      -164.0213
  23   2.0000      -6.023768      -163.9151
  24   2.0000      -1.007482       -27.4150
  25   2.0000      -0.987189       -26.8628
  26   2.0000      -0.911291       -24.7975
  27   2.0000      -0.907345       -24.6901
  28   2.0000      -0.870527       -23.6882
  29   2.0000      -0.853411       -23.2225
  30   2.0000      -0.845703       -23.0127
  31   2.0000      -0.820458       -22.3258
  32   2.0000      -0.782860       -21.3027
  33   2.0000      -0.773112       -21.0375
  34   2.0000      -0.717005       -19.5107
  35   2.0000      -0.708379       -19.2760
  36   2.0000      -0.691880       -18.8270
  37   2.0000      -0.651023       -17.7152
  38   2.0000      -0.644156       -17.5284
  39   2.0000      -0.623487       -16.9659
  40   2.0000      -0.591411       -16.0931
  41   2.0000      -0.575546       -15.6614
  42   2.0000      -0.572516       -15.5790
  43   2.0000      -0.562613       -15.3095
  44   2.0000      -0.533289       -14.5115
  45   2.0000      -0.524397       -14.2696
  46   2.0000      -0.520805       -14.1718
  47   2.0000      -0.509825       -13.8730
  48   2.0000      -0.503635       -13.7046
  49   2.0000      -0.499456       -13.5909
  50   2.0000      -0.490929       -13.3589
  51   2.0000      -0.483642       -13.1606
  52   2.0000      -0.471474       -12.8294
  53   2.0000      -0.464838       -12.6489
  54   2.0000      -0.459045       -12.4912
  55   2.0000      -0.452681       -12.3181
  56   2.0000      -0.445854       -12.1323
  57   2.0000      -0.444984       -12.1086
  58   2.0000      -0.435790       -11.8584
  59   2.0000      -0.426692       -11.6109
  60   2.0000      -0.418740       -11.3945
  61   2.0000      -0.413995       -11.2654
  62   2.0000      -0.406463       -11.0604
  63   2.0000      -0.346756        -9.4357
  64   2.0000      -0.334504        -9.1023
  65   2.0000      -0.321287        -8.7427
  66   2.0000      -0.297504        -8.0955
  67   0.0000       0.030698         0.8353
  68   0.0000       0.061131         1.6634
  69   0.0000       0.111971         3.0469
  70   0.0000       0.117534         3.1983
  71   0.0000       0.139663         3.8004

MULLIKEN ATOMIC CHARGES
-----------------------
   0 S :    0.122952
   1 C :   -0.108209
   2 C :   -0.101455
   3 C :    0.032519
   4 C :   -0.163060
   5 H :    0.003461
   6 C :    0.090757
   7 H :    0.029220
   8 H :    0.028690
   9 C :   -0.093432
  10 H :    0.019119
  11 H :    0.026257
  12 C :   -0.074985
  13 H :    0.043323
  14 H :    0.045170
  15 H :    0.047000
  16 S :    0.086820
  17 C :   -0.076548
  18 C :   -0.075406
  19 C :   -0.037805
  20 C :   -0.159913
  21 H :    0.016685
  22 C :    0.051704
  23 H :    0.033032
  24 H :    0.047103
  25 C :   -0.061081
  26 H :    0.009073
  27 H :    0.021715
  28 C :   -0.006515
  29 H :    0.023761
  30 H :    0.019661
  31 H :    0.037374
  32 H :    0.051424
  33 H :    0.071589
Sum of atomic charges:    0.0000000

LOEWDIN ATOMIC CHARGES
----------------------
   0 S :    0.410119
   1 C :   -0.203608
   2 C :   -0.056760
   3 C :   -0.058868
   4 C :   -0.186815
   5 H :    0.028803
   6 C :   -0.029813
   7 H :    0.033150
   8 H :    0.032246
   9 C :   -0.042239
  10 H :    0.015702
  11 H :    0.022547
  12 C :   -0.064432
  13 H :    0.023719
  14 H :    0.027245
  15 H :    0.036481
  16 S :    0.394770
  17 C :   -0.196406
  18 C :   -0.077908
  19 C :   -0.059911
  20 C :   -0.198607
  21 H :    0.027127
  22 C :   -0.037090
  23 H :    0.037125
  24 H :    0.034464
  25 C :   -0.039262
  26 H :    0.016080
  27 H :    0.021040
  28 C :   -0.048921
  29 H :    0.025077
  30 H :    0.021469
  31 H :    0.023963
  32 H :    0.026082
  33 H :    0.043432

  Mayer bond orders larger than 0.100000
B(  0-S ,  1-C ) :   1.1427 B(  0-S ,  4-C ) :   1.1589 B(  1-C ,  2-C ) :   1.6491
B(  1-C , 32-H ) :   0.9550 B(  2-C ,  3-C ) :   1.2488 B(  2-C ,  6-C ) :   1.0039
B(  3-C ,  4-C ) :   1.5836 B(  3-C ,  5-H ) :   0.9951 B(  4-C , 20-C ) :   1.0122
B(  6-C ,  7-H ) :   0.9279 B(  6-C ,  8-H ) :   0.9465 B(  6-C ,  9-C ) :   1.0653
B(  9-C , 10-H ) :   0.9515 B(  9-C , 11-H ) :   0.9625 B(  9-C , 12-C ) :   1.0717
B( 12-C , 13-H ) :   0.9790 B( 12-C , 14-H ) :   0.9786 B( 12-C , 15-H ) :   0.9757
B( 16-S , 17-C ) :   1.1460 B( 16-S , 20-C ) :   1.1429 B( 17-C , 18-C ) :   1.6148
B( 17-C , 33-H ) :   0.9555 B( 18-C , 19-C ) :   1.2467 B( 18-C , 21-H ) :   0.9846
B( 19-C , 20-C ) :   1.6044 B( 19-C , 22-C ) :   1.0165 B( 22-C , 23-H ) :   0.9309
B( 22-C , 24-H ) :   0.9304 B( 22-C , 25-C ) :   1.0722 B( 25-C , 26-H ) :   0.9432
B( 25-C , 27-H ) :   0.9577 B( 25-C , 28-C ) :   1.0852 B( 28-C , 29-H ) :   0.9763
B( 28-C , 30-H ) :   0.9729 B( 28-C , 31-H ) :   0.9781

Dispersion correction           -0.013282792
FINAL SINGLE POINT ENERGY     -1339.848866728986

DIPOLE MOMENT
-------------
                                X             Y             Z
Electronic contribution:     27.85037       8.76529       8.83917
Nuclear contribution   :    -28.68286      -9.20877      -9.19126
                        -----------------------------------------
Total Dipole Moment    :     -0.83249      -0.44348      -0.35209
                        -----------------------------------------
Magnitude (a.u.)       :      1.00681
Magnitude (Debye)      :      2.55912

Rotational constants in cm-1:     0.016054     0.008125     0.006140
Rotational constants in MHz :   481.287144   243.570847   184.061988

                             ****ORCA TERMINATED NORMALLY****
TOTAL RUN TIME: 0 days 0 hours 0 minutes 20 seconds 842 msec
