                         Program Version 4.2.1 -  RELEASE  -
|  1> ! wB97X-D3 SP def2-SVP
|  2> %pal
|  3> nprocs 24
|  4> end
|  5>
|  6> * xyz 0 1
|  7> S 	 -90.4823 	 -0.784773 	 -0.0232969
|  8> C 	 -90.3189 	 -2.1095 	 1.18947
|  9> C 	 -91.1874 	 -1.91077 	 2.23959
| 10> C 	 -91.927 	 -0.707604 	 2.07454
| 11> C 	 -91.6991 	 -0.0582126 	 0.882962
| 12> H 	 -92.5745 	 -0.227076 	 2.74612
| 13> C 	 -91.3295 	 -2.65119 	 3.51746
| 14> H 	 -91.5213 	 -3.65924 	 3.07353
| 15> H 	 -92.2484 	 -2.31289 	 3.98866
| 16> C 	 -90.1118 	 -2.55285 	 4.46078
| 17> H 	 -89.3414 	 -3.15776 	 3.97962
| 18> H 	 -89.5421 	 -1.63372 	 4.40326
| 19> C 	 -90.1387 	 -2.9955 	 5.98337
| 20> H 	 -90.8095 	 -2.54489 	 6.63551
| 21> H 	 -90.1606 	 -4.06343 	 6.0765
| 22> H 	 -89.2081 	 -2.83768 	 6.42661
| 23> S 	 -94.1176 	 1.32183 	 0.263325
| 24> C 	 -94.1009 	 3.00998 	 -0.0145776
| 25> C 	 -92.8422 	 3.5039 	 0.264037
| 26> C 	 -91.832 	 2.53139 	 0.524504
| 27> C 	 -92.3777 	 1.24457 	 0.562215
| 28> H 	 -92.7196 	 4.57392 	 0.427055
| 29> C 	 -90.4481 	 2.92648 	 1.03547
| 30> H 	 -89.9781 	 2.13771 	 1.67525
| 31> H 	 -90.4763 	 3.79865 	 1.66255
| 32> C 	 -89.3751 	 3.165 	 -0.00460013
| 33> H 	 -89.2234 	 2.15392 	 -0.599612
| 34> H 	 -88.35 	 3.27082 	 0.398547
| 35> C 	 -89.7449 	 4.11568 	 -1.17156
| 36> H 	 -90.5558 	 3.64001 	 -1.74062
| 37> H 	 -88.8706 	 4.32241 	 -1.78997
| 38> H 	 -90.1131 	 5.07869 	 -0.910854
| 39> H 	 -89.464 	 -2.77694 	 1.068
| 40> H 	 -95.0658 	 3.56026 	 -0.0502221
| 41> *
| 42>
| 43>                          ****END OF INPUT****

CARTESIAN COORDINATES (ANGSTROEM)
---------------------------------
  S    -90.482300   -0.784773   -0.023297
  C    -90.318900   -2.109500    1.189470
  C    -91.187400   -1.910770    2.239590
  C    -91.927000   -0.707604    2.074540
  C    -91.699100   -0.058213    0.882962
  H    -92.574500   -0.227076    2.746120
  C    -91.329500   -2.651190    3.517460
  H    -91.521300   -3.659240    3.073530
  H    -92.248400   -2.312890    3.988660
  C    -90.111800   -2.552850    4.460780
  H    -89.341400   -3.157760    3.979620
  H    -89.542100   -1.633720    4.403260
  C    -90.138700   -2.995500    5.983370
  H    -90.809500   -2.544890    6.635510
  H    -90.160600   -4.063430    6.076500
  H    -89.208100   -2.837680    6.426610
  S    -94.117600    1.321830    0.263325
  C    -94.100900    3.009980   -0.014578
  C    -92.842200    3.503900    0.264037
  C    -91.832000    2.531390    0.524504
  C    -92.377700    1.244570    0.562215
  H    -92.719600    4.573920    0.427055
  C    -90.448100    2.926480    1.035470
  H    -89.978100    2.137710    1.675250
  H    -90.476300    3.798650    1.662550
  C    -89.375100    3.165000   -0.004600
  H    -89.223400    2.153920   -0.599612
  H    -88.350000    3.270820    0.398547
  C    -89.744900    4.115680   -1.171560
  H    -90.555800    3.640010   -1.740620
  H    -88.870600    4.322410   -1.789970
  H    -90.113100    5.078690   -0.910854
  H    -89.464000   -2.776940    1.068000
  H    -95.065800    3.560260   -0.050222

 Total Charge           Charge          ....    0
 Multiplicity           Mult            ....    1
 Number of Electrons    NEL             ....  134
 Basis Dimension        Dim             ....  322

ORBITAL ENERGIES
----------------

  NO   OCC          E(Eh)            E(eV)
   0   2.0000     -88.967199     -2420.9206
   1   2.0000     -88.965584     -2420.8766
   2   2.0000     -10.332134      -281.1516
   3   2.0000     -10.325019      -280.9580
   4   2.0000     -10.318908      -280.7918
   5   2.0000     -10.318236      -280.7735
   6   2.0000     -10.306071      -280.4424
   7   2.0000     -10.302782      -280.3529
   8   2.0000     -10.296298      -280.1765
   9   2.0000     -10.294671      -280.1322
  10   2.0000     -10.292892      -280.0838
  11   2.0000     -10.292012      -280.0599
  12   2.0000     -10.290391      -280.0158
  13   2.0000     -10.284708      -279.8611
  14   2.0000     -10.272553      -279.5304
  15   2.0000     -10.270124      -279.4643
  16   2.0000      -8.082170      -219.9270
  17   2.0000      -8.080744      -219.8882
  18   2.0000      -6.040511      -164.3707
  19   2.0000      -6.039153      -164.3337
  20   2.0000      -6.036608      -164.2645
  21   2.0000      -6.035097      -164.2233
  22   2.0000      -6.033120      -164.1695
  23   2.0000      -6.031679      -164.1303
  24   2.0000      -1.008565       -27.4444
  25   2.0000      -0.989009       -26.9123
  26   2.0000      -0.912794       -24.8384
  27   2.0000      -0.905454       -24.6387
  28   2.0000      -0.863935       -23.5089
  29   2.0000      -0.851559       -23.1721
  30   2.0000      -0.843372       -22.9493
  31   2.0000      -0.812007       -22.0958
  32   2.0000      -0.790499       -21.5106
  33   2.0000      -0.779553       -21.2127
  34   2.0000      -0.718558       -19.5530
  35   2.0000      -0.698615       -19.0103
  36   2.0000      -0.681883       -18.5550
  37   2.0000      -0.659928       -17.9575
  38   2.0000      -0.646946       -17.6043
  39   2.0000      -0.611041       -16.6273
  40   2.0000      -0.595681       -16.2093
  41   2.0000      -0.569400       -15.4942
  42   2.0000      -0.553968       -15.0742
  43   2.0000      -0.548845       -14.9348
  44   2.0000      -0.541213       -14.7272
  45   2.0000      -0.525156       -14.2902
  46   2.0000      -0.521909       -14.2019
  47   2.0000      -0.510292       -13.8857
  48   2.0000      -0.505082       -13.7440
  49   2.0000      -0.496788       -13.5183
  50   2.0000      -0.486955       -13.2507
  51   2.0000      -0.485196       -13.2029
  52   2.0000      -0.474913       -12.9230
  53   2.0000      -0.472252       -12.8506
  54   2.0000      -0.458555       -12.4779
  55   2.0000      -0.450709       -12.2644
  56   2.0000      -0.442005       -12.0276
  57   2.0000      -0.440831       -11.9956
  58   2.0000      -0.429002       -11.6738
  59   2.0000      -0.426293       -11.6000
  60   2.0000      -0.420466       -11.4415
  61   2.0000      -0.406036       -11.0488
  62   2.0000      -0.394931       -10.7466
  63   2.0000      -0.335347        -9.1252
  64   2.0000      -0.333687        -9.0801
  65   2.0000      -0.328989        -8.9522
  66   2.0000      -0.304866        -8.2958
  67   0.0000       0.036317         0.9882
  68   0.0000       0.065169         1.7733
  69   0.0000       0.104770         2.8509
  70   0.0000       0.116378         3.1668
  71   0.0000       0.131663         3.5827

MULLIKEN ATOMIC CHARGES
-----------------------
   0 S :    0.114114
   1 C :   -0.174192
   2 C :   -0.053565
   3 C :    0.018965
   4 C :   -0.142327
   5 H :   -0.006308
   6 C :    0.104119
   7 H :    0.046954
   8 H :    0.021837
   9 C :   -0.080666
  10 H :    0.011890
  11 H :    0.028216
  12 C :    0.009347
  13 H :    0.026146
  14 H :    0.019299
  15 H :    0.004927
  16 S :    0.112893
  17 C :   -0.112191
  18 C :   -0.045817
  19 C :   -0.003514
  20 C :   -0.192976
  21 H :    0.026976
  22 C :    0.077630
  23 H :    0.039178
  24 H :    0.026473
  25 C :   -0.128223
  26 H :    0.025122
  27 H :    0.034652
  28 C :   -0.042898
  29 H :    0.047628
  30 H :    0.034497
  31 H :    0.011389
  32 H :    0.059444
  33 H :    0.080978
Sum of atomic charges:    0.0000000

LOEWDIN ATOMIC CHARGES
----------------------
   0 S :    0.422249
   1 C :   -0.189300
   2 C :   -0.056587
   3 C :   -0.063590
   4 C :   -0.213754
   5 H :    0.022935
   6 C :   -0.032025
   7 H :    0.044765
   8 H :    0.028763
   9 C :   -0.045064
  10 H :    0.027272
  11 H :    0.026834
  12 C :   -0.058357
  13 H :    0.016592
  14 H :    0.025557
  15 H :    0.024218
  16 S :    0.420625
  17 C :   -0.208157
  18 C :   -0.073926
  19 C :   -0.059206
  20 C :   -0.190581
  21 H :    0.031832
  22 C :   -0.034832
  23 H :    0.040531
  24 H :    0.027828
  25 C :   -0.053212
  26 H :    0.027305
  27 H :    0.024128
  28 C :   -0.071543
  29 H :    0.031247
  30 H :    0.028402
  31 H :    0.011517
  32 H :    0.027597
  33 H :    0.039939

  Mayer bond orders larger than 0.100000
B(  0-S ,  1-C ) :   1.1346 B(  0-S ,  4-C ) :   1.1787 B(  1-C ,  2-C ) :   1.5805
B(  1-C , 32-H ) :   0.9771 B(  2-C ,  3-C ) :   1.2445 B(  2-C ,  6-C ) :   1.0058
B(  3-C ,  4-C ) :   1.5726 B(  3-C ,  5-H ) :   1.0017 B(  4-C , 20-C ) :   0.9897
B(  6-C ,  7-H ) :   0.9360 B(  6-C ,  8-H ) :   0.9430 B(  6-C ,  9-C ) :   1.0428
B(  9-C , 10-H ) :   0.9475 B(  9-C , 11-H ) :   0.9643 B(  9-C , 12-C ) :   1.0839
B( 12-C , 13-H ) :   0.9794 B( 12-C , 14-H ) :   0.9743 B( 12-C , 15-H ) :   0.9658
B( 16-S , 17-C ) :   1.1724 B( 16-S , 20-C ) :   1.1680 B( 17-C , 18-C ) :   1.5816
B( 17-C , 20-C ) :   0.1009 B( 17-C , 33-H ) :   0.9617 B( 18-C , 19-C ) :   1.2611
B( 18-C , 21-H ) :   0.9849 B( 19-C , 20-C ) :   1.5775 B( 19-C , 22-C ) :   1.0268
B( 22-C , 23-H ) :   0.9350 B( 22-C , 24-H ) :   0.9453 B( 22-C , 25-C ) :   1.0724
B( 25-C , 26-H ) :   0.9510 B( 25-C , 27-H ) :   0.9603 B( 25-C , 28-C ) :   1.0679
B( 28-C , 29-H ) :   0.9704 B( 28-C , 30-H ) :   0.9739 B( 28-C , 31-H ) :   0.9772

Dispersion correction           -0.014587150
FINAL SINGLE POINT ENERGY     -1339.858583156189

DIPOLE MOMENT
-------------
                                X             Y             Z
Electronic contribution:    -14.92729      -0.77666     -14.01815
Nuclear contribution   :     15.21803       0.87902      14.70104
                        -----------------------------------------
Total Dipole Moment    :      0.29073       0.10235       0.68288
                        -----------------------------------------
Magnitude (a.u.)       :      0.74922
Magnitude (Debye)      :      1.90437

Rotational constants in cm-1:     0.020977     0.007439     0.006636
Rotational constants in MHz :   628.885866   223.003388   198.950129

                             ****ORCA TERMINATED NORMALLY****
TOTAL RUN TIME: 0 days 0 hours 0 minutes 21 seconds 300 msec
