                         Program Version 4.2.1 -  RELEASE  -
|  1> ! wB97X-D3 SP def2-SVP
|  2> %pal
|  3> nprocs 24
|  4> end
|  5>
|  6> * xyz 0 1
|  7> S 	 19.1828 	 -21.2984 	 -120.034
|  8> C 	 20.6551 	 -22.0946 	 -120.536
|  9> C 	 21.2806 	 -22.8057 	 -119.512
| 10> C 	 20.5309 	 -22.6229 	 -118.287
| 11> C 	 19.4632 	 -21.7754 	 -118.408
| 12> H 	 20.8274 	 -22.9817 	 -117.299
| 13> C 	 22.5572 	 -23.5854 	 -119.602
| 14> H 	 22.4448 	 -24.4182 	 -120.317
| 15> H 	 22.6651 	 -24.1786 	 -118.656
| 16> C 	 23.8002 	 -22.7288 	 -119.849
| 17> H 	 23.6214 	 -22.1382 	 -120.785
| 18> H 	 23.9157 	 -22.0602 	 -119.033
| 19> C 	 25.0816 	 -23.5366 	 -119.948
| 20> H 	 25.0683 	 -24.194 	 -120.82
| 21> H 	 25.9894 	 -22.904 	 -120.072
| 22> H 	 25.3552 	 -24.033 	 -119.018
| 23> S 	 17.2523 	 -21.9671 	 -116.7
| 24> C 	 17.3652 	 -21.1298 	 -115.174
| 25> C 	 18.439 	 -20.3091 	 -115.126
| 26> C 	 19.2366 	 -20.3731 	 -116.281
| 27> C 	 18.7777 	 -21.2617 	 -117.204
| 28> H 	 18.5924 	 -19.6235 	 -114.287
| 29> C 	 20.4852 	 -19.4456 	 -116.381
| 30> H 	 21.0804 	 -19.7349 	 -117.228
| 31> H 	 21.1082 	 -19.7721 	 -115.533
| 32> C 	 20.2051 	 -17.9866 	 -116.497
| 33> H 	 20.0225 	 -17.5926 	 -115.512
| 34> H 	 19.2573 	 -17.7555 	 -117.006
| 35> C 	 21.2385 	 -17.1305 	 -117.199
| 36> H 	 20.9128 	 -16.081 	 -117.02
| 37> H 	 21.144 	 -17.2339 	 -118.287
| 38> H 	 22.2728 	 -17.3717 	 -116.985
| 39> H 	 21.0798 	 -22.1314 	 -121.501
| 40> H 	 16.603 	 -21.2013 	 -114.434
| 41> *
| 42>
| 43>                          ****END OF INPUT****

CARTESIAN COORDINATES (ANGSTROEM)
---------------------------------
  S     19.182800  -21.298400  -120.034000
  C     20.655100  -22.094600  -120.536000
  C     21.280600  -22.805700  -119.512000
  C     20.530900  -22.622900  -118.287000
  C     19.463200  -21.775400  -118.408000
  H     20.827400  -22.981700  -117.299000
  C     22.557200  -23.585400  -119.602000
  H     22.444800  -24.418200  -120.317000
  H     22.665100  -24.178600  -118.656000
  C     23.800200  -22.728800  -119.849000
  H     23.621400  -22.138200  -120.785000
  H     23.915700  -22.060200  -119.033000
  C     25.081600  -23.536600  -119.948000
  H     25.068300  -24.194000  -120.820000
  H     25.989400  -22.904000  -120.072000
  H     25.355200  -24.033000  -119.018000
  S     17.252300  -21.967100  -116.700000
  C     17.365200  -21.129800  -115.174000
  C     18.439000  -20.309100  -115.126000
  C     19.236600  -20.373100  -116.281000
  C     18.777700  -21.261700  -117.204000
  H     18.592400  -19.623500  -114.287000
  C     20.485200  -19.445600  -116.381000
  H     21.080400  -19.734900  -117.228000
  H     21.108200  -19.772100  -115.533000
  C     20.205100  -17.986600  -116.497000
  H     20.022500  -17.592600  -115.512000
  H     19.257300  -17.755500  -117.006000
  C     21.238500  -17.130500  -117.199000
  H     20.912800  -16.081000  -117.020000
  H     21.144000  -17.233900  -118.287000
  H     22.272800  -17.371700  -116.985000
  H     21.079800  -22.131400  -121.501000
  H     16.603000  -21.201300  -114.434000

 Total Charge           Charge          ....    0
 Multiplicity           Mult            ....    1
 Number of Electrons    NEL             ....  134
 Basis Dimension        Dim             ....  322

ORBITAL ENERGIES
----------------

  NO   OCC          E(Eh)            E(eV)
   0   2.0000     -88.969055     -2420.9711
   1   2.0000     -88.960641     -2420.7421
   2   2.0000     -10.321615      -280.8654
   3   2.0000     -10.321156      -280.8529
   4   2.0000     -10.311500      -280.5902
   5   2.0000     -10.310233      -280.5557
   6   2.0000     -10.300460      -280.2898
   7   2.0000     -10.296987      -280.1953
   8   2.0000     -10.295156      -280.1454
   9   2.0000     -10.290981      -280.0318
  10   2.0000     -10.288817      -279.9729
  11   2.0000     -10.287134      -279.9271
  12   2.0000     -10.287085      -279.9258
  13   2.0000     -10.280956      -279.7590
  14   2.0000     -10.279392      -279.7165
  15   2.0000     -10.277818      -279.6736
  16   2.0000      -8.083996      -219.9767
  17   2.0000      -8.075915      -219.7568
  18   2.0000      -6.042471      -164.4240
  19   2.0000      -6.038493      -164.3157
  20   2.0000      -6.034786      -164.2149
  21   2.0000      -6.034307      -164.2018
  22   2.0000      -6.030463      -164.0972
  23   2.0000      -6.026656      -163.9936
  24   2.0000      -1.008344       -27.4384
  25   2.0000      -0.987388       -26.8682
  26   2.0000      -0.914318       -24.8798
  27   2.0000      -0.910361       -24.7722
  28   2.0000      -0.868004       -23.6196
  29   2.0000      -0.851953       -23.1828
  30   2.0000      -0.849698       -23.1215
  31   2.0000      -0.812873       -22.1194
  32   2.0000      -0.783066       -21.3083
  33   2.0000      -0.773678       -21.0528
  34   2.0000      -0.705025       -19.1847
  35   2.0000      -0.699031       -19.0216
  36   2.0000      -0.694758       -18.9053
  37   2.0000      -0.658127       -17.9085
  38   2.0000      -0.641464       -17.4551
  39   2.0000      -0.614366       -16.7177
  40   2.0000      -0.600081       -16.3290
  41   2.0000      -0.572131       -15.5685
  42   2.0000      -0.565297       -15.3825
  43   2.0000      -0.559107       -15.2141
  44   2.0000      -0.536161       -14.5897
  45   2.0000      -0.521549       -14.1921
  46   2.0000      -0.518679       -14.1140
  47   2.0000      -0.509933       -13.8760
  48   2.0000      -0.500691       -13.6245
  49   2.0000      -0.498143       -13.5552
  50   2.0000      -0.494937       -13.4679
  51   2.0000      -0.474870       -12.9219
  52   2.0000      -0.471459       -12.8290
  53   2.0000      -0.461381       -12.5548
  54   2.0000      -0.460534       -12.5318
  55   2.0000      -0.450890       -12.2693
  56   2.0000      -0.447155       -12.1677
  57   2.0000      -0.438908       -11.9433
  58   2.0000      -0.432424       -11.7668
  59   2.0000      -0.431581       -11.7439
  60   2.0000      -0.420937       -11.4543
  61   2.0000      -0.415725       -11.3125
  62   2.0000      -0.400596       -10.9008
  63   2.0000      -0.336863        -9.1665
  64   2.0000      -0.330518        -8.9938
  65   2.0000      -0.322407        -8.7731
  66   2.0000      -0.309178        -8.4132
  67   0.0000       0.049652         1.3511
  68   0.0000       0.059594         1.6216
  69   0.0000       0.119897         3.2626
  70   0.0000       0.124094         3.3768
  71   0.0000       0.134231         3.6526

MULLIKEN ATOMIC CHARGES
-----------------------
   0 S :    0.133199
   1 C :   -0.105535
   2 C :   -0.090162
   3 C :    0.041061
   4 C :   -0.168881
   5 H :    0.015233
   6 C :    0.046785
   7 H :    0.033064
   8 H :    0.018716
   9 C :   -0.057593
  10 H :    0.035073
  11 H :    0.023253
  12 C :   -0.049394
  13 H :    0.034540
  14 H :    0.030183
  15 H :    0.030373
  16 S :    0.101458
  17 C :   -0.083813
  18 C :   -0.030645
  19 C :   -0.039275
  20 C :   -0.194126
  21 H :    0.022709
  22 C :    0.112095
  23 H :    0.009628
  24 H :    0.031727
  25 C :   -0.065731
  26 H :    0.015858
  27 H :    0.032452
  28 C :   -0.058473
  29 H :    0.037834
  30 H :    0.033520
  31 H :    0.035683
  32 H :    0.024556
  33 H :    0.044628
Sum of atomic charges:   -0.0000000

LOEWDIN ATOMIC CHARGES
----------------------
   0 S :    0.423745
   1 C :   -0.194896
   2 C :   -0.060710
   3 C :   -0.055824
   4 C :   -0.214870
   5 H :    0.032643
   6 C :   -0.041073
   7 H :    0.032708
   8 H :    0.033550
   9 C :   -0.037450
  10 H :    0.028784
  11 H :    0.021978
  12 C :   -0.070663
  13 H :    0.024876
  14 H :    0.030682
  15 H :    0.025739
  16 S :    0.398609
  17 C :   -0.173354
  18 C :   -0.076829
  19 C :   -0.053465
  20 C :   -0.201011
  21 H :    0.035339
  22 C :   -0.029354
  23 H :    0.025332
  24 H :    0.035129
  25 C :   -0.048831
  26 H :    0.018084
  27 H :    0.032577
  28 C :   -0.065633
  29 H :    0.034768
  30 H :    0.026868
  31 H :    0.022185
  32 H :    0.018150
  33 H :    0.022218

  Mayer bond orders larger than 0.100000
B(  0-S ,  1-C ) :   1.1426 B(  0-S ,  4-C ) :   1.1531 B(  1-C ,  2-C ) :   1.6143
B(  1-C , 32-H ) :   0.9704 B(  2-C ,  3-C ) :   1.2411 B(  2-C ,  6-C ) :   1.0248
B(  3-C ,  4-C ) :   1.5968 B(  3-C ,  5-H ) :   0.9919 B(  4-C , 20-C ) :   0.9846
B(  6-C ,  7-H ) :   0.9357 B(  6-C ,  8-H ) :   0.9392 B(  6-C ,  9-C ) :   1.0594
B(  9-C , 10-H ) :   0.9564 B(  9-C , 11-H ) :   0.9530 B(  9-C , 12-C ) :   1.0915
B( 12-C , 13-H ) :   0.9749 B( 12-C , 14-H ) :   0.9717 B( 12-C , 15-H ) :   0.9720
B( 16-S , 17-C ) :   1.1591 B( 16-S , 20-C ) :   1.1379 B( 17-C , 18-C ) :   1.6136
B( 17-C , 33-H ) :   0.9713 B( 18-C , 19-C ) :   1.2364 B( 18-C , 21-H ) :   0.9920
B( 19-C , 20-C ) :   1.6482 B( 19-C , 22-C ) :   1.0266 B( 22-C , 23-H ) :   0.9356
B( 22-C , 24-H ) :   0.9301 B( 22-C , 25-C ) :   1.0541 B( 25-C , 26-H ) :   0.9502
B( 25-C , 27-H ) :   0.9547 B( 25-C , 28-C ) :   1.0969 B( 28-C , 29-H ) :   0.9726
B( 28-C , 30-H ) :   0.9733 B( 28-C , 31-H ) :   0.9759

Dispersion correction           -0.014125854
FINAL SINGLE POINT ENERGY     -1339.889111047541

DIPOLE MOMENT
-------------
                                X             Y             Z
Electronic contribution:    -27.60617      -7.10922       0.05309
Nuclear contribution   :     28.24510       7.27003       0.17173
                        -----------------------------------------
Total Dipole Moment    :      0.63894       0.16081       0.22482
                        -----------------------------------------
Magnitude (a.u.)       :      0.69617
Magnitude (Debye)      :      1.76951

Rotational constants in cm-1:     0.017770     0.008181     0.006864
Rotational constants in MHz :   532.730654   245.275188   205.771542

                             ****ORCA TERMINATED NORMALLY****
TOTAL RUN TIME: 0 days 0 hours 0 minutes 21 seconds 443 msec
