                         Program Version 4.2.1 -  RELEASE  -
|  1> ! wB97X-D3 SP def2-SVP
|  2> %pal
|  3> nprocs 24
|  4> end
|  5>
|  6> * xyz 0 1
|  7> S 	 -44.2375 	 -2.82621 	 -21.9577
|  8> C 	 -44.2988 	 -1.73413 	 -20.6267
|  9> C 	 -43.1996 	 -1.8648 	 -19.8081
| 10> C 	 -42.3151 	 -2.83562 	 -20.3739
| 11> C 	 -42.7389 	 -3.46543 	 -21.5359
| 12> H 	 -41.3581 	 -3.04973 	 -20.0562
| 13> C 	 -42.9914 	 -1.17957 	 -18.4668
| 14> H 	 -43.8361 	 -1.47046 	 -17.7844
| 15> H 	 -43.1123 	 -0.0879704 	 -18.6289
| 16> C 	 -41.7435 	 -1.60293 	 -17.6316
| 17> H 	 -41.7686 	 -1.15006 	 -16.647
| 18> H 	 -41.7675 	 -2.69193 	 -17.4683
| 19> C 	 -40.3509 	 -1.24023 	 -18.1538
| 20> H 	 -40.3898 	 -0.20551 	 -18.4436
| 21> H 	 -39.6299 	 -1.43956 	 -17.4151
| 22> H 	 -40.0354 	 -1.80521 	 -19.0108
| 23> S 	 -43.0925 	 -5.94915 	 -22.3506
| 24> C 	 -41.6392 	 -6.95314 	 -22.6329
| 25> C 	 -40.5115 	 -6.19062 	 -22.8982
| 26> C 	 -40.7264 	 -4.83558 	 -22.5077
| 27> C 	 -42.0544 	 -4.56374 	 -22.1786
| 28> H 	 -39.5941 	 -6.72276 	 -23.1247
| 29> C 	 -39.6076 	 -3.82313 	 -22.5656
| 30> H 	 -38.613 	 -4.30801 	 -22.387
| 31> H 	 -39.7763 	 -2.99345 	 -21.8647
| 32> C 	 -39.5844 	 -3.00667 	 -23.8134
| 33> H 	 -39.4744 	 -3.56211 	 -24.7023
| 34> H 	 -38.7869 	 -2.2986 	 -23.6893
| 35> C 	 -40.7661 	 -2.11148 	 -23.9776
| 36> H 	 -41.5865 	 -2.78722 	 -24.2451
| 37> H 	 -40.7175 	 -1.32653 	 -24.7158
| 38> H 	 -40.926 	 -1.60748 	 -23.0321
| 39> H 	 -45.1319 	 -1.07437 	 -20.4962
| 40> H 	 -41.653 	 -8.01616 	 -22.8068
| 41> *
| 42>
| 43>                          ****END OF INPUT****

CARTESIAN COORDINATES (ANGSTROEM)
---------------------------------
  S    -44.237500   -2.826210  -21.957700
  C    -44.298800   -1.734130  -20.626700
  C    -43.199600   -1.864800  -19.808100
  C    -42.315100   -2.835620  -20.373900
  C    -42.738900   -3.465430  -21.535900
  H    -41.358100   -3.049730  -20.056200
  C    -42.991400   -1.179570  -18.466800
  H    -43.836100   -1.470460  -17.784400
  H    -43.112300   -0.087970  -18.628900
  C    -41.743500   -1.602930  -17.631600
  H    -41.768600   -1.150060  -16.647000
  H    -41.767500   -2.691930  -17.468300
  C    -40.350900   -1.240230  -18.153800
  H    -40.389800   -0.205510  -18.443600
  H    -39.629900   -1.439560  -17.415100
  H    -40.035400   -1.805210  -19.010800
  S    -43.092500   -5.949150  -22.350600
  C    -41.639200   -6.953140  -22.632900
  C    -40.511500   -6.190620  -22.898200
  C    -40.726400   -4.835580  -22.507700
  C    -42.054400   -4.563740  -22.178600
  H    -39.594100   -6.722760  -23.124700
  C    -39.607600   -3.823130  -22.565600
  H    -38.613000   -4.308010  -22.387000
  H    -39.776300   -2.993450  -21.864700
  C    -39.584400   -3.006670  -23.813400
  H    -39.474400   -3.562110  -24.702300
  H    -38.786900   -2.298600  -23.689300
  C    -40.766100   -2.111480  -23.977600
  H    -41.586500   -2.787220  -24.245100
  H    -40.717500   -1.326530  -24.715800
  H    -40.926000   -1.607480  -23.032100
  H    -45.131900   -1.074370  -20.496200
  H    -41.653000   -8.016160  -22.806800

 Total Charge           Charge          ....    0
 Multiplicity           Mult            ....    1
 Number of Electrons    NEL             ....  134
 Basis Dimension        Dim             ....  322

ORBITAL ENERGIES
----------------

  NO   OCC          E(Eh)            E(eV)
   0   2.0000     -88.965916     -2420.8857
   1   2.0000     -88.964265     -2420.8407
   2   2.0000     -10.326716      -281.0042
   3   2.0000     -10.321218      -280.8546
   4   2.0000     -10.319191      -280.7995
   5   2.0000     -10.307769      -280.4887
   6   2.0000     -10.306337      -280.4497
   7   2.0000     -10.301881      -280.3284
   8   2.0000     -10.301375      -280.3147
   9   2.0000     -10.297560      -280.2109
  10   2.0000     -10.291967      -280.0586
  11   2.0000     -10.289589      -279.9940
  12   2.0000     -10.281918      -279.7852
  13   2.0000     -10.269673      -279.4520
  14   2.0000     -10.269325      -279.4425
  15   2.0000     -10.262575      -279.2589
  16   2.0000      -8.080517      -219.8821
  17   2.0000      -8.080491      -219.8813
  18   2.0000      -6.039049      -164.3309
  19   2.0000      -6.038853      -164.3255
  20   2.0000      -6.035170      -164.2253
  21   2.0000      -6.034564      -164.2088
  22   2.0000      -6.031596      -164.1281
  23   2.0000      -6.031093      -164.1144
  24   2.0000      -1.014689       -27.6111
  25   2.0000      -0.987158       -26.8619
  26   2.0000      -0.921566       -25.0771
  27   2.0000      -0.909496       -24.7486
  28   2.0000      -0.875346       -23.8194
  29   2.0000      -0.849347       -23.1119
  30   2.0000      -0.846879       -23.0447
  31   2.0000      -0.815729       -22.1971
  32   2.0000      -0.787262       -21.4225
  33   2.0000      -0.774378       -21.0719
  34   2.0000      -0.708305       -19.2740
  35   2.0000      -0.694731       -18.9046
  36   2.0000      -0.687198       -18.6996
  37   2.0000      -0.663518       -18.0552
  38   2.0000      -0.645990       -17.5783
  39   2.0000      -0.623397       -16.9635
  40   2.0000      -0.604997       -16.4628
  41   2.0000      -0.569334       -15.4924
  42   2.0000      -0.557183       -15.1617
  43   2.0000      -0.552880       -15.0446
  44   2.0000      -0.548620       -14.9287
  45   2.0000      -0.537401       -14.6234
  46   2.0000      -0.519288       -14.1305
  47   2.0000      -0.509442       -13.8626
  48   2.0000      -0.503862       -13.7108
  49   2.0000      -0.500690       -13.6245
  50   2.0000      -0.496850       -13.5200
  51   2.0000      -0.486181       -13.2297
  52   2.0000      -0.475456       -12.9378
  53   2.0000      -0.460976       -12.5438
  54   2.0000      -0.455093       -12.3837
  55   2.0000      -0.445113       -12.1121
  56   2.0000      -0.444436       -12.0937
  57   2.0000      -0.436057       -11.8657
  58   2.0000      -0.429368       -11.6837
  59   2.0000      -0.425578       -11.5806
  60   2.0000      -0.423342       -11.5197
  61   2.0000      -0.419176       -11.4064
  62   2.0000      -0.401735       -10.9318
  63   2.0000      -0.349473        -9.5096
  64   2.0000      -0.330807        -9.0017
  65   2.0000      -0.327384        -8.9086
  66   2.0000      -0.286773        -7.8035
  67   0.0000       0.032428         0.8824
  68   0.0000       0.066465         1.8086
  69   0.0000       0.108384         2.9493
  70   0.0000       0.115972         3.1558
  71   0.0000       0.135823         3.6959

MULLIKEN ATOMIC CHARGES
-----------------------
   0 S :    0.120499
   1 C :   -0.141219
   2 C :   -0.042331
   3 C :    0.041235
   4 C :   -0.139327
   5 H :   -0.044003
   6 C :    0.044357
   7 H :    0.050836
   8 H :    0.041876
   9 C :   -0.096362
  10 H :    0.029582
  11 H :    0.036298
  12 C :   -0.020736
  13 H :    0.026933
  14 H :    0.026335
  15 H :    0.019529
  16 S :    0.102819
  17 C :   -0.097811
  18 C :   -0.030391
  19 C :   -0.052229
  20 C :   -0.147888
  21 H :    0.028636
  22 C :    0.068046
  23 H :    0.032846
  24 H :    0.011109
  25 C :   -0.023800
  26 H :    0.011646
  27 H :    0.015797
  28 C :   -0.053186
  29 H :    0.037301
  30 H :    0.030170
  31 H :    0.021696
  32 H :    0.039493
  33 H :    0.052242
Sum of atomic charges:   -0.0000000

LOEWDIN ATOMIC CHARGES
----------------------
   0 S :    0.445995
   1 C :   -0.205461
   2 C :   -0.061622
   3 C :   -0.063860
   4 C :   -0.222781
   5 H :    0.009570
   6 C :   -0.037351
   7 H :    0.045005
   8 H :    0.035070
   9 C :   -0.043990
  10 H :    0.027855
  11 H :    0.027760
  12 C :   -0.059740
  13 H :    0.024671
  14 H :    0.022115
  15 H :    0.017004
  16 S :    0.398078
  17 C :   -0.167583
  18 C :   -0.066133
  19 C :   -0.056253
  20 C :   -0.195061
  21 H :    0.036520
  22 C :   -0.033448
  23 H :    0.035847
  24 H :    0.031769
  25 C :   -0.036210
  26 H :    0.013707
  27 H :    0.022257
  28 C :   -0.061608
  29 H :    0.025810
  30 H :    0.023274
  31 H :    0.021909
  32 H :    0.022835
  33 H :    0.024051

  Mayer bond orders larger than 0.100000
B(  0-S ,  1-C ) :   1.1606 B(  0-S ,  4-C ) :   1.1752 B(  1-C ,  2-C ) :   1.5706
B(  1-C , 32-H ) :   0.9803 B(  2-C ,  3-C ) :   1.2735 B(  2-C ,  6-C ) :   0.9987
B(  3-C ,  4-C ) :   1.5411 B(  3-C ,  5-H ) :   1.0063 B(  4-C , 20-C ) :   1.0231
B(  6-C ,  7-H ) :   0.9415 B(  6-C ,  8-H ) :   0.9385 B(  6-C ,  9-C ) :   1.0881
B(  9-C , 10-H ) :   0.9542 B(  9-C , 11-H ) :   0.9502 B(  9-C , 12-C ) :   1.0797
B( 12-C , 13-H ) :   0.9728 B( 12-C , 14-H ) :   0.9714 B( 12-C , 15-H ) :   0.9759
B( 16-S , 17-C ) :   1.1483 B( 16-S , 20-C ) :   1.1384 B( 17-C , 18-C ) :   1.6346
B( 17-C , 20-C ) :   0.1052 B( 17-C , 33-H ) :   0.9659 B( 18-C , 19-C ) :   1.2142
B( 18-C , 21-H ) :   0.9872 B( 19-C , 20-C ) :   1.6060 B( 19-C , 22-C ) :   1.0536
B( 22-C , 23-H ) :   0.9311 B( 22-C , 24-H ) :   0.9319 B( 22-C , 25-C ) :   1.0763
B( 25-C , 26-H ) :   0.9496 B( 25-C , 27-H ) :   0.9516 B( 25-C , 28-C ) :   1.0905
B( 28-C , 29-H ) :   0.9697 B( 28-C , 30-H ) :   0.9727 B( 28-C , 31-H ) :   0.9679

Dispersion correction           -0.015803634
FINAL SINGLE POINT ENERGY     -1339.869343318433

DIPOLE MOMENT
-------------
                                X             Y             Z
Electronic contribution:    -17.89062     -15.07276      -8.56830
Nuclear contribution   :     18.38492      15.25398       8.88943
                        -----------------------------------------
Total Dipole Moment    :      0.49430       0.18123       0.32113
                        -----------------------------------------
Magnitude (a.u.)       :      0.61669
Magnitude (Debye)      :      1.56750

Rotational constants in cm-1:     0.018406     0.009836     0.008586
Rotational constants in MHz :   551.788258   294.863083   257.412543

                             ****ORCA TERMINATED NORMALLY****
TOTAL RUN TIME: 0 days 0 hours 0 minutes 23 seconds 311 msec
