                         Program Version 4.2.1 -  RELEASE  -
|  1> ! wB97X-D3 SP def2-SVP
|  2> %pal
|  3> nprocs 24
|  4> end
|  5>
|  6> * xyz 0 1
|  7> S 	 45.7772 	 -17.6966 	 -117.019
|  8> C 	 47.0457 	 -18.382 	 -115.956
|  9> C 	 47.897 	 -17.4191 	 -115.465
| 10> C 	 47.5037 	 -16.1098 	 -115.858
| 11> C 	 46.3863 	 -16.0896 	 -116.672
| 12> H 	 48.0593 	 -15.2609 	 -115.516
| 13> C 	 49.0955 	 -17.663 	 -114.629
| 14> H 	 50.0179 	 -17.3605 	 -115.218
| 15> H 	 49.1637 	 -18.7246 	 -114.437
| 16> C 	 49.0879 	 -16.8708 	 -113.339
| 17> H 	 49.2508 	 -15.8258 	 -113.473
| 18> H 	 48.1338 	 -16.9259 	 -112.869
| 19> C 	 50.1838 	 -17.3766 	 -112.377
| 20> H 	 50.0141 	 -17.3262 	 -111.271
| 21> H 	 50.0911 	 -18.4381 	 -112.388
| 22> H 	 51.2003 	 -17.0665 	 -112.588
| 23> S 	 45.0477 	 -14.9923 	 -118.83
| 24> C 	 44.0591 	 -13.5797 	 -118.607
| 25> C 	 44.3258 	 -12.9841 	 -117.383
| 26> C 	 45.3396 	 -13.707 	 -116.644
| 27> C 	 45.6108 	 -14.9496 	 -117.195
| 28> H 	 43.8832 	 -12.1368 	 -117.114
| 29> C 	 45.8032 	 -13.2302 	 -115.24
| 30> H 	 46.1367 	 -13.9855 	 -114.497
| 31> H 	 45.0075 	 -12.6506 	 -114.755
| 32> C 	 47.0863 	 -12.3816 	 -115.421
| 33> H 	 46.7655 	 -11.4932 	 -116.037
| 34> H 	 47.8137 	 -12.915 	 -116.011
| 35> C 	 47.521 	 -11.7286 	 -114.135
| 36> H 	 46.7686 	 -11.0473 	 -113.874
| 37> H 	 48.4331 	 -11.1447 	 -114.273
| 38> H 	 47.7048 	 -12.4666 	 -113.361
| 39> H 	 47.4245 	 -19.3873 	 -115.905
| 40> H 	 43.5672 	 -13.0457 	 -119.428
| 41> *
| 42>
| 43>                          ****END OF INPUT****

CARTESIAN COORDINATES (ANGSTROEM)
---------------------------------
  S     45.777200  -17.696600  -117.019000
  C     47.045700  -18.382000  -115.956000
  C     47.897000  -17.419100  -115.465000
  C     47.503700  -16.109800  -115.858000
  C     46.386300  -16.089600  -116.672000
  H     48.059300  -15.260900  -115.516000
  C     49.095500  -17.663000  -114.629000
  H     50.017900  -17.360500  -115.218000
  H     49.163700  -18.724600  -114.437000
  C     49.087900  -16.870800  -113.339000
  H     49.250800  -15.825800  -113.473000
  H     48.133800  -16.925900  -112.869000
  C     50.183800  -17.376600  -112.377000
  H     50.014100  -17.326200  -111.271000
  H     50.091100  -18.438100  -112.388000
  H     51.200300  -17.066500  -112.588000
  S     45.047700  -14.992300  -118.830000
  C     44.059100  -13.579700  -118.607000
  C     44.325800  -12.984100  -117.383000
  C     45.339600  -13.707000  -116.644000
  C     45.610800  -14.949600  -117.195000
  H     43.883200  -12.136800  -117.114000
  C     45.803200  -13.230200  -115.240000
  H     46.136700  -13.985500  -114.497000
  H     45.007500  -12.650600  -114.755000
  C     47.086300  -12.381600  -115.421000
  H     46.765500  -11.493200  -116.037000
  H     47.813700  -12.915000  -116.011000
  C     47.521000  -11.728600  -114.135000
  H     46.768600  -11.047300  -113.874000
  H     48.433100  -11.144700  -114.273000
  H     47.704800  -12.466600  -113.361000
  H     47.424500  -19.387300  -115.905000
  H     43.567200  -13.045700  -119.428000

 Total Charge           Charge          ....    0
 Multiplicity           Mult            ....    1
 Number of Electrons    NEL             ....  134
 Basis Dimension        Dim             ....  322

ORBITAL ENERGIES
----------------

  NO   OCC          E(Eh)            E(eV)
   0   2.0000     -88.968778     -2420.9635
   1   2.0000     -88.965459     -2420.8732
   2   2.0000     -10.334808      -281.2244
   3   2.0000     -10.327388      -281.0225
   4   2.0000     -10.318473      -280.7799
   5   2.0000     -10.310694      -280.5682
   6   2.0000     -10.308342      -280.5043
   7   2.0000     -10.296286      -280.1762
   8   2.0000     -10.295880      -280.1651
   9   2.0000     -10.295128      -280.1447
  10   2.0000     -10.292146      -280.0635
  11   2.0000     -10.290756      -280.0257
  12   2.0000     -10.285685      -279.8877
  13   2.0000     -10.285134      -279.8727
  14   2.0000     -10.279048      -279.7071
  15   2.0000     -10.273782      -279.5638
  16   2.0000      -8.082572      -219.9380
  17   2.0000      -8.080800      -219.8897
  18   2.0000      -6.041273      -164.3914
  19   2.0000      -6.039231      -164.3358
  20   2.0000      -6.037290      -164.2830
  21   2.0000      -6.035245      -164.2274
  22   2.0000      -6.033101      -164.1690
  23   2.0000      -6.031578      -164.1276
  24   2.0000      -1.008154       -27.4333
  25   2.0000      -0.984996       -26.8031
  26   2.0000      -0.920479       -25.0475
  27   2.0000      -0.911463       -24.8022
  28   2.0000      -0.870763       -23.6947
  29   2.0000      -0.852797       -23.2058
  30   2.0000      -0.846002       -23.0209
  31   2.0000      -0.817358       -22.2415
  32   2.0000      -0.783729       -21.3263
  33   2.0000      -0.773093       -21.0369
  34   2.0000      -0.715955       -19.4821
  35   2.0000      -0.698150       -18.9976
  36   2.0000      -0.690399       -18.7867
  37   2.0000      -0.670075       -18.2337
  38   2.0000      -0.636598       -17.3227
  39   2.0000      -0.627890       -17.0858
  40   2.0000      -0.599339       -16.3088
  41   2.0000      -0.578245       -15.7348
  42   2.0000      -0.574695       -15.6382
  43   2.0000      -0.565698       -15.3934
  44   2.0000      -0.527577       -14.3561
  45   2.0000      -0.522985       -14.2311
  46   2.0000      -0.516002       -14.0411
  47   2.0000      -0.511935       -13.9305
  48   2.0000      -0.510110       -13.8808
  49   2.0000      -0.502410       -13.6713
  50   2.0000      -0.493585       -13.4311
  51   2.0000      -0.478734       -13.0270
  52   2.0000      -0.474271       -12.9056
  53   2.0000      -0.462593       -12.5878
  54   2.0000      -0.458345       -12.4722
  55   2.0000      -0.455470       -12.3940
  56   2.0000      -0.450339       -12.2543
  57   2.0000      -0.437890       -11.9156
  58   2.0000      -0.429862       -11.6971
  59   2.0000      -0.429123       -11.6770
  60   2.0000      -0.426307       -11.6004
  61   2.0000      -0.417340       -11.3564
  62   2.0000      -0.409174       -11.1342
  63   2.0000      -0.350128        -9.5275
  64   2.0000      -0.333128        -9.0649
  65   2.0000      -0.329669        -8.9707
  66   2.0000      -0.290629        -7.9084
  67   0.0000       0.024534         0.6676
  68   0.0000       0.074212         2.0194
  69   0.0000       0.107798         2.9333
  70   0.0000       0.119783         3.2595
  71   0.0000       0.122874         3.3436

MULLIKEN ATOMIC CHARGES
-----------------------
   0 S :    0.106436
   1 C :   -0.098754
   2 C :   -0.121518
   3 C :    0.024381
   4 C :   -0.105809
   5 H :   -0.010210
   6 C :    0.074452
   7 H :    0.048808
   8 H :    0.009358
   9 C :   -0.066841
  10 H :    0.027764
  11 H :    0.028072
  12 C :   -0.049816
  13 H :    0.031957
  14 H :    0.006984
  15 H :    0.040568
  16 S :    0.105882
  17 C :   -0.089874
  18 C :    0.021137
  19 C :   -0.024956
  20 C :   -0.137318
  21 H :   -0.036684
  22 C :    0.028585
  23 H :    0.031939
  24 H :    0.024528
  25 C :   -0.130191
  26 H :    0.023844
  27 H :    0.039057
  28 C :    0.011296
  29 H :    0.020111
  30 H :    0.034206
  31 H :    0.023468
  32 H :    0.038672
  33 H :    0.070468
Sum of atomic charges:    0.0000000

LOEWDIN ATOMIC CHARGES
----------------------
   0 S :    0.392717
   1 C :   -0.196369
   2 C :   -0.060786
   3 C :   -0.064730
   4 C :   -0.175371
   5 H :    0.025080
   6 C :   -0.031369
   7 H :    0.043298
   8 H :    0.026574
   9 C :   -0.036831
  10 H :    0.019555
  11 H :    0.025118
  12 C :   -0.073663
  13 H :    0.034790
  14 H :    0.020791
  15 H :    0.024800
  16 S :    0.415432
  17 C :   -0.190514
  18 C :   -0.049195
  19 C :   -0.047569
  20 C :   -0.206474
  21 H :    0.006903
  22 C :   -0.031640
  23 H :    0.029373
  24 H :    0.027833
  25 C :   -0.046124
  26 H :    0.027320
  27 H :    0.017528
  28 C :   -0.059206
  29 H :    0.021149
  30 H :    0.029561
  31 H :    0.019983
  32 H :    0.026502
  33 H :    0.035532

  Mayer bond orders larger than 0.100000
B(  0-S ,  1-C ) :   1.1067 B(  0-S ,  4-C ) :   1.1543 B(  1-C ,  2-C ) :   1.6545
B(  1-C , 32-H ) :   0.9540 B(  2-C ,  3-C ) :   1.2291 B(  2-C ,  6-C ) :   1.0417
B(  3-C ,  4-C ) :   1.5645 B(  3-C ,  5-H ) :   1.0000 B(  4-C , 20-C ) :   1.0283
B(  6-C ,  7-H ) :   0.9283 B(  6-C ,  8-H ) :   0.9376 B(  6-C ,  9-C ) :   1.0623
B(  9-C , 10-H ) :   0.9503 B(  9-C , 11-H ) :   0.9580 B(  9-C , 12-C ) :   1.0808
B( 12-C , 13-H ) :   0.9725 B( 12-C , 14-H ) :   0.9704 B( 12-C , 15-H ) :   0.9776
B( 16-S , 17-C ) :   1.1533 B( 16-S , 20-C ) :   1.1533 B( 17-C , 18-C ) :   1.5910
B( 17-C , 33-H ) :   0.9648 B( 18-C , 19-C ) :   1.2458 B( 18-C , 21-H ) :   1.0121
B( 19-C , 20-C ) :   1.5782 B( 19-C , 22-C ) :   1.0381 B( 22-C , 23-H ) :   0.9447
B( 22-C , 24-H ) :   0.9458 B( 22-C , 25-C ) :   1.0435 B( 25-C , 26-H ) :   0.9556
B( 25-C , 27-H ) :   0.9592 B( 25-C , 28-C ) :   1.0762 B( 28-C , 29-H ) :   0.9726
B( 28-C , 30-H ) :   0.9713 B( 28-C , 31-H ) :   0.9714

Dispersion correction           -0.014242190
FINAL SINGLE POINT ENERGY     -1339.866212073877

DIPOLE MOMENT
-------------
                                X             Y             Z
Electronic contribution:    -19.04971      -9.85103     -25.58831
Nuclear contribution   :     19.47894      10.30262      26.05246
                        -----------------------------------------
Total Dipole Moment    :      0.42924       0.45159       0.46415
                        -----------------------------------------
Magnitude (a.u.)       :      0.77693
Magnitude (Debye)      :      1.97479

Rotational constants in cm-1:     0.017803     0.009544     0.006474
Rotational constants in MHz :   533.715224   286.118005   194.088985

                             ****ORCA TERMINATED NORMALLY****
TOTAL RUN TIME: 0 days 0 hours 0 minutes 22 seconds 49 msec
