                         Program Version 4.2.1 -  RELEASE  -
|  1> ! wB97X-D3 SP def2-SVP
|  2> %pal
|  3> nprocs 24
|  4> end
|  5>
|  6> * xyz 0 1
|  7> S 	 -92.6529 	 14.5925 	 -117.874
|  8> C 	 -91.0928 	 14.675 	 -117.142
|  9> C 	 -90.7031 	 13.4391 	 -116.648
| 10> C 	 -91.721 	 12.4316 	 -116.816
| 11> C 	 -92.8181 	 12.8877 	 -117.513
| 12> H 	 -91.5998 	 11.4149 	 -116.54
| 13> C 	 -89.312 	 13.1186 	 -116.122
| 14> H 	 -89.3681 	 12.4967 	 -115.203
| 15> H 	 -88.8005 	 14.0456 	 -115.856
| 16> C 	 -88.4771 	 12.3049 	 -117.108
| 17> H 	 -87.5508 	 12.2573 	 -116.639
| 18> H 	 -88.9136 	 11.2767 	 -117.238
| 19> C 	 -88.3121 	 12.91 	 -118.49
| 20> H 	 -87.9667 	 13.9359 	 -118.356
| 21> H 	 -87.6469 	 12.2848 	 -119.109
| 22> H 	 -89.2369 	 13.0702 	 -118.991
| 23> S 	 -94.7954 	 11.3706 	 -116.614
| 24> C 	 -95.7274 	 10.3197 	 -117.751
| 25> C 	 -95.3694 	 10.6367 	 -119.046
| 26> C 	 -94.3502 	 11.6375 	 -119.154
| 27> C 	 -93.9153 	 12.1211 	 -117.915
| 28> H 	 -95.7179 	 10.0467 	 -119.891
| 29> C 	 -93.84 	 12.0854 	 -120.471
| 30> H 	 -93.7513 	 13.1802 	 -120.398
| 31> H 	 -94.6949 	 11.9249 	 -121.198
| 32> C 	 -92.6037 	 11.4486 	 -120.957
| 33> H 	 -92.578 	 10.3859 	 -120.613
| 34> H 	 -91.8318 	 11.9348 	 -120.387
| 35> C 	 -92.2057 	 11.7314 	 -122.431
| 36> H 	 -91.1778 	 11.4529 	 -122.587
| 37> H 	 -92.4156 	 12.8349 	 -122.668
| 38> H 	 -92.8311 	 11.1163 	 -123.175
| 39> H 	 -90.4121 	 15.5015 	 -117.261
| 40> H 	 -96.3084 	 9.49609 	 -117.449
| 41> *
| 42>
| 43>                          ****END OF INPUT****

CARTESIAN COORDINATES (ANGSTROEM)
---------------------------------
  S    -92.652900   14.592500  -117.874000
  C    -91.092800   14.675000  -117.142000
  C    -90.703100   13.439100  -116.648000
  C    -91.721000   12.431600  -116.816000
  C    -92.818100   12.887700  -117.513000
  H    -91.599800   11.414900  -116.540000
  C    -89.312000   13.118600  -116.122000
  H    -89.368100   12.496700  -115.203000
  H    -88.800500   14.045600  -115.856000
  C    -88.477100   12.304900  -117.108000
  H    -87.550800   12.257300  -116.639000
  H    -88.913600   11.276700  -117.238000
  C    -88.312100   12.910000  -118.490000
  H    -87.966700   13.935900  -118.356000
  H    -87.646900   12.284800  -119.109000
  H    -89.236900   13.070200  -118.991000
  S    -94.795400   11.370600  -116.614000
  C    -95.727400   10.319700  -117.751000
  C    -95.369400   10.636700  -119.046000
  C    -94.350200   11.637500  -119.154000
  C    -93.915300   12.121100  -117.915000
  H    -95.717900   10.046700  -119.891000
  C    -93.840000   12.085400  -120.471000
  H    -93.751300   13.180200  -120.398000
  H    -94.694900   11.924900  -121.198000
  C    -92.603700   11.448600  -120.957000
  H    -92.578000   10.385900  -120.613000
  H    -91.831800   11.934800  -120.387000
  C    -92.205700   11.731400  -122.431000
  H    -91.177800   11.452900  -122.587000
  H    -92.415600   12.834900  -122.668000
  H    -92.831100   11.116300  -123.175000
  H    -90.412100   15.501500  -117.261000
  H    -96.308400    9.496090  -117.449000

 Total Charge           Charge          ....    0
 Multiplicity           Mult            ....    1
 Number of Electrons    NEL             ....  134
 Basis Dimension        Dim             ....  322

ORBITAL ENERGIES
----------------

  NO   OCC          E(Eh)            E(eV)
   0   2.0000     -88.967170     -2420.9198
   1   2.0000     -88.963779     -2420.8275
   2   2.0000     -10.326729      -281.0046
   3   2.0000     -10.321867      -280.8723
   4   2.0000     -10.319050      -280.7956
   5   2.0000     -10.312706      -280.6230
   6   2.0000     -10.302259      -280.3387
   7   2.0000     -10.302026      -280.3324
   8   2.0000     -10.296168      -280.1730
   9   2.0000     -10.294641      -280.1314
  10   2.0000     -10.293973      -280.1132
  11   2.0000     -10.290223      -280.0112
  12   2.0000     -10.286922      -279.9214
  13   2.0000     -10.282955      -279.8134
  14   2.0000     -10.282011      -279.7878
  15   2.0000     -10.272998      -279.5425
  16   2.0000      -8.082165      -219.9269
  17   2.0000      -8.077860      -219.8097
  18   2.0000      -6.040627      -164.3738
  19   2.0000      -6.036582      -164.2638
  20   2.0000      -6.036427      -164.2595
  21   2.0000      -6.033009      -164.1665
  22   2.0000      -6.032342      -164.1484
  23   2.0000      -6.028690      -164.0490
  24   2.0000      -1.010814       -27.5056
  25   2.0000      -0.982604       -26.7380
  26   2.0000      -0.916554       -24.9407
  27   2.0000      -0.913694       -24.8629
  28   2.0000      -0.878350       -23.9011
  29   2.0000      -0.849472       -23.1153
  30   2.0000      -0.843926       -22.9644
  31   2.0000      -0.814968       -22.1764
  32   2.0000      -0.785143       -21.3648
  33   2.0000      -0.769790       -20.9471
  34   2.0000      -0.714461       -19.4415
  35   2.0000      -0.695323       -18.9207
  36   2.0000      -0.688427       -18.7331
  37   2.0000      -0.670069       -18.2335
  38   2.0000      -0.643833       -17.5196
  39   2.0000      -0.620535       -16.8856
  40   2.0000      -0.597400       -16.2561
  41   2.0000      -0.569091       -15.4858
  42   2.0000      -0.561012       -15.2659
  43   2.0000      -0.552664       -15.0388
  44   2.0000      -0.547655       -14.9025
  45   2.0000      -0.526288       -14.3210
  46   2.0000      -0.520270       -14.1573
  47   2.0000      -0.520183       -14.1549
  48   2.0000      -0.509448       -13.8628
  49   2.0000      -0.499615       -13.5952
  50   2.0000      -0.492653       -13.4058
  51   2.0000      -0.477835       -13.0026
  52   2.0000      -0.470319       -12.7980
  53   2.0000      -0.462799       -12.5934
  54   2.0000      -0.455963       -12.4074
  55   2.0000      -0.450623       -12.2621
  56   2.0000      -0.443075       -12.0567
  57   2.0000      -0.440910       -11.9978
  58   2.0000      -0.437082       -11.8936
  59   2.0000      -0.419950       -11.4274
  60   2.0000      -0.419373       -11.4117
  61   2.0000      -0.417707       -11.3664
  62   2.0000      -0.403204       -10.9717
  63   2.0000      -0.339851        -9.2478
  64   2.0000      -0.335842        -9.1387
  65   2.0000      -0.325408        -8.8548
  66   2.0000      -0.297253        -8.0887
  67   0.0000       0.028189         0.7671
  68   0.0000       0.068432         1.8621
  69   0.0000       0.108510         2.9527
  70   0.0000       0.119668         3.2563
  71   0.0000       0.126378         3.4389

MULLIKEN ATOMIC CHARGES
-----------------------
   0 S :    0.117303
   1 C :   -0.116909
   2 C :   -0.101657
   3 C :    0.050131
   4 C :   -0.166115
   5 H :    0.004040
   6 C :    0.052785
   7 H :    0.036793
   8 H :    0.019675
   9 C :   -0.063709
  10 H :    0.019789
  11 H :    0.035550
  12 C :   -0.041469
  13 H :    0.012763
  14 H :    0.043656
  15 H :    0.035479
  16 S :    0.097471
  17 C :   -0.085622
  18 C :   -0.021775
  19 C :   -0.044865
  20 C :   -0.159385
  21 H :    0.024639
  22 C :    0.054506
  23 H :    0.022851
  24 H :    0.020360
  25 C :   -0.060921
  26 H :    0.034258
  27 H :    0.025039
  28 C :   -0.065101
  29 H :    0.040436
  30 H :    0.046117
  31 H :    0.039294
  32 H :    0.046867
  33 H :    0.047727
Sum of atomic charges:   -0.0000000

LOEWDIN ATOMIC CHARGES
----------------------
   0 S :    0.417741
   1 C :   -0.208445
   2 C :   -0.060824
   3 C :   -0.051523
   4 C :   -0.202327
   5 H :    0.026529
   6 C :   -0.032059
   7 H :    0.037295
   8 H :    0.027591
   9 C :   -0.038290
  10 H :    0.017002
  11 H :    0.027526
  12 C :   -0.064631
  13 H :    0.022508
  14 H :    0.030756
  15 H :    0.020788
  16 S :    0.396978
  17 C :   -0.163889
  18 C :   -0.066796
  19 C :   -0.053777
  20 C :   -0.204792
  21 H :    0.034210
  22 C :   -0.044220
  23 H :    0.028228
  24 H :    0.032122
  25 C :   -0.051033
  26 H :    0.029124
  27 H :    0.025639
  28 C :   -0.068723
  29 H :    0.024199
  30 H :    0.036362
  31 H :    0.028789
  32 H :    0.026454
  33 H :    0.021489

  Mayer bond orders larger than 0.100000
B(  0-S ,  1-C ) :   1.1409 B(  0-S ,  4-C ) :   1.1475 B(  1-C ,  2-C ) :   1.6081
B(  1-C , 32-H ) :   0.9669 B(  2-C ,  3-C ) :   1.2353 B(  2-C ,  6-C ) :   1.0358
B(  3-C ,  4-C ) :   1.5662 B(  3-C ,  5-H ) :   1.0020 B(  4-C , 20-C ) :   1.0533
B(  6-C ,  7-H ) :   0.9373 B(  6-C ,  8-H ) :   0.9399 B(  6-C ,  9-C ) :   1.0803
B(  9-C , 10-H ) :   0.9539 B(  9-C , 11-H ) :   0.9522 B(  9-C , 12-C ) :   1.0810
B( 12-C , 13-H ) :   0.9700 B( 12-C , 14-H ) :   0.9728 B( 12-C , 15-H ) :   0.9711
B( 16-S , 17-C ) :   1.1433 B( 16-S , 20-C ) :   1.1420 B( 17-C , 18-C ) :   1.6001
B( 17-C , 33-H ) :   0.9750 B( 18-C , 19-C ) :   1.2589 B( 18-C , 21-H ) :   0.9831
B( 19-C , 20-C ) :   1.5710 B( 19-C , 22-C ) :   1.0486 B( 22-C , 23-H ) :   0.9234
B( 22-C , 24-H ) :   0.9315 B( 22-C , 25-C ) :   1.0640 B( 25-C , 26-H ) :   0.9545
B( 25-C , 27-H ) :   0.9457 B( 25-C , 28-C ) :   1.0757 B( 28-C , 29-H ) :   0.9752
B( 28-C , 30-H ) :   0.9707 B( 28-C , 31-H ) :   0.9755

Dispersion correction           -0.015533585
FINAL SINGLE POINT ENERGY     -1339.886618883011

DIPOLE MOMENT
-------------
                                X             Y             Z
Electronic contribution:    -20.43805       4.63224      15.54610
Nuclear contribution   :     20.99323      -4.99918     -15.83508
                        -----------------------------------------
Total Dipole Moment    :      0.55518      -0.36693      -0.28898
                        -----------------------------------------
Magnitude (a.u.)       :      0.72552
Magnitude (Debye)      :      1.84412

Rotational constants in cm-1:     0.017558     0.009917     0.007928
Rotational constants in MHz :   526.372289   297.313647   237.662847

                             ****ORCA TERMINATED NORMALLY****
TOTAL RUN TIME: 0 days 0 hours 0 minutes 21 seconds 475 msec
