                         Program Version 4.2.1 -  RELEASE  -
|  1> ! wB97X-D3 SP def2-SVP
|  2> %pal
|  3> nprocs 24
|  4> end
|  5>
|  6> * xyz 0 1
|  7> S 	 36.5281 	 -26.7602 	 -113.958
|  8> C 	 37.9646 	 -26.688 	 -114.911
|  9> C 	 38.5821 	 -25.4218 	 -114.782
| 10> C 	 37.7994 	 -24.5431 	 -114.026
| 11> C 	 36.701 	 -25.1553 	 -113.416
| 12> H 	 37.9266 	 -23.5031 	 -113.913
| 13> C 	 39.8333 	 -24.9937 	 -115.509
| 14> H 	 40.1367 	 -24.0907 	 -115.025
| 15> H 	 39.3615 	 -24.6422 	 -116.435
| 16> C 	 40.8529 	 -26.1167 	 -115.855
| 17> H 	 40.5896 	 -26.9311 	 -116.533
| 18> H 	 41.6692 	 -25.6577 	 -116.413
| 19> C 	 41.5104 	 -26.6211 	 -114.582
| 20> H 	 40.8242 	 -27.0601 	 -113.853
| 21> H 	 42.3091 	 -27.3018 	 -114.776
| 22> H 	 41.9795 	 -25.7323 	 -114.089
| 23> S 	 34.3307 	 -23.6866 	 -113.489
| 24> C 	 33.7768 	 -22.9145 	 -111.979
| 25> C 	 34.5598 	 -23.2143 	 -110.921
| 26> C 	 35.6136 	 -24.1011 	 -111.303
| 27> C 	 35.7017 	 -24.4323 	 -112.636
| 28> H 	 34.4038 	 -22.8547 	 -109.919
| 29> C 	 36.7948 	 -24.3928 	 -110.396
| 30> H 	 36.9604 	 -23.347 	 -110.091
| 31> H 	 37.6922 	 -24.5926 	 -110.961
| 32> C 	 36.4839 	 -25.2813 	 -109.174
| 33> H 	 35.8253 	 -24.7637 	 -108.608
| 34> H 	 37.3614 	 -25.4295 	 -108.559
| 35> C 	 35.9059 	 -26.5924 	 -109.386
| 36> H 	 36.5937 	 -27.3495 	 -109.807
| 37> H 	 35.1285 	 -26.47 	 -110.14
| 38> H 	 35.3789 	 -27.0797 	 -108.541
| 39> H 	 38.366 	 -27.4363 	 -115.594
| 40> H 	 33.0164 	 -22.113 	 -111.847
| 41> *
| 42>
| 43>                          ****END OF INPUT****

CARTESIAN COORDINATES (ANGSTROEM)
---------------------------------
  S     36.528100  -26.760200  -113.958000
  C     37.964600  -26.688000  -114.911000
  C     38.582100  -25.421800  -114.782000
  C     37.799400  -24.543100  -114.026000
  C     36.701000  -25.155300  -113.416000
  H     37.926600  -23.503100  -113.913000
  C     39.833300  -24.993700  -115.509000
  H     40.136700  -24.090700  -115.025000
  H     39.361500  -24.642200  -116.435000
  C     40.852900  -26.116700  -115.855000
  H     40.589600  -26.931100  -116.533000
  H     41.669200  -25.657700  -116.413000
  C     41.510400  -26.621100  -114.582000
  H     40.824200  -27.060100  -113.853000
  H     42.309100  -27.301800  -114.776000
  H     41.979500  -25.732300  -114.089000
  S     34.330700  -23.686600  -113.489000
  C     33.776800  -22.914500  -111.979000
  C     34.559800  -23.214300  -110.921000
  C     35.613600  -24.101100  -111.303000
  C     35.701700  -24.432300  -112.636000
  H     34.403800  -22.854700  -109.919000
  C     36.794800  -24.392800  -110.396000
  H     36.960400  -23.347000  -110.091000
  H     37.692200  -24.592600  -110.961000
  C     36.483900  -25.281300  -109.174000
  H     35.825300  -24.763700  -108.608000
  H     37.361400  -25.429500  -108.559000
  C     35.905900  -26.592400  -109.386000
  H     36.593700  -27.349500  -109.807000
  H     35.128500  -26.470000  -110.140000
  H     35.378900  -27.079700  -108.541000
  H     38.366000  -27.436300  -115.594000
  H     33.016400  -22.113000  -111.847000

 Total Charge           Charge          ....    0
 Multiplicity           Mult            ....    1
 Number of Electrons    NEL             ....  134
 Basis Dimension        Dim             ....  322

ORBITAL ENERGIES
----------------

  NO   OCC          E(Eh)            E(eV)
   0   2.0000     -88.969299     -2420.9777
   1   2.0000     -88.961442     -2420.7639
   2   2.0000     -10.323670      -280.9214
   3   2.0000     -10.322989      -280.9028
   4   2.0000     -10.320822      -280.8438
   5   2.0000     -10.311537      -280.5912
   6   2.0000     -10.299202      -280.2555
   7   2.0000     -10.299158      -280.2543
   8   2.0000     -10.294747      -280.1343
   9   2.0000     -10.293325      -280.0956
  10   2.0000     -10.291572      -280.0479
  11   2.0000     -10.288105      -279.9536
  12   2.0000     -10.285264      -279.8763
  13   2.0000     -10.274677      -279.5882
  14   2.0000     -10.269057      -279.4353
  15   2.0000     -10.265520      -279.3390
  16   2.0000      -8.084527      -219.9912
  17   2.0000      -8.075446      -219.7441
  18   2.0000      -6.042812      -164.4333
  19   2.0000      -6.038749      -164.3227
  20   2.0000      -6.035715      -164.2402
  21   2.0000      -6.034118      -164.1967
  22   2.0000      -6.030100      -164.0874
  23   2.0000      -6.026011      -163.9761
  24   2.0000      -1.008706       -27.4483
  25   2.0000      -0.985478       -26.8162
  26   2.0000      -0.915341       -24.9077
  27   2.0000      -0.911811       -24.8116
  28   2.0000      -0.869368       -23.6567
  29   2.0000      -0.856560       -23.3082
  30   2.0000      -0.849704       -23.1216
  31   2.0000      -0.814983       -22.1768
  32   2.0000      -0.783457       -21.3190
  33   2.0000      -0.767807       -20.8931
  34   2.0000      -0.711124       -19.3507
  35   2.0000      -0.702443       -19.1145
  36   2.0000      -0.692512       -18.8442
  37   2.0000      -0.658663       -17.9231
  38   2.0000      -0.644282       -17.5318
  39   2.0000      -0.607573       -16.5329
  40   2.0000      -0.591540       -16.0966
  41   2.0000      -0.577460       -15.7135
  42   2.0000      -0.558221       -15.1900
  43   2.0000      -0.551591       -15.0095
  44   2.0000      -0.550572       -14.9818
  45   2.0000      -0.539704       -14.6861
  46   2.0000      -0.521229       -14.1834
  47   2.0000      -0.513785       -13.9808
  48   2.0000      -0.504620       -13.7314
  49   2.0000      -0.491943       -13.3865
  50   2.0000      -0.487178       -13.2568
  51   2.0000      -0.476188       -12.9577
  52   2.0000      -0.473249       -12.8778
  53   2.0000      -0.463689       -12.6176
  54   2.0000      -0.461414       -12.5557
  55   2.0000      -0.446173       -12.1410
  56   2.0000      -0.441620       -12.0171
  57   2.0000      -0.438851       -11.9417
  58   2.0000      -0.432948       -11.7811
  59   2.0000      -0.429706       -11.6929
  60   2.0000      -0.416112       -11.3230
  61   2.0000      -0.415316       -11.3013
  62   2.0000      -0.399688       -10.8761
  63   2.0000      -0.338202        -9.2029
  64   2.0000      -0.327440        -8.9101
  65   2.0000      -0.315396        -8.5824
  66   2.0000      -0.308355        -8.3908
  67   0.0000       0.046915         1.2766
  68   0.0000       0.053302         1.4504
  69   0.0000       0.117596         3.2000
  70   0.0000       0.127170         3.4605
  71   0.0000       0.129929         3.5355

MULLIKEN ATOMIC CHARGES
-----------------------
   0 S :    0.148371
   1 C :   -0.132441
   2 C :   -0.113319
   3 C :    0.039917
   4 C :   -0.179060
   5 H :   -0.001789
   6 C :    0.092528
   7 H :    0.017484
   8 H :    0.043332
   9 C :   -0.064591
  10 H :    0.035423
  11 H :    0.024837
  12 C :   -0.054422
  13 H :    0.045525
  14 H :    0.027535
  15 H :    0.025953
  16 S :    0.096685
  17 C :   -0.083978
  18 C :   -0.028068
  19 C :   -0.047017
  20 C :   -0.181805
  21 H :    0.020268
  22 C :    0.059464
  23 H :    0.024631
  24 H :    0.026458
  25 C :    0.014029
  26 H :   -0.011520
  27 H :    0.020398
  28 C :   -0.065113
  29 H :    0.029415
  30 H :    0.020982
  31 H :    0.034983
  32 H :    0.048741
  33 H :    0.066165
Sum of atomic charges:   -0.0000000

LOEWDIN ATOMIC CHARGES
----------------------
   0 S :    0.455753
   1 C :   -0.222723
   2 C :   -0.061094
   3 C :   -0.057855
   4 C :   -0.222047
   5 H :    0.025188
   6 C :   -0.029825
   7 H :    0.029637
   8 H :    0.043786
   9 C :   -0.045249
  10 H :    0.026458
  11 H :    0.029753
  12 C :   -0.066159
  13 H :    0.024869
  14 H :    0.019714
  15 H :    0.029647
  16 S :    0.372220
  17 C :   -0.171302
  18 C :   -0.075916
  19 C :   -0.054834
  20 C :   -0.198002
  21 H :    0.032987
  22 C :   -0.025634
  23 H :    0.037841
  24 H :    0.027072
  25 C :   -0.040047
  26 H :    0.010956
  27 H :    0.025817
  28 C :   -0.070855
  29 H :    0.025688
  30 H :    0.023209
  31 H :    0.030384
  32 H :    0.030110
  33 H :    0.040454

  Mayer bond orders larger than 0.100000
B(  0-S ,  1-C ) :   1.1652 B(  0-S ,  4-C ) :   1.1910 B(  1-C ,  2-C ) :   1.5475
B(  1-C ,  4-C ) :   0.1068 B(  1-C , 32-H ) :   0.9667 B(  2-C ,  3-C ) :   1.2949
B(  2-C ,  6-C ) :   1.0012 B(  3-C ,  4-C ) :   1.5231 B(  3-C ,  5-H ) :   1.0016
B(  4-C , 20-C ) :   1.0215 B(  6-C ,  7-H ) :   0.9445 B(  6-C ,  8-H ) :   0.9276
B(  6-C ,  9-C ) :   1.0710 B(  9-C , 10-H ) :   0.9536 B(  9-C , 11-H ) :   0.9501
B(  9-C , 12-C ) :   1.0756 B( 12-C , 13-H ) :   0.9774 B( 12-C , 14-H ) :   0.9749
B( 12-C , 15-H ) :   0.9738 B( 16-S , 17-C ) :   1.1411 B( 16-S , 20-C ) :   1.1092
B( 17-C , 18-C ) :   1.6505 B( 17-C , 33-H ) :   0.9554 B( 18-C , 19-C ) :   1.2208
B( 18-C , 21-H ) :   0.9877 B( 19-C , 20-C ) :   1.6356 B( 19-C , 22-C ) :   1.0185
B( 22-C , 23-H ) :   0.9425 B( 22-C , 24-H ) :   0.9446 B( 22-C , 25-C ) :   1.0562
B( 25-C , 26-H ) :   0.9468 B( 25-C , 27-H ) :   0.9497 B( 25-C , 28-C ) :   1.0986
B( 28-C , 29-H ) :   0.9715 B( 28-C , 30-H ) :   0.9661 B( 28-C , 31-H ) :   0.9707

Dispersion correction           -0.014914404
FINAL SINGLE POINT ENERGY     -1339.862951596204

DIPOLE MOMENT
-------------
                                X             Y             Z
Electronic contribution:    -20.01160       4.51815      -8.32189
Nuclear contribution   :     20.55888      -4.17791       8.38127
                        -----------------------------------------
Total Dipole Moment    :      0.54728       0.34023       0.05938
                        -----------------------------------------
Magnitude (a.u.)       :      0.64714
Magnitude (Debye)      :      1.64491

Rotational constants in cm-1:     0.021834     0.008030     0.006959
Rotational constants in MHz :   654.576112   240.739466   208.620673

                             ****ORCA TERMINATED NORMALLY****
TOTAL RUN TIME: 0 days 0 hours 0 minutes 21 seconds 876 msec
