                         Program Version 4.2.1 -  RELEASE  -
|  1> ! wB97X-D3 SP def2-SVP
|  2> %pal
|  3> nprocs 24
|  4> end
|  5>
|  6> * xyz 0 1
|  7> S 	 -130.705 	 59.388 	 -61.9218
|  8> C 	 -129.025 	 59.8306 	 -62.4479
|  9> C 	 -128.188 	 59.7627 	 -61.313
| 10> C 	 -128.872 	 59.1931 	 -60.1455
| 11> C 	 -130.129 	 58.77 	 -60.3766
| 12> H 	 -128.311 	 58.9526 	 -59.1889
| 13> C 	 -126.736 	 60.2542 	 -61.3753
| 14> H 	 -126.188 	 60.3567 	 -60.4298
| 15> H 	 -126.669 	 61.2304 	 -61.9473
| 16> C 	 -125.789 	 59.4158 	 -62.1958
| 17> H 	 -126.045 	 59.393 	 -63.2578
| 18> H 	 -124.796 	 59.6967 	 -62.2134
| 19> C 	 -125.677 	 57.9381 	 -61.7243
| 20> H 	 -125.699 	 57.8666 	 -60.62
| 21> H 	 -126.635 	 57.4167 	 -61.8741
| 22> H 	 -124.901 	 57.3873 	 -62.2378
| 23> S 	 -132.668 	 58.96 	 -59.2592
| 24> C 	 -132.968 	 57.936 	 -57.9139
| 25> C 	 -132.011 	 56.9839 	 -57.6942
| 26> C 	 -130.906 	 57.1045 	 -58.5925
| 27> C 	 -131.058 	 58.2423 	 -59.4121
| 28> H 	 -132.302 	 56.1501 	 -57.0531
| 29> C 	 -129.762 	 56.0079 	 -58.6371
| 30> H 	 -128.951 	 56.6089 	 -59.018
| 31> H 	 -129.957 	 55.2457 	 -59.3398
| 32> C 	 -129.355 	 55.3114 	 -57.3616
| 33> H 	 -128.539 	 54.6555 	 -57.6001
| 34> H 	 -130.105 	 54.6716 	 -56.9685
| 35> C 	 -128.795 	 56.2437 	 -56.2093
| 36> H 	 -129.647 	 56.7794 	 -55.789
| 37> H 	 -128.06 	 56.9739 	 -56.4744
| 38> H 	 -128.32 	 55.5461 	 -55.3877
| 39> H 	 -128.681 	 60.3026 	 -63.3018
| 40> H 	 -133.987 	 57.747 	 -57.5269
| 41> *
| 42>
| 43>                          ****END OF INPUT****

CARTESIAN COORDINATES (ANGSTROEM)
---------------------------------
  S    -130.705000   59.388000  -61.921800
  C    -129.025000   59.830600  -62.447900
  C    -128.188000   59.762700  -61.313000
  C    -128.872000   59.193100  -60.145500
  C    -130.129000   58.770000  -60.376600
  H    -128.311000   58.952600  -59.188900
  C    -126.736000   60.254200  -61.375300
  H    -126.188000   60.356700  -60.429800
  H    -126.669000   61.230400  -61.947300
  C    -125.789000   59.415800  -62.195800
  H    -126.045000   59.393000  -63.257800
  H    -124.796000   59.696700  -62.213400
  C    -125.677000   57.938100  -61.724300
  H    -125.699000   57.866600  -60.620000
  H    -126.635000   57.416700  -61.874100
  H    -124.901000   57.387300  -62.237800
  S    -132.668000   58.960000  -59.259200
  C    -132.968000   57.936000  -57.913900
  C    -132.011000   56.983900  -57.694200
  C    -130.906000   57.104500  -58.592500
  C    -131.058000   58.242300  -59.412100
  H    -132.302000   56.150100  -57.053100
  C    -129.762000   56.007900  -58.637100
  H    -128.951000   56.608900  -59.018000
  H    -129.957000   55.245700  -59.339800
  C    -129.355000   55.311400  -57.361600
  H    -128.539000   54.655500  -57.600100
  H    -130.105000   54.671600  -56.968500
  C    -128.795000   56.243700  -56.209300
  H    -129.647000   56.779400  -55.789000
  H    -128.060000   56.973900  -56.474400
  H    -128.320000   55.546100  -55.387700
  H    -128.681000   60.302600  -63.301800
  H    -133.987000   57.747000  -57.526900

 Total Charge           Charge          ....    0
 Multiplicity           Mult            ....    1
 Number of Electrons    NEL             ....  134
 Basis Dimension        Dim             ....  322

ORBITAL ENERGIES
----------------

  NO   OCC          E(Eh)            E(eV)
   0   2.0000     -88.970867     -2421.0204
   1   2.0000     -88.967295     -2420.9232
   2   2.0000     -10.330769      -281.1145
   3   2.0000     -10.329961      -281.0925
   4   2.0000     -10.318872      -280.7908
   5   2.0000     -10.314502      -280.6719
   6   2.0000     -10.313574      -280.6466
   7   2.0000     -10.312350      -280.6133
   8   2.0000     -10.302232      -280.3380
   9   2.0000     -10.300723      -280.2969
  10   2.0000     -10.293016      -280.0872
  11   2.0000     -10.292367      -280.0695
  12   2.0000     -10.286338      -279.9055
  13   2.0000     -10.285155      -279.8733
  14   2.0000     -10.278993      -279.7056
  15   2.0000     -10.273932      -279.5679
  16   2.0000      -8.085829      -220.0266
  17   2.0000      -8.080878      -219.8919
  18   2.0000      -6.044280      -164.4732
  19   2.0000      -6.040487      -164.3700
  20   2.0000      -6.039700      -164.3486
  21   2.0000      -6.036448      -164.2601
  22   2.0000      -6.035687      -164.2394
  23   2.0000      -6.031212      -164.1176
  24   2.0000      -1.007547       -27.4167
  25   2.0000      -0.980974       -26.6937
  26   2.0000      -0.914908       -24.8959
  27   2.0000      -0.907199       -24.6861
  28   2.0000      -0.870451       -23.6862
  29   2.0000      -0.848546       -23.0901
  30   2.0000      -0.836464       -22.7613
  31   2.0000      -0.815934       -22.2027
  32   2.0000      -0.786440       -21.4001
  33   2.0000      -0.775179       -21.0937
  34   2.0000      -0.711305       -19.3556
  35   2.0000      -0.704275       -19.1643
  36   2.0000      -0.696319       -18.9478
  37   2.0000      -0.652778       -17.7630
  38   2.0000      -0.638237       -17.3673
  39   2.0000      -0.614020       -16.7083
  40   2.0000      -0.594985       -16.1904
  41   2.0000      -0.575144       -15.6505
  42   2.0000      -0.553121       -15.0512
  43   2.0000      -0.551531       -15.0079
  44   2.0000      -0.546862       -14.8809
  45   2.0000      -0.538378       -14.6500
  46   2.0000      -0.515581       -14.0297
  47   2.0000      -0.511817       -13.9273
  48   2.0000      -0.503108       -13.6903
  49   2.0000      -0.499221       -13.5845
  50   2.0000      -0.491295       -13.3688
  51   2.0000      -0.475528       -12.9398
  52   2.0000      -0.466410       -12.6917
  53   2.0000      -0.465795       -12.6749
  54   2.0000      -0.457461       -12.4481
  55   2.0000      -0.452232       -12.3058
  56   2.0000      -0.444154       -12.0861
  57   2.0000      -0.437650       -11.9091
  58   2.0000      -0.430729       -11.7207
  59   2.0000      -0.428244       -11.6531
  60   2.0000      -0.418896       -11.3987
  61   2.0000      -0.411834       -11.2066
  62   2.0000      -0.407060       -11.0767
  63   2.0000      -0.350910        -9.5487
  64   2.0000      -0.336482        -9.1561
  65   2.0000      -0.327083        -8.9004
  66   2.0000      -0.291572        -7.9341
  67   0.0000       0.020993         0.5713
  68   0.0000       0.062274         1.6946
  69   0.0000       0.097057         2.6411
  70   0.0000       0.115104         3.1321
  71   0.0000       0.123527         3.3613

MULLIKEN ATOMIC CHARGES
-----------------------
   0 S :    0.084672
   1 C :   -0.071986
   2 C :   -0.104239
   3 C :    0.024514
   4 C :   -0.144621
   5 H :    0.042202
   6 C :    0.045911
   7 H :    0.033691
   8 H :    0.045384
   9 C :   -0.059778
  10 H :    0.018945
  11 H :    0.013774
  12 C :   -0.077510
  13 H :    0.016072
  14 H :    0.031058
  15 H :    0.042625
  16 S :    0.122206
  17 C :   -0.092867
  18 C :   -0.052486
  19 C :   -0.065618
  20 C :   -0.157380
  21 H :    0.029419
  22 C :    0.133513
  23 H :    0.004720
  24 H :    0.038125
  25 C :   -0.067795
  26 H :    0.027098
  27 H :    0.024463
  28 C :   -0.093140
  29 H :    0.041244
  30 H :    0.032411
  31 H :    0.046373
  32 H :    0.023042
  33 H :    0.065955
Sum of atomic charges:   -0.0000000

LOEWDIN ATOMIC CHARGES
----------------------
   0 S :    0.370351
   1 C :   -0.167767
   2 C :   -0.051164
   3 C :   -0.070750
   4 C :   -0.185390
   5 H :    0.041694
   6 C :   -0.037851
   7 H :    0.033928
   8 H :    0.043671
   9 C :   -0.042051
  10 H :    0.020168
  11 H :    0.014681
  12 C :   -0.074731
  13 H :    0.022845
  14 H :    0.025950
  15 H :    0.024793
  16 S :    0.415131
  17 C :   -0.201598
  18 C :   -0.079740
  19 C :   -0.046311
  20 C :   -0.196958
  21 H :    0.036149
  22 C :   -0.021735
  23 H :    0.027720
  24 H :    0.032166
  25 C :   -0.040067
  26 H :    0.027142
  27 H :    0.018960
  28 C :   -0.070792
  29 H :    0.024311
  30 H :    0.018278
  31 H :    0.038135
  32 H :    0.015491
  33 H :    0.035341

  Mayer bond orders larger than 0.100000
B(  0-S ,  1-C ) :   1.1097 B(  0-S ,  4-C ) :   1.1223 B(  1-C ,  2-C ) :   1.6281
B(  1-C , 32-H ) :   0.9777 B(  2-C ,  3-C ) :   1.2175 B(  2-C ,  6-C ) :   1.0216
B(  3-C ,  4-C ) :   1.6062 B(  3-C ,  5-H ) :   0.9749 B(  4-C , 20-C ) :   1.0626
B(  6-C ,  7-H ) :   0.9485 B(  6-C ,  8-H ) :   0.9397 B(  6-C ,  9-C ) :   1.0784
B(  9-C , 10-H ) :   0.9525 B(  9-C , 11-H ) :   0.9586 B(  9-C , 12-C ) :   1.0683
B( 12-C , 13-H ) :   0.9733 B( 12-C , 14-H ) :   0.9705 B( 12-C , 15-H ) :   0.9769
B( 16-S , 17-C ) :   1.1598 B( 16-S , 20-C ) :   1.1381 B( 17-C , 18-C ) :   1.6325
B( 17-C , 33-H ) :   0.9525 B( 18-C , 19-C ) :   1.2498 B( 18-C , 21-H ) :   0.9819
B( 19-C , 20-C ) :   1.5926 B( 19-C , 22-C ) :   1.0039 B( 22-C , 23-H ) :   0.9273
B( 22-C , 24-H ) :   0.9346 B( 22-C , 25-C ) :   1.0932 B( 25-C , 26-H ) :   0.9519
B( 25-C , 27-H ) :   0.9491 B( 25-C , 28-C ) :   1.0687 B( 28-C , 29-H ) :   0.9771
B( 28-C , 30-H ) :   0.9784 B( 28-C , 31-H ) :   0.9763

Dispersion correction           -0.014573426
FINAL SINGLE POINT ENERGY     -1339.847650153324

DIPOLE MOMENT
-------------
                                X             Y             Z
Electronic contribution:    -26.27256      11.67545      -7.21855
Nuclear contribution   :     26.73872     -12.03920       7.37046
                        -----------------------------------------
Total Dipole Moment    :      0.46616      -0.36375       0.15190
                        -----------------------------------------
Magnitude (a.u.)       :      0.61049
Magnitude (Debye)      :      1.55174

Rotational constants in cm-1:     0.018087     0.009354     0.006644
Rotational constants in MHz :   542.239786   280.412664   199.178931

                             ****ORCA TERMINATED NORMALLY****
TOTAL RUN TIME: 0 days 0 hours 0 minutes 20 seconds 750 msec
