                         Program Version 4.2.1 -  RELEASE  -
|  1> ! wB97X-D3 SP def2-SVP
|  2> %pal
|  3> nprocs 24
|  4> end
|  5>
|  6> * xyz 0 1
|  7> S 	 -37.8031 	 19.162 	 12.606
|  8> C 	 -38.5556 	 17.9601 	 13.6386
|  9> C 	 -39.1656 	 18.5848 	 14.7294
| 10> C 	 -38.8075 	 19.9502 	 14.8275
| 11> C 	 -38.2238 	 20.4542 	 13.6686
| 12> H 	 -39.0008 	 20.5132 	 15.7008
| 13> C 	 -39.9304 	 17.7613 	 15.8027
| 14> H 	 -39.4513 	 16.8148 	 15.9267
| 15> H 	 -40.8437 	 17.5274 	 15.3411
| 16> C 	 -40.0822 	 18.3729 	 17.1749
| 17> H 	 -39.0849 	 18.5926 	 17.5951
| 18> H 	 -40.663 	 19.3417 	 17.1955
| 19> C 	 -40.8275 	 17.4401 	 18.1271
| 20> H 	 -41.9145 	 17.1517 	 17.9492
| 21> H 	 -40.2728 	 16.4982 	 18.2748
| 22> H 	 -40.8393 	 17.8861 	 19.1642
| 23> S 	 -36.0641 	 21.9708 	 13.0489
| 24> C 	 -36.2003 	 23.7217 	 13.1838
| 25> C 	 -37.4758 	 24.1112 	 13.4651
| 26> C 	 -38.3421 	 23.0257 	 13.7224
| 27> C 	 -37.7393 	 21.7741 	 13.4909
| 28> H 	 -37.7407 	 25.1182 	 13.5736
| 29> C 	 -39.6837 	 23.1653 	 14.4164
| 30> H 	 -39.5079 	 23.1386 	 15.4883
| 31> H 	 -40.2362 	 22.3301 	 14.0459
| 32> C 	 -40.49 	 24.3842 	 14.0199
| 33> H 	 -39.9823 	 25.3522 	 14.2931
| 34> H 	 -41.3851 	 24.3639 	 14.6678
| 35> C 	 -40.8241 	 24.3877 	 12.5735
| 36> H 	 -41.3953 	 23.5234 	 12.3088
| 37> H 	 -39.937 	 24.4369 	 11.9144
| 38> H 	 -41.3158 	 25.2993 	 12.1498
| 39> H 	 -38.5807 	 16.8816 	 13.4628
| 40> H 	 -35.3113 	 24.3189 	 12.986
| 41> *
| 42>
| 43>                          ****END OF INPUT****

CARTESIAN COORDINATES (ANGSTROEM)
---------------------------------
  S    -37.803100   19.162000   12.606000
  C    -38.555600   17.960100   13.638600
  C    -39.165600   18.584800   14.729400
  C    -38.807500   19.950200   14.827500
  C    -38.223800   20.454200   13.668600
  H    -39.000800   20.513200   15.700800
  C    -39.930400   17.761300   15.802700
  H    -39.451300   16.814800   15.926700
  H    -40.843700   17.527400   15.341100
  C    -40.082200   18.372900   17.174900
  H    -39.084900   18.592600   17.595100
  H    -40.663000   19.341700   17.195500
  C    -40.827500   17.440100   18.127100
  H    -41.914500   17.151700   17.949200
  H    -40.272800   16.498200   18.274800
  H    -40.839300   17.886100   19.164200
  S    -36.064100   21.970800   13.048900
  C    -36.200300   23.721700   13.183800
  C    -37.475800   24.111200   13.465100
  C    -38.342100   23.025700   13.722400
  C    -37.739300   21.774100   13.490900
  H    -37.740700   25.118200   13.573600
  C    -39.683700   23.165300   14.416400
  H    -39.507900   23.138600   15.488300
  H    -40.236200   22.330100   14.045900
  C    -40.490000   24.384200   14.019900
  H    -39.982300   25.352200   14.293100
  H    -41.385100   24.363900   14.667800
  C    -40.824100   24.387700   12.573500
  H    -41.395300   23.523400   12.308800
  H    -39.937000   24.436900   11.914400
  H    -41.315800   25.299300   12.149800
  H    -38.580700   16.881600   13.462800
  H    -35.311300   24.318900   12.986000

 Total Charge           Charge          ....    0
 Multiplicity           Mult            ....    1
 Number of Electrons    NEL             ....  134
 Basis Dimension        Dim             ....  322

ORBITAL ENERGIES
----------------

  NO   OCC          E(Eh)            E(eV)
   0   2.0000     -88.966755     -2420.9085
   1   2.0000     -88.961465     -2420.7645
   2   2.0000     -10.323603      -280.9195
   3   2.0000     -10.320272      -280.8289
   4   2.0000     -10.316544      -280.7274
   5   2.0000     -10.313109      -280.6340
   6   2.0000     -10.300565      -280.2926
   7   2.0000     -10.299288      -280.2579
   8   2.0000     -10.295555      -280.1563
   9   2.0000     -10.289242      -279.9845
  10   2.0000     -10.289069      -279.9798
  11   2.0000     -10.287909      -279.9482
  12   2.0000     -10.287719      -279.9431
  13   2.0000     -10.287045      -279.9247
  14   2.0000     -10.286008      -279.8965
  15   2.0000     -10.273532      -279.5570
  16   2.0000      -8.081588      -219.9112
  17   2.0000      -8.076515      -219.7731
  18   2.0000      -6.040124      -164.3601
  19   2.0000      -6.035946      -164.2464
  20   2.0000      -6.034901      -164.2180
  21   2.0000      -6.032457      -164.1515
  22   2.0000      -6.031012      -164.1122
  23   2.0000      -6.027349      -164.0125
  24   2.0000      -1.009432       -27.4680
  25   2.0000      -0.983715       -26.7683
  26   2.0000      -0.917325       -24.9617
  27   2.0000      -0.913799       -24.8657
  28   2.0000      -0.873784       -23.7769
  29   2.0000      -0.850669       -23.1479
  30   2.0000      -0.843222       -22.9452
  31   2.0000      -0.814325       -22.1589
  32   2.0000      -0.784882       -21.3577
  33   2.0000      -0.770437       -20.9647
  34   2.0000      -0.712933       -19.3999
  35   2.0000      -0.698087       -18.9959
  36   2.0000      -0.690151       -18.7800
  37   2.0000      -0.656645       -17.8682
  38   2.0000      -0.638481       -17.3740
  39   2.0000      -0.623945       -16.9784
  40   2.0000      -0.600629       -16.3440
  41   2.0000      -0.572569       -15.5804
  42   2.0000      -0.568484       -15.4692
  43   2.0000      -0.564657       -15.3651
  44   2.0000      -0.535929       -14.5834
  45   2.0000      -0.526934       -14.3386
  46   2.0000      -0.516491       -14.0544
  47   2.0000      -0.506578       -13.7847
  48   2.0000      -0.503870       -13.7110
  49   2.0000      -0.501395       -13.6436
  50   2.0000      -0.492575       -13.4036
  51   2.0000      -0.476110       -12.9556
  52   2.0000      -0.475341       -12.9347
  53   2.0000      -0.465927       -12.6785
  54   2.0000      -0.459629       -12.5072
  55   2.0000      -0.451957       -12.2984
  56   2.0000      -0.447015       -12.1639
  57   2.0000      -0.435170       -11.8416
  58   2.0000      -0.433577       -11.7982
  59   2.0000      -0.423687       -11.5291
  60   2.0000      -0.419962       -11.4278
  61   2.0000      -0.415810       -11.3148
  62   2.0000      -0.407397       -11.0858
  63   2.0000      -0.348667        -9.4877
  64   2.0000      -0.330720        -8.9993
  65   2.0000      -0.327425        -8.9097
  66   2.0000      -0.284376        -7.7383
  67   0.0000       0.026640         0.7249
  68   0.0000       0.074782         2.0349
  69   0.0000       0.115109         3.1323
  70   0.0000       0.125377         3.4117
  71   0.0000       0.136688         3.7195

MULLIKEN ATOMIC CHARGES
-----------------------
   0 S :    0.116461
   1 C :   -0.143793
   2 C :   -0.086603
   3 C :    0.010580
   4 C :   -0.135727
   5 H :    0.002196
   6 C :    0.113740
   7 H :    0.014888
   8 H :    0.022586
   9 C :   -0.103084
  10 H :    0.041267
  11 H :    0.043256
  12 C :   -0.087273
  13 H :    0.048198
  14 H :    0.029527
  15 H :    0.035727
  16 S :    0.099594
  17 C :   -0.102311
  18 C :    0.006842
  19 C :   -0.073484
  20 C :   -0.151757
  21 H :   -0.003497
  22 C :    0.085180
  23 H :    0.052071
  24 H :    0.025423
  25 C :   -0.069622
  26 H :    0.026637
  27 H :    0.030497
  28 C :   -0.062211
  29 H :    0.030875
  30 H :    0.034408
  31 H :    0.032639
  32 H :    0.053951
  33 H :    0.062818
Sum of atomic charges:   -0.0000000

LOEWDIN ATOMIC CHARGES
----------------------
   0 S :    0.420593
   1 C :   -0.206096
   2 C :   -0.057552
   3 C :   -0.060101
   4 C :   -0.206407
   5 H :    0.023790
   6 C :   -0.027552
   7 H :    0.029020
   8 H :    0.028167
   9 C :   -0.049406
  10 H :    0.030909
  11 H :    0.029873
  12 C :   -0.079154
  13 H :    0.032420
  14 H :    0.023167
  15 H :    0.031525
  16 S :    0.401130
  17 C :   -0.173946
  18 C :   -0.067703
  19 C :   -0.052967
  20 C :   -0.205064
  21 H :    0.023783
  22 C :   -0.028183
  23 H :    0.034693
  24 H :    0.030722
  25 C :   -0.049334
  26 H :    0.023471
  27 H :    0.028591
  28 C :   -0.074201
  29 H :    0.023069
  30 H :    0.030925
  31 H :    0.031938
  32 H :    0.031228
  33 H :    0.028655

  Mayer bond orders larger than 0.100000
B(  0-S ,  1-C ) :   1.1449 B(  0-S ,  4-C ) :   1.1629 B(  1-C ,  2-C ) :   1.5804
B(  1-C ,  4-C ) :   0.1031 B(  1-C , 32-H ) :   0.9720 B(  2-C ,  3-C ) :   1.2920
B(  2-C ,  6-C ) :   0.9959 B(  3-C ,  4-C ) :   1.5064 B(  3-C ,  5-H ) :   0.9948
B(  4-C , 20-C ) :   1.0767 B(  6-C ,  7-H ) :   0.9428 B(  6-C ,  8-H ) :   0.9280
B(  6-C ,  9-C ) :   1.0838 B(  9-C , 10-H ) :   0.9505 B(  9-C , 11-H ) :   0.9470
B(  9-C , 12-C ) :   1.0871 B( 12-C , 13-H ) :   0.9751 B( 12-C , 14-H ) :   0.9723
B( 12-C , 15-H ) :   0.9725 B( 16-S , 17-C ) :   1.1596 B( 16-S , 20-C ) :   1.1463
B( 17-C , 18-C ) :   1.5797 B( 17-C , 20-C ) :   0.1033 B( 17-C , 33-H ) :   0.9688
B( 18-C , 19-C ) :   1.2503 B( 18-C , 21-H ) :   1.0035 B( 19-C , 20-C ) :   1.5746
B( 19-C , 22-C ) :   1.0310 B( 22-C , 23-H ) :   0.9329 B( 22-C , 24-H ) :   0.9226
B( 22-C , 25-C ) :   1.0844 B( 25-C , 26-H ) :   0.9463 B( 25-C , 27-H ) :   0.9506
B( 25-C , 28-C ) :   1.0834 B( 28-C , 29-H ) :   0.9737 B( 28-C , 30-H ) :   0.9668
B( 28-C , 31-H ) :   0.9704

Dispersion correction           -0.013996119
FINAL SINGLE POINT ENERGY     -1339.884817238005

DIPOLE MOMENT
-------------
                                X             Y             Z
Electronic contribution:     21.80850      -1.87664     -16.47105
Nuclear contribution   :    -22.20246       1.95862      17.04041
                        -----------------------------------------
Total Dipole Moment    :     -0.39395       0.08198       0.56936
                        -----------------------------------------
Magnitude (a.u.)       :      0.69720
Magnitude (Debye)      :      1.77214

Rotational constants in cm-1:     0.018438     0.008318     0.006667
Rotational constants in MHz :   552.763961   249.363337   199.884359

                             ****ORCA TERMINATED NORMALLY****
TOTAL RUN TIME: 0 days 0 hours 0 minutes 20 seconds 517 msec
