                         Program Version 4.2.1 -  RELEASE  -
|  1> ! wB97X-D3 SP def2-SVP
|  2> %pal
|  3> nprocs 24
|  4> end
|  5>
|  6> * xyz 0 1
|  7> S 	 -80.7515 	 -27.0547 	 -54.507
|  8> C 	 -79.6479 	 -27.0516 	 -53.1293
|  9> C 	 -80.1515 	 -27.9865 	 -52.2147
| 10> C 	 -81.3505 	 -28.6147 	 -52.7244
| 11> C 	 -81.8637 	 -28.2367 	 -53.9047
| 12> H 	 -82.0321 	 -29.2573 	 -52.157
| 13> C 	 -79.7744 	 -28.3169 	 -50.737
| 14> H 	 -80.4766 	 -29.1237 	 -50.4158
| 15> H 	 -79.7814 	 -27.4141 	 -50.0807
| 16> C 	 -78.32 	 -28.902 	 -50.6119
| 17> H 	 -78.2465 	 -29.8884 	 -51.1923
| 18> H 	 -77.6054 	 -28.2001 	 -51.1122
| 19> C 	 -77.9408 	 -29.0764 	 -49.1349
| 20> H 	 -77.8796 	 -28.2172 	 -48.5214
| 21> H 	 -78.5934 	 -29.7486 	 -48.6337
| 22> H 	 -76.9009 	 -29.527 	 -49.0981
| 23> S 	 -83.9337 	 -27.0698 	 -55.3451
| 24> C 	 -85.4735 	 -27.8366 	 -55.5431
| 25> C 	 -85.3761 	 -29.0543 	 -54.9817
| 26> C 	 -84.1773 	 -29.4227 	 -54.2618
| 27> C 	 -83.2084 	 -28.4393 	 -54.4763
| 28> H 	 -86.2467 	 -29.6441 	 -55.1937
| 29> C 	 -83.9985 	 -30.7753 	 -53.6441
| 30> H 	 -84.9944 	 -31.0737 	 -53.3462
| 31> H 	 -83.3702 	 -30.5815 	 -52.7744
| 32> C 	 -83.2415 	 -31.8296 	 -54.4769
| 33> H 	 -83.78 	 -31.9926 	 -55.4036
| 34> H 	 -83.3463 	 -32.7743 	 -54.0083
| 35> C 	 -81.8143 	 -31.637 	 -54.8342
| 36> H 	 -81.2708 	 -31.2772 	 -53.9278
| 37> H 	 -81.6927 	 -30.7768 	 -55.4544
| 38> H 	 -81.3103 	 -32.5146 	 -55.1935
| 39> H 	 -78.7109 	 -26.4433 	 -52.9946
| 40> H 	 -86.3706 	 -27.4599 	 -55.9681
| 41> *
| 42>
| 43>                          ****END OF INPUT****

CARTESIAN COORDINATES (ANGSTROEM)
---------------------------------
  S    -80.751500  -27.054700  -54.507000
  C    -79.647900  -27.051600  -53.129300
  C    -80.151500  -27.986500  -52.214700
  C    -81.350500  -28.614700  -52.724400
  C    -81.863700  -28.236700  -53.904700
  H    -82.032100  -29.257300  -52.157000
  C    -79.774400  -28.316900  -50.737000
  H    -80.476600  -29.123700  -50.415800
  H    -79.781400  -27.414100  -50.080700
  C    -78.320000  -28.902000  -50.611900
  H    -78.246500  -29.888400  -51.192300
  H    -77.605400  -28.200100  -51.112200
  C    -77.940800  -29.076400  -49.134900
  H    -77.879600  -28.217200  -48.521400
  H    -78.593400  -29.748600  -48.633700
  H    -76.900900  -29.527000  -49.098100
  S    -83.933700  -27.069800  -55.345100
  C    -85.473500  -27.836600  -55.543100
  C    -85.376100  -29.054300  -54.981700
  C    -84.177300  -29.422700  -54.261800
  C    -83.208400  -28.439300  -54.476300
  H    -86.246700  -29.644100  -55.193700
  C    -83.998500  -30.775300  -53.644100
  H    -84.994400  -31.073700  -53.346200
  H    -83.370200  -30.581500  -52.774400
  C    -83.241500  -31.829600  -54.476900
  H    -83.780000  -31.992600  -55.403600
  H    -83.346300  -32.774300  -54.008300
  C    -81.814300  -31.637000  -54.834200
  H    -81.270800  -31.277200  -53.927800
  H    -81.692700  -30.776800  -55.454400
  H    -81.310300  -32.514600  -55.193500
  H    -78.710900  -26.443300  -52.994600
  H    -86.370600  -27.459900  -55.968100

 Total Charge           Charge          ....    0
 Multiplicity           Mult            ....    1
 Number of Electrons    NEL             ....  134
 Basis Dimension        Dim             ....  322

ORBITAL ENERGIES
----------------

  NO   OCC          E(Eh)            E(eV)
   0   2.0000     -88.963870     -2420.8300
   1   2.0000     -88.963422     -2420.8178
   2   2.0000     -10.338084      -281.3136
   3   2.0000     -10.329901      -281.0909
   4   2.0000     -10.326696      -281.0037
   5   2.0000     -10.311983      -280.6033
   6   2.0000     -10.309921      -280.5472
   7   2.0000     -10.308637      -280.5123
   8   2.0000     -10.304205      -280.3917
   9   2.0000     -10.298090      -280.2253
  10   2.0000     -10.295587      -280.1572
  11   2.0000     -10.290439      -280.0171
  12   2.0000     -10.288839      -279.9736
  13   2.0000     -10.278615      -279.6953
  14   2.0000     -10.277613      -279.6681
  15   2.0000     -10.267579      -279.3950
  16   2.0000      -8.078605      -219.8300
  17   2.0000      -8.078217      -219.8195
  18   2.0000      -6.037291      -164.2830
  19   2.0000      -6.036897      -164.2723
  20   2.0000      -6.032985      -164.1659
  21   2.0000      -6.032509      -164.1529
  22   2.0000      -6.029257      -164.0644
  23   2.0000      -6.028940      -164.0558
  24   2.0000      -1.011382       -27.5211
  25   2.0000      -0.988653       -26.9026
  26   2.0000      -0.915893       -24.9227
  27   2.0000      -0.904496       -24.6126
  28   2.0000      -0.873080       -23.7577
  29   2.0000      -0.854128       -23.2420
  30   2.0000      -0.841313       -22.8933
  31   2.0000      -0.821499       -22.3541
  32   2.0000      -0.784676       -21.3521
  33   2.0000      -0.774369       -21.0717
  34   2.0000      -0.709031       -19.2937
  35   2.0000      -0.701595       -19.0914
  36   2.0000      -0.693872       -18.8812
  37   2.0000      -0.660561       -17.9748
  38   2.0000      -0.640639       -17.4327
  39   2.0000      -0.619234       -16.8502
  40   2.0000      -0.594437       -16.1755
  41   2.0000      -0.567249       -15.4356
  42   2.0000      -0.564040       -15.3483
  43   2.0000      -0.561899       -15.2900
  44   2.0000      -0.543710       -14.7951
  45   2.0000      -0.524651       -14.2765
  46   2.0000      -0.514126       -13.9901
  47   2.0000      -0.511934       -13.9304
  48   2.0000      -0.508061       -13.8250
  49   2.0000      -0.505491       -13.7551
  50   2.0000      -0.499183       -13.5834
  51   2.0000      -0.480106       -13.0644
  52   2.0000      -0.475547       -12.9403
  53   2.0000      -0.469583       -12.7780
  54   2.0000      -0.460673       -12.5356
  55   2.0000      -0.451327       -12.2812
  56   2.0000      -0.444076       -12.0839
  57   2.0000      -0.434386       -11.8202
  58   2.0000      -0.427996       -11.6464
  59   2.0000      -0.422837       -11.5060
  60   2.0000      -0.417130       -11.3507
  61   2.0000      -0.404503       -11.0071
  62   2.0000      -0.401387       -10.9223
  63   2.0000      -0.365035        -9.9331
  64   2.0000      -0.330974        -9.0063
  65   2.0000      -0.323538        -8.8039
  66   2.0000      -0.291595        -7.9347
  67   0.0000       0.021322         0.5802
  68   0.0000       0.078859         2.1459
  69   0.0000       0.115426         3.1409
  70   0.0000       0.118941         3.2366
  71   0.0000       0.127540         3.4705

MULLIKEN ATOMIC CHARGES
-----------------------
   0 S :    0.081715
   1 C :   -0.136819
   2 C :   -0.070777
   3 C :   -0.018411
   4 C :   -0.114282
   5 H :    0.009708
   6 C :    0.038963
   7 H :    0.038986
   8 H :    0.050247
   9 C :   -0.129953
  10 H :    0.047261
  11 H :    0.035476
  12 C :   -0.028227
  13 H :    0.024757
  14 H :    0.021533
  15 H :    0.037907
  16 S :    0.091845
  17 C :   -0.071152
  18 C :   -0.048940
  19 C :   -0.061159
  20 C :   -0.119822
  21 H :    0.008025
  22 C :    0.103321
  23 H :    0.022602
  24 H :    0.009031
  25 C :   -0.033881
  26 H :    0.013016
  27 H :    0.014873
  28 C :   -0.033024
  29 H :    0.015127
  30 H :    0.036515
  31 H :    0.040028
  32 H :    0.078193
  33 H :    0.047318
Sum of atomic charges:    0.0000000

LOEWDIN ATOMIC CHARGES
----------------------
   0 S :    0.405072
   1 C :   -0.202241
   2 C :   -0.065747
   3 C :   -0.081615
   4 C :   -0.198123
   5 H :    0.025194
   6 C :   -0.031865
   7 H :    0.034515
   8 H :    0.036935
   9 C :   -0.047995
  10 H :    0.033291
  11 H :    0.022972
  12 C :   -0.069375
  13 H :    0.018967
  14 H :    0.019599
  15 H :    0.035582
  16 S :    0.400406
  17 C :   -0.185917
  18 C :   -0.076538
  19 C :   -0.057918
  20 C :   -0.180742
  21 H :    0.027355
  22 C :   -0.025520
  23 H :    0.034646
  24 H :    0.028166
  25 C :   -0.037779
  26 H :    0.022252
  27 H :    0.020569
  28 C :   -0.064224
  29 H :    0.027431
  30 H :    0.024695
  31 H :    0.028766
  32 H :    0.047192
  33 H :    0.031999

  Mayer bond orders larger than 0.100000
B(  0-S ,  1-C ) :   1.1397 B(  0-S ,  4-C ) :   1.1376 B(  1-C ,  2-C ) :   1.5863
B(  1-C , 32-H ) :   0.9669 B(  2-C ,  3-C ) :   1.2672 B(  2-C ,  6-C ) :   1.0051
B(  3-C ,  4-C ) :   1.6020 B(  3-C ,  5-H ) :   0.9722 B(  4-C , 20-C ) :   1.0431
B(  6-C ,  7-H ) :   0.9466 B(  6-C ,  8-H ) :   0.9475 B(  6-C ,  9-C ) :   1.0534
B(  9-C , 10-H ) :   0.9559 B(  9-C , 11-H ) :   0.9609 B(  9-C , 12-C ) :   1.0780
B( 12-C , 13-H ) :   0.9748 B( 12-C , 14-H ) :   0.9737 B( 12-C , 15-H ) :   0.9722
B( 16-S , 17-C ) :   1.1344 B( 16-S , 20-C ) :   1.1448 B( 17-C , 18-C ) :   1.6436
B( 17-C , 33-H ) :   0.9711 B( 18-C , 19-C ) :   1.2180 B( 18-C , 21-H ) :   0.9883
B( 19-C , 20-C ) :   1.5738 B( 19-C , 22-C ) :   1.0505 B( 22-C , 23-H ) :   0.9222
B( 22-C , 24-H ) :   0.9258 B( 22-C , 25-C ) :   1.0784 B( 25-C , 26-H ) :   0.9472
B( 25-C , 27-H ) :   0.9503 B( 25-C , 28-C ) :   1.0904 B( 28-C , 29-H ) :   0.9678
B( 28-C , 30-H ) :   0.9681 B( 28-C , 31-H ) :   0.9684

Dispersion correction           -0.014652637
FINAL SINGLE POINT ENERGY     -1339.861759731117

DIPOLE MOMENT
-------------
                                X             Y             Z
Electronic contribution:    -11.94068      19.17157     -17.46016
Nuclear contribution   :     11.81108     -19.62168      17.99019
                        -----------------------------------------
Total Dipole Moment    :     -0.12960      -0.45011       0.53003
                        -----------------------------------------
Magnitude (a.u.)       :      0.70734
Magnitude (Debye)      :      1.79791

Rotational constants in cm-1:     0.021734     0.008023     0.006621
Rotational constants in MHz :   651.554870   240.512963   198.487981

                             ****ORCA TERMINATED NORMALLY****
TOTAL RUN TIME: 0 days 0 hours 0 minutes 20 seconds 813 msec
