                         Program Version 4.2.1 -  RELEASE  -
|  1> ! wB97X-D3 SP def2-SVP
|  2> %pal
|  3> nprocs 24
|  4> end
|  5>
|  6> * xyz 0 1
|  7> S 	 -102.251 	 -1.57561 	 -122.336
|  8> C 	 -103.733 	 -2.32356 	 -122.974
|  9> C 	 -104.491 	 -2.84845 	 -121.96
| 10> C 	 -103.852 	 -2.7282 	 -120.701
| 11> C 	 -102.596 	 -2.14614 	 -120.717
| 12> H 	 -104.392 	 -3.02748 	 -119.817
| 13> C 	 -105.788 	 -3.58142 	 -122.085
| 14> H 	 -105.755 	 -4.63509 	 -121.835
| 15> H 	 -105.987 	 -3.7839 	 -123.176
| 16> C 	 -106.951 	 -2.8861 	 -121.571
| 17> H 	 -106.983 	 -2.97775 	 -120.522
| 18> H 	 -106.788 	 -1.85449 	 -121.89
| 19> C 	 -108.29 	 -3.48594 	 -121.936
| 20> H 	 -108.514 	 -3.19975 	 -122.978
| 21> H 	 -108.449 	 -4.57728 	 -121.901
| 22> H 	 -109.036 	 -2.98512 	 -121.371
| 23> S 	 -100.809 	 -0.429173 	 -119.558
| 24> C 	 -99.8537 	 -0.931294 	 -118.15
| 25> C 	 -100.345 	 -2.13749 	 -117.728
| 26> C 	 -101.318 	 -2.69979 	 -118.542
| 27> C 	 -101.676 	 -1.89796 	 -119.598
| 28> H 	 -99.9887 	 -2.6004 	 -116.827
| 29> C 	 -102.023 	 -3.94012 	 -118.076
| 30> H 	 -103.106 	 -3.68135 	 -118.055
| 31> H 	 -101.872 	 -4.19345 	 -116.993
| 32> C 	 -101.973 	 -5.19128 	 -119.001
| 33> H 	 -100.96 	 -5.42948 	 -119.21
| 34> H 	 -102.492 	 -4.94789 	 -119.968
| 35> C 	 -102.655 	 -6.39209 	 -118.282
| 36> H 	 -103.639 	 -6.04398 	 -117.954
| 37> H 	 -102.151 	 -6.81405 	 -117.414
| 38> H 	 -102.738 	 -7.1338 	 -119.084
| 39> H 	 -104.068 	 -2.33761 	 -124.03
| 40> H 	 -99.0626 	 -0.341205 	 -117.761
| 41> *
| 42>
| 43>                          ****END OF INPUT****

CARTESIAN COORDINATES (ANGSTROEM)
---------------------------------
  S    -102.251000   -1.575610  -122.336000
  C    -103.733000   -2.323560  -122.974000
  C    -104.491000   -2.848450  -121.960000
  C    -103.852000   -2.728200  -120.701000
  C    -102.596000   -2.146140  -120.717000
  H    -104.392000   -3.027480  -119.817000
  C    -105.788000   -3.581420  -122.085000
  H    -105.755000   -4.635090  -121.835000
  H    -105.987000   -3.783900  -123.176000
  C    -106.951000   -2.886100  -121.571000
  H    -106.983000   -2.977750  -120.522000
  H    -106.788000   -1.854490  -121.890000
  C    -108.290000   -3.485940  -121.936000
  H    -108.514000   -3.199750  -122.978000
  H    -108.449000   -4.577280  -121.901000
  H    -109.036000   -2.985120  -121.371000
  S    -100.809000   -0.429173  -119.558000
  C    -99.853700   -0.931294  -118.150000
  C    -100.345000   -2.137490  -117.728000
  C    -101.318000   -2.699790  -118.542000
  C    -101.676000   -1.897960  -119.598000
  H    -99.988700   -2.600400  -116.827000
  C    -102.023000   -3.940120  -118.076000
  H    -103.106000   -3.681350  -118.055000
  H    -101.872000   -4.193450  -116.993000
  C    -101.973000   -5.191280  -119.001000
  H    -100.960000   -5.429480  -119.210000
  H    -102.492000   -4.947890  -119.968000
  C    -102.655000   -6.392090  -118.282000
  H    -103.639000   -6.043980  -117.954000
  H    -102.151000   -6.814050  -117.414000
  H    -102.738000   -7.133800  -119.084000
  H    -104.068000   -2.337610  -124.030000
  H    -99.062600   -0.341205  -117.761000

 Total Charge           Charge          ....    0
 Multiplicity           Mult            ....    1
 Number of Electrons    NEL             ....  134
 Basis Dimension        Dim             ....  322

ORBITAL ENERGIES
----------------

  NO   OCC          E(Eh)            E(eV)
   0   2.0000     -88.968566     -2420.9578
   1   2.0000     -88.964402     -2420.8445
   2   2.0000     -10.334244      -281.2091
   3   2.0000     -10.324430      -280.9420
   4   2.0000     -10.319104      -280.7971
   5   2.0000     -10.316024      -280.7133
   6   2.0000     -10.297565      -280.2110
   7   2.0000     -10.294730      -280.1338
   8   2.0000     -10.292570      -280.0751
   9   2.0000     -10.292034      -280.0605
  10   2.0000     -10.288178      -279.9555
  11   2.0000     -10.286453      -279.9086
  12   2.0000     -10.283956      -279.8407
  13   2.0000     -10.278743      -279.6988
  14   2.0000     -10.278043      -279.6798
  15   2.0000     -10.277491      -279.6648
  16   2.0000      -8.082735      -219.9424
  17   2.0000      -8.079791      -219.8623
  18   2.0000      -6.041378      -164.3942
  19   2.0000      -6.038205      -164.3079
  20   2.0000      -6.037306      -164.2834
  21   2.0000      -6.034123      -164.1968
  22   2.0000      -6.033385      -164.1768
  23   2.0000      -6.030694      -164.1035
  24   2.0000      -1.013198       -27.5705
  25   2.0000      -0.989546       -26.9269
  26   2.0000      -0.927917       -25.2499
  27   2.0000      -0.904407       -24.6102
  28   2.0000      -0.874808       -23.8047
  29   2.0000      -0.851411       -23.1681
  30   2.0000      -0.848607       -23.0918
  31   2.0000      -0.816773       -22.2255
  32   2.0000      -0.785279       -21.3685
  33   2.0000      -0.770333       -20.9618
  34   2.0000      -0.710441       -19.3321
  35   2.0000      -0.699620       -19.0376
  36   2.0000      -0.691266       -18.8103
  37   2.0000      -0.669388       -18.2150
  38   2.0000      -0.640682       -17.4338
  39   2.0000      -0.627855       -17.0848
  40   2.0000      -0.602406       -16.3923
  41   2.0000      -0.584381       -15.9018
  42   2.0000      -0.566232       -15.4079
  43   2.0000      -0.557673       -15.1751
  44   2.0000      -0.531139       -14.4530
  45   2.0000      -0.524552       -14.2738
  46   2.0000      -0.522290       -14.2122
  47   2.0000      -0.519245       -14.1294
  48   2.0000      -0.503762       -13.7081
  49   2.0000      -0.499512       -13.5924
  50   2.0000      -0.493369       -13.4252
  51   2.0000      -0.484955       -13.1963
  52   2.0000      -0.470020       -12.7899
  53   2.0000      -0.463942       -12.6245
  54   2.0000      -0.453265       -12.3340
  55   2.0000      -0.452028       -12.3003
  56   2.0000      -0.445672       -12.1273
  57   2.0000      -0.440455       -11.9854
  58   2.0000      -0.434944       -11.8354
  59   2.0000      -0.426402       -11.6030
  60   2.0000      -0.417628       -11.3642
  61   2.0000      -0.412281       -11.2187
  62   2.0000      -0.401565       -10.9271
  63   2.0000      -0.353427        -9.6172
  64   2.0000      -0.333754        -9.0819
  65   2.0000      -0.331513        -9.0209
  66   2.0000      -0.289544        -7.8789
  67   0.0000       0.023276         0.6334
  68   0.0000       0.077226         2.1014
  69   0.0000       0.104704         2.8491
  70   0.0000       0.118181         3.2159
  71   0.0000       0.139540         3.7971

MULLIKEN ATOMIC CHARGES
-----------------------
   0 S :    0.108472
   1 C :   -0.131162
   2 C :   -0.079056
   3 C :    0.012445
   4 C :   -0.113424
   5 H :    0.008822
   6 C :    0.055423
   7 H :    0.021407
   8 H :   -0.001732
   9 C :   -0.055372
  10 H :    0.017708
  11 H :    0.038013
  12 C :   -0.038211
  13 H :    0.020514
  14 H :    0.040206
  15 H :    0.025938
  16 S :    0.095885
  17 C :   -0.091211
  18 C :   -0.023349
  19 C :    0.016489
  20 C :   -0.136950
  21 H :    0.009908
  22 C :   -0.009687
  23 H :    0.023280
  24 H :    0.026607
  25 C :   -0.083603
  26 H :    0.024043
  27 H :    0.054792
  28 C :   -0.039907
  29 H :    0.019527
  30 H :    0.039546
  31 H :    0.037396
  32 H :    0.056899
  33 H :    0.050342
Sum of atomic charges:   -0.0000000

LOEWDIN ATOMIC CHARGES
----------------------
   0 S :    0.396931
   1 C :   -0.189956
   2 C :   -0.067381
   3 C :   -0.063744
   4 C :   -0.184851
   5 H :    0.027848
   6 C :   -0.043044
   7 H :    0.028842
   8 H :    0.030449
   9 C :   -0.043672
  10 H :    0.017788
  11 H :    0.033684
  12 C :   -0.062416
  13 H :    0.024944
  14 H :    0.030419
  15 H :    0.023570
  16 S :    0.415636
  17 C :   -0.171536
  18 C :   -0.064845
  19 C :   -0.066962
  20 C :   -0.207657
  21 H :    0.030280
  22 C :   -0.042008
  23 H :    0.030361
  24 H :    0.032814
  25 C :   -0.036250
  26 H :    0.015812
  27 H :    0.032529
  28 C :   -0.063836
  29 H :    0.021167
  30 H :    0.024515
  31 H :    0.028899
  32 H :    0.037545
  33 H :    0.024127

  Mayer bond orders larger than 0.100000
B(  0-S ,  1-C ) :   1.1259 B(  0-S ,  4-C ) :   1.1506 B(  1-C ,  2-C ) :   1.6198
B(  1-C , 32-H ) :   0.9594 B(  2-C ,  3-C ) :   1.2550 B(  2-C ,  6-C ) :   1.0303
B(  3-C ,  4-C ) :   1.5487 B(  3-C ,  5-H ) :   0.9957 B(  4-C , 20-C ) :   1.0393
B(  6-C ,  7-H ) :   0.9313 B(  6-C ,  8-H ) :   0.9323 B(  6-C ,  9-C ) :   1.0688
B(  9-C , 10-H ) :   0.9504 B(  9-C , 11-H ) :   0.9507 B(  9-C , 12-C ) :   1.0882
B( 12-C , 13-H ) :   0.9708 B( 12-C , 14-H ) :   0.9727 B( 12-C , 15-H ) :   0.9734
B( 16-S , 17-C ) :   1.1559 B( 16-S , 20-C ) :   1.1585 B( 17-C , 18-C ) :   1.5513
B( 17-C , 20-C ) :   0.1047 B( 17-C , 33-H ) :   0.9808 B( 18-C , 19-C ) :   1.2865
B( 18-C , 21-H ) :   0.9972 B( 19-C , 20-C ) :   1.5620 B( 19-C , 22-C ) :   1.0289
B( 22-C , 23-H ) :   0.9347 B( 22-C , 24-H ) :   0.9481 B( 22-C , 25-C ) :   1.0477
B( 25-C , 26-H ) :   0.9586 B( 25-C , 27-H ) :   0.9509 B( 25-C , 28-C ) :   1.0756
B( 28-C , 29-H ) :   0.9734 B( 28-C , 30-H ) :   0.9770 B( 28-C , 31-H ) :   0.9753

Dispersion correction           -0.014212134
FINAL SINGLE POINT ENERGY     -1339.874489638731

DIPOLE MOMENT
-------------
                                X             Y             Z
Electronic contribution:     22.24567      21.73962      -4.24765
Nuclear contribution   :    -22.69159     -22.18119       4.51776
                        -----------------------------------------
Total Dipole Moment    :     -0.44592      -0.44157       0.27010
                        -----------------------------------------
Magnitude (a.u.)       :      0.68322
Magnitude (Debye)      :      1.73660

Rotational constants in cm-1:     0.018409     0.008795     0.006752
Rotational constants in MHz :   551.884041   263.653127   202.412398

                             ****ORCA TERMINATED NORMALLY****
TOTAL RUN TIME: 0 days 0 hours 0 minutes 21 seconds 897 msec
