                         Program Version 4.2.1 -  RELEASE  -
|  1> ! wB97X-D3 SP def2-SVP
|  2> %pal
|  3> nprocs 24
|  4> end
|  5>
|  6> * xyz 0 1
|  7> S 	 -56.7299 	 15.6972 	 21.3552
|  8> C 	 -57.0892 	 14.0478 	 20.8791
|  9> C 	 -55.9577 	 13.282 	 20.9468
| 10> C 	 -54.7662 	 14.042 	 21.2774
| 11> C 	 -55.0076 	 15.3567 	 21.5785
| 12> H 	 -53.7416 	 13.6733 	 21.3917
| 13> C 	 -55.9299 	 11.7996 	 20.7813
| 14> H 	 -55.1192 	 11.5538 	 21.4016
| 15> H 	 -55.6235 	 11.6915 	 19.7258
| 16> C 	 -57.1756 	 11.0737 	 21.1375
| 17> H 	 -57.5684 	 11.2641 	 22.1386
| 18> H 	 -57.9643 	 11.3441 	 20.5175
| 19> C 	 -56.9319 	 9.56444 	 20.9746
| 20> H 	 -56.8046 	 9.41704 	 19.8984
| 21> H 	 -56.1914 	 9.14856 	 21.5651
| 22> H 	 -57.8045 	 9.06343 	 21.3559
| 23> S 	 -54.1429 	 17.5704 	 23.1537
| 24> C 	 -52.6541 	 18.3821 	 22.7118
| 25> C 	 -52.146 	 17.8575 	 21.578
| 26> C 	 -52.9253 	 16.7805 	 21.0143
| 27> C 	 -54.0653 	 16.4689 	 21.7614
| 28> H 	 -51.1634 	 18.2643 	 21.2969
| 29> C 	 -52.4367 	 16.0527 	 19.7812
| 30> H 	 -53.3367 	 15.485 	 19.5161
| 31> H 	 -51.7424 	 15.3492 	 20.0759
| 32> C 	 -52.1321 	 16.7967 	 18.4326
| 33> H 	 -52.8423 	 17.5453 	 18.1257
| 34> H 	 -52.089 	 15.9992 	 17.6515
| 35> C 	 -50.6651 	 17.3978 	 18.439
| 36> H 	 -50.5629 	 18.1591 	 19.15
| 37> H 	 -50.2951 	 17.8569 	 17.5339
| 38> H 	 -49.9315 	 16.6547 	 18.7309
| 39> H 	 -58.0273 	 13.7801 	 20.469
| 40> H 	 -52.2291 	 19.205 	 23.4122
| 41> *
| 42>
| 43>                          ****END OF INPUT****

CARTESIAN COORDINATES (ANGSTROEM)
---------------------------------
  S    -56.729900   15.697200   21.355200
  C    -57.089200   14.047800   20.879100
  C    -55.957700   13.282000   20.946800
  C    -54.766200   14.042000   21.277400
  C    -55.007600   15.356700   21.578500
  H    -53.741600   13.673300   21.391700
  C    -55.929900   11.799600   20.781300
  H    -55.119200   11.553800   21.401600
  H    -55.623500   11.691500   19.725800
  C    -57.175600   11.073700   21.137500
  H    -57.568400   11.264100   22.138600
  H    -57.964300   11.344100   20.517500
  C    -56.931900    9.564440   20.974600
  H    -56.804600    9.417040   19.898400
  H    -56.191400    9.148560   21.565100
  H    -57.804500    9.063430   21.355900
  S    -54.142900   17.570400   23.153700
  C    -52.654100   18.382100   22.711800
  C    -52.146000   17.857500   21.578000
  C    -52.925300   16.780500   21.014300
  C    -54.065300   16.468900   21.761400
  H    -51.163400   18.264300   21.296900
  C    -52.436700   16.052700   19.781200
  H    -53.336700   15.485000   19.516100
  H    -51.742400   15.349200   20.075900
  C    -52.132100   16.796700   18.432600
  H    -52.842300   17.545300   18.125700
  H    -52.089000   15.999200   17.651500
  C    -50.665100   17.397800   18.439000
  H    -50.562900   18.159100   19.150000
  H    -50.295100   17.856900   17.533900
  H    -49.931500   16.654700   18.730900
  H    -58.027300   13.780100   20.469000
  H    -52.229100   19.205000   23.412200

 Total Charge           Charge          ....    0
 Multiplicity           Mult            ....    1
 Number of Electrons    NEL             ....  134
 Basis Dimension        Dim             ....  322

ORBITAL ENERGIES
----------------

  NO   OCC          E(Eh)            E(eV)
   0   2.0000     -88.960701     -2420.7437
   1   2.0000     -88.958494     -2420.6837
   2   2.0000     -10.331418      -281.1322
   3   2.0000     -10.331289      -281.1287
   4   2.0000     -10.322574      -280.8915
   5   2.0000     -10.309495      -280.5356
   6   2.0000     -10.307369      -280.4778
   7   2.0000     -10.299214      -280.2559
   8   2.0000     -10.297787      -280.2170
   9   2.0000     -10.296369      -280.1784
  10   2.0000     -10.292437      -280.0714
  11   2.0000     -10.285612      -279.8857
  12   2.0000     -10.284658      -279.8598
  13   2.0000     -10.280088      -279.7354
  14   2.0000     -10.271155      -279.4923
  15   2.0000     -10.270830      -279.4835
  16   2.0000      -8.075402      -219.7429
  17   2.0000      -8.073375      -219.6877
  18   2.0000      -6.033986      -164.1931
  19   2.0000      -6.031930      -164.1372
  20   2.0000      -6.029845      -164.0804
  21   2.0000      -6.027843      -164.0259
  22   2.0000      -6.026150      -163.9799
  23   2.0000      -6.024080      -163.9236
  24   2.0000      -1.002984       -27.2926
  25   2.0000      -0.983205       -26.7544
  26   2.0000      -0.922822       -25.1113
  27   2.0000      -0.901061       -24.5191
  28   2.0000      -0.871448       -23.7133
  29   2.0000      -0.850555       -23.1448
  30   2.0000      -0.840821       -22.8799
  31   2.0000      -0.819386       -22.2966
  32   2.0000      -0.784704       -21.3529
  33   2.0000      -0.771456       -20.9924
  34   2.0000      -0.718761       -19.5585
  35   2.0000      -0.709172       -19.2976
  36   2.0000      -0.691602       -18.8194
  37   2.0000      -0.653744       -17.7893
  38   2.0000      -0.641993       -17.4695
  39   2.0000      -0.613602       -16.6969
  40   2.0000      -0.593374       -16.1465
  41   2.0000      -0.581855       -15.8331
  42   2.0000      -0.570088       -15.5129
  43   2.0000      -0.548967       -14.9381
  44   2.0000      -0.531266       -14.4565
  45   2.0000      -0.530207       -14.4277
  46   2.0000      -0.520312       -14.1584
  47   2.0000      -0.519620       -14.1396
  48   2.0000      -0.508786       -13.8448
  49   2.0000      -0.502632       -13.6773
  50   2.0000      -0.493097       -13.4178
  51   2.0000      -0.479113       -13.0373
  52   2.0000      -0.474741       -12.9184
  53   2.0000      -0.466873       -12.7043
  54   2.0000      -0.453741       -12.3469
  55   2.0000      -0.448606       -12.2072
  56   2.0000      -0.444827       -12.1044
  57   2.0000      -0.442393       -12.0381
  58   2.0000      -0.430949       -11.7267
  59   2.0000      -0.426463       -11.6046
  60   2.0000      -0.415595       -11.3089
  61   2.0000      -0.409964       -11.1557
  62   2.0000      -0.406330       -11.0568
  63   2.0000      -0.348645        -9.4871
  64   2.0000      -0.328151        -8.9294
  65   2.0000      -0.326342        -8.8802
  66   2.0000      -0.296011        -8.0549
  67   0.0000       0.034426         0.9368
  68   0.0000       0.069486         1.8908
  69   0.0000       0.121158         3.2969
  70   0.0000       0.126458         3.4411
  71   0.0000       0.134231         3.6526

MULLIKEN ATOMIC CHARGES
-----------------------
   0 S :    0.090524
   1 C :   -0.121158
   2 C :   -0.115828
   3 C :    0.006021
   4 C :   -0.135416
   5 H :    0.022040
   6 C :    0.112444
   7 H :    0.010249
   8 H :    0.041648
   9 C :   -0.072363
  10 H :    0.029563
  11 H :    0.011499
  12 C :   -0.004805
  13 H :    0.032276
  14 H :    0.016808
  15 H :    0.018411
  16 S :    0.089549
  17 C :   -0.135085
  18 C :   -0.031928
  19 C :   -0.038443
  20 C :   -0.148140
  21 H :    0.031260
  22 C :    0.052911
  23 H :    0.037315
  24 H :    0.025326
  25 C :   -0.050607
  26 H :    0.042859
  27 H :    0.037770
  28 C :   -0.043353
  29 H :    0.007299
  30 H :    0.026897
  31 H :    0.019461
  32 H :    0.039591
  33 H :    0.095406
Sum of atomic charges:   -0.0000000

LOEWDIN ATOMIC CHARGES
----------------------
   0 S :    0.388036
   1 C :   -0.191254
   2 C :   -0.061921
   3 C :   -0.066835
   4 C :   -0.182426
   5 H :    0.035609
   6 C :   -0.031217
   7 H :    0.026507
   8 H :    0.041994
   9 C :   -0.035382
  10 H :    0.027641
  11 H :    0.015078
  12 C :   -0.051145
  13 H :    0.028208
  14 H :    0.014469
  15 H :    0.024954
  16 S :    0.383596
  17 C :   -0.189920
  18 C :   -0.085878
  19 C :   -0.049809
  20 C :   -0.199303
  21 H :    0.037596
  22 C :   -0.033297
  23 H :    0.039150
  24 H :    0.022350
  25 C :   -0.023997
  26 H :    0.026895
  27 H :    0.031309
  28 C :   -0.071169
  29 H :    0.010664
  30 H :    0.023109
  31 H :    0.023128
  32 H :    0.021644
  33 H :    0.051618

  Mayer bond orders larger than 0.100000
B(  0-S ,  1-C ) :   1.1254 B(  0-S ,  4-C ) :   1.1501 B(  1-C ,  2-C ) :   1.6236
B(  1-C , 32-H ) :   0.9777 B(  2-C ,  3-C ) :   1.2170 B(  2-C ,  6-C ) :   0.9977
B(  3-C ,  4-C ) :   1.5999 B(  3-C ,  5-H ) :   0.9962 B(  4-C , 20-C ) :   1.0194
B(  6-C ,  7-H ) :   0.9439 B(  6-C ,  8-H ) :   0.9175 B(  6-C ,  9-C ) :   1.0947
B(  9-C , 10-H ) :   0.9560 B(  9-C , 11-H ) :   0.9416 B(  9-C , 12-C ) :   1.0916
B( 12-C , 13-H ) :   0.9764 B( 12-C , 14-H ) :   0.9769 B( 12-C , 15-H ) :   0.9706
B( 16-S , 17-C ) :   1.1505 B( 16-S , 20-C ) :   1.1297 B( 17-C , 18-C ) :   1.6328
B( 17-C , 33-H ) :   0.9518 B( 18-C , 19-C ) :   1.2088 B( 18-C , 21-H ) :   0.9879
B( 19-C , 20-C ) :   1.6050 B( 19-C , 22-C ) :   1.0357 B( 22-C , 23-H ) :   0.9263
B( 22-C , 24-H ) :   0.9364 B( 22-C , 25-C ) :   1.0643 B( 25-C , 26-H ) :   0.9613
B( 25-C , 27-H ) :   0.9593 B( 25-C , 28-C ) :   1.0649 B( 28-C , 29-H ) :   0.9767
B( 28-C , 30-H ) :   0.9728 B( 28-C , 31-H ) :   0.9767

Dispersion correction           -0.013758976
FINAL SINGLE POINT ENERGY     -1339.863289888831

DIPOLE MOMENT
-------------
                                X             Y             Z
Electronic contribution:     -8.11135      18.38189      15.15434
Nuclear contribution   :      8.50414     -18.90975     -15.51736
                        -----------------------------------------
Total Dipole Moment    :      0.39279      -0.52787      -0.36302
                        -----------------------------------------
Magnitude (a.u.)       :      0.75147
Magnitude (Debye)      :      1.91009

Rotational constants in cm-1:     0.021539     0.007039     0.005876
Rotational constants in MHz :   645.724822   211.032753   176.161022

                             ****ORCA TERMINATED NORMALLY****
TOTAL RUN TIME: 0 days 0 hours 0 minutes 20 seconds 921 msec
