                         Program Version 4.2.1 -  RELEASE  -
|  1> ! wB97X-D3 SP def2-SVP
|  2> %pal
|  3> nprocs 24
|  4> end
|  5>
|  6> * xyz 0 1
|  7> S 	 -78.686 	 6.26829 	 -109.937
|  8> C 	 -79.8627 	 6.16194 	 -111.257
|  9> C 	 -80.139 	 7.39626 	 -111.784
| 10> C 	 -79.2759 	 8.42973 	 -111.251
| 11> C 	 -78.4958 	 8.00979 	 -110.187
| 12> H 	 -79.2368 	 9.41859 	 -111.656
| 13> C 	 -81.2773 	 7.66751 	 -112.766
| 14> H 	 -81.708 	 8.63776 	 -112.403
| 15> H 	 -82.0639 	 6.94069 	 -112.654
| 16> C 	 -80.9741 	 7.7211 	 -114.243
| 17> H 	 -81.8696 	 8.17404 	 -114.67
| 18> H 	 -80.1542 	 8.42828 	 -114.52
| 19> C 	 -80.7459 	 6.32243 	 -114.826
| 20> H 	 -79.8239 	 5.80627 	 -114.394
| 21> H 	 -81.5985 	 5.6322 	 -114.671
| 22> H 	 -80.4738 	 6.49306 	 -115.919
| 23> S 	 -75.9699 	 8.34465 	 -109.043
| 24> C 	 -75.488 	 9.99487 	 -108.731
| 25> C 	 -76.5803 	 10.8661 	 -108.628
| 26> C 	 -77.7906 	 10.1648 	 -109.06
| 27> C 	 -77.6228 	 8.85851 	 -109.407
| 28> H 	 -76.567 	 11.8981 	 -108.253
| 29> C 	 -79.1346 	 10.7804 	 -109.111
| 30> H 	 -79.1747 	 11.2476 	 -108.123
| 31> H 	 -79.902 	 10.0331 	 -109.359
| 32> C 	 -79.1083 	 11.8509 	 -110.182
| 33> H 	 -78.9502 	 11.4165 	 -111.174
| 34> H 	 -78.3337 	 12.5928 	 -110.007
| 35> C 	 -80.4396 	 12.6195 	 -110.238
| 36> H 	 -80.3799 	 13.3091 	 -111.033
| 37> H 	 -80.6109 	 13.1543 	 -109.339
| 38> H 	 -81.2793 	 11.9468 	 -110.448
| 39> H 	 -80.524 	 5.3147 	 -111.449
| 40> H 	 -74.536 	 10.2191 	 -108.348
| 41> *
| 42>
| 43>                          ****END OF INPUT****

CARTESIAN COORDINATES (ANGSTROEM)
---------------------------------
  S    -78.686000    6.268290  -109.937000
  C    -79.862700    6.161940  -111.257000
  C    -80.139000    7.396260  -111.784000
  C    -79.275900    8.429730  -111.251000
  C    -78.495800    8.009790  -110.187000
  H    -79.236800    9.418590  -111.656000
  C    -81.277300    7.667510  -112.766000
  H    -81.708000    8.637760  -112.403000
  H    -82.063900    6.940690  -112.654000
  C    -80.974100    7.721100  -114.243000
  H    -81.869600    8.174040  -114.670000
  H    -80.154200    8.428280  -114.520000
  C    -80.745900    6.322430  -114.826000
  H    -79.823900    5.806270  -114.394000
  H    -81.598500    5.632200  -114.671000
  H    -80.473800    6.493060  -115.919000
  S    -75.969900    8.344650  -109.043000
  C    -75.488000    9.994870  -108.731000
  C    -76.580300   10.866100  -108.628000
  C    -77.790600   10.164800  -109.060000
  C    -77.622800    8.858510  -109.407000
  H    -76.567000   11.898100  -108.253000
  C    -79.134600   10.780400  -109.111000
  H    -79.174700   11.247600  -108.123000
  H    -79.902000   10.033100  -109.359000
  C    -79.108300   11.850900  -110.182000
  H    -78.950200   11.416500  -111.174000
  H    -78.333700   12.592800  -110.007000
  C    -80.439600   12.619500  -110.238000
  H    -80.379900   13.309100  -111.033000
  H    -80.610900   13.154300  -109.339000
  H    -81.279300   11.946800  -110.448000
  H    -80.524000    5.314700  -111.449000
  H    -74.536000   10.219100  -108.348000

 Total Charge           Charge          ....    0
 Multiplicity           Mult            ....    1
 Number of Electrons    NEL             ....  134
 Basis Dimension        Dim             ....  322

ORBITAL ENERGIES
----------------

  NO   OCC          E(Eh)            E(eV)
   0   2.0000     -88.965671     -2420.8790
   1   2.0000     -88.962100     -2420.7818
   2   2.0000     -10.333267      -281.1825
   3   2.0000     -10.321592      -280.8648
   4   2.0000     -10.320411      -280.8326
   5   2.0000     -10.313794      -280.6526
   6   2.0000     -10.305036      -280.4143
   7   2.0000     -10.301061      -280.3061
   8   2.0000     -10.299746      -280.2703
   9   2.0000     -10.294821      -280.1363
  10   2.0000     -10.294355      -280.1236
  11   2.0000     -10.290056      -280.0067
  12   2.0000     -10.289161      -279.9823
  13   2.0000     -10.285909      -279.8938
  14   2.0000     -10.284872      -279.8656
  15   2.0000     -10.270239      -279.4674
  16   2.0000      -8.079814      -219.8629
  17   2.0000      -8.077077      -219.7884
  18   2.0000      -6.038477      -164.3153
  19   2.0000      -6.035672      -164.2390
  20   2.0000      -6.034473      -164.2064
  21   2.0000      -6.031695      -164.1308
  22   2.0000      -6.030382      -164.0950
  23   2.0000      -6.027586      -164.0190
  24   2.0000      -1.005673       -27.3657
  25   2.0000      -0.981029       -26.6952
  26   2.0000      -0.918663       -24.9981
  27   2.0000      -0.913618       -24.8608
  28   2.0000      -0.871142       -23.7050
  29   2.0000      -0.852331       -23.1931
  30   2.0000      -0.842065       -22.9137
  31   2.0000      -0.813672       -22.1411
  32   2.0000      -0.781670       -21.2703
  33   2.0000      -0.772655       -21.0250
  34   2.0000      -0.706168       -19.2158
  35   2.0000      -0.699542       -19.0355
  36   2.0000      -0.693471       -18.8703
  37   2.0000      -0.666684       -18.1414
  38   2.0000      -0.637655       -17.3515
  39   2.0000      -0.622014       -16.9259
  40   2.0000      -0.597919       -16.2702
  41   2.0000      -0.574245       -15.6260
  42   2.0000      -0.567376       -15.4391
  43   2.0000      -0.550116       -14.9694
  44   2.0000      -0.538282       -14.6474
  45   2.0000      -0.529449       -14.4070
  46   2.0000      -0.521762       -14.1979
  47   2.0000      -0.515215       -14.0197
  48   2.0000      -0.508964       -13.8496
  49   2.0000      -0.496058       -13.4984
  50   2.0000      -0.487158       -13.2563
  51   2.0000      -0.482441       -13.1279
  52   2.0000      -0.468901       -12.7594
  53   2.0000      -0.463141       -12.6027
  54   2.0000      -0.460659       -12.5352
  55   2.0000      -0.451023       -12.2730
  56   2.0000      -0.441199       -12.0056
  57   2.0000      -0.437772       -11.9124
  58   2.0000      -0.436388       -11.8747
  59   2.0000      -0.432174       -11.7600
  60   2.0000      -0.425489       -11.5781
  61   2.0000      -0.410686       -11.1753
  62   2.0000      -0.409148       -11.1335
  63   2.0000      -0.353336        -9.6148
  64   2.0000      -0.329569        -8.9680
  65   2.0000      -0.324864        -8.8400
  66   2.0000      -0.290130        -7.8948
  67   0.0000       0.026784         0.7288
  68   0.0000       0.068575         1.8660
  69   0.0000       0.099887         2.7181
  70   0.0000       0.119516         3.2522
  71   0.0000       0.124029         3.3750

MULLIKEN ATOMIC CHARGES
-----------------------
   0 S :    0.097533
   1 C :   -0.111481
   2 C :   -0.097078
   3 C :    0.021691
   4 C :   -0.127073
   5 H :   -0.011948
   6 C :    0.046757
   7 H :    0.028801
   8 H :    0.012151
   9 C :   -0.047669
  10 H :    0.028338
  11 H :    0.034943
  12 C :   -0.101360
  13 H :    0.051167
  14 H :    0.039985
  15 H :    0.047806
  16 S :    0.093614
  17 C :   -0.067666
  18 C :   -0.023805
  19 C :   -0.087891
  20 C :   -0.114164
  21 H :    0.033043
  22 C :    0.078500
  23 H :    0.028395
  24 H :    0.047063
  25 C :   -0.126527
  26 H :    0.029270
  27 H :    0.025090
  28 C :    0.011880
  29 H :    0.017903
  30 H :    0.020257
  31 H :    0.023628
  32 H :    0.051876
  33 H :    0.046971
Sum of atomic charges:   -0.0000000

LOEWDIN ATOMIC CHARGES
----------------------
   0 S :    0.380630
   1 C :   -0.195642
   2 C :   -0.061644
   3 C :   -0.061569
   4 C :   -0.176632
   5 H :    0.024472
   6 C :   -0.034179
   7 H :    0.034158
   8 H :    0.026623
   9 C :   -0.046419
  10 H :    0.026252
  11 H :    0.028350
  12 C :   -0.079078
  13 H :    0.033859
  14 H :    0.025471
  15 H :    0.035439
  16 S :    0.389498
  17 C :   -0.164915
  18 C :   -0.070526
  19 C :   -0.047688
  20 C :   -0.203524
  21 H :    0.036673
  22 C :   -0.032004
  23 H :    0.036690
  24 H :    0.035669
  25 C :   -0.036313
  26 H :    0.020025
  27 H :    0.021796
  28 C :   -0.056422
  29 H :    0.018516
  30 H :    0.018655
  31 H :    0.024251
  32 H :    0.031658
  33 H :    0.017872

  Mayer bond orders larger than 0.100000
B(  0-S ,  1-C ) :   1.1120 B(  0-S ,  4-C ) :   1.1372 B(  1-C ,  2-C ) :   1.6529
B(  1-C , 32-H ) :   0.9600 B(  2-C ,  3-C ) :   1.2233 B(  2-C ,  6-C ) :   1.0180
B(  3-C ,  4-C ) :   1.5739 B(  3-C ,  5-H ) :   0.9940 B(  4-C , 20-C ) :   1.0534
B(  6-C ,  7-H ) :   0.9400 B(  6-C ,  8-H ) :   0.9411 B(  6-C ,  9-C ) :   1.0765
B(  9-C , 10-H ) :   0.9494 B(  9-C , 11-H ) :   0.9553 B(  9-C , 12-C ) :   1.0728
B( 12-C , 13-H ) :   0.9735 B( 12-C , 14-H ) :   0.9734 B( 12-C , 15-H ) :   0.9723
B( 16-S , 17-C ) :   1.1713 B( 16-S , 20-C ) :   1.0917 B( 17-C , 18-C ) :   1.5959
B( 17-C , 33-H ) :   0.9702 B( 18-C , 19-C ) :   1.2140 B( 18-C , 21-H ) :   0.9862
B( 19-C , 20-C ) :   1.6318 B( 19-C , 22-C ) :   1.0477 B( 22-C , 23-H ) :   0.9204
B( 22-C , 24-H ) :   0.9330 B( 22-C , 25-C ) :   1.0707 B( 25-C , 26-H ) :   0.9509
B( 25-C , 27-H ) :   0.9527 B( 25-C , 28-C ) :   1.0916 B( 28-C , 29-H ) :   0.9727
B( 28-C , 30-H ) :   0.9737 B( 28-C , 31-H ) :   0.9713

Dispersion correction           -0.014675103
FINAL SINGLE POINT ENERGY     -1339.883160727639

DIPOLE MOMENT
-------------
                                X             Y             Z
Electronic contribution:     19.30305     -13.60255      17.32893
Nuclear contribution   :    -19.76607      14.25518     -17.54415
                        -----------------------------------------
Total Dipole Moment    :     -0.46301       0.65263      -0.21522
                        -----------------------------------------
Magnitude (a.u.)       :      0.82863
Magnitude (Debye)      :      2.10620

Rotational constants in cm-1:     0.018437     0.009123     0.006779
Rotational constants in MHz :   552.723951   273.514374   203.216608

                             ****ORCA TERMINATED NORMALLY****
TOTAL RUN TIME: 0 days 0 hours 0 minutes 22 seconds 301 msec
