                         Program Version 4.2.1 -  RELEASE  -
|  1> ! wB97X-D3 SP def2-SVP
|  2> %pal
|  3> nprocs 24
|  4> end
|  5>
|  6> * xyz 0 1
|  7> S 	 -4.69649 	 -20.4165 	 -106.654
|  8> C 	 -3.86482 	 -21.9109 	 -106.829
|  9> C 	 -3.2529 	 -22.4055 	 -105.661
| 10> C 	 -3.38958 	 -21.4302 	 -104.63
| 11> C 	 -4.09963 	 -20.3417 	 -104.964
| 12> H 	 -3.04376 	 -21.5943 	 -103.643
| 13> C 	 -2.62173 	 -23.7587 	 -105.433
| 14> H 	 -3.10728 	 -24.4844 	 -106.086
| 15> H 	 -2.73139 	 -24.1383 	 -104.395
| 16> C 	 -1.12128 	 -23.8056 	 -105.808
| 17> H 	 -0.998008 	 -23.7296 	 -106.891
| 18> H 	 -0.48637 	 -23.0515 	 -105.291
| 19> C 	 -0.556476 	 -25.2126 	 -105.469
| 20> H 	 0.507558 	 -25.1855 	 -105.363
| 21> H 	 -0.979404 	 -25.6637 	 -104.605
| 22> H 	 -0.869265 	 -25.8337 	 -106.334
| 23> S 	 -3.69537 	 -17.6497 	 -104.928
| 24> C 	 -4.1463 	 -16.7015 	 -103.578
| 25> C 	 -4.61585 	 -17.5151 	 -102.558
| 26> C 	 -4.66215 	 -18.9132 	 -102.882
| 27> C 	 -4.18276 	 -19.1255 	 -104.167
| 28> H 	 -4.91843 	 -17.1207 	 -101.602
| 29> C 	 -5.33758 	 -19.8947 	 -101.964
| 30> H 	 -5.59189 	 -20.7201 	 -102.58
| 31> H 	 -6.26036 	 -19.5057 	 -101.626
| 32> C 	 -4.60757 	 -20.356 	 -100.712
| 33> H 	 -3.77102 	 -20.9277 	 -101.009
| 34> H 	 -5.17787 	 -21.0075 	 -100.095
| 35> C 	 -4.16131 	 -19.2076 	 -99.8226
| 36> H 	 -3.62691 	 -19.6778 	 -98.9869
| 37> H 	 -4.95751 	 -18.608 	 -99.4224
| 38> H 	 -3.45885 	 -18.5885 	 -100.492
| 39> H 	 -3.83789 	 -22.4998 	 -107.752
| 40> H 	 -3.99859 	 -15.6557 	 -103.388
| 41> *
| 42>
| 43>                          ****END OF INPUT****

CARTESIAN COORDINATES (ANGSTROEM)
---------------------------------
  S     -4.696490  -20.416500  -106.654000
  C     -3.864820  -21.910900  -106.829000
  C     -3.252900  -22.405500  -105.661000
  C     -3.389580  -21.430200  -104.630000
  C     -4.099630  -20.341700  -104.964000
  H     -3.043760  -21.594300  -103.643000
  C     -2.621730  -23.758700  -105.433000
  H     -3.107280  -24.484400  -106.086000
  H     -2.731390  -24.138300  -104.395000
  C     -1.121280  -23.805600  -105.808000
  H     -0.998008  -23.729600  -106.891000
  H     -0.486370  -23.051500  -105.291000
  C     -0.556476  -25.212600  -105.469000
  H      0.507558  -25.185500  -105.363000
  H     -0.979404  -25.663700  -104.605000
  H     -0.869265  -25.833700  -106.334000
  S     -3.695370  -17.649700  -104.928000
  C     -4.146300  -16.701500  -103.578000
  C     -4.615850  -17.515100  -102.558000
  C     -4.662150  -18.913200  -102.882000
  C     -4.182760  -19.125500  -104.167000
  H     -4.918430  -17.120700  -101.602000
  C     -5.337580  -19.894700  -101.964000
  H     -5.591890  -20.720100  -102.580000
  H     -6.260360  -19.505700  -101.626000
  C     -4.607570  -20.356000  -100.712000
  H     -3.771020  -20.927700  -101.009000
  H     -5.177870  -21.007500  -100.095000
  C     -4.161310  -19.207600  -99.822600
  H     -3.626910  -19.677800  -98.986900
  H     -4.957510  -18.608000  -99.422400
  H     -3.458850  -18.588500  -100.492000
  H     -3.837890  -22.499800  -107.752000
  H     -3.998590  -15.655700  -103.388000

 Total Charge           Charge          ....    0
 Multiplicity           Mult            ....    1
 Number of Electrons    NEL             ....  134
 Basis Dimension        Dim             ....  322

ORBITAL ENERGIES
----------------

  NO   OCC          E(Eh)            E(eV)
   0   2.0000     -88.970362     -2421.0066
   1   2.0000     -88.965193     -2420.8660
   2   2.0000     -10.325002      -280.9576
   3   2.0000     -10.323082      -280.9053
   4   2.0000     -10.315781      -280.7067
   5   2.0000     -10.310522      -280.5636
   6   2.0000     -10.301311      -280.3129
   7   2.0000     -10.299006      -280.2502
   8   2.0000     -10.298368      -280.2328
   9   2.0000     -10.289906      -280.0026
  10   2.0000     -10.288406      -279.9617
  11   2.0000     -10.287277      -279.9310
  12   2.0000     -10.279800      -279.7276
  13   2.0000     -10.278374      -279.6888
  14   2.0000     -10.276252      -279.6310
  15   2.0000     -10.274858      -279.5931
  16   2.0000      -8.084811      -219.9989
  17   2.0000      -8.080743      -219.8882
  18   2.0000      -6.043288      -164.4462
  19   2.0000      -6.039513      -164.3435
  20   2.0000      -6.039208      -164.3352
  21   2.0000      -6.035469      -164.2335
  22   2.0000      -6.035027      -164.2214
  23   2.0000      -6.031598      -164.1281
  24   2.0000      -1.009713       -27.4757
  25   2.0000      -0.986231       -26.8367
  26   2.0000      -0.915821       -24.9207
  27   2.0000      -0.910725       -24.7821
  28   2.0000      -0.869839       -23.6695
  29   2.0000      -0.855231       -23.2720
  30   2.0000      -0.848064       -23.0770
  31   2.0000      -0.814986       -22.1769
  32   2.0000      -0.784647       -21.3513
  33   2.0000      -0.768853       -20.9216
  34   2.0000      -0.704888       -19.1810
  35   2.0000      -0.697434       -18.9782
  36   2.0000      -0.690789       -18.7973
  37   2.0000      -0.664274       -18.0758
  38   2.0000      -0.642660       -17.4877
  39   2.0000      -0.625015       -17.0075
  40   2.0000      -0.596487       -16.2312
  41   2.0000      -0.572132       -15.5685
  42   2.0000      -0.563609       -15.3366
  43   2.0000      -0.554193       -15.0804
  44   2.0000      -0.550629       -14.9834
  45   2.0000      -0.527981       -14.3671
  46   2.0000      -0.516742       -14.0613
  47   2.0000      -0.512868       -13.9558
  48   2.0000      -0.499193       -13.5837
  49   2.0000      -0.496118       -13.5000
  50   2.0000      -0.492049       -13.3893
  51   2.0000      -0.479411       -13.0454
  52   2.0000      -0.473362       -12.8808
  53   2.0000      -0.465110       -12.6563
  54   2.0000      -0.457160       -12.4400
  55   2.0000      -0.451002       -12.2724
  56   2.0000      -0.441563       -12.0155
  57   2.0000      -0.438194       -11.9239
  58   2.0000      -0.433960       -11.8087
  59   2.0000      -0.429021       -11.6742
  60   2.0000      -0.424235       -11.5440
  61   2.0000      -0.419904       -11.4262
  62   2.0000      -0.412794       -11.2327
  63   2.0000      -0.351403        -9.5622
  64   2.0000      -0.330137        -8.9835
  65   2.0000      -0.325820        -8.8660
  66   2.0000      -0.291606        -7.9350
  67   0.0000       0.034873         0.9489
  68   0.0000       0.069686         1.8963
  69   0.0000       0.106474         2.8973
  70   0.0000       0.122774         3.3408
  71   0.0000       0.130446         3.5496

MULLIKEN ATOMIC CHARGES
-----------------------
   0 S :    0.126508
   1 C :   -0.125456
   2 C :   -0.066332
   3 C :    0.049255
   4 C :   -0.155468
   5 H :   -0.007865
   6 C :    0.043772
   7 H :    0.022359
   8 H :    0.034470
   9 C :   -0.101821
  10 H :    0.033789
  11 H :    0.040829
  12 C :   -0.034225
  13 H :    0.035169
  14 H :    0.019423
  15 H :    0.030318
  16 S :    0.125389
  17 C :   -0.076873
  18 C :   -0.051150
  19 C :   -0.053130
  20 C :   -0.166648
  21 H :    0.010343
  22 C :    0.117984
  23 H :    0.010763
  24 H :    0.012180
  25 C :   -0.032921
  26 H :    0.009397
  27 H :    0.015620
  28 C :   -0.090167
  29 H :    0.036383
  30 H :    0.031832
  31 H :    0.057803
  32 H :    0.047484
  33 H :    0.050989
Sum of atomic charges:   -0.0000000

LOEWDIN ATOMIC CHARGES
----------------------
   0 S :    0.402335
   1 C :   -0.204131
   2 C :   -0.062896
   3 C :   -0.048963
   4 C :   -0.186178
   5 H :    0.026393
   6 C :   -0.033125
   7 H :    0.031861
   8 H :    0.034150
   9 C :   -0.038175
  10 H :    0.024726
  11 H :    0.024818
  12 C :   -0.063968
  13 H :    0.023280
  14 H :    0.015556
  15 H :    0.029272
  16 S :    0.434710
  17 C :   -0.205363
  18 C :   -0.070126
  19 C :   -0.059346
  20 C :   -0.202120
  21 H :    0.025395
  22 C :   -0.026255
  23 H :    0.026935
  24 H :    0.027060
  25 C :   -0.033859
  26 H :    0.015532
  27 H :    0.019146
  28 C :   -0.068738
  29 H :    0.028142
  30 H :    0.018066
  31 H :    0.037343
  32 H :    0.027724
  33 H :    0.030799

  Mayer bond orders larger than 0.100000
B(  0-S ,  1-C ) :   1.1506 B(  0-S ,  4-C ) :   1.1251 B(  1-C ,  2-C ) :   1.6089
B(  1-C , 32-H ) :   0.9599 B(  2-C ,  3-C ) :   1.2444 B(  2-C ,  6-C ) :   1.0227
B(  3-C ,  4-C ) :   1.5992 B(  3-C ,  5-H ) :   0.9988 B(  4-C , 20-C ) :   1.0246
B(  6-C ,  7-H ) :   0.9381 B(  6-C ,  8-H ) :   0.9487 B(  6-C ,  9-C ) :   1.0612
B(  9-C , 10-H ) :   0.9612 B(  9-C , 11-H ) :   0.9634 B(  9-C , 12-C ) :   1.0689
B( 12-C , 13-H ) :   0.9768 B( 12-C , 14-H ) :   0.9764 B( 12-C , 15-H ) :   0.9788
B( 16-S , 17-C ) :   1.1545 B( 16-S , 20-C ) :   1.1620 B( 17-C , 18-C ) :   1.5981
B( 17-C , 33-H ) :   0.9674 B( 18-C , 19-C ) :   1.2516 B( 18-C , 21-H ) :   0.9867
B( 19-C , 20-C ) :   1.5846 B( 19-C , 22-C ) :   1.0400 B( 22-C , 23-H ) :   0.9221
B( 22-C , 24-H ) :   0.9349 B( 22-C , 25-C ) :   1.0805 B( 25-C , 26-H ) :   0.9498
B( 25-C , 27-H ) :   0.9516 B( 25-C , 28-C ) :   1.0897 B( 28-C , 29-H ) :   0.9709
B( 28-C , 30-H ) :   0.9737 B( 28-C , 31-H ) :   0.9671

Dispersion correction           -0.013981551
FINAL SINGLE POINT ENERGY     -1339.884669825563

DIPOLE MOMENT
-------------
                                X             Y             Z
Electronic contribution:     -9.18707      19.55809     -16.99897
Nuclear contribution   :      9.30195     -20.04897      17.41961
                        -----------------------------------------
Total Dipole Moment    :      0.11489      -0.49089       0.42064
                        -----------------------------------------
Magnitude (a.u.)       :      0.65659
Magnitude (Debye)      :      1.66891

Rotational constants in cm-1:     0.019047     0.008057     0.006391
Rotational constants in MHz :   571.004111   241.535370   191.589839

                             ****ORCA TERMINATED NORMALLY****
TOTAL RUN TIME: 0 days 0 hours 0 minutes 20 seconds 277 msec
