                         Program Version 4.2.1 -  RELEASE  -
|  1> ! wB97X-D3 SP def2-SVP
|  2> %pal
|  3> nprocs 24
|  4> end
|  5>
|  6> * xyz 0 1
|  7> S 	 -84.7741 	 1.22476 	 4.92008
|  8> C 	 -84.0991 	 -0.332661 	 4.95676
|  9> C 	 -85.1174 	 -1.23999 	 4.79804
| 10> C 	 -86.4192 	 -0.694774 	 4.92406
| 11> C 	 -86.3996 	 0.64656 	 5.11117
| 12> H 	 -87.3315 	 -1.20058 	 4.8829
| 13> C 	 -84.8717 	 -2.70153 	 4.54876
| 14> H 	 -85.5403 	 -3.24773 	 5.2668
| 15> H 	 -83.8176 	 -2.967 	 4.7901
| 16> C 	 -85.2517 	 -3.04726 	 3.05787
| 17> H 	 -85.2187 	 -4.11657 	 2.72817
| 18> H 	 -86.3315 	 -2.79951 	 2.84057
| 19> C 	 -84.4219 	 -2.24769 	 2.06636
| 20> H 	 -84.8067 	 -1.27526 	 1.82022
| 21> H 	 -83.4245 	 -2.24323 	 2.42455
| 22> H 	 -84.2134 	 -2.84996 	 1.1786
| 23> S 	 -87.5156 	 3.10962 	 4.54458
| 24> C 	 -88.8224 	 3.62588 	 5.53542
| 25> C 	 -89.2362 	 2.70946 	 6.50561
| 26> C 	 -88.4255 	 1.55352 	 6.43731
| 27> C 	 -87.4179 	 1.61454 	 5.45299
| 28> H 	 -90.0865 	 3.00832 	 7.1128
| 29> C 	 -88.6463 	 0.379682 	 7.39523
| 30> H 	 -88.7964 	 0.716774 	 8.41763
| 31> H 	 -87.6845 	 -0.0869308 	 7.33312
| 32> C 	 -89.7475 	 -0.534023 	 6.93908
| 33> H 	 -89.5934 	 -0.774128 	 5.88035
| 34> H 	 -90.7367 	 -0.0273393 	 7.0652
| 35> C 	 -89.6267 	 -1.91258 	 7.70877
| 36> H 	 -88.6408 	 -2.35766 	 7.78838
| 37> H 	 -90.2431 	 -2.66325 	 7.20534
| 38> H 	 -89.9998 	 -1.66978 	 8.70206
| 39> H 	 -83.027 	 -0.539908 	 4.84687
| 40> H 	 -89.4535 	 4.40091 	 5.18356
| 41> *
| 42>
| 43>                          ****END OF INPUT****

CARTESIAN COORDINATES (ANGSTROEM)
---------------------------------
  S    -84.774100    1.224760    4.920080
  C    -84.099100   -0.332661    4.956760
  C    -85.117400   -1.239990    4.798040
  C    -86.419200   -0.694774    4.924060
  C    -86.399600    0.646560    5.111170
  H    -87.331500   -1.200580    4.882900
  C    -84.871700   -2.701530    4.548760
  H    -85.540300   -3.247730    5.266800
  H    -83.817600   -2.967000    4.790100
  C    -85.251700   -3.047260    3.057870
  H    -85.218700   -4.116570    2.728170
  H    -86.331500   -2.799510    2.840570
  C    -84.421900   -2.247690    2.066360
  H    -84.806700   -1.275260    1.820220
  H    -83.424500   -2.243230    2.424550
  H    -84.213400   -2.849960    1.178600
  S    -87.515600    3.109620    4.544580
  C    -88.822400    3.625880    5.535420
  C    -89.236200    2.709460    6.505610
  C    -88.425500    1.553520    6.437310
  C    -87.417900    1.614540    5.452990
  H    -90.086500    3.008320    7.112800
  C    -88.646300    0.379682    7.395230
  H    -88.796400    0.716774    8.417630
  H    -87.684500   -0.086931    7.333120
  C    -89.747500   -0.534023    6.939080
  H    -89.593400   -0.774128    5.880350
  H    -90.736700   -0.027339    7.065200
  C    -89.626700   -1.912580    7.708770
  H    -88.640800   -2.357660    7.788380
  H    -90.243100   -2.663250    7.205340
  H    -89.999800   -1.669780    8.702060
  H    -83.027000   -0.539908    4.846870
  H    -89.453500    4.400910    5.183560

 Total Charge           Charge          ....    0
 Multiplicity           Mult            ....    1
 Number of Electrons    NEL             ....  134
 Basis Dimension        Dim             ....  322

ORBITAL ENERGIES
----------------

  NO   OCC          E(Eh)            E(eV)
   0   2.0000     -88.968602     -2420.9587
   1   2.0000     -88.958242     -2420.6768
   2   2.0000     -10.327114      -281.0150
   3   2.0000     -10.325233      -280.9639
   4   2.0000     -10.311888      -280.6007
   5   2.0000     -10.309318      -280.5308
   6   2.0000     -10.305109      -280.4163
   7   2.0000     -10.299090      -280.2525
   8   2.0000     -10.296808      -280.1904
   9   2.0000     -10.295109      -280.1442
  10   2.0000     -10.293310      -280.0952
  11   2.0000     -10.291382      -280.0427
  12   2.0000     -10.287936      -279.9490
  13   2.0000     -10.283895      -279.8390
  14   2.0000     -10.280202      -279.7385
  15   2.0000     -10.267498      -279.3928
  16   2.0000      -8.083862      -219.9731
  17   2.0000      -8.074836      -219.7275
  18   2.0000      -6.042157      -164.4154
  19   2.0000      -6.038314      -164.3109
  20   2.0000      -6.034812      -164.2156
  21   2.0000      -6.033260      -164.1734
  22   2.0000      -6.029136      -164.0611
  23   2.0000      -6.025499      -163.9622
  24   2.0000      -1.016313       -27.6553
  25   2.0000      -0.991065       -26.9682
  26   2.0000      -0.911814       -24.8117
  27   2.0000      -0.909717       -24.7547
  28   2.0000      -0.871549       -23.7161
  29   2.0000      -0.852921       -23.2092
  30   2.0000      -0.846917       -23.0458
  31   2.0000      -0.817724       -22.2514
  32   2.0000      -0.782272       -21.2867
  33   2.0000      -0.767747       -20.8915
  34   2.0000      -0.707976       -19.2650
  35   2.0000      -0.696844       -18.9621
  36   2.0000      -0.690355       -18.7855
  37   2.0000      -0.662299       -18.0221
  38   2.0000      -0.646711       -17.5979
  39   2.0000      -0.625676       -17.0255
  40   2.0000      -0.593591       -16.1524
  41   2.0000      -0.574723       -15.6390
  42   2.0000      -0.563527       -15.3344
  43   2.0000      -0.549719       -14.9586
  44   2.0000      -0.545045       -14.8314
  45   2.0000      -0.525405       -14.2970
  46   2.0000      -0.519568       -14.1382
  47   2.0000      -0.515131       -14.0174
  48   2.0000      -0.505213       -13.7475
  49   2.0000      -0.495300       -13.4778
  50   2.0000      -0.487366       -13.2619
  51   2.0000      -0.486338       -13.2339
  52   2.0000      -0.475978       -12.9520
  53   2.0000      -0.467224       -12.7138
  54   2.0000      -0.458896       -12.4872
  55   2.0000      -0.449185       -12.2230
  56   2.0000      -0.443881       -12.0786
  57   2.0000      -0.435074       -11.8390
  58   2.0000      -0.431401       -11.7390
  59   2.0000      -0.425050       -11.5662
  60   2.0000      -0.421334       -11.4651
  61   2.0000      -0.410738       -11.1768
  62   2.0000      -0.406299       -11.0560
  63   2.0000      -0.352516        -9.5925
  64   2.0000      -0.335565        -9.1312
  65   2.0000      -0.327748        -8.9185
  66   2.0000      -0.286379        -7.7928
  67   0.0000       0.030706         0.8356
  68   0.0000       0.066756         1.8165
  69   0.0000       0.112572         3.0633
  70   0.0000       0.124633         3.3914
  71   0.0000       0.130248         3.5442

MULLIKEN ATOMIC CHARGES
-----------------------
   0 S :    0.097722
   1 C :   -0.113312
   2 C :   -0.111130
   3 C :    0.043724
   4 C :   -0.136834
   5 H :   -0.019503
   6 C :    0.066201
   7 H :    0.035584
   8 H :    0.030197
   9 C :   -0.117379
  10 H :    0.037942
  11 H :    0.033289
  12 C :   -0.016339
  13 H :    0.051570
  14 H :    0.002107
  15 H :    0.018752
  16 S :    0.118579
  17 C :   -0.087478
  18 C :   -0.047542
  19 C :   -0.036635
  20 C :   -0.153527
  21 H :    0.027060
  22 C :    0.087640
  23 H :    0.026789
  24 H :    0.018725
  25 C :   -0.094159
  26 H :    0.028779
  27 H :    0.041513
  28 C :   -0.045305
  29 H :    0.036049
  30 H :    0.036176
  31 H :    0.031466
  32 H :    0.058591
  33 H :    0.050692
Sum of atomic charges:    0.0000000

LOEWDIN ATOMIC CHARGES
----------------------
   0 S :    0.422186
   1 C :   -0.213028
   2 C :   -0.068723
   3 C :   -0.063393
   4 C :   -0.187259
   5 H :    0.022774
   6 C :   -0.032108
   7 H :    0.033412
   8 H :    0.030403
   9 C :   -0.051120
  10 H :    0.027472
  11 H :    0.027214
  12 C :   -0.067841
  13 H :    0.026755
  14 H :    0.018131
  15 H :    0.029344
  16 S :    0.422939
  17 C :   -0.188864
  18 C :   -0.071411
  19 C :   -0.045896
  20 C :   -0.209723
  21 H :    0.037704
  22 C :   -0.031073
  23 H :    0.029258
  24 H :    0.027199
  25 C :   -0.038124
  26 H :    0.019796
  27 H :    0.029725
  28 C :   -0.064227
  29 H :    0.024759
  30 H :    0.025367
  31 H :    0.024913
  32 H :    0.034340
  33 H :    0.019100

  Mayer bond orders larger than 0.100000
B(  0-S ,  1-C ) :   1.1465 B(  0-S ,  4-C ) :   1.1636 B(  1-C ,  2-C ) :   1.5951
B(  1-C , 32-H ) :   0.9691 B(  2-C ,  3-C ) :   1.2240 B(  2-C ,  6-C ) :   1.0261
B(  3-C ,  4-C ) :   1.5628 B(  3-C ,  5-H ) :   1.0204 B(  4-C , 20-C ) :   1.0306
B(  6-C ,  7-H ) :   0.9421 B(  6-C ,  8-H ) :   0.9498 B(  6-C ,  9-C ) :   1.0518
B(  9-C , 10-H ) :   0.9651 B(  9-C , 11-H ) :   0.9598 B(  9-C , 12-C ) :   1.0693
B( 12-C , 13-H ) :   0.9755 B( 12-C , 14-H ) :   0.9712 B( 12-C , 15-H ) :   0.9700
B( 16-S , 17-C ) :   1.1790 B( 16-S , 20-C ) :   1.1516 B( 17-C , 18-C ) :   1.5888
B( 17-C , 20-C ) :   0.1081 B( 17-C , 33-H ) :   0.9641 B( 18-C , 19-C ) :   1.2495
B( 18-C , 21-H ) :   0.9967 B( 19-C , 20-C ) :   1.5706 B( 19-C , 22-C ) :   1.0347
B( 22-C , 23-H ) :   0.9370 B( 22-C , 24-H ) :   0.9302 B( 22-C , 25-C ) :   1.0656
B( 25-C , 26-H ) :   0.9556 B( 25-C , 27-H ) :   0.9558 B( 25-C , 28-C ) :   1.0695
B( 28-C , 29-H ) :   0.9780 B( 28-C , 30-H ) :   0.9781 B( 28-C , 31-H ) :   0.9761

Dispersion correction           -0.015088244
FINAL SINGLE POINT ENERGY     -1339.874844088775

DIPOLE MOMENT
-------------
                                X             Y             Z
Electronic contribution:      5.56809      25.22202      -1.49136
Nuclear contribution   :     -5.89261     -25.71562       1.53871
                        -----------------------------------------
Total Dipole Moment    :     -0.32451      -0.49360       0.04735
                        -----------------------------------------
Magnitude (a.u.)       :      0.59262
Magnitude (Debye)      :      1.50632

Rotational constants in cm-1:     0.018566     0.009576     0.007144
Rotational constants in MHz :   556.587645   287.082172   214.183687

                             ****ORCA TERMINATED NORMALLY****
TOTAL RUN TIME: 0 days 0 hours 0 minutes 22 seconds 286 msec
