                         Program Version 4.2.1 -  RELEASE  -
|  1> ! wB97X-D3 SP def2-SVP
|  2> %pal
|  3> nprocs 24
|  4> end
|  5>
|  6> * xyz 0 1
|  7> S 	 -128.884 	 70.9205 	 -43.1439
|  8> C 	 -130.131 	 72.036 	 -43.4835
|  9> C 	 -129.961 	 72.6043 	 -44.7018
| 10> C 	 -128.765 	 72.0843 	 -45.3606
| 11> C 	 -128.052 	 71.152 	 -44.653
| 12> H 	 -128.367 	 72.4724 	 -46.2801
| 13> C 	 -130.951 	 73.5423 	 -45.4139
| 14> H 	 -130.44 	 74.1566 	 -46.1607
| 15> H 	 -131.21 	 74.2358 	 -44.6096
| 16> C 	 -132.078 	 72.7787 	 -46.1947
| 17> H 	 -131.526 	 72.1995 	 -46.9718
| 18> H 	 -132.472 	 72.1497 	 -45.4943
| 19> C 	 -133.133 	 73.7751 	 -46.6972
| 20> H 	 -133.681 	 74.2411 	 -45.9145
| 21> H 	 -132.65 	 74.6267 	 -47.205
| 22> H 	 -133.891 	 73.3586 	 -47.3636
| 23> S 	 -125.411 	 70.8406 	 -43.7462
| 24> C 	 -124.219 	 70.502 	 -44.9697
| 25> C 	 -124.75 	 70.0894 	 -46.1374
| 26> C 	 -126.181 	 70.3254 	 -46.1806
| 27> C 	 -126.716 	 70.7035 	 -44.961
| 28> H 	 -124.126 	 69.6942 	 -46.9041
| 29> C 	 -126.838 	 69.9898 	 -47.4947
| 30> H 	 -127.784 	 69.4841 	 -47.3075
| 31> H 	 -126.141 	 69.3313 	 -47.9357
| 32> C 	 -126.823 	 71.0935 	 -48.5459
| 33> H 	 -125.851 	 71.5762 	 -48.7542
| 34> H 	 -127.331 	 71.9568 	 -48.1957
| 35> C 	 -127.397 	 70.6676 	 -49.8892
| 36> H 	 -128.47 	 70.2368 	 -49.8115
| 37> H 	 -126.823 	 69.8176 	 -50.3005
| 38> H 	 -127.525 	 71.4885 	 -50.602
| 39> H 	 -130.876 	 72.4742 	 -42.7923
| 40> H 	 -123.195 	 70.3964 	 -44.7752
| 41> *
| 42>
| 43>                          ****END OF INPUT****

CARTESIAN COORDINATES (ANGSTROEM)
---------------------------------
  S    -128.884000   70.920500  -43.143900
  C    -130.131000   72.036000  -43.483500
  C    -129.961000   72.604300  -44.701800
  C    -128.765000   72.084300  -45.360600
  C    -128.052000   71.152000  -44.653000
  H    -128.367000   72.472400  -46.280100
  C    -130.951000   73.542300  -45.413900
  H    -130.440000   74.156600  -46.160700
  H    -131.210000   74.235800  -44.609600
  C    -132.078000   72.778700  -46.194700
  H    -131.526000   72.199500  -46.971800
  H    -132.472000   72.149700  -45.494300
  C    -133.133000   73.775100  -46.697200
  H    -133.681000   74.241100  -45.914500
  H    -132.650000   74.626700  -47.205000
  H    -133.891000   73.358600  -47.363600
  S    -125.411000   70.840600  -43.746200
  C    -124.219000   70.502000  -44.969700
  C    -124.750000   70.089400  -46.137400
  C    -126.181000   70.325400  -46.180600
  C    -126.716000   70.703500  -44.961000
  H    -124.126000   69.694200  -46.904100
  C    -126.838000   69.989800  -47.494700
  H    -127.784000   69.484100  -47.307500
  H    -126.141000   69.331300  -47.935700
  C    -126.823000   71.093500  -48.545900
  H    -125.851000   71.576200  -48.754200
  H    -127.331000   71.956800  -48.195700
  C    -127.397000   70.667600  -49.889200
  H    -128.470000   70.236800  -49.811500
  H    -126.823000   69.817600  -50.300500
  H    -127.525000   71.488500  -50.602000
  H    -130.876000   72.474200  -42.792300
  H    -123.195000   70.396400  -44.775200

 Total Charge           Charge          ....    0
 Multiplicity           Mult            ....    1
 Number of Electrons    NEL             ....  134
 Basis Dimension        Dim             ....  322

ORBITAL ENERGIES
----------------

  NO   OCC          E(Eh)            E(eV)
   0   2.0000     -88.964053     -2420.8350
   1   2.0000     -88.963440     -2420.8183
   2   2.0000     -10.329899      -281.0908
   3   2.0000     -10.326207      -280.9904
   4   2.0000     -10.311477      -280.5896
   5   2.0000     -10.310934      -280.5748
   6   2.0000     -10.304122      -280.3894
   7   2.0000     -10.298656      -280.2407
   8   2.0000     -10.294198      -280.1194
   9   2.0000     -10.290691      -280.0239
  10   2.0000     -10.289530      -279.9924
  11   2.0000     -10.289036      -279.9789
  12   2.0000     -10.287304      -279.9318
  13   2.0000     -10.287135      -279.9272
  14   2.0000     -10.286453      -279.9086
  15   2.0000     -10.278582      -279.6944
  16   2.0000      -8.079188      -219.8459
  17   2.0000      -8.078711      -219.8329
  18   2.0000      -6.037769      -164.2960
  19   2.0000      -6.037439      -164.2871
  20   2.0000      -6.033476      -164.1792
  21   2.0000      -6.033351      -164.1758
  22   2.0000      -6.029868      -164.0811
  23   2.0000      -6.029112      -164.0605
  24   2.0000      -1.010163       -27.4879
  25   2.0000      -0.988170       -26.8895
  26   2.0000      -0.915221       -24.9044
  27   2.0000      -0.909417       -24.7465
  28   2.0000      -0.876701       -23.8563
  29   2.0000      -0.852427       -23.1957
  30   2.0000      -0.844179       -22.9713
  31   2.0000      -0.818526       -22.2732
  32   2.0000      -0.781202       -21.2576
  33   2.0000      -0.772957       -21.0332
  34   2.0000      -0.711259       -19.3543
  35   2.0000      -0.707018       -19.2389
  36   2.0000      -0.697895       -18.9907
  37   2.0000      -0.667612       -18.1666
  38   2.0000      -0.639126       -17.3915
  39   2.0000      -0.616517       -16.7763
  40   2.0000      -0.597851       -16.2683
  41   2.0000      -0.577281       -15.7086
  42   2.0000      -0.568546       -15.4709
  43   2.0000      -0.558524       -15.1982
  44   2.0000      -0.527749       -14.3608
  45   2.0000      -0.525372       -14.2961
  46   2.0000      -0.519213       -14.1285
  47   2.0000      -0.514535       -14.0012
  48   2.0000      -0.503679       -13.7058
  49   2.0000      -0.500159       -13.6100
  50   2.0000      -0.494964       -13.4687
  51   2.0000      -0.483465       -13.1557
  52   2.0000      -0.475501       -12.9390
  53   2.0000      -0.464617       -12.6429
  54   2.0000      -0.463284       -12.6066
  55   2.0000      -0.452282       -12.3072
  56   2.0000      -0.443381       -12.0650
  57   2.0000      -0.437468       -11.9041
  58   2.0000      -0.434151       -11.8138
  59   2.0000      -0.425771       -11.5858
  60   2.0000      -0.419011       -11.4019
  61   2.0000      -0.415883       -11.3167
  62   2.0000      -0.409896       -11.1538
  63   2.0000      -0.357164        -9.7189
  64   2.0000      -0.329292        -8.9605
  65   2.0000      -0.325528        -8.8581
  66   2.0000      -0.294202        -8.0057
  67   0.0000       0.030450         0.8286
  68   0.0000       0.074427         2.0253
  69   0.0000       0.116340         3.1658
  70   0.0000       0.126846         3.4517
  71   0.0000       0.129462         3.5228

MULLIKEN ATOMIC CHARGES
-----------------------
   0 S :    0.103465
   1 C :   -0.114734
   2 C :   -0.121860
   3 C :    0.028604
   4 C :   -0.138664
   5 H :   -0.010357
   6 C :    0.020132
   7 H :    0.018324
   8 H :    0.027148
   9 C :   -0.010380
  10 H :    0.039575
  11 H :    0.008776
  12 C :   -0.029737
  13 H :    0.019992
  14 H :    0.023589
  15 H :    0.038752
  16 S :    0.100504
  17 C :   -0.059316
  18 C :   -0.026502
  19 C :   -0.064041
  20 C :   -0.123300
  21 H :    0.015482
  22 C :    0.105014
  23 H :    0.041185
  24 H :    0.000862
  25 C :   -0.052680
  26 H :    0.025557
  27 H :    0.003953
  28 C :   -0.075007
  29 H :    0.031928
  30 H :    0.034655
  31 H :    0.042022
  32 H :    0.061195
  33 H :    0.035862
Sum of atomic charges:    0.0000000

LOEWDIN ATOMIC CHARGES
----------------------
   0 S :    0.419051
   1 C :   -0.215977
   2 C :   -0.068641
   3 C :   -0.059762
   4 C :   -0.201972
   5 H :    0.022609
   6 C :   -0.032443
   7 H :    0.025463
   8 H :    0.028460
   9 C :   -0.024627
  10 H :    0.033395
  11 H :    0.010119
  12 C :   -0.065648
  13 H :    0.022526
  14 H :    0.026427
  15 H :    0.027364
  16 S :    0.386833
  17 C :   -0.168712
  18 C :   -0.068074
  19 C :   -0.046374
  20 C :   -0.188285
  21 H :    0.029840
  22 C :   -0.026061
  23 H :    0.035943
  24 H :    0.027910
  25 C :   -0.043996
  26 H :    0.030629
  27 H :    0.011864
  28 C :   -0.073019
  29 H :    0.031282
  30 H :    0.024876
  31 H :    0.027777
  32 H :    0.041769
  33 H :    0.019456

  Mayer bond orders larger than 0.100000
B(  0-S ,  1-C ) :   1.1395 B(  0-S ,  4-C ) :   1.1359 B(  1-C ,  2-C ) :   1.6324
B(  1-C , 32-H ) :   0.9578 B(  2-C ,  3-C ) :   1.2471 B(  2-C ,  6-C ) :   1.0215
B(  3-C ,  4-C ) :   1.5748 B(  3-C ,  5-H ) :   0.9958 B(  4-C , 20-C ) :   1.0643
B(  6-C ,  7-H ) :   0.9428 B(  6-C ,  8-H ) :   0.9456 B(  6-C ,  9-C ) :   1.0434
B(  9-C , 10-H ) :   0.9557 B(  9-C , 11-H ) :   0.9603 B(  9-C , 12-C ) :   1.0766
B( 12-C , 13-H ) :   0.9737 B( 12-C , 14-H ) :   0.9741 B( 12-C , 15-H ) :   0.9751
B( 16-S , 17-C ) :   1.1482 B( 16-S , 20-C ) :   1.1021 B( 17-C , 18-C ) :   1.6545
B( 17-C , 33-H ) :   0.9648 B( 18-C , 19-C ) :   1.2061 B( 18-C , 21-H ) :   0.9899
B( 19-C , 20-C ) :   1.6281 B( 19-C , 22-C ) :   1.0483 B( 22-C , 23-H ) :   0.9378
B( 22-C , 24-H ) :   0.9272 B( 22-C , 25-C ) :   1.0500 B( 25-C , 26-H ) :   0.9463
B( 25-C , 27-H ) :   0.9489 B( 25-C , 28-C ) :   1.0875 B( 28-C , 29-H ) :   0.9720
B( 28-C , 30-H ) :   0.9743 B( 28-C , 31-H ) :   0.9732

Dispersion correction           -0.013857193
FINAL SINGLE POINT ENERGY     -1339.869346179032

DIPOLE MOMENT
-------------
                                X             Y             Z
Electronic contribution:     16.38658      -8.17436      26.81640
Nuclear contribution   :    -16.47847       8.43053     -27.47369
                        -----------------------------------------
Total Dipole Moment    :     -0.09189       0.25617      -0.65729
                        -----------------------------------------
Magnitude (a.u.)       :      0.71141
Magnitude (Debye)      :      1.80825

Rotational constants in cm-1:     0.017467     0.008919     0.006238
Rotational constants in MHz :   523.659316   267.394368   187.011588

                             ****ORCA TERMINATED NORMALLY****
TOTAL RUN TIME: 0 days 0 hours 0 minutes 21 seconds 423 msec
