                         Program Version 4.2.1 -  RELEASE  -
|  1> ! wB97X-D3 SP def2-SVP
|  2> %pal
|  3> nprocs 24
|  4> end
|  5>
|  6> * xyz 0 1
|  7> S 	 38.8732 	 -4.87027 	 -113.995
|  8> C 	 38.9743 	 -6.49124 	 -113.363
|  9> C 	 37.8501 	 -6.84214 	 -112.624
| 10> C 	 36.8932 	 -5.76735 	 -112.528
| 11> C 	 37.3136 	 -4.61483 	 -113.173
| 12> H 	 35.9162 	 -5.76734 	 -112.156
| 13> C 	 37.5848 	 -8.23136 	 -112.146
| 14> H 	 38.3138 	 -8.88741 	 -112.651
| 15> H 	 36.586 	 -8.4413 	 -112.518
| 16> C 	 37.5614 	 -8.32361 	 -110.581
| 17> H 	 38.5365 	 -8.11293 	 -110.177
| 18> H 	 36.8766 	 -7.56777 	 -110.194
| 19> C 	 37.1661 	 -9.76556 	 -110.018
| 20> H 	 37.6825 	 -9.72936 	 -109.046
| 21> H 	 36.0584 	 -9.7553 	 -109.959
| 22> H 	 37.7261 	 -10.4936 	 -110.626
| 23> S 	 36.9896 	 -1.86162 	 -112.994
| 24> C 	 35.7581 	 -1.05855 	 -113.81
| 25> C 	 34.9051 	 -1.96499 	 -114.425
| 26> C 	 35.3023 	 -3.3734 	 -114.255
| 27> C 	 36.4687 	 -3.46679 	 -113.567
| 28> H 	 34.0529 	 -1.63333 	 -114.96
| 29> C 	 34.5377 	 -4.51402 	 -114.927
| 30> H 	 35.0368 	 -5.39621 	 -114.775
| 31> H 	 34.5907 	 -4.30005 	 -115.988
| 32> C 	 33.0585 	 -4.58054 	 -114.475
| 33> H 	 32.4143 	 -5.22248 	 -115.039
| 34> H 	 32.6629 	 -3.62041 	 -114.658
| 35> C 	 33.0142 	 -5.14555 	 -113.063
| 36> H 	 31.9658 	 -5.13416 	 -112.706
| 37> H 	 33.4848 	 -4.5663 	 -112.237
| 38> H 	 33.346 	 -6.18995 	 -112.993
| 39> H 	 39.7478 	 -7.18663 	 -113.722
| 40> H 	 35.7522 	 0.0854821 	 -113.803
| 41> *
| 42>
| 43>                          ****END OF INPUT****

CARTESIAN COORDINATES (ANGSTROEM)
---------------------------------
  S     38.873200   -4.870270  -113.995000
  C     38.974300   -6.491240  -113.363000
  C     37.850100   -6.842140  -112.624000
  C     36.893200   -5.767350  -112.528000
  C     37.313600   -4.614830  -113.173000
  H     35.916200   -5.767340  -112.156000
  C     37.584800   -8.231360  -112.146000
  H     38.313800   -8.887410  -112.651000
  H     36.586000   -8.441300  -112.518000
  C     37.561400   -8.323610  -110.581000
  H     38.536500   -8.112930  -110.177000
  H     36.876600   -7.567770  -110.194000
  C     37.166100   -9.765560  -110.018000
  H     37.682500   -9.729360  -109.046000
  H     36.058400   -9.755300  -109.959000
  H     37.726100  -10.493600  -110.626000
  S     36.989600   -1.861620  -112.994000
  C     35.758100   -1.058550  -113.810000
  C     34.905100   -1.964990  -114.425000
  C     35.302300   -3.373400  -114.255000
  C     36.468700   -3.466790  -113.567000
  H     34.052900   -1.633330  -114.960000
  C     34.537700   -4.514020  -114.927000
  H     35.036800   -5.396210  -114.775000
  H     34.590700   -4.300050  -115.988000
  C     33.058500   -4.580540  -114.475000
  H     32.414300   -5.222480  -115.039000
  H     32.662900   -3.620410  -114.658000
  C     33.014200   -5.145550  -113.063000
  H     31.965800   -5.134160  -112.706000
  H     33.484800   -4.566300  -112.237000
  H     33.346000   -6.189950  -112.993000
  H     39.747800   -7.186630  -113.722000
  H     35.752200    0.085482  -113.803000

 Total Charge           Charge          ....    0
 Multiplicity           Mult            ....    1
 Number of Electrons    NEL             ....  134
 Basis Dimension        Dim             ....  322

ORBITAL ENERGIES
----------------

  NO   OCC          E(Eh)            E(eV)
   0   2.0000     -88.963037     -2420.8073
   1   2.0000     -88.956662     -2420.6338
   2   2.0000     -10.329782      -281.0877
   3   2.0000     -10.323646      -280.9207
   4   2.0000     -10.320630      -280.8386
   5   2.0000     -10.315113      -280.6885
   6   2.0000     -10.305756      -280.4339
   7   2.0000     -10.301576      -280.3201
   8   2.0000     -10.293959      -280.1129
   9   2.0000     -10.293688      -280.1055
  10   2.0000     -10.293180      -280.0917
  11   2.0000     -10.288347      -279.9602
  12   2.0000     -10.286763      -279.9170
  13   2.0000     -10.285513      -279.8830
  14   2.0000     -10.285182      -279.8740
  15   2.0000     -10.282066      -279.7892
  16   2.0000      -8.077592      -219.8025
  17   2.0000      -8.072919      -219.6753
  18   2.0000      -6.036061      -164.2496
  19   2.0000      -6.032162      -164.1435
  20   2.0000      -6.031349      -164.1213
  21   2.0000      -6.028361      -164.0400
  22   2.0000      -6.027104      -164.0058
  23   2.0000      -6.023769      -163.9151
  24   2.0000      -1.003295       -27.3010
  25   2.0000      -0.982306       -26.7299
  26   2.0000      -0.913964       -24.8702
  27   2.0000      -0.905609       -24.6429
  28   2.0000      -0.865972       -23.5643
  29   2.0000      -0.847743       -23.0683
  30   2.0000      -0.844067       -22.9682
  31   2.0000      -0.812404       -22.1066
  32   2.0000      -0.784068       -21.3356
  33   2.0000      -0.767407       -20.8822
  34   2.0000      -0.712542       -19.3892
  35   2.0000      -0.697723       -18.9860
  36   2.0000      -0.686761       -18.6877
  37   2.0000      -0.657138       -17.8816
  38   2.0000      -0.646027       -17.5793
  39   2.0000      -0.617762       -16.8102
  40   2.0000      -0.598937       -16.2979
  41   2.0000      -0.569801       -15.5051
  42   2.0000      -0.558915       -15.2089
  43   2.0000      -0.553301       -15.0561
  44   2.0000      -0.546555       -14.8725
  45   2.0000      -0.521861       -14.2005
  46   2.0000      -0.518846       -14.1185
  47   2.0000      -0.512944       -13.9579
  48   2.0000      -0.504311       -13.7230
  49   2.0000      -0.495866       -13.4932
  50   2.0000      -0.490432       -13.3453
  51   2.0000      -0.476653       -12.9704
  52   2.0000      -0.470717       -12.8089
  53   2.0000      -0.467087       -12.7101
  54   2.0000      -0.457597       -12.4518
  55   2.0000      -0.446735       -12.1563
  56   2.0000      -0.439450       -11.9580
  57   2.0000      -0.438509       -11.9324
  58   2.0000      -0.435616       -11.8537
  59   2.0000      -0.429463       -11.6863
  60   2.0000      -0.422641       -11.5006
  61   2.0000      -0.414074       -11.2675
  62   2.0000      -0.410000       -11.1567
  63   2.0000      -0.337514        -9.1842
  64   2.0000      -0.331682        -9.0255
  65   2.0000      -0.321919        -8.7598
  66   2.0000      -0.300795        -8.1850
  67   0.0000       0.040776         1.1096
  68   0.0000       0.066212         1.8017
  69   0.0000       0.111186         3.0255
  70   0.0000       0.119815         3.2603
  71   0.0000       0.132065         3.5937

MULLIKEN ATOMIC CHARGES
-----------------------
   0 S :    0.103901
   1 C :   -0.131940
   2 C :   -0.102104
   3 C :    0.063462
   4 C :   -0.134256
   5 H :   -0.019660
   6 C :    0.092274
   7 H :    0.020614
   8 H :    0.022801
   9 C :   -0.123060
  10 H :    0.026391
  11 H :    0.033974
  12 C :   -0.043820
  13 H :    0.038698
  14 H :    0.055534
  15 H :    0.039797
  16 S :    0.097394
  17 C :   -0.110001
  18 C :   -0.040411
  19 C :   -0.032122
  20 C :   -0.204510
  21 H :    0.007091
  22 C :    0.120862
  23 H :   -0.003587
  24 H :    0.033550
  25 C :   -0.024692
  26 H :    0.022492
  27 H :    0.014573
  28 C :   -0.090369
  29 H :    0.027400
  30 H :    0.050175
  31 H :    0.038004
  32 H :    0.060787
  33 H :    0.090758
Sum of atomic charges:   -0.0000000

LOEWDIN ATOMIC CHARGES
----------------------
   0 S :    0.395663
   1 C :   -0.203747
   2 C :   -0.064217
   3 C :   -0.050352
   4 C :   -0.184952
   5 H :    0.022471
   6 C :   -0.032353
   7 H :    0.029734
   8 H :    0.030246
   9 C :   -0.037220
  10 H :    0.018865
  11 H :    0.022598
  12 C :   -0.068887
  13 H :    0.031206
  14 H :    0.031988
  15 H :    0.028123
  16 S :    0.410038
  17 C :   -0.208834
  18 C :   -0.079135
  19 C :   -0.045844
  20 C :   -0.199557
  21 H :    0.021019
  22 C :   -0.015419
  23 H :    0.014695
  24 H :    0.034670
  25 C :   -0.031415
  26 H :    0.024583
  27 H :    0.017823
  28 C :   -0.074456
  29 H :    0.028207
  30 H :    0.028938
  31 H :    0.026156
  32 H :    0.032352
  33 H :    0.047013

  Mayer bond orders larger than 0.100000
B(  0-S ,  1-C ) :   1.1400 B(  0-S ,  4-C ) :   1.1562 B(  1-C ,  2-C ) :   1.6168
B(  1-C , 32-H ) :   0.9641 B(  2-C ,  3-C ) :   1.2071 B(  2-C ,  6-C ) :   1.0310
B(  3-C ,  4-C ) :   1.5958 B(  3-C ,  5-H ) :   1.0089 B(  4-C , 20-C ) :   0.9930
B(  6-C ,  7-H ) :   0.9408 B(  6-C ,  8-H ) :   0.9365 B(  6-C ,  9-C ) :   1.0499
B(  9-C , 10-H ) :   0.9639 B(  9-C , 11-H ) :   0.9625 B(  9-C , 12-C ) :   1.0658
B( 12-C , 13-H ) :   0.9806 B( 12-C , 14-H ) :   0.9790 B( 12-C , 15-H ) :   0.9752
B( 16-S , 17-C ) :   1.1781 B( 16-S , 20-C ) :   1.1346 B( 17-C , 18-C ) :   1.5976
B( 17-C , 33-H ) :   0.9587 B( 18-C , 19-C ) :   1.2040 B( 18-C , 21-H ) :   0.9977
B( 19-C , 20-C ) :   1.6434 B( 19-C , 22-C ) :   1.0315 B( 22-C , 23-H ) :   0.9366
B( 22-C , 24-H ) :   0.9334 B( 22-C , 25-C ) :   1.0698 B( 25-C , 26-H ) :   0.9538
B( 25-C , 27-H ) :   0.9582 B( 25-C , 28-C ) :   1.0726 B( 28-C , 29-H ) :   0.9697
B( 28-C , 30-H ) :   0.9724 B( 28-C , 31-H ) :   0.9712

Dispersion correction           -0.014774635
FINAL SINGLE POINT ENERGY     -1339.875503145016

DIPOLE MOMENT
-------------
                                X             Y             Z
Electronic contribution:     16.10429      22.41333      -8.10382
Nuclear contribution   :    -16.67260     -22.87338       7.97194
                        -----------------------------------------
Total Dipole Moment    :     -0.56831      -0.46005      -0.13188
                        -----------------------------------------
Magnitude (a.u.)       :      0.74298
Magnitude (Debye)      :      1.88850

Rotational constants in cm-1:     0.019305     0.008422     0.006759
Rotational constants in MHz :   578.760657   252.488477   202.630360

                             ****ORCA TERMINATED NORMALLY****
TOTAL RUN TIME: 0 days 0 hours 0 minutes 21 seconds 937 msec
