                         Program Version 4.2.1 -  RELEASE  -
|  1> ! wB97X-D3 SP def2-SVP
|  2> %pal
|  3> nprocs 24
|  4> end
|  5>
|  6> * xyz 0 1
|  7> S 	 -70.6435 	 -47.2944 	 -89.6798
|  8> C 	 -70.1746 	 -46.6823 	 -91.2341
|  9> C 	 -68.92 	 -47.1675 	 -91.5905
| 10> C 	 -68.3078 	 -47.9861 	 -90.6349
| 11> C 	 -69.1896 	 -48.1972 	 -89.5961
| 12> H 	 -67.3713 	 -48.4118 	 -90.706
| 13> C 	 -68.4322 	 -46.763 	 -92.9598
| 14> H 	 -68.7465 	 -45.7024 	 -93.2177
| 15> H 	 -69.0099 	 -47.5095 	 -93.5526
| 16> C 	 -66.9117 	 -46.8837 	 -93.0287
| 17> H 	 -66.4035 	 -46.1126 	 -92.4394
| 18> H 	 -66.5496 	 -47.8323 	 -92.7146
| 19> C 	 -66.519 	 -46.6391 	 -94.4885
| 20> H 	 -67.1134 	 -47.186 	 -95.1443
| 21> H 	 -66.5873 	 -45.5779 	 -94.8259
| 22> H 	 -65.5606 	 -46.9984 	 -94.8128
| 23> S 	 -68.4337 	 -48.0725 	 -86.8591
| 24> C 	 -68.4887 	 -49.5619 	 -85.9637
| 25> C 	 -68.6903 	 -50.6267 	 -86.7112
| 26> C 	 -69.0856 	 -50.3052 	 -88.104
| 27> C 	 -68.9108 	 -48.9427 	 -88.4012
| 28> H 	 -68.7642 	 -51.6228 	 -86.27
| 29> C 	 -69.4713 	 -51.461 	 -89.039
| 30> H 	 -68.766 	 -52.3263 	 -88.9801
| 31> H 	 -69.329 	 -51.1979 	 -90.1053
| 32> C 	 -70.9392 	 -51.8679 	 -88.9196
| 33> H 	 -71.1368 	 -52.5001 	 -89.7238
| 34> H 	 -71.3579 	 -50.8811 	 -89.1402
| 35> C 	 -71.279 	 -52.3082 	 -87.515
| 36> H 	 -70.5507 	 -53.1406 	 -87.2559
| 37> H 	 -72.2482 	 -52.702 	 -87.475
| 38> H 	 -71.2258 	 -51.5419 	 -86.785
| 39> H 	 -70.6628 	 -45.9438 	 -91.8726
| 40> H 	 -68.1172 	 -49.7539 	 -84.9368
| 41> *
| 42>
| 43>                          ****END OF INPUT****

CARTESIAN COORDINATES (ANGSTROEM)
---------------------------------
  S    -70.643500  -47.294400  -89.679800
  C    -70.174600  -46.682300  -91.234100
  C    -68.920000  -47.167500  -91.590500
  C    -68.307800  -47.986100  -90.634900
  C    -69.189600  -48.197200  -89.596100
  H    -67.371300  -48.411800  -90.706000
  C    -68.432200  -46.763000  -92.959800
  H    -68.746500  -45.702400  -93.217700
  H    -69.009900  -47.509500  -93.552600
  C    -66.911700  -46.883700  -93.028700
  H    -66.403500  -46.112600  -92.439400
  H    -66.549600  -47.832300  -92.714600
  C    -66.519000  -46.639100  -94.488500
  H    -67.113400  -47.186000  -95.144300
  H    -66.587300  -45.577900  -94.825900
  H    -65.560600  -46.998400  -94.812800
  S    -68.433700  -48.072500  -86.859100
  C    -68.488700  -49.561900  -85.963700
  C    -68.690300  -50.626700  -86.711200
  C    -69.085600  -50.305200  -88.104000
  C    -68.910800  -48.942700  -88.401200
  H    -68.764200  -51.622800  -86.270000
  C    -69.471300  -51.461000  -89.039000
  H    -68.766000  -52.326300  -88.980100
  H    -69.329000  -51.197900  -90.105300
  C    -70.939200  -51.867900  -88.919600
  H    -71.136800  -52.500100  -89.723800
  H    -71.357900  -50.881100  -89.140200
  C    -71.279000  -52.308200  -87.515000
  H    -70.550700  -53.140600  -87.255900
  H    -72.248200  -52.702000  -87.475000
  H    -71.225800  -51.541900  -86.785000
  H    -70.662800  -45.943800  -91.872600
  H    -68.117200  -49.753900  -84.936800

 Total Charge           Charge          ....    0
 Multiplicity           Mult            ....    1
 Number of Electrons    NEL             ....  134
 Basis Dimension        Dim             ....  322

ORBITAL ENERGIES
----------------

  NO   OCC          E(Eh)            E(eV)
   0   2.0000     -88.968940     -2420.9679
   1   2.0000     -88.959448     -2420.7096
   2   2.0000     -10.329638      -281.0837
   3   2.0000     -10.323104      -280.9059
   4   2.0000     -10.310607      -280.5659
   5   2.0000     -10.309612      -280.5388
   6   2.0000     -10.306814      -280.4627
   7   2.0000     -10.297501      -280.2092
   8   2.0000     -10.293447      -280.0989
   9   2.0000     -10.291067      -280.0342
  10   2.0000     -10.289485      -279.9911
  11   2.0000     -10.287185      -279.9285
  12   2.0000     -10.286741      -279.9165
  13   2.0000     -10.276188      -279.6293
  14   2.0000     -10.270473      -279.4738
  15   2.0000     -10.270257      -279.4679
  16   2.0000      -8.084125      -219.9802
  17   2.0000      -8.073594      -219.6936
  18   2.0000      -6.042400      -164.4220
  19   2.0000      -6.038459      -164.3148
  20   2.0000      -6.035207      -164.2263
  21   2.0000      -6.032391      -164.1497
  22   2.0000      -6.028331      -164.0392
  23   2.0000      -6.023919      -163.9192
  24   2.0000      -1.009578       -27.4720
  25   2.0000      -0.980388       -26.6777
  26   2.0000      -0.918053       -24.9815
  27   2.0000      -0.911030       -24.7904
  28   2.0000      -0.872649       -23.7460
  29   2.0000      -0.854181       -23.2434
  30   2.0000      -0.836246       -22.7554
  31   2.0000      -0.820203       -22.3189
  32   2.0000      -0.785305       -21.3692
  33   2.0000      -0.768084       -20.9006
  34   2.0000      -0.721759       -19.6400
  35   2.0000      -0.696351       -18.9487
  36   2.0000      -0.682959       -18.5843
  37   2.0000      -0.647752       -17.6262
  38   2.0000      -0.643724       -17.5166
  39   2.0000      -0.623494       -16.9661
  40   2.0000      -0.595967       -16.2171
  41   2.0000      -0.574179       -15.6242
  42   2.0000      -0.566779       -15.4229
  43   2.0000      -0.554558       -15.0903
  44   2.0000      -0.542314       -14.7571
  45   2.0000      -0.522945       -14.2301
  46   2.0000      -0.515091       -14.0163
  47   2.0000      -0.507216       -13.8021
  48   2.0000      -0.506029       -13.7698
  49   2.0000      -0.497374       -13.5342
  50   2.0000      -0.487602       -13.2683
  51   2.0000      -0.478483       -13.0202
  52   2.0000      -0.473952       -12.8969
  53   2.0000      -0.469744       -12.7824
  54   2.0000      -0.456457       -12.4208
  55   2.0000      -0.454725       -12.3737
  56   2.0000      -0.442580       -12.0432
  57   2.0000      -0.439479       -11.9588
  58   2.0000      -0.434144       -11.8137
  59   2.0000      -0.422127       -11.4867
  60   2.0000      -0.418202       -11.3799
  61   2.0000      -0.408116       -11.1054
  62   2.0000      -0.405245       -11.0273
  63   2.0000      -0.340395        -9.2626
  64   2.0000      -0.325449        -8.8559
  65   2.0000      -0.322670        -8.7803
  66   2.0000      -0.305341        -8.3088
  67   0.0000       0.040998         1.1156
  68   0.0000       0.057206         1.5567
  69   0.0000       0.114348         3.1116
  70   0.0000       0.128517         3.4971
  71   0.0000       0.131966         3.5910

MULLIKEN ATOMIC CHARGES
-----------------------
   0 S :    0.145686
   1 C :   -0.124198
   2 C :   -0.096415
   3 C :    0.068347
   4 C :   -0.167187
   5 H :   -0.016908
   6 C :    0.022942
   7 H :    0.044540
   8 H :    0.057614
   9 C :   -0.067725
  10 H :    0.043445
  11 H :    0.026846
  12 C :   -0.013669
  13 H :   -0.001035
  14 H :    0.031948
  15 H :    0.013205
  16 S :    0.090203
  17 C :   -0.075758
  18 C :   -0.038311
  19 C :   -0.032636
  20 C :   -0.180224
  21 H :    0.026051
  22 C :    0.006790
  23 H :    0.031647
  24 H :    0.019222
  25 C :   -0.029150
  26 H :    0.019802
  27 H :    0.020111
  28 C :   -0.021364
  29 H :    0.025866
  30 H :    0.021455
  31 H :    0.042117
  32 H :    0.041438
  33 H :    0.065308
Sum of atomic charges:   -0.0000000

LOEWDIN ATOMIC CHARGES
----------------------
   0 S :    0.443922
   1 C :   -0.217663
   2 C :   -0.064831
   3 C :   -0.047951
   4 C :   -0.207357
   5 H :    0.022894
   6 C :   -0.033241
   7 H :    0.038900
   8 H :    0.043344
   9 C :   -0.037022
  10 H :    0.031938
  11 H :    0.018879
  12 C :   -0.066308
  13 H :    0.013601
  14 H :    0.029578
  15 H :    0.020549
  16 S :    0.360006
  17 C :   -0.191362
  18 C :   -0.078796
  19 C :   -0.042077
  20 C :   -0.183742
  21 H :    0.033405
  22 C :   -0.039864
  23 H :    0.027412
  24 H :    0.029608
  25 C :   -0.033729
  26 H :    0.016661
  27 H :    0.027496
  28 C :   -0.058552
  29 H :    0.028730
  30 H :    0.018811
  31 H :    0.024622
  32 H :    0.029778
  33 H :    0.042361

  Mayer bond orders larger than 0.100000
B(  0-S ,  1-C ) :   1.1412 B(  0-S ,  4-C ) :   1.1894 B(  1-C ,  2-C ) :   1.5939
B(  1-C ,  4-C ) :   0.1028 B(  1-C , 32-H ) :   0.9696 B(  2-C ,  3-C ) :   1.2686
B(  2-C ,  6-C ) :   0.9882 B(  3-C ,  4-C ) :   1.5256 B(  3-C ,  5-H ) :   1.0152
B(  4-C , 20-C ) :   1.0327 B(  6-C ,  7-H ) :   0.9475 B(  6-C ,  8-H ) :   0.9383
B(  6-C ,  9-C ) :   1.0799 B(  9-C , 10-H ) :   0.9594 B(  9-C , 11-H ) :   0.9474
B(  9-C , 12-C ) :   1.0870 B( 12-C , 13-H ) :   0.9711 B( 12-C , 14-H ) :   0.9741
B( 12-C , 15-H ) :   0.9709 B( 16-S , 17-C ) :   1.1250 B( 16-S , 20-C ) :   1.0992
B( 17-C , 18-C ) :   1.7038 B( 17-C , 33-H ) :   0.9465 B( 18-C , 19-C ) :   1.1818
B( 18-C , 21-H ) :   0.9757 B( 19-C , 20-C ) :   1.6595 B( 19-C , 22-C ) :   1.0356
B( 22-C , 23-H ) :   0.9446 B( 22-C , 24-H ) :   0.9387 B( 22-C , 25-C ) :   1.0651
B( 25-C , 26-H ) :   0.9579 B( 25-C , 27-H ) :   0.9483 B( 25-C , 28-C ) :   1.0876
B( 28-C , 29-H ) :   0.9725 B( 28-C , 30-H ) :   0.9696 B( 28-C , 31-H ) :   0.9640

Dispersion correction           -0.014366923
FINAL SINGLE POINT ENERGY     -1339.856575304927

DIPOLE MOMENT
-------------
                                X             Y             Z
Electronic contribution:     -3.84646      10.19239      17.20410
Nuclear contribution   :      3.97852     -10.54091     -17.68922
                        -----------------------------------------
Total Dipole Moment    :      0.13206      -0.34851      -0.48513
                        -----------------------------------------
Magnitude (a.u.)       :      0.61176
Magnitude (Debye)      :      1.55497

Rotational constants in cm-1:     0.022396     0.007280     0.006835
Rotational constants in MHz :   671.428277   218.245445   204.916765

                             ****ORCA TERMINATED NORMALLY****
TOTAL RUN TIME: 0 days 0 hours 0 minutes 21 seconds 551 msec
