                         Program Version 4.2.1 -  RELEASE  -
|  1> ! wB97X-D3 SP def2-SVP
|  2> %pal
|  3> nprocs 24
|  4> end
|  5>
|  6> * xyz 0 1
|  7> S 	 -54.2141 	 -3.70206 	 -28.6531
|  8> C 	 -52.9524 	 -3.19042 	 -27.6228
|  9> C 	 -53.1224 	 -1.92217 	 -27.1861
| 10> C 	 -54.2547 	 -1.29987 	 -27.778
| 11> C 	 -55.0153 	 -2.09071 	 -28.5996
| 12> H 	 -54.6265 	 -0.249149 	 -27.6265
| 13> C 	 -52.1416 	 -1.1411 	 -26.3863
| 14> H 	 -52.4084 	 -0.0576308 	 -26.3712
| 15> H 	 -51.199 	 -1.2329 	 -26.8959
| 16> C 	 -51.921 	 -1.61875 	 -24.9196
| 17> H 	 -52.8855 	 -1.57883 	 -24.3601
| 18> H 	 -51.7346 	 -2.633 	 -24.927
| 19> C 	 -50.966 	 -0.633139 	 -24.1966
| 20> H 	 -50.6978 	 -0.936984 	 -23.224
| 21> H 	 -50.0158 	 -0.551147 	 -24.7596
| 22> H 	 -51.3639 	 0.411557 	 -24.216
| 23> S 	 -57.7853 	 -2.58042 	 -28.8639
| 24> C 	 -58.7764 	 -1.58843 	 -29.9
| 25> C 	 -57.9687 	 -0.713847 	 -30.5719
| 26> C 	 -56.5761 	 -0.875988 	 -30.3034
| 27> C 	 -56.2925 	 -1.72835 	 -29.2712
| 28> H 	 -58.374 	 0.0841336 	 -31.0293
| 29> C 	 -55.5445 	 0.00733508 	 -31.0362
| 30> H 	 -54.8845 	 0.609502 	 -30.3872
| 31> H 	 -56.027 	 1.01947 	 -31.3034
| 32> C 	 -54.7749 	 -0.618121 	 -32.1563
| 33> H 	 -54.2009 	 0.118945 	 -32.5798
| 34> H 	 -55.3906 	 -0.947668 	 -32.9783
| 35> C 	 -53.9282 	 -1.78826 	 -31.7575
| 36> H 	 -53.1018 	 -1.52039 	 -31.065
| 37> H 	 -53.478 	 -2.32443 	 -32.6502
| 38> H 	 -54.6133 	 -2.48875 	 -31.2243
| 39> H 	 -52.1892 	 -3.84625 	 -27.2415
| 40> H 	 -59.8749 	 -1.5893 	 -29.9369
| 41> *
| 42>
| 43>                          ****END OF INPUT****

CARTESIAN COORDINATES (ANGSTROEM)
---------------------------------
  S    -54.214100   -3.702060  -28.653100
  C    -52.952400   -3.190420  -27.622800
  C    -53.122400   -1.922170  -27.186100
  C    -54.254700   -1.299870  -27.778000
  C    -55.015300   -2.090710  -28.599600
  H    -54.626500   -0.249149  -27.626500
  C    -52.141600   -1.141100  -26.386300
  H    -52.408400   -0.057631  -26.371200
  H    -51.199000   -1.232900  -26.895900
  C    -51.921000   -1.618750  -24.919600
  H    -52.885500   -1.578830  -24.360100
  H    -51.734600   -2.633000  -24.927000
  C    -50.966000   -0.633139  -24.196600
  H    -50.697800   -0.936984  -23.224000
  H    -50.015800   -0.551147  -24.759600
  H    -51.363900    0.411557  -24.216000
  S    -57.785300   -2.580420  -28.863900
  C    -58.776400   -1.588430  -29.900000
  C    -57.968700   -0.713847  -30.571900
  C    -56.576100   -0.875988  -30.303400
  C    -56.292500   -1.728350  -29.271200
  H    -58.374000    0.084134  -31.029300
  C    -55.544500    0.007335  -31.036200
  H    -54.884500    0.609502  -30.387200
  H    -56.027000    1.019470  -31.303400
  C    -54.774900   -0.618121  -32.156300
  H    -54.200900    0.118945  -32.579800
  H    -55.390600   -0.947668  -32.978300
  C    -53.928200   -1.788260  -31.757500
  H    -53.101800   -1.520390  -31.065000
  H    -53.478000   -2.324430  -32.650200
  H    -54.613300   -2.488750  -31.224300
  H    -52.189200   -3.846250  -27.241500
  H    -59.874900   -1.589300  -29.936900

 Total Charge           Charge          ....    0
 Multiplicity           Mult            ....    1
 Number of Electrons    NEL             ....  134
 Basis Dimension        Dim             ....  322

ORBITAL ENERGIES
----------------

  NO   OCC          E(Eh)            E(eV)
   0   2.0000     -88.965106     -2420.8636
   1   2.0000     -88.962338     -2420.7883
   2   2.0000     -10.333118      -281.1784
   3   2.0000     -10.331492      -281.1342
   4   2.0000     -10.320314      -280.8300
   5   2.0000     -10.310025      -280.5501
   6   2.0000     -10.304545      -280.4009
   7   2.0000     -10.296761      -280.1891
   8   2.0000     -10.294921      -280.1390
   9   2.0000     -10.294595      -280.1302
  10   2.0000     -10.290802      -280.0270
  11   2.0000     -10.286132      -279.8999
  12   2.0000     -10.284402      -279.8528
  13   2.0000     -10.282624      -279.8044
  14   2.0000     -10.271226      -279.4943
  15   2.0000     -10.269003      -279.4338
  16   2.0000      -8.079586      -219.8567
  17   2.0000      -8.077249      -219.7931
  18   2.0000      -6.038114      -164.3054
  19   2.0000      -6.035828      -164.2432
  20   2.0000      -6.034097      -164.1961
  21   2.0000      -6.031575      -164.1275
  22   2.0000      -6.030340      -164.0939
  23   2.0000      -6.028046      -164.0315
  24   2.0000      -1.007697       -27.4208
  25   2.0000      -0.990895       -26.9636
  26   2.0000      -0.911205       -24.7952
  27   2.0000      -0.909370       -24.7452
  28   2.0000      -0.871450       -23.7134
  29   2.0000      -0.850163       -23.1341
  30   2.0000      -0.844672       -22.9847
  31   2.0000      -0.819808       -22.3081
  32   2.0000      -0.779610       -21.2143
  33   2.0000      -0.769328       -20.9345
  34   2.0000      -0.711395       -19.3580
  35   2.0000      -0.703335       -19.1387
  36   2.0000      -0.690565       -18.7912
  37   2.0000      -0.664309       -18.0768
  38   2.0000      -0.645098       -17.5540
  39   2.0000      -0.618576       -16.8323
  40   2.0000      -0.601481       -16.3671
  41   2.0000      -0.578414       -15.7394
  42   2.0000      -0.560762       -15.2591
  43   2.0000      -0.555919       -15.1273
  44   2.0000      -0.537025       -14.6132
  45   2.0000      -0.521270       -14.1845
  46   2.0000      -0.514742       -14.0069
  47   2.0000      -0.511665       -13.9231
  48   2.0000      -0.506358       -13.7787
  49   2.0000      -0.501285       -13.6407
  50   2.0000      -0.487182       -13.2569
  51   2.0000      -0.480338       -13.0707
  52   2.0000      -0.475136       -12.9291
  53   2.0000      -0.467689       -12.7265
  54   2.0000      -0.457454       -12.4480
  55   2.0000      -0.454057       -12.3555
  56   2.0000      -0.438396       -11.9294
  57   2.0000      -0.434082       -11.8120
  58   2.0000      -0.429967       -11.7000
  59   2.0000      -0.420921       -11.4538
  60   2.0000      -0.415441       -11.3047
  61   2.0000      -0.408277       -11.1098
  62   2.0000      -0.396296       -10.7838
  63   2.0000      -0.344791        -9.3822
  64   2.0000      -0.331122        -9.0103
  65   2.0000      -0.326426        -8.8825
  66   2.0000      -0.305730        -8.3193
  67   0.0000       0.037137         1.0106
  68   0.0000       0.058372         1.5884
  69   0.0000       0.117239         3.1902
  70   0.0000       0.120751         3.2858
  71   0.0000       0.134865         3.6699

MULLIKEN ATOMIC CHARGES
-----------------------
   0 S :    0.115371
   1 C :   -0.121229
   2 C :   -0.048968
   3 C :    0.022010
   4 C :   -0.165777
   5 H :    0.031098
   6 C :    0.033104
   7 H :    0.024011
   8 H :    0.033275
   9 C :   -0.063024
  10 H :    0.031191
  11 H :    0.007696
  12 C :   -0.031467
  13 H :    0.030393
  14 H :    0.021939
  15 H :    0.037981
  16 S :    0.097482
  17 C :   -0.093788
  18 C :    0.013455
  19 C :   -0.021423
  20 C :   -0.165657
  21 H :   -0.020111
  22 C :    0.006737
  23 H :    0.017085
  24 H :    0.013166
  25 C :    0.027608
  26 H :   -0.001599
  27 H :    0.016183
  28 C :   -0.074119
  29 H :    0.032920
  30 H :    0.039806
  31 H :    0.037281
  32 H :    0.047589
  33 H :    0.069781
Sum of atomic charges:   -0.0000000

LOEWDIN ATOMIC CHARGES
----------------------
   0 S :    0.409745
   1 C :   -0.198911
   2 C :   -0.076620
   3 C :   -0.057716
   4 C :   -0.183893
   5 H :    0.041444
   6 C :   -0.030779
   7 H :    0.032184
   8 H :    0.030748
   9 C :   -0.035334
  10 H :    0.029506
  11 H :    0.009186
  12 C :   -0.063272
  13 H :    0.018708
  14 H :    0.025019
  15 H :    0.032682
  16 S :    0.399527
  17 C :   -0.179108
  18 C :   -0.062744
  19 C :   -0.056346
  20 C :   -0.193337
  21 H :    0.012510
  22 C :   -0.046733
  23 H :    0.032119
  24 H :    0.038756
  25 C :   -0.040635
  26 H :    0.013922
  27 H :    0.024825
  28 C :   -0.070669
  29 H :    0.024930
  30 H :    0.031058
  31 H :    0.021541
  32 H :    0.028831
  33 H :    0.038856

  Mayer bond orders larger than 0.100000
B(  0-S ,  1-C ) :   1.1552 B(  0-S ,  4-C ) :   1.1315 B(  1-C ,  2-C ) :   1.6064
B(  1-C , 32-H ) :   0.9665 B(  2-C ,  3-C ) :   1.2436 B(  2-C ,  6-C ) :   1.0152
B(  3-C ,  4-C ) :   1.6130 B(  3-C ,  5-H ) :   0.9827 B(  4-C , 20-C ) :   1.0261
B(  6-C ,  7-H ) :   0.9492 B(  6-C ,  8-H ) :   0.9421 B(  6-C ,  9-C ) :   1.0518
B(  9-C , 10-H ) :   0.9558 B(  9-C , 11-H ) :   0.9619 B(  9-C , 12-C ) :   1.0732
B( 12-C , 13-H ) :   0.9754 B( 12-C , 14-H ) :   0.9748 B( 12-C , 15-H ) :   0.9732
B( 16-S , 17-C ) :   1.1589 B( 16-S , 20-C ) :   1.1317 B( 17-C , 18-C ) :   1.6078
B( 17-C , 33-H ) :   0.9646 B( 18-C , 19-C ) :   1.2424 B( 18-C , 21-H ) :   1.0037
B( 19-C , 20-C ) :   1.6146 B( 19-C , 22-C ) :   1.0177 B( 22-C , 23-H ) :   0.9368
B( 22-C , 24-H ) :   0.9297 B( 22-C , 25-C ) :   1.0802 B( 25-C , 26-H ) :   0.9409
B( 25-C , 27-H ) :   0.9477 B( 25-C , 28-C ) :   1.0906 B( 28-C , 29-H ) :   0.9720
B( 28-C , 30-H ) :   0.9706 B( 28-C , 31-H ) :   0.9669

Dispersion correction           -0.015099109
FINAL SINGLE POINT ENERGY     -1339.864293603624

DIPOLE MOMENT
-------------
                                X             Y             Z
Electronic contribution:    -19.39724     -13.17012      -3.38426
Nuclear contribution   :     19.67482      13.79980       3.49142
                        -----------------------------------------
Total Dipole Moment    :      0.27758       0.62968       0.10716
                        -----------------------------------------
Magnitude (a.u.)       :      0.69644
Magnitude (Debye)      :      1.77022

Rotational constants in cm-1:     0.022440     0.007528     0.006959
Rotational constants in MHz :   672.724388   225.682016   208.632033

                             ****ORCA TERMINATED NORMALLY****
TOTAL RUN TIME: 0 days 0 hours 0 minutes 21 seconds 970 msec
