                         Program Version 4.2.1 -  RELEASE  -
|  1> ! wB97X-D3 SP def2-SVP
|  2> %pal
|  3> nprocs 24
|  4> end
|  5>
|  6> * xyz 0 1
|  7> S 	 -111.661 	 35.9194 	 -16.3624
|  8> C 	 -110.361 	 36.4285 	 -15.2395
|  9> C 	 -109.171 	 35.8538 	 -15.697
| 10> C 	 -109.331 	 34.934 	 -16.716
| 11> C 	 -110.656 	 34.6073 	 -16.9361
| 12> H 	 -108.555 	 34.4125 	 -17.2864
| 13> C 	 -107.777 	 36.0731 	 -15.0727
| 14> H 	 -107.667 	 37.116 	 -14.7847
| 15> H 	 -107.025 	 35.9203 	 -15.7853
| 16> C 	 -107.561 	 35.1116 	 -13.8998
| 17> H 	 -108.279 	 35.3632 	 -13.12
| 18> H 	 -107.825 	 34.0751 	 -14.126
| 19> C 	 -106.165 	 35.2719 	 -13.434
| 20> H 	 -106.055 	 34.996 	 -12.4174
| 21> H 	 -105.442 	 34.6972 	 -13.9661
| 22> H 	 -105.85 	 36.3391 	 -13.39
| 23> S 	 -111.961 	 34.0875 	 -19.2322
| 24> C 	 -112.442 	 32.4408 	 -19.6117
| 25> C 	 -111.879 	 31.5731 	 -18.749
| 26> C 	 -111.021 	 32.179 	 -17.7133
| 27> C 	 -111.213 	 33.5565 	 -17.735
| 28> H 	 -112.18 	 30.5058 	 -18.9015
| 29> C 	 -110.268 	 31.381 	 -16.6252
| 30> H 	 -111.002 	 31.1519 	 -15.8485
| 31> H 	 -109.448 	 31.9095 	 -16.1251
| 32> C 	 -109.732 	 30.0869 	 -17.218
| 33> H 	 -109.013 	 30.234 	 -18.0573
| 34> H 	 -110.552 	 29.4643 	 -17.52
| 35> C 	 -108.943 	 29.2087 	 -16.14
| 36> H 	 -108.098 	 29.9004 	 -15.8571
| 37> H 	 -108.596 	 28.1999 	 -16.4798
| 38> H 	 -109.53 	 29.0613 	 -15.2681
| 39> H 	 -110.37 	 37.2607 	 -14.4787
| 40> H 	 -113.196 	 32.1655 	 -20.3585
| 41> *
| 42>
| 43>                          ****END OF INPUT****

CARTESIAN COORDINATES (ANGSTROEM)
---------------------------------
  S    -111.661000   35.919400  -16.362400
  C    -110.361000   36.428500  -15.239500
  C    -109.171000   35.853800  -15.697000
  C    -109.331000   34.934000  -16.716000
  C    -110.656000   34.607300  -16.936100
  H    -108.555000   34.412500  -17.286400
  C    -107.777000   36.073100  -15.072700
  H    -107.667000   37.116000  -14.784700
  H    -107.025000   35.920300  -15.785300
  C    -107.561000   35.111600  -13.899800
  H    -108.279000   35.363200  -13.120000
  H    -107.825000   34.075100  -14.126000
  C    -106.165000   35.271900  -13.434000
  H    -106.055000   34.996000  -12.417400
  H    -105.442000   34.697200  -13.966100
  H    -105.850000   36.339100  -13.390000
  S    -111.961000   34.087500  -19.232200
  C    -112.442000   32.440800  -19.611700
  C    -111.879000   31.573100  -18.749000
  C    -111.021000   32.179000  -17.713300
  C    -111.213000   33.556500  -17.735000
  H    -112.180000   30.505800  -18.901500
  C    -110.268000   31.381000  -16.625200
  H    -111.002000   31.151900  -15.848500
  H    -109.448000   31.909500  -16.125100
  C    -109.732000   30.086900  -17.218000
  H    -109.013000   30.234000  -18.057300
  H    -110.552000   29.464300  -17.520000
  C    -108.943000   29.208700  -16.140000
  H    -108.098000   29.900400  -15.857100
  H    -108.596000   28.199900  -16.479800
  H    -109.530000   29.061300  -15.268100
  H    -110.370000   37.260700  -14.478700
  H    -113.196000   32.165500  -20.358500

 Total Charge           Charge          ....    0
 Multiplicity           Mult            ....    1
 Number of Electrons    NEL             ....  134
 Basis Dimension        Dim             ....  322

ORBITAL ENERGIES
----------------

  NO   OCC          E(Eh)            E(eV)
   0   2.0000     -88.964148     -2420.8375
   1   2.0000     -88.958899     -2420.6947
   2   2.0000     -10.324925      -280.9555
   3   2.0000     -10.324464      -280.9429
   4   2.0000     -10.319773      -280.8153
   5   2.0000     -10.313896      -280.6554
   6   2.0000     -10.313651      -280.6487
   7   2.0000     -10.298422      -280.2343
   8   2.0000     -10.298308      -280.2312
   9   2.0000     -10.298220      -280.2288
  10   2.0000     -10.290622      -280.0221
  11   2.0000     -10.290491      -280.0185
  12   2.0000     -10.287112      -279.9265
  13   2.0000     -10.285052      -279.8705
  14   2.0000     -10.282842      -279.8104
  15   2.0000     -10.270852      -279.4841
  16   2.0000      -8.078328      -219.8225
  17   2.0000      -8.074034      -219.7056
  18   2.0000      -6.036854      -164.2712
  19   2.0000      -6.033199      -164.1717
  20   2.0000      -6.032710      -164.1584
  21   2.0000      -6.028785      -164.0516
  22   2.0000      -6.028603      -164.0466
  23   2.0000      -6.024466      -163.9340
  24   2.0000      -1.007901       -27.4264
  25   2.0000      -0.982747       -26.7419
  26   2.0000      -0.917730       -24.9727
  27   2.0000      -0.907026       -24.6814
  28   2.0000      -0.872793       -23.7499
  29   2.0000      -0.848889       -23.0995
  30   2.0000      -0.838762       -22.8239
  31   2.0000      -0.813189       -22.1280
  32   2.0000      -0.781233       -21.2584
  33   2.0000      -0.769835       -20.9483
  34   2.0000      -0.705646       -19.2016
  35   2.0000      -0.702902       -19.1269
  36   2.0000      -0.697623       -18.9833
  37   2.0000      -0.647637       -17.6231
  38   2.0000      -0.637377       -17.3439
  39   2.0000      -0.619053       -16.8453
  40   2.0000      -0.597565       -16.2606
  41   2.0000      -0.571724       -15.5574
  42   2.0000      -0.569285       -15.4910
  43   2.0000      -0.559954       -15.2371
  44   2.0000      -0.524777       -14.2799
  45   2.0000      -0.523836       -14.2543
  46   2.0000      -0.517506       -14.0820
  47   2.0000      -0.513350       -13.9690
  48   2.0000      -0.508864       -13.8469
  49   2.0000      -0.498905       -13.5759
  50   2.0000      -0.490929       -13.3589
  51   2.0000      -0.475590       -12.9415
  52   2.0000      -0.475206       -12.9310
  53   2.0000      -0.466339       -12.6897
  54   2.0000      -0.456977       -12.4350
  55   2.0000      -0.450724       -12.2648
  56   2.0000      -0.443777       -12.0758
  57   2.0000      -0.436076       -11.8662
  58   2.0000      -0.433570       -11.7980
  59   2.0000      -0.427022       -11.6199
  60   2.0000      -0.420679       -11.4473
  61   2.0000      -0.414137       -11.2692
  62   2.0000      -0.410452       -11.1690
  63   2.0000      -0.338830        -9.2200
  64   2.0000      -0.327760        -8.9188
  65   2.0000      -0.324454        -8.8288
  66   2.0000      -0.293097        -7.9756
  67   0.0000       0.022758         0.6193
  68   0.0000       0.062951         1.7130
  69   0.0000       0.106092         2.8869
  70   0.0000       0.115736         3.1493
  71   0.0000       0.128267         3.4903

MULLIKEN ATOMIC CHARGES
-----------------------
   0 S :    0.106297
   1 C :   -0.124421
   2 C :   -0.106864
   3 C :    0.051724
   4 C :   -0.187199
   5 H :    0.022238
   6 C :    0.076993
   7 H :    0.021376
   8 H :    0.005608
   9 C :   -0.058813
  10 H :    0.020055
  11 H :    0.027403
  12 C :   -0.008208
  13 H :    0.012818
  14 H :    0.030339
  15 H :    0.023482
  16 S :    0.087767
  17 C :   -0.090262
  18 C :   -0.060801
  19 C :   -0.017590
  20 C :   -0.149730
  21 H :    0.039626
  22 C :    0.082013
  23 H :    0.044707
  24 H :    0.025476
  25 C :   -0.128688
  26 H :    0.048043
  27 H :    0.032766
  28 C :   -0.055779
  29 H :    0.030834
  30 H :    0.048608
  31 H :    0.021495
  32 H :    0.065131
  33 H :    0.063558
Sum of atomic charges:    0.0000000

LOEWDIN ATOMIC CHARGES
----------------------
   0 S :    0.392645
   1 C :   -0.201528
   2 C :   -0.063357
   3 C :   -0.061649
   4 C :   -0.192409
   5 H :    0.036414
   6 C :   -0.021098
   7 H :    0.027560
   8 H :    0.020132
   9 C :   -0.038916
  10 H :    0.024609
  11 H :    0.025590
  12 C :   -0.064633
  13 H :    0.021602
  14 H :    0.022644
  15 H :    0.030294
  16 S :    0.383825
  17 C :   -0.185384
  18 C :   -0.078346
  19 C :   -0.048860
  20 C :   -0.196093
  21 H :    0.040291
  22 C :   -0.029000
  23 H :    0.038846
  24 H :    0.029228
  25 C :   -0.041132
  26 H :    0.029980
  27 H :    0.017607
  28 C :   -0.069395
  29 H :    0.027947
  30 H :    0.030758
  31 H :    0.015120
  32 H :    0.040884
  33 H :    0.035823

  Mayer bond orders larger than 0.100000
B(  0-S ,  1-C ) :   1.1237 B(  0-S ,  4-C ) :   1.1557 B(  1-C ,  2-C ) :   1.5905
B(  1-C ,  4-C ) :   0.1222 B(  1-C , 32-H ) :   0.9650 B(  2-C ,  3-C ) :   1.2571
B(  2-C ,  6-C ) :   1.0250 B(  3-C ,  4-C ) :   1.5396 B(  3-C ,  5-H ) :   0.9979
B(  4-C , 20-C ) :   1.0492 B(  6-C ,  7-H ) :   0.9365 B(  6-C ,  8-H ) :   0.9453
B(  6-C ,  9-C ) :   1.0618 B(  9-C , 10-H ) :   0.9523 B(  9-C , 11-H ) :   0.9555
B(  9-C , 12-C ) :   1.0888 B( 12-C , 13-H ) :   0.9668 B( 12-C , 14-H ) :   0.9733
B( 12-C , 15-H ) :   0.9679 B( 16-S , 17-C ) :   1.1163 B( 16-S , 20-C ) :   1.1435
B( 17-C , 18-C ) :   1.6936 B( 17-C , 33-H ) :   0.9615 B( 18-C , 19-C ) :   1.1621
B( 18-C , 21-H ) :   0.9761 B( 19-C , 20-C ) :   1.6368 B( 19-C , 22-C ) :   1.0400
B( 22-C , 23-H ) :   0.9327 B( 22-C , 24-H ) :   0.9407 B( 22-C , 25-C ) :   1.0610
B( 25-C , 26-H ) :   0.9645 B( 25-C , 27-H ) :   0.9498 B( 25-C , 28-C ) :   1.0749
B( 28-C , 29-H ) :   0.9768 B( 28-C , 30-H ) :   0.9762 B( 28-C , 31-H ) :   0.9757

Dispersion correction           -0.013679518
FINAL SINGLE POINT ENERGY     -1339.855422051537

DIPOLE MOMENT
-------------
                                X             Y             Z
Electronic contribution:    -23.14676      14.79708     -16.70389
Nuclear contribution   :     23.65476     -15.23070      17.00911
                        -----------------------------------------
Total Dipole Moment    :      0.50799      -0.43363       0.30522
                        -----------------------------------------
Magnitude (a.u.)       :      0.73434
Magnitude (Debye)      :      1.86653

Rotational constants in cm-1:     0.016121     0.009410     0.006348
Rotational constants in MHz :   483.290925   282.106245   190.319145

                             ****ORCA TERMINATED NORMALLY****
TOTAL RUN TIME: 0 days 0 hours 0 minutes 21 seconds 271 msec
