                         Program Version 4.2.1 -  RELEASE  -
|  1> ! wB97X-D3 SP def2-SVP
|  2> %pal
|  3> nprocs 24
|  4> end
|  5>
|  6> * xyz 0 1
|  7> S 	 -64.7383 	 10.8022 	 -74.3793
|  8> C 	 -64.9559 	 11.8471 	 -75.7535
|  9> C 	 -65.9296 	 12.7821 	 -75.5641
| 10> C 	 -66.3387 	 12.8117 	 -74.1684
| 11> C 	 -65.7898 	 11.8533 	 -73.4276
| 12> H 	 -67.0894 	 13.4841 	 -73.7928
| 13> C 	 -66.3768 	 13.7872 	 -76.6898
| 14> H 	 -66.2324 	 13.2416 	 -77.6527
| 15> H 	 -65.5163 	 14.4945 	 -76.6494
| 16> C 	 -67.763 	 14.4189 	 -76.6469
| 17> H 	 -67.8409 	 14.7678 	 -75.6419
| 18> H 	 -67.8653 	 15.2798 	 -77.3036
| 19> C 	 -68.8582 	 13.4156 	 -76.9539
| 20> H 	 -69.9076 	 13.8309 	 -76.8613
| 21> H 	 -68.6839 	 13.107 	 -77.996
| 22> H 	 -68.7491 	 12.5873 	 -76.2734
| 23> S 	 -65.2656 	 12.2077 	 -70.6585
| 24> C 	 -66.3767 	 11.4657 	 -69.4753
| 25> C 	 -67.391 	 10.7591 	 -70.1124
| 26> C 	 -67.2814 	 10.8582 	 -71.5843
| 27> C 	 -66.1471 	 11.4844 	 -72.0324
| 28> H 	 -68.1835 	 10.2841 	 -69.546
| 29> C 	 -68.3918 	 10.1367 	 -72.4149
| 30> H 	 -68.2894 	 9.09385 	 -72.3438
| 31> H 	 -68.1957 	 10.4492 	 -73.4425
| 32> C 	 -69.8354 	 10.4919 	 -72.027
| 33> H 	 -69.8886 	 11.5939 	 -71.9127
| 34> H 	 -70.0352 	 9.99674 	 -71.1125
| 35> C 	 -70.8392 	 9.994 	 -73.0674
| 36> H 	 -70.7598 	 10.5317 	 -74.0196
| 37> H 	 -71.8582 	 10.2901 	 -72.7763
| 38> H 	 -70.8545 	 8.90172 	 -73.2396
| 39> H 	 -64.503 	 11.7917 	 -76.6688
| 40> H 	 -66.2449 	 11.4972 	 -68.4055
| 41> *
| 42>
| 43>                          ****END OF INPUT****

CARTESIAN COORDINATES (ANGSTROEM)
---------------------------------
  S    -64.738300   10.802200  -74.379300
  C    -64.955900   11.847100  -75.753500
  C    -65.929600   12.782100  -75.564100
  C    -66.338700   12.811700  -74.168400
  C    -65.789800   11.853300  -73.427600
  H    -67.089400   13.484100  -73.792800
  C    -66.376800   13.787200  -76.689800
  H    -66.232400   13.241600  -77.652700
  H    -65.516300   14.494500  -76.649400
  C    -67.763000   14.418900  -76.646900
  H    -67.840900   14.767800  -75.641900
  H    -67.865300   15.279800  -77.303600
  C    -68.858200   13.415600  -76.953900
  H    -69.907600   13.830900  -76.861300
  H    -68.683900   13.107000  -77.996000
  H    -68.749100   12.587300  -76.273400
  S    -65.265600   12.207700  -70.658500
  C    -66.376700   11.465700  -69.475300
  C    -67.391000   10.759100  -70.112400
  C    -67.281400   10.858200  -71.584300
  C    -66.147100   11.484400  -72.032400
  H    -68.183500   10.284100  -69.546000
  C    -68.391800   10.136700  -72.414900
  H    -68.289400    9.093850  -72.343800
  H    -68.195700   10.449200  -73.442500
  C    -69.835400   10.491900  -72.027000
  H    -69.888600   11.593900  -71.912700
  H    -70.035200    9.996740  -71.112500
  C    -70.839200    9.994000  -73.067400
  H    -70.759800   10.531700  -74.019600
  H    -71.858200   10.290100  -72.776300
  H    -70.854500    8.901720  -73.239600
  H    -64.503000   11.791700  -76.668800
  H    -66.244900   11.497200  -68.405500

 Total Charge           Charge          ....    0
 Multiplicity           Mult            ....    1
 Number of Electrons    NEL             ....  134
 Basis Dimension        Dim             ....  322

ORBITAL ENERGIES
----------------

  NO   OCC          E(Eh)            E(eV)
   0   2.0000     -88.963964     -2420.8325
   1   2.0000     -88.962817     -2420.8013
   2   2.0000     -10.328623      -281.0561
   3   2.0000     -10.326885      -281.0088
   4   2.0000     -10.322785      -280.8972
   5   2.0000     -10.308074      -280.4969
   6   2.0000     -10.303917      -280.3838
   7   2.0000     -10.302880      -280.3556
   8   2.0000     -10.302281      -280.3393
   9   2.0000     -10.298466      -280.2355
  10   2.0000     -10.292798      -280.0813
  11   2.0000     -10.287139      -279.9273
  12   2.0000     -10.286482      -279.9094
  13   2.0000     -10.286389      -279.9069
  14   2.0000     -10.282534      -279.8020
  15   2.0000     -10.281490      -279.7736
  16   2.0000      -8.078772      -219.8346
  17   2.0000      -8.076594      -219.7753
  18   2.0000      -6.037357      -164.2848
  19   2.0000      -6.035392      -164.2314
  20   2.0000      -6.033416      -164.1776
  21   2.0000      -6.031240      -164.1184
  22   2.0000      -6.029287      -164.0652
  23   2.0000      -6.027105      -164.0059
  24   2.0000      -1.003628       -27.3101
  25   2.0000      -0.977100       -26.5882
  26   2.0000      -0.912773       -24.8378
  27   2.0000      -0.906171       -24.6582
  28   2.0000      -0.870587       -23.6899
  29   2.0000      -0.845645       -23.0112
  30   2.0000      -0.841206       -22.8904
  31   2.0000      -0.818963       -22.2851
  32   2.0000      -0.780506       -21.2386
  33   2.0000      -0.771102       -20.9828
  34   2.0000      -0.707912       -19.2633
  35   2.0000      -0.698383       -19.0040
  36   2.0000      -0.690773       -18.7969
  37   2.0000      -0.656601       -17.8670
  38   2.0000      -0.642492       -17.4831
  39   2.0000      -0.622754       -16.9460
  40   2.0000      -0.590807       -16.0767
  41   2.0000      -0.575570       -15.6621
  42   2.0000      -0.568600       -15.4724
  43   2.0000      -0.556912       -15.1543
  44   2.0000      -0.547985       -14.9114
  45   2.0000      -0.521009       -14.1774
  46   2.0000      -0.514637       -14.0040
  47   2.0000      -0.509463       -13.8632
  48   2.0000      -0.503771       -13.7083
  49   2.0000      -0.492705       -13.4072
  50   2.0000      -0.483174       -13.1478
  51   2.0000      -0.480058       -13.0631
  52   2.0000      -0.471128       -12.8200
  53   2.0000      -0.465345       -12.6627
  54   2.0000      -0.459278       -12.4976
  55   2.0000      -0.451150       -12.2764
  56   2.0000      -0.443027       -12.0554
  57   2.0000      -0.439791       -11.9673
  58   2.0000      -0.433162       -11.7869
  59   2.0000      -0.424846       -11.5606
  60   2.0000      -0.421907       -11.4807
  61   2.0000      -0.418280       -11.3820
  62   2.0000      -0.410284       -11.1644
  63   2.0000      -0.337833        -9.1929
  64   2.0000      -0.327506        -8.9119
  65   2.0000      -0.320140        -8.7114
  66   2.0000      -0.316373        -8.6090
  67   0.0000       0.048831         1.3287
  68   0.0000       0.056515         1.5378
  69   0.0000       0.112268         3.0550
  70   0.0000       0.118192         3.2162
  71   0.0000       0.124432         3.3860

MULLIKEN ATOMIC CHARGES
-----------------------
   0 S :    0.116891
   1 C :   -0.070997
   2 C :   -0.123761
   3 C :    0.047260
   4 C :   -0.168222
   5 H :    0.009718
   6 C :    0.017175
   7 H :    0.022830
   8 H :    0.055446
   9 C :   -0.031983
  10 H :    0.019032
  11 H :    0.033733
  12 C :   -0.065593
  13 H :    0.047698
  14 H :    0.032099
  15 H :    0.037184
  16 S :    0.089164
  17 C :   -0.091234
  18 C :   -0.028882
  19 C :   -0.035050
  20 C :   -0.162290
  21 H :    0.028295
  22 C :    0.090269
  23 H :    0.027147
  24 H :    0.021986
  25 C :   -0.086350
  26 H :    0.039186
  27 H :    0.023971
  28 C :   -0.052907
  29 H :    0.030079
  30 H :    0.025972
  31 H :    0.041078
  32 H :    0.001592
  33 H :    0.059462
Sum of atomic charges:   -0.0000000

LOEWDIN ATOMIC CHARGES
----------------------
   0 S :    0.399648
   1 C :   -0.185349
   2 C :   -0.060822
   3 C :   -0.059199
   4 C :   -0.188175
   5 H :    0.030981
   6 C :   -0.034877
   7 H :    0.028610
   8 H :    0.041145
   9 C :   -0.043965
  10 H :    0.018264
  11 H :    0.028462
  12 C :   -0.063871
  13 H :    0.033187
  14 H :    0.027064
  15 H :    0.022913
  16 S :    0.371593
  17 C :   -0.166490
  18 C :   -0.073081
  19 C :   -0.046002
  20 C :   -0.199907
  21 H :    0.031614
  22 C :   -0.024585
  23 H :    0.024887
  24 H :    0.027223
  25 C :   -0.037970
  26 H :    0.030401
  27 H :    0.016477
  28 C :   -0.069274
  29 H :    0.026215
  30 H :    0.027061
  31 H :    0.028732
  32 H :    0.009943
  33 H :    0.029147

  Mayer bond orders larger than 0.100000
B(  0-S ,  1-C ) :   1.1279 B(  0-S ,  4-C ) :   1.1320 B(  1-C ,  2-C ) :   1.6688
B(  1-C , 32-H ) :   0.9740 B(  2-C ,  3-C ) :   1.1946 B(  2-C ,  6-C ) :   0.9895
B(  3-C ,  4-C ) :   1.6489 B(  3-C ,  5-H ) :   1.0001 B(  4-C , 20-C ) :   0.9817
B(  6-C ,  7-H ) :   0.9461 B(  6-C ,  8-H ) :   0.9437 B(  6-C ,  9-C ) :   1.0661
B(  9-C , 10-H ) :   0.9512 B(  9-C , 11-H ) :   0.9523 B(  9-C , 12-C ) :   1.0759
B( 12-C , 13-H ) :   0.9743 B( 12-C , 14-H ) :   0.9736 B( 12-C , 15-H ) :   0.9778
B( 16-S , 17-C ) :   1.1447 B( 16-S , 20-C ) :   1.1091 B( 17-C , 18-C ) :   1.6451
B( 17-C , 33-H ) :   0.9672 B( 18-C , 19-C ) :   1.1890 B( 18-C , 21-H ) :   0.9877
B( 19-C , 20-C ) :   1.6692 B( 19-C , 22-C ) :   1.0312 B( 22-C , 23-H ) :   0.9392
B( 22-C , 24-H ) :   0.9382 B( 22-C , 25-C ) :   1.0629 B( 25-C , 26-H ) :   0.9586
B( 25-C , 27-H ) :   0.9494 B( 25-C , 28-C ) :   1.0968 B( 28-C , 29-H ) :   0.9731
B( 28-C , 30-H ) :   0.9720 B( 28-C , 31-H ) :   0.9727

Dispersion correction           -0.014453730
FINAL SINGLE POINT ENERGY     -1339.879936143044

DIPOLE MOMENT
-------------
                                X             Y             Z
Electronic contribution:     26.05365      -2.87715      14.29383
Nuclear contribution   :    -26.77290       3.01468     -14.54450
                        -----------------------------------------
Total Dipole Moment    :     -0.71925       0.13753      -0.25067
                        -----------------------------------------
Magnitude (a.u.)       :      0.77399
Magnitude (Debye)      :      1.96733

Rotational constants in cm-1:     0.015961     0.009569     0.007166
Rotational constants in MHz :   478.495480   286.868765   214.823127

                             ****ORCA TERMINATED NORMALLY****
TOTAL RUN TIME: 0 days 0 hours 0 minutes 21 seconds 651 msec
