                         Program Version 4.2.1 -  RELEASE  -
|  1> ! wB97X-D3 SP def2-SVP
|  2> %pal
|  3> nprocs 24
|  4> end
|  5>
|  6> * xyz 0 1
|  7> S 	 -84.2262 	 -37.4674 	 -72.8588
|  8> C 	 -83.1748 	 -37.2631 	 -74.2822
|  9> C 	 -82.5823 	 -38.4484 	 -74.609
| 10> C 	 -83.0451 	 -39.5781 	 -73.8491
| 11> C 	 -84.0575 	 -39.2481 	 -72.9042
| 12> H 	 -82.8582 	 -40.6668 	 -73.8919
| 13> C 	 -81.6064 	 -38.6775 	 -75.7549
| 14> H 	 -82.0041 	 -37.9178 	 -76.4827
| 15> H 	 -81.5437 	 -39.6316 	 -76.1808
| 16> C 	 -80.1899 	 -38.2227 	 -75.3296
| 17> H 	 -79.5526 	 -38.3199 	 -76.2005
| 18> H 	 -80.3168 	 -37.1849 	 -75.0375
| 19> C 	 -79.5046 	 -39.0268 	 -74.3197
| 20> H 	 -78.4247 	 -38.9157 	 -74.3813
| 21> H 	 -79.7662 	 -38.6884 	 -73.3125
| 22> H 	 -79.5254 	 -40.0876 	 -74.4806
| 23> S 	 -84.6033 	 -39.8885 	 -70.1995
| 24> C 	 -85.1963 	 -41.5265 	 -69.9372
| 25> C 	 -85.6905 	 -42.043 	 -71.1149
| 26> C 	 -85.4399 	 -41.279 	 -72.2889
| 27> C 	 -84.7335 	 -40.1517 	 -71.9597
| 28> H 	 -86.29 	 -42.9852 	 -71.0532
| 29> C 	 -85.8289 	 -41.691 	 -73.6944
| 30> H 	 -85.19 	 -41.1501 	 -74.3632
| 31> H 	 -86.8437 	 -41.3057 	 -73.8208
| 32> C 	 -85.6927 	 -43.214 	 -73.9686
| 33> H 	 -86.2414 	 -43.3514 	 -74.9408
| 34> H 	 -86.2587 	 -43.7229 	 -73.1799
| 35> C 	 -84.3385 	 -43.8252 	 -74.2737
| 36> H 	 -84.5496 	 -44.6709 	 -74.8844
| 37> H 	 -83.8362 	 -44.1741 	 -73.3446
| 38> H 	 -83.6534 	 -43.1685 	 -74.7896
| 39> H 	 -83.0074 	 -36.3386 	 -74.7403
| 40> H 	 -85.3005 	 -41.9999 	 -69.0823
| 41> *
| 42>
| 43>                          ****END OF INPUT****

CARTESIAN COORDINATES (ANGSTROEM)
---------------------------------
  S    -84.226200  -37.467400  -72.858800
  C    -83.174800  -37.263100  -74.282200
  C    -82.582300  -38.448400  -74.609000
  C    -83.045100  -39.578100  -73.849100
  C    -84.057500  -39.248100  -72.904200
  H    -82.858200  -40.666800  -73.891900
  C    -81.606400  -38.677500  -75.754900
  H    -82.004100  -37.917800  -76.482700
  H    -81.543700  -39.631600  -76.180800
  C    -80.189900  -38.222700  -75.329600
  H    -79.552600  -38.319900  -76.200500
  H    -80.316800  -37.184900  -75.037500
  C    -79.504600  -39.026800  -74.319700
  H    -78.424700  -38.915700  -74.381300
  H    -79.766200  -38.688400  -73.312500
  H    -79.525400  -40.087600  -74.480600
  S    -84.603300  -39.888500  -70.199500
  C    -85.196300  -41.526500  -69.937200
  C    -85.690500  -42.043000  -71.114900
  C    -85.439900  -41.279000  -72.288900
  C    -84.733500  -40.151700  -71.959700
  H    -86.290000  -42.985200  -71.053200
  C    -85.828900  -41.691000  -73.694400
  H    -85.190000  -41.150100  -74.363200
  H    -86.843700  -41.305700  -73.820800
  C    -85.692700  -43.214000  -73.968600
  H    -86.241400  -43.351400  -74.940800
  H    -86.258700  -43.722900  -73.179900
  C    -84.338500  -43.825200  -74.273700
  H    -84.549600  -44.670900  -74.884400
  H    -83.836200  -44.174100  -73.344600
  H    -83.653400  -43.168500  -74.789600
  H    -83.007400  -36.338600  -74.740300
  H    -85.300500  -41.999900  -69.082300

 Total Charge           Charge          ....    0
 Multiplicity           Mult            ....    1
 Number of Electrons    NEL             ....  134
 Basis Dimension        Dim             ....  322

ORBITAL ENERGIES
----------------

  NO   OCC          E(Eh)            E(eV)
   0   2.0000     -88.966153     -2420.8921
   1   2.0000     -88.963392     -2420.8170
   2   2.0000     -10.334703      -281.2216
   3   2.0000     -10.326553      -280.9998
   4   2.0000     -10.312652      -280.6215
   5   2.0000     -10.310009      -280.5496
   6   2.0000     -10.303637      -280.3762
   7   2.0000     -10.300749      -280.2976
   8   2.0000     -10.299366      -280.2600
   9   2.0000     -10.295615      -280.1579
  10   2.0000     -10.291663      -280.0504
  11   2.0000     -10.290423      -280.0166
  12   2.0000     -10.289979      -280.0046
  13   2.0000     -10.278995      -279.7057
  14   2.0000     -10.278427      -279.6902
  15   2.0000     -10.268060      -279.4081
  16   2.0000      -8.080260      -219.8751
  17   2.0000      -8.077069      -219.7882
  18   2.0000      -6.038860      -164.3257
  19   2.0000      -6.035681      -164.2392
  20   2.0000      -6.035101      -164.2235
  21   2.0000      -6.031738      -164.1319
  22   2.0000      -6.030706      -164.1038
  23   2.0000      -6.027782      -164.0243
  24   2.0000      -1.000628       -27.2285
  25   2.0000      -0.978858       -26.6361
  26   2.0000      -0.915283       -24.9061
  27   2.0000      -0.909141       -24.7390
  28   2.0000      -0.870394       -23.6846
  29   2.0000      -0.852684       -23.2027
  30   2.0000      -0.841884       -22.9088
  31   2.0000      -0.814883       -22.1741
  32   2.0000      -0.787949       -21.4412
  33   2.0000      -0.777368       -21.1533
  34   2.0000      -0.709194       -19.2982
  35   2.0000      -0.701035       -19.0761
  36   2.0000      -0.693917       -18.8825
  37   2.0000      -0.651994       -17.7417
  38   2.0000      -0.645384       -17.5618
  39   2.0000      -0.607005       -16.5174
  40   2.0000      -0.599020       -16.3002
  41   2.0000      -0.586867       -15.9695
  42   2.0000      -0.555641       -15.1198
  43   2.0000      -0.545983       -14.8570
  44   2.0000      -0.543011       -14.7761
  45   2.0000      -0.538741       -14.6599
  46   2.0000      -0.526933       -14.3386
  47   2.0000      -0.520499       -14.1635
  48   2.0000      -0.505686       -13.7604
  49   2.0000      -0.500111       -13.6087
  50   2.0000      -0.489683       -13.3250
  51   2.0000      -0.482715       -13.1354
  52   2.0000      -0.469114       -12.7653
  53   2.0000      -0.465674       -12.6716
  54   2.0000      -0.463102       -12.6016
  55   2.0000      -0.446899       -12.1608
  56   2.0000      -0.442012       -12.0278
  57   2.0000      -0.440527       -11.9873
  58   2.0000      -0.426279       -11.5996
  59   2.0000      -0.424505       -11.5514
  60   2.0000      -0.422221       -11.4892
  61   2.0000      -0.406788       -11.0693
  62   2.0000      -0.400292       -10.8925
  63   2.0000      -0.343099        -9.3362
  64   2.0000      -0.331302        -9.0152
  65   2.0000      -0.326974        -8.8974
  66   2.0000      -0.290747        -7.9116
  67   0.0000       0.029099         0.7918
  68   0.0000       0.059255         1.6124
  69   0.0000       0.106714         2.9038
  70   0.0000       0.124151         3.3783
  71   0.0000       0.126971         3.4550

MULLIKEN ATOMIC CHARGES
-----------------------
   0 S :    0.089093
   1 C :   -0.106539
   2 C :   -0.074321
   3 C :    0.036977
   4 C :   -0.196459
   5 H :    0.023359
   6 C :    0.079469
   7 H :    0.033093
   8 H :    0.012689
   9 C :   -0.066702
  10 H :    0.021524
  11 H :    0.021502
  12 C :   -0.023707
  13 H :    0.017951
  14 H :    0.043468
  15 H :    0.016332
  16 S :    0.109446
  17 C :   -0.020194
  18 C :   -0.072049
  19 C :   -0.044761
  20 C :   -0.158668
  21 H :    0.034188
  22 C :    0.126017
  23 H :    0.009357
  24 H :    0.044594
  25 C :   -0.121762
  26 H :    0.032759
  27 H :    0.033012
  28 C :   -0.018532
  29 H :    0.031773
  30 H :    0.040236
  31 H :    0.028897
  32 H :    0.027944
  33 H :   -0.009986
Sum of atomic charges:    0.0000000

LOEWDIN ATOMIC CHARGES
----------------------
   0 S :    0.371457
   1 C :   -0.182484
   2 C :   -0.060773
   3 C :   -0.068450
   4 C :   -0.175611
   5 H :    0.036427
   6 C :   -0.023192
   7 H :    0.039537
   8 H :    0.018419
   9 C :   -0.040695
  10 H :    0.022090
  11 H :    0.023181
  12 C :   -0.070409
  13 H :    0.028842
  14 H :    0.030452
  15 H :    0.023547
  16 S :    0.383858
  17 C :   -0.152236
  18 C :   -0.073445
  19 C :   -0.056913
  20 C :   -0.192783
  21 H :    0.036419
  22 C :   -0.025688
  23 H :    0.024880
  24 H :    0.041408
  25 C :   -0.045047
  26 H :    0.030996
  27 H :    0.022119
  28 C :   -0.062555
  29 H :    0.027077
  30 H :    0.030672
  31 H :    0.023038
  32 H :    0.017780
  33 H :   -0.001918

  Mayer bond orders larger than 0.100000
B(  0-S ,  1-C ) :   1.1228 B(  0-S ,  4-C ) :   1.1444 B(  1-C ,  2-C ) :   1.6226
B(  1-C ,  4-C ) :   0.1023 B(  1-C , 32-H ) :   0.9769 B(  2-C ,  3-C ) :   1.2128
B(  2-C ,  6-C ) :   1.0060 B(  3-C ,  4-C ) :   1.5766 B(  3-C ,  5-H ) :   0.9882
B(  4-C , 20-C ) :   1.0406 B(  6-C ,  7-H ) :   0.9419 B(  6-C ,  8-H ) :   0.9508
B(  6-C ,  9-C ) :   1.0803 B(  9-C , 10-H ) :   0.9559 B(  9-C , 11-H ) :   0.9552
B(  9-C , 12-C ) :   1.0940 B( 12-C , 13-H ) :   0.9672 B( 12-C , 14-H ) :   0.9712
B( 12-C , 15-H ) :   0.9663 B( 16-S , 17-C ) :   1.1373 B( 16-S , 20-C ) :   1.1224
B( 17-C , 18-C ) :   1.6388 B( 17-C , 33-H ) :   0.9836 B( 18-C , 19-C ) :   1.2187
B( 18-C , 21-H ) :   0.9772 B( 19-C , 20-C ) :   1.6114 B( 19-C , 22-C ) :   1.0272
B( 22-C , 23-H ) :   0.9273 B( 22-C , 24-H ) :   0.9248 B( 22-C , 25-C ) :   1.0778
B( 25-C , 26-H ) :   0.9595 B( 25-C , 27-H ) :   0.9538 B( 25-C , 28-C ) :   1.0701
B( 28-C , 29-H ) :   0.9755 B( 28-C , 30-H ) :   0.9741 B( 28-C , 31-H ) :   0.9713

Dispersion correction           -0.014639024
FINAL SINGLE POINT ENERGY     -1339.854843099997

DIPOLE MOMENT
-------------
                                X             Y             Z
Electronic contribution:    -12.35734      14.24698      18.39289
Nuclear contribution   :     12.49641     -14.81701     -18.90314
                        -----------------------------------------
Total Dipole Moment    :      0.13907      -0.57003      -0.51025
                        -----------------------------------------
Magnitude (a.u.)       :      0.77758
Magnitude (Debye)      :      1.97645

Rotational constants in cm-1:     0.018032     0.008957     0.007256
Rotational constants in MHz :   540.596996   268.528105   217.543028

                             ****ORCA TERMINATED NORMALLY****
TOTAL RUN TIME: 0 days 0 hours 0 minutes 22 seconds 28 msec
