                         Program Version 4.2.1 -  RELEASE  -
|  1> ! wB97X-D3 SP def2-SVP
|  2> %pal
|  3> nprocs 24
|  4> end
|  5>
|  6> * xyz 0 1
|  7> S 	 -113.545 	 56.9083 	 -36.7028
|  8> C 	 -113.192 	 55.4448 	 -37.6012
|  9> C 	 -113.856 	 55.333 	 -38.81
| 10> C 	 -114.842 	 56.4168 	 -38.909
| 11> C 	 -114.731 	 57.386 	 -37.9314
| 12> H 	 -115.56 	 56.6418 	 -39.6413
| 13> C 	 -113.673 	 54.1054 	 -39.7688
| 14> H 	 -114.69 	 54.0313 	 -40.1731
| 15> H 	 -113.475 	 53.2458 	 -39.1314
| 16> C 	 -112.62 	 54.2252 	 -40.9196
| 17> H 	 -113.058 	 53.4862 	 -41.6411
| 18> H 	 -112.671 	 55.2388 	 -41.2784
| 19> C 	 -111.215 	 53.8694 	 -40.4491
| 20> H 	 -110.638 	 53.7964 	 -41.2993
| 21> H 	 -110.758 	 54.7479 	 -39.8106
| 22> H 	 -111.018 	 52.9747 	 -39.9146
| 23> S 	 -116.291 	 58.9936 	 -36.3767
| 24> C 	 -116.869 	 60.4564 	 -37.0482
| 25> C 	 -116.389 	 60.6979 	 -38.3025
| 26> C 	 -115.628 	 59.6273 	 -38.8139
| 27> C 	 -115.463 	 58.65 	 -37.9058
| 28> H 	 -116.702 	 61.6036 	 -38.8479
| 29> C 	 -115.12 	 59.7904 	 -40.1961
| 30> H 	 -114.518 	 58.9798 	 -40.4907
| 31> H 	 -114.362 	 60.5056 	 -40.3655
| 32> C 	 -116.142 	 60.0495 	 -41.2238
| 33> H 	 -116.548 	 60.9948 	 -41.0602
| 34> H 	 -116.97 	 59.3548 	 -40.9983
| 35> C 	 -115.735 	 59.5972 	 -42.6736
| 36> H 	 -114.896 	 60.1818 	 -42.9971
| 37> H 	 -116.593 	 59.6676 	 -43.423
| 38> H 	 -115.234 	 58.6388 	 -42.6331
| 39> H 	 -112.482 	 54.7014 	 -37.2204
| 40> H 	 -117.435 	 61.1408 	 -36.4384
| 41> *
| 42>
| 43>                          ****END OF INPUT****

CARTESIAN COORDINATES (ANGSTROEM)
---------------------------------
  S    -113.545000   56.908300  -36.702800
  C    -113.192000   55.444800  -37.601200
  C    -113.856000   55.333000  -38.810000
  C    -114.842000   56.416800  -38.909000
  C    -114.731000   57.386000  -37.931400
  H    -115.560000   56.641800  -39.641300
  C    -113.673000   54.105400  -39.768800
  H    -114.690000   54.031300  -40.173100
  H    -113.475000   53.245800  -39.131400
  C    -112.620000   54.225200  -40.919600
  H    -113.058000   53.486200  -41.641100
  H    -112.671000   55.238800  -41.278400
  C    -111.215000   53.869400  -40.449100
  H    -110.638000   53.796400  -41.299300
  H    -110.758000   54.747900  -39.810600
  H    -111.018000   52.974700  -39.914600
  S    -116.291000   58.993600  -36.376700
  C    -116.869000   60.456400  -37.048200
  C    -116.389000   60.697900  -38.302500
  C    -115.628000   59.627300  -38.813900
  C    -115.463000   58.650000  -37.905800
  H    -116.702000   61.603600  -38.847900
  C    -115.120000   59.790400  -40.196100
  H    -114.518000   58.979800  -40.490700
  H    -114.362000   60.505600  -40.365500
  C    -116.142000   60.049500  -41.223800
  H    -116.548000   60.994800  -41.060200
  H    -116.970000   59.354800  -40.998300
  C    -115.735000   59.597200  -42.673600
  H    -114.896000   60.181800  -42.997100
  H    -116.593000   59.667600  -43.423000
  H    -115.234000   58.638800  -42.633100
  H    -112.482000   54.701400  -37.220400
  H    -117.435000   61.140800  -36.438400

 Total Charge           Charge          ....    0
 Multiplicity           Mult            ....    1
 Number of Electrons    NEL             ....  134
 Basis Dimension        Dim             ....  322

ORBITAL ENERGIES
----------------

  NO   OCC          E(Eh)            E(eV)
   0   2.0000     -88.963400     -2420.8172
   1   2.0000     -88.962320     -2420.7878
   2   2.0000     -10.326430      -280.9964
   3   2.0000     -10.323648      -280.9207
   4   2.0000     -10.312942      -280.6294
   5   2.0000     -10.312815      -280.6260
   6   2.0000     -10.306001      -280.4405
   7   2.0000     -10.298055      -280.2243
   8   2.0000     -10.296098      -280.1711
   9   2.0000     -10.294323      -280.1228
  10   2.0000     -10.292686      -280.0782
  11   2.0000     -10.289827      -280.0004
  12   2.0000     -10.286652      -279.9140
  13   2.0000     -10.280133      -279.7367
  14   2.0000     -10.278200      -279.6840
  15   2.0000     -10.276088      -279.6266
  16   2.0000      -8.078111      -219.8166
  17   2.0000      -8.077843      -219.8093
  18   2.0000      -6.036417      -164.2593
  19   2.0000      -6.036384      -164.2583
  20   2.0000      -6.032602      -164.1555
  21   2.0000      -6.032473      -164.1519
  22   2.0000      -6.028892      -164.0545
  23   2.0000      -6.028515      -164.0442
  24   2.0000      -1.010943       -27.5091
  25   2.0000      -0.981238       -26.7008
  26   2.0000      -0.923998       -25.1433
  27   2.0000      -0.905383       -24.6367
  28   2.0000      -0.868937       -23.6450
  29   2.0000      -0.854464       -23.2511
  30   2.0000      -0.842990       -22.9389
  31   2.0000      -0.812301       -22.1038
  32   2.0000      -0.788100       -21.4453
  33   2.0000      -0.776629       -21.1331
  34   2.0000      -0.713076       -19.4038
  35   2.0000      -0.702138       -19.1061
  36   2.0000      -0.692317       -18.8389
  37   2.0000      -0.662935       -18.0394
  38   2.0000      -0.643640       -17.5143
  39   2.0000      -0.622189       -16.9306
  40   2.0000      -0.605044       -16.4641
  41   2.0000      -0.569124       -15.4867
  42   2.0000      -0.566899       -15.4261
  43   2.0000      -0.545343       -14.8395
  44   2.0000      -0.535874       -14.5819
  45   2.0000      -0.530269       -14.4293
  46   2.0000      -0.520091       -14.1524
  47   2.0000      -0.512919       -13.9572
  48   2.0000      -0.505205       -13.7473
  49   2.0000      -0.489955       -13.3323
  50   2.0000      -0.489422       -13.3178
  51   2.0000      -0.479239       -13.0408
  52   2.0000      -0.473474       -12.8839
  53   2.0000      -0.465657       -12.6712
  54   2.0000      -0.461820       -12.5667
  55   2.0000      -0.450040       -12.2462
  56   2.0000      -0.445038       -12.1101
  57   2.0000      -0.443487       -12.0679
  58   2.0000      -0.435506       -11.8507
  59   2.0000      -0.428189       -11.6516
  60   2.0000      -0.423932       -11.5358
  61   2.0000      -0.408334       -11.1113
  62   2.0000      -0.407617       -11.0918
  63   2.0000      -0.344643        -9.3782
  64   2.0000      -0.334883        -9.1126
  65   2.0000      -0.327083        -8.9004
  66   2.0000      -0.294778        -8.0213
  67   0.0000       0.036042         0.9808
  68   0.0000       0.073240         1.9930
  69   0.0000       0.113228         3.0811
  70   0.0000       0.122114         3.3229
  71   0.0000       0.127035         3.4568

MULLIKEN ATOMIC CHARGES
-----------------------
   0 S :    0.106209
   1 C :   -0.128529
   2 C :   -0.095964
   3 C :    0.049101
   4 C :   -0.157408
   5 H :   -0.010286
   6 C :    0.043178
   7 H :    0.026815
   8 H :    0.028402
   9 C :   -0.048793
  10 H :    0.044000
  11 H :    0.034766
  12 C :   -0.045331
  13 H :    0.018065
  14 H :    0.049023
  15 H :    0.025494
  16 S :    0.103588
  17 C :   -0.081212
  18 C :   -0.050724
  19 C :    0.010223
  20 C :   -0.185386
  21 H :    0.029950
  22 C :    0.131762
  23 H :   -0.026136
  24 H :    0.013021
  25 C :   -0.093845
  26 H :    0.017747
  27 H :    0.027122
  28 C :   -0.041962
  29 H :    0.015720
  30 H :    0.060750
  31 H :    0.024961
  32 H :    0.053939
  33 H :    0.051742
Sum of atomic charges:   -0.0000000

LOEWDIN ATOMIC CHARGES
----------------------
   0 S :    0.383508
   1 C :   -0.196986
   2 C :   -0.065080
   3 C :   -0.060294
   4 C :   -0.188370
   5 H :    0.021931
   6 C :   -0.029260
   7 H :    0.030447
   8 H :    0.029028
   9 C :   -0.035277
  10 H :    0.033076
  11 H :    0.027274
  12 C :   -0.068777
  13 H :    0.016746
  14 H :    0.042053
  15 H :    0.019753
  16 S :    0.407487
  17 C :   -0.182554
  18 C :   -0.073060
  19 C :   -0.050668
  20 C :   -0.187314
  21 H :    0.036739
  22 C :   -0.035399
  23 H :    0.021150
  24 H :    0.030864
  25 C :   -0.037273
  26 H :    0.011588
  27 H :    0.026596
  28 C :   -0.064824
  29 H :    0.018666
  30 H :    0.038901
  31 H :    0.026201
  32 H :    0.028499
  33 H :    0.024628

  Mayer bond orders larger than 0.100000
B(  0-S ,  1-C ) :   1.1327 B(  0-S ,  4-C ) :   1.1291 B(  1-C ,  2-C ) :   1.6391
B(  1-C , 32-H ) :   0.9631 B(  2-C ,  3-C ) :   1.1947 B(  2-C ,  6-C ) :   1.0050
B(  3-C ,  4-C ) :   1.6209 B(  3-C ,  5-H ) :   0.9996 B(  4-C , 20-C ) :   1.0249
B(  6-C ,  7-H ) :   0.9460 B(  6-C ,  8-H ) :   0.9489 B(  6-C ,  9-C ) :   1.0530
B(  9-C , 10-H ) :   0.9579 B(  9-C , 11-H ) :   0.9556 B(  9-C , 12-C ) :   1.0778
B( 12-C , 13-H ) :   0.9713 B( 12-C , 14-H ) :   0.9714 B( 12-C , 15-H ) :   0.9770
B( 16-S , 17-C ) :   1.1639 B( 16-S , 20-C ) :   1.1308 B( 17-C , 18-C ) :   1.6220
B( 17-C , 33-H ) :   0.9673 B( 18-C , 19-C ) :   1.2086 B( 18-C , 21-H ) :   0.9884
B( 19-C , 20-C ) :   1.6432 B( 19-C , 22-C ) :   1.0539 B( 22-C , 23-H ) :   0.9137
B( 22-C , 24-H ) :   0.9176 B( 22-C , 25-C ) :   1.0463 B( 25-C , 26-H ) :   0.9566
B( 25-C , 27-H ) :   0.9603 B( 25-C , 28-C ) :   1.0737 B( 28-C , 29-H ) :   0.9732
B( 28-C , 30-H ) :   0.9755 B( 28-C , 31-H ) :   0.9704

Dispersion correction           -0.013927826
FINAL SINGLE POINT ENERGY     -1339.857977906405

DIPOLE MOMENT
-------------
                                X             Y             Z
Electronic contribution:     -6.70671       6.86910      28.45647
Nuclear contribution   :      6.77576      -6.90489     -29.14695
                        -----------------------------------------
Total Dipole Moment    :      0.06905      -0.03579      -0.69048
                        -----------------------------------------
Magnitude (a.u.)       :      0.69485
Magnitude (Debye)      :      1.76617

Rotational constants in cm-1:     0.018056     0.008765     0.006277
Rotational constants in MHz :   541.315930   262.771450   188.169757

                             ****ORCA TERMINATED NORMALLY****
TOTAL RUN TIME: 0 days 0 hours 0 minutes 21 seconds 462 msec
