                         Program Version 4.2.1 -  RELEASE  -
|  1> ! wB97X-D3 SP def2-SVP
|  2> %pal
|  3> nprocs 24
|  4> end
|  5>
|  6> * xyz 0 1
|  7> S 	 -103.422 	 22.1955 	 -111.063
|  8> C 	 -102.584 	 21.3671 	 -109.755
|  9> C 	 -102.777 	 22.1044 	 -108.582
| 10> C 	 -103.239 	 23.4554 	 -108.814
| 11> C 	 -103.522 	 23.7025 	 -110.16
| 12> H 	 -103.437 	 24.1562 	 -108.033
| 13> C 	 -102.42 	 21.6051 	 -107.22
| 14> H 	 -101.309 	 21.5542 	 -107.347
| 15> H 	 -102.744 	 20.59 	 -107.062
| 16> C 	 -102.856 	 22.4558 	 -106.081
| 17> H 	 -102.483 	 23.4659 	 -106.142
| 18> H 	 -103.938 	 22.6291 	 -106.191
| 19> C 	 -102.614 	 21.767 	 -104.741
| 20> H 	 -102.718 	 22.3178 	 -103.767
| 21> H 	 -103.333 	 20.9821 	 -104.784
| 22> H 	 -101.555 	 21.5153 	 -104.762
| 23> S 	 -103.632 	 24.8663 	 -112.619
| 24> C 	 -104.122 	 26.482 	 -112.912
| 25> C 	 -104.329 	 27.126 	 -111.663
| 26> C 	 -104.079 	 26.2763 	 -110.492
| 27> C 	 -103.731 	 24.9557 	 -110.872
| 28> H 	 -104.702 	 28.2032 	 -111.653
| 29> C 	 -104.462 	 26.7452 	 -109.14
| 30> H 	 -104.503 	 27.8292 	 -109.223
| 31> H 	 -103.583 	 26.5722 	 -108.482
| 32> C 	 -105.741 	 26.2362 	 -108.454
| 33> H 	 -105.689 	 25.1826 	 -108.349
| 34> H 	 -106.614 	 26.4531 	 -109.098
| 35> C 	 -106.012 	 26.8165 	 -107.082
| 36> H 	 -106.153 	 27.9198 	 -107.17
| 37> H 	 -105.201 	 26.4959 	 -106.447
| 38> H 	 -106.952 	 26.4223 	 -106.763
| 39> H 	 -102.344 	 20.3713 	 -109.805
| 40> H 	 -104.332 	 26.9458 	 -113.848
| 41> *
| 42>
| 43>                          ****END OF INPUT****

CARTESIAN COORDINATES (ANGSTROEM)
---------------------------------
  S    -103.422000   22.195500  -111.063000
  C    -102.584000   21.367100  -109.755000
  C    -102.777000   22.104400  -108.582000
  C    -103.239000   23.455400  -108.814000
  C    -103.522000   23.702500  -110.160000
  H    -103.437000   24.156200  -108.033000
  C    -102.420000   21.605100  -107.220000
  H    -101.309000   21.554200  -107.347000
  H    -102.744000   20.590000  -107.062000
  C    -102.856000   22.455800  -106.081000
  H    -102.483000   23.465900  -106.142000
  H    -103.938000   22.629100  -106.191000
  C    -102.614000   21.767000  -104.741000
  H    -102.718000   22.317800  -103.767000
  H    -103.333000   20.982100  -104.784000
  H    -101.555000   21.515300  -104.762000
  S    -103.632000   24.866300  -112.619000
  C    -104.122000   26.482000  -112.912000
  C    -104.329000   27.126000  -111.663000
  C    -104.079000   26.276300  -110.492000
  C    -103.731000   24.955700  -110.872000
  H    -104.702000   28.203200  -111.653000
  C    -104.462000   26.745200  -109.140000
  H    -104.503000   27.829200  -109.223000
  H    -103.583000   26.572200  -108.482000
  C    -105.741000   26.236200  -108.454000
  H    -105.689000   25.182600  -108.349000
  H    -106.614000   26.453100  -109.098000
  C    -106.012000   26.816500  -107.082000
  H    -106.153000   27.919800  -107.170000
  H    -105.201000   26.495900  -106.447000
  H    -106.952000   26.422300  -106.763000
  H    -102.344000   20.371300  -109.805000
  H    -104.332000   26.945800  -113.848000

 Total Charge           Charge          ....    0
 Multiplicity           Mult            ....    1
 Number of Electrons    NEL             ....  134
 Basis Dimension        Dim             ....  322

ORBITAL ENERGIES
----------------

  NO   OCC          E(Eh)            E(eV)
   0   2.0000     -88.966103     -2420.8907
   1   2.0000     -88.963976     -2420.8328
   2   2.0000     -10.337032      -281.2849
   3   2.0000     -10.333214      -281.1810
   4   2.0000     -10.318382      -280.7775
   5   2.0000     -10.309980      -280.5488
   6   2.0000     -10.307778      -280.4889
   7   2.0000     -10.305747      -280.4336
   8   2.0000     -10.305663      -280.4314
   9   2.0000     -10.296216      -280.1743
  10   2.0000     -10.291504      -280.0460
  11   2.0000     -10.291282      -280.0400
  12   2.0000     -10.285771      -279.8901
  13   2.0000     -10.282768      -279.8083
  14   2.0000     -10.281984      -279.7870
  15   2.0000     -10.278490      -279.6919
  16   2.0000      -8.081154      -219.8994
  17   2.0000      -8.078478      -219.8266
  18   2.0000      -6.039645      -164.3471
  19   2.0000      -6.037165      -164.2796
  20   2.0000      -6.035367      -164.2307
  21   2.0000      -6.033087      -164.1686
  22   2.0000      -6.032121      -164.1424
  23   2.0000      -6.028986      -164.0571
  24   2.0000      -1.005530       -27.3619
  25   2.0000      -0.981428       -26.7060
  26   2.0000      -0.924116       -25.1465
  27   2.0000      -0.913673       -24.8623
  28   2.0000      -0.871314       -23.7097
  29   2.0000      -0.857896       -23.3445
  30   2.0000      -0.844020       -22.9670
  31   2.0000      -0.816486       -22.2177
  32   2.0000      -0.780163       -21.2293
  33   2.0000      -0.771499       -20.9936
  34   2.0000      -0.717110       -19.5136
  35   2.0000      -0.701061       -19.0768
  36   2.0000      -0.690000       -18.7759
  37   2.0000      -0.660873       -17.9833
  38   2.0000      -0.641465       -17.4551
  39   2.0000      -0.624763       -17.0007
  40   2.0000      -0.594378       -16.1738
  41   2.0000      -0.583074       -15.8663
  42   2.0000      -0.571027       -15.5384
  43   2.0000      -0.564245       -15.3539
  44   2.0000      -0.528756       -14.3882
  45   2.0000      -0.527097       -14.3430
  46   2.0000      -0.519732       -14.1426
  47   2.0000      -0.515063       -14.0156
  48   2.0000      -0.512839       -13.9551
  49   2.0000      -0.508831       -13.8460
  50   2.0000      -0.496126       -13.5003
  51   2.0000      -0.485781       -13.2188
  52   2.0000      -0.470048       -12.7907
  53   2.0000      -0.464170       -12.6307
  54   2.0000      -0.455576       -12.3969
  55   2.0000      -0.451793       -12.2939
  56   2.0000      -0.448820       -12.2130
  57   2.0000      -0.435069       -11.8388
  58   2.0000      -0.430298       -11.7090
  59   2.0000      -0.426179       -11.5969
  60   2.0000      -0.421205       -11.4616
  61   2.0000      -0.418981       -11.4011
  62   2.0000      -0.407509       -11.0889
  63   2.0000      -0.359471        -9.7817
  64   2.0000      -0.328154        -8.9295
  65   2.0000      -0.323134        -8.7929
  66   2.0000      -0.277916        -7.5625
  67   0.0000       0.010202         0.2776
  68   0.0000       0.084527         2.3001
  69   0.0000       0.094745         2.5782
  70   0.0000       0.116479         3.1695
  71   0.0000       0.126297         3.4367

MULLIKEN ATOMIC CHARGES
-----------------------
   0 S :    0.093894
   1 C :   -0.089192
   2 C :   -0.114770
   3 C :   -0.002578
   4 C :   -0.093283
   5 H :   -0.000848
   6 C :    0.057076
   7 H :    0.051592
   8 H :    0.022888
   9 C :   -0.106434
  10 H :    0.030544
  11 H :    0.027356
  12 C :   -0.022457
  13 H :    0.042151
  14 H :    0.033027
  15 H :    0.032441
  16 S :    0.103812
  17 C :   -0.077176
  18 C :   -0.081241
  19 C :   -0.045335
  20 C :   -0.117363
  21 H :    0.046750
  22 C :    0.039305
  23 H :    0.007654
  24 H :    0.027698
  25 C :   -0.059459
  26 H :    0.018029
  27 H :    0.028323
  28 C :   -0.025796
  29 H :    0.036846
  30 H :    0.031436
  31 H :    0.029964
  32 H :    0.020826
  33 H :    0.054321
Sum of atomic charges:    0.0000000

LOEWDIN ATOMIC CHARGES
----------------------
   0 S :    0.394324
   1 C :   -0.189611
   2 C :   -0.048766
   3 C :   -0.073497
   4 C :   -0.175926
   5 H :    0.023123
   6 C :   -0.038811
   7 H :    0.046881
   8 H :    0.029373
   9 C :   -0.049853
  10 H :    0.018797
  11 H :    0.024101
  12 C :   -0.062308
  13 H :    0.032916
  14 H :    0.024541
  15 H :    0.027210
  16 S :    0.428686
  17 C :   -0.201813
  18 C :   -0.080118
  19 C :   -0.059191
  20 C :   -0.194984
  21 H :    0.041435
  22 C :   -0.043624
  23 H :    0.029209
  24 H :    0.032352
  25 C :   -0.038459
  26 H :    0.016651
  27 H :    0.027345
  28 C :   -0.056858
  29 H :    0.029580
  30 H :    0.023108
  31 H :    0.025551
  32 H :    0.009509
  33 H :    0.029128

  Mayer bond orders larger than 0.100000
B(  0-S ,  1-C ) :   1.1218 B(  0-S ,  4-C ) :   1.1561 B(  1-C ,  2-C ) :   1.5891
B(  1-C ,  4-C ) :   0.1012 B(  1-C , 32-H ) :   0.9834 B(  2-C ,  3-C ) :   1.2630
B(  2-C ,  6-C ) :   1.0088 B(  3-C ,  4-C ) :   1.5207 B(  3-C ,  5-H ) :   0.9865
B(  4-C , 20-C ) :   1.1047 B(  6-C ,  7-H ) :   0.9235 B(  6-C ,  8-H ) :   0.9390
B(  6-C ,  9-C ) :   1.0913 B(  9-C , 10-H ) :   0.9369 B(  9-C , 11-H ) :   0.9577
B(  9-C , 12-C ) :   1.0632 B( 12-C , 13-H ) :   0.9748 B( 12-C , 14-H ) :   0.9775
B( 12-C , 15-H ) :   0.9743 B( 16-S , 17-C ) :   1.1706 B( 16-S , 20-C ) :   1.1487
B( 17-C , 18-C ) :   1.5710 B( 17-C , 33-H ) :   0.9735 B( 18-C , 19-C ) :   1.2752
B( 18-C , 21-H ) :   0.9745 B( 19-C , 20-C ) :   1.5166 B( 19-C , 22-C ) :   1.0704
B( 22-C , 23-H ) :   0.9250 B( 22-C , 24-H ) :   0.9201 B( 22-C , 25-C ) :   1.0634
B( 25-C , 26-H ) :   0.9506 B( 25-C , 27-H ) :   0.9515 B( 25-C , 28-C ) :   1.0905
B( 28-C , 29-H ) :   0.9748 B( 28-C , 30-H ) :   0.9745 B( 28-C , 31-H ) :   0.9714

Dispersion correction           -0.013952945
FINAL SINGLE POINT ENERGY     -1339.864785561075

DIPOLE MOMENT
-------------
                                X             Y             Z
Electronic contribution:      4.32821      -4.38729     -31.81803
Nuclear contribution   :     -4.54362       4.55629      32.46540
                        -----------------------------------------
Total Dipole Moment    :     -0.21540       0.16900       0.64737
                        -----------------------------------------
Magnitude (a.u.)       :      0.70288
Magnitude (Debye)      :      1.78659

Rotational constants in cm-1:     0.017690     0.009479     0.006470
Rotational constants in MHz :   530.322451   284.163990   193.952806

                             ****ORCA TERMINATED NORMALLY****
TOTAL RUN TIME: 0 days 0 hours 0 minutes 20 seconds 617 msec
