                         Program Version 4.2.1 -  RELEASE  -
|  1> ! wB97X-D3 SP def2-SVP
|  2> %pal
|  3> nprocs 24
|  4> end
|  5>
|  6> * xyz 0 1
|  7> S 	 -88.303 	 -33.7537 	 -64.3831
|  8> C 	 -88.256 	 -35.4815 	 -64.407
|  9> C 	 -89.3253 	 -36.0707 	 -63.6942
| 10> C 	 -90.1519 	 -35.0744 	 -63.1237
| 11> C 	 -89.7086 	 -33.7558 	 -63.3715
| 12> H 	 -91.1071 	 -35.3041 	 -62.6025
| 13> C 	 -89.6652 	 -37.5375 	 -63.5252
| 14> H 	 -90.5541 	 -37.6341 	 -62.8808
| 15> H 	 -88.9777 	 -37.8772 	 -62.7953
| 16> C 	 -89.5095 	 -38.4741 	 -64.7089
| 17> H 	 -88.5346 	 -38.4731 	 -65.0955
| 18> H 	 -89.5917 	 -39.4972 	 -64.3734
| 19> C 	 -90.5998 	 -38.0725 	 -65.7562
| 20> H 	 -90.3336 	 -38.5955 	 -66.6462
| 21> H 	 -91.5765 	 -38.1494 	 -65.324
| 22> H 	 -90.443 	 -37.024 	 -65.971
| 23> S 	 -89.7313 	 -31.3755 	 -62.0801
| 24> C 	 -91.0833 	 -30.3395 	 -62.1528
| 25> C 	 -92.0497 	 -30.848 	 -63.0026
| 26> C 	 -91.6604 	 -32.1487 	 -63.4937
| 27> C 	 -90.4504 	 -32.5348 	 -63.1174
| 28> H 	 -92.9627 	 -30.283 	 -63.2264
| 29> C 	 -92.6343 	 -32.9563 	 -64.3458
| 30> H 	 -93.6565 	 -32.7799 	 -63.9358
| 31> H 	 -92.4602 	 -33.9899 	 -64.0955
| 32> C 	 -92.5285 	 -32.8315 	 -65.9404
| 33> H 	 -92.706 	 -31.8051 	 -66.1912
| 34> H 	 -93.2605 	 -33.4314 	 -66.4472
| 35> C 	 -91.0888 	 -33.3043 	 -66.4066
| 36> H 	 -90.967 	 -33.2681 	 -67.4582
| 37> H 	 -90.7932 	 -34.321 	 -66.0384
| 38> H 	 -90.4202 	 -32.567 	 -66.0145
| 39> H 	 -87.3947 	 -35.9647 	 -64.7542
| 40> H 	 -91.1936 	 -29.3587 	 -61.7015
| 41> *
| 42>
| 43>                          ****END OF INPUT****

CARTESIAN COORDINATES (ANGSTROEM)
---------------------------------
  S    -88.303000  -33.753700  -64.383100
  C    -88.256000  -35.481500  -64.407000
  C    -89.325300  -36.070700  -63.694200
  C    -90.151900  -35.074400  -63.123700
  C    -89.708600  -33.755800  -63.371500
  H    -91.107100  -35.304100  -62.602500
  C    -89.665200  -37.537500  -63.525200
  H    -90.554100  -37.634100  -62.880800
  H    -88.977700  -37.877200  -62.795300
  C    -89.509500  -38.474100  -64.708900
  H    -88.534600  -38.473100  -65.095500
  H    -89.591700  -39.497200  -64.373400
  C    -90.599800  -38.072500  -65.756200
  H    -90.333600  -38.595500  -66.646200
  H    -91.576500  -38.149400  -65.324000
  H    -90.443000  -37.024000  -65.971000
  S    -89.731300  -31.375500  -62.080100
  C    -91.083300  -30.339500  -62.152800
  C    -92.049700  -30.848000  -63.002600
  C    -91.660400  -32.148700  -63.493700
  C    -90.450400  -32.534800  -63.117400
  H    -92.962700  -30.283000  -63.226400
  C    -92.634300  -32.956300  -64.345800
  H    -93.656500  -32.779900  -63.935800
  H    -92.460200  -33.989900  -64.095500
  C    -92.528500  -32.831500  -65.940400
  H    -92.706000  -31.805100  -66.191200
  H    -93.260500  -33.431400  -66.447200
  C    -91.088800  -33.304300  -66.406600
  H    -90.967000  -33.268100  -67.458200
  H    -90.793200  -34.321000  -66.038400
  H    -90.420200  -32.567000  -66.014500
  H    -87.394700  -35.964700  -64.754200
  H    -91.193600  -29.358700  -61.701500

 Total Charge           Charge          ....    0
 Multiplicity           Mult            ....    1
 Number of Electrons    NEL             ....  134
 Basis Dimension        Dim             ....  322

ORBITAL ENERGIES
----------------

  NO   OCC          E(Eh)            E(eV)
   0   2.0000     -88.969925     -2420.9947
   1   2.0000     -88.960850     -2420.7478
   2   2.0000     -10.327750      -281.0324
   3   2.0000     -10.313786      -280.6524
   4   2.0000     -10.313186      -280.6360
   5   2.0000     -10.312182      -280.6087
   6   2.0000     -10.305339      -280.4225
   7   2.0000     -10.298186      -280.2279
   8   2.0000     -10.295478      -280.1542
   9   2.0000     -10.292672      -280.0778
  10   2.0000     -10.289999      -280.0051
  11   2.0000     -10.288667      -279.9689
  12   2.0000     -10.286689      -279.9151
  13   2.0000     -10.283881      -279.8386
  14   2.0000     -10.270773      -279.4819
  15   2.0000     -10.268577      -279.4222
  16   2.0000      -8.084658      -219.9947
  17   2.0000      -8.077340      -219.7956
  18   2.0000      -6.042969      -164.4376
  19   2.0000      -6.038990      -164.3293
  20   2.0000      -6.035813      -164.2428
  21   2.0000      -6.035764      -164.2415
  22   2.0000      -6.031493      -164.1253
  23   2.0000      -6.028190      -164.0354
  24   2.0000      -1.015497       -27.6331
  25   2.0000      -0.989239       -26.9186
  26   2.0000      -0.916253       -24.9325
  27   2.0000      -0.896197       -24.3867
  28   2.0000      -0.868087       -23.6218
  29   2.0000      -0.852705       -23.2033
  30   2.0000      -0.841871       -22.9085
  31   2.0000      -0.809379       -22.0243
  32   2.0000      -0.784345       -21.3431
  33   2.0000      -0.770545       -20.9676
  34   2.0000      -0.714310       -19.4374
  35   2.0000      -0.703804       -19.1515
  36   2.0000      -0.693022       -18.8581
  37   2.0000      -0.663927       -18.0664
  38   2.0000      -0.644986       -17.5510
  39   2.0000      -0.613425       -16.6922
  40   2.0000      -0.589728       -16.0473
  41   2.0000      -0.574636       -15.6367
  42   2.0000      -0.559708       -15.2304
  43   2.0000      -0.547018       -14.8851
  44   2.0000      -0.542668       -14.7667
  45   2.0000      -0.532852       -14.4996
  46   2.0000      -0.512064       -13.9340
  47   2.0000      -0.510420       -13.8892
  48   2.0000      -0.500536       -13.6203
  49   2.0000      -0.499318       -13.5871
  50   2.0000      -0.484863       -13.1938
  51   2.0000      -0.483767       -13.1640
  52   2.0000      -0.472254       -12.8507
  53   2.0000      -0.460468       -12.5300
  54   2.0000      -0.457317       -12.4442
  55   2.0000      -0.451340       -12.2816
  56   2.0000      -0.441474       -12.0131
  57   2.0000      -0.437445       -11.9035
  58   2.0000      -0.427758       -11.6399
  59   2.0000      -0.425292       -11.5728
  60   2.0000      -0.421774       -11.4770
  61   2.0000      -0.414906       -11.2902
  62   2.0000      -0.413272       -11.2457
  63   2.0000      -0.338178        -9.2023
  64   2.0000      -0.330807        -9.0017
  65   2.0000      -0.327850        -8.9212
  66   2.0000      -0.300281        -8.1711
  67   0.0000       0.036762         1.0003
  68   0.0000       0.068260         1.8575
  69   0.0000       0.116017         3.1570
  70   0.0000       0.124829         3.3968
  71   0.0000       0.129850         3.5334

MULLIKEN ATOMIC CHARGES
-----------------------
   0 S :    0.133222
   1 C :   -0.123747
   2 C :   -0.095351
   3 C :    0.015422
   4 C :   -0.166164
   5 H :    0.033573
   6 C :    0.065227
   7 H :    0.013649
   8 H :    0.019482
   9 C :   -0.035554
  10 H :    0.010801
  11 H :    0.020358
  12 C :   -0.012343
  13 H :    0.028884
  14 H :    0.030218
  15 H :    0.030801
  16 S :    0.117631
  17 C :   -0.087344
  18 C :   -0.056460
  19 C :   -0.047651
  20 C :   -0.165940
  21 H :    0.026850
  22 C :    0.066749
  23 H :    0.025376
  24 H :    0.000388
  25 C :   -0.029873
  26 H :    0.021784
  27 H :    0.028959
  28 C :   -0.062958
  29 H :    0.024174
  30 H :    0.050814
  31 H :    0.030316
  32 H :    0.031717
  33 H :    0.056990
Sum of atomic charges:   -0.0000000

LOEWDIN ATOMIC CHARGES
----------------------
   0 S :    0.451048
   1 C :   -0.206581
   2 C :   -0.057053
   3 C :   -0.064701
   4 C :   -0.204790
   5 H :    0.037187
   6 C :   -0.040269
   7 H :    0.033803
   8 H :    0.033188
   9 C :   -0.030933
  10 H :    0.016962
  11 H :    0.024128
  12 C :   -0.055268
  13 H :    0.022368
  14 H :    0.024275
  15 H :    0.024795
  16 S :    0.436011
  17 C :   -0.198457
  18 C :   -0.075185
  19 C :   -0.061242
  20 C :   -0.221744
  21 H :    0.034931
  22 C :   -0.032373
  23 H :    0.031338
  24 H :    0.022032
  25 C :   -0.023655
  26 H :    0.018013
  27 H :    0.019224
  28 C :   -0.066350
  29 H :    0.018094
  30 H :    0.029266
  31 H :    0.016367
  32 H :    0.013203
  33 H :    0.032369

  Mayer bond orders larger than 0.100000
B(  0-S ,  1-C ) :   1.1707 B(  0-S ,  4-C ) :   1.1979 B(  1-C ,  2-C ) :   1.5334
B(  1-C ,  4-C ) :   0.1133 B(  1-C , 32-H ) :   0.9795 B(  2-C ,  3-C ) :   1.2981
B(  2-C ,  6-C ) :   1.0137 B(  3-C ,  4-C ) :   1.5267 B(  3-C ,  5-H ) :   0.9842
B(  4-C , 20-C ) :   0.9918 B(  6-C ,  7-H ) :   0.9410 B(  6-C ,  8-H ) :   0.9155
B(  6-C ,  9-C ) :   1.0855 B(  9-C , 10-H ) :   0.9491 B(  9-C , 11-H ) :   0.9499
B(  9-C , 12-C ) :   1.0700 B( 12-C , 13-H ) :   0.9728 B( 12-C , 14-H ) :   0.9755
B( 12-C , 15-H ) :   0.9774 B( 16-S , 17-C ) :   1.1707 B( 16-S , 20-C ) :   1.1412
B( 17-C , 18-C ) :   1.6087 B( 17-C , 33-H ) :   0.9667 B( 18-C , 19-C ) :   1.2255
B( 18-C , 21-H ) :   0.9914 B( 19-C , 20-C ) :   1.6490 B( 19-C , 22-C ) :   1.0284
B( 22-C , 23-H ) :   0.9388 B( 22-C , 24-H ) :   0.9343 B( 22-C , 25-C ) :   1.0578
B( 25-C , 26-H ) :   0.9600 B( 25-C , 27-H ) :   0.9604 B( 25-C , 28-C ) :   1.0722
B( 28-C , 29-H ) :   0.9737 B( 28-C , 30-H ) :   0.9731 B( 28-C , 31-H ) :   0.9714

Dispersion correction           -0.016815784
FINAL SINGLE POINT ENERGY     -1339.876489610989

DIPOLE MOMENT
-------------
                                X             Y             Z
Electronic contribution:     11.69727      19.04825      14.18236
Nuclear contribution   :    -11.99909     -19.44944     -14.30710
                        -----------------------------------------
Total Dipole Moment    :     -0.30182      -0.40119      -0.12474
                        -----------------------------------------
Magnitude (a.u.)       :      0.51731
Magnitude (Debye)      :      1.31490

Rotational constants in cm-1:     0.023556     0.009135     0.007849
Rotational constants in MHz :   706.198881   273.855378   235.318657

                             ****ORCA TERMINATED NORMALLY****
TOTAL RUN TIME: 0 days 0 hours 0 minutes 23 seconds 605 msec
