                         Program Version 4.2.1 -  RELEASE  -
|  1> ! wB97X-D3 SP def2-SVP
|  2> %pal
|  3> nprocs 24
|  4> end
|  5>
|  6> * xyz 0 1
|  7> S 	 -54.1027 	 -52.5167 	 -80.9533
|  8> C 	 -53.6381 	 -50.8741 	 -80.5412
|  9> C 	 -52.407 	 -50.7921 	 -79.9338
| 10> C 	 -51.7244 	 -52.0235 	 -80.0249
| 11> C 	 -52.429 	 -53.0144 	 -80.6562
| 12> H 	 -50.7158 	 -52.1605 	 -79.6662
| 13> C 	 -51.7257 	 -49.5772 	 -79.2653
| 14> H 	 -52.315 	 -48.7989 	 -79.6369
| 15> H 	 -50.7177 	 -49.4976 	 -79.6413
| 16> C 	 -51.5708 	 -49.6271 	 -77.7382
| 17> H 	 -52.4869 	 -49.7941 	 -77.1614
| 18> H 	 -51.0198 	 -50.5132 	 -77.5579
| 19> C 	 -50.8032 	 -48.2915 	 -77.2225
| 20> H 	 -51.5112 	 -47.4438 	 -77.2221
| 21> H 	 -50.3872 	 -48.4165 	 -76.2579
| 22> H 	 -49.9023 	 -48.1293 	 -77.7543
| 23> S 	 -53.1903 	 -55.6288 	 -80.965
| 24> C 	 -51.9713 	 -56.8492 	 -81.4135
| 25> C 	 -50.7682 	 -56.291 	 -81.5888
| 26> C 	 -50.6976 	 -54.8783 	 -81.3087
| 27> C 	 -51.9931 	 -54.3686 	 -81.0221
| 28> H 	 -49.9564 	 -57.0147 	 -81.5649
| 29> C 	 -49.4106 	 -54.1995 	 -81.3401
| 30> H 	 -49.6454 	 -53.1613 	 -81.3968
| 31> H 	 -48.8507 	 -54.4275 	 -82.2221
| 32> C 	 -48.5004 	 -54.3505 	 -80.1438
| 33> H 	 -48.9915 	 -53.9707 	 -79.2594
| 34> H 	 -47.6221 	 -53.8175 	 -80.446
| 35> C 	 -48.1883 	 -55.7937 	 -79.7942
| 36> H 	 -49.0627 	 -56.3081 	 -79.5137
| 37> H 	 -47.572 	 -55.8344 	 -78.9431
| 38> H 	 -47.745 	 -56.2026 	 -80.5864
| 39> H 	 -54.3856 	 -50.0844 	 -80.634
| 40> H 	 -52.1379 	 -57.9272 	 -81.5183
| 41> *
| 42>
| 43>                          ****END OF INPUT****

CARTESIAN COORDINATES (ANGSTROEM)
---------------------------------
  S    -54.102700  -52.516700  -80.953300
  C    -53.638100  -50.874100  -80.541200
  C    -52.407000  -50.792100  -79.933800
  C    -51.724400  -52.023500  -80.024900
  C    -52.429000  -53.014400  -80.656200
  H    -50.715800  -52.160500  -79.666200
  C    -51.725700  -49.577200  -79.265300
  H    -52.315000  -48.798900  -79.636900
  H    -50.717700  -49.497600  -79.641300
  C    -51.570800  -49.627100  -77.738200
  H    -52.486900  -49.794100  -77.161400
  H    -51.019800  -50.513200  -77.557900
  C    -50.803200  -48.291500  -77.222500
  H    -51.511200  -47.443800  -77.222100
  H    -50.387200  -48.416500  -76.257900
  H    -49.902300  -48.129300  -77.754300
  S    -53.190300  -55.628800  -80.965000
  C    -51.971300  -56.849200  -81.413500
  C    -50.768200  -56.291000  -81.588800
  C    -50.697600  -54.878300  -81.308700
  C    -51.993100  -54.368600  -81.022100
  H    -49.956400  -57.014700  -81.564900
  C    -49.410600  -54.199500  -81.340100
  H    -49.645400  -53.161300  -81.396800
  H    -48.850700  -54.427500  -82.222100
  C    -48.500400  -54.350500  -80.143800
  H    -48.991500  -53.970700  -79.259400
  H    -47.622100  -53.817500  -80.446000
  C    -48.188300  -55.793700  -79.794200
  H    -49.062700  -56.308100  -79.513700
  H    -47.572000  -55.834400  -78.943100
  H    -47.745000  -56.202600  -80.586400
  H    -54.385600  -50.084400  -80.634000
  H    -52.137900  -57.927200  -81.518300

 Total Charge           Charge          ....    0
 Multiplicity           Mult            ....    1
 Number of Electrons    NEL             ....  134
 Basis Dimension        Dim             ....  322

ORBITAL ENERGIES
----------------

  NO   OCC          E(Eh)            E(eV)
   0   2.0000     -88.965392     -2420.8714
   1   2.0000     -88.964093     -2420.8360
   2   2.0000     -10.331161      -281.1252
   3   2.0000     -10.330804      -281.1155
   4   2.0000     -10.315433      -280.6972
   5   2.0000     -10.315011      -280.6857
   6   2.0000     -10.302284      -280.3394
   7   2.0000     -10.299903      -280.2746
   8   2.0000     -10.292045      -280.0608
   9   2.0000     -10.290142      -280.0090
  10   2.0000     -10.289957      -280.0040
  11   2.0000     -10.286998      -279.9234
  12   2.0000     -10.281749      -279.7806
  13   2.0000     -10.280557      -279.7482
  14   2.0000     -10.278134      -279.6822
  15   2.0000     -10.257289      -279.1150
  16   2.0000      -8.080076      -219.8701
  17   2.0000      -8.078768      -219.8345
  18   2.0000      -6.038642      -164.3198
  19   2.0000      -6.037437      -164.2870
  20   2.0000      -6.034882      -164.2175
  21   2.0000      -6.033344      -164.1756
  22   2.0000      -6.030506      -164.0984
  23   2.0000      -6.029322      -164.0662
  24   2.0000      -1.006600       -27.3910
  25   2.0000      -0.984301       -26.7842
  26   2.0000      -0.923366       -25.1261
  27   2.0000      -0.907395       -24.6915
  28   2.0000      -0.869626       -23.6637
  29   2.0000      -0.854604       -23.2549
  30   2.0000      -0.844711       -22.9857
  31   2.0000      -0.819606       -22.3026
  32   2.0000      -0.789377       -21.4800
  33   2.0000      -0.776752       -21.1365
  34   2.0000      -0.715822       -19.4785
  35   2.0000      -0.706774       -19.2323
  36   2.0000      -0.689931       -18.7740
  37   2.0000      -0.661559       -18.0019
  38   2.0000      -0.637088       -17.3361
  39   2.0000      -0.626946       -17.0601
  40   2.0000      -0.603432       -16.4202
  41   2.0000      -0.573109       -15.5951
  42   2.0000      -0.570913       -15.5353
  43   2.0000      -0.555478       -15.1153
  44   2.0000      -0.543211       -14.7815
  45   2.0000      -0.530319       -14.4307
  46   2.0000      -0.513760       -13.9801
  47   2.0000      -0.511500       -13.9186
  48   2.0000      -0.504706       -13.7337
  49   2.0000      -0.494033       -13.4433
  50   2.0000      -0.493592       -13.4313
  51   2.0000      -0.490229       -13.3398
  52   2.0000      -0.473089       -12.8734
  53   2.0000      -0.470653       -12.8071
  54   2.0000      -0.458958       -12.4889
  55   2.0000      -0.450291       -12.2530
  56   2.0000      -0.445574       -12.1247
  57   2.0000      -0.440677       -11.9914
  58   2.0000      -0.433624       -11.7995
  59   2.0000      -0.431715       -11.7476
  60   2.0000      -0.422878       -11.5071
  61   2.0000      -0.418154       -11.3786
  62   2.0000      -0.415022       -11.2933
  63   2.0000      -0.358599        -9.7580
  64   2.0000      -0.335600        -9.1322
  65   2.0000      -0.326269        -8.8782
  66   2.0000      -0.282712        -7.6930
  67   0.0000       0.023352         0.6354
  68   0.0000       0.075920         2.0659
  69   0.0000       0.096687         2.6310
  70   0.0000       0.121461         3.3051
  71   0.0000       0.132956         3.6179

MULLIKEN ATOMIC CHARGES
-----------------------
   0 S :    0.097437
   1 C :   -0.142816
   2 C :   -0.073636
   3 C :   -0.012683
   4 C :   -0.110189
   5 H :    0.003965
   6 C :    0.114961
   7 H :    0.002293
   8 H :    0.021034
   9 C :   -0.071251
  10 H :    0.035849
  11 H :    0.013611
  12 C :   -0.032221
  13 H :    0.049506
  14 H :    0.021075
  15 H :    0.018533
  16 S :    0.085341
  17 C :   -0.103730
  18 C :   -0.020687
  19 C :   -0.079342
  20 C :   -0.109982
  21 H :    0.026800
  22 C :    0.077210
  23 H :    0.004851
  24 H :    0.020469
  25 C :   -0.058932
  26 H :    0.022538
  27 H :    0.027363
  28 C :    0.019920
  29 H :    0.029827
  30 H :    0.016610
  31 H :   -0.002191
  32 H :    0.047949
  33 H :    0.060518
Sum of atomic charges:    0.0000000

LOEWDIN ATOMIC CHARGES
----------------------
   0 S :    0.384978
   1 C :   -0.189818
   2 C :   -0.061190
   3 C :   -0.067922
   4 C :   -0.175821
   5 H :    0.028092
   6 C :   -0.020252
   7 H :    0.019836
   8 H :    0.030446
   9 C :   -0.031089
  10 H :    0.026315
  11 H :    0.016359
  12 C :   -0.059988
  13 H :    0.031827
  14 H :    0.021930
  15 H :    0.020186
  16 S :    0.384686
  17 C :   -0.175129
  18 C :   -0.076298
  19 C :   -0.055617
  20 C :   -0.192655
  21 H :    0.035627
  22 C :   -0.038664
  23 H :    0.027587
  24 H :    0.030352
  25 C :   -0.023727
  26 H :    0.020147
  27 H :    0.023678
  28 C :   -0.045619
  29 H :    0.023491
  30 H :    0.023161
  31 H :    0.004354
  32 H :    0.025304
  33 H :    0.035431

  Mayer bond orders larger than 0.100000
B(  0-S ,  1-C ) :   1.1303 B(  0-S ,  4-C ) :   1.1374 B(  1-C ,  2-C ) :   1.6260
B(  1-C , 32-H ) :   0.9671 B(  2-C ,  3-C ) :   1.2314 B(  2-C ,  6-C ) :   1.0140
B(  3-C ,  4-C ) :   1.5781 B(  3-C ,  5-H ) :   0.9925 B(  4-C , 20-C ) :   1.0565
B(  6-C ,  7-H ) :   0.9395 B(  6-C ,  8-H ) :   0.9395 B(  6-C ,  9-C ) :   1.0563
B(  9-C , 10-H ) :   0.9596 B(  9-C , 11-H ) :   0.9566 B(  9-C , 12-C ) :   1.0717
B( 12-C , 13-H ) :   0.9800 B( 12-C , 14-H ) :   0.9750 B( 12-C , 15-H ) :   0.9747
B( 16-S , 17-C ) :   1.1230 B( 16-S , 20-C ) :   1.1386 B( 17-C , 18-C ) :   1.6715
B( 17-C , 33-H ) :   0.9610 B( 18-C , 19-C ) :   1.2152 B( 18-C , 21-H ) :   0.9716
B( 19-C , 20-C ) :   1.5888 B( 19-C , 22-C ) :   1.0641 B( 22-C , 23-H ) :   0.9145
B( 22-C , 24-H ) :   0.9260 B( 22-C , 25-C ) :   1.0879 B( 25-C , 26-H ) :   0.9470
B( 25-C , 27-H ) :   0.9540 B( 25-C , 28-C ) :   1.1008 B( 28-C , 29-H ) :   0.9631
B( 28-C , 30-H ) :   0.9654 B( 28-C , 31-H ) :   0.9708

Dispersion correction           -0.014181194
FINAL SINGLE POINT ENERGY     -1339.858286797437

DIPOLE MOMENT
-------------
                                X             Y             Z
Electronic contribution:    -23.60942     -12.76581     -13.28364
Nuclear contribution   :     24.32646      12.95919      13.64662
                        -----------------------------------------
Total Dipole Moment    :      0.71704       0.19338       0.36298
                        -----------------------------------------
Magnitude (a.u.)       :      0.82662
Magnitude (Debye)      :      2.10109

Rotational constants in cm-1:     0.018861     0.008672     0.006336
Rotational constants in MHz :   565.452460   259.982351   189.934198

                             ****ORCA TERMINATED NORMALLY****
TOTAL RUN TIME: 0 days 0 hours 0 minutes 21 seconds 845 msec
