                         Program Version 4.2.1 -  RELEASE  -
|  1> ! wB97X-D3 SP def2-SVP
|  2> %pal
|  3> nprocs 24
|  4> end
|  5>
|  6> * xyz 0 1
|  7> S 	 -142.94 	 3.35274 	 1.70945
|  8> C 	 -141.635 	 4.03178 	 0.94778
|  9> C 	 -141.449 	 5.31734 	 1.34663
| 10> C 	 -142.504 	 5.83916 	 2.25173
| 11> C 	 -143.452 	 4.90564 	 2.41684
| 12> H 	 -142.72 	 6.83225 	 2.59858
| 13> C 	 -140.341 	 6.24957 	 0.853508
| 14> H 	 -139.611 	 5.66677 	 0.302686
| 15> H 	 -139.735 	 6.62243 	 1.65925
| 16> C 	 -140.853 	 7.25407 	 -0.0391714
| 17> H 	 -141.442 	 6.94397 	 -0.936877
| 18> H 	 -141.609 	 7.84845 	 0.522694
| 19> C 	 -139.783 	 8.29958 	 -0.527708
| 20> H 	 -139.382 	 7.955 	 -1.51722
| 21> H 	 -140.315 	 9.18271 	 -0.55114
| 22> H 	 -138.901 	 8.51007 	 0.0987996
| 23> S 	 -146.215 	 5.17557 	 2.43238
| 24> C 	 -147.129 	 5.26355 	 3.95007
| 25> C 	 -146.248 	 5.22728 	 4.99263
| 26> C 	 -144.891 	 5.08006 	 4.6233
| 27> C 	 -144.694 	 5.0454 	 3.2306
| 28> H 	 -146.748 	 5.28006 	 5.94616
| 29> C 	 -143.756 	 5.04266 	 5.59954
| 30> H 	 -142.998 	 4.3708 	 5.18194
| 31> H 	 -144.223 	 4.5085 	 6.41706
| 32> C 	 -143.32 	 6.45065 	 6.01053
| 33> H 	 -144.2 	 7.04551 	 6.18997
| 34> H 	 -142.694 	 6.89568 	 5.13108
| 35> C 	 -142.455 	 6.39108 	 7.30394
| 36> H 	 -143.119 	 6.07563 	 8.19497
| 37> H 	 -141.919 	 7.28199 	 7.51945
| 38> H 	 -141.745 	 5.62109 	 7.21777
| 39> H 	 -141.08 	 3.65563 	 0.0781656
| 40> H 	 -148.228 	 5.20195 	 3.98555
| 41> *
| 42>
| 43>                          ****END OF INPUT****

CARTESIAN COORDINATES (ANGSTROEM)
---------------------------------
  S    -142.940000    3.352740    1.709450
  C    -141.635000    4.031780    0.947780
  C    -141.449000    5.317340    1.346630
  C    -142.504000    5.839160    2.251730
  C    -143.452000    4.905640    2.416840
  H    -142.720000    6.832250    2.598580
  C    -140.341000    6.249570    0.853508
  H    -139.611000    5.666770    0.302686
  H    -139.735000    6.622430    1.659250
  C    -140.853000    7.254070   -0.039171
  H    -141.442000    6.943970   -0.936877
  H    -141.609000    7.848450    0.522694
  C    -139.783000    8.299580   -0.527708
  H    -139.382000    7.955000   -1.517220
  H    -140.315000    9.182710   -0.551140
  H    -138.901000    8.510070    0.098800
  S    -146.215000    5.175570    2.432380
  C    -147.129000    5.263550    3.950070
  C    -146.248000    5.227280    4.992630
  C    -144.891000    5.080060    4.623300
  C    -144.694000    5.045400    3.230600
  H    -146.748000    5.280060    5.946160
  C    -143.756000    5.042660    5.599540
  H    -142.998000    4.370800    5.181940
  H    -144.223000    4.508500    6.417060
  C    -143.320000    6.450650    6.010530
  H    -144.200000    7.045510    6.189970
  H    -142.694000    6.895680    5.131080
  C    -142.455000    6.391080    7.303940
  H    -143.119000    6.075630    8.194970
  H    -141.919000    7.281990    7.519450
  H    -141.745000    5.621090    7.217770
  H    -141.080000    3.655630    0.078166
  H    -148.228000    5.201950    3.985550

 Total Charge           Charge          ....    0
 Multiplicity           Mult            ....    1
 Number of Electrons    NEL             ....  134
 Basis Dimension        Dim             ....  322

ORBITAL ENERGIES
----------------

  NO   OCC          E(Eh)            E(eV)
   0   2.0000     -88.960564     -2420.7400
   1   2.0000     -88.960169     -2420.7293
   2   2.0000     -10.328744      -281.0594
   3   2.0000     -10.324542      -280.9451
   4   2.0000     -10.319120      -280.7975
   5   2.0000     -10.307662      -280.4857
   6   2.0000     -10.301316      -280.3131
   7   2.0000     -10.300815      -280.2994
   8   2.0000     -10.295606      -280.1577
   9   2.0000     -10.294286      -280.1218
  10   2.0000     -10.291813      -280.0545
  11   2.0000     -10.285393      -279.8798
  12   2.0000     -10.285185      -279.8741
  13   2.0000     -10.282509      -279.8013
  14   2.0000     -10.277156      -279.6556
  15   2.0000     -10.275907      -279.6216
  16   2.0000      -8.076639      -219.7765
  17   2.0000      -8.075603      -219.7483
  18   2.0000      -6.035140      -164.2245
  19   2.0000      -6.034031      -164.1943
  20   2.0000      -6.030928      -164.1099
  21   2.0000      -6.029897      -164.0818
  22   2.0000      -6.027240      -164.0095
  23   2.0000      -6.026592      -163.9919
  24   2.0000      -1.010432       -27.4952
  25   2.0000      -0.990249       -26.9460
  26   2.0000      -0.918244       -24.9867
  27   2.0000      -0.908590       -24.7240
  28   2.0000      -0.876301       -23.8454
  29   2.0000      -0.846738       -23.0409
  30   2.0000      -0.843604       -22.9556
  31   2.0000      -0.823013       -22.3953
  32   2.0000      -0.779889       -21.2219
  33   2.0000      -0.767234       -20.8775
  34   2.0000      -0.704652       -19.1746
  35   2.0000      -0.697216       -18.9722
  36   2.0000      -0.689699       -18.7677
  37   2.0000      -0.658263       -17.9123
  38   2.0000      -0.650833       -17.7101
  39   2.0000      -0.620846       -16.8941
  40   2.0000      -0.592746       -16.1294
  41   2.0000      -0.574110       -15.6223
  42   2.0000      -0.562485       -15.3060
  43   2.0000      -0.556601       -15.1459
  44   2.0000      -0.532612       -14.4931
  45   2.0000      -0.526672       -14.3315
  46   2.0000      -0.518205       -14.1011
  47   2.0000      -0.514617       -14.0034
  48   2.0000      -0.509276       -13.8581
  49   2.0000      -0.504775       -13.7356
  50   2.0000      -0.497181       -13.5290
  51   2.0000      -0.474929       -12.9235
  52   2.0000      -0.469814       -12.7843
  53   2.0000      -0.463396       -12.6096
  54   2.0000      -0.459798       -12.5117
  55   2.0000      -0.449265       -12.2251
  56   2.0000      -0.443750       -12.0751
  57   2.0000      -0.439810       -11.9678
  58   2.0000      -0.435449       -11.8492
  59   2.0000      -0.423386       -11.5209
  60   2.0000      -0.410061       -11.1583
  61   2.0000      -0.407328       -11.0840
  62   2.0000      -0.402832       -10.9616
  63   2.0000      -0.343633        -9.3507
  64   2.0000      -0.332823        -9.0566
  65   2.0000      -0.317420        -8.6374
  66   2.0000      -0.309315        -8.4169
  67   0.0000       0.040863         1.1119
  68   0.0000       0.067999         1.8504
  69   0.0000       0.112847         3.0707
  70   0.0000       0.131740         3.5848
  71   0.0000       0.135126         3.6770

MULLIKEN ATOMIC CHARGES
-----------------------
   0 S :    0.114986
   1 C :   -0.092302
   2 C :   -0.129240
   3 C :    0.049309
   4 C :   -0.159767
   5 H :    0.026556
   6 C :    0.124930
   7 H :   -0.002988
   8 H :    0.025657
   9 C :   -0.124233
  10 H :    0.040133
  11 H :    0.019005
  12 C :   -0.032095
  13 H :    0.041557
  14 H :    0.020673
  15 H :    0.028088
  16 S :    0.098364
  17 C :   -0.120141
  18 C :   -0.039111
  19 C :   -0.037010
  20 C :   -0.192015
  21 H :    0.017768
  22 C :    0.090600
  23 H :    0.037615
  24 H :    0.012086
  25 C :   -0.085490
  26 H :    0.033270
  27 H :    0.043030
  28 C :   -0.023953
  29 H :    0.036645
  30 H :    0.030803
  31 H :    0.016750
  32 H :    0.059216
  33 H :    0.071305
Sum of atomic charges:    0.0000000

LOEWDIN ATOMIC CHARGES
----------------------
   0 S :    0.416379
   1 C :   -0.227639
   2 C :   -0.058011
   3 C :   -0.054559
   4 C :   -0.183271
   5 H :    0.033418
   6 C :   -0.039154
   7 H :    0.024268
   8 H :    0.031741
   9 C :   -0.046987
  10 H :    0.033147
  11 H :    0.020376
  12 C :   -0.064128
  13 H :    0.029983
  14 H :    0.017062
  15 H :    0.025562
  16 S :    0.407808
  17 C :   -0.179513
  18 C :   -0.080095
  19 C :   -0.056019
  20 C :   -0.217303
  21 H :    0.034262
  22 C :   -0.034371
  23 H :    0.034332
  24 H :    0.028507
  25 C :   -0.037528
  26 H :    0.022581
  27 H :    0.034117
  28 C :   -0.064273
  29 H :    0.034289
  30 H :    0.019684
  31 H :    0.016934
  32 H :    0.041776
  33 H :    0.036624

  Mayer bond orders larger than 0.100000
B(  0-S ,  1-C ) :   1.1356 B(  0-S ,  4-C ) :   1.1353 B(  1-C ,  2-C ) :   1.6675
B(  1-C , 32-H ) :   0.9558 B(  2-C ,  3-C ) :   1.1707 B(  2-C ,  6-C ) :   1.0267
B(  3-C ,  4-C ) :   1.6501 B(  3-C ,  5-H ) :   0.9876 B(  4-C , 20-C ) :   0.9981
B(  6-C ,  7-H ) :   0.9336 B(  6-C ,  8-H ) :   0.9324 B(  6-C ,  9-C ) :   1.0697
B(  9-C , 10-H ) :   0.9521 B(  9-C , 11-H ) :   0.9641 B(  9-C , 12-C ) :   1.0608
B( 12-C , 13-H ) :   0.9792 B( 12-C , 14-H ) :   0.9781 B( 12-C , 15-H ) :   0.9775
B( 16-S , 17-C ) :   1.1643 B( 16-S , 20-C ) :   1.1657 B( 17-C , 18-C ) :   1.5970
B( 17-C , 20-C ) :   0.1032 B( 17-C , 33-H ) :   0.9654 B( 18-C , 19-C ) :   1.2436
B( 18-C , 21-H ) :   0.9962 B( 19-C , 20-C ) :   1.5685 B( 19-C , 22-C ) :   1.0404
B( 22-C , 23-H ) :   0.9209 B( 22-C , 24-H ) :   0.9326 B( 22-C , 25-C ) :   1.0619
B( 25-C , 26-H ) :   0.9606 B( 25-C , 27-H ) :   0.9468 B( 25-C , 28-C ) :   1.0760
B( 28-C , 29-H ) :   0.9750 B( 28-C , 30-H ) :   0.9757 B( 28-C , 31-H ) :   0.9734

Dispersion correction           -0.014307409
FINAL SINGLE POINT ENERGY     -1339.861917026915

DIPOLE MOMENT
-------------
                                X             Y             Z
Electronic contribution:    -18.66833     -16.65211      -6.56446
Nuclear contribution   :     18.90447      17.01516       6.79788
                        -----------------------------------------
Total Dipole Moment    :      0.23614       0.36305       0.23342
                        -----------------------------------------
Magnitude (a.u.)       :      0.49199
Magnitude (Debye)      :      1.25054

Rotational constants in cm-1:     0.017644     0.008234     0.006957
Rotational constants in MHz :   528.957274   246.859628   208.580232

                             ****ORCA TERMINATED NORMALLY****
TOTAL RUN TIME: 0 days 0 hours 0 minutes 21 seconds 560 msec
