                         Program Version 4.2.1 -  RELEASE  -
|  1> ! wB97X-D3 SP def2-SVP
|  2> %pal
|  3> nprocs 24
|  4> end
|  5>
|  6> * xyz 0 1
|  7> S 	 -70.6292 	 9.5571 	 -101.604
|  8> C 	 -69.293 	 9.63631 	 -102.773
|  9> C 	 -69.8 	 9.68996 	 -104.116
| 10> C 	 -71.1994 	 9.4762 	 -104.167
| 11> C 	 -71.781 	 9.26996 	 -102.931
| 12> H 	 -71.8659 	 9.36989 	 -105.046
| 13> C 	 -68.8966 	 10.1219 	 -105.265
| 14> H 	 -68.0031 	 10.6534 	 -104.811
| 15> H 	 -69.4014 	 10.7706 	 -105.964
| 16> C 	 -68.3393 	 8.89338 	 -106.146
| 17> H 	 -69.2654 	 8.37254 	 -106.437
| 18> H 	 -67.7983 	 9.29396 	 -107.024
| 19> C 	 -67.3475 	 7.96625 	 -105.38
| 20> H 	 -66.9725 	 7.20776 	 -106.085
| 21> H 	 -66.5169 	 8.66134 	 -105.081
| 22> H 	 -67.73 	 7.48554 	 -104.547
| 23> S 	 -73.8348 	 10.3845 	 -101.409
| 24> C 	 -75.4407 	 9.80742 	 -101.701
| 25> C 	 -75.4634 	 8.81162 	 -102.637
| 26> C 	 -74.1838 	 8.45365 	 -103.227
| 27> C 	 -73.2002 	 9.23717 	 -102.652
| 28> H 	 -76.3725 	 8.3426 	 -102.772
| 29> C 	 -74.0212 	 7.34837 	 -104.235
| 30> H 	 -72.981 	 7.01003 	 -104.268
| 31> H 	 -74.2258 	 7.7446 	 -105.286
| 32> C 	 -74.8175 	 6.08544 	 -103.845
| 33> H 	 -75.7922 	 6.40185 	 -103.959
| 34> H 	 -74.6537 	 5.90518 	 -102.773
| 35> C 	 -74.6232 	 4.89202 	 -104.786
| 36> H 	 -75.511 	 4.78158 	 -105.434
| 37> H 	 -74.7291 	 3.97475 	 -104.231
| 38> H 	 -73.7471 	 4.79984 	 -105.427
| 39> H 	 -68.2495 	 9.83751 	 -102.474
| 40> H 	 -76.3254 	 10.0714 	 -101.026
| 41> *
| 42>
| 43>                          ****END OF INPUT****

CARTESIAN COORDINATES (ANGSTROEM)
---------------------------------
  S    -70.629200    9.557100  -101.604000
  C    -69.293000    9.636310  -102.773000
  C    -69.800000    9.689960  -104.116000
  C    -71.199400    9.476200  -104.167000
  C    -71.781000    9.269960  -102.931000
  H    -71.865900    9.369890  -105.046000
  C    -68.896600   10.121900  -105.265000
  H    -68.003100   10.653400  -104.811000
  H    -69.401400   10.770600  -105.964000
  C    -68.339300    8.893380  -106.146000
  H    -69.265400    8.372540  -106.437000
  H    -67.798300    9.293960  -107.024000
  C    -67.347500    7.966250  -105.380000
  H    -66.972500    7.207760  -106.085000
  H    -66.516900    8.661340  -105.081000
  H    -67.730000    7.485540  -104.547000
  S    -73.834800   10.384500  -101.409000
  C    -75.440700    9.807420  -101.701000
  C    -75.463400    8.811620  -102.637000
  C    -74.183800    8.453650  -103.227000
  C    -73.200200    9.237170  -102.652000
  H    -76.372500    8.342600  -102.772000
  C    -74.021200    7.348370  -104.235000
  H    -72.981000    7.010030  -104.268000
  H    -74.225800    7.744600  -105.286000
  C    -74.817500    6.085440  -103.845000
  H    -75.792200    6.401850  -103.959000
  H    -74.653700    5.905180  -102.773000
  C    -74.623200    4.892020  -104.786000
  H    -75.511000    4.781580  -105.434000
  H    -74.729100    3.974750  -104.231000
  H    -73.747100    4.799840  -105.427000
  H    -68.249500    9.837510  -102.474000
  H    -76.325400   10.071400  -101.026000

 Total Charge           Charge          ....    0
 Multiplicity           Mult            ....    1
 Number of Electrons    NEL             ....  134
 Basis Dimension        Dim             ....  322

ORBITAL ENERGIES
----------------

  NO   OCC          E(Eh)            E(eV)
   0   2.0000     -88.968412     -2420.9536
   1   2.0000     -88.963774     -2420.8274
   2   2.0000     -10.329090      -281.0688
   3   2.0000     -10.328278      -281.0467
   4   2.0000     -10.323718      -280.9227
   5   2.0000     -10.318667      -280.7852
   6   2.0000     -10.309699      -280.5412
   7   2.0000     -10.305589      -280.4293
   8   2.0000     -10.299752      -280.2705
   9   2.0000     -10.299357      -280.2598
  10   2.0000     -10.297786      -280.2170
  11   2.0000     -10.293585      -280.1027
  12   2.0000     -10.287854      -279.9467
  13   2.0000     -10.283776      -279.8358
  14   2.0000     -10.279211      -279.7116
  15   2.0000     -10.276415      -279.6355
  16   2.0000      -8.082098      -219.9251
  17   2.0000      -8.078236      -219.8200
  18   2.0000      -6.040575      -164.3724
  19   2.0000      -6.036885      -164.2720
  20   2.0000      -6.036842      -164.2708
  21   2.0000      -6.032881      -164.1630
  22   2.0000      -6.032870      -164.1627
  23   2.0000      -6.028776      -164.0513
  24   2.0000      -1.001606       -27.2551
  25   2.0000      -0.976897       -26.5827
  26   2.0000      -0.911739       -24.8097
  27   2.0000      -0.900178       -24.4951
  28   2.0000      -0.865494       -23.5513
  29   2.0000      -0.851455       -23.1693
  30   2.0000      -0.842780       -22.9332
  31   2.0000      -0.811464       -22.0811
  32   2.0000      -0.784496       -21.3472
  33   2.0000      -0.768809       -20.9204
  34   2.0000      -0.709533       -19.3074
  35   2.0000      -0.698266       -19.0008
  36   2.0000      -0.688653       -18.7392
  37   2.0000      -0.652283       -17.7495
  38   2.0000      -0.638254       -17.3678
  39   2.0000      -0.615887       -16.7591
  40   2.0000      -0.597201       -16.2507
  41   2.0000      -0.568875       -15.4799
  42   2.0000      -0.562471       -15.3056
  43   2.0000      -0.548844       -14.9348
  44   2.0000      -0.538522       -14.6539
  45   2.0000      -0.524074       -14.2608
  46   2.0000      -0.515876       -14.0377
  47   2.0000      -0.509073       -13.8526
  48   2.0000      -0.500186       -13.6108
  49   2.0000      -0.495054       -13.4711
  50   2.0000      -0.487192       -13.2572
  51   2.0000      -0.475391       -12.9360
  52   2.0000      -0.469336       -12.7713
  53   2.0000      -0.465044       -12.6545
  54   2.0000      -0.458490       -12.4761
  55   2.0000      -0.452891       -12.3238
  56   2.0000      -0.446620       -12.1531
  57   2.0000      -0.433287       -11.7903
  58   2.0000      -0.429673       -11.6920
  59   2.0000      -0.426949       -11.6179
  60   2.0000      -0.421058       -11.4576
  61   2.0000      -0.418075       -11.3764
  62   2.0000      -0.411168       -11.1884
  63   2.0000      -0.349759        -9.5174
  64   2.0000      -0.330702        -8.9989
  65   2.0000      -0.329850        -8.9757
  66   2.0000      -0.285616        -7.7720
  67   0.0000       0.022745         0.6189
  68   0.0000       0.066585         1.8119
  69   0.0000       0.106858         2.9077
  70   0.0000       0.116966         3.1828
  71   0.0000       0.128444         3.4951

MULLIKEN ATOMIC CHARGES
-----------------------
   0 S :    0.098221
   1 C :   -0.128821
   2 C :   -0.076410
   3 C :    0.024560
   4 C :   -0.160631
   5 H :    0.030448
   6 C :    0.032323
   7 H :    0.032442
   8 H :    0.035386
   9 C :   -0.100107
  10 H :    0.031546
  11 H :    0.040079
  12 C :   -0.044209
  13 H :    0.040930
  14 H :    0.028405
  15 H :    0.032296
  16 S :    0.096882
  17 C :   -0.118754
  18 C :   -0.018882
  19 C :   -0.030199
  20 C :   -0.151500
  21 H :   -0.011905
  22 C :    0.042132
  23 H :    0.028264
  24 H :    0.051582
  25 C :   -0.081759
  26 H :    0.018171
  27 H :    0.049349
  28 C :   -0.026836
  29 H :    0.024031
  30 H :    0.023910
  31 H :    0.039796
  32 H :    0.064602
  33 H :    0.084660
Sum of atomic charges:   -0.0000000

LOEWDIN ATOMIC CHARGES
----------------------
   0 S :    0.385787
   1 C :   -0.194972
   2 C :   -0.061145
   3 C :   -0.062053
   4 C :   -0.183697
   5 H :    0.040418
   6 C :   -0.032459
   7 H :    0.032703
   8 H :    0.029590
   9 C :   -0.038922
  10 H :    0.020543
  11 H :    0.025294
  12 C :   -0.063731
  13 H :    0.030289
  14 H :    0.029276
  15 H :    0.013277
  16 S :    0.378659
  17 C :   -0.200129
  18 C :   -0.068350
  19 C :   -0.055725
  20 C :   -0.177372
  21 H :    0.016316
  22 C :   -0.035919
  23 H :    0.028847
  24 H :    0.038529
  25 C :   -0.036106
  26 H :    0.013763
  27 H :    0.032364
  28 C :   -0.071020
  29 H :    0.031420
  30 H :    0.028924
  31 H :    0.026495
  32 H :    0.031691
  33 H :    0.047416

  Mayer bond orders larger than 0.100000
B(  0-S ,  1-C ) :   1.1456 B(  0-S ,  4-C ) :   1.1425 B(  1-C ,  2-C ) :   1.5698
B(  1-C ,  4-C ) :   0.1047 B(  1-C , 32-H ) :   0.9660 B(  2-C ,  3-C ) :   1.2571
B(  2-C ,  6-C ) :   1.0224 B(  3-C ,  4-C ) :   1.5612 B(  3-C ,  5-H ) :   0.9852
B(  4-C , 20-C ) :   1.0642 B(  6-C ,  7-H ) :   0.9485 B(  6-C ,  8-H ) :   0.9482
B(  6-C ,  9-C ) :   1.0541 B(  9-C , 10-H ) :   0.9597 B(  9-C , 11-H ) :   0.9607
B(  9-C , 12-C ) :   1.0697 B( 12-C , 13-H ) :   0.9753 B( 12-C , 14-H ) :   0.9756
B( 12-C , 15-H ) :   0.9784 B( 16-S , 17-C ) :   1.1353 B( 16-S , 20-C ) :   1.1210
B( 17-C , 18-C ) :   1.6548 B( 17-C , 33-H ) :   0.9532 B( 18-C , 19-C ) :   1.1895
B( 18-C , 21-H ) :   0.9994 B( 19-C , 20-C ) :   1.6289 B( 19-C , 22-C ) :   1.0485
B( 22-C , 23-H ) :   0.9323 B( 22-C , 24-H ) :   0.9317 B( 22-C , 25-C ) :   1.0534
B( 25-C , 26-H ) :   0.9545 B( 25-C , 27-H ) :   0.9649 B( 25-C , 28-C ) :   1.0715
B( 28-C , 29-H ) :   0.9747 B( 28-C , 30-H ) :   0.9718 B( 28-C , 31-H ) :   0.9791

Dispersion correction           -0.013792286
FINAL SINGLE POINT ENERGY     -1339.869465361815

DIPOLE MOMENT
-------------
                                X             Y             Z
Electronic contribution:     -6.56004      17.39123      21.35111
Nuclear contribution   :      6.44157     -17.69971     -21.88164
                        -----------------------------------------
Total Dipole Moment    :     -0.11846      -0.30848      -0.53054
                        -----------------------------------------
Magnitude (a.u.)       :      0.62503
Magnitude (Debye)      :      1.58870

Rotational constants in cm-1:     0.017603     0.008503     0.006313
Rotational constants in MHz :   527.730869   254.922298   189.264226

                             ****ORCA TERMINATED NORMALLY****
TOTAL RUN TIME: 0 days 0 hours 0 minutes 19 seconds 995 msec
