                         Program Version 4.2.1 -  RELEASE  -
|  1> ! wB97X-D3 SP def2-SVP
|  2> %pal
|  3> nprocs 24
|  4> end
|  5>
|  6> * xyz 0 1
|  7> S 	 -60.2282 	 -1.15174 	 -27.8245
|  8> C 	 -61.4073 	 -1.17407 	 -29.2121
|  9> C 	 -62.6502 	 -1.5255 	 -28.8205
| 10> C 	 -62.7349 	 -1.63594 	 -27.355
| 11> C 	 -61.5753 	 -1.43096 	 -26.6162
| 12> H 	 -63.6884 	 -1.89763 	 -26.9103
| 13> C 	 -63.8339 	 -1.47135 	 -29.7229
| 14> H 	 -64.6514 	 -2.06499 	 -29.288
| 15> H 	 -63.5438 	 -2.06319 	 -30.6629
| 16> C 	 -64.1718 	 -0.0634243 	 -30.2096
| 17> H 	 -64.4347 	 0.458785 	 -29.2926
| 18> H 	 -63.2653 	 0.447543 	 -30.6741
| 19> C 	 -65.2536 	 -0.00188345 	 -31.2782
| 20> H 	 -66.1996 	 -0.433369 	 -30.9423
| 21> H 	 -65.3145 	 1.04405 	 -31.5904
| 22> H 	 -64.9019 	 -0.611031 	 -32.051
| 23> S 	 -60.3734 	 -2.71159 	 -24.5719
| 24> C 	 -60.7732 	 -2.23121 	 -22.9285
| 25> C 	 -61.5748 	 -1.12948 	 -22.9323
| 26> C 	 -62.0273 	 -0.726537 	 -24.2651
| 27> C 	 -61.4121 	 -1.45423 	 -25.2173
| 28> H 	 -61.8116 	 -0.777338 	 -21.9761
| 29> C 	 -63.0486 	 0.369641 	 -24.5048
| 30> H 	 -63.7531 	 0.188699 	 -23.7257
| 31> H 	 -63.5872 	 0.0343877 	 -25.4368
| 32> C 	 -62.4163 	 1.7611 	 -24.4841
| 33> H 	 -63.0225 	 2.58695 	 -24.9216
| 34> H 	 -61.5683 	 1.731 	 -25.0986
| 35> C 	 -62.1636 	 2.33162 	 -23.027
| 36> H 	 -63.0777 	 2.39364 	 -22.3916
| 37> H 	 -61.769 	 3.32333 	 -23.2648
| 38> H 	 -61.4754 	 1.67628 	 -22.4874
| 39> H 	 -61.0657 	 -0.982069 	 -30.2492
| 40> H 	 -60.3472 	 -2.6823 	 -22.0034
| 41> *
| 42>
| 43>                          ****END OF INPUT****

CARTESIAN COORDINATES (ANGSTROEM)
---------------------------------
  S    -60.228200   -1.151740  -27.824500
  C    -61.407300   -1.174070  -29.212100
  C    -62.650200   -1.525500  -28.820500
  C    -62.734900   -1.635940  -27.355000
  C    -61.575300   -1.430960  -26.616200
  H    -63.688400   -1.897630  -26.910300
  C    -63.833900   -1.471350  -29.722900
  H    -64.651400   -2.064990  -29.288000
  H    -63.543800   -2.063190  -30.662900
  C    -64.171800   -0.063424  -30.209600
  H    -64.434700    0.458785  -29.292600
  H    -63.265300    0.447543  -30.674100
  C    -65.253600   -0.001883  -31.278200
  H    -66.199600   -0.433369  -30.942300
  H    -65.314500    1.044050  -31.590400
  H    -64.901900   -0.611031  -32.051000
  S    -60.373400   -2.711590  -24.571900
  C    -60.773200   -2.231210  -22.928500
  C    -61.574800   -1.129480  -22.932300
  C    -62.027300   -0.726537  -24.265100
  C    -61.412100   -1.454230  -25.217300
  H    -61.811600   -0.777338  -21.976100
  C    -63.048600    0.369641  -24.504800
  H    -63.753100    0.188699  -23.725700
  H    -63.587200    0.034388  -25.436800
  C    -62.416300    1.761100  -24.484100
  H    -63.022500    2.586950  -24.921600
  H    -61.568300    1.731000  -25.098600
  C    -62.163600    2.331620  -23.027000
  H    -63.077700    2.393640  -22.391600
  H    -61.769000    3.323330  -23.264800
  H    -61.475400    1.676280  -22.487400
  H    -61.065700   -0.982069  -30.249200
  H    -60.347200   -2.682300  -22.003400

 Total Charge           Charge          ....    0
 Multiplicity           Mult            ....    1
 Number of Electrons    NEL             ....  134
 Basis Dimension        Dim             ....  322

ORBITAL ENERGIES
----------------

  NO   OCC          E(Eh)            E(eV)
   0   2.0000     -88.961740     -2420.7720
   1   2.0000     -88.961165     -2420.7564
   2   2.0000     -10.333758      -281.1958
   3   2.0000     -10.319673      -280.8126
   4   2.0000     -10.319594      -280.8104
   5   2.0000     -10.319375      -280.8045
   6   2.0000     -10.303940      -280.3844
   7   2.0000     -10.300474      -280.2901
   8   2.0000     -10.300261      -280.2844
   9   2.0000     -10.298231      -280.2291
  10   2.0000     -10.291624      -280.0493
  11   2.0000     -10.291368      -280.0424
  12   2.0000     -10.291108      -280.0353
  13   2.0000     -10.286516      -279.9103
  14   2.0000     -10.283916      -279.8396
  15   2.0000     -10.276290      -279.6321
  16   2.0000      -8.076264      -219.7663
  17   2.0000      -8.074545      -219.7195
  18   2.0000      -6.034923      -164.2186
  19   2.0000      -6.033431      -164.1780
  20   2.0000      -6.030781      -164.1059
  21   2.0000      -6.029417      -164.0688
  22   2.0000      -6.026768      -163.9967
  23   2.0000      -6.024916      -163.9463
  24   2.0000      -1.005668       -27.3656
  25   2.0000      -0.975188       -26.5362
  26   2.0000      -0.915402       -24.9094
  27   2.0000      -0.906752       -24.6740
  28   2.0000      -0.876719       -23.8567
  29   2.0000      -0.846062       -23.0225
  30   2.0000      -0.840663       -22.8756
  31   2.0000      -0.815341       -22.1866
  32   2.0000      -0.782765       -21.3001
  33   2.0000      -0.771396       -20.9908
  34   2.0000      -0.712842       -19.3974
  35   2.0000      -0.699580       -19.0365
  36   2.0000      -0.696389       -18.9497
  37   2.0000      -0.663842       -18.0640
  38   2.0000      -0.635554       -17.2943
  39   2.0000      -0.617879       -16.8134
  40   2.0000      -0.588798       -16.0220
  41   2.0000      -0.572068       -15.5668
  42   2.0000      -0.562457       -15.3052
  43   2.0000      -0.552000       -15.0207
  44   2.0000      -0.542661       -14.7665
  45   2.0000      -0.533602       -14.5200
  46   2.0000      -0.524149       -14.2628
  47   2.0000      -0.510691       -13.8966
  48   2.0000      -0.503917       -13.7123
  49   2.0000      -0.500594       -13.6219
  50   2.0000      -0.484207       -13.1759
  51   2.0000      -0.477425       -12.9914
  52   2.0000      -0.474564       -12.9135
  53   2.0000      -0.460585       -12.5332
  54   2.0000      -0.457365       -12.4455
  55   2.0000      -0.446107       -12.1392
  56   2.0000      -0.440717       -11.9925
  57   2.0000      -0.439084       -11.9481
  58   2.0000      -0.437736       -11.9114
  59   2.0000      -0.422233       -11.4895
  60   2.0000      -0.417991       -11.3741
  61   2.0000      -0.415223       -11.2988
  62   2.0000      -0.404132       -10.9970
  63   2.0000      -0.345071        -9.3899
  64   2.0000      -0.329791        -8.9741
  65   2.0000      -0.325221        -8.8497
  66   2.0000      -0.299754        -8.1567
  67   0.0000       0.033199         0.9034
  68   0.0000       0.061337         1.6691
  69   0.0000       0.109951         2.9919
  70   0.0000       0.120840         3.2882
  71   0.0000       0.126160         3.4330

MULLIKEN ATOMIC CHARGES
-----------------------
   0 S :    0.078180
   1 C :   -0.158177
   2 C :   -0.050342
   3 C :    0.038981
   4 C :   -0.151375
   5 H :    0.012774
   6 C :    0.020598
   7 H :    0.029562
   8 H :    0.029965
   9 C :   -0.101588
  10 H :    0.028791
  11 H :    0.037828
  12 C :    0.006537
  13 H :    0.030418
  14 H :    0.043446
  15 H :    0.011926
  16 S :    0.102949
  17 C :   -0.105506
  18 C :   -0.024158
  19 C :   -0.069585
  20 C :   -0.157608
  21 H :   -0.002220
  22 C :    0.116590
  23 H :    0.012948
  24 H :    0.025881
  25 C :   -0.047299
  26 H :    0.032496
  27 H :    0.025572
  28 C :   -0.074246
  29 H :    0.039631
  30 H :    0.043909
  31 H :    0.037155
  32 H :    0.064500
  33 H :    0.071469
Sum of atomic charges:   -0.0000000

LOEWDIN ATOMIC CHARGES
----------------------
   0 S :    0.332659
   1 C :   -0.165074
   2 C :   -0.071457
   3 C :   -0.054758
   4 C :   -0.170744
   5 H :    0.026509
   6 C :   -0.043143
   7 H :    0.030607
   8 H :    0.036037
   9 C :   -0.041711
  10 H :    0.021442
  11 H :    0.032296
  12 C :   -0.057283
  13 H :    0.025191
  14 H :    0.032431
  15 H :    0.016709
  16 S :    0.392504
  17 C :   -0.180127
  18 C :   -0.070723
  19 C :   -0.045031
  20 C :   -0.202906
  21 H :    0.021544
  22 C :   -0.032712
  23 H :    0.025172
  24 H :    0.037967
  25 C :   -0.034212
  26 H :    0.028699
  27 H :    0.020423
  28 C :   -0.064339
  29 H :    0.028402
  30 H :    0.030140
  31 H :    0.020747
  32 H :    0.034422
  33 H :    0.040316

  Mayer bond orders larger than 0.100000
B(  0-S ,  1-C ) :   1.1118 B(  0-S ,  4-C ) :   1.0956 B(  1-C ,  2-C ) :   1.6479
B(  1-C , 32-H ) :   0.9639 B(  2-C ,  3-C ) :   1.2040 B(  2-C ,  6-C ) :   1.0403
B(  3-C ,  4-C ) :   1.6183 B(  3-C ,  5-H ) :   0.9827 B(  4-C , 20-C ) :   1.0649
B(  6-C ,  7-H ) :   0.9405 B(  6-C ,  8-H ) :   0.9317 B(  6-C ,  9-C ) :   1.0576
B(  9-C , 10-H ) :   0.9555 B(  9-C , 11-H ) :   0.9543 B(  9-C , 12-C ) :   1.0777
B( 12-C , 13-H ) :   0.9743 B( 12-C , 14-H ) :   0.9731 B( 12-C , 15-H ) :   0.9719
B( 16-S , 17-C ) :   1.1327 B( 16-S , 20-C ) :   1.1230 B( 17-C , 18-C ) :   1.6707
B( 17-C , 33-H ) :   0.9595 B( 18-C , 19-C ) :   1.1692 B( 18-C , 21-H ) :   0.9953
B( 19-C , 20-C ) :   1.6545 B( 19-C , 22-C ) :   1.0326 B( 22-C , 23-H ) :   0.9321
B( 22-C , 24-H ) :   0.9250 B( 22-C , 25-C ) :   1.0550 B( 25-C , 26-H ) :   0.9610
B( 25-C , 27-H ) :   0.9578 B( 25-C , 28-C ) :   1.0649 B( 28-C , 29-H ) :   0.9772
B( 28-C , 30-H ) :   0.9762 B( 28-C , 31-H ) :   0.9757

Dispersion correction           -0.014276795
FINAL SINGLE POINT ENERGY     -1339.869127319351

DIPOLE MOMENT
-------------
                                X             Y             Z
Electronic contribution:     19.75421     -16.94663       6.84182
Nuclear contribution   :    -20.43009      17.26713      -6.85587
                        -----------------------------------------
Total Dipole Moment    :     -0.67588       0.32050      -0.01406
                        -----------------------------------------
Magnitude (a.u.)       :      0.74815
Magnitude (Debye)      :      1.90165

Rotational constants in cm-1:     0.020233     0.007937     0.006491
Rotational constants in MHz :   606.556623   237.940401   194.594088

                             ****ORCA TERMINATED NORMALLY****
TOTAL RUN TIME: 0 days 0 hours 0 minutes 21 seconds 524 msec
