                         Program Version 4.2.1 -  RELEASE  -
|  1> ! wB97X-D3 SP def2-SVP
|  2> %pal
|  3> nprocs 24
|  4> end
|  5>
|  6> * xyz 0 1
|  7> S 	 -41.222 	 -47.287 	 -71.4446
|  8> C 	 -41.4068 	 -45.8504 	 -72.4509
|  9> C 	 -42.6437 	 -45.2781 	 -72.2535
| 10> C 	 -43.4231 	 -46.0251 	 -71.3181
| 11> C 	 -42.8767 	 -47.1257 	 -70.7989
| 12> H 	 -44.4132 	 -45.7338 	 -70.9172
| 13> C 	 -43.2772 	 -44.0772 	 -72.8859
| 14> H 	 -42.7824 	 -43.1928 	 -72.4576
| 15> H 	 -44.318 	 -43.993 	 -72.518
| 16> C 	 -43.2149 	 -44.0447 	 -74.4231
| 17> H 	 -43.6224 	 -43.1213 	 -74.728
| 18> H 	 -42.1659 	 -44.1589 	 -74.7216
| 19> C 	 -44.1217 	 -44.9575 	 -75.1802
| 20> H 	 -43.6355 	 -45.2332 	 -76.1525
| 21> H 	 -44.2524 	 -45.9453 	 -74.7604
| 22> H 	 -45.1702 	 -44.5916 	 -75.234
| 23> S 	 -42.3195 	 -48.7734 	 -68.6696
| 24> C 	 -43.5923 	 -49.7641 	 -67.993
| 25> C 	 -44.7762 	 -49.5436 	 -68.6699
| 26> C 	 -44.7274 	 -48.6041 	 -69.7595
| 27> C 	 -43.4461 	 -48.0274 	 -69.7958
| 28> H 	 -45.5532 	 -50.09 	 -68.199
| 29> C 	 -46.0598 	 -48.183 	 -70.4502
| 30> H 	 -46.601 	 -49.1441 	 -70.4278
| 31> H 	 -45.878 	 -47.8945 	 -71.508
| 32> C 	 -46.7461 	 -47.0092 	 -69.7956
| 33> H 	 -45.9534 	 -46.2381 	 -69.4522
| 34> H 	 -47.0928 	 -47.5512 	 -68.8579
| 35> C 	 -47.9565 	 -46.5096 	 -70.5667
| 36> H 	 -47.5234 	 -45.9138 	 -71.3933
| 37> H 	 -48.5473 	 -45.8173 	 -70.0508
| 38> H 	 -48.5274 	 -47.3156 	 -71.017
| 39> H 	 -40.559 	 -45.399 	 -72.9359
| 40> H 	 -43.4172 	 -50.3506 	 -67.0727
| 41> *
| 42>
| 43>                          ****END OF INPUT****

CARTESIAN COORDINATES (ANGSTROEM)
---------------------------------
  S    -41.222000  -47.287000  -71.444600
  C    -41.406800  -45.850400  -72.450900
  C    -42.643700  -45.278100  -72.253500
  C    -43.423100  -46.025100  -71.318100
  C    -42.876700  -47.125700  -70.798900
  H    -44.413200  -45.733800  -70.917200
  C    -43.277200  -44.077200  -72.885900
  H    -42.782400  -43.192800  -72.457600
  H    -44.318000  -43.993000  -72.518000
  C    -43.214900  -44.044700  -74.423100
  H    -43.622400  -43.121300  -74.728000
  H    -42.165900  -44.158900  -74.721600
  C    -44.121700  -44.957500  -75.180200
  H    -43.635500  -45.233200  -76.152500
  H    -44.252400  -45.945300  -74.760400
  H    -45.170200  -44.591600  -75.234000
  S    -42.319500  -48.773400  -68.669600
  C    -43.592300  -49.764100  -67.993000
  C    -44.776200  -49.543600  -68.669900
  C    -44.727400  -48.604100  -69.759500
  C    -43.446100  -48.027400  -69.795800
  H    -45.553200  -50.090000  -68.199000
  C    -46.059800  -48.183000  -70.450200
  H    -46.601000  -49.144100  -70.427800
  H    -45.878000  -47.894500  -71.508000
  C    -46.746100  -47.009200  -69.795600
  H    -45.953400  -46.238100  -69.452200
  H    -47.092800  -47.551200  -68.857900
  C    -47.956500  -46.509600  -70.566700
  H    -47.523400  -45.913800  -71.393300
  H    -48.547300  -45.817300  -70.050800
  H    -48.527400  -47.315600  -71.017000
  H    -40.559000  -45.399000  -72.935900
  H    -43.417200  -50.350600  -67.072700

 Total Charge           Charge          ....    0
 Multiplicity           Mult            ....    1
 Number of Electrons    NEL             ....  134
 Basis Dimension        Dim             ....  322

ORBITAL ENERGIES
----------------

  NO   OCC          E(Eh)            E(eV)
   0   2.0000     -88.966145     -2420.8919
   1   2.0000     -88.961228     -2420.7581
   2   2.0000     -10.332635      -281.1653
   3   2.0000     -10.325257      -280.9645
   4   2.0000     -10.319661      -280.8122
   5   2.0000     -10.313553      -280.6460
   6   2.0000     -10.313059      -280.6326
   7   2.0000     -10.300279      -280.2848
   8   2.0000     -10.299061      -280.2517
   9   2.0000     -10.298542      -280.2376
  10   2.0000     -10.294490      -280.1273
  11   2.0000     -10.292500      -280.0732
  12   2.0000     -10.286672      -279.9146
  13   2.0000     -10.281482      -279.7733
  14   2.0000     -10.281001      -279.7602
  15   2.0000     -10.275760      -279.6176
  16   2.0000      -8.080897      -219.8924
  17   2.0000      -8.075472      -219.7448
  18   2.0000      -6.039294      -164.3375
  19   2.0000      -6.035369      -164.2307
  20   2.0000      -6.034145      -164.1974
  21   2.0000      -6.031816      -164.1341
  22   2.0000      -6.030111      -164.0877
  23   2.0000      -6.026022      -163.9764
  24   2.0000      -1.005375       -27.3577
  25   2.0000      -0.983116       -26.7520
  26   2.0000      -0.914987       -24.8981
  27   2.0000      -0.913393       -24.8547
  28   2.0000      -0.870406       -23.6849
  29   2.0000      -0.854312       -23.2470
  30   2.0000      -0.846335       -23.0299
  31   2.0000      -0.816857       -22.2278
  32   2.0000      -0.785726       -21.3807
  33   2.0000      -0.774069       -21.0635
  34   2.0000      -0.707499       -19.2520
  35   2.0000      -0.699921       -19.0458
  36   2.0000      -0.687793       -18.7158
  37   2.0000      -0.663079       -18.0433
  38   2.0000      -0.639252       -17.3949
  39   2.0000      -0.613832       -16.7032
  40   2.0000      -0.594942       -16.1892
  41   2.0000      -0.580417       -15.7940
  42   2.0000      -0.568169       -15.4607
  43   2.0000      -0.546067       -14.8592
  44   2.0000      -0.543763       -14.7965
  45   2.0000      -0.530392       -14.4327
  46   2.0000      -0.517983       -14.0950
  47   2.0000      -0.513682       -13.9780
  48   2.0000      -0.510451       -13.8901
  49   2.0000      -0.500898       -13.6301
  50   2.0000      -0.489582       -13.3222
  51   2.0000      -0.479004       -13.0344
  52   2.0000      -0.472823       -12.8662
  53   2.0000      -0.464887       -12.6502
  54   2.0000      -0.457859       -12.4590
  55   2.0000      -0.449729       -12.2377
  56   2.0000      -0.444705       -12.1010
  57   2.0000      -0.435334       -11.8460
  58   2.0000      -0.433948       -11.8083
  59   2.0000      -0.425602       -11.5812
  60   2.0000      -0.415218       -11.2986
  61   2.0000      -0.407313       -11.0836
  62   2.0000      -0.404064       -10.9951
  63   2.0000      -0.354734        -9.6528
  64   2.0000      -0.334323        -9.0974
  65   2.0000      -0.327119        -8.9014
  66   2.0000      -0.290560        -7.9065
  67   0.0000       0.025149         0.6843
  68   0.0000       0.074814         2.0358
  69   0.0000       0.105114         2.8603
  70   0.0000       0.120060         3.2670
  71   0.0000       0.126822         3.4510

MULLIKEN ATOMIC CHARGES
-----------------------
   0 S :    0.085744
   1 C :   -0.141555
   2 C :   -0.059849
   3 C :   -0.027141
   4 C :   -0.080657
   5 H :   -0.003044
   6 C :    0.067946
   7 H :    0.037882
   8 H :    0.014839
   9 C :   -0.040003
  10 H :    0.018127
  11 H :    0.032670
  12 C :   -0.064755
  13 H :    0.039794
  14 H :    0.020457
  15 H :    0.035033
  16 S :    0.096969
  17 C :   -0.122978
  18 C :   -0.027599
  19 C :   -0.021070
  20 C :   -0.168450
  21 H :    0.009835
  22 C :    0.033475
  23 H :    0.042016
  24 H :    0.027535
  25 C :   -0.126102
  26 H :    0.063725
  27 H :    0.026305
  28 C :    0.012738
  29 H :    0.022030
  30 H :    0.030271
  31 H :    0.038213
  32 H :    0.052572
  33 H :    0.075026
Sum of atomic charges:   -0.0000000

LOEWDIN ATOMIC CHARGES
----------------------
   0 S :    0.374672
   1 C :   -0.191939
   2 C :   -0.063126
   3 C :   -0.076901
   4 C :   -0.176754
   5 H :    0.031647
   6 C :   -0.032633
   7 H :    0.036868
   8 H :    0.029321
   9 C :   -0.041111
  10 H :    0.023225
  11 H :    0.026104
  12 C :   -0.073876
  13 H :    0.037519
  14 H :    0.020224
  15 H :    0.028851
  16 S :    0.400933
  17 C :   -0.189285
  18 C :   -0.073604
  19 C :   -0.049349
  20 C :   -0.189086
  21 H :    0.027792
  22 C :   -0.034357
  23 H :    0.035344
  24 H :    0.026408
  25 C :   -0.056254
  26 H :    0.035771
  27 H :    0.028430
  28 C :   -0.059649
  29 H :    0.029224
  30 H :    0.020935
  31 H :    0.030890
  32 H :    0.026876
  33 H :    0.036889

  Mayer bond orders larger than 0.100000
B(  0-S ,  1-C ) :   1.1271 B(  0-S ,  4-C ) :   1.1181 B(  1-C ,  2-C ) :   1.6159
B(  1-C , 32-H ) :   0.9701 B(  2-C ,  3-C ) :   1.2269 B(  2-C ,  6-C ) :   1.0143
B(  3-C ,  4-C ) :   1.6271 B(  3-C ,  5-H ) :   0.9878 B(  4-C , 20-C ) :   1.0492
B(  6-C ,  7-H ) :   0.9274 B(  6-C ,  8-H ) :   0.9448 B(  6-C ,  9-C ) :   1.0823
B(  9-C , 10-H ) :   0.9532 B(  9-C , 11-H ) :   0.9594 B(  9-C , 12-C ) :   1.0735
B( 12-C , 13-H ) :   0.9700 B( 12-C , 14-H ) :   0.9757 B( 12-C , 15-H ) :   0.9758
B( 16-S , 17-C ) :   1.1490 B( 16-S , 20-C ) :   1.1515 B( 17-C , 18-C ) :   1.6224
B( 17-C , 33-H ) :   0.9640 B( 18-C , 19-C ) :   1.2145 B( 18-C , 21-H ) :   0.9934
B( 19-C , 20-C ) :   1.5704 B( 19-C , 22-C ) :   1.0395 B( 22-C , 23-H ) :   0.9371
B( 22-C , 24-H ) :   0.9331 B( 22-C , 25-C ) :   1.0472 B( 25-C , 26-H ) :   0.9510
B( 25-C , 27-H ) :   0.9489 B( 25-C , 28-C ) :   1.0737 B( 28-C , 29-H ) :   0.9692
B( 28-C , 30-H ) :   0.9728 B( 28-C , 31-H ) :   0.9700

Dispersion correction           -0.014439079
FINAL SINGLE POINT ENERGY     -1339.868946910947

DIPOLE MOMENT
-------------
                                X             Y             Z
Electronic contribution:     22.90234     -14.21709      14.76351
Nuclear contribution   :    -23.58303      14.53817     -14.76546
                        -----------------------------------------
Total Dipole Moment    :     -0.68069       0.32107      -0.00196
                        -----------------------------------------
Magnitude (a.u.)       :      0.75261
Magnitude (Debye)      :      1.91299

Rotational constants in cm-1:     0.017772     0.009660     0.006671
Rotational constants in MHz :   532.778601   289.603162   199.999815

                             ****ORCA TERMINATED NORMALLY****
TOTAL RUN TIME: 0 days 0 hours 0 minutes 20 seconds 898 msec
