                         Program Version 4.2.1 -  RELEASE  -
|  1> ! wB97X-D3 SP def2-SVP
|  2> %pal
|  3> nprocs 24
|  4> end
|  5>
|  6> * xyz 0 1
|  7> S 	 -46.8879 	 8.88471 	 -17.3386
|  8> C 	 -46.767 	 7.51341 	 -16.2241
|  9> C 	 -47.3186 	 7.82379 	 -14.9936
| 10> C 	 -47.3176 	 9.23841 	 -14.8283
| 11> C 	 -47.0878 	 9.98978 	 -15.9933
| 12> H 	 -47.4147 	 9.73304 	 -13.8589
| 13> C 	 -47.504 	 6.84529 	 -13.8324
| 14> H 	 -48.5396 	 6.59148 	 -13.6891
| 15> H 	 -47.4318 	 7.45727 	 -12.9269
| 16> C 	 -46.4898 	 5.70212 	 -13.6435
| 17> H 	 -46.713 	 4.86472 	 -14.3011
| 18> H 	 -45.5005 	 5.97102 	 -14.047
| 19> C 	 -46.4201 	 5.26934 	 -12.183
| 20> H 	 -45.7348 	 4.45146 	 -12.0111
| 21> H 	 -46.0995 	 6.04296 	 -11.519
| 22> H 	 -47.3911 	 4.93948 	 -11.8234
| 23> S 	 -46.7444 	 12.0443 	 -17.8044
| 24> C 	 -47.2548 	 13.6316 	 -17.4704
| 25> C 	 -47.9285 	 13.6143 	 -16.2651
| 26> C 	 -47.8751 	 12.3807 	 -15.5774
| 27> C 	 -47.2327 	 11.3839 	 -16.2516
| 28> H 	 -48.3444 	 14.521 	 -15.8881
| 29> C 	 -48.6136 	 12.3236 	 -14.2657
| 30> H 	 -49.2386 	 11.4111 	 -14.1707
| 31> H 	 -49.4301 	 13.0509 	 -14.1487
| 32> C 	 -47.6887 	 12.3656 	 -13.0264
| 33> H 	 -47.1756 	 13.3579 	 -12.9209
| 34> H 	 -46.8631 	 11.7752 	 -13.0797
| 35> C 	 -48.4458 	 12.0633 	 -11.6827
| 36> H 	 -47.7808 	 11.93 	 -10.8377
| 37> H 	 -49.0806 	 11.1381 	 -11.7232
| 38> H 	 -49.0736 	 12.9383 	 -11.4389
| 39> H 	 -46.4379 	 6.52714 	 -16.5091
| 40> H 	 -47.2549 	 14.4741 	 -18.129
| 41> *
| 42>
| 43>                          ****END OF INPUT****

CARTESIAN COORDINATES (ANGSTROEM)
---------------------------------
  S    -46.887900    8.884710  -17.338600
  C    -46.767000    7.513410  -16.224100
  C    -47.318600    7.823790  -14.993600
  C    -47.317600    9.238410  -14.828300
  C    -47.087800    9.989780  -15.993300
  H    -47.414700    9.733040  -13.858900
  C    -47.504000    6.845290  -13.832400
  H    -48.539600    6.591480  -13.689100
  H    -47.431800    7.457270  -12.926900
  C    -46.489800    5.702120  -13.643500
  H    -46.713000    4.864720  -14.301100
  H    -45.500500    5.971020  -14.047000
  C    -46.420100    5.269340  -12.183000
  H    -45.734800    4.451460  -12.011100
  H    -46.099500    6.042960  -11.519000
  H    -47.391100    4.939480  -11.823400
  S    -46.744400   12.044300  -17.804400
  C    -47.254800   13.631600  -17.470400
  C    -47.928500   13.614300  -16.265100
  C    -47.875100   12.380700  -15.577400
  C    -47.232700   11.383900  -16.251600
  H    -48.344400   14.521000  -15.888100
  C    -48.613600   12.323600  -14.265700
  H    -49.238600   11.411100  -14.170700
  H    -49.430100   13.050900  -14.148700
  C    -47.688700   12.365600  -13.026400
  H    -47.175600   13.357900  -12.920900
  H    -46.863100   11.775200  -13.079700
  C    -48.445800   12.063300  -11.682700
  H    -47.780800   11.930000  -10.837700
  H    -49.080600   11.138100  -11.723200
  H    -49.073600   12.938300  -11.438900
  H    -46.437900    6.527140  -16.509100
  H    -47.254900   14.474100  -18.129000

 Total Charge           Charge          ....    0
 Multiplicity           Mult            ....    1
 Number of Electrons    NEL             ....  134
 Basis Dimension        Dim             ....  322

ORBITAL ENERGIES
----------------

  NO   OCC          E(Eh)            E(eV)
   0   2.0000     -88.964107     -2420.8364
   1   2.0000     -88.963956     -2420.8323
   2   2.0000     -10.330603      -281.1100
   3   2.0000     -10.326307      -280.9931
   4   2.0000     -10.314244      -280.6649
   5   2.0000     -10.314203      -280.6637
   6   2.0000     -10.304415      -280.3974
   7   2.0000     -10.299527      -280.2644
   8   2.0000     -10.297047      -280.1969
   9   2.0000     -10.294845      -280.1370
  10   2.0000     -10.294177      -280.1188
  11   2.0000     -10.291788      -280.0538
  12   2.0000     -10.287621      -279.9404
  13   2.0000     -10.285526      -279.8834
  14   2.0000     -10.285195      -279.8744
  15   2.0000     -10.278049      -279.6799
  16   2.0000      -8.079604      -219.8572
  17   2.0000      -8.078591      -219.8296
  18   2.0000      -6.038171      -164.3070
  19   2.0000      -6.037221      -164.2811
  20   2.0000      -6.033817      -164.1885
  21   2.0000      -6.033323      -164.1751
  22   2.0000      -6.030407      -164.0957
  23   2.0000      -6.029056      -164.0589
  24   2.0000      -1.014359       -27.6021
  25   2.0000      -0.987096       -26.8602
  26   2.0000      -0.913459       -24.8565
  27   2.0000      -0.907850       -24.7038
  28   2.0000      -0.875154       -23.8141
  29   2.0000      -0.853106       -23.2142
  30   2.0000      -0.844122       -22.9697
  31   2.0000      -0.812436       -22.1075
  32   2.0000      -0.783026       -21.3072
  33   2.0000      -0.774838       -21.0844
  34   2.0000      -0.718141       -19.5416
  35   2.0000      -0.710041       -19.3212
  36   2.0000      -0.699872       -19.0445
  37   2.0000      -0.670264       -18.2388
  38   2.0000      -0.636794       -17.3280
  39   2.0000      -0.618414       -16.8279
  40   2.0000      -0.603482       -16.4216
  41   2.0000      -0.571680       -15.5562
  42   2.0000      -0.561310       -15.2740
  43   2.0000      -0.555159       -15.1066
  44   2.0000      -0.529843       -14.4178
  45   2.0000      -0.525105       -14.2888
  46   2.0000      -0.520635       -14.1672
  47   2.0000      -0.516703       -14.0602
  48   2.0000      -0.507901       -13.8207
  49   2.0000      -0.499620       -13.5953
  50   2.0000      -0.494062       -13.4441
  51   2.0000      -0.480305       -13.0698
  52   2.0000      -0.474427       -12.9098
  53   2.0000      -0.470420       -12.8008
  54   2.0000      -0.457110       -12.4386
  55   2.0000      -0.449756       -12.2385
  56   2.0000      -0.445962       -12.1352
  57   2.0000      -0.441495       -12.0137
  58   2.0000      -0.438250       -11.9254
  59   2.0000      -0.428020       -11.6470
  60   2.0000      -0.417609       -11.3637
  61   2.0000      -0.414988       -11.2924
  62   2.0000      -0.409154       -11.1337
  63   2.0000      -0.361431        -9.8350
  64   2.0000      -0.332171        -9.0388
  65   2.0000      -0.327302        -8.9063
  66   2.0000      -0.279958        -7.6180
  67   0.0000       0.015449         0.4204
  68   0.0000       0.087226         2.3735
  69   0.0000       0.093712         2.5500
  70   0.0000       0.125178         3.4063
  71   0.0000       0.133430         3.6308

MULLIKEN ATOMIC CHARGES
-----------------------
   0 S :    0.092069
   1 C :   -0.123084
   2 C :   -0.061732
   3 C :   -0.025442
   4 C :   -0.097272
   5 H :    0.010824
   6 C :    0.071097
   7 H :    0.031472
   8 H :    0.001910
   9 C :   -0.064751
  10 H :    0.029059
  11 H :    0.031200
  12 C :   -0.042189
  13 H :    0.029366
  14 H :    0.030746
  15 H :    0.027274
  16 S :    0.096892
  17 C :   -0.065432
  18 C :   -0.038550
  19 C :   -0.029967
  20 C :   -0.105170
  21 H :    0.006836
  22 C :    0.041126
  23 H :    0.021284
  24 H :    0.020308
  25 C :   -0.057020
  26 H :    0.024074
  27 H :    0.007943
  28 C :   -0.071855
  29 H :    0.033520
  30 H :    0.037240
  31 H :    0.038312
  32 H :    0.045935
  33 H :    0.053979
Sum of atomic charges:   -0.0000000

LOEWDIN ATOMIC CHARGES
----------------------
   0 S :    0.389438
   1 C :   -0.183267
   2 C :   -0.057198
   3 C :   -0.067925
   4 C :   -0.182825
   5 H :    0.030403
   6 C :   -0.035832
   7 H :    0.034267
   8 H :    0.030361
   9 C :   -0.041975
  10 H :    0.023046
  11 H :    0.027400
  12 C :   -0.060297
  13 H :    0.026803
  14 H :    0.022812
  15 H :    0.025247
  16 S :    0.422165
  17 C :   -0.193342
  18 C :   -0.069814
  19 C :   -0.057717
  20 C :   -0.196558
  21 H :    0.025792
  22 C :   -0.033804
  23 H :    0.030606
  24 H :    0.032011
  25 C :   -0.038706
  26 H :    0.031147
  27 H :    0.005123
  28 C :   -0.070559
  29 H :    0.024499
  30 H :    0.026570
  31 H :    0.027534
  32 H :    0.023317
  33 H :    0.031274

  Mayer bond orders larger than 0.100000
B(  0-S ,  1-C ) :   1.1330 B(  0-S ,  4-C ) :   1.1320 B(  1-C ,  2-C ) :   1.6022
B(  1-C ,  4-C ) :   0.1028 B(  1-C , 32-H ) :   0.9719 B(  2-C ,  3-C ) :   1.2474
B(  2-C ,  6-C ) :   1.0236 B(  3-C ,  4-C ) :   1.5598 B(  3-C ,  5-H ) :   0.9849
B(  4-C , 20-C ) :   1.1235 B(  6-C ,  7-H ) :   0.9202 B(  6-C ,  8-H ) :   0.9469
B(  6-C ,  9-C ) :   1.0524 B(  9-C , 10-H ) :   0.9500 B(  9-C , 11-H ) :   0.9587
B(  9-C , 12-C ) :   1.0887 B( 12-C , 13-H ) :   0.9724 B( 12-C , 14-H ) :   0.9748
B( 12-C , 15-H ) :   0.9757 B( 16-S , 17-C ) :   1.1730 B( 16-S , 20-C ) :   1.1292
B( 17-C , 18-C ) :   1.5675 B( 17-C , 33-H ) :   0.9713 B( 18-C , 19-C ) :   1.2836
B( 18-C , 21-H ) :   0.9960 B( 19-C , 20-C ) :   1.5524 B( 19-C , 22-C ) :   1.0415
B( 22-C , 23-H ) :   0.9337 B( 22-C , 24-H ) :   0.9411 B( 22-C , 25-C ) :   1.0477
B( 25-C , 26-H ) :   0.9464 B( 25-C , 27-H ) :   0.9615 B( 25-C , 28-C ) :   1.0738
B( 28-C , 29-H ) :   0.9757 B( 28-C , 30-H ) :   0.9758 B( 28-C , 31-H ) :   0.9780

Dispersion correction           -0.013888545
FINAL SINGLE POINT ENERGY     -1339.870954707897

DIPOLE MOMENT
-------------
                                X             Y             Z
Electronic contribution:      4.04071       9.79779     -30.96177
Nuclear contribution   :     -4.27796      -9.82711      31.67497
                        -----------------------------------------
Total Dipole Moment    :     -0.23724      -0.02932       0.71320
                        -----------------------------------------
Magnitude (a.u.)       :      0.75219
Magnitude (Debye)      :      1.91192

Rotational constants in cm-1:     0.019241     0.008543     0.006093
Rotational constants in MHz :   576.832333   256.114785   182.657742

                             ****ORCA TERMINATED NORMALLY****
TOTAL RUN TIME: 0 days 0 hours 0 minutes 20 seconds 551 msec
