                         Program Version 4.2.1 -  RELEASE  -
|  1> ! wB97X-D3 SP def2-SVP
|  2> %pal
|  3> nprocs 24
|  4> end
|  5>
|  6> * xyz 0 1
|  7> S 	 -82.6271 	 -37.3673 	 -74.0863
|  8> C 	 -83.0074 	 -37.0939 	 -75.7248
|  9> C 	 -82.9924 	 -38.2626 	 -76.4644
| 10> C 	 -82.7801 	 -39.3842 	 -75.6284
| 11> C 	 -82.6835 	 -39.0945 	 -74.2899
| 12> H 	 -82.6456 	 -40.4194 	 -76.0031
| 13> C 	 -83.2298 	 -38.3744 	 -77.9789
| 14> H 	 -82.3681 	 -38.7156 	 -78.466
| 15> H 	 -83.4476 	 -37.4699 	 -78.5467
| 16> C 	 -84.3831 	 -39.4238 	 -78.1432
| 17> H 	 -84.4847 	 -39.3346 	 -79.2174
| 18> H 	 -83.9728 	 -40.45 	 -77.9685
| 19> C 	 -85.7275 	 -39.2159 	 -77.5258
| 20> H 	 -85.9453 	 -38.1507 	 -77.6747
| 21> H 	 -86.4772 	 -39.84 	 -78.0536
| 22> H 	 -85.7893 	 -39.4577 	 -76.4144
| 23> S 	 -81.2053 	 -39.3568 	 -72.0049
| 24> C 	 -81.319 	 -40.8354 	 -71.0714
| 25> C 	 -82.0506 	 -41.783 	 -71.7571
| 26> C 	 -82.6116 	 -41.3026 	 -72.9962
| 27> C 	 -82.343 	 -39.9923 	 -73.1862
| 28> H 	 -82.1831 	 -42.7583 	 -71.3058
| 29> C 	 -83.4079 	 -42.3683 	 -73.718
| 30> H 	 -84.0624 	 -41.8259 	 -74.473
| 31> H 	 -84.0473 	 -42.8335 	 -72.9923
| 32> C 	 -82.7778 	 -43.5754 	 -74.3816
| 33> H 	 -83.4879 	 -44.2688 	 -74.7959
| 34> H 	 -82.1382 	 -44.1294 	 -73.697
| 35> C 	 -81.8247 	 -43.1181 	 -75.519
| 36> H 	 -80.9001 	 -42.5985 	 -75.2297
| 37> H 	 -82.231 	 -42.5162 	 -76.3008
| 38> H 	 -81.6697 	 -43.9796 	 -76.1244
| 39> H 	 -83.1626 	 -36.1027 	 -76.1652
| 40> H 	 -80.7673 	 -41.0863 	 -70.1656
| 41> *
| 42>
| 43>                          ****END OF INPUT****

CARTESIAN COORDINATES (ANGSTROEM)
---------------------------------
  S    -82.627100  -37.367300  -74.086300
  C    -83.007400  -37.093900  -75.724800
  C    -82.992400  -38.262600  -76.464400
  C    -82.780100  -39.384200  -75.628400
  C    -82.683500  -39.094500  -74.289900
  H    -82.645600  -40.419400  -76.003100
  C    -83.229800  -38.374400  -77.978900
  H    -82.368100  -38.715600  -78.466000
  H    -83.447600  -37.469900  -78.546700
  C    -84.383100  -39.423800  -78.143200
  H    -84.484700  -39.334600  -79.217400
  H    -83.972800  -40.450000  -77.968500
  C    -85.727500  -39.215900  -77.525800
  H    -85.945300  -38.150700  -77.674700
  H    -86.477200  -39.840000  -78.053600
  H    -85.789300  -39.457700  -76.414400
  S    -81.205300  -39.356800  -72.004900
  C    -81.319000  -40.835400  -71.071400
  C    -82.050600  -41.783000  -71.757100
  C    -82.611600  -41.302600  -72.996200
  C    -82.343000  -39.992300  -73.186200
  H    -82.183100  -42.758300  -71.305800
  C    -83.407900  -42.368300  -73.718000
  H    -84.062400  -41.825900  -74.473000
  H    -84.047300  -42.833500  -72.992300
  C    -82.777800  -43.575400  -74.381600
  H    -83.487900  -44.268800  -74.795900
  H    -82.138200  -44.129400  -73.697000
  C    -81.824700  -43.118100  -75.519000
  H    -80.900100  -42.598500  -75.229700
  H    -82.231000  -42.516200  -76.300800
  H    -81.669700  -43.979600  -76.124400
  H    -83.162600  -36.102700  -76.165200
  H    -80.767300  -41.086300  -70.165600

 Total Charge           Charge          ....    0
 Multiplicity           Mult            ....    1
 Number of Electrons    NEL             ....  134
 Basis Dimension        Dim             ....  322

ORBITAL ENERGIES
----------------

  NO   OCC          E(Eh)            E(eV)
   0   2.0000     -88.964465     -2420.8462
   1   2.0000     -88.963343     -2420.8156
   2   2.0000     -10.327405      -281.0230
   3   2.0000     -10.325740      -280.9777
   4   2.0000     -10.315847      -280.7085
   5   2.0000     -10.309127      -280.5256
   6   2.0000     -10.301069      -280.3063
   7   2.0000     -10.298289      -280.2307
   8   2.0000     -10.293305      -280.0951
   9   2.0000     -10.292762      -280.0803
  10   2.0000     -10.291651      -280.0501
  11   2.0000     -10.291223      -280.0384
  12   2.0000     -10.290960      -280.0313
  13   2.0000     -10.285989      -279.8960
  14   2.0000     -10.281738      -279.7803
  15   2.0000     -10.271995      -279.5152
  16   2.0000      -8.079237      -219.8472
  17   2.0000      -8.079120      -219.8440
  18   2.0000      -6.037912      -164.2999
  19   2.0000      -6.037505      -164.2889
  20   2.0000      -6.033891      -164.1905
  21   2.0000      -6.033562      -164.1816
  22   2.0000      -6.029879      -164.0813
  23   2.0000      -6.029655      -164.0752
  24   2.0000      -1.012023       -27.5386
  25   2.0000      -0.988180       -26.8897
  26   2.0000      -0.914070       -24.8731
  27   2.0000      -0.910730       -24.7822
  28   2.0000      -0.869163       -23.6511
  29   2.0000      -0.853154       -23.2155
  30   2.0000      -0.843768       -22.9601
  31   2.0000      -0.814354       -22.1597
  32   2.0000      -0.786670       -21.4064
  33   2.0000      -0.780234       -21.2312
  34   2.0000      -0.712130       -19.3780
  35   2.0000      -0.694436       -18.8966
  36   2.0000      -0.686310       -18.6754
  37   2.0000      -0.662377       -18.0242
  38   2.0000      -0.638679       -17.3793
  39   2.0000      -0.626035       -17.0353
  40   2.0000      -0.594883       -16.1876
  41   2.0000      -0.566399       -15.4125
  42   2.0000      -0.558611       -15.2006
  43   2.0000      -0.555367       -15.1123
  44   2.0000      -0.544291       -14.8109
  45   2.0000      -0.533802       -14.5255
  46   2.0000      -0.515046       -14.0151
  47   2.0000      -0.509775       -13.8717
  48   2.0000      -0.502460       -13.6726
  49   2.0000      -0.499089       -13.5809
  50   2.0000      -0.496073       -13.4988
  51   2.0000      -0.480426       -13.0731
  52   2.0000      -0.472491       -12.8571
  53   2.0000      -0.462574       -12.5873
  54   2.0000      -0.461021       -12.5450
  55   2.0000      -0.454655       -12.3718
  56   2.0000      -0.450657       -12.2630
  57   2.0000      -0.444020       -12.0824
  58   2.0000      -0.424632       -11.5548
  59   2.0000      -0.420194       -11.4341
  60   2.0000      -0.416506       -11.3337
  61   2.0000      -0.414193       -11.2708
  62   2.0000      -0.400776       -10.9057
  63   2.0000      -0.358125        -9.7451
  64   2.0000      -0.329761        -8.9733
  65   2.0000      -0.326361        -8.8807
  66   2.0000      -0.286903        -7.8070
  67   0.0000       0.029364         0.7990
  68   0.0000       0.080771         2.1979
  69   0.0000       0.102041         2.7767
  70   0.0000       0.124503         3.3879
  71   0.0000       0.127669         3.4741

MULLIKEN ATOMIC CHARGES
-----------------------
   0 S :    0.104649
   1 C :   -0.126703
   2 C :   -0.087364
   3 C :    0.011789
   4 C :   -0.130359
   5 H :   -0.011557
   6 C :    0.120405
   7 H :    0.019153
   8 H :    0.015340
   9 C :   -0.136681
  10 H :    0.018949
  11 H :    0.032728
  12 C :   -0.033500
  13 H :    0.026945
  14 H :    0.042638
  15 H :    0.054382
  16 S :    0.094775
  17 C :   -0.084939
  18 C :   -0.055346
  19 C :   -0.028548
  20 C :   -0.121282
  21 H :    0.019999
  22 C :    0.041106
  23 H :    0.030674
  24 H :    0.024202
  25 C :   -0.028054
  26 H :    0.032890
  27 H :    0.026096
  28 C :   -0.063025
  29 H :    0.055860
  30 H :    0.014635
  31 H :    0.011629
  32 H :    0.049484
  33 H :    0.059031
Sum of atomic charges:    0.0000000

LOEWDIN ATOMIC CHARGES
----------------------
   0 S :    0.422473
   1 C :   -0.214117
   2 C :   -0.064521
   3 C :   -0.066998
   4 C :   -0.195022
   5 H :    0.031935
   6 C :   -0.022555
   7 H :    0.027339
   8 H :    0.028282
   9 C :   -0.050526
  10 H :    0.021908
  11 H :    0.021366
  12 C :   -0.070068
  13 H :    0.027934
  14 H :    0.032579
  15 H :    0.034682
  16 S :    0.391139
  17 C :   -0.185809
  18 C :   -0.067085
  19 C :   -0.063468
  20 C :   -0.184533
  21 H :    0.030188
  22 C :   -0.036388
  23 H :    0.033482
  24 H :    0.030084
  25 C :   -0.029105
  26 H :    0.028478
  27 H :    0.024747
  28 C :   -0.073731
  29 H :    0.032945
  30 H :    0.015818
  31 H :    0.023882
  32 H :    0.031380
  33 H :    0.033285

  Mayer bond orders larger than 0.100000
B(  0-S ,  1-C ) :   1.1514 B(  0-S ,  4-C ) :   1.1582 B(  1-C ,  2-C ) :   1.5930
B(  1-C , 32-H ) :   0.9677 B(  2-C ,  3-C ) :   1.2644 B(  2-C ,  6-C ) :   1.0220
B(  3-C ,  4-C ) :   1.5533 B(  3-C ,  5-H ) :   0.9850 B(  4-C , 20-C ) :   1.0454
B(  6-C ,  7-H ) :   0.9303 B(  6-C ,  8-H ) :   0.9469 B(  6-C ,  9-C ) :   1.0736
B(  9-C , 10-H ) :   0.9548 B(  9-C , 11-H ) :   0.9517 B(  9-C , 12-C ) :   1.0777
B( 12-C , 13-H ) :   0.9712 B( 12-C , 14-H ) :   0.9715 B( 12-C , 15-H ) :   0.9690
B( 16-S , 17-C ) :   1.1286 B( 16-S , 20-C ) :   1.1229 B( 17-C , 18-C ) :   1.6496
B( 17-C , 33-H ) :   0.9655 B( 18-C , 19-C ) :   1.1933 B( 18-C , 21-H ) :   0.9899
B( 19-C , 20-C ) :   1.6559 B( 19-C , 22-C ) :   1.0378 B( 22-C , 23-H ) :   0.9354
B( 22-C , 24-H ) :   0.9312 B( 22-C , 25-C ) :   1.0914 B( 25-C , 26-H ) :   0.9537
B( 25-C , 27-H ) :   0.9474 B( 25-C , 28-C ) :   1.0773 B( 28-C , 29-H ) :   0.9764
B( 28-C , 30-H ) :   0.9638 B( 28-C , 31-H ) :   0.9634

Dispersion correction           -0.015493187
FINAL SINGLE POINT ENERGY     -1339.871861394943

DIPOLE MOMENT
-------------
                                X             Y             Z
Electronic contribution:     10.36662      17.34373      21.12478
Nuclear contribution   :    -10.45979     -17.93819     -21.67146
                        -----------------------------------------
Total Dipole Moment    :     -0.09317      -0.59446      -0.54668
                        -----------------------------------------
Magnitude (a.u.)       :      0.81298
Magnitude (Debye)      :      2.06642

Rotational constants in cm-1:     0.018505     0.010530     0.007383
Rotational constants in MHz :   554.777543   315.686497   221.334696

                             ****ORCA TERMINATED NORMALLY****
TOTAL RUN TIME: 0 days 0 hours 0 minutes 23 seconds 16 msec
