                         Program Version 4.2.1 -  RELEASE  -
|  1> ! wB97X-D3 SP def2-SVP
|  2> %pal
|  3> nprocs 24
|  4> end
|  5>
|  6> * xyz 0 1
|  7> S 	 -112.132 	 55.4633 	 -100.856
|  8> C 	 -113.846 	 55.2513 	 -101.216
|  9> C 	 -114.557 	 56.3103 	 -100.777
| 10> C 	 -113.666 	 57.3489 	 -100.301
| 11> C 	 -112.356 	 57.0736 	 -100.433
| 12> H 	 -114.091 	 58.2426 	 -99.886
| 13> C 	 -116.033 	 56.1562 	 -100.415
| 14> H 	 -116.146 	 56.5172 	 -99.3749
| 15> H 	 -116.236 	 55.0338 	 -100.324
| 16> C 	 -116.972 	 56.9155 	 -101.276
| 17> H 	 -116.829 	 56.6168 	 -102.334
| 18> H 	 -118.031 	 56.5703 	 -101.071
| 19> C 	 -116.846 	 58.4236 	 -101.241
| 20> H 	 -115.867 	 58.793 	 -101.576
| 21> H 	 -117.583 	 58.8883 	 -101.952
| 22> H 	 -116.959 	 58.7916 	 -100.244
| 23> S 	 -110.012 	 57.227 	 -99.0082
| 24> C 	 -109.249 	 58.7712 	 -98.8529
| 25> C 	 -109.842 	 59.7548 	 -99.6039
| 26> C 	 -110.994 	 59.2521 	 -100.348
| 27> C 	 -111.237 	 57.932 	 -100.054
| 28> H 	 -109.494 	 60.7961 	 -99.7134
| 29> C 	 -111.866 	 60.2025 	 -101.164
| 30> H 	 -112.512 	 60.8301 	 -100.473
| 31> H 	 -112.468 	 59.6988 	 -101.969
| 32> C 	 -111.065 	 61.325 	 -101.817
| 33> H 	 -110.113 	 60.9697 	 -102.215
| 34> H 	 -110.719 	 61.9776 	 -101.017
| 35> C 	 -111.7 	 62.2616 	 -102.908
| 36> H 	 -111.625 	 61.8479 	 -103.919
| 37> H 	 -111.047 	 63.1252 	 -102.742
| 38> H 	 -112.742 	 62.5918 	 -102.722
| 39> H 	 -114.155 	 54.2265 	 -101.435
| 40> H 	 -108.331 	 58.9064 	 -98.2586
| 41> *
| 42>
| 43>                          ****END OF INPUT****

CARTESIAN COORDINATES (ANGSTROEM)
---------------------------------
  S    -112.132000   55.463300  -100.856000
  C    -113.846000   55.251300  -101.216000
  C    -114.557000   56.310300  -100.777000
  C    -113.666000   57.348900  -100.301000
  C    -112.356000   57.073600  -100.433000
  H    -114.091000   58.242600  -99.886000
  C    -116.033000   56.156200  -100.415000
  H    -116.146000   56.517200  -99.374900
  H    -116.236000   55.033800  -100.324000
  C    -116.972000   56.915500  -101.276000
  H    -116.829000   56.616800  -102.334000
  H    -118.031000   56.570300  -101.071000
  C    -116.846000   58.423600  -101.241000
  H    -115.867000   58.793000  -101.576000
  H    -117.583000   58.888300  -101.952000
  H    -116.959000   58.791600  -100.244000
  S    -110.012000   57.227000  -99.008200
  C    -109.249000   58.771200  -98.852900
  C    -109.842000   59.754800  -99.603900
  C    -110.994000   59.252100  -100.348000
  C    -111.237000   57.932000  -100.054000
  H    -109.494000   60.796100  -99.713400
  C    -111.866000   60.202500  -101.164000
  H    -112.512000   60.830100  -100.473000
  H    -112.468000   59.698800  -101.969000
  C    -111.065000   61.325000  -101.817000
  H    -110.113000   60.969700  -102.215000
  H    -110.719000   61.977600  -101.017000
  C    -111.700000   62.261600  -102.908000
  H    -111.625000   61.847900  -103.919000
  H    -111.047000   63.125200  -102.742000
  H    -112.742000   62.591800  -102.722000
  H    -114.155000   54.226500  -101.435000
  H    -108.331000   58.906400  -98.258600

 Total Charge           Charge          ....    0
 Multiplicity           Mult            ....    1
 Number of Electrons    NEL             ....  134
 Basis Dimension        Dim             ....  322

ORBITAL ENERGIES
----------------

  NO   OCC          E(Eh)            E(eV)
   0   2.0000     -88.965876     -2420.8846
   1   2.0000     -88.957899     -2420.6675
   2   2.0000     -10.324985      -280.9571
   3   2.0000     -10.320553      -280.8365
   4   2.0000     -10.319131      -280.7978
   5   2.0000     -10.310624      -280.5664
   6   2.0000     -10.305699      -280.4323
   7   2.0000     -10.300309      -280.2856
   8   2.0000     -10.297966      -280.2219
   9   2.0000     -10.297917      -280.2206
  10   2.0000     -10.297415      -280.2069
  11   2.0000     -10.287952      -279.9494
  12   2.0000     -10.287127      -279.9269
  13   2.0000     -10.286759      -279.9169
  14   2.0000     -10.285573      -279.8847
  15   2.0000     -10.279869      -279.7295
  16   2.0000      -8.081144      -219.8991
  17   2.0000      -8.074663      -219.7227
  18   2.0000      -6.039663      -164.3476
  19   2.0000      -6.035689      -164.2395
  20   2.0000      -6.033094      -164.1688
  21   2.0000      -6.031764      -164.1326
  22   2.0000      -6.029076      -164.0595
  23   2.0000      -6.025191      -163.9538
  24   2.0000      -1.015361       -27.6294
  25   2.0000      -0.988905       -26.9095
  26   2.0000      -0.918240       -24.9866
  27   2.0000      -0.907851       -24.7039
  28   2.0000      -0.872154       -23.7325
  29   2.0000      -0.850676       -23.1481
  30   2.0000      -0.840306       -22.8659
  31   2.0000      -0.816551       -22.2195
  32   2.0000      -0.786004       -21.3883
  33   2.0000      -0.776209       -21.1217
  34   2.0000      -0.701772       -19.0962
  35   2.0000      -0.694195       -18.8900
  36   2.0000      -0.693153       -18.8616
  37   2.0000      -0.654448       -17.8084
  38   2.0000      -0.641702       -17.4616
  39   2.0000      -0.620890       -16.8953
  40   2.0000      -0.601373       -16.3642
  41   2.0000      -0.571540       -15.5524
  42   2.0000      -0.567407       -15.4399
  43   2.0000      -0.548621       -14.9287
  44   2.0000      -0.538000       -14.6397
  45   2.0000      -0.521697       -14.1961
  46   2.0000      -0.517411       -14.0795
  47   2.0000      -0.513364       -13.9694
  48   2.0000      -0.502664       -13.6782
  49   2.0000      -0.499130       -13.5820
  50   2.0000      -0.490650       -13.3513
  51   2.0000      -0.479528       -13.0486
  52   2.0000      -0.473425       -12.8825
  53   2.0000      -0.466313       -12.6890
  54   2.0000      -0.462613       -12.5883
  55   2.0000      -0.455960       -12.4073
  56   2.0000      -0.443907       -12.0793
  57   2.0000      -0.435069       -11.8388
  58   2.0000      -0.424971       -11.5640
  59   2.0000      -0.423810       -11.5325
  60   2.0000      -0.419546       -11.4164
  61   2.0000      -0.414422       -11.2770
  62   2.0000      -0.405540       -11.0353
  63   2.0000      -0.351805        -9.5731
  64   2.0000      -0.331168        -9.0115
  65   2.0000      -0.326511        -8.8848
  66   2.0000      -0.296193        -8.0598
  67   0.0000       0.035403         0.9634
  68   0.0000       0.073855         2.0097
  69   0.0000       0.103561         2.8180
  70   0.0000       0.120182         3.2703
  71   0.0000       0.124025         3.3749

MULLIKEN ATOMIC CHARGES
-----------------------
   0 S :    0.083748
   1 C :   -0.141462
   2 C :   -0.064410
   3 C :    0.016657
   4 C :   -0.121929
   5 H :    0.001748
   6 C :    0.022219
   7 H :    0.032711
   8 H :    0.039853
   9 C :   -0.061221
  10 H :    0.024570
  11 H :    0.033425
  12 C :   -0.057539
  13 H :    0.035720
  14 H :    0.044860
  15 H :    0.022426
  16 S :    0.105929
  17 C :   -0.088876
  18 C :   -0.044571
  19 C :   -0.045967
  20 C :   -0.141966
  21 H :    0.031666
  22 C :    0.080185
  23 H :    0.047995
  24 H :    0.050757
  25 C :   -0.170011
  26 H :    0.028878
  27 H :    0.024031
  28 C :   -0.033557
  29 H :    0.050610
  30 H :    0.035864
  31 H :    0.034485
  32 H :    0.056555
  33 H :    0.066617
Sum of atomic charges:    0.0000000

LOEWDIN ATOMIC CHARGES
----------------------
   0 S :    0.411733
   1 C :   -0.183680
   2 C :   -0.067349
   3 C :   -0.064108
   4 C :   -0.211814
   5 H :    0.025856
   6 C :   -0.034027
   7 H :    0.033441
   8 H :    0.040048
   9 C :   -0.053950
  10 H :    0.025833
  11 H :    0.028712
  12 C :   -0.066821
  13 H :    0.025954
  14 H :    0.036249
  15 H :    0.017374
  16 S :    0.403236
  17 C :   -0.189297
  18 C :   -0.074322
  19 C :   -0.055225
  20 C :   -0.191040
  21 H :    0.036043
  22 C :   -0.040323
  23 H :    0.042507
  24 H :    0.037298
  25 C :   -0.052603
  26 H :    0.021841
  27 H :    0.015995
  28 C :   -0.065808
  29 H :    0.027899
  30 H :    0.033896
  31 H :    0.026055
  32 H :    0.026165
  33 H :    0.034235

  Mayer bond orders larger than 0.100000
B(  0-S ,  1-C ) :   1.1353 B(  0-S ,  4-C ) :   1.1586 B(  1-C ,  2-C ) :   1.6291
B(  1-C , 32-H ) :   0.9703 B(  2-C ,  3-C ) :   1.2301 B(  2-C ,  6-C ) :   0.9973
B(  3-C ,  4-C ) :   1.5741 B(  3-C ,  5-H ) :   1.0047 B(  4-C , 20-C ) :   1.0160
B(  6-C ,  7-H ) :   0.9471 B(  6-C ,  8-H ) :   0.9511 B(  6-C ,  9-C ) :   1.0691
B(  9-C , 10-H ) :   0.9503 B(  9-C , 11-H ) :   0.9527 B(  9-C , 12-C ) :   1.0832
B( 12-C , 13-H ) :   0.9683 B( 12-C , 14-H ) :   0.9706 B( 12-C , 15-H ) :   0.9746
B( 16-S , 17-C ) :   1.1509 B( 16-S , 20-C ) :   1.1296 B( 17-C , 18-C ) :   1.6249
B( 17-C , 33-H ) :   0.9629 B( 18-C , 19-C ) :   1.2123 B( 18-C , 21-H ) :   0.9824
B( 19-C , 20-C ) :   1.6508 B( 19-C , 22-C ) :   1.0514 B( 22-C , 23-H ) :   0.9315
B( 22-C , 24-H ) :   0.9413 B( 22-C , 25-C ) :   1.0472 B( 25-C , 26-H ) :   0.9607
B( 25-C , 27-H ) :   0.9561 B( 25-C , 28-C ) :   1.0674 B( 28-C , 29-H ) :   0.9776
B( 28-C , 30-H ) :   0.9774 B( 28-C , 31-H ) :   0.9749

Dispersion correction           -0.013851139
FINAL SINGLE POINT ENERGY     -1339.879091090302

DIPOLE MOMENT
-------------
                                X             Y             Z
Electronic contribution:     19.01017     -20.50329      10.43050
Nuclear contribution   :    -19.37876      20.98562     -10.37194
                        -----------------------------------------
Total Dipole Moment    :     -0.36859       0.48233       0.05856
                        -----------------------------------------
Magnitude (a.u.)       :      0.60986
Magnitude (Debye)      :      1.55014

Rotational constants in cm-1:     0.016328     0.009421     0.006574
Rotational constants in MHz :   489.511975   282.428745   197.092206

                             ****ORCA TERMINATED NORMALLY****
TOTAL RUN TIME: 0 days 0 hours 0 minutes 21 seconds 502 msec
