                         Program Version 4.2.1 -  RELEASE  -
|  1> ! wB97X-D3 SP def2-SVP
|  2> %pal
|  3> nprocs 24
|  4> end
|  5>
|  6> * xyz 0 1
|  7> S 	 -59.2558 	 3.88856 	 -20.1546
|  8> C 	 -60.761 	 4.62418 	 -19.6752
|  9> C 	 -61.6764 	 3.637 	 -19.259
| 10> C 	 -61.0908 	 2.33047 	 -19.3709
| 11> C 	 -59.7835 	 2.28889 	 -19.7971
| 12> H 	 -61.767 	 1.50632 	 -19.3985
| 13> C 	 -63.1279 	 3.93461 	 -18.9605
| 14> H 	 -63.4621 	 4.54364 	 -19.87
| 15> H 	 -63.3026 	 4.62575 	 -18.1273
| 16> C 	 -64.1549 	 2.78623 	 -18.8972
| 17> H 	 -64.0591 	 2.28866 	 -19.8566
| 18> H 	 -63.6115 	 2.20615 	 -18.1598
| 19> C 	 -65.517 	 3.27068 	 -18.2589
| 20> H 	 -65.2863 	 3.63665 	 -17.2969
| 21> H 	 -66.0416 	 3.98461 	 -18.8531
| 22> H 	 -66.1725 	 2.48284 	 -17.9615
| 23> S 	 -57.8524 	 1.23147 	 -21.4395
| 24> C 	 -57.4302 	 -0.49901 	 -21.3214
| 25> C 	 -58.2155 	 -1.1748 	 -20.3934
| 26> C 	 -59.1141 	 -0.210793 	 -19.7687
| 27> C 	 -59.0601 	 1.12571 	 -20.2087
| 28> H 	 -58.154 	 -2.20619 	 -20.2076
| 29> C 	 -60.0558 	 -0.681709 	 -18.6254
| 30> H 	 -60.4126 	 0.190091 	 -18.1036
| 31> H 	 -59.5098 	 -1.17282 	 -17.7903
| 32> C 	 -61.0669 	 -1.79656 	 -18.9805
| 33> H 	 -61.6304 	 -2.10048 	 -18.0988
| 34> H 	 -60.534 	 -2.65822 	 -19.2168
| 35> C 	 -62.0249 	 -1.48089 	 -20.1983
| 36> H 	 -62.7829 	 -2.21313 	 -20.5431
| 37> H 	 -61.4529 	 -1.33819 	 -21.1222
| 38> H 	 -62.6144 	 -0.646871 	 -19.9014
| 39> H 	 -60.9759 	 5.58598 	 -19.5654
| 40> H 	 -56.647 	 -0.94082 	 -21.8726
| 41> *
| 42>
| 43>                          ****END OF INPUT****

CARTESIAN COORDINATES (ANGSTROEM)
---------------------------------
  S    -59.255800    3.888560  -20.154600
  C    -60.761000    4.624180  -19.675200
  C    -61.676400    3.637000  -19.259000
  C    -61.090800    2.330470  -19.370900
  C    -59.783500    2.288890  -19.797100
  H    -61.767000    1.506320  -19.398500
  C    -63.127900    3.934610  -18.960500
  H    -63.462100    4.543640  -19.870000
  H    -63.302600    4.625750  -18.127300
  C    -64.154900    2.786230  -18.897200
  H    -64.059100    2.288660  -19.856600
  H    -63.611500    2.206150  -18.159800
  C    -65.517000    3.270680  -18.258900
  H    -65.286300    3.636650  -17.296900
  H    -66.041600    3.984610  -18.853100
  H    -66.172500    2.482840  -17.961500
  S    -57.852400    1.231470  -21.439500
  C    -57.430200   -0.499010  -21.321400
  C    -58.215500   -1.174800  -20.393400
  C    -59.114100   -0.210793  -19.768700
  C    -59.060100    1.125710  -20.208700
  H    -58.154000   -2.206190  -20.207600
  C    -60.055800   -0.681709  -18.625400
  H    -60.412600    0.190091  -18.103600
  H    -59.509800   -1.172820  -17.790300
  C    -61.066900   -1.796560  -18.980500
  H    -61.630400   -2.100480  -18.098800
  H    -60.534000   -2.658220  -19.216800
  C    -62.024900   -1.480890  -20.198300
  H    -62.782900   -2.213130  -20.543100
  H    -61.452900   -1.338190  -21.122200
  H    -62.614400   -0.646871  -19.901400
  H    -60.975900    5.585980  -19.565400
  H    -56.647000   -0.940820  -21.872600

 Total Charge           Charge          ....    0
 Multiplicity           Mult            ....    1
 Number of Electrons    NEL             ....  134
 Basis Dimension        Dim             ....  322

ORBITAL ENERGIES
----------------

  NO   OCC          E(Eh)            E(eV)
   0   2.0000     -88.971031     -2421.0248
   1   2.0000     -88.966632     -2420.9051
   2   2.0000     -10.330469      -281.1064
   3   2.0000     -10.329578      -281.0821
   4   2.0000     -10.321534      -280.8632
   5   2.0000     -10.309195      -280.5275
   6   2.0000     -10.306903      -280.4651
   7   2.0000     -10.304640      -280.4035
   8   2.0000     -10.299755      -280.2706
   9   2.0000     -10.296206      -280.1740
  10   2.0000     -10.292959      -280.0857
  11   2.0000     -10.290743      -280.0254
  12   2.0000     -10.290381      -280.0155
  13   2.0000     -10.286107      -279.8992
  14   2.0000     -10.281751      -279.7807
  15   2.0000     -10.275498      -279.6105
  16   2.0000      -8.085901      -220.0285
  17   2.0000      -8.081236      -219.9016
  18   2.0000      -6.044486      -164.4788
  19   2.0000      -6.040199      -164.3622
  20   2.0000      -6.039860      -164.3530
  21   2.0000      -6.036781      -164.2692
  22   2.0000      -6.035690      -164.2395
  23   2.0000      -6.031958      -164.1379
  24   2.0000      -1.011235       -27.5171
  25   2.0000      -0.982804       -26.7435
  26   2.0000      -0.914220       -24.8772
  27   2.0000      -0.899389       -24.4736
  28   2.0000      -0.876443       -23.8492
  29   2.0000      -0.849620       -23.1193
  30   2.0000      -0.839606       -22.8468
  31   2.0000      -0.818426       -22.2705
  32   2.0000      -0.785929       -21.3862
  33   2.0000      -0.775508       -21.1027
  34   2.0000      -0.721701       -19.6385
  35   2.0000      -0.701196       -19.0805
  36   2.0000      -0.699957       -19.0468
  37   2.0000      -0.662736       -18.0340
  38   2.0000      -0.640868       -17.4389
  39   2.0000      -0.628500       -17.1024
  40   2.0000      -0.595070       -16.1927
  41   2.0000      -0.576772       -15.6948
  42   2.0000      -0.574134       -15.6230
  43   2.0000      -0.545538       -14.8448
  44   2.0000      -0.538822       -14.6621
  45   2.0000      -0.529376       -14.4051
  46   2.0000      -0.520238       -14.1564
  47   2.0000      -0.515511       -14.0278
  48   2.0000      -0.502554       -13.6752
  49   2.0000      -0.498297       -13.5594
  50   2.0000      -0.492970       -13.4144
  51   2.0000      -0.481194       -13.0940
  52   2.0000      -0.472509       -12.8576
  53   2.0000      -0.465636       -12.6706
  54   2.0000      -0.462581       -12.5875
  55   2.0000      -0.460114       -12.5203
  56   2.0000      -0.445367       -12.1191
  57   2.0000      -0.439755       -11.9663
  58   2.0000      -0.433910       -11.8073
  59   2.0000      -0.424518       -11.5517
  60   2.0000      -0.412328       -11.2200
  61   2.0000      -0.409417       -11.1408
  62   2.0000      -0.405933       -11.0460
  63   2.0000      -0.361772        -9.8443
  64   2.0000      -0.334135        -9.0923
  65   2.0000      -0.326088        -8.8733
  66   2.0000      -0.281607        -7.6629
  67   0.0000       0.017809         0.4846
  68   0.0000       0.079420         2.1611
  69   0.0000       0.102743         2.7958
  70   0.0000       0.114786         3.1235
  71   0.0000       0.135825         3.6960

MULLIKEN ATOMIC CHARGES
-----------------------
   0 S :    0.116344
   1 C :   -0.056137
   2 C :   -0.080157
   3 C :   -0.005810
   4 C :   -0.097835
   5 H :   -0.005401
   6 C :   -0.022700
   7 H :    0.040177
   8 H :    0.035130
   9 C :   -0.104993
  10 H :    0.045911
  11 H :    0.034209
  12 C :    0.015180
  13 H :    0.014304
  14 H :    0.039477
  15 H :    0.026187
  16 S :    0.091822
  17 C :   -0.079217
  18 C :    0.007436
  19 C :   -0.077596
  20 C :   -0.102428
  21 H :    0.012214
  22 C :    0.036866
  23 H :    0.022084
  24 H :    0.029488
  25 C :   -0.041828
  26 H :    0.028603
  27 H :    0.009011
  28 C :   -0.076657
  29 H :    0.030116
  30 H :    0.047080
  31 H :    0.033046
  32 H :   -0.010287
  33 H :    0.046363
Sum of atomic charges:    0.0000000

LOEWDIN ATOMIC CHARGES
----------------------
   0 S :    0.431509
   1 C :   -0.180024
   2 C :   -0.054439
   3 C :   -0.070410
   4 C :   -0.199416
   5 H :    0.023196
   6 C :   -0.046738
   7 H :    0.038455
   8 H :    0.029137
   9 C :   -0.043434
  10 H :    0.025028
  11 H :    0.022952
  12 C :   -0.051515
  13 H :    0.025224
  14 H :    0.024143
  15 H :    0.027640
  16 S :    0.397470
  17 C :   -0.161188
  18 C :   -0.056952
  19 C :   -0.053082
  20 C :   -0.204544
  21 H :    0.027758
  22 C :   -0.038810
  23 H :    0.024673
  24 H :    0.037173
  25 C :   -0.032898
  26 H :    0.026791
  27 H :    0.011434
  28 C :   -0.075913
  29 H :    0.029342
  30 H :    0.030160
  31 H :    0.017019
  32 H :    0.000056
  33 H :    0.020205

  Mayer bond orders larger than 0.100000
B(  0-S ,  1-C ) :   1.1485 B(  0-S ,  4-C ) :   1.1586 B(  1-C ,  2-C ) :   1.5757
B(  1-C ,  4-C ) :   0.1007 B(  1-C , 32-H ) :   0.9873 B(  2-C ,  3-C ) :   1.3041
B(  2-C ,  6-C ) :   1.0021 B(  3-C ,  4-C ) :   1.5116 B(  3-C ,  5-H ) :   0.9802
B(  4-C , 20-C ) :   1.0967 B(  6-C ,  7-H ) :   0.9428 B(  6-C ,  8-H ) :   0.9433
B(  6-C ,  9-C ) :   1.0600 B(  9-C , 10-H ) :   0.9595 B(  9-C , 11-H ) :   0.9544
B(  9-C , 12-C ) :   1.0666 B( 12-C , 13-H ) :   0.9675 B( 12-C , 14-H ) :   0.9804
B( 12-C , 15-H ) :   0.9724 B( 16-S , 17-C ) :   1.1539 B( 16-S , 20-C ) :   1.1194
B( 17-C , 18-C ) :   1.5949 B( 17-C , 33-H ) :   0.9736 B( 18-C , 19-C ) :   1.2361
B( 18-C , 21-H ) :   1.0014 B( 19-C , 20-C ) :   1.5751 B( 19-C , 22-C ) :   1.0419
B( 22-C , 23-H ) :   0.9390 B( 22-C , 24-H ) :   0.9369 B( 22-C , 25-C ) :   1.0632
B( 25-C , 26-H ) :   0.9566 B( 25-C , 27-H ) :   0.9561 B( 25-C , 28-C ) :   1.0643
B( 28-C , 29-H ) :   0.9736 B( 28-C , 30-H ) :   0.9746 B( 28-C , 31-H ) :   0.9753

Dispersion correction           -0.014683381
FINAL SINGLE POINT ENERGY     -1339.847112121486

DIPOLE MOMENT
-------------
                                X             Y             Z
Electronic contribution:     28.61304      10.03763     -10.38271
Nuclear contribution   :    -29.19614     -10.36253      10.64122
                        -----------------------------------------
Total Dipole Moment    :     -0.58310      -0.32491       0.25851
                        -----------------------------------------
Magnitude (a.u.)       :      0.71582
Magnitude (Debye)      :      1.81947

Rotational constants in cm-1:     0.018480     0.009560     0.006673
Rotational constants in MHz :   554.029099   286.602402   200.051537

                             ****ORCA TERMINATED NORMALLY****
TOTAL RUN TIME: 0 days 0 hours 0 minutes 21 seconds 66 msec
