                         Program Version 4.2.1 -  RELEASE  -
|  1> ! wB97X-D3 SP def2-SVP
|  2> %pal
|  3> nprocs 24
|  4> end
|  5>
|  6> * xyz 0 1
|  7> S 	 -33.0756 	 -6.57099 	 9.16062
|  8> C 	 -32.7101 	 -5.98108 	 10.7028
|  9> C 	 -33.7547 	 -6.36025 	 11.5814
| 10> C 	 -34.7838 	 -7.16632 	 10.9091
| 11> C 	 -34.5176 	 -7.42338 	 9.56583
| 12> H 	 -35.7784 	 -7.44292 	 11.2839
| 13> C 	 -33.9715 	 -5.77264 	 13.013
| 14> H 	 -34.882 	 -5.18573 	 12.9331
| 15> H 	 -33.2454 	 -4.93375 	 13.0856
| 16> C 	 -34.1597 	 -6.7011 	 14.2516
| 17> H 	 -34.732 	 -7.64159 	 13.9853
| 18> H 	 -33.1166 	 -7.0033 	 14.6974
| 19> C 	 -34.844 	 -5.8901 	 15.4322
| 20> H 	 -35.9516 	 -5.8666 	 15.3242
| 21> H 	 -34.8007 	 -6.51424 	 16.3552
| 22> H 	 -34.4129 	 -4.90087 	 15.6237
| 23> S 	 -34.4599 	 -9.52602 	 7.77674
| 24> C 	 -35.9739 	 -10.1049 	 6.92109
| 25> C 	 -36.9941 	 -9.25785 	 7.26557
| 26> C 	 -36.626 	 -8.18993 	 8.13391
| 27> C 	 -35.2741 	 -8.22912 	 8.57359
| 28> H 	 -37.9859 	 -9.39245 	 6.79165
| 29> C 	 -37.6572 	 -7.24168 	 8.56377
| 30> H 	 -37.5149 	 -7.03621 	 9.57321
| 31> H 	 -38.5965 	 -7.79645 	 8.65081
| 32> C 	 -37.6005 	 -5.92794 	 7.79147
| 33> H 	 -37.9574 	 -6.19782 	 6.76471
| 34> H 	 -36.5611 	 -5.63245 	 7.68762
| 35> C 	 -38.4569 	 -4.76669 	 8.2543
| 36> H 	 -39.5094 	 -5.02483 	 8.45025
| 37> H 	 -38.5916 	 -3.93613 	 7.48676
| 38> H 	 -38.0676 	 -4.27555 	 9.11238
| 39> H 	 -31.8888 	 -5.34646 	 10.9729
| 40> H 	 -35.9896 	 -10.9575 	 6.29665
| 41> *
| 42>
| 43>                          ****END OF INPUT****

CARTESIAN COORDINATES (ANGSTROEM)
---------------------------------
  S    -33.075600   -6.570990    9.160620
  C    -32.710100   -5.981080   10.702800
  C    -33.754700   -6.360250   11.581400
  C    -34.783800   -7.166320   10.909100
  C    -34.517600   -7.423380    9.565830
  H    -35.778400   -7.442920   11.283900
  C    -33.971500   -5.772640   13.013000
  H    -34.882000   -5.185730   12.933100
  H    -33.245400   -4.933750   13.085600
  C    -34.159700   -6.701100   14.251600
  H    -34.732000   -7.641590   13.985300
  H    -33.116600   -7.003300   14.697400
  C    -34.844000   -5.890100   15.432200
  H    -35.951600   -5.866600   15.324200
  H    -34.800700   -6.514240   16.355200
  H    -34.412900   -4.900870   15.623700
  S    -34.459900   -9.526020    7.776740
  C    -35.973900  -10.104900    6.921090
  C    -36.994100   -9.257850    7.265570
  C    -36.626000   -8.189930    8.133910
  C    -35.274100   -8.229120    8.573590
  H    -37.985900   -9.392450    6.791650
  C    -37.657200   -7.241680    8.563770
  H    -37.514900   -7.036210    9.573210
  H    -38.596500   -7.796450    8.650810
  C    -37.600500   -5.927940    7.791470
  H    -37.957400   -6.197820    6.764710
  H    -36.561100   -5.632450    7.687620
  C    -38.456900   -4.766690    8.254300
  H    -39.509400   -5.024830    8.450250
  H    -38.591600   -3.936130    7.486760
  H    -38.067600   -4.275550    9.112380
  H    -31.888800   -5.346460   10.972900
  H    -35.989600  -10.957500    6.296650

 Total Charge           Charge          ....    0
 Multiplicity           Mult            ....    1
 Number of Electrons    NEL             ....  134
 Basis Dimension        Dim             ....  322

ORBITAL ENERGIES
----------------

  NO   OCC          E(Eh)            E(eV)
   0   2.0000     -88.965856     -2420.8840
   1   2.0000     -88.964660     -2420.8515
   2   2.0000     -10.334684      -281.2211
   3   2.0000     -10.333931      -281.2006
   4   2.0000     -10.322608      -280.8924
   5   2.0000     -10.316990      -280.7396
   6   2.0000     -10.312212      -280.6095
   7   2.0000     -10.308258      -280.5020
   8   2.0000     -10.303544      -280.3737
   9   2.0000     -10.301287      -280.3123
  10   2.0000     -10.299592      -280.2661
  11   2.0000     -10.298318      -280.2315
  12   2.0000     -10.288890      -279.9749
  13   2.0000     -10.286192      -279.9015
  14   2.0000     -10.280189      -279.7382
  15   2.0000     -10.278522      -279.6928
  16   2.0000      -8.081825      -219.9176
  17   2.0000      -8.078643      -219.8311
  18   2.0000      -6.040194      -164.3620
  19   2.0000      -6.037198      -164.2805
  20   2.0000      -6.035851      -164.2439
  21   2.0000      -6.033087      -164.1686
  22   2.0000      -6.032942      -164.1647
  23   2.0000      -6.029535      -164.0720
  24   2.0000      -1.007245       -27.4085
  25   2.0000      -0.984349       -26.7855
  26   2.0000      -0.912236       -24.8232
  27   2.0000      -0.898244       -24.4425
  28   2.0000      -0.871045       -23.7023
  29   2.0000      -0.848554       -23.0903
  30   2.0000      -0.840632       -22.8748
  31   2.0000      -0.820613       -22.3300
  32   2.0000      -0.777267       -21.1505
  33   2.0000      -0.768132       -20.9019
  34   2.0000      -0.707868       -19.2621
  35   2.0000      -0.697757       -18.9869
  36   2.0000      -0.692832       -18.8529
  37   2.0000      -0.662839       -18.0368
  38   2.0000      -0.646619       -17.5954
  39   2.0000      -0.616015       -16.7626
  40   2.0000      -0.598436       -16.2843
  41   2.0000      -0.569134       -15.4869
  42   2.0000      -0.562531       -15.3072
  43   2.0000      -0.549299       -14.9472
  44   2.0000      -0.528266       -14.3749
  45   2.0000      -0.525266       -14.2932
  46   2.0000      -0.518208       -14.1011
  47   2.0000      -0.510765       -13.8986
  48   2.0000      -0.507064       -13.7979
  49   2.0000      -0.504662       -13.7325
  50   2.0000      -0.493916       -13.4401
  51   2.0000      -0.480001       -13.0615
  52   2.0000      -0.469490       -12.7755
  53   2.0000      -0.463025       -12.5996
  54   2.0000      -0.457148       -12.4396
  55   2.0000      -0.448925       -12.2159
  56   2.0000      -0.442612       -12.0441
  57   2.0000      -0.439601       -11.9622
  58   2.0000      -0.429917       -11.6986
  59   2.0000      -0.420659       -11.4467
  60   2.0000      -0.414385       -11.2760
  61   2.0000      -0.409589       -11.1455
  62   2.0000      -0.406329       -11.0568
  63   2.0000      -0.350311        -9.5325
  64   2.0000      -0.329525        -8.9668
  65   2.0000      -0.322918        -8.7870
  66   2.0000      -0.297421        -8.0932
  67   0.0000       0.031142         0.8474
  68   0.0000       0.065575         1.7844
  69   0.0000       0.108619         2.9557
  70   0.0000       0.116738         3.1766
  71   0.0000       0.132447         3.6041

MULLIKEN ATOMIC CHARGES
-----------------------
   0 S :    0.123302
   1 C :   -0.106833
   2 C :   -0.106168
   3 C :    0.039025
   4 C :   -0.173262
   5 H :    0.024284
   6 C :    0.046816
   7 H :    0.029085
   8 H :    0.017612
   9 C :   -0.101180
  10 H :    0.055143
  11 H :    0.051913
  12 C :   -0.090078
  13 H :    0.036845
  14 H :    0.035409
  15 H :    0.050581
  16 S :    0.091646
  17 C :   -0.091610
  18 C :   -0.026650
  19 C :   -0.070523
  20 C :   -0.138445
  21 H :    0.036744
  22 C :    0.125854
  23 H :   -0.023278
  24 H :    0.015732
  25 C :   -0.059839
  26 H :    0.021372
  27 H :    0.037839
  28 C :   -0.045248
  29 H :    0.025791
  30 H :    0.037292
  31 H :    0.028052
  32 H :    0.052660
  33 H :    0.050120
Sum of atomic charges:    0.0000000

LOEWDIN ATOMIC CHARGES
----------------------
   0 S :    0.447632
   1 C :   -0.218157
   2 C :   -0.064075
   3 C :   -0.068266
   4 C :   -0.212802
   5 H :    0.032027
   6 C :   -0.044837
   7 H :    0.032314
   8 H :    0.031445
   9 C :   -0.047806
  10 H :    0.034467
  11 H :    0.034927
  12 C :   -0.078713
  13 H :    0.027004
  14 H :    0.030218
  15 H :    0.027796
  16 S :    0.391273
  17 C :   -0.153857
  18 C :   -0.071185
  19 C :   -0.055889
  20 C :   -0.207620
  21 H :    0.040586
  22 C :   -0.038298
  23 H :    0.017811
  24 H :    0.033313
  25 C :   -0.037672
  26 H :    0.027261
  27 H :    0.029301
  28 C :   -0.072902
  29 H :    0.025580
  30 H :    0.035637
  31 H :    0.018644
  32 H :    0.031488
  33 H :    0.023352

  Mayer bond orders larger than 0.100000
B(  0-S ,  1-C ) :   1.1686 B(  0-S ,  4-C ) :   1.1789 B(  1-C ,  2-C ) :   1.5636
B(  1-C ,  4-C ) :   0.1004 B(  1-C , 32-H ) :   0.9740 B(  2-C ,  3-C ) :   1.2590
B(  2-C ,  6-C ) :   1.0170 B(  3-C ,  4-C ) :   1.5628 B(  3-C ,  5-H ) :   0.9877
B(  4-C , 20-C ) :   1.0087 B(  6-C ,  7-H ) :   0.9483 B(  6-C ,  8-H ) :   0.9446
B(  6-C ,  9-C ) :   1.0334 B(  9-C , 10-H ) :   0.9593 B(  9-C , 11-H ) :   0.9605
B(  9-C , 12-C ) :   1.0650 B( 12-C , 13-H ) :   0.9743 B( 12-C , 14-H ) :   0.9758
B( 12-C , 15-H ) :   0.9771 B( 16-S , 17-C ) :   1.1439 B( 16-S , 20-C ) :   1.1582
B( 17-C , 18-C ) :   1.5889 B( 17-C , 20-C ) :   0.1065 B( 17-C , 33-H ) :   0.9779
B( 18-C , 19-C ) :   1.2658 B( 18-C , 21-H ) :   0.9820 B( 19-C , 20-C ) :   1.5542
B( 19-C , 22-C ) :   1.0582 B( 22-C , 23-H ) :   0.9145 B( 22-C , 24-H ) :   0.9251
B( 22-C , 25-C ) :   1.0461 B( 25-C , 26-H ) :   0.9533 B( 25-C , 27-H ) :   0.9577
B( 25-C , 28-C ) :   1.0850 B( 28-C , 29-H ) :   0.9717 B( 28-C , 30-H ) :   0.9731
B( 28-C , 31-H ) :   0.9744

Dispersion correction           -0.013682260
FINAL SINGLE POINT ENERGY     -1339.864503775240

DIPOLE MOMENT
-------------
                                X             Y             Z
Electronic contribution:     15.94054     -14.62010     -18.68309
Nuclear contribution   :    -16.51452      14.89748      19.03486
                        -----------------------------------------
Total Dipole Moment    :     -0.57398       0.27738       0.35176
                        -----------------------------------------
Magnitude (a.u.)       :      0.72810
Magnitude (Debye)      :      1.85068

Rotational constants in cm-1:     0.017614     0.007822     0.006665
Rotational constants in MHz :   528.055448   234.496526   199.802199

                             ****ORCA TERMINATED NORMALLY****
TOTAL RUN TIME: 0 days 0 hours 0 minutes 21 seconds 61 msec
