                         Program Version 4.2.1 -  RELEASE  -
|  1> ! wB97X-D3 SP def2-SVP
|  2> %pal
|  3> nprocs 24
|  4> end
|  5>
|  6> * xyz 0 1
|  7> S 	 -106.78 	 3.37394 	 -114.092
|  8> C 	 -108.193 	 4.26401 	 -113.628
|  9> C 	 -109.343 	 3.64276 	 -114.044
| 10> C 	 -109.018 	 2.33327 	 -114.495
| 11> C 	 -107.698 	 1.94151 	 -114.637
| 12> H 	 -109.738 	 1.58936 	 -114.739
| 13> C 	 -110.74 	 4.01842 	 -113.554
| 14> H 	 -110.672 	 4.76122 	 -112.77
| 15> H 	 -111.101 	 3.21994 	 -112.967
| 16> C 	 -111.795 	 4.19586 	 -114.691
| 17> H 	 -111.26 	 4.67441 	 -115.544
| 18> H 	 -112.135 	 3.267 	 -115.142
| 19> C 	 -113.149 	 4.83165 	 -114.239
| 20> H 	 -113.929 	 4.97988 	 -114.953
| 21> H 	 -113.594 	 4.40147 	 -113.371
| 22> H 	 -112.774 	 5.80825 	 -113.917
| 23> S 	 -105.405 	 0.686855 	 -115.458
| 24> C 	 -105.299 	 -1.06865 	 -115.223
| 25> C 	 -106.51 	 -1.60622 	 -115.15
| 26> C 	 -107.595 	 -0.694029 	 -114.956
| 27> C 	 -107.129 	 0.661038 	 -114.955
| 28> H 	 -106.572 	 -2.69491 	 -114.988
| 29> C 	 -108.989 	 -1.14953 	 -114.428
| 30> H 	 -109.557 	 -1.12137 	 -115.357
| 31> H 	 -109.492 	 -0.372398 	 -113.81
| 32> C 	 -109.178 	 -2.52143 	 -113.752
| 33> H 	 -108.802 	 -3.30061 	 -114.339
| 34> H 	 -110.181 	 -2.75633 	 -113.544
| 35> C 	 -108.358 	 -2.52329 	 -112.38
| 36> H 	 -108.871 	 -1.87992 	 -111.653
| 37> H 	 -107.347 	 -2.18839 	 -112.5
| 38> H 	 -108.345 	 -3.5156 	 -111.947
| 39> H 	 -108.151 	 5.0225 	 -112.839
| 40> H 	 -104.517 	 -1.79457 	 -115.396
| 41> *
| 42>
| 43>                          ****END OF INPUT****

CARTESIAN COORDINATES (ANGSTROEM)
---------------------------------
  S    -106.780000    3.373940  -114.092000
  C    -108.193000    4.264010  -113.628000
  C    -109.343000    3.642760  -114.044000
  C    -109.018000    2.333270  -114.495000
  C    -107.698000    1.941510  -114.637000
  H    -109.738000    1.589360  -114.739000
  C    -110.740000    4.018420  -113.554000
  H    -110.672000    4.761220  -112.770000
  H    -111.101000    3.219940  -112.967000
  C    -111.795000    4.195860  -114.691000
  H    -111.260000    4.674410  -115.544000
  H    -112.135000    3.267000  -115.142000
  C    -113.149000    4.831650  -114.239000
  H    -113.929000    4.979880  -114.953000
  H    -113.594000    4.401470  -113.371000
  H    -112.774000    5.808250  -113.917000
  S    -105.405000    0.686855  -115.458000
  C    -105.299000   -1.068650  -115.223000
  C    -106.510000   -1.606220  -115.150000
  C    -107.595000   -0.694029  -114.956000
  C    -107.129000    0.661038  -114.955000
  H    -106.572000   -2.694910  -114.988000
  C    -108.989000   -1.149530  -114.428000
  H    -109.557000   -1.121370  -115.357000
  H    -109.492000   -0.372398  -113.810000
  C    -109.178000   -2.521430  -113.752000
  H    -108.802000   -3.300610  -114.339000
  H    -110.181000   -2.756330  -113.544000
  C    -108.358000   -2.523290  -112.380000
  H    -108.871000   -1.879920  -111.653000
  H    -107.347000   -2.188390  -112.500000
  H    -108.345000   -3.515600  -111.947000
  H    -108.151000    5.022500  -112.839000
  H    -104.517000   -1.794570  -115.396000

 Total Charge           Charge          ....    0
 Multiplicity           Mult            ....    1
 Number of Electrons    NEL             ....  134
 Basis Dimension        Dim             ....  322

ORBITAL ENERGIES
----------------

  NO   OCC          E(Eh)            E(eV)
   0   2.0000     -88.966451     -2420.9002
   1   2.0000     -88.963184     -2420.8113
   2   2.0000     -10.339942      -281.3641
   3   2.0000     -10.334415      -281.2137
   4   2.0000     -10.317620      -280.7567
   5   2.0000     -10.316656      -280.7305
   6   2.0000     -10.313626      -280.6480
   7   2.0000     -10.303609      -280.3754
   8   2.0000     -10.300971      -280.3037
   9   2.0000     -10.295034      -280.1421
  10   2.0000     -10.294043      -280.1151
  11   2.0000     -10.293229      -280.0930
  12   2.0000     -10.292399      -280.0704
  13   2.0000     -10.288071      -279.9527
  14   2.0000     -10.277717      -279.6709
  15   2.0000     -10.276521      -279.6383
  16   2.0000      -8.080150      -219.8721
  17   2.0000      -8.077898      -219.8108
  18   2.0000      -6.038940      -164.3279
  19   2.0000      -6.036557      -164.2631
  20   2.0000      -6.035017      -164.2212
  21   2.0000      -6.032338      -164.1483
  22   2.0000      -6.030447      -164.0968
  23   2.0000      -6.028519      -164.0443
  24   2.0000      -1.006398       -27.3855
  25   2.0000      -0.985390       -26.8138
  26   2.0000      -0.909479       -24.7482
  27   2.0000      -0.904340       -24.6083
  28   2.0000      -0.877449       -23.8766
  29   2.0000      -0.848582       -23.0911
  30   2.0000      -0.839963       -22.8566
  31   2.0000      -0.820847       -22.3364
  32   2.0000      -0.784961       -21.3599
  33   2.0000      -0.774547       -21.0765
  34   2.0000      -0.719785       -19.5863
  35   2.0000      -0.705524       -19.1983
  36   2.0000      -0.700284       -19.0557
  37   2.0000      -0.657898       -17.9023
  38   2.0000      -0.642354       -17.4794
  39   2.0000      -0.622361       -16.9353
  40   2.0000      -0.594578       -16.1793
  41   2.0000      -0.571929       -15.5630
  42   2.0000      -0.557784       -15.1781
  43   2.0000      -0.550992       -14.9932
  44   2.0000      -0.543345       -14.7852
  45   2.0000      -0.527203       -14.3459
  46   2.0000      -0.517477       -14.0813
  47   2.0000      -0.512869       -13.9559
  48   2.0000      -0.510271       -13.8852
  49   2.0000      -0.508185       -13.8284
  50   2.0000      -0.484969       -13.1967
  51   2.0000      -0.479893       -13.0586
  52   2.0000      -0.472731       -12.8637
  53   2.0000      -0.465323       -12.6621
  54   2.0000      -0.461176       -12.5492
  55   2.0000      -0.454354       -12.3636
  56   2.0000      -0.446760       -12.1570
  57   2.0000      -0.440196       -11.9783
  58   2.0000      -0.433327       -11.7914
  59   2.0000      -0.430089       -11.7033
  60   2.0000      -0.417958       -11.3732
  61   2.0000      -0.408008       -11.1025
  62   2.0000      -0.401767       -10.9326
  63   2.0000      -0.367323        -9.9954
  64   2.0000      -0.333168        -9.0660
  65   2.0000      -0.328958        -8.9514
  66   2.0000      -0.281078        -7.6485
  67   0.0000       0.012017         0.3270
  68   0.0000       0.074468         2.0264
  69   0.0000       0.098254         2.6736
  70   0.0000       0.117216         3.1896
  71   0.0000       0.137215         3.7338

MULLIKEN ATOMIC CHARGES
-----------------------
   0 S :    0.093814
   1 C :   -0.136468
   2 C :   -0.037355
   3 C :   -0.019155
   4 C :   -0.092374
   5 H :   -0.006061
   6 C :    0.064992
   7 H :    0.013528
   8 H :    0.016561
   9 C :   -0.095910
  10 H :    0.043308
  11 H :    0.027703
  12 C :   -0.035547
  13 H :    0.039033
  14 H :    0.025447
  15 H :    0.022891
  16 S :    0.085276
  17 C :   -0.054590
  18 C :   -0.070406
  19 C :   -0.035688
  20 C :   -0.153683
  21 H :    0.031682
  22 C :    0.016290
  23 H :    0.040028
  24 H :    0.041236
  25 C :   -0.015098
  26 H :    0.016462
  27 H :    0.023552
  28 C :   -0.073103
  29 H :    0.030712
  30 H :    0.042924
  31 H :    0.029922
  32 H :    0.069272
  33 H :    0.050806
Sum of atomic charges:    0.0000000

LOEWDIN ATOMIC CHARGES
----------------------
   0 S :    0.390383
   1 C :   -0.189168
   2 C :   -0.069320
   3 C :   -0.059728
   4 C :   -0.185923
   5 H :    0.019640
   6 C :   -0.028020
   7 H :    0.028598
   8 H :    0.028630
   9 C :   -0.042294
  10 H :    0.029100
  11 H :    0.020495
  12 C :   -0.065012
  13 H :    0.024574
  14 H :    0.021891
  15 H :    0.026641
  16 S :    0.370112
  17 C :   -0.177984
  18 C :   -0.080204
  19 C :   -0.050578
  20 C :   -0.170861
  21 H :    0.036941
  22 C :   -0.037462
  23 H :    0.035180
  24 H :    0.034177
  25 C :   -0.027409
  26 H :    0.013829
  27 H :    0.023119
  28 C :   -0.061826
  29 H :    0.025574
  30 H :    0.022676
  31 H :    0.022021
  32 H :    0.035610
  33 H :    0.036597

  Mayer bond orders larger than 0.100000
B(  0-S ,  1-C ) :   1.1634 B(  0-S ,  4-C ) :   1.1077 B(  1-C ,  2-C ) :   1.5821
B(  1-C , 32-H ) :   0.9609 B(  2-C ,  3-C ) :   1.2417 B(  2-C ,  6-C ) :   1.0357
B(  3-C ,  4-C ) :   1.5777 B(  3-C ,  5-H ) :   0.9931 B(  4-C , 20-C ) :   1.1210
B(  6-C ,  7-H ) :   0.9547 B(  6-C ,  8-H ) :   0.9381 B(  6-C ,  9-C ) :   1.0255
B(  9-C , 10-H ) :   0.9677 B(  9-C , 11-H ) :   0.9588 B(  9-C , 12-C ) :   1.0613
B( 12-C , 13-H ) :   0.9780 B( 12-C , 14-H ) :   0.9753 B( 12-C , 15-H ) :   0.9799
B( 16-S , 17-C ) :   1.1100 B( 16-S , 20-C ) :   1.1226 B( 17-C , 18-C ) :   1.6888
B( 17-C , 33-H ) :   0.9554 B( 18-C , 19-C ) :   1.2315 B( 18-C , 21-H ) :   0.9690
B( 19-C , 20-C ) :   1.5761 B( 19-C , 22-C ) :   1.0131 B( 22-C , 23-H ) :   0.9219
B( 22-C , 24-H ) :   0.9439 B( 22-C , 25-C ) :   1.0853 B( 25-C , 26-H ) :   0.9512
B( 25-C , 27-H ) :   0.9518 B( 25-C , 28-C ) :   1.0700 B( 28-C , 29-H ) :   0.9772
B( 28-C , 30-H ) :   0.9791 B( 28-C , 31-H ) :   0.9778

Dispersion correction           -0.013726839
FINAL SINGLE POINT ENERGY     -1339.839054192343

DIPOLE MOMENT
-------------
                                X             Y             Z
Electronic contribution:     27.44613       5.78195      -8.23847
Nuclear contribution   :    -28.21326      -6.28986       8.65566
                        -----------------------------------------
Total Dipole Moment    :     -0.76713      -0.50791       0.41719
                        -----------------------------------------
Magnitude (a.u.)       :      1.01020
Magnitude (Debye)      :      2.56774

Rotational constants in cm-1:     0.018870     0.007944     0.006110
Rotational constants in MHz :   565.714160   238.147069   183.163186

                             ****ORCA TERMINATED NORMALLY****
TOTAL RUN TIME: 0 days 0 hours 0 minutes 21 seconds 348 msec
