                         Program Version 4.2.1 -  RELEASE  -
|  1> ! wB97X-D3 SP def2-SVP
|  2> %pal
|  3> nprocs 24
|  4> end
|  5>
|  6> * xyz 0 1
|  7> S 	 -115.02 	 20.7053 	 -118.244
|  8> C 	 -115.706 	 21.9681 	 -117.315
|  9> C 	 -114.772 	 23.0348 	 -117.233
| 10> C 	 -113.602 	 22.8606 	 -118.092
| 11> C 	 -113.678 	 21.6665 	 -118.678
| 12> H 	 -112.74 	 23.475 	 -118.185
| 13> C 	 -114.955 	 24.3019 	 -116.438
| 14> H 	 -115.783 	 23.9914 	 -115.747
| 15> H 	 -115.225 	 25.0691 	 -117.216
| 16> C 	 -113.735 	 24.7715 	 -115.632
| 17> H 	 -113.145 	 25.4638 	 -116.218
| 18> H 	 -114.051 	 25.4256 	 -114.821
| 19> C 	 -113.001 	 23.693 	 -114.795
| 20> H 	 -112.881 	 22.7066 	 -115.28
| 21> H 	 -112.09 	 24.1701 	 -114.452
| 22> H 	 -113.681 	 23.5414 	 -113.975
| 23> S 	 -112.881 	 20.4049 	 -121.036
| 24> C 	 -111.201 	 19.927 	 -121.304
| 25> C 	 -110.424 	 20.4701 	 -120.275
| 26> C 	 -111.169 	 21.0897 	 -119.231
| 27> C 	 -112.53 	 21.1022 	 -119.438
| 28> H 	 -109.281 	 20.3777 	 -120.399
| 29> C 	 -110.389 	 21.4992 	 -117.989
| 30> H 	 -110.238 	 20.5124 	 -117.531
| 31> H 	 -111.087 	 21.9067 	 -117.212
| 32> C 	 -109.189 	 22.4179 	 -118.312
| 33> H 	 -108.506 	 22.1253 	 -119.194
| 34> H 	 -108.439 	 22.2974 	 -117.511
| 35> C 	 -109.502 	 23.9286 	 -118.353
| 36> H 	 -109.903 	 24.3357 	 -117.405
| 37> H 	 -110.104 	 24.0688 	 -119.18
| 38> H 	 -108.529 	 24.4183 	 -118.4
| 39> H 	 -116.696 	 22.0261 	 -116.838
| 40> H 	 -110.862 	 19.382 	 -122.154
| 41> *
| 42>
| 43>                          ****END OF INPUT****

CARTESIAN COORDINATES (ANGSTROEM)
---------------------------------
  S    -115.020000   20.705300  -118.244000
  C    -115.706000   21.968100  -117.315000
  C    -114.772000   23.034800  -117.233000
  C    -113.602000   22.860600  -118.092000
  C    -113.678000   21.666500  -118.678000
  H    -112.740000   23.475000  -118.185000
  C    -114.955000   24.301900  -116.438000
  H    -115.783000   23.991400  -115.747000
  H    -115.225000   25.069100  -117.216000
  C    -113.735000   24.771500  -115.632000
  H    -113.145000   25.463800  -116.218000
  H    -114.051000   25.425600  -114.821000
  C    -113.001000   23.693000  -114.795000
  H    -112.881000   22.706600  -115.280000
  H    -112.090000   24.170100  -114.452000
  H    -113.681000   23.541400  -113.975000
  S    -112.881000   20.404900  -121.036000
  C    -111.201000   19.927000  -121.304000
  C    -110.424000   20.470100  -120.275000
  C    -111.169000   21.089700  -119.231000
  C    -112.530000   21.102200  -119.438000
  H    -109.281000   20.377700  -120.399000
  C    -110.389000   21.499200  -117.989000
  H    -110.238000   20.512400  -117.531000
  H    -111.087000   21.906700  -117.212000
  C    -109.189000   22.417900  -118.312000
  H    -108.506000   22.125300  -119.194000
  H    -108.439000   22.297400  -117.511000
  C    -109.502000   23.928600  -118.353000
  H    -109.903000   24.335700  -117.405000
  H    -110.104000   24.068800  -119.180000
  H    -108.529000   24.418300  -118.400000
  H    -116.696000   22.026100  -116.838000
  H    -110.862000   19.382000  -122.154000

 Total Charge           Charge          ....    0
 Multiplicity           Mult            ....    1
 Number of Electrons    NEL             ....  134
 Basis Dimension        Dim             ....  322

ORBITAL ENERGIES
----------------

  NO   OCC          E(Eh)            E(eV)
   0   2.0000     -88.966781     -2420.9092
   1   2.0000     -88.958447     -2420.6824
   2   2.0000     -10.326043      -280.9859
   3   2.0000     -10.321990      -280.8756
   4   2.0000     -10.318310      -280.7755
   5   2.0000     -10.315298      -280.6935
   6   2.0000     -10.303728      -280.3787
   7   2.0000     -10.302463      -280.3443
   8   2.0000     -10.299437      -280.2619
   9   2.0000     -10.298397      -280.2336
  10   2.0000     -10.297587      -280.2116
  11   2.0000     -10.296088      -280.1708
  12   2.0000     -10.287226      -279.9296
  13   2.0000     -10.287009      -279.9238
  14   2.0000     -10.279428      -279.7175
  15   2.0000     -10.278100      -279.6813
  16   2.0000      -8.082758      -219.9430
  17   2.0000      -8.072755      -219.6708
  18   2.0000      -6.041248      -164.3907
  19   2.0000      -6.037091      -164.2776
  20   2.0000      -6.033444      -164.1784
  21   2.0000      -6.031289      -164.1197
  22   2.0000      -6.027263      -164.0102
  23   2.0000      -6.023583      -163.9100
  24   2.0000      -1.010229       -27.4897
  25   2.0000      -0.982392       -26.7322
  26   2.0000      -0.911377       -24.7998
  27   2.0000      -0.904869       -24.6227
  28   2.0000      -0.868491       -23.6329
  29   2.0000      -0.851095       -23.1595
  30   2.0000      -0.846149       -23.0249
  31   2.0000      -0.814856       -22.1734
  32   2.0000      -0.780419       -21.2363
  33   2.0000      -0.771608       -20.9965
  34   2.0000      -0.706374       -19.2214
  35   2.0000      -0.698998       -19.0207
  36   2.0000      -0.691950       -18.8289
  37   2.0000      -0.652709       -17.7611
  38   2.0000      -0.640009       -17.4155
  39   2.0000      -0.615066       -16.7368
  40   2.0000      -0.593847       -16.1594
  41   2.0000      -0.563769       -15.3409
  42   2.0000      -0.561839       -15.2884
  43   2.0000      -0.556115       -15.1326
  44   2.0000      -0.544771       -14.8240
  45   2.0000      -0.532727       -14.4962
  46   2.0000      -0.524427       -14.2704
  47   2.0000      -0.508681       -13.8419
  48   2.0000      -0.502682       -13.6787
  49   2.0000      -0.498538       -13.5659
  50   2.0000      -0.492447       -13.4002
  51   2.0000      -0.477799       -13.0016
  52   2.0000      -0.471708       -12.8358
  53   2.0000      -0.465416       -12.6646
  54   2.0000      -0.457596       -12.4518
  55   2.0000      -0.448842       -12.2136
  56   2.0000      -0.440855       -11.9963
  57   2.0000      -0.434551       -11.8247
  58   2.0000      -0.431673       -11.7464
  59   2.0000      -0.426677       -11.6105
  60   2.0000      -0.424947       -11.5634
  61   2.0000      -0.403271       -10.9736
  62   2.0000      -0.400214       -10.8904
  63   2.0000      -0.345457        -9.4004
  64   2.0000      -0.325570        -8.8592
  65   2.0000      -0.324601        -8.8328
  66   2.0000      -0.296199        -8.0600
  67   0.0000       0.035952         0.9783
  68   0.0000       0.076037         2.0691
  69   0.0000       0.113827         3.0974
  70   0.0000       0.119140         3.2420
  71   0.0000       0.124835         3.3969

MULLIKEN ATOMIC CHARGES
-----------------------
   0 S :    0.135365
   1 C :   -0.118581
   2 C :   -0.166159
   3 C :    0.033316
   4 C :   -0.105672
   5 H :    0.002972
   6 C :    0.074779
   7 H :    0.018795
   8 H :    0.059200
   9 C :   -0.102162
  10 H :    0.023530
  11 H :    0.026630
  12 C :   -0.049842
  13 H :    0.062823
  14 H :    0.038930
  15 H :    0.026025
  16 S :    0.080615
  17 C :   -0.091956
  18 C :   -0.078310
  19 C :   -0.034787
  20 C :   -0.165117
  21 H :    0.052973
  22 C :    0.062241
  23 H :    0.047643
  24 H :    0.019085
  25 C :   -0.119315
  26 H :    0.045521
  27 H :    0.021703
  28 C :   -0.016897
  29 H :    0.033495
  30 H :    0.038681
  31 H :    0.033410
  32 H :    0.057770
  33 H :    0.053299
Sum of atomic charges:   -0.0000000

LOEWDIN ATOMIC CHARGES
----------------------
   0 S :    0.441396
   1 C :   -0.229778
   2 C :   -0.059676
   3 C :   -0.059548
   4 C :   -0.204726
   5 H :    0.031006
   6 C :   -0.042057
   7 H :    0.032239
   8 H :    0.045370
   9 C :   -0.052254
  10 H :    0.017526
  11 H :    0.030097
  12 C :   -0.061420
  13 H :    0.027207
  14 H :    0.029065
  15 H :    0.025451
  16 S :    0.377791
  17 C :   -0.174691
  18 C :   -0.083889
  19 C :   -0.067581
  20 C :   -0.191805
  21 H :    0.045007
  22 C :   -0.039903
  23 H :    0.041833
  24 H :    0.034651
  25 C :   -0.049141
  26 H :    0.034562
  27 H :    0.023333
  28 C :   -0.057464
  29 H :    0.028328
  30 H :    0.015549
  31 H :    0.031697
  32 H :    0.036690
  33 H :    0.025137

  Mayer bond orders larger than 0.100000
B(  0-S ,  1-C ) :   1.1299 B(  0-S ,  4-C ) :   1.1775 B(  1-C ,  2-C ) :   1.6076
B(  1-C , 32-H ) :   0.9660 B(  2-C ,  3-C ) :   1.1996 B(  2-C ,  6-C ) :   1.0282
B(  3-C ,  4-C ) :   1.5892 B(  3-C ,  5-H ) :   1.0084 B(  4-C , 20-C ) :   0.9869
B(  6-C ,  7-H ) :   0.9365 B(  6-C ,  8-H ) :   0.9385 B(  6-C ,  9-C ) :   1.0738
B(  9-C , 10-H ) :   0.9547 B(  9-C , 11-H ) :   0.9593 B(  9-C , 12-C ) :   1.0569
B( 12-C , 13-H ) :   0.9712 B( 12-C , 14-H ) :   0.9738 B( 12-C , 15-H ) :   0.9797
B( 16-S , 17-C ) :   1.1548 B( 16-S , 20-C ) :   1.1328 B( 17-C , 18-C ) :   1.6107
B( 17-C , 20-C ) :   0.1032 B( 17-C , 33-H ) :   0.9744 B( 18-C , 19-C ) :   1.2308
B( 18-C , 21-H ) :   0.9740 B( 19-C , 20-C ) :   1.6144 B( 19-C , 22-C ) :   1.0214
B( 22-C , 23-H ) :   0.9398 B( 22-C , 24-H ) :   0.9398 B( 22-C , 25-C ) :   1.0387
B( 25-C , 26-H ) :   0.9584 B( 25-C , 27-H ) :   0.9548 B( 25-C , 28-C ) :   1.0787
B( 28-C , 29-H ) :   0.9724 B( 28-C , 30-H ) :   0.9767 B( 28-C , 31-H ) :   0.9701

Dispersion correction           -0.015753228
FINAL SINGLE POINT ENERGY     -1339.857683981141

DIPOLE MOMENT
-------------
                                X             Y             Z
Electronic contribution:    -15.12452     -18.82626     -18.22337
Nuclear contribution   :     15.64401      19.28468      18.72847
                        -----------------------------------------
Total Dipole Moment    :      0.51949       0.45842       0.50510
                        -----------------------------------------
Magnitude (a.u.)       :      0.85741
Magnitude (Debye)      :      2.17936

Rotational constants in cm-1:     0.017634     0.010925     0.007354
Rotational constants in MHz :   528.643103   327.518484   220.476385

                             ****ORCA TERMINATED NORMALLY****
TOTAL RUN TIME: 0 days 0 hours 0 minutes 22 seconds 857 msec
