                         Program Version 4.2.1 -  RELEASE  -
|  1> ! wB97X-D3 SP def2-SVP
|  2> %pal
|  3> nprocs 24
|  4> end
|  5>
|  6> * xyz 0 1
|  7> S 	 -135.887 	 5.14494 	 5.51969
|  8> C 	 -135.82 	 3.53501 	 4.87528
|  9> C 	 -135.593 	 2.61038 	 5.91576
| 10> C 	 -135.361 	 3.21658 	 7.1917
| 11> C 	 -135.317 	 4.61666 	 7.1196
| 12> H 	 -135.157 	 2.63227 	 8.08076
| 13> C 	 -135.6 	 1.09394 	 5.68806
| 14> H 	 -136.633 	 0.748927 	 5.70497
| 15> H 	 -135.1 	 0.735231 	 6.60914
| 16> C 	 -134.855 	 0.694843 	 4.42655
| 17> H 	 -135.345 	 1.10786 	 3.55306
| 18> H 	 -133.889 	 1.05745 	 4.32554
| 19> C 	 -134.68 	 -0.896349 	 4.28016
| 20> H 	 -133.929 	 -1.28856 	 5.08233
| 21> H 	 -135.676 	 -1.47522 	 4.45285
| 22> H 	 -134.274 	 -1.2558 	 3.35015
| 23> S 	 -134.106 	 6.99686 	 7.59725
| 24> C 	 -134.22 	 7.70133 	 9.12582
| 25> C 	 -135.082 	 7.05124 	 9.96144
| 26> C 	 -135.483 	 5.83421 	 9.38008
| 27> C 	 -135.033 	 5.65849 	 8.08986
| 28> H 	 -135.369 	 7.35627 	 10.9326
| 29> C 	 -136.355 	 4.85702 	 10.1356
| 30> H 	 -136.694 	 4.10409 	 9.45531
| 31> H 	 -137.273 	 5.28186 	 10.5896
| 32> C 	 -135.624 	 4.19488 	 11.3605
| 33> H 	 -136.258 	 3.63248 	 12.12
| 34> H 	 -135.147 	 4.98809 	 11.9628
| 35> C 	 -134.485 	 3.1888 	 11.0621
| 36> H 	 -134.225 	 2.7131 	 11.9157
| 37> H 	 -133.501 	 3.60238 	 10.789
| 38> H 	 -134.8 	 2.47356 	 10.2905
| 39> H 	 -135.967 	 3.33381 	 3.75899
| 40> H 	 -133.846 	 8.74884 	 9.33598
| 41> *
| 42>
| 43>                          ****END OF INPUT****

CARTESIAN COORDINATES (ANGSTROEM)
---------------------------------
  S    -135.887000    5.144940    5.519690
  C    -135.820000    3.535010    4.875280
  C    -135.593000    2.610380    5.915760
  C    -135.361000    3.216580    7.191700
  C    -135.317000    4.616660    7.119600
  H    -135.157000    2.632270    8.080760
  C    -135.600000    1.093940    5.688060
  H    -136.633000    0.748927    5.704970
  H    -135.100000    0.735231    6.609140
  C    -134.855000    0.694843    4.426550
  H    -135.345000    1.107860    3.553060
  H    -133.889000    1.057450    4.325540
  C    -134.680000   -0.896349    4.280160
  H    -133.929000   -1.288560    5.082330
  H    -135.676000   -1.475220    4.452850
  H    -134.274000   -1.255800    3.350150
  S    -134.106000    6.996860    7.597250
  C    -134.220000    7.701330    9.125820
  C    -135.082000    7.051240    9.961440
  C    -135.483000    5.834210    9.380080
  C    -135.033000    5.658490    8.089860
  H    -135.369000    7.356270   10.932600
  C    -136.355000    4.857020   10.135600
  H    -136.694000    4.104090    9.455310
  H    -137.273000    5.281860   10.589600
  C    -135.624000    4.194880   11.360500
  H    -136.258000    3.632480   12.120000
  H    -135.147000    4.988090   11.962800
  C    -134.485000    3.188800   11.062100
  H    -134.225000    2.713100   11.915700
  H    -133.501000    3.602380   10.789000
  H    -134.800000    2.473560   10.290500
  H    -135.967000    3.333810    3.758990
  H    -133.846000    8.748840    9.335980

 Total Charge           Charge          ....    0
 Multiplicity           Mult            ....    1
 Number of Electrons    NEL             ....  134
 Basis Dimension        Dim             ....  322

ORBITAL ENERGIES
----------------

  NO   OCC          E(Eh)            E(eV)
   0   2.0000     -88.967138     -2420.9189
   1   2.0000     -88.964322     -2420.8423
   2   2.0000     -10.334235      -281.2088
   3   2.0000     -10.320348      -280.8309
   4   2.0000     -10.318277      -280.7746
   5   2.0000     -10.316093      -280.7152
   6   2.0000     -10.303111      -280.3619
   7   2.0000     -10.298928      -280.2481
   8   2.0000     -10.298729      -280.2427
   9   2.0000     -10.295056      -280.1427
  10   2.0000     -10.294580      -280.1298
  11   2.0000     -10.294467      -280.1267
  12   2.0000     -10.292334      -280.0687
  13   2.0000     -10.288507      -279.9645
  14   2.0000     -10.287480      -279.9366
  15   2.0000     -10.269606      -279.4502
  16   2.0000      -8.084000      -219.9768
  17   2.0000      -8.078848      -219.8366
  18   2.0000      -6.042228      -164.4174
  19   2.0000      -6.038208      -164.3080
  20   2.0000      -6.037346      -164.2845
  21   2.0000      -6.034898      -164.2179
  22   2.0000      -6.033337      -164.1754
  23   2.0000      -6.029690      -164.0762
  24   2.0000      -1.019218       -27.7343
  25   2.0000      -0.985233       -26.8095
  26   2.0000      -0.907611       -24.6973
  27   2.0000      -0.905311       -24.6348
  28   2.0000      -0.868030       -23.6203
  29   2.0000      -0.853704       -23.2305
  30   2.0000      -0.843515       -22.9532
  31   2.0000      -0.811578       -22.0842
  32   2.0000      -0.784976       -21.3603
  33   2.0000      -0.764919       -20.8145
  34   2.0000      -0.710151       -19.3242
  35   2.0000      -0.701025       -19.0759
  36   2.0000      -0.690388       -18.7864
  37   2.0000      -0.665113       -18.0986
  38   2.0000      -0.635428       -17.2909
  39   2.0000      -0.620981       -16.8978
  40   2.0000      -0.599645       -16.3172
  41   2.0000      -0.564201       -15.3527
  42   2.0000      -0.560171       -15.2430
  43   2.0000      -0.549007       -14.9392
  44   2.0000      -0.541890       -14.7456
  45   2.0000      -0.521986       -14.2040
  46   2.0000      -0.515361       -14.0237
  47   2.0000      -0.508770       -13.8443
  48   2.0000      -0.505099       -13.7445
  49   2.0000      -0.501500       -13.6465
  50   2.0000      -0.490168       -13.3381
  51   2.0000      -0.480566       -13.0769
  52   2.0000      -0.465703       -12.6724
  53   2.0000      -0.459654       -12.5078
  54   2.0000      -0.455922       -12.4063
  55   2.0000      -0.450929       -12.2704
  56   2.0000      -0.444024       -12.0825
  57   2.0000      -0.440982       -11.9997
  58   2.0000      -0.438851       -11.9417
  59   2.0000      -0.422110       -11.4862
  60   2.0000      -0.420340       -11.4380
  61   2.0000      -0.414010       -11.2658
  62   2.0000      -0.413393       -11.2490
  63   2.0000      -0.349463        -9.5094
  64   2.0000      -0.334150        -9.0927
  65   2.0000      -0.329205        -8.9581
  66   2.0000      -0.288590        -7.8529
  67   0.0000       0.028018         0.7624
  68   0.0000       0.072712         1.9786
  69   0.0000       0.111216         3.0263
  70   0.0000       0.124765         3.3950
  71   0.0000       0.130924         3.5626

MULLIKEN ATOMIC CHARGES
-----------------------
   0 S :    0.101668
   1 C :   -0.164417
   2 C :   -0.123569
   3 C :    0.053564
   4 C :   -0.150892
   5 H :   -0.005758
   6 C :    0.093573
   7 H :    0.048480
   8 H :    0.019297
   9 C :   -0.057263
  10 H :    0.026245
  11 H :    0.021336
  12 C :   -0.106993
  13 H :    0.043229
  14 H :    0.041491
  15 H :    0.035418
  16 S :    0.137060
  17 C :   -0.099851
  18 C :   -0.015720
  19 C :   -0.027197
  20 C :   -0.161412
  21 H :    0.002142
  22 C :    0.093611
  23 H :    0.014039
  24 H :    0.036437
  25 C :   -0.124425
  26 H :    0.040138
  27 H :    0.025441
  28 C :   -0.022985
  29 H :    0.002205
  30 H :    0.032563
  31 H :    0.030749
  32 H :    0.085388
  33 H :    0.076409
Sum of atomic charges:    0.0000000

LOEWDIN ATOMIC CHARGES
----------------------
   0 S :    0.401092
   1 C :   -0.223909
   2 C :   -0.064335
   3 C :   -0.069427
   4 C :   -0.174511
   5 H :    0.028603
   6 C :   -0.027788
   7 H :    0.036102
   8 H :    0.030543
   9 C :   -0.034682
  10 H :    0.021855
  11 H :    0.019458
  12 C :   -0.079537
  13 H :    0.033092
  14 H :    0.030838
  15 H :    0.019114
  16 S :    0.460906
  17 C :   -0.209094
  18 C :   -0.064976
  19 C :   -0.052795
  20 C :   -0.227775
  21 H :    0.026516
  22 C :   -0.029939
  23 H :    0.023912
  24 H :    0.038112
  25 C :   -0.045220
  26 H :    0.030495
  27 H :    0.022142
  28 C :   -0.065761
  29 H :    0.011985
  30 H :    0.029060
  31 H :    0.021495
  32 H :    0.043616
  33 H :    0.040814

  Mayer bond orders larger than 0.100000
B(  0-S ,  1-C ) :   1.1416 B(  0-S ,  4-C ) :   1.1713 B(  1-C ,  2-C ) :   1.5725
B(  1-C ,  4-C ) :   0.1088 B(  1-C , 32-H ) :   0.9608 B(  2-C ,  3-C ) :   1.2818
B(  2-C ,  6-C ) :   1.0078 B(  3-C ,  4-C ) :   1.5346 B(  3-C ,  5-H ) :   0.9929
B(  4-C , 20-C ) :   1.0429 B(  6-C ,  7-H ) :   0.9322 B(  6-C ,  8-H ) :   0.9460
B(  6-C ,  9-C ) :   1.0682 B(  9-C , 10-H ) :   0.9515 B(  9-C , 11-H ) :   0.9611
B(  9-C , 12-C ) :   1.0681 B( 12-C , 13-H ) :   0.9772 B( 12-C , 14-H ) :   0.9769
B( 12-C , 15-H ) :   0.9776 B( 16-S , 17-C ) :   1.1856 B( 16-S , 20-C ) :   1.1644
B( 17-C , 18-C ) :   1.5632 B( 17-C , 33-H ) :   0.9565 B( 18-C , 19-C ) :   1.2787
B( 18-C , 21-H ) :   1.0007 B( 19-C , 20-C ) :   1.5528 B( 19-C , 22-C ) :   1.0497
B( 22-C , 23-H ) :   0.9363 B( 22-C , 24-H ) :   0.9372 B( 22-C , 25-C ) :   1.0527
B( 25-C , 26-H ) :   0.9633 B( 25-C , 27-H ) :   0.9571 B( 25-C , 28-C ) :   1.0739
B( 28-C , 29-H ) :   0.9665 B( 28-C , 30-H ) :   0.9737 B( 28-C , 31-H ) :   0.9726

Dispersion correction           -0.014345332
FINAL SINGLE POINT ENERGY     -1339.871584809913

DIPOLE MOMENT
-------------
                                X             Y             Z
Electronic contribution:     -0.20323      27.06831      -7.21661
Nuclear contribution   :      0.13281     -27.36849       7.55797
                        -----------------------------------------
Total Dipole Moment    :     -0.07042      -0.30018       0.34135
                        -----------------------------------------
Magnitude (a.u.)       :      0.45999
Magnitude (Debye)      :      1.16920

Rotational constants in cm-1:     0.021565     0.007900     0.006302
Rotational constants in MHz :   646.493244   236.839226   188.940859

                             ****ORCA TERMINATED NORMALLY****
TOTAL RUN TIME: 0 days 0 hours 0 minutes 21 seconds 552 msec
