                         Program Version 4.2.1 -  RELEASE  -
|  1> ! wB97X-D3 SP def2-SVP
|  2> %pal
|  3> nprocs 24
|  4> end
|  5>
|  6> * xyz 0 1
|  7> S 	 -114.672 	 18.6682 	 -113.521
|  8> C 	 -114.947 	 19.8962 	 -114.757
|  9> C 	 -116.078 	 19.6116 	 -115.494
| 10> C 	 -116.75 	 18.3949 	 -115.046
| 11> C 	 -116.209 	 17.8703 	 -113.91
| 12> H 	 -117.606 	 17.9928 	 -115.481
| 13> C 	 -116.58 	 20.5421 	 -116.65
| 14> H 	 -116.765 	 20.0226 	 -117.543
| 15> H 	 -115.625 	 21.0702 	 -117.066
| 16> C 	 -117.717 	 21.524 	 -116.354
| 17> H 	 -117.818 	 22.1875 	 -117.227
| 18> H 	 -118.581 	 20.9038 	 -116.29
| 19> C 	 -117.623 	 22.4424 	 -115.133
| 20> H 	 -116.606 	 22.8897 	 -115.065
| 21> H 	 -118.368 	 23.1979 	 -115.115
| 22> H 	 -117.823 	 21.8449 	 -114.293
| 23> S 	 -115.693 	 15.2925 	 -113.329
| 24> C 	 -116.574 	 14.4606 	 -112.123
| 25> C 	 -117.737 	 15.1197 	 -111.797
| 26> C 	 -117.882 	 16.3576 	 -112.543
| 27> C 	 -116.712 	 16.6664 	 -113.197
| 28> H 	 -118.491 	 14.7364 	 -111.139
| 29> C 	 -119.024 	 17.3451 	 -112.422
| 30> H 	 -119.459 	 17.1255 	 -113.412
| 31> H 	 -118.614 	 18.3706 	 -112.396
| 32> C 	 -120.056 	 16.9806 	 -111.31
| 33> H 	 -119.654 	 17.2481 	 -110.322
| 34> H 	 -120.34 	 15.9639 	 -111.246
| 35> C 	 -121.326 	 17.8179 	 -111.436
| 36> H 	 -121.198 	 18.9125 	 -111.233
| 37> H 	 -122.132 	 17.4496 	 -110.78
| 38> H 	 -121.816 	 17.8655 	 -112.394
| 39> H 	 -114.343 	 20.7829 	 -114.884
| 40> H 	 -116.304 	 13.5294 	 -111.772
| 41> *
| 42>
| 43>                          ****END OF INPUT****

CARTESIAN COORDINATES (ANGSTROEM)
---------------------------------
  S    -114.672000   18.668200  -113.521000
  C    -114.947000   19.896200  -114.757000
  C    -116.078000   19.611600  -115.494000
  C    -116.750000   18.394900  -115.046000
  C    -116.209000   17.870300  -113.910000
  H    -117.606000   17.992800  -115.481000
  C    -116.580000   20.542100  -116.650000
  H    -116.765000   20.022600  -117.543000
  H    -115.625000   21.070200  -117.066000
  C    -117.717000   21.524000  -116.354000
  H    -117.818000   22.187500  -117.227000
  H    -118.581000   20.903800  -116.290000
  C    -117.623000   22.442400  -115.133000
  H    -116.606000   22.889700  -115.065000
  H    -118.368000   23.197900  -115.115000
  H    -117.823000   21.844900  -114.293000
  S    -115.693000   15.292500  -113.329000
  C    -116.574000   14.460600  -112.123000
  C    -117.737000   15.119700  -111.797000
  C    -117.882000   16.357600  -112.543000
  C    -116.712000   16.666400  -113.197000
  H    -118.491000   14.736400  -111.139000
  C    -119.024000   17.345100  -112.422000
  H    -119.459000   17.125500  -113.412000
  H    -118.614000   18.370600  -112.396000
  C    -120.056000   16.980600  -111.310000
  H    -119.654000   17.248100  -110.322000
  H    -120.340000   15.963900  -111.246000
  C    -121.326000   17.817900  -111.436000
  H    -121.198000   18.912500  -111.233000
  H    -122.132000   17.449600  -110.780000
  H    -121.816000   17.865500  -112.394000
  H    -114.343000   20.782900  -114.884000
  H    -116.304000   13.529400  -111.772000

 Total Charge           Charge          ....    0
 Multiplicity           Mult            ....    1
 Number of Electrons    NEL             ....  134
 Basis Dimension        Dim             ....  322

ORBITAL ENERGIES
----------------

  NO   OCC          E(Eh)            E(eV)
   0   2.0000     -88.965362     -2420.8706
   1   2.0000     -88.958595     -2420.6864
   2   2.0000     -10.331131      -281.1244
   3   2.0000     -10.317674      -280.7582
   4   2.0000     -10.316560      -280.7279
   5   2.0000     -10.306904      -280.4651
   6   2.0000     -10.306781      -280.4618
   7   2.0000     -10.302017      -280.3321
   8   2.0000     -10.298261      -280.2299
   9   2.0000     -10.297794      -280.2172
  10   2.0000     -10.292638      -280.0769
  11   2.0000     -10.292446      -280.0717
  12   2.0000     -10.290916      -280.0301
  13   2.0000     -10.285471      -279.8819
  14   2.0000     -10.278905      -279.7032
  15   2.0000     -10.271454      -279.5005
  16   2.0000      -8.079563      -219.8561
  17   2.0000      -8.075069      -219.7338
  18   2.0000      -6.038208      -164.3080
  19   2.0000      -6.034171      -164.1981
  20   2.0000      -6.033421      -164.1777
  21   2.0000      -6.030169      -164.0892
  22   2.0000      -6.029336      -164.0666
  23   2.0000      -6.025895      -163.9729
  24   2.0000      -1.008691       -27.4479
  25   2.0000      -0.983323       -26.7576
  26   2.0000      -0.909599       -24.7514
  27   2.0000      -0.905856       -24.6496
  28   2.0000      -0.868608       -23.6360
  29   2.0000      -0.851933       -23.1823
  30   2.0000      -0.842916       -22.9369
  31   2.0000      -0.817646       -22.2493
  32   2.0000      -0.785114       -21.3640
  33   2.0000      -0.773023       -21.0350
  34   2.0000      -0.713452       -19.4140
  35   2.0000      -0.700284       -19.0557
  36   2.0000      -0.691157       -18.8073
  37   2.0000      -0.656035       -17.8516
  38   2.0000      -0.644580       -17.5399
  39   2.0000      -0.617379       -16.7997
  40   2.0000      -0.598536       -16.2870
  41   2.0000      -0.569804       -15.5052
  42   2.0000      -0.567263       -15.4360
  43   2.0000      -0.555053       -15.1038
  44   2.0000      -0.544509       -14.8168
  45   2.0000      -0.530153       -14.4262
  46   2.0000      -0.516251       -14.0479
  47   2.0000      -0.508182       -13.8283
  48   2.0000      -0.503625       -13.7043
  49   2.0000      -0.497417       -13.5354
  50   2.0000      -0.486863       -13.2482
  51   2.0000      -0.475751       -12.9458
  52   2.0000      -0.472615       -12.8605
  53   2.0000      -0.469733       -12.7821
  54   2.0000      -0.460492       -12.5306
  55   2.0000      -0.453916       -12.3517
  56   2.0000      -0.445352       -12.1186
  57   2.0000      -0.440481       -11.9861
  58   2.0000      -0.436157       -11.8684
  59   2.0000      -0.423487       -11.5237
  60   2.0000      -0.415109       -11.2957
  61   2.0000      -0.412175       -11.2159
  62   2.0000      -0.410857       -11.1800
  63   2.0000      -0.340492        -9.2653
  64   2.0000      -0.328824        -8.9477
  65   2.0000      -0.324455        -8.8289
  66   2.0000      -0.301042        -8.1918
  67   0.0000       0.036803         1.0015
  68   0.0000       0.067514         1.8371
  69   0.0000       0.118470         3.2237
  70   0.0000       0.123681         3.3655
  71   0.0000       0.133991         3.6461

MULLIKEN ATOMIC CHARGES
-----------------------
   0 S :    0.109138
   1 C :   -0.118597
   2 C :   -0.086754
   3 C :    0.072281
   4 C :   -0.157189
   5 H :   -0.010674
   6 C :    0.041686
   7 H :    0.016648
   8 H :    0.019400
   9 C :   -0.063565
  10 H :    0.031102
  11 H :    0.020331
  12 C :   -0.015504
  13 H :    0.032118
  14 H :    0.025045
  15 H :    0.024388
  16 S :    0.113892
  17 C :   -0.038474
  18 C :   -0.039345
  19 C :   -0.050174
  20 C :   -0.195549
  21 H :    0.009535
  22 C :    0.064346
  23 H :    0.038640
  24 H :    0.060188
  25 C :   -0.060145
  26 H :    0.037989
  27 H :    0.030314
  28 C :   -0.065495
  29 H :    0.031612
  30 H :    0.031017
  31 H :    0.017688
  32 H :    0.051993
  33 H :    0.022112
Sum of atomic charges:   -0.0000000

LOEWDIN ATOMIC CHARGES
----------------------
   0 S :    0.386547
   1 C :   -0.186273
   2 C :   -0.062418
   3 C :   -0.052458
   4 C :   -0.188860
   5 H :    0.021018
   6 C :   -0.037848
   7 H :    0.024136
   8 H :    0.035617
   9 C :   -0.039947
  10 H :    0.027537
  11 H :    0.018919
  12 C :   -0.058256
  13 H :    0.029345
  14 H :    0.022532
  15 H :    0.020376
  16 S :    0.432487
  17 C :   -0.181130
  18 C :   -0.072881
  19 C :   -0.054546
  20 C :   -0.217101
  21 H :    0.026983
  22 C :   -0.030700
  23 H :    0.040458
  24 H :    0.041591
  25 C :   -0.038356
  26 H :    0.031769
  27 H :    0.020223
  28 C :   -0.074636
  29 H :    0.028773
  30 H :    0.027600
  31 H :    0.018561
  32 H :    0.029359
  33 H :    0.011581

  Mayer bond orders larger than 0.100000
B(  0-S ,  1-C ) :   1.1278 B(  0-S ,  4-C ) :   1.1366 B(  1-C ,  2-C ) :   1.6436
B(  1-C , 32-H ) :   0.9668 B(  2-C ,  3-C ) :   1.2035 B(  2-C ,  6-C ) :   1.0111
B(  3-C ,  4-C ) :   1.6017 B(  3-C ,  5-H ) :   1.0078 B(  4-C , 20-C ) :   1.0032
B(  6-C ,  7-H ) :   0.9420 B(  6-C ,  8-H ) :   0.9420 B(  6-C ,  9-C ) :   1.0685
B(  9-C , 10-H ) :   0.9542 B(  9-C , 11-H ) :   0.9576 B(  9-C , 12-C ) :   1.0808
B( 12-C , 13-H ) :   0.9758 B( 12-C , 14-H ) :   0.9733 B( 12-C , 15-H ) :   0.9720
B( 16-S , 17-C ) :   1.1679 B( 16-S , 20-C ) :   1.1642 B( 17-C , 18-C ) :   1.5833
B( 17-C , 33-H ) :   0.9771 B( 18-C , 19-C ) :   1.2429 B( 18-C , 21-H ) :   0.9932
B( 19-C , 20-C ) :   1.6123 B( 19-C , 22-C ) :   1.0096 B( 22-C , 23-H ) :   0.9242
B( 22-C , 24-H ) :   0.9435 B( 22-C , 25-C ) :   1.0787 B( 25-C , 26-H ) :   0.9524
B( 25-C , 27-H ) :   0.9519 B( 25-C , 28-C ) :   1.0839 B( 28-C , 29-H ) :   0.9741
B( 28-C , 30-H ) :   0.9740 B( 28-C , 31-H ) :   0.9762

Dispersion correction           -0.014061633
FINAL SINGLE POINT ENERGY     -1339.867595347343

DIPOLE MOMENT
-------------
                                X             Y             Z
Electronic contribution:     23.67519     -17.53175       1.66953
Nuclear contribution   :    -24.34672      17.75702      -1.82159
                        -----------------------------------------
Total Dipole Moment    :     -0.67153       0.22527      -0.15206
                        -----------------------------------------
Magnitude (a.u.)       :      0.72444
Magnitude (Debye)      :      1.84139

Rotational constants in cm-1:     0.016924     0.009070     0.006485
Rotational constants in MHz :   507.359945   271.926621   194.410032

                             ****ORCA TERMINATED NORMALLY****
TOTAL RUN TIME: 0 days 0 hours 0 minutes 21 seconds 263 msec
