                         Program Version 4.2.1 -  RELEASE  -
|  1> ! wB97X-D3 SP def2-SVP
|  2> %pal
|  3> nprocs 24
|  4> end
|  5>
|  6> * xyz 0 1
|  7> S 	 -106.272 	 19.8775 	 -115.674
|  8> C 	 -104.806 	 20.3468 	 -116.314
|  9> C 	 -104.111 	 21.1741 	 -115.488
| 10> C 	 -104.94 	 21.698 	 -114.448
| 11> C 	 -106.238 	 21.2003 	 -114.478
| 12> H 	 -104.699 	 22.4883 	 -113.804
| 13> C 	 -102.702 	 21.5957 	 -115.8
| 14> H 	 -102.528 	 22.7123 	 -115.664
| 15> H 	 -102.723 	 21.5897 	 -116.882
| 16> C 	 -101.553 	 20.6686 	 -115.402
| 17> H 	 -100.589 	 21.1541 	 -115.695
| 18> H 	 -101.439 	 20.7793 	 -114.33
| 19> C 	 -101.685 	 19.2037 	 -115.907
| 20> H 	 -101.75 	 18.9758 	 -116.998
| 21> H 	 -100.781 	 18.6957 	 -115.533
| 22> H 	 -102.553 	 18.6904 	 -115.444
| 23> S 	 -108.212 	 20.7539 	 -112.741
| 24> C 	 -109.271 	 22.0096 	 -112.224
| 25> C 	 -108.985 	 23.2095 	 -112.879
| 26> C 	 -107.777 	 23.1151 	 -113.716
| 27> C 	 -107.364 	 21.7951 	 -113.831
| 28> H 	 -109.448 	 24.1008 	 -112.625
| 29> C 	 -107.204 	 24.3749 	 -114.355
| 30> H 	 -106.114 	 24.2918 	 -114.502
| 31> H 	 -107.306 	 25.0723 	 -113.507
| 32> C 	 -108.017 	 24.9262 	 -115.546
| 33> H 	 -109.107 	 25.0403 	 -115.22
| 34> H 	 -108.159 	 24.1681 	 -116.328
| 35> C 	 -107.419 	 26.227 	 -116.138
| 36> H 	 -107.201 	 26.9907 	 -115.428
| 37> H 	 -108.127 	 26.6584 	 -116.808
| 38> H 	 -106.496 	 25.9407 	 -116.594
| 39> H 	 -104.336 	 19.7056 	 -116.983
| 40> H 	 -109.938 	 21.9471 	 -111.427
| 41> *
| 42>
| 43>                          ****END OF INPUT****

CARTESIAN COORDINATES (ANGSTROEM)
---------------------------------
  S    -106.272000   19.877500  -115.674000
  C    -104.806000   20.346800  -116.314000
  C    -104.111000   21.174100  -115.488000
  C    -104.940000   21.698000  -114.448000
  C    -106.238000   21.200300  -114.478000
  H    -104.699000   22.488300  -113.804000
  C    -102.702000   21.595700  -115.800000
  H    -102.528000   22.712300  -115.664000
  H    -102.723000   21.589700  -116.882000
  C    -101.553000   20.668600  -115.402000
  H    -100.589000   21.154100  -115.695000
  H    -101.439000   20.779300  -114.330000
  C    -101.685000   19.203700  -115.907000
  H    -101.750000   18.975800  -116.998000
  H    -100.781000   18.695700  -115.533000
  H    -102.553000   18.690400  -115.444000
  S    -108.212000   20.753900  -112.741000
  C    -109.271000   22.009600  -112.224000
  C    -108.985000   23.209500  -112.879000
  C    -107.777000   23.115100  -113.716000
  C    -107.364000   21.795100  -113.831000
  H    -109.448000   24.100800  -112.625000
  C    -107.204000   24.374900  -114.355000
  H    -106.114000   24.291800  -114.502000
  H    -107.306000   25.072300  -113.507000
  C    -108.017000   24.926200  -115.546000
  H    -109.107000   25.040300  -115.220000
  H    -108.159000   24.168100  -116.328000
  C    -107.419000   26.227000  -116.138000
  H    -107.201000   26.990700  -115.428000
  H    -108.127000   26.658400  -116.808000
  H    -106.496000   25.940700  -116.594000
  H    -104.336000   19.705600  -116.983000
  H    -109.938000   21.947100  -111.427000

 Total Charge           Charge          ....    0
 Multiplicity           Mult            ....    1
 Number of Electrons    NEL             ....  134
 Basis Dimension        Dim             ....  322

ORBITAL ENERGIES
----------------

  NO   OCC          E(Eh)            E(eV)
   0   2.0000     -88.961881     -2420.7758
   1   2.0000     -88.960534     -2420.7392
   2   2.0000     -10.325000      -280.9575
   3   2.0000     -10.321358      -280.8584
   4   2.0000     -10.313420      -280.6424
   5   2.0000     -10.307628      -280.4848
   6   2.0000     -10.299331      -280.2590
   7   2.0000     -10.296400      -280.1793
   8   2.0000     -10.295133      -280.1448
   9   2.0000     -10.293498      -280.1003
  10   2.0000     -10.293368      -280.0968
  11   2.0000     -10.292784      -280.0809
  12   2.0000     -10.290678      -280.0236
  13   2.0000     -10.289469      -279.9907
  14   2.0000     -10.288271      -279.9581
  15   2.0000     -10.273007      -279.5427
  16   2.0000      -8.077757      -219.8069
  17   2.0000      -8.076815      -219.7813
  18   2.0000      -6.036196      -164.2532
  19   2.0000      -6.035202      -164.2262
  20   2.0000      -6.032024      -164.1397
  21   2.0000      -6.031082      -164.1141
  22   2.0000      -6.028603      -164.0466
  23   2.0000      -6.027628      -164.0201
  24   2.0000      -1.011279       -27.5183
  25   2.0000      -0.989043       -26.9132
  26   2.0000      -0.909224       -24.7412
  27   2.0000      -0.905460       -24.6388
  28   2.0000      -0.874861       -23.8062
  29   2.0000      -0.851135       -23.1606
  30   2.0000      -0.845993       -23.0206
  31   2.0000      -0.814856       -22.1734
  32   2.0000      -0.783007       -21.3067
  33   2.0000      -0.773711       -21.0538
  34   2.0000      -0.712353       -19.3841
  35   2.0000      -0.699795       -19.0424
  36   2.0000      -0.694876       -18.9085
  37   2.0000      -0.668884       -18.2013
  38   2.0000      -0.649752       -17.6806
  39   2.0000      -0.617253       -16.7963
  40   2.0000      -0.594547       -16.1784
  41   2.0000      -0.569680       -15.5018
  42   2.0000      -0.555357       -15.1120
  43   2.0000      -0.543513       -14.7897
  44   2.0000      -0.537952       -14.6384
  45   2.0000      -0.529764       -14.4156
  46   2.0000      -0.520540       -14.1646
  47   2.0000      -0.515936       -14.0393
  48   2.0000      -0.504694       -13.7334
  49   2.0000      -0.499764       -13.5993
  50   2.0000      -0.491737       -13.3808
  51   2.0000      -0.488539       -13.2938
  52   2.0000      -0.466705       -12.6997
  53   2.0000      -0.463410       -12.6100
  54   2.0000      -0.461914       -12.5693
  55   2.0000      -0.450736       -12.2652
  56   2.0000      -0.447496       -12.1770
  57   2.0000      -0.440095       -11.9756
  58   2.0000      -0.431958       -11.7542
  59   2.0000      -0.422817       -11.5054
  60   2.0000      -0.417807       -11.3691
  61   2.0000      -0.411433       -11.1957
  62   2.0000      -0.408045       -11.1035
  63   2.0000      -0.347702        -9.4614
  64   2.0000      -0.327795        -8.9197
  65   2.0000      -0.325898        -8.8681
  66   2.0000      -0.291057        -7.9201
  67   0.0000       0.033858         0.9213
  68   0.0000       0.063178         1.7192
  69   0.0000       0.108515         2.9529
  70   0.0000       0.126514         3.4426
  71   0.0000       0.132049         3.5932

MULLIKEN ATOMIC CHARGES
-----------------------
   0 S :    0.114399
   1 C :   -0.074920
   2 C :   -0.113919
   3 C :    0.051562
   4 C :   -0.155507
   5 H :   -0.006728
   6 C :    0.032120
   7 H :    0.032734
   8 H :    0.015510
   9 C :   -0.038382
  10 H :    0.027491
  11 H :    0.024892
  12 C :   -0.090618
  13 H :    0.046522
  14 H :    0.040119
  15 H :    0.053402
  16 S :    0.105084
  17 C :   -0.059909
  18 C :   -0.014557
  19 C :   -0.066998
  20 C :   -0.148096
  21 H :   -0.005853
  22 C :    0.071923
  23 H :    0.022308
  24 H :    0.024117
  25 C :   -0.106981
  26 H :    0.028607
  27 H :    0.038124
  28 C :    0.003270
  29 H :    0.019328
  30 H :    0.032014
  31 H :    0.031357
  32 H :    0.029523
  33 H :    0.038060
Sum of atomic charges:   -0.0000000

LOEWDIN ATOMIC CHARGES
----------------------
   0 S :    0.422210
   1 C :   -0.206413
   2 C :   -0.069453
   3 C :   -0.048355
   4 C :   -0.192626
   5 H :    0.021023
   6 C :   -0.048556
   7 H :    0.037182
   8 H :    0.030136
   9 C :   -0.042842
  10 H :    0.029446
  11 H :    0.024161
  12 C :   -0.076662
  13 H :    0.029375
  14 H :    0.032461
  15 H :    0.031288
  16 S :    0.425241
  17 C :   -0.181166
  18 C :   -0.060979
  19 C :   -0.046890
  20 C :   -0.210531
  21 H :    0.016459
  22 C :   -0.036376
  23 H :    0.028510
  24 H :    0.034920
  25 C :   -0.042760
  26 H :    0.028069
  27 H :    0.027227
  28 C :   -0.057045
  29 H :    0.020792
  30 H :    0.026050
  31 H :    0.025446
  32 H :    0.012959
  33 H :    0.017699

  Mayer bond orders larger than 0.100000
B(  0-S ,  1-C ) :   1.1664 B(  0-S ,  4-C ) :   1.1434 B(  1-C ,  2-C ) :   1.6043
B(  1-C , 32-H ) :   0.9623 B(  2-C ,  3-C ) :   1.2435 B(  2-C ,  6-C ) :   1.0082
B(  3-C ,  4-C ) :   1.5562 B(  3-C ,  5-H ) :   1.0110 B(  4-C , 20-C ) :   1.0340
B(  6-C ,  7-H ) :   0.9458 B(  6-C ,  8-H ) :   0.9422 B(  6-C ,  9-C ) :   1.0649
B(  9-C , 10-H ) :   0.9533 B(  9-C , 11-H ) :   0.9553 B(  9-C , 12-C ) :   1.0666
B( 12-C , 13-H ) :   0.9754 B( 12-C , 14-H ) :   0.9716 B( 12-C , 15-H ) :   0.9694
B( 16-S , 17-C ) :   1.1648 B( 16-S , 20-C ) :   1.1455 B( 17-C , 18-C ) :   1.6030
B( 17-C , 33-H ) :   0.9770 B( 18-C , 19-C ) :   1.2303 B( 18-C , 21-H ) :   0.9936
B( 19-C , 20-C ) :   1.6056 B( 19-C , 22-C ) :   1.0386 B( 22-C , 23-H ) :   0.9385
B( 22-C , 24-H ) :   0.9266 B( 22-C , 25-C ) :   1.0560 B( 25-C , 26-H ) :   0.9543
B( 25-C , 27-H ) :   0.9577 B( 25-C , 28-C ) :   1.0723 B( 28-C , 29-H ) :   0.9761
B( 28-C , 30-H ) :   0.9739 B( 28-C , 31-H ) :   0.9754

Dispersion correction           -0.014278614
FINAL SINGLE POINT ENERGY     -1339.861934756280

DIPOLE MOMENT
-------------
                                X             Y             Z
Electronic contribution:    -16.24900     -15.23070       9.56806
Nuclear contribution   :     16.66823      15.81112      -9.54838
                        -----------------------------------------
Total Dipole Moment    :      0.41923       0.58042       0.01969
                        -----------------------------------------
Magnitude (a.u.)       :      0.71626
Magnitude (Debye)      :      1.82059

Rotational constants in cm-1:     0.019236     0.008296     0.006546
Rotational constants in MHz :   576.676248   248.717235   196.243518

                             ****ORCA TERMINATED NORMALLY****
TOTAL RUN TIME: 0 days 0 hours 0 minutes 21 seconds 505 msec
