                         Program Version 4.2.1 -  RELEASE  -
|  1> ! wB97X-D3 SP def2-SVP
|  2> %pal
|  3> nprocs 24
|  4> end
|  5>
|  6> * xyz 0 1
|  7> S 	 -32.8167 	 12.0408 	 -3.29164
|  8> C 	 -33.2492 	 10.4655 	 -3.95944
|  9> C 	 -33.662 	 9.6774 	 -2.84571
| 10> C 	 -33.9174 	 10.4091 	 -1.67786
| 11> C 	 -33.4281 	 11.7287 	 -1.71295
| 12> H 	 -34.215 	 10.072 	 -0.698393
| 13> C 	 -33.9325 	 8.27109 	 -2.82669
| 14> H 	 -33.5101 	 7.76991 	 -1.89732
| 15> H 	 -33.2335 	 7.88503 	 -3.55678
| 16> C 	 -35.3839 	 8.03632 	 -3.14897
| 17> H 	 -36.0324 	 8.71994 	 -2.68229
| 18> H 	 -35.5509 	 8.31133 	 -4.17756
| 19> C 	 -35.7044 	 6.53565 	 -3.01477
| 20> H 	 -35.6048 	 6.23216 	 -1.9143
| 21> H 	 -36.7601 	 6.39322 	 -3.38433
| 22> H 	 -34.9606 	 5.88123 	 -3.51748
| 23> S 	 -31.4565 	 13.1393 	 -0.543377
| 24> C 	 -31.6276 	 13.7348 	 1.05328
| 25> C 	 -32.9544 	 13.7024 	 1.52506
| 26> C 	 -33.7684 	 12.9929 	 0.583783
| 27> C 	 -33.1203 	 12.5349 	 -0.568056
| 28> H 	 -33.3419 	 14.1621 	 2.43228
| 29> C 	 -35.2089 	 12.5724 	 0.971324
| 30> H 	 -35.2024 	 11.4997 	 1.26806
| 31> H 	 -35.7953 	 12.6376 	 0.0502019
| 32> C 	 -35.9757 	 13.2719 	 2.12934
| 33> H 	 -35.4291 	 13.2208 	 3.09228
| 34> H 	 -36.876 	 12.7134 	 2.31976
| 35> C 	 -36.3216 	 14.6664 	 1.71762
| 36> H 	 -37.3304 	 14.7864 	 1.15349
| 37> H 	 -35.5121 	 15.1719 	 1.06968
| 38> H 	 -36.387 	 15.2785 	 2.58188
| 39> H 	 -33.0311 	 10.1313 	 -4.98294
| 40> H 	 -30.9388 	 14.3748 	 1.48836
| 41> *
| 42>
| 43>                          ****END OF INPUT****

CARTESIAN COORDINATES (ANGSTROEM)
---------------------------------
  S    -32.816700   12.040800   -3.291640
  C    -33.249200   10.465500   -3.959440
  C    -33.662000    9.677400   -2.845710
  C    -33.917400   10.409100   -1.677860
  C    -33.428100   11.728700   -1.712950
  H    -34.215000   10.072000   -0.698393
  C    -33.932500    8.271090   -2.826690
  H    -33.510100    7.769910   -1.897320
  H    -33.233500    7.885030   -3.556780
  C    -35.383900    8.036320   -3.148970
  H    -36.032400    8.719940   -2.682290
  H    -35.550900    8.311330   -4.177560
  C    -35.704400    6.535650   -3.014770
  H    -35.604800    6.232160   -1.914300
  H    -36.760100    6.393220   -3.384330
  H    -34.960600    5.881230   -3.517480
  S    -31.456500   13.139300   -0.543377
  C    -31.627600   13.734800    1.053280
  C    -32.954400   13.702400    1.525060
  C    -33.768400   12.992900    0.583783
  C    -33.120300   12.534900   -0.568056
  H    -33.341900   14.162100    2.432280
  C    -35.208900   12.572400    0.971324
  H    -35.202400   11.499700    1.268060
  H    -35.795300   12.637600    0.050202
  C    -35.975700   13.271900    2.129340
  H    -35.429100   13.220800    3.092280
  H    -36.876000   12.713400    2.319760
  C    -36.321600   14.666400    1.717620
  H    -37.330400   14.786400    1.153490
  H    -35.512100   15.171900    1.069680
  H    -36.387000   15.278500    2.581880
  H    -33.031100   10.131300   -4.982940
  H    -30.938800   14.374800    1.488360

 Total Charge           Charge          ....    0
 Multiplicity           Mult            ....    1
 Number of Electrons    NEL             ....  134
 Basis Dimension        Dim             ....  322

ORBITAL ENERGIES
----------------

  NO   OCC          E(Eh)            E(eV)
   0   2.0000     -88.967050     -2420.9165
   1   2.0000     -88.965908     -2420.8854
   2   2.0000     -10.328847      -281.0622
   3   2.0000     -10.328369      -281.0492
   4   2.0000     -10.321327      -280.8576
   5   2.0000     -10.312445      -280.6159
   6   2.0000     -10.307774      -280.4888
   7   2.0000     -10.299255      -280.2570
   8   2.0000     -10.298207      -280.2285
   9   2.0000     -10.294264      -280.1212
  10   2.0000     -10.289482      -279.9910
  11   2.0000     -10.289320      -279.9866
  12   2.0000     -10.289211      -279.9837
  13   2.0000     -10.284606      -279.8583
  14   2.0000     -10.282636      -279.8048
  15   2.0000     -10.280930      -279.7583
  16   2.0000      -8.081645      -219.9127
  17   2.0000      -8.080998      -219.8951
  18   2.0000      -6.040174      -164.3615
  19   2.0000      -6.039448      -164.3417
  20   2.0000      -6.035910      -164.2455
  21   2.0000      -6.035422      -164.2322
  22   2.0000      -6.032652      -164.1568
  23   2.0000      -6.031820      -164.1342
  24   2.0000      -1.009655       -27.4741
  25   2.0000      -0.985207       -26.8089
  26   2.0000      -0.925178       -25.1754
  27   2.0000      -0.908541       -24.7227
  28   2.0000      -0.869917       -23.6716
  29   2.0000      -0.852575       -23.1997
  30   2.0000      -0.845101       -22.9964
  31   2.0000      -0.812098       -22.0983
  32   2.0000      -0.778427       -21.1821
  33   2.0000      -0.765897       -20.8411
  34   2.0000      -0.710593       -19.3362
  35   2.0000      -0.704989       -19.1837
  36   2.0000      -0.696691       -18.9579
  37   2.0000      -0.660897       -17.9839
  38   2.0000      -0.645204       -17.5569
  39   2.0000      -0.618808       -16.8386
  40   2.0000      -0.595237       -16.1972
  41   2.0000      -0.569437       -15.4952
  42   2.0000      -0.555687       -15.1210
  43   2.0000      -0.551992       -15.0205
  44   2.0000      -0.537807       -14.6345
  45   2.0000      -0.536045       -14.5865
  46   2.0000      -0.520571       -14.1654
  47   2.0000      -0.517736       -14.0883
  48   2.0000      -0.503938       -13.7128
  49   2.0000      -0.500882       -13.6297
  50   2.0000      -0.494738       -13.4625
  51   2.0000      -0.475906       -12.9501
  52   2.0000      -0.471088       -12.8190
  53   2.0000      -0.463910       -12.6236
  54   2.0000      -0.458506       -12.4766
  55   2.0000      -0.450579       -12.2609
  56   2.0000      -0.444734       -12.1018
  57   2.0000      -0.442063       -12.0291
  58   2.0000      -0.428987       -11.6733
  59   2.0000      -0.418869       -11.3980
  60   2.0000      -0.414296       -11.2736
  61   2.0000      -0.411633       -11.2011
  62   2.0000      -0.406902       -11.0724
  63   2.0000      -0.348666        -9.4877
  64   2.0000      -0.330629        -8.9969
  65   2.0000      -0.325875        -8.8675
  66   2.0000      -0.283340        -7.7101
  67   0.0000       0.021644         0.5890
  68   0.0000       0.063659         1.7322
  69   0.0000       0.113638         3.0922
  70   0.0000       0.124327         3.3831
  71   0.0000       0.126647         3.4462

MULLIKEN ATOMIC CHARGES
-----------------------
   0 S :    0.103215
   1 C :   -0.117362
   2 C :   -0.125128
   3 C :    0.032900
   4 C :   -0.133699
   5 H :    0.007094
   6 C :    0.046559
   7 H :    0.037459
   8 H :    0.010995
   9 C :   -0.024855
  10 H :    0.018414
  11 H :    0.011831
  12 C :   -0.058938
  13 H :    0.036666
  14 H :    0.048166
  15 H :    0.038123
  16 S :    0.106533
  17 C :   -0.051886
  18 C :   -0.046897
  19 C :   -0.043094
  20 C :   -0.153727
  21 H :    0.026434
  22 C :    0.007689
  23 H :    0.046776
  24 H :    0.036093
  25 C :   -0.052413
  26 H :    0.033806
  27 H :    0.027933
  28 C :   -0.094119
  29 H :    0.050709
  30 H :    0.051900
  31 H :    0.021118
  32 H :    0.064144
  33 H :    0.037561
Sum of atomic charges:   -0.0000000

LOEWDIN ATOMIC CHARGES
----------------------
   0 S :    0.419492
   1 C :   -0.211887
   2 C :   -0.059193
   3 C :   -0.062889
   4 C :   -0.207465
   5 H :    0.029344
   6 C :   -0.045233
   7 H :    0.038739
   8 H :    0.029227
   9 C :   -0.034612
  10 H :    0.020637
  11 H :    0.026516
  12 C :   -0.071987
  13 H :    0.029326
  14 H :    0.031415
  15 H :    0.028278
  16 S :    0.422166
  17 C :   -0.187433
  18 C :   -0.070681
  19 C :   -0.057846
  20 C :   -0.193466
  21 H :    0.034009
  22 C :   -0.036503
  23 H :    0.033239
  24 H :    0.031806
  25 C :   -0.048408
  26 H :    0.025501
  27 H :    0.028860
  28 C :   -0.081215
  29 H :    0.037966
  30 H :    0.035578
  31 H :    0.017442
  32 H :    0.035776
  33 H :    0.013499

  Mayer bond orders larger than 0.100000
B(  0-S ,  1-C ) :   1.1375 B(  0-S ,  4-C ) :   1.1765 B(  1-C ,  2-C ) :   1.5292
B(  1-C ,  4-C ) :   0.1113 B(  1-C , 32-H ) :   0.9731 B(  2-C ,  3-C ) :   1.2939
B(  2-C ,  6-C ) :   1.0519 B(  3-C ,  4-C ) :   1.4982 B(  3-C ,  5-H ) :   0.9928
B(  4-C , 20-C ) :   1.0766 B(  6-C ,  7-H ) :   0.9424 B(  6-C ,  8-H ) :   0.9224
B(  6-C ,  9-C ) :   1.0510 B(  9-C , 10-H ) :   0.9610 B(  9-C , 11-H ) :   0.9430
B(  9-C , 12-C ) :   1.0711 B( 12-C , 13-H ) :   0.9770 B( 12-C , 14-H ) :   0.9735
B( 12-C , 15-H ) :   0.9713 B( 16-S , 17-C ) :   1.1865 B( 16-S , 20-C ) :   1.1331
B( 17-C , 18-C ) :   1.5636 B( 17-C , 20-C ) :   0.1030 B( 17-C , 33-H ) :   0.9672
B( 18-C , 19-C ) :   1.2757 B( 18-C , 21-H ) :   0.9855 B( 19-C , 20-C ) :   1.5765
B( 19-C , 22-C ) :   1.0245 B( 22-C , 23-H ) :   0.9380 B( 22-C , 24-H ) :   0.9377
B( 22-C , 25-C ) :   1.0854 B( 25-C , 26-H ) :   0.9525 B( 25-C , 27-H ) :   0.9481
B( 25-C , 28-C ) :   1.0684 B( 28-C , 29-H ) :   0.9724 B( 28-C , 30-H ) :   0.9784
B( 28-C , 31-H ) :   0.9739

Dispersion correction           -0.013839400
FINAL SINGLE POINT ENERGY     -1339.850848851265

DIPOLE MOMENT
-------------
                                X             Y             Z
Electronic contribution:     21.38760      12.70168      -7.67903
Nuclear contribution   :    -21.73454     -13.05777       7.99372
                        -----------------------------------------
Total Dipole Moment    :     -0.34694      -0.35609       0.31469
                        -----------------------------------------
Magnitude (a.u.)       :      0.58838
Magnitude (Debye)      :      1.49555

Rotational constants in cm-1:     0.019377     0.007915     0.006266
Rotational constants in MHz :   580.913422   237.274121   187.848431

                             ****ORCA TERMINATED NORMALLY****
TOTAL RUN TIME: 0 days 0 hours 0 minutes 21 seconds 306 msec
