                         Program Version 4.2.1 -  RELEASE  -
|  1> ! wB97X-D3 SP def2-SVP
|  2> %pal
|  3> nprocs 24
|  4> end
|  5>
|  6> * xyz 0 1
|  7> S 	 22.1764 	 -24.5951 	 -120.03
|  8> C 	 23.6193 	 -25.5467 	 -120.125
|  9> C 	 24.2647 	 -25.6181 	 -118.883
| 10> C 	 23.5597 	 -24.8938 	 -117.894
| 11> C 	 22.4125 	 -24.2423 	 -118.318
| 12> H 	 23.9906 	 -24.5793 	 -116.956
| 13> C 	 25.5366 	 -26.3776 	 -118.492
| 14> H 	 25.6164 	 -27.3014 	 -119.117
| 15> H 	 25.5137 	 -26.7103 	 -117.44
| 16> C 	 26.7774 	 -25.5915 	 -118.979
| 17> H 	 26.6707 	 -25.2411 	 -120.02
| 18> H 	 26.8688 	 -24.6653 	 -118.441
| 19> C 	 28.097 	 -26.3574 	 -119.024
| 20> H 	 28.9439 	 -25.7715 	 -119.463
| 21> H 	 28.4018 	 -26.5575 	 -118.009
| 22> H 	 27.9626 	 -27.3447 	 -119.396
| 23> S 	 20.8145 	 -24.4232 	 -116.132
| 24> C 	 19.8688 	 -23.0585 	 -115.654
| 25> C 	 20.0834 	 -21.9586 	 -116.441
| 26> C 	 20.9552 	 -22.227 	 -117.488
| 27> C 	 21.4738 	 -23.5098 	 -117.47
| 28> H 	 19.6123 	 -21.0272 	 -116.139
| 29> C 	 21.1261 	 -21.2635 	 -118.619
| 30> H 	 20.3223 	 -20.5783 	 -118.829
| 31> H 	 21.3307 	 -21.86 	 -119.537
| 32> C 	 22.3199 	 -20.3132 	 -118.436
| 33> H 	 23.2898 	 -20.8468 	 -118.68
| 34> H 	 22.3591 	 -19.9971 	 -117.4
| 35> C 	 22.262 	 -19.0429 	 -119.412
| 36> H 	 22.2942 	 -19.4053 	 -120.409
| 37> H 	 23.269 	 -18.5598 	 -119.385
| 38> H 	 21.4989 	 -18.3394 	 -119.051
| 39> H 	 23.9627 	 -25.9735 	 -121.053
| 40> H 	 19.0931 	 -23.0577 	 -114.902
| 41> *
| 42>
| 43>                          ****END OF INPUT****

CARTESIAN COORDINATES (ANGSTROEM)
---------------------------------
  S     22.176400  -24.595100  -120.030000
  C     23.619300  -25.546700  -120.125000
  C     24.264700  -25.618100  -118.883000
  C     23.559700  -24.893800  -117.894000
  C     22.412500  -24.242300  -118.318000
  H     23.990600  -24.579300  -116.956000
  C     25.536600  -26.377600  -118.492000
  H     25.616400  -27.301400  -119.117000
  H     25.513700  -26.710300  -117.440000
  C     26.777400  -25.591500  -118.979000
  H     26.670700  -25.241100  -120.020000
  H     26.868800  -24.665300  -118.441000
  C     28.097000  -26.357400  -119.024000
  H     28.943900  -25.771500  -119.463000
  H     28.401800  -26.557500  -118.009000
  H     27.962600  -27.344700  -119.396000
  S     20.814500  -24.423200  -116.132000
  C     19.868800  -23.058500  -115.654000
  C     20.083400  -21.958600  -116.441000
  C     20.955200  -22.227000  -117.488000
  C     21.473800  -23.509800  -117.470000
  H     19.612300  -21.027200  -116.139000
  C     21.126100  -21.263500  -118.619000
  H     20.322300  -20.578300  -118.829000
  H     21.330700  -21.860000  -119.537000
  C     22.319900  -20.313200  -118.436000
  H     23.289800  -20.846800  -118.680000
  H     22.359100  -19.997100  -117.400000
  C     22.262000  -19.042900  -119.412000
  H     22.294200  -19.405300  -120.409000
  H     23.269000  -18.559800  -119.385000
  H     21.498900  -18.339400  -119.051000
  H     23.962700  -25.973500  -121.053000
  H     19.093100  -23.057700  -114.902000

 Total Charge           Charge          ....    0
 Multiplicity           Mult            ....    1
 Number of Electrons    NEL             ....  134
 Basis Dimension        Dim             ....  322

ORBITAL ENERGIES
----------------

  NO   OCC          E(Eh)            E(eV)
   0   2.0000     -88.967808     -2420.9371
   1   2.0000     -88.967276     -2420.9226
   2   2.0000     -10.329997      -281.0935
   3   2.0000     -10.324831      -280.9529
   4   2.0000     -10.316103      -280.7154
   5   2.0000     -10.312848      -280.6269
   6   2.0000     -10.303350      -280.3684
   7   2.0000     -10.300341      -280.2865
   8   2.0000     -10.299228      -280.2562
   9   2.0000     -10.289212      -279.9837
  10   2.0000     -10.288761      -279.9714
  11   2.0000     -10.286545      -279.9111
  12   2.0000     -10.285925      -279.8942
  13   2.0000     -10.284732      -279.8618
  14   2.0000     -10.280729      -279.7529
  15   2.0000     -10.275589      -279.6130
  16   2.0000      -8.082245      -219.9291
  17   2.0000      -8.082197      -219.9278
  18   2.0000      -6.040675      -164.3751
  19   2.0000      -6.040577      -164.3725
  20   2.0000      -6.036681      -164.2664
  21   2.0000      -6.036569      -164.2634
  22   2.0000      -6.033200      -164.1717
  23   2.0000      -6.033200      -164.1717
  24   2.0000      -1.010416       -27.4948
  25   2.0000      -0.988136       -26.8885
  26   2.0000      -0.909163       -24.7396
  27   2.0000      -0.905347       -24.6358
  28   2.0000      -0.871353       -23.7107
  29   2.0000      -0.851569       -23.1724
  30   2.0000      -0.846143       -23.0247
  31   2.0000      -0.813364       -22.1328
  32   2.0000      -0.780883       -21.2489
  33   2.0000      -0.769600       -20.9419
  34   2.0000      -0.703352       -19.1392
  35   2.0000      -0.700188       -19.0531
  36   2.0000      -0.686135       -18.6707
  37   2.0000      -0.667082       -18.1522
  38   2.0000      -0.642592       -17.4858
  39   2.0000      -0.619251       -16.8507
  40   2.0000      -0.599334       -16.3087
  41   2.0000      -0.570285       -15.5182
  42   2.0000      -0.566337       -15.4108
  43   2.0000      -0.557929       -15.1820
  44   2.0000      -0.528706       -14.3868
  45   2.0000      -0.522956       -14.2304
  46   2.0000      -0.518298       -14.1036
  47   2.0000      -0.507837       -13.8189
  48   2.0000      -0.504233       -13.7209
  49   2.0000      -0.498417       -13.5626
  50   2.0000      -0.491094       -13.3634
  51   2.0000      -0.479562       -13.0496
  52   2.0000      -0.472387       -12.8543
  53   2.0000      -0.467865       -12.7313
  54   2.0000      -0.463553       -12.6139
  55   2.0000      -0.444429       -12.0935
  56   2.0000      -0.442357       -12.0372
  57   2.0000      -0.433381       -11.7929
  58   2.0000      -0.428836       -11.6692
  59   2.0000      -0.422867       -11.5068
  60   2.0000      -0.420433       -11.4406
  61   2.0000      -0.414438       -11.2774
  62   2.0000      -0.410127       -11.1601
  63   2.0000      -0.342794        -9.3279
  64   2.0000      -0.335832        -9.1385
  65   2.0000      -0.328066        -8.9271
  66   2.0000      -0.292649        -7.9634
  67   0.0000       0.033096         0.9006
  68   0.0000       0.064318         1.7502
  69   0.0000       0.111437         3.0324
  70   0.0000       0.119487         3.2514
  71   0.0000       0.126612         3.4453

MULLIKEN ATOMIC CHARGES
-----------------------
   0 S :    0.114037
   1 C :   -0.126456
   2 C :   -0.077814
   3 C :    0.006923
   4 C :   -0.148448
   5 H :    0.020424
   6 C :    0.063226
   7 H :    0.023366
   8 H :    0.044323
   9 C :   -0.091489
  10 H :    0.028056
  11 H :    0.020322
  12 C :   -0.021006
  13 H :    0.048479
  14 H :    0.010837
  15 H :    0.019272
  16 S :    0.130109
  17 C :   -0.089329
  18 C :   -0.052125
  19 C :    0.015129
  20 C :   -0.174983
  21 H :    0.020711
  22 C :    0.081852
  23 H :    0.018404
  24 H :    0.020153
  25 C :   -0.129558
  26 H :    0.039318
  27 H :    0.027640
  28 C :   -0.051020
  29 H :    0.029586
  30 H :    0.031191
  31 H :    0.052784
  32 H :    0.046396
  33 H :    0.049688
Sum of atomic charges:   -0.0000000

LOEWDIN ATOMIC CHARGES
----------------------
   0 S :    0.416403
   1 C :   -0.201177
   2 C :   -0.060659
   3 C :   -0.072642
   4 C :   -0.196087
   5 H :    0.031513
   6 C :   -0.030372
   7 H :    0.034237
   8 H :    0.035312
   9 C :   -0.044985
  10 H :    0.026946
  11 H :    0.018843
  12 C :   -0.068777
  13 H :    0.035752
  14 H :    0.019945
  15 H :    0.019183
  16 S :    0.430507
  17 C :   -0.187788
  18 C :   -0.072837
  19 C :   -0.055468
  20 C :   -0.201376
  21 H :    0.035817
  22 C :   -0.036341
  23 H :    0.027655
  24 H :    0.027172
  25 C :   -0.039715
  26 H :    0.028075
  27 H :    0.016605
  28 C :   -0.072220
  29 H :    0.022374
  30 H :    0.032254
  31 H :    0.028403
  32 H :    0.025806
  33 H :    0.027643

  Mayer bond orders larger than 0.100000
B(  0-S ,  1-C ) :   1.1594 B(  0-S ,  4-C ) :   1.1529 B(  1-C ,  2-C ) :   1.5749
B(  1-C ,  4-C ) :   0.1040 B(  1-C , 32-H ) :   0.9716 B(  2-C ,  3-C ) :   1.2773
B(  2-C ,  6-C ) :   1.0236 B(  3-C ,  4-C ) :   1.5593 B(  3-C ,  5-H ) :   0.9901
B(  4-C , 20-C ) :   1.0299 B(  6-C ,  7-H ) :   0.9388 B(  6-C ,  8-H ) :   0.9488
B(  6-C ,  9-C ) :   1.0452 B(  9-C , 10-H ) :   0.9610 B(  9-C , 11-H ) :   0.9547
B(  9-C , 12-C ) :   1.0825 B( 12-C , 13-H ) :   0.9734 B( 12-C , 14-H ) :   0.9702
B( 12-C , 15-H ) :   0.9711 B( 16-S , 17-C ) :   1.1723 B( 16-S , 20-C ) :   1.1503
B( 17-C , 18-C ) :   1.6005 B( 17-C , 33-H ) :   0.9648 B( 18-C , 19-C ) :   1.2514
B( 18-C , 21-H ) :   0.9951 B( 19-C , 20-C ) :   1.5745 B( 19-C , 22-C ) :   1.0479
B( 22-C , 23-H ) :   0.9464 B( 22-C , 24-H ) :   0.9262 B( 22-C , 25-C ) :   1.0468
B( 25-C , 26-H ) :   0.9576 B( 25-C , 27-H ) :   0.9636 B( 25-C , 28-C ) :   1.0805
B( 28-C , 29-H ) :   0.9728 B( 28-C , 30-H ) :   0.9745 B( 28-C , 31-H ) :   0.9753

Dispersion correction           -0.013759449
FINAL SINGLE POINT ENERGY     -1339.877195478720

DIPOLE MOMENT
-------------
                                X             Y             Z
Electronic contribution:    -20.78377      -9.49824       5.99058
Nuclear contribution   :     21.08069       9.72710      -5.93692
                        -----------------------------------------
Total Dipole Moment    :      0.29692       0.22886       0.05366
                        -----------------------------------------
Magnitude (a.u.)       :      0.37870
Magnitude (Debye)      :      0.96259

Rotational constants in cm-1:     0.018750     0.007670     0.006492
Rotational constants in MHz :   562.105719   229.948651   194.614773

                             ****ORCA TERMINATED NORMALLY****
TOTAL RUN TIME: 0 days 0 hours 0 minutes 21 seconds 30 msec
