                         Program Version 4.2.1 -  RELEASE  -
|  1> ! wB97X-D3 SP def2-SVP
|  2> %pal
|  3> nprocs 24
|  4> end
|  5>
|  6> * xyz 0 1
|  7> S 	 -31.1639 	 -34.9777 	 -93.635
|  8> C 	 -32.378 	 -36.0671 	 -93.0569
|  9> C 	 -31.8221 	 -37.1868 	 -92.4806
| 10> C 	 -30.4616 	 -36.99 	 -92.2599
| 11> C 	 -29.9014 	 -35.8348 	 -92.8334
| 12> H 	 -29.7371 	 -37.5535 	 -91.6509
| 13> C 	 -32.501 	 -38.4566 	 -91.98
| 14> H 	 -33.3685 	 -38.0267 	 -91.5033
| 15> H 	 -31.8281 	 -38.8941 	 -91.2109
| 16> C 	 -32.7688 	 -39.4379 	 -93.0181
| 17> H 	 -33.4435 	 -38.9152 	 -93.6149
| 18> H 	 -31.8268 	 -39.5755 	 -93.5876
| 19> C 	 -33.3707 	 -40.8167 	 -92.6058
| 20> H 	 -33.1088 	 -41.574 	 -93.3991
| 21> H 	 -33.0724 	 -41.2572 	 -91.6457
| 22> H 	 -34.4461 	 -40.8491 	 -92.4966
| 23> S 	 -27.2494 	 -36.1973 	 -93.5525
| 24> C 	 -26.1066 	 -35.1273 	 -92.8953
| 25> C 	 -26.6345 	 -34.2903 	 -91.9566
| 26> C 	 -28.0437 	 -34.3722 	 -91.8647
| 27> C 	 -28.5542 	 -35.329 	 -92.7128
| 28> H 	 -26.0136 	 -33.685 	 -91.3939
| 29> C 	 -28.8023 	 -33.3733 	 -90.973
| 30> H 	 -28.1901 	 -33.0478 	 -90.0983
| 31> H 	 -29.6479 	 -33.9499 	 -90.5159
| 32> C 	 -29.2907 	 -32.1019 	 -91.8326
| 33> H 	 -30.022 	 -32.4322 	 -92.5366
| 34> H 	 -28.5174 	 -31.7827 	 -92.6
| 35> C 	 -29.8312 	 -30.9443 	 -91.0035
| 36> H 	 -30.0009 	 -30.0826 	 -91.7123
| 37> H 	 -29.1822 	 -30.6187 	 -90.231
| 38> H 	 -30.7969 	 -31.2467 	 -90.6241
| 39> H 	 -33.4486 	 -36.0666 	 -93.4448
| 40> H 	 -25.0586 	 -35.0345 	 -93.0898
| 41> *
| 42>
| 43>                          ****END OF INPUT****

CARTESIAN COORDINATES (ANGSTROEM)
---------------------------------
  S    -31.163900  -34.977700  -93.635000
  C    -32.378000  -36.067100  -93.056900
  C    -31.822100  -37.186800  -92.480600
  C    -30.461600  -36.990000  -92.259900
  C    -29.901400  -35.834800  -92.833400
  H    -29.737100  -37.553500  -91.650900
  C    -32.501000  -38.456600  -91.980000
  H    -33.368500  -38.026700  -91.503300
  H    -31.828100  -38.894100  -91.210900
  C    -32.768800  -39.437900  -93.018100
  H    -33.443500  -38.915200  -93.614900
  H    -31.826800  -39.575500  -93.587600
  C    -33.370700  -40.816700  -92.605800
  H    -33.108800  -41.574000  -93.399100
  H    -33.072400  -41.257200  -91.645700
  H    -34.446100  -40.849100  -92.496600
  S    -27.249400  -36.197300  -93.552500
  C    -26.106600  -35.127300  -92.895300
  C    -26.634500  -34.290300  -91.956600
  C    -28.043700  -34.372200  -91.864700
  C    -28.554200  -35.329000  -92.712800
  H    -26.013600  -33.685000  -91.393900
  C    -28.802300  -33.373300  -90.973000
  H    -28.190100  -33.047800  -90.098300
  H    -29.647900  -33.949900  -90.515900
  C    -29.290700  -32.101900  -91.832600
  H    -30.022000  -32.432200  -92.536600
  H    -28.517400  -31.782700  -92.600000
  C    -29.831200  -30.944300  -91.003500
  H    -30.000900  -30.082600  -91.712300
  H    -29.182200  -30.618700  -90.231000
  H    -30.796900  -31.246700  -90.624100
  H    -33.448600  -36.066600  -93.444800
  H    -25.058600  -35.034500  -93.089800

 Total Charge           Charge          ....    0
 Multiplicity           Mult            ....    1
 Number of Electrons    NEL             ....  134
 Basis Dimension        Dim             ....  322

ORBITAL ENERGIES
----------------

  NO   OCC          E(Eh)            E(eV)
   0   2.0000     -88.967451     -2420.9274
   1   2.0000     -88.966255     -2420.8949
   2   2.0000     -10.323619      -280.9200
   3   2.0000     -10.322739      -280.8960
   4   2.0000     -10.315942      -280.7111
   5   2.0000     -10.309022      -280.5228
   6   2.0000     -10.302037      -280.3327
   7   2.0000     -10.301437      -280.3163
   8   2.0000     -10.297279      -280.2032
   9   2.0000     -10.290453      -280.0175
  10   2.0000     -10.287605      -279.9400
  11   2.0000     -10.286874      -279.9201
  12   2.0000     -10.283975      -279.8412
  13   2.0000     -10.281775      -279.7813
  14   2.0000     -10.280636      -279.7503
  15   2.0000     -10.275969      -279.6233
  16   2.0000      -8.082344      -219.9318
  17   2.0000      -8.081435      -219.9070
  18   2.0000      -6.040712      -164.3761
  19   2.0000      -6.039918      -164.3545
  20   2.0000      -6.036660      -164.2659
  21   2.0000      -6.035910      -164.2455
  22   2.0000      -6.033416      -164.1776
  23   2.0000      -6.032178      -164.1439
  24   2.0000      -1.011399       -27.5216
  25   2.0000      -0.991764       -26.9873
  26   2.0000      -0.921934       -25.0871
  27   2.0000      -0.897153       -24.4128
  28   2.0000      -0.870509       -23.6877
  29   2.0000      -0.852057       -23.1856
  30   2.0000      -0.848463       -23.0879
  31   2.0000      -0.810504       -22.0549
  32   2.0000      -0.786300       -21.3963
  33   2.0000      -0.770726       -20.9725
  34   2.0000      -0.705786       -19.2054
  35   2.0000      -0.702412       -19.1136
  36   2.0000      -0.693420       -18.8689
  37   2.0000      -0.662812       -18.0360
  38   2.0000      -0.639660       -17.4060
  39   2.0000      -0.614988       -16.7347
  40   2.0000      -0.592150       -16.1132
  41   2.0000      -0.575846       -15.6696
  42   2.0000      -0.564019       -15.3477
  43   2.0000      -0.551228       -14.9997
  44   2.0000      -0.528173       -14.3723
  45   2.0000      -0.519559       -14.1379
  46   2.0000      -0.515337       -14.0230
  47   2.0000      -0.513724       -13.9791
  48   2.0000      -0.507342       -13.8055
  49   2.0000      -0.497540       -13.5387
  50   2.0000      -0.494368       -13.4524
  51   2.0000      -0.477400       -12.9907
  52   2.0000      -0.467582       -12.7235
  53   2.0000      -0.466288       -12.6883
  54   2.0000      -0.459430       -12.5017
  55   2.0000      -0.453136       -12.3305
  56   2.0000      -0.442977       -12.0540
  57   2.0000      -0.436347       -11.8736
  58   2.0000      -0.431308       -11.7365
  59   2.0000      -0.422639       -11.5006
  60   2.0000      -0.420581       -11.4446
  61   2.0000      -0.414950       -11.2914
  62   2.0000      -0.406826       -11.0703
  63   2.0000      -0.336862        -9.1665
  64   2.0000      -0.330673        -8.9981
  65   2.0000      -0.328369        -8.9354
  66   2.0000      -0.302824        -8.2403
  67   0.0000       0.040546         1.1033
  68   0.0000       0.058131         1.5818
  69   0.0000       0.113032         3.0758
  70   0.0000       0.123983         3.3737
  71   0.0000       0.137967         3.7543

MULLIKEN ATOMIC CHARGES
-----------------------
   0 S :    0.127977
   1 C :   -0.152547
   2 C :   -0.103811
   3 C :    0.024458
   4 C :   -0.196975
   5 H :    0.015708
   6 C :    0.087956
   7 H :    0.024818
   8 H :    0.019945
   9 C :   -0.036458
  10 H :    0.006230
  11 H :    0.036229
  12 C :   -0.049494
  13 H :    0.043197
  14 H :    0.026755
  15 H :    0.027303
  16 S :    0.126550
  17 C :   -0.063436
  18 C :   -0.023606
  19 C :    0.003179
  20 C :   -0.204751
  21 H :   -0.016510
  22 C :    0.055687
  23 H :    0.027700
  24 H :    0.042050
  25 C :   -0.090570
  26 H :    0.013753
  27 H :    0.032907
  28 C :   -0.019968
  29 H :    0.038587
  30 H :    0.030349
  31 H :    0.032025
  32 H :    0.071368
  33 H :    0.043397
Sum of atomic charges:   -0.0000000

LOEWDIN ATOMIC CHARGES
----------------------
   0 S :    0.441300
   1 C :   -0.221988
   2 C :   -0.067522
   3 C :   -0.067470
   4 C :   -0.213018
   5 H :    0.033889
   6 C :   -0.027685
   7 H :    0.029304
   8 H :    0.029830
   9 C :   -0.042118
  10 H :    0.018395
  11 H :    0.033350
  12 C :   -0.072903
  13 H :    0.036023
  14 H :    0.025008
  15 H :    0.023700
  16 S :    0.420215
  17 C :   -0.193403
  18 C :   -0.067463
  19 C :   -0.044324
  20 C :   -0.208115
  21 H :    0.018095
  22 C :   -0.031513
  23 H :    0.030672
  24 H :    0.035883
  25 C :   -0.046293
  26 H :    0.012123
  27 H :    0.029398
  28 C :   -0.062835
  29 H :    0.035951
  30 H :    0.017896
  31 H :    0.025879
  32 H :    0.040631
  33 H :    0.029110

  Mayer bond orders larger than 0.100000
B(  0-S ,  1-C ) :   1.1675 B(  0-S ,  4-C ) :   1.1757 B(  1-C ,  2-C ) :   1.5816
B(  1-C ,  4-C ) :   0.1095 B(  1-C , 32-H ) :   0.9541 B(  2-C ,  3-C ) :   1.2726
B(  2-C ,  6-C ) :   0.9995 B(  3-C ,  4-C ) :   1.5649 B(  3-C ,  5-H ) :   0.9907
B(  4-C , 20-C ) :   1.0209 B(  6-C ,  7-H ) :   0.9384 B(  6-C ,  8-H ) :   0.9365
B(  6-C ,  9-C ) :   1.0752 B(  9-C , 10-H ) :   0.9527 B(  9-C , 11-H ) :   0.9538
B(  9-C , 12-C ) :   1.0679 B( 12-C , 13-H ) :   0.9777 B( 12-C , 14-H ) :   0.9771
B( 12-C , 15-H ) :   0.9754 B( 16-S , 17-C ) :   1.1638 B( 16-S , 20-C ) :   1.1333
B( 17-C , 18-C ) :   1.6142 B( 17-C , 33-H ) :   0.9639 B( 18-C , 19-C ) :   1.2483
B( 18-C , 21-H ) :   1.0009 B( 19-C , 20-C ) :   1.5976 B( 19-C , 22-C ) :   1.0439
B( 22-C , 23-H ) :   0.9453 B( 22-C , 24-H ) :   0.9299 B( 22-C , 25-C ) :   1.0383
B( 25-C , 26-H ) :   0.9463 B( 25-C , 27-H ) :   0.9611 B( 25-C , 28-C ) :   1.0838
B( 28-C , 29-H ) :   0.9715 B( 28-C , 30-H ) :   0.9786 B( 28-C , 31-H ) :   0.9738

Dispersion correction           -0.014234229
FINAL SINGLE POINT ENERGY     -1339.868082975257

DIPOLE MOMENT
-------------
                                X             Y             Z
Electronic contribution:     13.18848       1.76667      -9.99212
Nuclear contribution   :    -13.28016      -1.79884      10.32439
                        -----------------------------------------
Total Dipole Moment    :     -0.09168      -0.03217       0.33226
                        -----------------------------------------
Magnitude (a.u.)       :      0.34618
Magnitude (Debye)      :      0.87992

Rotational constants in cm-1:     0.021036     0.007617     0.006180
Rotational constants in MHz :   630.639919   228.361644   185.274549

                             ****ORCA TERMINATED NORMALLY****
TOTAL RUN TIME: 0 days 0 hours 0 minutes 21 seconds 281 msec
