                         Program Version 4.2.1 -  RELEASE  -
|  1> ! wB97X-D3 SP def2-SVP
|  2> %pal
|  3> nprocs 24
|  4> end
|  5>
|  6> * xyz 0 1
|  7> S 	 -43.6414 	 15.0376 	 27.1146
|  8> C 	 -45.2885 	 14.5182 	 27.3984
|  9> C 	 -46.0019 	 15.4704 	 28.0607
| 10> C 	 -45.2782 	 16.6955 	 28.2205
| 11> C 	 -44.0822 	 16.6944 	 27.5777
| 12> H 	 -45.755 	 17.551 	 28.6207
| 13> C 	 -47.4644 	 15.2816 	 28.4384
| 14> H 	 -47.7025 	 16.1321 	 29.0305
| 15> H 	 -47.4742 	 14.4162 	 29.1196
| 16> C 	 -48.3601 	 14.8945 	 27.3386
| 17> H 	 -48.5288 	 15.8753 	 26.8442
| 18> H 	 -47.8625 	 14.3079 	 26.6057
| 19> C 	 -49.6537 	 14.1323 	 27.6881
| 20> H 	 -50.1899 	 14.771 	 28.3831
| 21> H 	 -50.337 	 14.0763 	 26.8527
| 22> H 	 -49.638 	 13.0998 	 27.9905
| 23> S 	 -41.4646 	 17.2106 	 27.8668
| 24> C 	 -40.9514 	 18.9154 	 28.0803
| 25> C 	 -41.9688 	 19.7942 	 27.8491
| 26> C 	 -43.201 	 19.1626 	 27.5411
| 27> C 	 -43.1279 	 17.7578 	 27.6114
| 28> H 	 -41.716 	 20.8309 	 27.7996
| 29> C 	 -44.4645 	 19.959 	 27.2632
| 30> H 	 -44.9602 	 20.1178 	 28.2429
| 31> H 	 -45.2483 	 19.4241 	 26.7551
| 32> C 	 -44.237 	 21.3675 	 26.6814
| 33> H 	 -43.5746 	 21.9853 	 27.4026
| 34> H 	 -45.2786 	 21.8179 	 26.7363
| 35> C 	 -43.5978 	 21.3876 	 25.306
| 36> H 	 -42.618 	 21.0045 	 25.239
| 37> H 	 -43.61 	 22.4288 	 25.0604
| 38> H 	 -44.3466 	 20.9026 	 24.5508
| 39> H 	 -45.7467 	 13.5803 	 27.353
| 40> H 	 -39.918 	 19.2402 	 28.3289
| 41> *
| 42>
| 43>                          ****END OF INPUT****

CARTESIAN COORDINATES (ANGSTROEM)
---------------------------------
  S    -43.641400   15.037600   27.114600
  C    -45.288500   14.518200   27.398400
  C    -46.001900   15.470400   28.060700
  C    -45.278200   16.695500   28.220500
  C    -44.082200   16.694400   27.577700
  H    -45.755000   17.551000   28.620700
  C    -47.464400   15.281600   28.438400
  H    -47.702500   16.132100   29.030500
  H    -47.474200   14.416200   29.119600
  C    -48.360100   14.894500   27.338600
  H    -48.528800   15.875300   26.844200
  H    -47.862500   14.307900   26.605700
  C    -49.653700   14.132300   27.688100
  H    -50.189900   14.771000   28.383100
  H    -50.337000   14.076300   26.852700
  H    -49.638000   13.099800   27.990500
  S    -41.464600   17.210600   27.866800
  C    -40.951400   18.915400   28.080300
  C    -41.968800   19.794200   27.849100
  C    -43.201000   19.162600   27.541100
  C    -43.127900   17.757800   27.611400
  H    -41.716000   20.830900   27.799600
  C    -44.464500   19.959000   27.263200
  H    -44.960200   20.117800   28.242900
  H    -45.248300   19.424100   26.755100
  C    -44.237000   21.367500   26.681400
  H    -43.574600   21.985300   27.402600
  H    -45.278600   21.817900   26.736300
  C    -43.597800   21.387600   25.306000
  H    -42.618000   21.004500   25.239000
  H    -43.610000   22.428800   25.060400
  H    -44.346600   20.902600   24.550800
  H    -45.746700   13.580300   27.353000
  H    -39.918000   19.240200   28.328900

 Total Charge           Charge          ....    0
 Multiplicity           Mult            ....    1
 Number of Electrons    NEL             ....  134
 Basis Dimension        Dim             ....  322

ORBITAL ENERGIES
----------------

  NO   OCC          E(Eh)            E(eV)
   0   2.0000     -88.966831     -2420.9105
   1   2.0000     -88.963853     -2420.8295
   2   2.0000     -10.328454      -281.0515
   3   2.0000     -10.327254      -281.0189
   4   2.0000     -10.320798      -280.8432
   5   2.0000     -10.306798      -280.4622
   6   2.0000     -10.304088      -280.3885
   7   2.0000     -10.299592      -280.2662
   8   2.0000     -10.293621      -280.1037
   9   2.0000     -10.292214      -280.0654
  10   2.0000     -10.292089      -280.0620
  11   2.0000     -10.288727      -279.9705
  12   2.0000     -10.285899      -279.8935
  13   2.0000     -10.284419      -279.8533
  14   2.0000     -10.278939      -279.7042
  15   2.0000     -10.278298      -279.6867
  16   2.0000      -8.081076      -219.8973
  17   2.0000      -8.077945      -219.8120
  18   2.0000      -6.039871      -164.3532
  19   2.0000      -6.036550      -164.2629
  20   2.0000      -6.035857      -164.2440
  21   2.0000      -6.032705      -164.1583
  22   2.0000      -6.031363      -164.1217
  23   2.0000      -6.028478      -164.0432
  24   2.0000      -1.008244       -27.4357
  25   2.0000      -0.982154       -26.7258
  26   2.0000      -0.921265       -25.0689
  27   2.0000      -0.908253       -24.7148
  28   2.0000      -0.874590       -23.7988
  29   2.0000      -0.852735       -23.2041
  30   2.0000      -0.842594       -22.9281
  31   2.0000      -0.819991       -22.3131
  32   2.0000      -0.787553       -21.4304
  33   2.0000      -0.775931       -21.1142
  34   2.0000      -0.714089       -19.4314
  35   2.0000      -0.706539       -19.2259
  36   2.0000      -0.688578       -18.7372
  37   2.0000      -0.657458       -17.8904
  38   2.0000      -0.636021       -17.3070
  39   2.0000      -0.623655       -16.9705
  40   2.0000      -0.598735       -16.2924
  41   2.0000      -0.578657       -15.7461
  42   2.0000      -0.560570       -15.2539
  43   2.0000      -0.548192       -14.9171
  44   2.0000      -0.540005       -14.6943
  45   2.0000      -0.530517       -14.4361
  46   2.0000      -0.523753       -14.2520
  47   2.0000      -0.512746       -13.9525
  48   2.0000      -0.505308       -13.7501
  49   2.0000      -0.503632       -13.7045
  50   2.0000      -0.496351       -13.5064
  51   2.0000      -0.478102       -13.0098
  52   2.0000      -0.473110       -12.8740
  53   2.0000      -0.468000       -12.7349
  54   2.0000      -0.463825       -12.6213
  55   2.0000      -0.450154       -12.2493
  56   2.0000      -0.443484       -12.0678
  57   2.0000      -0.437745       -11.9116
  58   2.0000      -0.429482       -11.6868
  59   2.0000      -0.420441       -11.4408
  60   2.0000      -0.417729       -11.3670
  61   2.0000      -0.414287       -11.2733
  62   2.0000      -0.411082       -11.1861
  63   2.0000      -0.357739        -9.7346
  64   2.0000      -0.335161        -9.1202
  65   2.0000      -0.323538        -8.8039
  66   2.0000      -0.281317        -7.6550
  67   0.0000       0.020726         0.5640
  68   0.0000       0.071485         1.9452
  69   0.0000       0.094852         2.5810
  70   0.0000       0.125839         3.4243
  71   0.0000       0.134161         3.6507

MULLIKEN ATOMIC CHARGES
-----------------------
   0 S :    0.100074
   1 C :   -0.073912
   2 C :   -0.140208
   3 C :    0.025964
   4 C :   -0.106316
   5 H :   -0.004659
   6 C :    0.114736
   7 H :    0.008816
   8 H :    0.020489
   9 C :   -0.068429
  10 H :    0.027330
  11 H :    0.020400
  12 C :   -0.034982
  13 H :    0.025474
  14 H :    0.021581
  15 H :    0.037488
  16 S :    0.081515
  17 C :   -0.100201
  18 C :   -0.034262
  19 C :   -0.027006
  20 C :   -0.141935
  21 H :    0.014899
  22 C :    0.061182
  23 H :    0.038649
  24 H :    0.021447
  25 C :   -0.145796
  26 H :    0.039548
  27 H :    0.041003
  28 C :   -0.020318
  29 H :    0.044012
  30 H :    0.028195
  31 H :    0.041454
  32 H :    0.019063
  33 H :    0.064705
Sum of atomic charges:    0.0000000

LOEWDIN ATOMIC CHARGES
----------------------
   0 S :    0.387248
   1 C :   -0.190830
   2 C :   -0.057646
   3 C :   -0.059019
   4 C :   -0.178235
   5 H :    0.023973
   6 C :   -0.032810
   7 H :    0.022937
   8 H :    0.032939
   9 C :   -0.042979
  10 H :    0.032684
  11 H :    0.019424
  12 C :   -0.067514
  13 H :    0.025369
  14 H :    0.028380
  15 H :    0.026145
  16 S :    0.373104
  17 C :   -0.171168
  18 C :   -0.073176
  19 C :   -0.055452
  20 C :   -0.181185
  21 H :    0.030973
  22 C :   -0.042041
  23 H :    0.036712
  24 H :    0.026467
  25 C :   -0.051020
  26 H :    0.027127
  27 H :    0.034049
  28 C :   -0.065613
  29 H :    0.021283
  30 H :    0.025100
  31 H :    0.038804
  32 H :    0.019896
  33 H :    0.036076

  Mayer bond orders larger than 0.100000
B(  0-S ,  1-C ) :   1.1129 B(  0-S ,  4-C ) :   1.1236 B(  1-C ,  2-C ) :   1.6500
B(  1-C , 32-H ) :   0.9637 B(  2-C ,  3-C ) :   1.2401 B(  2-C ,  6-C ) :   1.0169
B(  3-C ,  4-C ) :   1.5664 B(  3-C ,  5-H ) :   0.9962 B(  4-C , 20-C ) :   1.0933
B(  6-C ,  7-H ) :   0.9405 B(  6-C ,  8-H ) :   0.9277 B(  6-C ,  9-C ) :   1.0604
B(  9-C , 10-H ) :   0.9500 B(  9-C , 11-H ) :   0.9576 B(  9-C , 12-C ) :   1.0804
B( 12-C , 13-H ) :   0.9753 B( 12-C , 14-H ) :   0.9705 B( 12-C , 15-H ) :   0.9737
B( 16-S , 17-C ) :   1.1370 B( 16-S , 20-C ) :   1.1226 B( 17-C , 18-C ) :   1.6398
B( 17-C , 33-H ) :   0.9600 B( 18-C , 19-C ) :   1.2209 B( 18-C , 21-H ) :   0.9881
B( 19-C , 20-C ) :   1.5907 B( 19-C , 22-C ) :   1.0398 B( 22-C , 23-H ) :   0.9237
B( 22-C , 24-H ) :   0.9349 B( 22-C , 25-C ) :   1.0797 B( 25-C , 26-H ) :   0.9448
B( 25-C , 27-H ) :   0.9518 B( 25-C , 28-C ) :   1.0788 B( 28-C , 29-H ) :   0.9729
B( 28-C , 30-H ) :   0.9723 B( 28-C , 31-H ) :   0.9704

Dispersion correction           -0.013680448
FINAL SINGLE POINT ENERGY     -1339.855952519369

DIPOLE MOMENT
-------------
                                X             Y             Z
Electronic contribution:     24.57076     -10.41143       3.67272
Nuclear contribution   :    -25.18656      10.88822      -3.55890
                        -----------------------------------------
Total Dipole Moment    :     -0.61581       0.47678       0.11382
                        -----------------------------------------
Magnitude (a.u.)       :      0.78708
Magnitude (Debye)      :      2.00060

Rotational constants in cm-1:     0.021366     0.007529     0.005967
Rotational constants in MHz :   640.543774   225.727425   178.874887

                             ****ORCA TERMINATED NORMALLY****
TOTAL RUN TIME: 0 days 0 hours 0 minutes 21 seconds 350 msec
