                         Program Version 4.2.1 -  RELEASE  -
|  1> ! wB97X-D3 SP def2-SVP
|  2> %pal
|  3> nprocs 24
|  4> end
|  5>
|  6> * xyz 0 1
|  7> S 	 -27.1831 	 -7.21142 	 -1.19848
|  8> C 	 -26.5765 	 -8.7552 	 -0.565446
|  9> C 	 -27.5493 	 -9.75708 	 -0.782258
| 10> C 	 -28.6444 	 -9.30711 	 -1.58805
| 11> C 	 -28.737 	 -7.9511 	 -1.75952
| 12> H 	 -29.4987 	 -9.88827 	 -1.93056
| 13> C 	 -27.5129 	 -11.0878 	 -0.0925325
| 14> H 	 -28.2474 	 -10.8642 	 0.712616
| 15> H 	 -26.5762 	 -11.2748 	 0.433883
| 16> C 	 -27.8341 	 -12.2735 	 -0.952475
| 17> H 	 -28.7058 	 -12.1665 	 -1.51868
| 18> H 	 -27.062 	 -12.3776 	 -1.72888
| 19> C 	 -28.0478 	 -13.5944 	 -0.250033
| 20> H 	 -28.8975 	 -13.6337 	 0.436586
| 21> H 	 -28.1577 	 -14.4524 	 -0.836423
| 22> H 	 -27.2089 	 -13.7664 	 0.432189
| 23> S 	 -29.3086 	 -5.79456 	 -3.40208
| 24> C 	 -30.9175 	 -5.52219 	 -3.99477
| 25> C 	 -31.8145 	 -6.45945 	 -3.45294
| 26> C 	 -31.1222 	 -7.45248 	 -2.66997
| 27> C 	 -29.7649 	 -7.2816 	 -2.5793
| 28> H 	 -32.8848 	 -6.43825 	 -3.61328
| 29> C 	 -31.9156 	 -8.46365 	 -1.90822
| 30> H 	 -32.7162 	 -7.89976 	 -1.40063
| 31> H 	 -31.2132 	 -8.71359 	 -1.132
| 32> C 	 -32.3727 	 -9.66402 	 -2.58779
| 33> H 	 -31.48 	 -10.3158 	 -2.74475
| 34> H 	 -32.756 	 -9.47293 	 -3.59906
| 35> C 	 -33.322 	 -10.57 	 -1.80226
| 36> H 	 -34.2668 	 -10.2038 	 -1.32336
| 37> H 	 -32.7407 	 -11.1252 	 -1.10537
| 38> H 	 -33.6188 	 -11.2821 	 -2.55983
| 39> H 	 -25.7373 	 -8.84186 	 0.185204
| 40> H 	 -31.2498 	 -4.60815 	 -4.62925
| 41> *
| 42>
| 43>                          ****END OF INPUT****

CARTESIAN COORDINATES (ANGSTROEM)
---------------------------------
  S    -27.183100   -7.211420   -1.198480
  C    -26.576500   -8.755200   -0.565446
  C    -27.549300   -9.757080   -0.782258
  C    -28.644400   -9.307110   -1.588050
  C    -28.737000   -7.951100   -1.759520
  H    -29.498700   -9.888270   -1.930560
  C    -27.512900  -11.087800   -0.092532
  H    -28.247400  -10.864200    0.712616
  H    -26.576200  -11.274800    0.433883
  C    -27.834100  -12.273500   -0.952475
  H    -28.705800  -12.166500   -1.518680
  H    -27.062000  -12.377600   -1.728880
  C    -28.047800  -13.594400   -0.250033
  H    -28.897500  -13.633700    0.436586
  H    -28.157700  -14.452400   -0.836423
  H    -27.208900  -13.766400    0.432189
  S    -29.308600   -5.794560   -3.402080
  C    -30.917500   -5.522190   -3.994770
  C    -31.814500   -6.459450   -3.452940
  C    -31.122200   -7.452480   -2.669970
  C    -29.764900   -7.281600   -2.579300
  H    -32.884800   -6.438250   -3.613280
  C    -31.915600   -8.463650   -1.908220
  H    -32.716200   -7.899760   -1.400630
  H    -31.213200   -8.713590   -1.132000
  C    -32.372700   -9.664020   -2.587790
  H    -31.480000  -10.315800   -2.744750
  H    -32.756000   -9.472930   -3.599060
  C    -33.322000  -10.570000   -1.802260
  H    -34.266800  -10.203800   -1.323360
  H    -32.740700  -11.125200   -1.105370
  H    -33.618800  -11.282100   -2.559830
  H    -25.737300   -8.841860    0.185204
  H    -31.249800   -4.608150   -4.629250

 Total Charge           Charge          ....    0
 Multiplicity           Mult            ....    1
 Number of Electrons    NEL             ....  134
 Basis Dimension        Dim             ....  322

ORBITAL ENERGIES
----------------

  NO   OCC          E(Eh)            E(eV)
   0   2.0000     -88.967146     -2420.9191
   1   2.0000     -88.966062     -2420.8896
   2   2.0000     -10.338709      -281.3306
   3   2.0000     -10.329811      -281.0885
   4   2.0000     -10.328540      -281.0539
   5   2.0000     -10.323625      -280.9201
   6   2.0000     -10.308708      -280.5142
   7   2.0000     -10.301433      -280.3162
   8   2.0000     -10.298022      -280.2234
   9   2.0000     -10.296314      -280.1769
  10   2.0000     -10.295793      -280.1628
  11   2.0000     -10.288621      -279.9676
  12   2.0000     -10.282871      -279.8111
  13   2.0000     -10.281991      -279.7872
  14   2.0000     -10.279171      -279.7105
  15   2.0000     -10.274145      -279.5737
  16   2.0000      -8.080923      -219.8931
  17   2.0000      -8.080304      -219.8763
  18   2.0000      -6.039490      -164.3429
  19   2.0000      -6.039112      -164.3326
  20   2.0000      -6.035370      -164.2308
  21   2.0000      -6.035047      -164.2220
  22   2.0000      -6.031650      -164.1295
  23   2.0000      -6.030806      -164.1066
  24   2.0000      -1.005313       -27.3560
  25   2.0000      -0.981280       -26.7020
  26   2.0000      -0.922573       -25.1045
  27   2.0000      -0.918402       -24.9910
  28   2.0000      -0.870711       -23.6933
  29   2.0000      -0.857509       -23.3340
  30   2.0000      -0.846909       -23.0456
  31   2.0000      -0.817927       -22.2569
  32   2.0000      -0.786123       -21.3915
  33   2.0000      -0.772760       -21.0279
  34   2.0000      -0.713211       -19.4075
  35   2.0000      -0.700442       -19.0600
  36   2.0000      -0.690876       -18.7997
  37   2.0000      -0.665771       -18.1166
  38   2.0000      -0.639633       -17.4053
  39   2.0000      -0.621824       -16.9207
  40   2.0000      -0.595895       -16.2151
  41   2.0000      -0.572399       -15.5758
  42   2.0000      -0.566868       -15.4253
  43   2.0000      -0.563834       -15.3427
  44   2.0000      -0.535289       -14.5659
  45   2.0000      -0.531686       -14.4679
  46   2.0000      -0.517881       -14.0923
  47   2.0000      -0.512162       -13.9366
  48   2.0000      -0.510298       -13.8859
  49   2.0000      -0.503241       -13.6939
  50   2.0000      -0.500353       -13.6153
  51   2.0000      -0.484555       -13.1854
  52   2.0000      -0.469036       -12.7631
  53   2.0000      -0.466759       -12.7012
  54   2.0000      -0.458056       -12.4643
  55   2.0000      -0.451227       -12.2785
  56   2.0000      -0.444604       -12.0983
  57   2.0000      -0.442979       -12.0541
  58   2.0000      -0.438837       -11.9414
  59   2.0000      -0.419285       -11.4093
  60   2.0000      -0.416359       -11.3297
  61   2.0000      -0.411862       -11.2073
  62   2.0000      -0.410812       -11.1788
  63   2.0000      -0.359413        -9.7801
  64   2.0000      -0.331301        -9.0152
  65   2.0000      -0.326347        -8.8803
  66   2.0000      -0.288123        -7.8402
  67   0.0000       0.021262         0.5786
  68   0.0000       0.074726         2.0334
  69   0.0000       0.101801         2.7702
  70   0.0000       0.114256         3.1091
  71   0.0000       0.119255         3.2451

MULLIKEN ATOMIC CHARGES
-----------------------
   0 S :    0.085627
   1 C :   -0.133325
   2 C :   -0.087958
   3 C :    0.005278
   4 C :   -0.111498
   5 H :   -0.002866
   6 C :    0.069037
   7 H :    0.048021
   8 H :    0.016886
   9 C :   -0.058660
  10 H :    0.012377
  11 H :    0.033066
  12 C :   -0.024893
  13 H :    0.020087
  14 H :    0.024346
  15 H :    0.013994
  16 S :    0.099999
  17 C :   -0.123974
  18 C :   -0.019988
  19 C :   -0.089018
  20 C :   -0.123289
  21 H :    0.022075
  22 C :    0.075140
  23 H :    0.027085
  24 H :    0.009451
  25 C :   -0.081487
  26 H :    0.026571
  27 H :    0.028721
  28 C :   -0.027782
  29 H :    0.046100
  30 H :    0.021772
  31 H :    0.026166
  32 H :    0.078311
  33 H :    0.094624
Sum of atomic charges:    0.0000000

LOEWDIN ATOMIC CHARGES
----------------------
   0 S :    0.364038
   1 C :   -0.206069
   2 C :   -0.056544
   3 C :   -0.070285
   4 C :   -0.165513
   5 H :    0.029020
   6 C :   -0.032358
   7 H :    0.043102
   8 H :    0.030073
   9 C :   -0.043102
  10 H :    0.015622
  11 H :    0.032371
  12 C :   -0.061678
  13 H :    0.024971
  14 H :    0.020120
  15 H :    0.022983
  16 S :    0.407523
  17 C :   -0.201347
  18 C :   -0.072869
  19 C :   -0.056834
  20 C :   -0.193694
  21 H :    0.031977
  22 C :   -0.042806
  23 H :    0.034802
  24 H :    0.027309
  25 C :   -0.044411
  26 H :    0.028822
  27 H :    0.023228
  28 C :   -0.064458
  29 H :    0.029894
  30 H :    0.020314
  31 H :    0.029593
  32 H :    0.043853
  33 H :    0.052352

  Mayer bond orders larger than 0.100000
B(  0-S ,  1-C ) :   1.1196 B(  0-S ,  4-C ) :   1.1258 B(  1-C ,  2-C ) :   1.6108
B(  1-C , 32-H ) :   0.9574 B(  2-C ,  3-C ) :   1.2229 B(  2-C ,  6-C ) :   1.0245
B(  3-C ,  4-C ) :   1.5870 B(  3-C ,  5-H ) :   0.9839 B(  4-C , 20-C ) :   1.0626
B(  6-C ,  7-H ) :   0.9351 B(  6-C ,  8-H ) :   0.9368 B(  6-C ,  9-C ) :   1.0625
B(  9-C , 10-H ) :   0.9524 B(  9-C , 11-H ) :   0.9512 B(  9-C , 12-C ) :   1.0897
B( 12-C , 13-H ) :   0.9729 B( 12-C , 14-H ) :   0.9735 B( 12-C , 15-H ) :   0.9717
B( 16-S , 17-C ) :   1.1717 B( 16-S , 20-C ) :   1.1158 B( 17-C , 18-C ) :   1.5823
B( 17-C , 33-H ) :   0.9550 B( 18-C , 19-C ) :   1.2557 B( 18-C , 21-H ) :   0.9923
B( 19-C , 20-C ) :   1.6014 B( 19-C , 22-C ) :   1.0410 B( 22-C , 23-H ) :   0.9312
B( 22-C , 24-H ) :   0.9197 B( 22-C , 25-C ) :   1.0788 B( 25-C , 26-H ) :   0.9388
B( 25-C , 27-H ) :   0.9570 B( 25-C , 28-C ) :   1.0767 B( 28-C , 29-H ) :   0.9768
B( 28-C , 30-H ) :   0.9752 B( 28-C , 31-H ) :   0.9724

Dispersion correction           -0.013920249
FINAL SINGLE POINT ENERGY     -1339.866228843747

DIPOLE MOMENT
-------------
                                X             Y             Z
Electronic contribution:     12.86042      30.61411      -7.39944
Nuclear contribution   :    -13.41000     -31.22156       7.65069
                        -----------------------------------------
Total Dipole Moment    :     -0.54958      -0.60745       0.25125
                        -----------------------------------------
Magnitude (a.u.)       :      0.85683
Magnitude (Debye)      :      2.17790

Rotational constants in cm-1:     0.016625     0.009642     0.006371
Rotational constants in MHz :   498.414702   289.074728   190.996368

                             ****ORCA TERMINATED NORMALLY****
TOTAL RUN TIME: 0 days 0 hours 0 minutes 20 seconds 620 msec
