                         Program Version 4.2.1 -  RELEASE  -
|  1> ! wB97X-D3 SP def2-SVP
|  2> %pal
|  3> nprocs 24
|  4> end
|  5>
|  6> * xyz 0 1
|  7> S 	 -128.266 	 58.7189 	 -52.5431
|  8> C 	 -129.168 	 59.3742 	 -53.8633
|  9> C 	 -128.513 	 60.4928 	 -54.3951
| 10> C 	 -127.248 	 60.8033 	 -53.6957
| 11> C 	 -126.869 	 59.8516 	 -52.7303
| 12> H 	 -126.563 	 61.5565 	 -54.0177
| 13> C 	 -128.93 	 61.3305 	 -55.564
| 14> H 	 -128.094 	 61.406 	 -56.2863
| 15> H 	 -129.208 	 62.3775 	 -55.2555
| 16> C 	 -130.294 	 60.9721 	 -56.2349
| 17> H 	 -130.164 	 59.9483 	 -56.6182
| 18> H 	 -131.079 	 60.9741 	 -55.5056
| 19> C 	 -130.665 	 62.0253 	 -57.2712
| 20> H 	 -131.585 	 61.8269 	 -57.7901
| 21> H 	 -130.828 	 63.0986 	 -56.9689
| 22> H 	 -129.975 	 62.0276 	 -58.1001
| 23> S 	 -125.883 	 59.7019 	 -50.1894
| 24> C 	 -124.184 	 59.8867 	 -49.9602
| 25> C 	 -123.523 	 60.3688 	 -51.0493
| 26> C 	 -124.384 	 60.309 	 -52.2086
| 27> C 	 -125.706 	 59.9618 	 -51.9481
| 28> H 	 -122.424 	 60.4212 	 -51.0632
| 29> C 	 -123.905 	 60.4518 	 -53.6082
| 30> H 	 -123.39 	 61.4358 	 -53.6979
| 31> H 	 -124.731 	 60.565 	 -54.3329
| 32> C 	 -122.863 	 59.4164 	 -54.1102
| 33> H 	 -122.046 	 59.4172 	 -53.4367
| 34> H 	 -122.484 	 59.697 	 -55.0643
| 35> C 	 -123.335 	 57.9023 	 -54.2153
| 36> H 	 -124.289 	 57.7331 	 -54.7813
| 37> H 	 -123.488 	 57.5762 	 -53.2035
| 38> H 	 -122.705 	 57.1855 	 -54.5965
| 39> H 	 -130.064 	 58.9907 	 -54.2943
| 40> H 	 -123.659 	 59.6442 	 -49.0662
| 41> *
| 42>
| 43>                          ****END OF INPUT****

CARTESIAN COORDINATES (ANGSTROEM)
---------------------------------
  S    -128.266000   58.718900  -52.543100
  C    -129.168000   59.374200  -53.863300
  C    -128.513000   60.492800  -54.395100
  C    -127.248000   60.803300  -53.695700
  C    -126.869000   59.851600  -52.730300
  H    -126.563000   61.556500  -54.017700
  C    -128.930000   61.330500  -55.564000
  H    -128.094000   61.406000  -56.286300
  H    -129.208000   62.377500  -55.255500
  C    -130.294000   60.972100  -56.234900
  H    -130.164000   59.948300  -56.618200
  H    -131.079000   60.974100  -55.505600
  C    -130.665000   62.025300  -57.271200
  H    -131.585000   61.826900  -57.790100
  H    -130.828000   63.098600  -56.968900
  H    -129.975000   62.027600  -58.100100
  S    -125.883000   59.701900  -50.189400
  C    -124.184000   59.886700  -49.960200
  C    -123.523000   60.368800  -51.049300
  C    -124.384000   60.309000  -52.208600
  C    -125.706000   59.961800  -51.948100
  H    -122.424000   60.421200  -51.063200
  C    -123.905000   60.451800  -53.608200
  H    -123.390000   61.435800  -53.697900
  H    -124.731000   60.565000  -54.332900
  C    -122.863000   59.416400  -54.110200
  H    -122.046000   59.417200  -53.436700
  H    -122.484000   59.697000  -55.064300
  C    -123.335000   57.902300  -54.215300
  H    -124.289000   57.733100  -54.781300
  H    -123.488000   57.576200  -53.203500
  H    -122.705000   57.185500  -54.596500
  H    -130.064000   58.990700  -54.294300
  H    -123.659000   59.644200  -49.066200

 Total Charge           Charge          ....    0
 Multiplicity           Mult            ....    1
 Number of Electrons    NEL             ....  134
 Basis Dimension        Dim             ....  322

ORBITAL ENERGIES
----------------

  NO   OCC          E(Eh)            E(eV)
   0   2.0000     -88.968081     -2420.9446
   1   2.0000     -88.962314     -2420.7876
   2   2.0000     -10.334902      -281.2270
   3   2.0000     -10.326345      -280.9941
   4   2.0000     -10.317241      -280.7464
   5   2.0000     -10.315351      -280.6950
   6   2.0000     -10.306867      -280.4641
   7   2.0000     -10.306253      -280.4474
   8   2.0000     -10.298546      -280.2377
   9   2.0000     -10.297620      -280.2125
  10   2.0000     -10.297026      -280.1963
  11   2.0000     -10.293139      -280.0905
  12   2.0000     -10.292427      -280.0712
  13   2.0000     -10.285677      -279.8875
  14   2.0000     -10.281400      -279.7711
  15   2.0000     -10.267935      -279.4047
  16   2.0000      -8.081889      -219.9194
  17   2.0000      -8.077495      -219.7998
  18   2.0000      -6.040737      -164.3768
  19   2.0000      -6.036368      -164.2579
  20   2.0000      -6.036018      -164.2484
  21   2.0000      -6.032470      -164.1519
  22   2.0000      -6.032034      -164.1400
  23   2.0000      -6.028101      -164.0330
  24   2.0000      -1.005203       -27.3530
  25   2.0000      -0.979899       -26.6644
  26   2.0000      -0.912154       -24.8210
  27   2.0000      -0.904441       -24.6111
  28   2.0000      -0.878063       -23.8933
  29   2.0000      -0.849238       -23.1089
  30   2.0000      -0.842133       -22.9156
  31   2.0000      -0.814563       -22.1654
  32   2.0000      -0.782419       -21.2907
  33   2.0000      -0.769920       -20.9506
  34   2.0000      -0.718231       -19.5441
  35   2.0000      -0.708977       -19.2922
  36   2.0000      -0.695572       -18.9275
  37   2.0000      -0.660651       -17.9772
  38   2.0000      -0.639731       -17.4080
  39   2.0000      -0.612103       -16.6562
  40   2.0000      -0.597138       -16.2490
  41   2.0000      -0.575836       -15.6693
  42   2.0000      -0.571350       -15.5472
  43   2.0000      -0.545373       -14.8403
  44   2.0000      -0.541462       -14.7339
  45   2.0000      -0.520408       -14.1610
  46   2.0000      -0.517208       -14.0739
  47   2.0000      -0.514412       -13.9979
  48   2.0000      -0.507159       -13.8005
  49   2.0000      -0.495920       -13.4947
  50   2.0000      -0.488624       -13.2961
  51   2.0000      -0.477725       -12.9996
  52   2.0000      -0.477647       -12.9974
  53   2.0000      -0.466668       -12.6987
  54   2.0000      -0.456774       -12.4294
  55   2.0000      -0.454565       -12.3694
  56   2.0000      -0.441574       -12.0158
  57   2.0000      -0.439799       -11.9675
  58   2.0000      -0.434690       -11.8285
  59   2.0000      -0.424719       -11.5572
  60   2.0000      -0.420881       -11.4527
  61   2.0000      -0.410348       -11.1661
  62   2.0000      -0.404907       -11.0181
  63   2.0000      -0.356988        -9.7141
  64   2.0000      -0.330891        -9.0040
  65   2.0000      -0.322511        -8.7760
  66   2.0000      -0.286453        -7.7948
  67   0.0000       0.020001         0.5443
  68   0.0000       0.076373         2.0782
  69   0.0000       0.104315         2.8386
  70   0.0000       0.116444         3.1686
  71   0.0000       0.131126         3.5681

MULLIKEN ATOMIC CHARGES
-----------------------
   0 S :    0.114516
   1 C :   -0.097742
   2 C :   -0.081780
   3 C :    0.028175
   4 C :   -0.138009
   5 H :    0.017888
   6 C :   -0.002087
   7 H :    0.044653
   8 H :    0.042949
   9 C :   -0.079048
  10 H :    0.037219
  11 H :    0.032411
  12 C :   -0.045458
  13 H :    0.019908
  14 H :    0.041992
  15 H :    0.021069
  16 S :    0.097008
  17 C :   -0.078061
  18 C :   -0.024332
  19 C :   -0.052928
  20 C :   -0.140279
  21 H :    0.035534
  22 C :    0.032770
  23 H :    0.030900
  24 H :    0.022522
  25 C :   -0.031427
  26 H :    0.012181
  27 H :    0.020894
  28 C :   -0.050891
  29 H :    0.036197
  30 H :    0.026847
  31 H :    0.014567
  32 H :    0.042909
  33 H :    0.048932
Sum of atomic charges:    0.0000000

LOEWDIN ATOMIC CHARGES
----------------------
   0 S :    0.392917
   1 C :   -0.203399
   2 C :   -0.064262
   3 C :   -0.047737
   4 C :   -0.183946
   5 H :    0.025312
   6 C :   -0.043020
   7 H :    0.034039
   8 H :    0.040547
   9 C :   -0.040017
  10 H :    0.024950
  11 H :    0.021918
  12 C :   -0.072869
  13 H :    0.024793
  14 H :    0.034226
  15 H :    0.022658
  16 S :    0.393028
  17 C :   -0.173847
  18 C :   -0.076873
  19 C :   -0.052995
  20 C :   -0.185567
  21 H :    0.038344
  22 C :   -0.038022
  23 H :    0.038107
  24 H :    0.029171
  25 C :   -0.025438
  26 H :    0.015654
  27 H :    0.018604
  28 C :   -0.068312
  29 H :    0.031451
  30 H :    0.024442
  31 H :    0.013285
  32 H :    0.027584
  33 H :    0.025277

  Mayer bond orders larger than 0.100000
B(  0-S ,  1-C ) :   1.1264 B(  0-S ,  4-C ) :   1.1154 B(  1-C ,  2-C ) :   1.6144
B(  1-C , 32-H ) :   0.9644 B(  2-C ,  3-C ) :   1.2343 B(  2-C ,  6-C ) :   1.0250
B(  3-C ,  4-C ) :   1.5484 B(  3-C ,  5-H ) :   0.9883 B(  4-C , 20-C ) :   1.1320
B(  6-C ,  7-H ) :   0.9435 B(  6-C ,  8-H ) :   0.9428 B(  6-C ,  9-C ) :   1.0660
B(  9-C , 10-H ) :   0.9505 B(  9-C , 11-H ) :   0.9545 B(  9-C , 12-C ) :   1.0891
B( 12-C , 13-H ) :   0.9694 B( 12-C , 14-H ) :   0.9724 B( 12-C , 15-H ) :   0.9729
B( 16-S , 17-C ) :   1.1623 B( 16-S , 20-C ) :   1.0992 B( 17-C , 18-C ) :   1.6331
B( 17-C , 33-H ) :   0.9656 B( 18-C , 19-C ) :   1.2152 B( 18-C , 21-H ) :   0.9814
B( 19-C , 20-C ) :   1.6036 B( 19-C , 22-C ) :   1.0599 B( 22-C , 23-H ) :   0.9248
B( 22-C , 24-H ) :   0.9353 B( 22-C , 25-C ) :   1.0740 B( 25-C , 26-H ) :   0.9579
B( 25-C , 27-H ) :   0.9572 B( 25-C , 28-C ) :   1.0616 B( 28-C , 29-H ) :   0.9776
B( 28-C , 30-H ) :   0.9769 B( 28-C , 31-H ) :   0.9776

Dispersion correction           -0.014098539
FINAL SINGLE POINT ENERGY     -1339.865661650483

DIPOLE MOMENT
-------------
                                X             Y             Z
Electronic contribution:     -1.31883      -5.76707      25.55971
Nuclear contribution   :      1.56329       6.02768     -26.16942
                        -----------------------------------------
Total Dipole Moment    :      0.24446       0.26061      -0.60971
                        -----------------------------------------
Magnitude (a.u.)       :      0.70670
Magnitude (Debye)      :      1.79628

Rotational constants in cm-1:     0.022033     0.007381     0.006358
Rotational constants in MHz :   660.532689   221.279227   190.621887

                             ****ORCA TERMINATED NORMALLY****
TOTAL RUN TIME: 0 days 0 hours 0 minutes 21 seconds 397 msec
