                         Program Version 4.2.1 -  RELEASE  -
|  1> ! wB97X-D3 SP def2-SVP
|  2> %pal
|  3> nprocs 24
|  4> end
|  5>
|  6> * xyz 0 1
|  7> S 	 -120.336 	 28.4604 	 -112.695
|  8> C 	 -118.625 	 28.0427 	 -112.842
|  9> C 	 -117.875 	 29.1898 	 -112.491
| 10> C 	 -118.723 	 30.258 	 -111.982
| 11> C 	 -120.08 	 30.0868 	 -112.192
| 12> H 	 -118.416 	 31.1628 	 -111.499
| 13> C 	 -116.358 	 29.2417 	 -112.514
| 14> H 	 -116.039 	 30.2175 	 -112.82
| 15> H 	 -116.086 	 28.6075 	 -113.358
| 16> C 	 -115.568 	 28.7398 	 -111.228
| 17> H 	 -115.916 	 27.7297 	 -111.001
| 18> H 	 -114.434 	 28.6404 	 -111.495
| 19> C 	 -115.792 	 29.4758 	 -109.847
| 20> H 	 -116.801 	 29.4666 	 -109.481
| 21> H 	 -115.206 	 29.1317 	 -109.077
| 22> H 	 -115.54 	 30.5943 	 -109.927
| 23> S 	 -122.448 	 30.2235 	 -110.799
| 24> C 	 -123.365 	 31.7625 	 -110.726
| 25> C 	 -122.624 	 32.7283 	 -111.334
| 26> C 	 -121.35 	 32.2957 	 -111.899
| 27> C 	 -121.14 	 30.9443 	 -111.688
| 28> H 	 -123.035 	 33.7384 	 -111.348
| 29> C 	 -120.489 	 33.1244 	 -112.851
| 30> H 	 -121.21 	 33.6262 	 -113.456
| 31> H 	 -119.943 	 32.5994 	 -113.658
| 32> C 	 -119.574 	 34.1594 	 -112.184
| 33> H 	 -118.855 	 34.7179 	 -112.807
| 34> H 	 -118.846 	 33.6436 	 -111.528
| 35> C 	 -120.239 	 35.166 	 -111.188
| 36> H 	 -120.977 	 35.8602 	 -111.693
| 37> H 	 -119.419 	 35.7779 	 -110.752
| 38> H 	 -120.723 	 34.6046 	 -110.372
| 39> H 	 -118.325 	 26.9991 	 -113.013
| 40> H 	 -124.292 	 31.8557 	 -110.202
| 41> *
| 42>
| 43>                          ****END OF INPUT****

CARTESIAN COORDINATES (ANGSTROEM)
---------------------------------
  S    -120.336000   28.460400  -112.695000
  C    -118.625000   28.042700  -112.842000
  C    -117.875000   29.189800  -112.491000
  C    -118.723000   30.258000  -111.982000
  C    -120.080000   30.086800  -112.192000
  H    -118.416000   31.162800  -111.499000
  C    -116.358000   29.241700  -112.514000
  H    -116.039000   30.217500  -112.820000
  H    -116.086000   28.607500  -113.358000
  C    -115.568000   28.739800  -111.228000
  H    -115.916000   27.729700  -111.001000
  H    -114.434000   28.640400  -111.495000
  C    -115.792000   29.475800  -109.847000
  H    -116.801000   29.466600  -109.481000
  H    -115.206000   29.131700  -109.077000
  H    -115.540000   30.594300  -109.927000
  S    -122.448000   30.223500  -110.799000
  C    -123.365000   31.762500  -110.726000
  C    -122.624000   32.728300  -111.334000
  C    -121.350000   32.295700  -111.899000
  C    -121.140000   30.944300  -111.688000
  H    -123.035000   33.738400  -111.348000
  C    -120.489000   33.124400  -112.851000
  H    -121.210000   33.626200  -113.456000
  H    -119.943000   32.599400  -113.658000
  C    -119.574000   34.159400  -112.184000
  H    -118.855000   34.717900  -112.807000
  H    -118.846000   33.643600  -111.528000
  C    -120.239000   35.166000  -111.188000
  H    -120.977000   35.860200  -111.693000
  H    -119.419000   35.777900  -110.752000
  H    -120.723000   34.604600  -110.372000
  H    -118.325000   26.999100  -113.013000
  H    -124.292000   31.855700  -110.202000

 Total Charge           Charge          ....    0
 Multiplicity           Mult            ....    1
 Number of Electrons    NEL             ....  134
 Basis Dimension        Dim             ....  322

ORBITAL ENERGIES
----------------

  NO   OCC          E(Eh)            E(eV)
   0   2.0000     -88.964275     -2420.8410
   1   2.0000     -88.963160     -2420.8107
   2   2.0000     -10.329307      -281.0747
   3   2.0000     -10.327877      -281.0358
   4   2.0000     -10.323936      -280.9286
   5   2.0000     -10.320813      -280.8436
   6   2.0000     -10.311867      -280.6002
   7   2.0000     -10.309333      -280.5312
   8   2.0000     -10.303977      -280.3855
   9   2.0000     -10.300616      -280.2940
  10   2.0000     -10.295958      -280.1672
  11   2.0000     -10.295623      -280.1581
  12   2.0000     -10.293524      -280.1010
  13   2.0000     -10.290574      -280.0207
  14   2.0000     -10.285188      -279.8742
  15   2.0000     -10.278050      -279.6800
  16   2.0000      -8.079233      -219.8471
  17   2.0000      -8.077779      -219.8075
  18   2.0000      -6.037760      -164.2958
  19   2.0000      -6.036413      -164.2592
  20   2.0000      -6.033506      -164.1800
  21   2.0000      -6.032259      -164.1461
  22   2.0000      -6.030141      -164.0885
  23   2.0000      -6.028428      -164.0419
  24   2.0000      -1.007696       -27.4208
  25   2.0000      -0.981911       -26.7191
  26   2.0000      -0.903973       -24.5983
  27   2.0000      -0.901408       -24.5286
  28   2.0000      -0.869007       -23.6469
  29   2.0000      -0.844144       -22.9703
  30   2.0000      -0.837576       -22.7916
  31   2.0000      -0.819508       -22.2999
  32   2.0000      -0.784376       -21.3440
  33   2.0000      -0.774950       -21.0875
  34   2.0000      -0.705256       -19.1910
  35   2.0000      -0.702388       -19.1130
  36   2.0000      -0.690492       -18.7892
  37   2.0000      -0.663350       -18.0507
  38   2.0000      -0.644505       -17.5379
  39   2.0000      -0.612986       -16.6802
  40   2.0000      -0.596296       -16.2260
  41   2.0000      -0.568186       -15.4611
  42   2.0000      -0.548803       -14.9337
  43   2.0000      -0.545114       -14.8333
  44   2.0000      -0.537937       -14.6380
  45   2.0000      -0.535274       -14.5656
  46   2.0000      -0.514398       -13.9975
  47   2.0000      -0.513835       -13.9822
  48   2.0000      -0.505649       -13.7594
  49   2.0000      -0.496013       -13.4972
  50   2.0000      -0.491125       -13.3642
  51   2.0000      -0.481897       -13.1131
  52   2.0000      -0.476168       -12.9572
  53   2.0000      -0.465993       -12.6803
  54   2.0000      -0.457852       -12.4588
  55   2.0000      -0.446296       -12.1443
  56   2.0000      -0.439657       -11.9637
  57   2.0000      -0.434606       -11.8262
  58   2.0000      -0.428245       -11.6531
  59   2.0000      -0.425305       -11.5731
  60   2.0000      -0.418298       -11.3825
  61   2.0000      -0.410699       -11.1757
  62   2.0000      -0.404465       -11.0061
  63   2.0000      -0.352905        -9.6030
  64   2.0000      -0.330433        -8.9915
  65   2.0000      -0.325980        -8.8704
  66   2.0000      -0.296296        -8.0626
  67   0.0000       0.025168         0.6849
  68   0.0000       0.073832         2.0091
  69   0.0000       0.113484         3.0881
  70   0.0000       0.114847         3.1251
  71   0.0000       0.128048         3.4844

MULLIKEN ATOMIC CHARGES
-----------------------
   0 S :    0.094813
   1 C :   -0.139860
   2 C :   -0.097551
   3 C :    0.027909
   4 C :   -0.132556
   5 H :    0.005628
   6 C :    0.090301
   7 H :    0.021004
   8 H :    0.025097
   9 C :   -0.094552
  10 H :    0.027209
  11 H :    0.051411
  12 C :   -0.050260
  13 H :    0.039104
  14 H :    0.021762
  15 H :    0.026938
  16 S :    0.088859
  17 C :   -0.095735
  18 C :   -0.024354
  19 C :   -0.045766
  20 C :   -0.142168
  21 H :    0.028261
  22 C :    0.089391
  23 H :    0.015727
  24 H :    0.042767
  25 C :   -0.086993
  26 H :    0.029666
  27 H :    0.017921
  28 C :   -0.098418
  29 H :    0.041140
  30 H :    0.040133
  31 H :    0.050308
  32 H :    0.074367
  33 H :    0.058500
Sum of atomic charges:   -0.0000000

LOEWDIN ATOMIC CHARGES
----------------------
   0 S :    0.411712
   1 C :   -0.195691
   2 C :   -0.061090
   3 C :   -0.058803
   4 C :   -0.206246
   5 H :    0.026417
   6 C :   -0.033767
   7 H :    0.025718
   8 H :    0.035761
   9 C :   -0.041675
  10 H :    0.022209
  11 H :    0.036086
  12 C :   -0.069095
  13 H :    0.025687
  14 H :    0.015455
  15 H :    0.028863
  16 S :    0.384267
  17 C :   -0.166669
  18 C :   -0.067881
  19 C :   -0.058165
  20 C :   -0.191698
  21 H :    0.034551
  22 C :   -0.035979
  23 H :    0.028370
  24 H :    0.040895
  25 C :   -0.049659
  26 H :    0.025476
  27 H :    0.021632
  28 C :   -0.074973
  29 H :    0.024965
  30 H :    0.030533
  31 H :    0.026529
  32 H :    0.036839
  33 H :    0.029428

  Mayer bond orders larger than 0.100000
B(  0-S ,  1-C ) :   1.1521 B(  0-S ,  4-C ) :   1.1558 B(  1-C ,  2-C ) :   1.5604
B(  1-C , 32-H ) :   0.9729 B(  2-C ,  3-C ) :   1.2517 B(  2-C ,  6-C ) :   1.0277
B(  3-C ,  4-C ) :   1.5492 B(  3-C ,  5-H ) :   0.9957 B(  4-C , 20-C ) :   1.0512
B(  6-C ,  7-H ) :   0.9431 B(  6-C ,  8-H ) :   0.9386 B(  6-C ,  9-C ) :   1.0580
B(  9-C , 10-H ) :   0.9567 B(  9-C , 11-H ) :   0.9585 B(  9-C , 12-C ) :   1.0674
B( 12-C , 13-H ) :   0.9747 B( 12-C , 14-H ) :   0.9753 B( 12-C , 15-H ) :   0.9766
B( 16-S , 17-C ) :   1.1243 B( 16-S , 20-C ) :   1.1422 B( 17-C , 18-C ) :   1.6380
B( 17-C , 33-H ) :   0.9747 B( 18-C , 19-C ) :   1.2140 B( 18-C , 21-H ) :   0.9858
B( 19-C , 20-C ) :   1.6120 B( 19-C , 22-C ) :   1.0229 B( 22-C , 23-H ) :   0.9384
B( 22-C , 24-H ) :   0.9400 B( 22-C , 25-C ) :   1.0554 B( 25-C , 26-H ) :   0.9585
B( 25-C , 27-H ) :   0.9522 B( 25-C , 28-C ) :   1.0788 B( 28-C , 29-H ) :   0.9764
B( 28-C , 30-H ) :   0.9734 B( 28-C , 31-H ) :   0.9702

Dispersion correction           -0.014739147
FINAL SINGLE POINT ENERGY     -1339.873690383113

DIPOLE MOMENT
-------------
                                X             Y             Z
Electronic contribution:    -21.62825     -15.46588      -3.80723
Nuclear contribution   :     22.03801      15.81162       3.85610
                        -----------------------------------------
Total Dipole Moment    :      0.40976       0.34573       0.04888
                        -----------------------------------------
Magnitude (a.u.)       :      0.53836
Magnitude (Debye)      :      1.36839

Rotational constants in cm-1:     0.018342     0.008912     0.006985
Rotational constants in MHz :   549.878097   267.160417   209.396480

                             ****ORCA TERMINATED NORMALLY****
TOTAL RUN TIME: 0 days 0 hours 0 minutes 20 seconds 583 msec
