                         Program Version 4.2.1 -  RELEASE  -
|  1> ! wB97X-D3 SP def2-SVP
|  2> %pal
|  3> nprocs 24
|  4> end
|  5>
|  6> * xyz 0 1
|  7> S 	 -131.94 	 27.7675 	 -14.696
|  8> C 	 -132.399 	 26.8096 	 -13.2717
|  9> C 	 -132.863 	 25.5864 	 -13.7463
| 10> C 	 -133.129 	 25.4972 	 -15.1714
| 11> C 	 -132.737 	 26.625 	 -15.8419
| 12> H 	 -133.517 	 24.7016 	 -15.7671
| 13> C 	 -133.21 	 24.4019 	 -12.8673
| 14> H 	 -134.286 	 24.377 	 -13.0546
| 15> H 	 -133.098 	 24.6716 	 -11.8504
| 16> C 	 -132.586 	 23.0021 	 -13.0912
| 17> H 	 -133.299 	 22.3019 	 -12.5684
| 18> H 	 -132.642 	 22.7275 	 -14.0726
| 19> C 	 -131.124 	 22.8872 	 -12.5431
| 20> H 	 -130.972 	 21.8723 	 -12.621
| 21> H 	 -130.323 	 23.396 	 -13.1067
| 22> H 	 -131.154 	 23.0883 	 -11.4638
| 23> S 	 -131.783 	 28.084 	 -17.8916
| 24> C 	 -132.122 	 27.7807 	 -19.5577
| 25> C 	 -133.245 	 26.9955 	 -19.5895
| 26> C 	 -133.624 	 26.3837 	 -18.3724
| 27> C 	 -132.878 	 26.8471 	 -17.307
| 28> H 	 -133.697 	 26.749 	 -20.5459
| 29> C 	 -134.701 	 25.3755 	 -18.3184
| 30> H 	 -135.68 	 25.804 	 -18.5151
| 31> H 	 -134.864 	 25.0198 	 -17.3221
| 32> C 	 -134.594 	 24.1579 	 -19.282
| 33> H 	 -133.546 	 23.8961 	 -19.3929
| 34> H 	 -134.824 	 24.4445 	 -20.3349
| 35> C 	 -135.408 	 22.9852 	 -18.8305
| 36> H 	 -134.972 	 22.1088 	 -19.4219
| 37> H 	 -136.488 	 23.1125 	 -18.8653
| 38> H 	 -135.286 	 22.7012 	 -17.7715
| 39> H 	 -132.191 	 26.9779 	 -12.2197
| 40> H 	 -131.679 	 28.3749 	 -20.4169
| 41> *
| 42>
| 43>                          ****END OF INPUT****

CARTESIAN COORDINATES (ANGSTROEM)
---------------------------------
  S    -131.940000   27.767500  -14.696000
  C    -132.399000   26.809600  -13.271700
  C    -132.863000   25.586400  -13.746300
  C    -133.129000   25.497200  -15.171400
  C    -132.737000   26.625000  -15.841900
  H    -133.517000   24.701600  -15.767100
  C    -133.210000   24.401900  -12.867300
  H    -134.286000   24.377000  -13.054600
  H    -133.098000   24.671600  -11.850400
  C    -132.586000   23.002100  -13.091200
  H    -133.299000   22.301900  -12.568400
  H    -132.642000   22.727500  -14.072600
  C    -131.124000   22.887200  -12.543100
  H    -130.972000   21.872300  -12.621000
  H    -130.323000   23.396000  -13.106700
  H    -131.154000   23.088300  -11.463800
  S    -131.783000   28.084000  -17.891600
  C    -132.122000   27.780700  -19.557700
  C    -133.245000   26.995500  -19.589500
  C    -133.624000   26.383700  -18.372400
  C    -132.878000   26.847100  -17.307000
  H    -133.697000   26.749000  -20.545900
  C    -134.701000   25.375500  -18.318400
  H    -135.680000   25.804000  -18.515100
  H    -134.864000   25.019800  -17.322100
  C    -134.594000   24.157900  -19.282000
  H    -133.546000   23.896100  -19.392900
  H    -134.824000   24.444500  -20.334900
  C    -135.408000   22.985200  -18.830500
  H    -134.972000   22.108800  -19.421900
  H    -136.488000   23.112500  -18.865300
  H    -135.286000   22.701200  -17.771500
  H    -132.191000   26.977900  -12.219700
  H    -131.679000   28.374900  -20.416900

 Total Charge           Charge          ....    0
 Multiplicity           Mult            ....    1
 Number of Electrons    NEL             ....  134
 Basis Dimension        Dim             ....  322

ORBITAL ENERGIES
----------------

  NO   OCC          E(Eh)            E(eV)
   0   2.0000     -88.964907     -2420.8582
   1   2.0000     -88.959720     -2420.7170
   2   2.0000     -10.338171      -281.3159
   3   2.0000     -10.332515      -281.1620
   4   2.0000     -10.321493      -280.8621
   5   2.0000     -10.316406      -280.7237
   6   2.0000     -10.304153      -280.3903
   7   2.0000     -10.304015      -280.3865
   8   2.0000     -10.292458      -280.0720
   9   2.0000     -10.292141      -280.0634
  10   2.0000     -10.290380      -280.0155
  11   2.0000     -10.288789      -279.9722
  12   2.0000     -10.288397      -279.9615
  13   2.0000     -10.287017      -279.9240
  14   2.0000     -10.284067      -279.8437
  15   2.0000     -10.275576      -279.6126
  16   2.0000      -8.078078      -219.8157
  17   2.0000      -8.075479      -219.7450
  18   2.0000      -6.037109      -164.2781
  19   2.0000      -6.034031      -164.1943
  20   2.0000      -6.032887      -164.1632
  21   2.0000      -6.029789      -164.0789
  22   2.0000      -6.028267      -164.0375
  23   2.0000      -6.026177      -163.9806
  24   2.0000      -1.009311       -27.4648
  25   2.0000      -0.981595       -26.7106
  26   2.0000      -0.915764       -24.9192
  27   2.0000      -0.906253       -24.6604
  28   2.0000      -0.870275       -23.6814
  29   2.0000      -0.857480       -23.3332
  30   2.0000      -0.842167       -22.9165
  31   2.0000      -0.819272       -22.2935
  32   2.0000      -0.781229       -21.2583
  33   2.0000      -0.773770       -21.0553
  34   2.0000      -0.711627       -19.3643
  35   2.0000      -0.704017       -19.1573
  36   2.0000      -0.697443       -18.9784
  37   2.0000      -0.661011       -17.9870
  38   2.0000      -0.638594       -17.3770
  39   2.0000      -0.622342       -16.9348
  40   2.0000      -0.604255       -16.4426
  41   2.0000      -0.564795       -15.3688
  42   2.0000      -0.561242       -15.2722
  43   2.0000      -0.548502       -14.9255
  44   2.0000      -0.534935       -14.5563
  45   2.0000      -0.533834       -14.5264
  46   2.0000      -0.521976       -14.2037
  47   2.0000      -0.515746       -14.0342
  48   2.0000      -0.505901       -13.7663
  49   2.0000      -0.500815       -13.6279
  50   2.0000      -0.494956       -13.4684
  51   2.0000      -0.488810       -13.3012
  52   2.0000      -0.473617       -12.8878
  53   2.0000      -0.467446       -12.7199
  54   2.0000      -0.457875       -12.4594
  55   2.0000      -0.453962       -12.3529
  56   2.0000      -0.440230       -11.9793
  57   2.0000      -0.435727       -11.8567
  58   2.0000      -0.431646       -11.7457
  59   2.0000      -0.427444       -11.6313
  60   2.0000      -0.418954       -11.4003
  61   2.0000      -0.413098       -11.2410
  62   2.0000      -0.403431       -10.9779
  63   2.0000      -0.363410        -9.8889
  64   2.0000      -0.330637        -8.9971
  65   2.0000      -0.319391        -8.6911
  66   2.0000      -0.285580        -7.7710
  67   0.0000       0.021345         0.5808
  68   0.0000       0.078506         2.1363
  69   0.0000       0.103189         2.8079
  70   0.0000       0.115382         3.1397
  71   0.0000       0.127553         3.4709

MULLIKEN ATOMIC CHARGES
-----------------------
   0 S :    0.090587
   1 C :   -0.106237
   2 C :   -0.088609
   3 C :   -0.018945
   4 C :   -0.065416
   5 H :    0.008728
   6 C :    0.057775
   7 H :    0.032205
   8 H :   -0.005188
   9 C :   -0.053757
  10 H :    0.032410
  11 H :    0.003623
  12 C :   -0.023564
  13 H :    0.012773
  14 H :    0.058947
  15 H :    0.029651
  16 S :    0.073161
  17 C :   -0.103842
  18 C :   -0.034099
  19 C :   -0.044694
  20 C :   -0.137090
  21 H :    0.016941
  22 C :    0.082587
  23 H :    0.028766
  24 H :   -0.011973
  25 C :   -0.091055
  26 H :    0.029760
  27 H :    0.033381
  28 C :   -0.061977
  29 H :    0.049864
  30 H :    0.037596
  31 H :    0.024581
  32 H :    0.054021
  33 H :    0.089091
Sum of atomic charges:   -0.0000000

LOEWDIN ATOMIC CHARGES
----------------------
   0 S :    0.362010
   1 C :   -0.198859
   2 C :   -0.054929
   3 C :   -0.072522
   4 C :   -0.163055
   5 H :    0.026854
   6 C :   -0.037834
   7 H :    0.035360
   8 H :    0.018099
   9 C :   -0.028271
  10 H :    0.034194
  11 H :    0.006868
  12 C :   -0.059345
  13 H :    0.016694
  14 H :    0.035332
  15 H :    0.028141
  16 S :    0.407916
  17 C :   -0.197833
  18 C :   -0.073814
  19 C :   -0.065586
  20 C :   -0.179496
  21 H :    0.029435
  22 C :   -0.035665
  23 H :    0.036984
  24 H :    0.021617
  25 C :   -0.046172
  26 H :    0.023754
  27 H :    0.026841
  28 C :   -0.073170
  29 H :    0.041682
  30 H :    0.025923
  31 H :    0.024140
  32 H :    0.035833
  33 H :    0.048871

  Mayer bond orders larger than 0.100000
B(  0-S ,  1-C ) :   1.0947 B(  0-S ,  4-C ) :   1.1226 B(  1-C ,  2-C ) :   1.6423
B(  1-C , 32-H ) :   0.9677 B(  2-C ,  3-C ) :   1.1804 B(  2-C ,  6-C ) :   1.0246
B(  3-C ,  4-C ) :   1.6176 B(  3-C ,  5-H ) :   0.9946 B(  4-C , 20-C ) :   1.0553
B(  6-C ,  7-H ) :   0.9366 B(  6-C ,  8-H ) :   0.9421 B(  6-C ,  9-C ) :   1.0712
B(  9-C , 10-H ) :   0.9533 B(  9-C , 11-H ) :   0.9565 B(  9-C , 12-C ) :   1.0681
B( 12-C , 13-H ) :   0.9720 B( 12-C , 14-H ) :   0.9768 B( 12-C , 15-H ) :   0.9753
B( 16-S , 17-C ) :   1.1634 B( 16-S , 20-C ) :   1.1421 B( 17-C , 18-C ) :   1.5889
B( 17-C , 33-H ) :   0.9606 B( 18-C , 19-C ) :   1.2546 B( 18-C , 21-H ) :   0.9878
B( 19-C , 20-C ) :   1.5747 B( 19-C , 22-C ) :   1.0616 B( 22-C , 23-H ) :   0.9143
B( 22-C , 24-H ) :   0.9401 B( 22-C , 25-C ) :   1.0450 B( 25-C , 26-H ) :   0.9629
B( 25-C , 27-H ) :   0.9450 B( 25-C , 28-C ) :   1.0893 B( 28-C , 29-H ) :   0.9720
B( 28-C , 30-H ) :   0.9732 B( 28-C , 31-H ) :   0.9729

Dispersion correction           -0.013579139
FINAL SINGLE POINT ENERGY     -1339.854910290278

DIPOLE MOMENT
-------------
                                X             Y             Z
Electronic contribution:      9.89468      28.22263      -3.34739
Nuclear contribution   :    -10.27141     -28.98661       3.20168
                        -----------------------------------------
Total Dipole Moment    :     -0.37673      -0.76397      -0.14571
                        -----------------------------------------
Magnitude (a.u.)       :      0.86418
Magnitude (Debye)      :      2.19658

Rotational constants in cm-1:     0.016625     0.009192     0.006440
Rotational constants in MHz :   498.405983   275.563549   193.055007

                             ****ORCA TERMINATED NORMALLY****
TOTAL RUN TIME: 0 days 0 hours 0 minutes 20 seconds 35 msec
