                         Program Version 4.2.1 -  RELEASE  -
|  1> ! wB97X-D3 SP def2-SVP
|  2> %pal
|  3> nprocs 24
|  4> end
|  5>
|  6> * xyz 0 1
|  7> S 	 -108.932 	 54.9667 	 -91.0609
|  8> C 	 -110.143 	 55.9733 	 -91.8965
|  9> C 	 -111.337 	 56.1185 	 -91.1435
| 10> C 	 -111.204 	 55.415 	 -89.9206
| 11> C 	 -110.078 	 54.5473 	 -89.8442
| 12> H 	 -112.028 	 55.1877 	 -89.2681
| 13> C 	 -112.63 	 56.8109 	 -91.54
| 14> H 	 -112.425 	 57.5378 	 -92.2998
| 15> H 	 -112.881 	 57.5202 	 -90.7144
| 16> C 	 -113.847 	 55.9459 	 -91.8788
| 17> H 	 -113.599 	 55.4627 	 -92.8034
| 18> H 	 -113.972 	 55.1707 	 -91.1049
| 19> C 	 -115.13 	 56.7201 	 -92.0022
| 20> H 	 -115.203 	 57.4509 	 -92.8258
| 21> H 	 -115.9 	 55.9952 	 -92.1302
| 22> H 	 -115.258 	 57.2202 	 -91.0502
| 23> S 	 -108.286 	 54.127 	 -87.975
| 24> C 	 -108.678 	 53.1198 	 -86.5668
| 25> C 	 -109.919 	 52.5268 	 -86.6791
| 26> C 	 -110.554 	 52.9669 	 -87.8732
| 27> C 	 -109.799 	 53.7953 	 -88.6487
| 28> H 	 -110.283 	 51.8136 	 -85.9268
| 29> C 	 -111.95 	 52.5154 	 -88.2133
| 30> H 	 -112.506 	 53.2632 	 -88.7693
| 31> H 	 -112.556 	 52.3856 	 -87.2907
| 32> C 	 -112.025 	 51.1294 	 -88.8306
| 33> H 	 -113.053 	 50.7935 	 -88.9204
| 34> H 	 -111.692 	 50.2719 	 -88.2616
| 35> C 	 -111.416 	 50.9491 	 -90.2554
| 36> H 	 -111.836 	 50.1022 	 -90.8766
| 37> H 	 -110.326 	 51.03 	 -90.2398
| 38> H 	 -111.812 	 51.7638 	 -90.7929
| 39> H 	 -109.926 	 56.3582 	 -92.8871
| 40> H 	 -108.032 	 52.7618 	 -85.7855
| 41> *
| 42>
| 43>                          ****END OF INPUT****

CARTESIAN COORDINATES (ANGSTROEM)
---------------------------------
  S    -108.932000   54.966700  -91.060900
  C    -110.143000   55.973300  -91.896500
  C    -111.337000   56.118500  -91.143500
  C    -111.204000   55.415000  -89.920600
  C    -110.078000   54.547300  -89.844200
  H    -112.028000   55.187700  -89.268100
  C    -112.630000   56.810900  -91.540000
  H    -112.425000   57.537800  -92.299800
  H    -112.881000   57.520200  -90.714400
  C    -113.847000   55.945900  -91.878800
  H    -113.599000   55.462700  -92.803400
  H    -113.972000   55.170700  -91.104900
  C    -115.130000   56.720100  -92.002200
  H    -115.203000   57.450900  -92.825800
  H    -115.900000   55.995200  -92.130200
  H    -115.258000   57.220200  -91.050200
  S    -108.286000   54.127000  -87.975000
  C    -108.678000   53.119800  -86.566800
  C    -109.919000   52.526800  -86.679100
  C    -110.554000   52.966900  -87.873200
  C    -109.799000   53.795300  -88.648700
  H    -110.283000   51.813600  -85.926800
  C    -111.950000   52.515400  -88.213300
  H    -112.506000   53.263200  -88.769300
  H    -112.556000   52.385600  -87.290700
  C    -112.025000   51.129400  -88.830600
  H    -113.053000   50.793500  -88.920400
  H    -111.692000   50.271900  -88.261600
  C    -111.416000   50.949100  -90.255400
  H    -111.836000   50.102200  -90.876600
  H    -110.326000   51.030000  -90.239800
  H    -111.812000   51.763800  -90.792900
  H    -109.926000   56.358200  -92.887100
  H    -108.032000   52.761800  -85.785500

 Total Charge           Charge          ....    0
 Multiplicity           Mult            ....    1
 Number of Electrons    NEL             ....  134
 Basis Dimension        Dim             ....  322

ORBITAL ENERGIES
----------------

  NO   OCC          E(Eh)            E(eV)
   0   2.0000     -88.972688     -2421.0699
   1   2.0000     -88.965632     -2420.8779
   2   2.0000     -10.329969      -281.0928
   3   2.0000     -10.321447      -280.8608
   4   2.0000     -10.318815      -280.7892
   5   2.0000     -10.313716      -280.6505
   6   2.0000     -10.308687      -280.5136
   7   2.0000     -10.297445      -280.2077
   8   2.0000     -10.295045      -280.1424
   9   2.0000     -10.293882      -280.1108
  10   2.0000     -10.292490      -280.0729
  11   2.0000     -10.292168      -280.0641
  12   2.0000     -10.287492      -279.9369
  13   2.0000     -10.280721      -279.7527
  14   2.0000     -10.278170      -279.6832
  15   2.0000     -10.269328      -279.4426
  16   2.0000      -8.086989      -220.0582
  17   2.0000      -8.081165      -219.8997
  18   2.0000      -6.045402      -164.5037
  19   2.0000      -6.041523      -164.3982
  20   2.0000      -6.039754      -164.3501
  21   2.0000      -6.037930      -164.3004
  22   2.0000      -6.035529      -164.2351
  23   2.0000      -6.031811      -164.1339
  24   2.0000      -1.014907       -27.6170
  25   2.0000      -0.983540       -26.7635
  26   2.0000      -0.917300       -24.9610
  27   2.0000      -0.907545       -24.6956
  28   2.0000      -0.875476       -23.8229
  29   2.0000      -0.853785       -23.2327
  30   2.0000      -0.845447       -23.0058
  31   2.0000      -0.810751       -22.0617
  32   2.0000      -0.784617       -21.3505
  33   2.0000      -0.773811       -21.0565
  34   2.0000      -0.707514       -19.2524
  35   2.0000      -0.700461       -19.0605
  36   2.0000      -0.694247       -18.8914
  37   2.0000      -0.666205       -18.1284
  38   2.0000      -0.641207       -17.4481
  39   2.0000      -0.621634       -16.9155
  40   2.0000      -0.595766       -16.2116
  41   2.0000      -0.572035       -15.5659
  42   2.0000      -0.564710       -15.3665
  43   2.0000      -0.546128       -14.8609
  44   2.0000      -0.539255       -14.6739
  45   2.0000      -0.530358       -14.4318
  46   2.0000      -0.516909       -14.0658
  47   2.0000      -0.509291       -13.8585
  48   2.0000      -0.504834       -13.7372
  49   2.0000      -0.498997       -13.5784
  50   2.0000      -0.496417       -13.5082
  51   2.0000      -0.479206       -13.0399
  52   2.0000      -0.470836       -12.8121
  53   2.0000      -0.466803       -12.7024
  54   2.0000      -0.459211       -12.4958
  55   2.0000      -0.448680       -12.2092
  56   2.0000      -0.443712       -12.0740
  57   2.0000      -0.437632       -11.9086
  58   2.0000      -0.431599       -11.7444
  59   2.0000      -0.430479       -11.7139
  60   2.0000      -0.418157       -11.3786
  61   2.0000      -0.412033       -11.2120
  62   2.0000      -0.408502       -11.1159
  63   2.0000      -0.349423        -9.5083
  64   2.0000      -0.334774        -9.1097
  65   2.0000      -0.329250        -8.9593
  66   2.0000      -0.287042        -7.8108
  67   0.0000       0.025105         0.6831
  68   0.0000       0.072046         1.9605
  69   0.0000       0.101610         2.7650
  70   0.0000       0.113900         3.0994
  71   0.0000       0.128713         3.5025

MULLIKEN ATOMIC CHARGES
-----------------------
   0 S :    0.111674
   1 C :   -0.136719
   2 C :   -0.058220
   3 C :    0.018861
   4 C :   -0.149768
   5 H :    0.016466
   6 C :    0.055729
   7 H :    0.006252
   8 H :    0.025170
   9 C :   -0.057248
  10 H :    0.025507
  11 H :    0.027789
  12 C :   -0.024908
  13 H :    0.038613
  14 H :    0.029513
  15 H :    0.025949
  16 S :    0.107873
  17 C :   -0.086411
  18 C :   -0.047047
  19 C :   -0.052641
  20 C :   -0.127763
  21 H :    0.032826
  22 C :    0.092146
  23 H :    0.012153
  24 H :    0.023050
  25 C :   -0.076151
  26 H :    0.010908
  27 H :    0.018225
  28 C :   -0.059429
  29 H :    0.038402
  30 H :    0.049781
  31 H :    0.010445
  32 H :    0.051039
  33 H :    0.047931
Sum of atomic charges:    0.0000000

LOEWDIN ATOMIC CHARGES
----------------------
   0 S :    0.410567
   1 C :   -0.190246
   2 C :   -0.055001
   3 C :   -0.061478
   4 C :   -0.204054
   5 H :    0.023399
   6 C :   -0.038487
   7 H :    0.025430
   8 H :    0.035463
   9 C :   -0.036611
  10 H :    0.022451
  11 H :    0.025973
  12 C :   -0.059068
  13 H :    0.027994
  14 H :    0.025546
  15 H :    0.025101
  16 S :    0.422518
  17 C :   -0.183237
  18 C :   -0.062319
  19 C :   -0.066538
  20 C :   -0.212529
  21 H :    0.039896
  22 C :   -0.031290
  23 H :    0.025167
  24 H :    0.038637
  25 C :   -0.046743
  26 H :    0.022673
  27 H :    0.020787
  28 C :   -0.072887
  29 H :    0.034407
  30 H :    0.026392
  31 H :    0.016397
  32 H :    0.024571
  33 H :    0.027116

  Mayer bond orders larger than 0.100000
B(  0-S ,  1-C ) :   1.1450 B(  0-S ,  4-C ) :   1.1664 B(  1-C ,  2-C ) :   1.5633
B(  1-C ,  4-C ) :   0.1101 B(  1-C , 32-H ) :   0.9714 B(  2-C ,  3-C ) :   1.2837
B(  2-C ,  6-C ) :   1.0307 B(  3-C ,  4-C ) :   1.5284 B(  3-C ,  5-H ) :   0.9797
B(  4-C , 20-C ) :   1.0467 B(  6-C ,  7-H ) :   0.9343 B(  6-C ,  8-H ) :   0.9360
B(  6-C ,  9-C ) :   1.0595 B(  9-C , 10-H ) :   0.9504 B(  9-C , 11-H ) :   0.9556
B(  9-C , 12-C ) :   1.0865 B( 12-C , 13-H ) :   0.9753 B( 12-C , 14-H ) :   0.9720
B( 12-C , 15-H ) :   0.9730 B( 16-S , 17-C ) :   1.1427 B( 16-S , 20-C ) :   1.1423
B( 17-C , 18-C ) :   1.6325 B( 17-C , 33-H ) :   0.9644 B( 18-C , 19-C ) :   1.2357
B( 18-C , 21-H ) :   0.9868 B( 19-C , 20-C ) :   1.6157 B( 19-C , 22-C ) :   1.0496
B( 22-C , 23-H ) :   0.9344 B( 22-C , 24-H ) :   0.9247 B( 22-C , 25-C ) :   1.0780
B( 25-C , 26-H ) :   0.9497 B( 25-C , 27-H ) :   0.9567 B( 25-C , 28-C ) :   1.0695
B( 28-C , 29-H ) :   0.9740 B( 28-C , 30-H ) :   0.9775 B( 28-C , 31-H ) :   0.9730

Dispersion correction           -0.014824720
FINAL SINGLE POINT ENERGY     -1339.866964372241

DIPOLE MOMENT
-------------
                                X             Y             Z
Electronic contribution:     27.91015       4.27654       7.56207
Nuclear contribution   :    -28.65130      -4.35568      -7.59987
                        -----------------------------------------
Total Dipole Moment    :     -0.74115      -0.07914      -0.03780
                        -----------------------------------------
Magnitude (a.u.)       :      0.74632
Magnitude (Debye)      :      1.89700

Rotational constants in cm-1:     0.019079     0.009049     0.007298
Rotational constants in MHz :   571.968455   271.285868   218.799299

                             ****ORCA TERMINATED NORMALLY****
TOTAL RUN TIME: 0 days 0 hours 0 minutes 21 seconds 213 msec
