                         Program Version 4.2.1 -  RELEASE  -
|  1> ! wB97X-D3 SP def2-SVP
|  2> %pal
|  3> nprocs 24
|  4> end
|  5>
|  6> * xyz 0 1
|  7> S 	 28.6642 	 -29.0547 	 -128.203
|  8> C 	 27.1023 	 -28.3022 	 -128.581
|  9> C 	 26.4345 	 -29.0942 	 -129.471
| 10> C 	 27.1791 	 -30.2349 	 -129.898
| 11> C 	 28.3783 	 -30.4439 	 -129.22
| 12> H 	 26.9116 	 -30.9445 	 -130.66
| 13> C 	 25.2145 	 -28.5766 	 -130.335
| 14> H 	 24.7813 	 -29.344 	 -130.941
| 15> H 	 25.5356 	 -27.8599 	 -131.082
| 16> C 	 24.1154 	 -27.8065 	 -129.522
| 17> H 	 23.4933 	 -28.3659 	 -128.838
| 18> H 	 24.5643 	 -27.0289 	 -128.896
| 19> C 	 23.2123 	 -26.9632 	 -130.414
| 20> H 	 23.852 	 -26.2548 	 -130.88
| 21> H 	 22.6355 	 -27.3855 	 -131.229
| 22> H 	 22.4427 	 -26.3841 	 -129.903
| 23> S 	 30.4952 	 -31.1765 	 -130.716
| 24> C 	 31.4194 	 -32.6497 	 -130.265
| 25> C 	 30.8366 	 -33.2788 	 -129.241
| 26> C 	 29.6167 	 -32.6904 	 -128.76
| 27> C 	 29.3468 	 -31.5295 	 -129.451
| 28> H 	 31.1944 	 -34.1855 	 -128.841
| 29> C 	 28.8791 	 -33.258 	 -127.556
| 30> H 	 29.1143 	 -32.7672 	 -126.638
| 31> H 	 29.2773 	 -34.2124 	 -127.346
| 32> C 	 27.3913 	 -33.3804 	 -127.806
| 33> H 	 27.2172 	 -33.6113 	 -128.908
| 34> H 	 26.9022 	 -32.408 	 -127.679
| 35> C 	 26.7627 	 -34.4961 	 -126.969
| 36> H 	 27.3487 	 -35.3722 	 -127.208
| 37> H 	 25.7619 	 -34.7301 	 -127.372
| 38> H 	 26.7201 	 -34.2574 	 -125.849
| 39> H 	 26.7426 	 -27.2759 	 -128.371
| 40> H 	 32.301 	 -33.0037 	 -130.735
| 41> *
| 42>
| 43>                          ****END OF INPUT****

CARTESIAN COORDINATES (ANGSTROEM)
---------------------------------
  S     28.664200  -29.054700  -128.203000
  C     27.102300  -28.302200  -128.581000
  C     26.434500  -29.094200  -129.471000
  C     27.179100  -30.234900  -129.898000
  C     28.378300  -30.443900  -129.220000
  H     26.911600  -30.944500  -130.660000
  C     25.214500  -28.576600  -130.335000
  H     24.781300  -29.344000  -130.941000
  H     25.535600  -27.859900  -131.082000
  C     24.115400  -27.806500  -129.522000
  H     23.493300  -28.365900  -128.838000
  H     24.564300  -27.028900  -128.896000
  C     23.212300  -26.963200  -130.414000
  H     23.852000  -26.254800  -130.880000
  H     22.635500  -27.385500  -131.229000
  H     22.442700  -26.384100  -129.903000
  S     30.495200  -31.176500  -130.716000
  C     31.419400  -32.649700  -130.265000
  C     30.836600  -33.278800  -129.241000
  C     29.616700  -32.690400  -128.760000
  C     29.346800  -31.529500  -129.451000
  H     31.194400  -34.185500  -128.841000
  C     28.879100  -33.258000  -127.556000
  H     29.114300  -32.767200  -126.638000
  H     29.277300  -34.212400  -127.346000
  C     27.391300  -33.380400  -127.806000
  H     27.217200  -33.611300  -128.908000
  H     26.902200  -32.408000  -127.679000
  C     26.762700  -34.496100  -126.969000
  H     27.348700  -35.372200  -127.208000
  H     25.761900  -34.730100  -127.372000
  H     26.720100  -34.257400  -125.849000
  H     26.742600  -27.275900  -128.371000
  H     32.301000  -33.003700  -130.735000

 Total Charge           Charge          ....    0
 Multiplicity           Mult            ....    1
 Number of Electrons    NEL             ....  134
 Basis Dimension        Dim             ....  322

ORBITAL ENERGIES
----------------

  NO   OCC          E(Eh)            E(eV)
   0   2.0000     -88.966687     -2420.9066
   1   2.0000     -88.964473     -2420.8464
   2   2.0000     -10.329663      -281.0844
   3   2.0000     -10.326208      -280.9904
   4   2.0000     -10.317703      -280.7590
   5   2.0000     -10.314507      -280.6720
   6   2.0000     -10.303324      -280.3677
   7   2.0000     -10.302790      -280.3532
   8   2.0000     -10.297761      -280.2163
   9   2.0000     -10.292783      -280.0809
  10   2.0000     -10.289500      -279.9915
  11   2.0000     -10.287347      -279.9329
  12   2.0000     -10.283823      -279.8371
  13   2.0000     -10.283008      -279.8149
  14   2.0000     -10.281537      -279.7749
  15   2.0000     -10.272649      -279.5330
  16   2.0000      -8.080741      -219.8881
  17   2.0000      -8.078865      -219.8371
  18   2.0000      -6.039380      -164.3399
  19   2.0000      -6.037506      -164.2889
  20   2.0000      -6.035194      -164.2260
  21   2.0000      -6.033497      -164.1798
  22   2.0000      -6.031521      -164.1260
  23   2.0000      -6.029416      -164.0687
  24   2.0000      -1.005507       -27.3612
  25   2.0000      -0.983451       -26.7611
  26   2.0000      -0.910700       -24.7814
  27   2.0000      -0.906198       -24.6589
  28   2.0000      -0.872481       -23.7414
  29   2.0000      -0.847076       -23.0501
  30   2.0000      -0.843429       -22.9509
  31   2.0000      -0.816374       -22.2147
  32   2.0000      -0.781742       -21.2723
  33   2.0000      -0.772219       -21.0131
  34   2.0000      -0.710869       -19.3437
  35   2.0000      -0.703485       -19.1428
  36   2.0000      -0.689428       -18.7603
  37   2.0000      -0.663411       -18.0523
  38   2.0000      -0.639585       -17.4040
  39   2.0000      -0.612173       -16.6581
  40   2.0000      -0.601154       -16.3582
  41   2.0000      -0.571873       -15.5615
  42   2.0000      -0.563744       -15.3402
  43   2.0000      -0.562677       -15.3112
  44   2.0000      -0.523343       -14.2409
  45   2.0000      -0.519788       -14.1442
  46   2.0000      -0.516433       -14.0528
  47   2.0000      -0.511281       -13.9127
  48   2.0000      -0.503411       -13.6985
  49   2.0000      -0.500884       -13.6298
  50   2.0000      -0.494751       -13.4629
  51   2.0000      -0.477872       -13.0036
  52   2.0000      -0.473248       -12.8777
  53   2.0000      -0.465120       -12.6566
  54   2.0000      -0.457476       -12.4486
  55   2.0000      -0.446523       -12.1505
  56   2.0000      -0.442961       -12.0536
  57   2.0000      -0.434429       -11.8214
  58   2.0000      -0.430173       -11.7056
  59   2.0000      -0.423513       -11.5244
  60   2.0000      -0.418677       -11.3928
  61   2.0000      -0.417238       -11.3536
  62   2.0000      -0.412281       -11.2187
  63   2.0000      -0.339619        -9.2415
  64   2.0000      -0.329085        -8.9548
  65   2.0000      -0.318488        -8.6665
  66   2.0000      -0.316945        -8.6245
  67   0.0000       0.047128         1.2824
  68   0.0000       0.049437         1.3452
  69   0.0000       0.110601         3.0096
  70   0.0000       0.118693         3.2298
  71   0.0000       0.133417         3.6305

MULLIKEN ATOMIC CHARGES
-----------------------
   0 S :    0.118720
   1 C :   -0.141053
   2 C :   -0.039693
   3 C :    0.033909
   4 C :   -0.167555
   5 H :    0.009860
   6 C :    0.055056
   7 H :    0.020119
   8 H :    0.033980
   9 C :   -0.065626
  10 H :    0.032437
  11 H :    0.020781
  12 C :   -0.062220
  13 H :    0.013546
  14 H :    0.024887
  15 H :    0.027088
  16 S :    0.108050
  17 C :   -0.062059
  18 C :   -0.008302
  19 C :   -0.039655
  20 C :   -0.203765
  21 H :   -0.002612
  22 C :    0.161272
  23 H :    0.031091
  24 H :   -0.022577
  25 C :   -0.132364
  26 H :    0.036913
  27 H :    0.050845
  28 C :   -0.052060
  29 H :    0.025276
  30 H :    0.034500
  31 H :    0.053159
  32 H :    0.067672
  33 H :    0.040379
Sum of atomic charges:    0.0000000

LOEWDIN ATOMIC CHARGES
----------------------
   0 S :    0.405178
   1 C :   -0.196290
   2 C :   -0.069555
   3 C :   -0.061534
   4 C :   -0.205185
   5 H :    0.029056
   6 C :   -0.021167
   7 H :    0.025199
   8 H :    0.032884
   9 C :   -0.038683
  10 H :    0.021524
  11 H :    0.024698
  12 C :   -0.071343
  13 H :    0.018182
  14 H :    0.020922
  15 H :    0.027151
  16 S :    0.391015
  17 C :   -0.159940
  18 C :   -0.063439
  19 C :   -0.045936
  20 C :   -0.201351
  21 H :    0.023964
  22 C :   -0.026323
  23 H :    0.033624
  24 H :    0.020153
  25 C :   -0.048235
  26 H :    0.030492
  27 H :    0.026364
  28 C :   -0.070460
  29 H :    0.021719
  30 H :    0.028487
  31 H :    0.034794
  32 H :    0.039335
  33 H :    0.024698

  Mayer bond orders larger than 0.100000
B(  0-S ,  1-C ) :   1.1385 B(  0-S ,  4-C ) :   1.1518 B(  1-C ,  2-C ) :   1.6133
B(  1-C , 32-H ) :   0.9616 B(  2-C ,  3-C ) :   1.2462 B(  2-C ,  6-C ) :   1.0090
B(  3-C ,  4-C ) :   1.5799 B(  3-C ,  5-H ) :   0.9962 B(  4-C , 20-C ) :   1.0077
B(  6-C ,  7-H ) :   0.9499 B(  6-C ,  8-H ) :   0.9489 B(  6-C ,  9-C ) :   1.0486
B(  9-C , 10-H ) :   0.9631 B(  9-C , 11-H ) :   0.9554 B(  9-C , 12-C ) :   1.0718
B( 12-C , 13-H ) :   0.9760 B( 12-C , 14-H ) :   0.9776 B( 12-C , 15-H ) :   0.9739
B( 16-S , 17-C ) :   1.1197 B( 16-S , 20-C ) :   1.1482 B( 17-C , 18-C ) :   1.6523
B( 17-C , 33-H ) :   0.9702 B( 18-C , 19-C ) :   1.2287 B( 18-C , 21-H ) :   0.9896
B( 19-C , 20-C ) :   1.6267 B( 19-C , 22-C ) :   1.0410 B( 22-C , 23-H ) :   0.9187
B( 22-C , 24-H ) :   0.9232 B( 22-C , 25-C ) :   1.0516 B( 25-C , 26-H ) :   0.9633
B( 25-C , 27-H ) :   0.9489 B( 25-C , 28-C ) :   1.0825 B( 28-C , 29-H ) :   0.9744
B( 28-C , 30-H ) :   0.9735 B( 28-C , 31-H ) :   0.9725

Dispersion correction           -0.014047011
FINAL SINGLE POINT ENERGY     -1339.870650503976

DIPOLE MOMENT
-------------
                                X             Y             Z
Electronic contribution:     25.36757       2.42943      -3.81638
Nuclear contribution   :    -25.64517      -2.63734       3.75173
                        -----------------------------------------
Total Dipole Moment    :     -0.27759      -0.20791      -0.06464
                        -----------------------------------------
Magnitude (a.u.)       :      0.35279
Magnitude (Debye)      :      0.89673

Rotational constants in cm-1:     0.020474     0.007530     0.006313
Rotational constants in MHz :   613.806023   225.738396   189.263562

                             ****ORCA TERMINATED NORMALLY****
TOTAL RUN TIME: 0 days 0 hours 0 minutes 21 seconds 8 msec
