                         Program Version 4.2.1 -  RELEASE  -
|  1> ! wB97X-D3 SP def2-SVP
|  2> %pal
|  3> nprocs 24
|  4> end
|  5>
|  6> * xyz 0 1
|  7> S 	 -45.2204 	 -3.86855 	 21.8828
|  8> C 	 -45.8743 	 -2.89411 	 20.5984
|  9> C 	 -45.8307 	 -3.54628 	 19.4239
| 10> C 	 -45.1055 	 -4.76024 	 19.4861
| 11> C 	 -44.6076 	 -5.04503 	 20.7802
| 12> H 	 -44.7755 	 -5.18804 	 18.5494
| 13> C 	 -46.4451 	 -3.02804 	 18.1071
| 14> H 	 -47.0597 	 -2.17038 	 18.2691
| 15> H 	 -47.0616 	 -3.92073 	 17.7587
| 16> C 	 -45.4114 	 -2.61783 	 16.9476
| 17> H 	 -44.6474 	 -1.91903 	 17.3752
| 18> H 	 -44.8348 	 -3.45182 	 16.6067
| 19> C 	 -46.1405 	 -1.83604 	 15.8419
| 20> H 	 -47.0987 	 -2.34677 	 15.6809
| 21> H 	 -46.3644 	 -0.89731 	 16.2339
| 22> H 	 -45.5521 	 -1.69048 	 14.9861
| 23> S 	 -45.0815 	 -7.51224 	 21.8781
| 24> C 	 -43.7761 	 -8.69372 	 21.9661
| 25> C 	 -42.6058 	 -8.15137 	 21.5105
| 26> C 	 -42.7184 	 -6.7515 	 21.0891
| 27> C 	 -44.0303 	 -6.27827 	 21.193
| 28> H 	 -41.7466 	 -8.76508 	 21.5343
| 29> C 	 -41.5373 	 -5.90575 	 20.6168
| 30> H 	 -40.6559 	 -6.2297 	 21.144
| 31> H 	 -41.8059 	 -4.9155 	 20.9664
| 32> C 	 -41.2543 	 -5.96176 	 19.1411
| 33> H 	 -42.2323 	 -5.88037 	 18.6495
| 34> H 	 -40.8844 	 -6.96706 	 18.9521
| 35> C 	 -40.2778 	 -4.92708 	 18.4548
| 36> H 	 -40.62 	 -3.92261 	 18.4366
| 37> H 	 -40.0359 	 -5.17192 	 17.4331
| 38> H 	 -39.3488 	 -4.84355 	 19.0457
| 39> H 	 -46.3685 	 -1.94811 	 20.7465
| 40> H 	 -43.7983 	 -9.72968 	 22.303
| 41> *
| 42>
| 43>                          ****END OF INPUT****

CARTESIAN COORDINATES (ANGSTROEM)
---------------------------------
  S    -45.220400   -3.868550   21.882800
  C    -45.874300   -2.894110   20.598400
  C    -45.830700   -3.546280   19.423900
  C    -45.105500   -4.760240   19.486100
  C    -44.607600   -5.045030   20.780200
  H    -44.775500   -5.188040   18.549400
  C    -46.445100   -3.028040   18.107100
  H    -47.059700   -2.170380   18.269100
  H    -47.061600   -3.920730   17.758700
  C    -45.411400   -2.617830   16.947600
  H    -44.647400   -1.919030   17.375200
  H    -44.834800   -3.451820   16.606700
  C    -46.140500   -1.836040   15.841900
  H    -47.098700   -2.346770   15.680900
  H    -46.364400   -0.897310   16.233900
  H    -45.552100   -1.690480   14.986100
  S    -45.081500   -7.512240   21.878100
  C    -43.776100   -8.693720   21.966100
  C    -42.605800   -8.151370   21.510500
  C    -42.718400   -6.751500   21.089100
  C    -44.030300   -6.278270   21.193000
  H    -41.746600   -8.765080   21.534300
  C    -41.537300   -5.905750   20.616800
  H    -40.655900   -6.229700   21.144000
  H    -41.805900   -4.915500   20.966400
  C    -41.254300   -5.961760   19.141100
  H    -42.232300   -5.880370   18.649500
  H    -40.884400   -6.967060   18.952100
  C    -40.277800   -4.927080   18.454800
  H    -40.620000   -3.922610   18.436600
  H    -40.035900   -5.171920   17.433100
  H    -39.348800   -4.843550   19.045700
  H    -46.368500   -1.948110   20.746500
  H    -43.798300   -9.729680   22.303000

 Total Charge           Charge          ....    0
 Multiplicity           Mult            ....    1
 Number of Electrons    NEL             ....  134
 Basis Dimension        Dim             ....  322

ORBITAL ENERGIES
----------------

  NO   OCC          E(Eh)            E(eV)
   0   2.0000     -88.967291     -2420.9231
   1   2.0000     -88.962918     -2420.8041
   2   2.0000     -10.329321      -281.0751
   3   2.0000     -10.324176      -280.9351
   4   2.0000     -10.316534      -280.7272
   5   2.0000     -10.309733      -280.5421
   6   2.0000     -10.306914      -280.4654
   7   2.0000     -10.302536      -280.3463
   8   2.0000     -10.295945      -280.1669
   9   2.0000     -10.295570      -280.1567
  10   2.0000     -10.292234      -280.0659
  11   2.0000     -10.291033      -280.0333
  12   2.0000     -10.286013      -279.8966
  13   2.0000     -10.285283      -279.8768
  14   2.0000     -10.277322      -279.6601
  15   2.0000     -10.272746      -279.5356
  16   2.0000      -8.082628      -219.9395
  17   2.0000      -8.077307      -219.7947
  18   2.0000      -6.041017      -164.3844
  19   2.0000      -6.036949      -164.2737
  20   2.0000      -6.035999      -164.2479
  21   2.0000      -6.033565      -164.1816
  22   2.0000      -6.031781      -164.1331
  23   2.0000      -6.027967      -164.0293
  24   2.0000      -1.009725       -27.4760
  25   2.0000      -0.982575       -26.7372
  26   2.0000      -0.906466       -24.6662
  27   2.0000      -0.905197       -24.6317
  28   2.0000      -0.875410       -23.8211
  29   2.0000      -0.850955       -23.1557
  30   2.0000      -0.840792       -22.8791
  31   2.0000      -0.814999       -22.1773
  32   2.0000      -0.783658       -21.3244
  33   2.0000      -0.772996       -21.0343
  34   2.0000      -0.714060       -19.4306
  35   2.0000      -0.700641       -19.0654
  36   2.0000      -0.693575       -18.8731
  37   2.0000      -0.658408       -17.9162
  38   2.0000      -0.640087       -17.4176
  39   2.0000      -0.623789       -16.9741
  40   2.0000      -0.587363       -15.9830
  41   2.0000      -0.572303       -15.5731
  42   2.0000      -0.564572       -15.3628
  43   2.0000      -0.559703       -15.2303
  44   2.0000      -0.534061       -14.5325
  45   2.0000      -0.520322       -14.1587
  46   2.0000      -0.518265       -14.1027
  47   2.0000      -0.510346       -13.8872
  48   2.0000      -0.508617       -13.8402
  49   2.0000      -0.495553       -13.4847
  50   2.0000      -0.491598       -13.3771
  51   2.0000      -0.484592       -13.1864
  52   2.0000      -0.471744       -12.8368
  53   2.0000      -0.470651       -12.8071
  54   2.0000      -0.462566       -12.5871
  55   2.0000      -0.448018       -12.1912
  56   2.0000      -0.444025       -12.0825
  57   2.0000      -0.436218       -11.8701
  58   2.0000      -0.431337       -11.7373
  59   2.0000      -0.430148       -11.7049
  60   2.0000      -0.419382       -11.4120
  61   2.0000      -0.414276       -11.2730
  62   2.0000      -0.411443       -11.1959
  63   2.0000      -0.336819        -9.1653
  64   2.0000      -0.329762        -8.9733
  65   2.0000      -0.322540        -8.7768
  66   2.0000      -0.308006        -8.3813
  67   0.0000       0.039806         1.0832
  68   0.0000       0.054883         1.4934
  69   0.0000       0.116860         3.1799
  70   0.0000       0.124807         3.3962
  71   0.0000       0.132425         3.6035

MULLIKEN ATOMIC CHARGES
-----------------------
   0 S :    0.121888
   1 C :   -0.123850
   2 C :   -0.080060
   3 C :    0.052670
   4 C :   -0.189270
   5 H :    0.020251
   6 C :    0.037364
   7 H :    0.012533
   8 H :    0.053432
   9 C :   -0.102594
  10 H :    0.033711
  11 H :    0.027226
  12 C :    0.001911
  13 H :    0.030845
  14 H :    0.014672
  15 H :    0.030379
  16 S :    0.114553
  17 C :   -0.093114
  18 C :   -0.024462
  19 C :   -0.054474
  20 C :   -0.163920
  21 H :    0.002410
  22 C :    0.115395
  23 H :    0.013967
  24 H :    0.023620
  25 C :   -0.074144
  26 H :    0.023525
  27 H :    0.020556
  28 C :   -0.027338
  29 H :    0.023358
  30 H :    0.034773
  31 H :    0.024163
  32 H :    0.040705
  33 H :    0.059319
Sum of atomic charges:    0.0000000

LOEWDIN ATOMIC CHARGES
----------------------
   0 S :    0.428318
   1 C :   -0.195947
   2 C :   -0.072502
   3 C :   -0.051891
   4 C :   -0.212999
   5 H :    0.029803
   6 C :   -0.027294
   7 H :    0.021928
   8 H :    0.042750
   9 C :   -0.038927
  10 H :    0.026943
  11 H :    0.014266
  12 C :   -0.054500
  13 H :    0.028309
  14 H :    0.017961
  15 H :    0.021740
  16 S :    0.396915
  17 C :   -0.183917
  18 C :   -0.070984
  19 C :   -0.043916
  20 C :   -0.205689
  21 H :    0.024111
  22 C :   -0.029531
  23 H :    0.026924
  24 H :    0.029945
  25 C :   -0.040383
  26 H :    0.022754
  27 H :    0.022945
  28 C :   -0.064128
  29 H :    0.020233
  30 H :    0.026666
  31 H :    0.026309
  32 H :    0.027528
  33 H :    0.036261

  Mayer bond orders larger than 0.100000
B(  0-S ,  1-C ) :   1.1423 B(  0-S ,  4-C ) :   1.1718 B(  1-C ,  2-C ) :   1.6122
B(  1-C , 32-H ) :   0.9678 B(  2-C ,  3-C ) :   1.2771 B(  2-C ,  6-C ) :   1.0178
B(  3-C ,  4-C ) :   1.5321 B(  3-C ,  5-H ) :   0.9897 B(  4-C , 20-C ) :   1.0442
B(  6-C ,  7-H ) :   0.9496 B(  6-C ,  8-H ) :   0.9368 B(  6-C ,  9-C ) :   1.0486
B(  9-C , 10-H ) :   0.9612 B(  9-C , 11-H ) :   0.9599 B(  9-C , 12-C ) :   1.0788
B( 12-C , 13-H ) :   0.9746 B( 12-C , 14-H ) :   0.9742 B( 12-C , 15-H ) :   0.9732
B( 16-S , 17-C ) :   1.1377 B( 16-S , 20-C ) :   1.1347 B( 17-C , 18-C ) :   1.6505
B( 17-C , 33-H ) :   0.9626 B( 18-C , 19-C ) :   1.2119 B( 18-C , 21-H ) :   0.9942
B( 19-C , 20-C ) :   1.6165 B( 19-C , 22-C ) :   1.0461 B( 22-C , 23-H ) :   0.9290
B( 22-C , 24-H ) :   0.9261 B( 22-C , 25-C ) :   1.0688 B( 25-C , 26-H ) :   0.9560
B( 25-C , 27-H ) :   0.9543 B( 25-C , 28-C ) :   1.0752 B( 28-C , 29-H ) :   0.9762
B( 28-C , 30-H ) :   0.9761 B( 28-C , 31-H ) :   0.9746

Dispersion correction           -0.014064708
FINAL SINGLE POINT ENERGY     -1339.876882900272

DIPOLE MOMENT
-------------
                                X             Y             Z
Electronic contribution:    -10.66562     -11.88043      25.78548
Nuclear contribution   :     10.90368      12.07625     -26.34953
                        -----------------------------------------
Total Dipole Moment    :      0.23805       0.19582      -0.56405
                        -----------------------------------------
Magnitude (a.u.)       :      0.64278
Magnitude (Debye)      :      1.63382

Rotational constants in cm-1:     0.017437     0.008649     0.006752
Rotational constants in MHz :   522.748245   259.301035   202.412686

                             ****ORCA TERMINATED NORMALLY****
TOTAL RUN TIME: 0 days 0 hours 0 minutes 21 seconds 394 msec
