                         Program Version 4.2.1 -  RELEASE  -
|  1> ! wB97X-D3 SP def2-SVP
|  2> %pal
|  3> nprocs 24
|  4> end
|  5>
|  6> * xyz 0 1
|  7> S 	 -110.489 	 -0.187195 	 -106.138
|  8> C 	 -111.455 	 1.03762 	 -105.262
|  9> C 	 -111.477 	 2.24593 	 -105.853
| 10> C 	 -110.66 	 2.20707 	 -107.029
| 11> C 	 -110.094 	 1.01846 	 -107.313
| 12> H 	 -110.401 	 3.03429 	 -107.655
| 13> C 	 -112.141 	 3.50773 	 -105.31
| 14> H 	 -111.461 	 4.07564 	 -104.791
| 15> H 	 -112.922 	 3.32373 	 -104.588
| 16> C 	 -112.902 	 4.28984 	 -106.352
| 17> H 	 -113.408 	 5.05029 	 -105.816
| 18> H 	 -112.121 	 4.72339 	 -106.953
| 19> C 	 -113.858 	 3.47787 	 -107.113
| 20> H 	 -113.406 	 2.92308 	 -107.899
| 21> H 	 -114.427 	 2.74541 	 -106.536
| 22> H 	 -114.648 	 4.13561 	 -107.573
| 23> S 	 -107.529 	 0.863108 	 -108.371
| 24> C 	 -107.302 	 0.188343 	 -109.982
| 25> C 	 -108.524 	 0.172546 	 -110.565
| 26> C 	 -109.624 	 0.510017 	 -109.798
| 27> C 	 -109.287 	 0.733424 	 -108.459
| 28> H 	 -108.549 	 -0.0700484 	 -111.63
| 29> C 	 -110.966 	 0.556188 	 -110.437
| 30> H 	 -111.711 	 0.571586 	 -109.646
| 31> H 	 -111.038 	 -0.374313 	 -111.012
| 32> C 	 -111.279 	 1.58502 	 -111.578
| 33> H 	 -112.343 	 1.34431 	 -111.84
| 34> H 	 -110.601 	 1.562 	 -112.442
| 35> C 	 -111.25 	 3.02597 	 -111.126
| 36> H 	 -110.317 	 3.31121 	 -110.652
| 37> H 	 -112.074 	 3.19072 	 -110.406
| 38> H 	 -111.48 	 3.78332 	 -111.912
| 39> H 	 -112.089 	 0.778985 	 -104.403
| 40> H 	 -106.314 	 -0.0426549 	 -110.436
| 41> *
| 42>
| 43>                          ****END OF INPUT****

CARTESIAN COORDINATES (ANGSTROEM)
---------------------------------
  S    -110.489000   -0.187195  -106.138000
  C    -111.455000    1.037620  -105.262000
  C    -111.477000    2.245930  -105.853000
  C    -110.660000    2.207070  -107.029000
  C    -110.094000    1.018460  -107.313000
  H    -110.401000    3.034290  -107.655000
  C    -112.141000    3.507730  -105.310000
  H    -111.461000    4.075640  -104.791000
  H    -112.922000    3.323730  -104.588000
  C    -112.902000    4.289840  -106.352000
  H    -113.408000    5.050290  -105.816000
  H    -112.121000    4.723390  -106.953000
  C    -113.858000    3.477870  -107.113000
  H    -113.406000    2.923080  -107.899000
  H    -114.427000    2.745410  -106.536000
  H    -114.648000    4.135610  -107.573000
  S    -107.529000    0.863108  -108.371000
  C    -107.302000    0.188343  -109.982000
  C    -108.524000    0.172546  -110.565000
  C    -109.624000    0.510017  -109.798000
  C    -109.287000    0.733424  -108.459000
  H    -108.549000   -0.070048  -111.630000
  C    -110.966000    0.556188  -110.437000
  H    -111.711000    0.571586  -109.646000
  H    -111.038000   -0.374313  -111.012000
  C    -111.279000    1.585020  -111.578000
  H    -112.343000    1.344310  -111.840000
  H    -110.601000    1.562000  -112.442000
  C    -111.250000    3.025970  -111.126000
  H    -110.317000    3.311210  -110.652000
  H    -112.074000    3.190720  -110.406000
  H    -111.480000    3.783320  -111.912000
  H    -112.089000    0.778985  -104.403000
  H    -106.314000   -0.042655  -110.436000

 Total Charge           Charge          ....    0
 Multiplicity           Mult            ....    1
 Number of Electrons    NEL             ....  134
 Basis Dimension        Dim             ....  322

ORBITAL ENERGIES
----------------

  NO   OCC          E(Eh)            E(eV)
   0   2.0000     -88.963641     -2420.8238
   1   2.0000     -88.959108     -2420.7004
   2   2.0000     -10.323607      -280.9196
   3   2.0000     -10.320556      -280.8366
   4   2.0000     -10.318070      -280.7690
   5   2.0000     -10.313718      -280.6505
   6   2.0000     -10.298633      -280.2401
   7   2.0000     -10.297405      -280.2066
   8   2.0000     -10.294176      -280.1188
   9   2.0000     -10.290456      -280.0176
  10   2.0000     -10.288795      -279.9723
  11   2.0000     -10.284645      -279.8594
  12   2.0000     -10.283074      -279.8167
  13   2.0000     -10.276269      -279.6315
  14   2.0000     -10.275546      -279.6118
  15   2.0000     -10.273111      -279.5456
  16   2.0000      -8.078554      -219.8286
  17   2.0000      -8.073812      -219.6996
  18   2.0000      -6.037040      -164.2762
  19   2.0000      -6.033210      -164.1720
  20   2.0000      -6.032308      -164.1474
  21   2.0000      -6.029135      -164.0611
  22   2.0000      -6.028387      -164.0407
  23   2.0000      -6.024510      -163.9352
  24   2.0000      -1.010943       -27.5092
  25   2.0000      -0.988763       -26.9056
  26   2.0000      -0.926431       -25.2095
  27   2.0000      -0.908023       -24.7086
  28   2.0000      -0.876118       -23.8404
  29   2.0000      -0.849855       -23.1257
  30   2.0000      -0.846168       -23.0254
  31   2.0000      -0.816236       -22.2109
  32   2.0000      -0.791160       -21.5286
  33   2.0000      -0.775251       -21.0957
  34   2.0000      -0.711462       -19.3599
  35   2.0000      -0.695521       -18.9261
  36   2.0000      -0.691334       -18.8122
  37   2.0000      -0.655448       -17.8356
  38   2.0000      -0.644368       -17.5341
  39   2.0000      -0.626232       -17.0406
  40   2.0000      -0.599484       -16.3128
  41   2.0000      -0.570876       -15.5343
  42   2.0000      -0.567077       -15.4310
  43   2.0000      -0.551817       -15.0157
  44   2.0000      -0.546570       -14.8729
  45   2.0000      -0.542342       -14.7579
  46   2.0000      -0.526013       -14.3135
  47   2.0000      -0.510736       -13.8978
  48   2.0000      -0.500222       -13.6117
  49   2.0000      -0.497138       -13.5278
  50   2.0000      -0.494100       -13.4452
  51   2.0000      -0.481291       -13.0966
  52   2.0000      -0.472318       -12.8524
  53   2.0000      -0.464214       -12.6319
  54   2.0000      -0.461800       -12.5662
  55   2.0000      -0.447600       -12.1798
  56   2.0000      -0.442573       -12.0430
  57   2.0000      -0.434709       -11.8290
  58   2.0000      -0.429749       -11.6941
  59   2.0000      -0.424470       -11.5504
  60   2.0000      -0.420291       -11.4367
  61   2.0000      -0.413927       -11.2635
  62   2.0000      -0.410205       -11.1622
  63   2.0000      -0.335425        -9.1274
  64   2.0000      -0.328871        -8.9490
  65   2.0000      -0.322087        -8.7644
  66   2.0000      -0.310669        -8.4537
  67   0.0000       0.041806         1.1376
  68   0.0000       0.057324         1.5599
  69   0.0000       0.114846         3.1251
  70   0.0000       0.119279         3.2457
  71   0.0000       0.125668         3.4196

MULLIKEN ATOMIC CHARGES
-----------------------
   0 S :    0.113467
   1 C :   -0.141458
   2 C :   -0.062841
   3 C :    0.038559
   4 C :   -0.182869
   5 H :    0.001536
   6 C :    0.113987
   7 H :    0.020451
   8 H :    0.003227
   9 C :   -0.058628
  10 H :    0.018888
  11 H :    0.024854
  12 C :   -0.037486
  13 H :    0.030429
  14 H :    0.021790
  15 H :    0.034887
  16 S :    0.093424
  17 C :   -0.107265
  18 C :   -0.045293
  19 C :    0.019987
  20 C :   -0.192000
  21 H :    0.017031
  22 C :    0.067164
  23 H :    0.027457
  24 H :    0.030624
  25 C :   -0.072770
  26 H :    0.041087
  27 H :    0.037108
  28 C :   -0.076557
  29 H :    0.041379
  30 H :    0.021619
  31 H :    0.035479
  32 H :    0.049105
  33 H :    0.073625
Sum of atomic charges:   -0.0000000

LOEWDIN ATOMIC CHARGES
----------------------
   0 S :    0.394615
   1 C :   -0.175764
   2 C :   -0.063061
   3 C :   -0.053934
   4 C :   -0.206763
   5 H :    0.028091
   6 C :   -0.018532
   7 H :    0.021992
   8 H :    0.026927
   9 C :   -0.039941
  10 H :    0.022276
  11 H :    0.021254
  12 C :   -0.065174
  13 H :    0.021472
  14 H :    0.026066
  15 H :    0.033749
  16 S :    0.390831
  17 C :   -0.181691
  18 C :   -0.081336
  19 C :   -0.060972
  20 C :   -0.199188
  21 H :    0.032127
  22 C :   -0.030870
  23 H :    0.030325
  24 H :    0.038304
  25 C :   -0.038423
  26 H :    0.034510
  27 H :    0.024947
  28 C :   -0.077509
  29 H :    0.022330
  30 H :    0.023167
  31 H :    0.028911
  32 H :    0.030001
  33 H :    0.041264

  Mayer bond orders larger than 0.100000
B(  0-S ,  1-C ) :   1.1255 B(  0-S ,  4-C ) :   1.1323 B(  1-C ,  2-C ) :   1.6724
B(  1-C , 32-H ) :   0.9599 B(  2-C ,  3-C ) :   1.1845 B(  2-C ,  6-C ) :   1.0117
B(  3-C ,  4-C ) :   1.6430 B(  3-C ,  5-H ) :   0.9985 B(  4-C , 20-C ) :   1.0271
B(  6-C ,  7-H ) :   0.9383 B(  6-C ,  8-H ) :   0.9384 B(  6-C ,  9-C ) :   1.0800
B(  9-C , 10-H ) :   0.9556 B(  9-C , 11-H ) :   0.9488 B(  9-C , 12-C ) :   1.0905
B( 12-C , 13-H ) :   0.9652 B( 12-C , 14-H ) :   0.9704 B( 12-C , 15-H ) :   0.9714
B( 16-S , 17-C ) :   1.1508 B( 16-S , 20-C ) :   1.1509 B( 17-C , 18-C ) :   1.5891
B( 17-C , 20-C ) :   0.1111 B( 17-C , 33-H ) :   0.9671 B( 18-C , 19-C ) :   1.2559
B( 18-C , 21-H ) :   0.9887 B( 19-C , 20-C ) :   1.5506 B( 19-C , 22-C ) :   1.0593
B( 22-C , 23-H ) :   0.9311 B( 22-C , 24-H ) :   0.9288 B( 22-C , 25-C ) :   1.0680
B( 25-C , 26-H ) :   0.9543 B( 25-C , 27-H ) :   0.9559 B( 25-C , 28-C ) :   1.0769
B( 28-C , 29-H ) :   0.9744 B( 28-C , 30-H ) :   0.9739 B( 28-C , 31-H ) :   0.9707

Dispersion correction           -0.015845722
FINAL SINGLE POINT ENERGY     -1339.873248445101

DIPOLE MOMENT
-------------
                                X             Y             Z
Electronic contribution:     20.65653     -16.63086      10.17600
Nuclear contribution   :    -21.10713      17.05962     -10.49458
                        -----------------------------------------
Total Dipole Moment    :     -0.45060       0.42876      -0.31858
                        -----------------------------------------
Magnitude (a.u.)       :      0.69883
Magnitude (Debye)      :      1.77628

Rotational constants in cm-1:     0.018448     0.010219     0.007689
Rotational constants in MHz :   553.068011   306.362399   230.496901

                             ****ORCA TERMINATED NORMALLY****
TOTAL RUN TIME: 0 days 0 hours 0 minutes 23 seconds 129 msec
