                         Program Version 4.2.1 -  RELEASE  -
|  1> ! wB97X-D3 SP def2-SVP
|  2> %pal
|  3> nprocs 24
|  4> end
|  5>
|  6> * xyz 0 1
|  7> S 	 -4.33575 	 -19.0085 	 -104.941
|  8> C 	 -4.124 	 -20.1658 	 -103.633
|  9> C 	 -4.27572 	 -19.5381 	 -102.415
| 10> C 	 -4.56692 	 -18.1696 	 -102.531
| 11> C 	 -4.5671 	 -17.6615 	 -103.842
| 12> H 	 -4.77524 	 -17.4993 	 -101.724
| 13> C 	 -4.27087 	 -20.3657 	 -101.129
| 14> H 	 -5.03981 	 -21.1532 	 -101.149
| 15> H 	 -4.42645 	 -19.6394 	 -100.381
| 16> C 	 -2.86667 	 -20.9488 	 -100.717
| 17> H 	 -2.50333 	 -21.6738 	 -101.436
| 18> H 	 -2.1488 	 -20.1 	 -100.822
| 19> C 	 -2.91519 	 -21.4056 	 -99.2245
| 20> H 	 -1.87004 	 -21.5352 	 -98.8999
| 21> H 	 -3.43902 	 -20.7388 	 -98.5868
| 22> H 	 -3.42374 	 -22.3599 	 -99.1501
| 23> S 	 -3.41861 	 -15.5592 	 -105.104
| 24> C 	 -4.33727 	 -14.1217 	 -105.345
| 25> C 	 -5.5888 	 -14.2179 	 -104.786
| 26> C 	 -5.8115 	 -15.4408 	 -104.106
| 27> C 	 -4.77111 	 -16.3124 	 -104.319
| 28> H 	 -6.22646 	 -13.3426 	 -104.762
| 29> C 	 -7.09335 	 -15.6719 	 -103.264
| 30> H 	 -7.27405 	 -16.7453 	 -103.306
| 31> H 	 -8.01682 	 -15.1933 	 -103.701
| 32> C 	 -7.01893 	 -15.4557 	 -101.798
| 33> H 	 -6.4337 	 -16.2112 	 -101.292
| 34> H 	 -8.03499 	 -15.5313 	 -101.485
| 35> C 	 -6.6048 	 -14.012 	 -101.398
| 36> H 	 -5.57903 	 -13.7537 	 -101.648
| 37> H 	 -6.75257 	 -13.8422 	 -100.352
| 38> H 	 -7.28298 	 -13.3814 	 -101.951
| 39> H 	 -3.91747 	 -21.2079 	 -103.693
| 40> H 	 -4.03602 	 -13.1406 	 -105.726
| 41> *
| 42>
| 43>                          ****END OF INPUT****

CARTESIAN COORDINATES (ANGSTROEM)
---------------------------------
  S     -4.335750  -19.008500  -104.941000
  C     -4.124000  -20.165800  -103.633000
  C     -4.275720  -19.538100  -102.415000
  C     -4.566920  -18.169600  -102.531000
  C     -4.567100  -17.661500  -103.842000
  H     -4.775240  -17.499300  -101.724000
  C     -4.270870  -20.365700  -101.129000
  H     -5.039810  -21.153200  -101.149000
  H     -4.426450  -19.639400  -100.381000
  C     -2.866670  -20.948800  -100.717000
  H     -2.503330  -21.673800  -101.436000
  H     -2.148800  -20.100000  -100.822000
  C     -2.915190  -21.405600  -99.224500
  H     -1.870040  -21.535200  -98.899900
  H     -3.439020  -20.738800  -98.586800
  H     -3.423740  -22.359900  -99.150100
  S     -3.418610  -15.559200  -105.104000
  C     -4.337270  -14.121700  -105.345000
  C     -5.588800  -14.217900  -104.786000
  C     -5.811500  -15.440800  -104.106000
  C     -4.771110  -16.312400  -104.319000
  H     -6.226460  -13.342600  -104.762000
  C     -7.093350  -15.671900  -103.264000
  H     -7.274050  -16.745300  -103.306000
  H     -8.016820  -15.193300  -103.701000
  C     -7.018930  -15.455700  -101.798000
  H     -6.433700  -16.211200  -101.292000
  H     -8.034990  -15.531300  -101.485000
  C     -6.604800  -14.012000  -101.398000
  H     -5.579030  -13.753700  -101.648000
  H     -6.752570  -13.842200  -100.352000
  H     -7.282980  -13.381400  -101.951000
  H     -3.917470  -21.207900  -103.693000
  H     -4.036020  -13.140600  -105.726000

 Total Charge           Charge          ....    0
 Multiplicity           Mult            ....    1
 Number of Electrons    NEL             ....  134
 Basis Dimension        Dim             ....  322

ORBITAL ENERGIES
----------------

  NO   OCC          E(Eh)            E(eV)
   0   2.0000     -88.968211     -2420.9481
   1   2.0000     -88.965767     -2420.8816
   2   2.0000     -10.329443      -281.0784
   3   2.0000     -10.323142      -280.9070
   4   2.0000     -10.314084      -280.6605
   5   2.0000     -10.309681      -280.5407
   6   2.0000     -10.302853      -280.3549
   7   2.0000     -10.295915      -280.1661
   8   2.0000     -10.293419      -280.0982
   9   2.0000     -10.292976      -280.0861
  10   2.0000     -10.292196      -280.0649
  11   2.0000     -10.290957      -280.0312
  12   2.0000     -10.288641      -279.9681
  13   2.0000     -10.281498      -279.7738
  14   2.0000     -10.279671      -279.7241
  15   2.0000     -10.271706      -279.5073
  16   2.0000      -8.083540      -219.9643
  17   2.0000      -8.080027      -219.8687
  18   2.0000      -6.042025      -164.4119
  19   2.0000      -6.038518      -164.3164
  20   2.0000      -6.037961      -164.3013
  21   2.0000      -6.034396      -164.2043
  22   2.0000      -6.034275      -164.2010
  23   2.0000      -6.031034      -164.1128
  24   2.0000      -1.010779       -27.5047
  25   2.0000      -0.986229       -26.8366
  26   2.0000      -0.915020       -24.8990
  27   2.0000      -0.907052       -24.6821
  28   2.0000      -0.869451       -23.6590
  29   2.0000      -0.850115       -23.1328
  30   2.0000      -0.844884       -22.9905
  31   2.0000      -0.813907       -22.1475
  32   2.0000      -0.787294       -21.4234
  33   2.0000      -0.772689       -21.0259
  34   2.0000      -0.709890       -19.3171
  35   2.0000      -0.703241       -19.1362
  36   2.0000      -0.688684       -18.7400
  37   2.0000      -0.661709       -18.0060
  38   2.0000      -0.641409       -17.4536
  39   2.0000      -0.615797       -16.7567
  40   2.0000      -0.593046       -16.1376
  41   2.0000      -0.571828       -15.5602
  42   2.0000      -0.565743       -15.3946
  43   2.0000      -0.558691       -15.2028
  44   2.0000      -0.546604       -14.8738
  45   2.0000      -0.522509       -14.2182
  46   2.0000      -0.513107       -13.9623
  47   2.0000      -0.510522       -13.8920
  48   2.0000      -0.505422       -13.7532
  49   2.0000      -0.500439       -13.6176
  50   2.0000      -0.484236       -13.1767
  51   2.0000      -0.481252       -13.0955
  52   2.0000      -0.478969       -13.0334
  53   2.0000      -0.470234       -12.7957
  54   2.0000      -0.463238       -12.6054
  55   2.0000      -0.447860       -12.1869
  56   2.0000      -0.443960       -12.0808
  57   2.0000      -0.442561       -12.0427
  58   2.0000      -0.429126       -11.6771
  59   2.0000      -0.424632       -11.5548
  60   2.0000      -0.419841       -11.4244
  61   2.0000      -0.414248       -11.2723
  62   2.0000      -0.412297       -11.2192
  63   2.0000      -0.341047        -9.2804
  64   2.0000      -0.333398        -9.0722
  65   2.0000      -0.329626        -8.9696
  66   2.0000      -0.297074        -8.0838
  67   0.0000       0.034467         0.9379
  68   0.0000       0.063257         1.7213
  69   0.0000       0.119782         3.2594
  70   0.0000       0.122330         3.3288
  71   0.0000       0.127010         3.4561

MULLIKEN ATOMIC CHARGES
-----------------------
   0 S :    0.119153
   1 C :   -0.107184
   2 C :   -0.094912
   3 C :    0.051668
   4 C :   -0.178708
   5 H :   -0.008118
   6 C :    0.080257
   7 H :    0.048074
   8 H :   -0.001382
   9 C :   -0.112087
  10 H :    0.031228
  11 H :    0.034631
  12 C :   -0.026976
  13 H :    0.042048
  14 H :    0.025586
  15 H :    0.029691
  16 S :    0.135102
  17 C :   -0.085309
  18 C :   -0.053687
  19 C :   -0.003055
  20 C :   -0.184329
  21 H :    0.014909
  22 C :    0.054658
  23 H :    0.026027
  24 H :    0.037389
  25 C :   -0.053677
  26 H :    0.022515
  27 H :    0.020768
  28 C :   -0.040607
  29 H :    0.043075
  30 H :    0.028355
  31 H :    0.013666
  32 H :    0.035655
  33 H :    0.055574
Sum of atomic charges:    0.0000000

LOEWDIN ATOMIC CHARGES
----------------------
   0 S :    0.411043
   1 C :   -0.190811
   2 C :   -0.069675
   3 C :   -0.063698
   4 C :   -0.198515
   5 H :    0.023395
   6 C :   -0.026697
   7 H :    0.032634
   8 H :    0.020873
   9 C :   -0.038274
  10 H :    0.018149
  11 H :    0.027742
  12 C :   -0.061090
  13 H :    0.031443
  14 H :    0.019718
  15 H :    0.025277
  16 S :    0.433549
  17 C :   -0.199091
  18 C :   -0.074187
  19 C :   -0.050213
  20 C :   -0.212857
  21 H :    0.029973
  22 C :   -0.034491
  23 H :    0.036188
  24 H :    0.037058
  25 C :   -0.035919
  26 H :    0.016803
  27 H :    0.026361
  28 C :   -0.061153
  29 H :    0.024549
  30 H :    0.021595
  31 H :    0.020624
  32 H :    0.024169
  33 H :    0.035528

  Mayer bond orders larger than 0.100000
B(  0-S ,  1-C ) :   1.1484 B(  0-S ,  4-C ) :   1.1701 B(  1-C ,  2-C ) :   1.5779
B(  1-C ,  4-C ) :   0.1102 B(  1-C , 32-H ) :   0.9744 B(  2-C ,  3-C ) :   1.2867
B(  2-C ,  6-C ) :   1.0138 B(  3-C ,  4-C ) :   1.5358 B(  3-C ,  5-H ) :   0.9968
B(  4-C , 20-C ) :   1.0232 B(  6-C ,  7-H ) :   0.9471 B(  6-C ,  8-H ) :   0.9384
B(  6-C ,  9-C ) :   1.0533 B(  9-C , 10-H ) :   0.9604 B(  9-C , 11-H ) :   0.9597
B(  9-C , 12-C ) :   1.0731 B( 12-C , 13-H ) :   0.9764 B( 12-C , 14-H ) :   0.9763
B( 12-C , 15-H ) :   0.9751 B( 16-S , 17-C ) :   1.1562 B( 16-S , 20-C ) :   1.1568
B( 17-C , 18-C ) :   1.6157 B( 17-C , 33-H ) :   0.9625 B( 18-C , 19-C ) :   1.2459
B( 18-C , 21-H ) :   0.9881 B( 19-C , 20-C ) :   1.5960 B( 19-C , 22-C ) :   1.0311
B( 22-C , 23-H ) :   0.9204 B( 22-C , 24-H ) :   0.9421 B( 22-C , 25-C ) :   1.0969
B( 25-C , 26-H ) :   0.9507 B( 25-C , 27-H ) :   0.9461 B( 25-C , 28-C ) :   1.0775
B( 28-C , 29-H ) :   0.9755 B( 28-C , 30-H ) :   0.9756 B( 28-C , 31-H ) :   0.9736

Dispersion correction           -0.014555425
FINAL SINGLE POINT ENERGY     -1339.882258729713

DIPOLE MOMENT
-------------
                                X             Y             Z
Electronic contribution:      6.59470       4.01254     -26.19916
Nuclear contribution   :     -6.88976      -3.94843      26.84727
                        -----------------------------------------
Total Dipole Moment    :     -0.29505       0.06411       0.64812
                        -----------------------------------------
Magnitude (a.u.)       :      0.71500
Magnitude (Debye)      :      1.81738

Rotational constants in cm-1:     0.020358     0.007933     0.006503
Rotational constants in MHz :   610.311797   237.833477   194.950896

                             ****ORCA TERMINATED NORMALLY****
TOTAL RUN TIME: 0 days 0 hours 0 minutes 21 seconds 703 msec
