                         Program Version 4.2.1 -  RELEASE  -
|  1> ! wB97X-D3 SP def2-SVP
|  2> %pal
|  3> nprocs 24
|  4> end
|  5>
|  6> * xyz 0 1
|  7> S 	 -49.5766 	 20.2549 	 31.5602
|  8> C 	 -48.4746 	 20.2768 	 30.1889
|  9> C 	 -48.7801 	 19.2781 	 29.3088
| 10> C 	 -49.9424 	 18.5393 	 29.7005
| 11> C 	 -50.5194 	 18.9452 	 30.9133
| 12> H 	 -50.4765 	 17.7332 	 29.2834
| 13> C 	 -48.0449 	 18.8929 	 27.9942
| 14> H 	 -48.2933 	 17.8286 	 27.915
| 15> H 	 -46.9646 	 18.8983 	 28.1435
| 16> C 	 -48.4289 	 19.6215 	 26.6271
| 17> H 	 -48.3735 	 20.7232 	 26.7062
| 18> H 	 -47.5788 	 19.2569 	 26.0085
| 19> C 	 -49.7535 	 19.1017 	 26.0465
| 20> H 	 -50.6011 	 19.2374 	 26.732
| 21> H 	 -50.0123 	 19.5983 	 25.1392
| 22> H 	 -49.699 	 17.985 	 25.8823
| 23> S 	 -53.2765 	 19.199 	 31.6023
| 24> C 	 -53.9761 	 17.6791 	 32.0009
| 25> C 	 -53.0696 	 16.6567 	 32.3296
| 26> C 	 -51.7594 	 17.0123 	 31.9825
| 27> C 	 -51.6863 	 18.3516 	 31.5549
| 28> H 	 -53.5087 	 15.6923 	 32.7335
| 29> C 	 -50.6307 	 15.9894 	 32.0598
| 30> H 	 -50.5395 	 15.6883 	 33.065
| 31> H 	 -49.7335 	 16.6337 	 31.8958
| 32> C 	 -50.6419 	 14.8576 	 31.0818
| 33> H 	 -50.6402 	 15.2383 	 30.0606
| 34> H 	 -51.5198 	 14.247 	 31.1995
| 35> C 	 -49.4863 	 13.8271 	 31.202
| 36> H 	 -49.3754 	 13.3685 	 32.151
| 37> H 	 -48.634 	 14.4526 	 31.1588
| 38> H 	 -49.5338 	 13.0963 	 30.3816
| 39> H 	 -47.7416 	 21.0184 	 30.0073
| 40> H 	 -55.0282 	 17.4818 	 32.0937
| 41> *
| 42>
| 43>                          ****END OF INPUT****

CARTESIAN COORDINATES (ANGSTROEM)
---------------------------------
  S    -49.576600   20.254900   31.560200
  C    -48.474600   20.276800   30.188900
  C    -48.780100   19.278100   29.308800
  C    -49.942400   18.539300   29.700500
  C    -50.519400   18.945200   30.913300
  H    -50.476500   17.733200   29.283400
  C    -48.044900   18.892900   27.994200
  H    -48.293300   17.828600   27.915000
  H    -46.964600   18.898300   28.143500
  C    -48.428900   19.621500   26.627100
  H    -48.373500   20.723200   26.706200
  H    -47.578800   19.256900   26.008500
  C    -49.753500   19.101700   26.046500
  H    -50.601100   19.237400   26.732000
  H    -50.012300   19.598300   25.139200
  H    -49.699000   17.985000   25.882300
  S    -53.276500   19.199000   31.602300
  C    -53.976100   17.679100   32.000900
  C    -53.069600   16.656700   32.329600
  C    -51.759400   17.012300   31.982500
  C    -51.686300   18.351600   31.554900
  H    -53.508700   15.692300   32.733500
  C    -50.630700   15.989400   32.059800
  H    -50.539500   15.688300   33.065000
  H    -49.733500   16.633700   31.895800
  C    -50.641900   14.857600   31.081800
  H    -50.640200   15.238300   30.060600
  H    -51.519800   14.247000   31.199500
  C    -49.486300   13.827100   31.202000
  H    -49.375400   13.368500   32.151000
  H    -48.634000   14.452600   31.158800
  H    -49.533800   13.096300   30.381600
  H    -47.741600   21.018400   30.007300
  H    -55.028200   17.481800   32.093700

 Total Charge           Charge          ....    0
 Multiplicity           Mult            ....    1
 Number of Electrons    NEL             ....  134
 Basis Dimension        Dim             ....  322

ORBITAL ENERGIES
----------------

  NO   OCC          E(Eh)            E(eV)
   0   2.0000     -88.973908     -2421.1031
   1   2.0000     -88.962106     -2420.7820
   2   2.0000     -10.329001      -281.0664
   3   2.0000     -10.324968      -280.9567
   4   2.0000     -10.317869      -280.7635
   5   2.0000     -10.309901      -280.5467
   6   2.0000     -10.307084      -280.4700
   7   2.0000     -10.301294      -280.3125
   8   2.0000     -10.296968      -280.1947
   9   2.0000     -10.296787      -280.1898
  10   2.0000     -10.296749      -280.1888
  11   2.0000     -10.288902      -279.9752
  12   2.0000     -10.287994      -279.9505
  13   2.0000     -10.284041      -279.8430
  14   2.0000     -10.279961      -279.7320
  15   2.0000     -10.273641      -279.5600
  16   2.0000      -8.088072      -220.0876
  17   2.0000      -8.076857      -219.7825
  18   2.0000      -6.046451      -164.5323
  19   2.0000      -6.042858      -164.4345
  20   2.0000      -6.038809      -164.3243
  21   2.0000      -6.035337      -164.2299
  22   2.0000      -6.031179      -164.1167
  23   2.0000      -6.027841      -164.0259
  24   2.0000      -1.002916       -27.2907
  25   2.0000      -0.982251       -26.7284
  26   2.0000      -0.913482       -24.8571
  27   2.0000      -0.899781       -24.4843
  28   2.0000      -0.866298       -23.5732
  29   2.0000      -0.856774       -23.3140
  30   2.0000      -0.841758       -22.9054
  31   2.0000      -0.808882       -22.0108
  32   2.0000      -0.785850       -21.3841
  33   2.0000      -0.772759       -21.0278
  34   2.0000      -0.706430       -19.2229
  35   2.0000      -0.700682       -19.0665
  36   2.0000      -0.695900       -18.9364
  37   2.0000      -0.653770       -17.7900
  38   2.0000      -0.645602       -17.5677
  39   2.0000      -0.608167       -16.5491
  40   2.0000      -0.592688       -16.1279
  41   2.0000      -0.569776       -15.5044
  42   2.0000      -0.566387       -15.4122
  43   2.0000      -0.543894       -14.8001
  44   2.0000      -0.535041       -14.5592
  45   2.0000      -0.531493       -14.4626
  46   2.0000      -0.515706       -14.0331
  47   2.0000      -0.511642       -13.9225
  48   2.0000      -0.509746       -13.8709
  49   2.0000      -0.499188       -13.5836
  50   2.0000      -0.481336       -13.0978
  51   2.0000      -0.478538       -13.0217
  52   2.0000      -0.469508       -12.7760
  53   2.0000      -0.459954       -12.5160
  54   2.0000      -0.457869       -12.4592
  55   2.0000      -0.451448       -12.2845
  56   2.0000      -0.447666       -12.1816
  57   2.0000      -0.438732       -11.9385
  58   2.0000      -0.436375       -11.8744
  59   2.0000      -0.429971       -11.7001
  60   2.0000      -0.422745       -11.5035
  61   2.0000      -0.409973       -11.1559
  62   2.0000      -0.406252       -11.0547
  63   2.0000      -0.339820        -9.2470
  64   2.0000      -0.329452        -8.9649
  65   2.0000      -0.328366        -8.9353
  66   2.0000      -0.296867        -8.0782
  67   0.0000       0.035268         0.9597
  68   0.0000       0.055507         1.5104
  69   0.0000       0.113182         3.0799
  70   0.0000       0.118480         3.2240
  71   0.0000       0.129783         3.5316

MULLIKEN ATOMIC CHARGES
-----------------------
   0 S :    0.104030
   1 C :   -0.112439
   2 C :   -0.057342
   3 C :    0.045546
   4 C :   -0.203133
   5 H :   -0.012245
   6 C :    0.034640
   7 H :    0.020049
   8 H :    0.029892
   9 C :   -0.064410
  10 H :    0.042749
  11 H :    0.038452
  12 C :   -0.056668
  13 H :    0.041465
  14 H :    0.033376
  15 H :    0.032109
  16 S :    0.137692
  17 C :   -0.097849
  18 C :   -0.062326
  19 C :   -0.027674
  20 C :   -0.172568
  21 H :    0.044037
  22 C :    0.099485
  23 H :    0.017808
  24 H :    0.028598
  25 C :   -0.067190
  26 H :    0.024828
  27 H :    0.018933
  28 C :   -0.017089
  29 H :    0.020153
  30 H :    0.010138
  31 H :    0.045139
  32 H :    0.032909
  33 H :    0.048908
Sum of atomic charges:    0.0000000

LOEWDIN ATOMIC CHARGES
----------------------
   0 S :    0.403017
   1 C :   -0.188859
   2 C :   -0.067146
   3 C :   -0.063621
   4 C :   -0.203376
   5 H :    0.021688
   6 C :   -0.032579
   7 H :    0.030916
   8 H :    0.028388
   9 C :   -0.038098
  10 H :    0.026597
  11 H :    0.030074
  12 C :   -0.070043
  13 H :    0.027926
  14 H :    0.021909
  15 H :    0.030875
  16 S :    0.409411
  17 C :   -0.186211
  18 C :   -0.081314
  19 C :   -0.040114
  20 C :   -0.201840
  21 H :    0.044339
  22 C :   -0.031502
  23 H :    0.027363
  24 H :    0.036319
  25 C :   -0.036976
  26 H :    0.024631
  27 H :    0.017702
  28 C :   -0.056643
  29 H :    0.019311
  30 H :    0.019359
  31 H :    0.031570
  32 H :    0.022876
  33 H :    0.024051

  Mayer bond orders larger than 0.100000
B(  0-S ,  1-C ) :   1.1397 B(  0-S ,  4-C ) :   1.1539 B(  1-C ,  2-C ) :   1.6140
B(  1-C , 32-H ) :   0.9779 B(  2-C ,  3-C ) :   1.2237 B(  2-C ,  6-C ) :   1.0028
B(  3-C ,  4-C ) :   1.5772 B(  3-C ,  5-H ) :   1.0018 B(  4-C , 20-C ) :   1.0366
B(  6-C ,  7-H ) :   0.9444 B(  6-C ,  8-H ) :   0.9496 B(  6-C ,  9-C ) :   1.0533
B(  9-C , 10-H ) :   0.9604 B(  9-C , 11-H ) :   0.9559 B(  9-C , 12-C ) :   1.0750
B( 12-C , 13-H ) :   0.9767 B( 12-C , 14-H ) :   0.9739 B( 12-C , 15-H ) :   0.9734
B( 16-S , 17-C ) :   1.1778 B( 16-S , 20-C ) :   1.1256 B( 17-C , 18-C ) :   1.6072
B( 17-C , 20-C ) :   0.1023 B( 17-C , 33-H ) :   0.9641 B( 18-C , 19-C ) :   1.2409
B( 18-C , 21-H ) :   0.9816 B( 19-C , 20-C ) :   1.5876 B( 19-C , 22-C ) :   1.0366
B( 22-C , 23-H ) :   0.9304 B( 22-C , 24-H ) :   0.9190 B( 22-C , 25-C ) :   1.0729
B( 25-C , 26-H ) :   0.9509 B( 25-C , 27-H ) :   0.9544 B( 25-C , 28-C ) :   1.0815
B( 28-C , 29-H ) :   0.9744 B( 28-C , 30-H ) :   0.9741 B( 28-C , 31-H ) :   0.9753

Dispersion correction           -0.014625315
FINAL SINGLE POINT ENERGY     -1339.870482766832

DIPOLE MOMENT
-------------
                                X             Y             Z
Electronic contribution:    -11.86488      18.36201      17.19916
Nuclear contribution   :     11.94245     -18.91569     -17.53918
                        -----------------------------------------
Total Dipole Moment    :      0.07757      -0.55368      -0.34002
                        -----------------------------------------
Magnitude (a.u.)       :      0.65436
Magnitude (Debye)      :      1.66326

Rotational constants in cm-1:     0.015823     0.009080     0.007446
Rotational constants in MHz :   474.347859   272.203547   223.214305

                             ****ORCA TERMINATED NORMALLY****
TOTAL RUN TIME: 0 days 0 hours 0 minutes 21 seconds 586 msec
