                         Program Version 4.2.1 -  RELEASE  -
|  1> ! wB97X-D3 SP def2-SVP
|  2> %pal
|  3> nprocs 24
|  4> end
|  5>
|  6> * xyz 0 1
|  7> S 	 -103.079 	 -0.0366351 	 -113.916
|  8> C 	 -103.611 	 0.684195 	 -115.398
|  9> C 	 -104.975 	 0.500631 	 -115.581
| 10> C 	 -105.569 	 -0.132677 	 -114.432
| 11> C 	 -104.639 	 -0.395225 	 -113.367
| 12> H 	 -106.542 	 -0.286708 	 -114.244
| 13> C 	 -105.778 	 1.04871 	 -116.814
| 14> H 	 -106.551 	 0.356764 	 -116.947
| 15> H 	 -105.244 	 0.907248 	 -117.789
| 16> C 	 -106.424 	 2.49404 	 -116.529
| 17> H 	 -105.636 	 3.20838 	 -116.66
| 18> H 	 -107.217 	 2.80252 	 -117.154
| 19> C 	 -106.921 	 2.46703 	 -115.066
| 20> H 	 -107.665 	 1.73022 	 -114.838
| 21> H 	 -106.179 	 2.4702 	 -114.229
| 22> H 	 -107.46 	 3.36798 	 -114.958
| 23> S 	 -103.952 	 -2.55897 	 -111.807
| 24> C 	 -104.806 	 -2.88547 	 -110.342
| 25> C 	 -105.826 	 -1.9796 	 -110.108
| 26> C 	 -105.886 	 -0.927184 	 -111.097
| 27> C 	 -104.867 	 -1.07778 	 -112.082
| 28> H 	 -106.285 	 -2.00616 	 -109.132
| 29> C 	 -107.007 	 0.108016 	 -110.935
| 30> H 	 -106.546 	 1.10279 	 -110.814
| 31> H 	 -107.567 	 -0.154051 	 -110.018
| 32> C 	 -108.056 	 0.202994 	 -112.001
| 33> H 	 -107.782 	 0.976375 	 -112.735
| 34> H 	 -108.988 	 0.592014 	 -111.604
| 35> C 	 -108.409 	 -1.06492 	 -112.667
| 36> H 	 -108.989 	 -1.66561 	 -111.983
| 37> H 	 -107.617 	 -1.72168 	 -113.084
| 38> H 	 -109.12 	 -0.942199 	 -113.534
| 39> H 	 -102.94 	 1.11116 	 -116.12
| 40> H 	 -104.605 	 -3.81395 	 -109.813
| 41> *
| 42>
| 43>                          ****END OF INPUT****

CARTESIAN COORDINATES (ANGSTROEM)
---------------------------------
  S    -103.079000   -0.036635  -113.916000
  C    -103.611000    0.684195  -115.398000
  C    -104.975000    0.500631  -115.581000
  C    -105.569000   -0.132677  -114.432000
  C    -104.639000   -0.395225  -113.367000
  H    -106.542000   -0.286708  -114.244000
  C    -105.778000    1.048710  -116.814000
  H    -106.551000    0.356764  -116.947000
  H    -105.244000    0.907248  -117.789000
  C    -106.424000    2.494040  -116.529000
  H    -105.636000    3.208380  -116.660000
  H    -107.217000    2.802520  -117.154000
  C    -106.921000    2.467030  -115.066000
  H    -107.665000    1.730220  -114.838000
  H    -106.179000    2.470200  -114.229000
  H    -107.460000    3.367980  -114.958000
  S    -103.952000   -2.558970  -111.807000
  C    -104.806000   -2.885470  -110.342000
  C    -105.826000   -1.979600  -110.108000
  C    -105.886000   -0.927184  -111.097000
  C    -104.867000   -1.077780  -112.082000
  H    -106.285000   -2.006160  -109.132000
  C    -107.007000    0.108016  -110.935000
  H    -106.546000    1.102790  -110.814000
  H    -107.567000   -0.154051  -110.018000
  C    -108.056000    0.202994  -112.001000
  H    -107.782000    0.976375  -112.735000
  H    -108.988000    0.592014  -111.604000
  C    -108.409000   -1.064920  -112.667000
  H    -108.989000   -1.665610  -111.983000
  H    -107.617000   -1.721680  -113.084000
  H    -109.120000   -0.942199  -113.534000
  H    -102.940000    1.111160  -116.120000
  H    -104.605000   -3.813950  -109.813000

 Total Charge           Charge          ....    0
 Multiplicity           Mult            ....    1
 Number of Electrons    NEL             ....  134
 Basis Dimension        Dim             ....  322

ORBITAL ENERGIES
----------------

  NO   OCC          E(Eh)            E(eV)
   0   2.0000     -88.966560     -2420.9032
   1   2.0000     -88.964199     -2420.8389
   2   2.0000     -10.333645      -281.1928
   3   2.0000     -10.329337      -281.0755
   4   2.0000     -10.316814      -280.7348
   5   2.0000     -10.312443      -280.6158
   6   2.0000     -10.310523      -280.5636
   7   2.0000     -10.305503      -280.4270
   8   2.0000     -10.296638      -280.1858
   9   2.0000     -10.294773      -280.1350
  10   2.0000     -10.294645      -280.1315
  11   2.0000     -10.290636      -280.0224
  12   2.0000     -10.288727      -279.9705
  13   2.0000     -10.281197      -279.7656
  14   2.0000     -10.276004      -279.6243
  15   2.0000     -10.271738      -279.5082
  16   2.0000      -8.081606      -219.9117
  17   2.0000      -8.080148      -219.8720
  18   2.0000      -6.040002      -164.3568
  19   2.0000      -6.038443      -164.3144
  20   2.0000      -6.035968      -164.2470
  21   2.0000      -6.034235      -164.1999
  22   2.0000      -6.032569      -164.1546
  23   2.0000      -6.031326      -164.1207
  24   2.0000      -1.005596       -27.3637
  25   2.0000      -0.983109       -26.7518
  26   2.0000      -0.918272       -24.9875
  27   2.0000      -0.903947       -24.5977
  28   2.0000      -0.865482       -23.5510
  29   2.0000      -0.850150       -23.1337
  30   2.0000      -0.840497       -22.8711
  31   2.0000      -0.811781       -22.0897
  32   2.0000      -0.786133       -21.3918
  33   2.0000      -0.775435       -21.1007
  34   2.0000      -0.710322       -19.3288
  35   2.0000      -0.705367       -19.1940
  36   2.0000      -0.683247       -18.5921
  37   2.0000      -0.664954       -18.0943
  38   2.0000      -0.646271       -17.5859
  39   2.0000      -0.609712       -16.5911
  40   2.0000      -0.586488       -15.9591
  41   2.0000      -0.570414       -15.5217
  42   2.0000      -0.569890       -15.5075
  43   2.0000      -0.552081       -15.0229
  44   2.0000      -0.548107       -14.9147
  45   2.0000      -0.539530       -14.6813
  46   2.0000      -0.512943       -13.9579
  47   2.0000      -0.506705       -13.7881
  48   2.0000      -0.499856       -13.6018
  49   2.0000      -0.497740       -13.5442
  50   2.0000      -0.489881       -13.3303
  51   2.0000      -0.481669       -13.1069
  52   2.0000      -0.469751       -12.7826
  53   2.0000      -0.464356       -12.6358
  54   2.0000      -0.456909       -12.4331
  55   2.0000      -0.444888       -12.1060
  56   2.0000      -0.442027       -12.0282
  57   2.0000      -0.434662       -11.8278
  58   2.0000      -0.433986       -11.8094
  59   2.0000      -0.425580       -11.5806
  60   2.0000      -0.422122       -11.4865
  61   2.0000      -0.415020       -11.2933
  62   2.0000      -0.403233       -10.9725
  63   2.0000      -0.345763        -9.4087
  64   2.0000      -0.331219        -9.0129
  65   2.0000      -0.327309        -8.9065
  66   2.0000      -0.289457        -7.8765
  67   0.0000       0.029234         0.7955
  68   0.0000       0.068464         1.8630
  69   0.0000       0.113336         3.0840
  70   0.0000       0.123664         3.3651
  71   0.0000       0.125444         3.4135

MULLIKEN ATOMIC CHARGES
-----------------------
   0 S :    0.114295
   1 C :   -0.112455
   2 C :   -0.105500
   3 C :    0.117531
   4 C :   -0.173695
   5 H :   -0.097373
   6 C :    0.068428
   7 H :    0.009875
   8 H :    0.033640
   9 C :   -0.009986
  10 H :    0.027826
  11 H :    0.028187
  12 C :   -0.084495
  13 H :    0.032856
  14 H :    0.066504
  15 H :    0.009320
  16 S :    0.109633
  17 C :   -0.105928
  18 C :   -0.040885
  19 C :   -0.072691
  20 C :   -0.139894
  21 H :    0.030641
  22 C :    0.114317
  23 H :    0.044707
  24 H :    0.020128
  25 C :   -0.070251
  26 H :    0.013108
  27 H :    0.022680
  28 C :   -0.069009
  29 H :    0.019021
  30 H :    0.059732
  31 H :    0.029253
  32 H :    0.044857
  33 H :    0.065620
Sum of atomic charges:   -0.0000000

LOEWDIN ATOMIC CHARGES
----------------------
   0 S :    0.442440
   1 C :   -0.204037
   2 C :   -0.057767
   3 C :   -0.044991
   4 C :   -0.219312
   5 H :    0.002121
   6 C :   -0.031875
   7 H :    0.019560
   8 H :    0.032766
   9 C :   -0.021630
  10 H :    0.022588
  11 H :    0.020955
  12 C :   -0.068883
  13 H :    0.018540
  14 H :    0.036417
  15 H :    0.018523
  16 S :    0.417487
  17 C :   -0.190144
  18 C :   -0.078217
  19 C :   -0.049086
  20 C :   -0.204210
  21 H :    0.033581
  22 C :   -0.028968
  23 H :    0.040785
  24 H :    0.034424
  25 C :   -0.054379
  26 H :    0.021677
  27 H :    0.029608
  28 C :   -0.078312
  29 H :    0.023458
  30 H :    0.030002
  31 H :    0.031154
  32 H :    0.026099
  33 H :    0.029624

  Mayer bond orders larger than 0.100000
B(  0-S ,  1-C ) :   1.1636 B(  0-S ,  4-C ) :   1.1897 B(  1-C ,  2-C ) :   1.5712
B(  1-C ,  4-C ) :   0.1024 B(  1-C , 32-H ) :   0.9742 B(  2-C ,  3-C ) :   1.2703
B(  2-C ,  6-C ) :   1.0187 B(  3-C ,  4-C ) :   1.5151 B(  3-C ,  5-H ) :   1.0096
B(  4-C , 20-C ) :   1.0286 B(  6-C ,  7-H ) :   0.9391 B(  6-C ,  8-H ) :   0.9522
B(  6-C ,  9-C ) :   1.0433 B(  9-C , 10-H ) :   0.9575 B(  9-C , 11-H ) :   0.9605
B(  9-C , 12-C ) :   1.0882 B( 12-C , 13-H ) :   0.9686 B( 12-C , 14-H ) :   0.9647
B( 12-C , 15-H ) :   0.9637 B( 16-S , 17-C ) :   1.1735 B( 16-S , 20-C ) :   1.1551
B( 17-C , 18-C ) :   1.5960 B( 17-C , 20-C ) :   0.1003 B( 17-C , 33-H ) :   0.9654
B( 18-C , 19-C ) :   1.2577 B( 18-C , 21-H ) :   0.9856 B( 19-C , 20-C ) :   1.5719
B( 19-C , 22-C ) :   1.0390 B( 22-C , 23-H ) :   0.9326 B( 22-C , 24-H ) :   0.9352
B( 22-C , 25-C ) :   1.0729 B( 25-C , 26-H ) :   0.9456 B( 25-C , 27-H ) :   0.9462
B( 25-C , 28-C ) :   1.0951 B( 28-C , 29-H ) :   0.9678 B( 28-C , 30-H ) :   0.9581
B( 28-C , 31-H ) :   0.9676

Dispersion correction           -0.016986442
FINAL SINGLE POINT ENERGY     -1339.860217303406

DIPOLE MOMENT
-------------
                                X             Y             Z
Electronic contribution:     24.17386     -13.20321       7.13375
Nuclear contribution   :    -24.83779      13.43446      -7.18362
                        -----------------------------------------
Total Dipole Moment    :     -0.66393       0.23125      -0.04987
                        -----------------------------------------
Magnitude (a.u.)       :      0.70482
Magnitude (Debye)      :      1.79150

Rotational constants in cm-1:     0.020713     0.010568     0.007691
Rotational constants in MHz :   620.973666   316.829094   230.584532

                             ****ORCA TERMINATED NORMALLY****
TOTAL RUN TIME: 0 days 0 hours 0 minutes 23 seconds 916 msec
