                         Program Version 4.2.1 -  RELEASE  -
|  1> ! wB97X-D3 SP def2-SVP
|  2> %pal
|  3> nprocs 24
|  4> end
|  5>
|  6> * xyz 0 1
|  7> S 	 -124.62 	 61.1819 	 -59.4212
|  8> C 	 -123.524 	 62.4695 	 -59.1801
|  9> C 	 -124.019 	 63.3885 	 -58.2854
| 10> C 	 -125.259 	 63.0413 	 -57.7172
| 11> C 	 -125.788 	 61.8672 	 -58.3188
| 12> H 	 -125.732 	 63.5087 	 -56.8493
| 13> C 	 -123.361 	 64.7409 	 -58.1058
| 14> H 	 -122.339 	 64.8315 	 -58.516
| 15> H 	 -123.24 	 64.8432 	 -56.9989
| 16> C 	 -124.205 	 65.9291 	 -58.6577
| 17> H 	 -124.4 	 65.6811 	 -59.7043
| 18> H 	 -125.131 	 65.9017 	 -58.0419
| 19> C 	 -123.601 	 67.3075 	 -58.3607
| 20> H 	 -122.691 	 67.5431 	 -58.9169
| 21> H 	 -124.236 	 68.1672 	 -58.4617
| 22> H 	 -123.217 	 67.3774 	 -57.3406
| 23> S 	 -126.851 	 59.4798 	 -57.3383
| 24> C 	 -128.478 	 59.4863 	 -56.7668
| 25> C 	 -129.06 	 60.7225 	 -57.0411
| 26> C 	 -128.148 	 61.6646 	 -57.5261
| 27> C 	 -126.962 	 61.1004 	 -57.9283
| 28> H 	 -130.095 	 60.9148 	 -56.858
| 29> C 	 -128.618 	 63.0939 	 -57.8263
| 30> H 	 -127.872 	 63.7429 	 -57.2856
| 31> H 	 -129.572 	 63.2733 	 -57.4157
| 32> C 	 -128.758 	 63.4369 	 -59.3014
| 33> H 	 -129.473 	 62.7453 	 -59.853
| 34> H 	 -127.785 	 63.6019 	 -59.7185
| 35> C 	 -129.47 	 64.7873 	 -59.5384
| 36> H 	 -129.014 	 65.5826 	 -58.9505
| 37> H 	 -130.581 	 64.8352 	 -59.2817
| 38> H 	 -129.286 	 65.2272 	 -60.4795
| 39> H 	 -122.627 	 62.7935 	 -59.7624
| 40> H 	 -129.028 	 58.646 	 -56.4149
| 41> *
| 42>
| 43>                          ****END OF INPUT****

CARTESIAN COORDINATES (ANGSTROEM)
---------------------------------
  S    -124.620000   61.181900  -59.421200
  C    -123.524000   62.469500  -59.180100
  C    -124.019000   63.388500  -58.285400
  C    -125.259000   63.041300  -57.717200
  C    -125.788000   61.867200  -58.318800
  H    -125.732000   63.508700  -56.849300
  C    -123.361000   64.740900  -58.105800
  H    -122.339000   64.831500  -58.516000
  H    -123.240000   64.843200  -56.998900
  C    -124.205000   65.929100  -58.657700
  H    -124.400000   65.681100  -59.704300
  H    -125.131000   65.901700  -58.041900
  C    -123.601000   67.307500  -58.360700
  H    -122.691000   67.543100  -58.916900
  H    -124.236000   68.167200  -58.461700
  H    -123.217000   67.377400  -57.340600
  S    -126.851000   59.479800  -57.338300
  C    -128.478000   59.486300  -56.766800
  C    -129.060000   60.722500  -57.041100
  C    -128.148000   61.664600  -57.526100
  C    -126.962000   61.100400  -57.928300
  H    -130.095000   60.914800  -56.858000
  C    -128.618000   63.093900  -57.826300
  H    -127.872000   63.742900  -57.285600
  H    -129.572000   63.273300  -57.415700
  C    -128.758000   63.436900  -59.301400
  H    -129.473000   62.745300  -59.853000
  H    -127.785000   63.601900  -59.718500
  C    -129.470000   64.787300  -59.538400
  H    -129.014000   65.582600  -58.950500
  H    -130.581000   64.835200  -59.281700
  H    -129.286000   65.227200  -60.479500
  H    -122.627000   62.793500  -59.762400
  H    -129.028000   58.646000  -56.414900

 Total Charge           Charge          ....    0
 Multiplicity           Mult            ....    1
 Number of Electrons    NEL             ....  134
 Basis Dimension        Dim             ....  322

ORBITAL ENERGIES
----------------

  NO   OCC          E(Eh)            E(eV)
   0   2.0000     -88.969625     -2420.9866
   1   2.0000     -88.968235     -2420.9488
   2   2.0000     -10.333820      -281.1975
   3   2.0000     -10.321042      -280.8498
   4   2.0000     -10.314937      -280.6837
   5   2.0000     -10.311073      -280.5786
   6   2.0000     -10.299627      -280.2671
   7   2.0000     -10.297026      -280.1963
   8   2.0000     -10.296280      -280.1760
   9   2.0000     -10.295901      -280.1657
  10   2.0000     -10.293504      -280.1005
  11   2.0000     -10.290811      -280.0272
  12   2.0000     -10.289414      -279.9892
  13   2.0000     -10.286977      -279.9229
  14   2.0000     -10.279142      -279.7097
  15   2.0000     -10.274859      -279.5931
  16   2.0000      -8.084748      -219.9972
  17   2.0000      -8.083525      -219.9639
  18   2.0000      -6.043125      -164.4418
  19   2.0000      -6.041980      -164.4106
  20   2.0000      -6.039058      -164.3311
  21   2.0000      -6.037840      -164.2980
  22   2.0000      -6.035780      -164.2419
  23   2.0000      -6.034408      -164.2046
  24   2.0000      -1.014359       -27.6021
  25   2.0000      -0.992251       -27.0005
  26   2.0000      -0.910076       -24.7644
  27   2.0000      -0.909402       -24.7461
  28   2.0000      -0.870668       -23.6921
  29   2.0000      -0.854951       -23.2644
  30   2.0000      -0.848938       -23.1008
  31   2.0000      -0.813195       -22.1282
  32   2.0000      -0.783067       -21.3083
  33   2.0000      -0.772082       -21.0094
  34   2.0000      -0.710795       -19.3417
  35   2.0000      -0.697523       -18.9806
  36   2.0000      -0.689711       -18.7680
  37   2.0000      -0.666731       -18.1427
  38   2.0000      -0.635759       -17.2999
  39   2.0000      -0.621678       -16.9167
  40   2.0000      -0.594683       -16.1821
  41   2.0000      -0.574664       -15.6374
  42   2.0000      -0.571140       -15.5415
  43   2.0000      -0.561104       -15.2684
  44   2.0000      -0.525535       -14.3005
  45   2.0000      -0.520666       -14.1680
  46   2.0000      -0.516111       -14.0441
  47   2.0000      -0.512475       -13.9452
  48   2.0000      -0.503792       -13.7089
  49   2.0000      -0.501481       -13.6460
  50   2.0000      -0.488597       -13.2954
  51   2.0000      -0.487611       -13.2686
  52   2.0000      -0.473110       -12.8740
  53   2.0000      -0.471710       -12.8359
  54   2.0000      -0.458619       -12.4797
  55   2.0000      -0.451026       -12.2730
  56   2.0000      -0.442739       -12.0475
  57   2.0000      -0.432734       -11.7753
  58   2.0000      -0.428743       -11.6667
  59   2.0000      -0.425972       -11.5913
  60   2.0000      -0.419893       -11.4259
  61   2.0000      -0.415511       -11.3066
  62   2.0000      -0.409547       -11.1443
  63   2.0000      -0.351642        -9.5687
  64   2.0000      -0.333945        -9.0871
  65   2.0000      -0.330965        -9.0060
  66   2.0000      -0.289470        -7.8769
  67   0.0000       0.025670         0.6985
  68   0.0000       0.071562         1.9473
  69   0.0000       0.118084         3.2132
  70   0.0000       0.119980         3.2648
  71   0.0000       0.130386         3.5480

MULLIKEN ATOMIC CHARGES
-----------------------
   0 S :    0.120536
   1 C :   -0.104305
   2 C :   -0.099259
   3 C :    0.016848
   4 C :   -0.184789
   5 H :    0.034364
   6 C :    0.011774
   7 H :    0.022177
   8 H :    0.031455
   9 C :   -0.067169
  10 H :    0.041664
  11 H :    0.031407
  12 C :   -0.034271
  13 H :    0.023386
  14 H :    0.034492
  15 H :    0.017507
  16 S :    0.122416
  17 C :   -0.086498
  18 C :   -0.023600
  19 C :   -0.075682
  20 C :   -0.096496
  21 H :    0.009340
  22 C :    0.089539
  23 H :    0.023422
  24 H :   -0.002635
  25 C :   -0.049418
  26 H :    0.049267
  27 H :    0.036847
  28 C :   -0.072016
  29 H :    0.006423
  30 H :    0.041588
  31 H :    0.021828
  32 H :    0.059577
  33 H :    0.050281
Sum of atomic charges:   -0.0000000

LOEWDIN ATOMIC CHARGES
----------------------
   0 S :    0.431936
   1 C :   -0.225036
   2 C :   -0.071863
   3 C :   -0.063735
   4 C :   -0.188347
   5 H :    0.034852
   6 C :   -0.036253
   7 H :    0.026078
   8 H :    0.031825
   9 C :   -0.039342
  10 H :    0.026601
  11 H :    0.027669
  12 C :   -0.072484
  13 H :    0.023979
  14 H :    0.025097
  15 H :    0.027573
  16 S :    0.436357
  17 C :   -0.191075
  18 C :   -0.066633
  19 C :   -0.057665
  20 C :   -0.220265
  21 H :    0.027117
  22 C :   -0.028064
  23 H :    0.034568
  24 H :    0.020272
  25 C :   -0.037005
  26 H :    0.037915
  27 H :    0.025998
  28 C :   -0.078167
  29 H :    0.019932
  30 H :    0.028976
  31 H :    0.020767
  32 H :    0.042411
  33 H :    0.026013

  Mayer bond orders larger than 0.100000
B(  0-S ,  1-C ) :   1.1438 B(  0-S ,  4-C ) :   1.1753 B(  1-C ,  2-C ) :   1.6081
B(  1-C , 32-H ) :   0.9548 B(  2-C ,  3-C ) :   1.2705 B(  2-C ,  6-C ) :   1.0306
B(  3-C ,  4-C ) :   1.5252 B(  3-C ,  5-H ) :   0.9818 B(  4-C , 20-C ) :   1.0338
B(  6-C ,  7-H ) :   0.9491 B(  6-C ,  8-H ) :   0.9344 B(  6-C ,  9-C ) :   1.0538
B(  9-C , 10-H ) :   0.9603 B(  9-C , 11-H ) :   0.9525 B(  9-C , 12-C ) :   1.0754
B( 12-C , 13-H ) :   0.9738 B( 12-C , 14-H ) :   0.9765 B( 12-C , 15-H ) :   0.9695
B( 16-S , 17-C ) :   1.1806 B( 16-S , 20-C ) :   1.1500 B( 17-C , 18-C ) :   1.5558
B( 17-C , 20-C ) :   0.1033 B( 17-C , 33-H ) :   0.9708 B( 18-C , 19-C ) :   1.2934
B( 18-C , 21-H ) :   0.9938 B( 19-C , 20-C ) :   1.5601 B( 19-C , 22-C ) :   1.0450
B( 22-C , 23-H ) :   0.9184 B( 22-C , 24-H ) :   0.9372 B( 22-C , 25-C ) :   1.0795
B( 25-C , 26-H ) :   0.9582 B( 25-C , 27-H ) :   0.9462 B( 25-C , 28-C ) :   1.0857
B( 28-C , 29-H ) :   0.9671 B( 28-C , 30-H ) :   0.9747 B( 28-C , 31-H ) :   0.9729

Dispersion correction           -0.014534385
FINAL SINGLE POINT ENERGY     -1339.873101685712

DIPOLE MOMENT
-------------
                                X             Y             Z
Electronic contribution:      3.97196     -32.12708       2.39125
Nuclear contribution   :     -4.15764      32.76957      -2.24190
                        -----------------------------------------
Total Dipole Moment    :     -0.18568       0.64249       0.14935
                        -----------------------------------------
Magnitude (a.u.)       :      0.68526
Magnitude (Debye)      :      1.74178

Rotational constants in cm-1:     0.018340     0.009264     0.006949
Rotational constants in MHz :   549.833441   277.720477   208.315076

                             ****ORCA TERMINATED NORMALLY****
TOTAL RUN TIME: 0 days 0 hours 0 minutes 22 seconds 171 msec
