                         Program Version 4.2.1 -  RELEASE  -
|  1> ! wB97X-D3 SP def2-SVP
|  2> %pal
|  3> nprocs 24
|  4> end
|  5>
|  6> * xyz 0 1
|  7> S 	 -105.621 	 50.2745 	 -98.135
|  8> C 	 -105.252 	 49.8269 	 -96.4734
|  9> C 	 -106.123 	 48.9019 	 -96.0006
| 10> C 	 -107.072 	 48.4814 	 -97.0153
| 11> C 	 -106.829 	 49.0589 	 -98.2761
| 12> H 	 -107.842 	 47.7066 	 -96.9635
| 13> C 	 -106.207 	 48.3615 	 -94.5347
| 14> H 	 -107.204 	 48.5894 	 -94.2747
| 15> H 	 -105.572 	 48.9931 	 -93.996
| 16> C 	 -105.714 	 46.9444 	 -94.3652
| 17> H 	 -105.882 	 46.7406 	 -93.2615
| 18> H 	 -106.464 	 46.2923 	 -94.7297
| 19> C 	 -104.265 	 46.6289 	 -94.945
| 20> H 	 -103.729 	 45.9149 	 -94.3209
| 21> H 	 -104.249 	 46.2667 	 -96.0121
| 22> H 	 -103.652 	 47.5248 	 -94.9099
| 23> S 	 -108.121 	 47.363 	 -99.8587
| 24> C 	 -108.748 	 47.9295 	 -101.438
| 25> C 	 -108.724 	 49.3128 	 -101.562
| 26> C 	 -108.03 	 49.9174 	 -100.411
| 27> C 	 -107.621 	 48.9784 	 -99.4826
| 28> H 	 -109.036 	 49.8502 	 -102.44
| 29> C 	 -107.769 	 51.4478 	 -100.289
| 30> H 	 -106.718 	 51.6534 	 -100.657
| 31> H 	 -107.689 	 51.5696 	 -99.2081
| 32> C 	 -108.771 	 52.4565 	 -100.895
| 33> H 	 -109.724 	 52.0561 	 -100.578
| 34> H 	 -108.778 	 52.1491 	 -101.958
| 35> C 	 -108.589 	 53.9158 	 -100.419
| 36> H 	 -108.68 	 53.796 	 -99.3623
| 37> H 	 -109.396 	 54.6084 	 -100.687
| 38> H 	 -107.552 	 54.3167 	 -100.582
| 39> H 	 -104.704 	 50.4465 	 -95.7874
| 40> H 	 -109.162 	 47.1654 	 -102.063
| 41> *
| 42>
| 43>                          ****END OF INPUT****

CARTESIAN COORDINATES (ANGSTROEM)
---------------------------------
  S    -105.621000   50.274500  -98.135000
  C    -105.252000   49.826900  -96.473400
  C    -106.123000   48.901900  -96.000600
  C    -107.072000   48.481400  -97.015300
  C    -106.829000   49.058900  -98.276100
  H    -107.842000   47.706600  -96.963500
  C    -106.207000   48.361500  -94.534700
  H    -107.204000   48.589400  -94.274700
  H    -105.572000   48.993100  -93.996000
  C    -105.714000   46.944400  -94.365200
  H    -105.882000   46.740600  -93.261500
  H    -106.464000   46.292300  -94.729700
  C    -104.265000   46.628900  -94.945000
  H    -103.729000   45.914900  -94.320900
  H    -104.249000   46.266700  -96.012100
  H    -103.652000   47.524800  -94.909900
  S    -108.121000   47.363000  -99.858700
  C    -108.748000   47.929500  -101.438000
  C    -108.724000   49.312800  -101.562000
  C    -108.030000   49.917400  -100.411000
  C    -107.621000   48.978400  -99.482600
  H    -109.036000   49.850200  -102.440000
  C    -107.769000   51.447800  -100.289000
  H    -106.718000   51.653400  -100.657000
  H    -107.689000   51.569600  -99.208100
  C    -108.771000   52.456500  -100.895000
  H    -109.724000   52.056100  -100.578000
  H    -108.778000   52.149100  -101.958000
  C    -108.589000   53.915800  -100.419000
  H    -108.680000   53.796000  -99.362300
  H    -109.396000   54.608400  -100.687000
  H    -107.552000   54.316700  -100.582000
  H    -104.704000   50.446500  -95.787400
  H    -109.162000   47.165400  -102.063000

 Total Charge           Charge          ....    0
 Multiplicity           Mult            ....    1
 Number of Electrons    NEL             ....  134
 Basis Dimension        Dim             ....  322

ORBITAL ENERGIES
----------------

  NO   OCC          E(Eh)            E(eV)
   0   2.0000     -88.963975     -2420.8328
   1   2.0000     -88.963851     -2420.8295
   2   2.0000     -10.328955      -281.0652
   3   2.0000     -10.325455      -280.9699
   4   2.0000     -10.323763      -280.9239
   5   2.0000     -10.311442      -280.5886
   6   2.0000     -10.307671      -280.4860
   7   2.0000     -10.304566      -280.4015
   8   2.0000     -10.300714      -280.2967
   9   2.0000     -10.296116      -280.1716
  10   2.0000     -10.295435      -280.1530
  11   2.0000     -10.291348      -280.0418
  12   2.0000     -10.291072      -280.0343
  13   2.0000     -10.286966      -279.9226
  14   2.0000     -10.286750      -279.9167
  15   2.0000     -10.285130      -279.8726
  16   2.0000      -8.078861      -219.8370
  17   2.0000      -8.078618      -219.8304
  18   2.0000      -6.037350      -164.2847
  19   2.0000      -6.037110      -164.2781
  20   2.0000      -6.033482      -164.1794
  21   2.0000      -6.033056      -164.1678
  22   2.0000      -6.029507      -164.0712
  23   2.0000      -6.029457      -164.0699
  24   2.0000      -1.007346       -27.4113
  25   2.0000      -0.980225       -26.6733
  26   2.0000      -0.909967       -24.7615
  27   2.0000      -0.904212       -24.6048
  28   2.0000      -0.869606       -23.6632
  29   2.0000      -0.849968       -23.1288
  30   2.0000      -0.835032       -22.7224
  31   2.0000      -0.811195       -22.0737
  32   2.0000      -0.786223       -21.3942
  33   2.0000      -0.774664       -21.0797
  34   2.0000      -0.710853       -19.3433
  35   2.0000      -0.708714       -19.2851
  36   2.0000      -0.691126       -18.8065
  37   2.0000      -0.664667       -18.0865
  38   2.0000      -0.634488       -17.2653
  39   2.0000      -0.612821       -16.6757
  40   2.0000      -0.596443       -16.2300
  41   2.0000      -0.562668       -15.3110
  42   2.0000      -0.560533       -15.2529
  43   2.0000      -0.557014       -15.1571
  44   2.0000      -0.533703       -14.5228
  45   2.0000      -0.524990       -14.2857
  46   2.0000      -0.519185       -14.1277
  47   2.0000      -0.508580       -13.8392
  48   2.0000      -0.503583       -13.7032
  49   2.0000      -0.491000       -13.3608
  50   2.0000      -0.482851       -13.1390
  51   2.0000      -0.475944       -12.9511
  52   2.0000      -0.473387       -12.8815
  53   2.0000      -0.464155       -12.6303
  54   2.0000      -0.459436       -12.5019
  55   2.0000      -0.455706       -12.4004
  56   2.0000      -0.449805       -12.2398
  57   2.0000      -0.441543       -12.0150
  58   2.0000      -0.430671       -11.7191
  59   2.0000      -0.423262       -11.5175
  60   2.0000      -0.418594       -11.3905
  61   2.0000      -0.414113       -11.2686
  62   2.0000      -0.404318       -11.0021
  63   2.0000      -0.355316        -9.6686
  64   2.0000      -0.329652        -8.9703
  65   2.0000      -0.328151        -8.9294
  66   2.0000      -0.289000        -7.8641
  67   0.0000       0.025715         0.6998
  68   0.0000       0.076482         2.0812
  69   0.0000       0.100194         2.7264
  70   0.0000       0.122847         3.3428
  71   0.0000       0.135225         3.6797

MULLIKEN ATOMIC CHARGES
-----------------------
   0 S :    0.084658
   1 C :   -0.102234
   2 C :   -0.132948
   3 C :    0.012092
   4 C :   -0.141158
   5 H :    0.016978
   6 C :    0.125622
   7 H :    0.026681
   8 H :   -0.006125
   9 C :   -0.069511
  10 H :    0.032524
  11 H :    0.016637
  12 C :   -0.048658
  13 H :    0.036912
  14 H :    0.060226
  15 H :    0.025245
  16 S :    0.084348
  17 C :   -0.092364
  18 C :   -0.009607
  19 C :   -0.069903
  20 C :   -0.131033
  21 H :    0.025876
  22 C :   -0.005859
  23 H :    0.049966
  24 H :    0.029711
  25 C :   -0.063322
  26 H :    0.019496
  27 H :    0.028356
  28 C :   -0.024383
  29 H :    0.023706
  30 H :    0.048849
  31 H :    0.047348
  32 H :    0.044381
  33 H :    0.057493
Sum of atomic charges:   -0.0000000

LOEWDIN ATOMIC CHARGES
----------------------
   0 S :    0.426446
   1 C :   -0.206595
   2 C :   -0.056269
   3 C :   -0.075651
   4 C :   -0.198833
   5 H :    0.025671
   6 C :   -0.018111
   7 H :    0.029952
   8 H :    0.017485
   9 C :   -0.044378
  10 H :    0.033248
  11 H :    0.016868
  12 C :   -0.066187
  13 H :    0.027753
  14 H :    0.040155
  15 H :    0.024123
  16 S :    0.395218
  17 C :   -0.159798
  18 C :   -0.064464
  19 C :   -0.055206
  20 C :   -0.202851
  21 H :    0.032162
  22 C :   -0.046982
  23 H :    0.032606
  24 H :    0.017203
  25 C :   -0.046892
  26 H :    0.023417
  27 H :    0.021160
  28 C :   -0.063483
  29 H :    0.027561
  30 H :    0.033037
  31 H :    0.034471
  32 H :    0.026087
  33 H :    0.021074

  Mayer bond orders larger than 0.100000
B(  0-S ,  1-C ) :   1.1243 B(  0-S ,  4-C ) :   1.1628 B(  1-C ,  2-C ) :   1.6487
B(  1-C , 32-H ) :   0.9574 B(  2-C ,  3-C ) :   1.2375 B(  2-C ,  6-C ) :   1.0006
B(  3-C ,  4-C ) :   1.5557 B(  3-C ,  5-H ) :   0.9854 B(  4-C , 20-C ) :   1.0369
B(  6-C ,  7-H ) :   0.9409 B(  6-C ,  8-H ) :   0.9336 B(  6-C ,  9-C ) :   1.0812
B(  9-C , 10-H ) :   0.9569 B(  9-C , 11-H ) :   0.9582 B(  9-C , 12-C ) :   1.0439
B( 12-C , 13-H ) :   0.9769 B( 12-C , 14-H ) :   0.9740 B( 12-C , 15-H ) :   0.9809
B( 16-S , 17-C ) :   1.1479 B( 16-S , 20-C ) :   1.1332 B( 17-C , 18-C ) :   1.6121
B( 17-C , 33-H ) :   0.9734 B( 18-C , 19-C ) :   1.2053 B( 18-C , 21-H ) :   0.9923
B( 19-C , 20-C ) :   1.6276 B( 19-C , 22-C ) :   1.0207 B( 22-C , 23-H ) :   0.9331
B( 22-C , 24-H ) :   0.9339 B( 22-C , 25-C ) :   1.0574 B( 25-C , 26-H ) :   0.9587
B( 25-C , 27-H ) :   0.9503 B( 25-C , 28-C ) :   1.0624 B( 28-C , 29-H ) :   0.9708
B( 28-C , 30-H ) :   0.9742 B( 28-C , 31-H ) :   0.9769

Dispersion correction           -0.013990628
FINAL SINGLE POINT ENERGY     -1339.865278100785

DIPOLE MOMENT
-------------
                                X             Y             Z
Electronic contribution:     -1.04277      -7.50071      -9.34356
Nuclear contribution   :      0.79146       7.69005       9.59109
                        -----------------------------------------
Total Dipole Moment    :     -0.25131       0.18934       0.24753
                        -----------------------------------------
Magnitude (a.u.)       :      0.40035
Magnitude (Debye)      :      1.01761

Rotational constants in cm-1:     0.021793     0.007885     0.006247
Rotational constants in MHz :   653.326065   236.389459   187.291277

                             ****ORCA TERMINATED NORMALLY****
TOTAL RUN TIME: 0 days 0 hours 0 minutes 21 seconds 90 msec
