                         Program Version 4.2.1 -  RELEASE  -
|  1> ! wB97X-D3 SP def2-SVP
|  2> %pal
|  3> nprocs 24
|  4> end
|  5>
|  6> * xyz 0 1
|  7> S 	 -58.1075 	 5.11234 	 -19.8896
|  8> C 	 -59.3169 	 6.37254 	 -19.9771
|  9> C 	 -60.3096 	 6.047 	 -20.8271
| 10> C 	 -60.165 	 4.67465 	 -21.2746
| 11> C 	 -59.1022 	 3.95648 	 -20.7443
| 12> H 	 -60.8708 	 4.03217 	 -21.8515
| 13> C 	 -61.4691 	 6.86435 	 -21.2085
| 14> H 	 -61.2822 	 7.1608 	 -22.2951
| 15> H 	 -61.3562 	 7.77658 	 -20.6951
| 16> C 	 -62.9174 	 6.20972 	 -21.0443
| 17> H 	 -62.8167 	 5.18366 	 -21.3432
| 18> H 	 -63.0994 	 6.24911 	 -19.9881
| 19> C 	 -64.0712 	 6.9375 	 -21.8291
| 20> H 	 -64.9598 	 6.71706 	 -21.2792
| 21> H 	 -63.9505 	 8.0048 	 -21.8277
| 22> H 	 -64.1766 	 6.76837 	 -22.8795
| 23> S 	 -56.9287 	 2.34154 	 -20.918
| 24> C 	 -57.0316 	 0.628314 	 -21.0928
| 25> C 	 -58.3777 	 0.273359 	 -20.9331
| 26> C 	 -59.344 	 1.3146 	 -20.9598
| 27> C 	 -58.6965 	 2.55125 	 -20.9085
| 28> H 	 -58.5247 	 -0.795618 	 -20.7594
| 29> C 	 -60.8298 	 1.15732 	 -20.7603
| 30> H 	 -61.3316 	 2.13958 	 -20.5433
| 31> H 	 -60.9611 	 0.682731 	 -19.7722
| 32> C 	 -61.7079 	 0.328384 	 -21.686
| 33> H 	 -62.7043 	 0.156609 	 -21.3737
| 34> H 	 -61.2976 	 -0.732792 	 -21.5109
| 35> C 	 -61.8425 	 0.736705 	 -23.1668
| 36> H 	 -60.9522 	 0.461565 	 -23.7522
| 37> H 	 -62.0663 	 1.7714 	 -23.3556
| 38> H 	 -62.8126 	 0.209193 	 -23.4549
| 39> H 	 -59.0899 	 7.38075 	 -19.581
| 40> H 	 -56.3235 	 -0.214039 	 -21.1032
| 41> *
| 42>
| 43>                          ****END OF INPUT****

CARTESIAN COORDINATES (ANGSTROEM)
---------------------------------
  S    -58.107500    5.112340  -19.889600
  C    -59.316900    6.372540  -19.977100
  C    -60.309600    6.047000  -20.827100
  C    -60.165000    4.674650  -21.274600
  C    -59.102200    3.956480  -20.744300
  H    -60.870800    4.032170  -21.851500
  C    -61.469100    6.864350  -21.208500
  H    -61.282200    7.160800  -22.295100
  H    -61.356200    7.776580  -20.695100
  C    -62.917400    6.209720  -21.044300
  H    -62.816700    5.183660  -21.343200
  H    -63.099400    6.249110  -19.988100
  C    -64.071200    6.937500  -21.829100
  H    -64.959800    6.717060  -21.279200
  H    -63.950500    8.004800  -21.827700
  H    -64.176600    6.768370  -22.879500
  S    -56.928700    2.341540  -20.918000
  C    -57.031600    0.628314  -21.092800
  C    -58.377700    0.273359  -20.933100
  C    -59.344000    1.314600  -20.959800
  C    -58.696500    2.551250  -20.908500
  H    -58.524700   -0.795618  -20.759400
  C    -60.829800    1.157320  -20.760300
  H    -61.331600    2.139580  -20.543300
  H    -60.961100    0.682731  -19.772200
  C    -61.707900    0.328384  -21.686000
  H    -62.704300    0.156609  -21.373700
  H    -61.297600   -0.732792  -21.510900
  C    -61.842500    0.736705  -23.166800
  H    -60.952200    0.461565  -23.752200
  H    -62.066300    1.771400  -23.355600
  H    -62.812600    0.209193  -23.454900
  H    -59.089900    7.380750  -19.581000
  H    -56.323500   -0.214039  -21.103200

 Total Charge           Charge          ....    0
 Multiplicity           Mult            ....    1
 Number of Electrons    NEL             ....  134
 Basis Dimension        Dim             ....  322

ORBITAL ENERGIES
----------------

  NO   OCC          E(Eh)            E(eV)
   0   2.0000     -88.968667     -2420.9605
   1   2.0000     -88.959621     -2420.7143
   2   2.0000     -10.335882      -281.2537
   3   2.0000     -10.332834      -281.1707
   4   2.0000     -10.320343      -280.8308
   5   2.0000     -10.313303      -280.6393
   6   2.0000     -10.312146      -280.6078
   7   2.0000     -10.299961      -280.2762
   8   2.0000     -10.296912      -280.1932
   9   2.0000     -10.296249      -280.1752
  10   2.0000     -10.296119      -280.1716
  11   2.0000     -10.293900      -280.1113
  12   2.0000     -10.292560      -280.0748
  13   2.0000     -10.291081      -280.0346
  14   2.0000     -10.282964      -279.8137
  15   2.0000     -10.277995      -279.6785
  16   2.0000      -8.083015      -219.9500
  17   2.0000      -8.074897      -219.7291
  18   2.0000      -6.041652      -164.4017
  19   2.0000      -6.037516      -164.2892
  20   2.0000      -6.033696      -164.1852
  21   2.0000      -6.033581      -164.1821
  22   2.0000      -6.029340      -164.0667
  23   2.0000      -6.025424      -163.9601
  24   2.0000      -1.008679       -27.4476
  25   2.0000      -0.987300       -26.8658
  26   2.0000      -0.909794       -24.7568
  27   2.0000      -0.907933       -24.7061
  28   2.0000      -0.870272       -23.6813
  29   2.0000      -0.853865       -23.2349
  30   2.0000      -0.841708       -22.9040
  31   2.0000      -0.816783       -22.2258
  32   2.0000      -0.786094       -21.3907
  33   2.0000      -0.777001       -21.1433
  34   2.0000      -0.718690       -19.5565
  35   2.0000      -0.701312       -19.0837
  36   2.0000      -0.694849       -18.9078
  37   2.0000      -0.655946       -17.8492
  38   2.0000      -0.640661       -17.4333
  39   2.0000      -0.618894       -16.8410
  40   2.0000      -0.590714       -16.0741
  41   2.0000      -0.562804       -15.3147
  42   2.0000      -0.558586       -15.1999
  43   2.0000      -0.556509       -15.1434
  44   2.0000      -0.539074       -14.6689
  45   2.0000      -0.526923       -14.3383
  46   2.0000      -0.518622       -14.1124
  47   2.0000      -0.512679       -13.9507
  48   2.0000      -0.505385       -13.7522
  49   2.0000      -0.501116       -13.6361
  50   2.0000      -0.496165       -13.5013
  51   2.0000      -0.483409       -13.1542
  52   2.0000      -0.476578       -12.9683
  53   2.0000      -0.468280       -12.7426
  54   2.0000      -0.459519       -12.5041
  55   2.0000      -0.447938       -12.1890
  56   2.0000      -0.442402       -12.0384
  57   2.0000      -0.435570       -11.8525
  58   2.0000      -0.431020       -11.7286
  59   2.0000      -0.427677       -11.6377
  60   2.0000      -0.421887       -11.4801
  61   2.0000      -0.408631       -11.1194
  62   2.0000      -0.403907       -10.9909
  63   2.0000      -0.356915        -9.7122
  64   2.0000      -0.331898        -9.0314
  65   2.0000      -0.322698        -8.7811
  66   2.0000      -0.288422        -7.8484
  67   0.0000       0.022570         0.6142
  68   0.0000       0.074967         2.0399
  69   0.0000       0.109682         2.9846
  70   0.0000       0.113823         3.0973
  71   0.0000       0.125491         3.4148

MULLIKEN ATOMIC CHARGES
-----------------------
   0 S :    0.082696
   1 C :   -0.131489
   2 C :   -0.077468
   3 C :   -0.000698
   4 C :   -0.135384
   5 H :    0.020144
   6 C :    0.072102
   7 H :    0.044097
   8 H :   -0.000898
   9 C :   -0.064365
  10 H :    0.029099
  11 H :    0.035837
  12 C :   -0.030119
  13 H :    0.032995
  14 H :    0.020055
  15 H :    0.033056
  16 S :    0.101414
  17 C :   -0.079459
  18 C :   -0.090695
  19 C :    0.035795
  20 C :   -0.152819
  21 H :    0.024558
  22 C :    0.014819
  23 H :    0.025763
  24 H :    0.036746
  25 C :   -0.076246
  26 H :    0.015678
  27 H :    0.026013
  28 C :   -0.059776
  29 H :    0.056330
  30 H :    0.028955
  31 H :    0.037182
  32 H :    0.060393
  33 H :    0.065691
Sum of atomic charges:   -0.0000000

LOEWDIN ATOMIC CHARGES
----------------------
   0 S :    0.389469
   1 C :   -0.196038
   2 C :   -0.070472
   3 C :   -0.075284
   4 C :   -0.190087
   5 H :    0.030939
   6 C :   -0.036116
   7 H :    0.042474
   8 H :    0.020283
   9 C :   -0.025091
  10 H :    0.019719
  11 H :    0.025946
  12 C :   -0.062742
  13 H :    0.027170
  14 H :    0.024169
  15 H :    0.024550
  16 S :    0.409981
  17 C :   -0.206090
  18 C :   -0.075204
  19 C :   -0.058660
  20 C :   -0.176347
  21 H :    0.030655
  22 C :   -0.045271
  23 H :    0.031987
  24 H :    0.042160
  25 C :   -0.050956
  26 H :    0.020457
  27 H :    0.031266
  28 C :   -0.071122
  29 H :    0.031253
  30 H :    0.020668
  31 H :    0.037905
  32 H :    0.035301
  33 H :    0.043129

  Mayer bond orders larger than 0.100000
B(  0-S ,  1-C ) :   1.1233 B(  0-S ,  4-C ) :   1.1401 B(  1-C ,  2-C ) :   1.6352
B(  1-C , 32-H ) :   0.9620 B(  2-C ,  3-C ) :   1.1944 B(  2-C ,  6-C ) :   1.0409
B(  3-C ,  4-C ) :   1.6000 B(  3-C ,  5-H ) :   0.9846 B(  4-C , 20-C ) :   1.0527
B(  6-C ,  7-H ) :   0.9307 B(  6-C ,  8-H ) :   0.9335 B(  6-C ,  9-C ) :   1.0429
B(  9-C , 10-H ) :   0.9626 B(  9-C , 11-H ) :   0.9610 B(  9-C , 12-C ) :   1.0707
B( 12-C , 13-H ) :   0.9771 B( 12-C , 14-H ) :   0.9762 B( 12-C , 15-H ) :   0.9772
B( 16-S , 17-C ) :   1.1494 B( 16-S , 20-C ) :   1.1470 B( 17-C , 18-C ) :   1.6224
B( 17-C , 20-C ) :   0.1054 B( 17-C , 33-H ) :   0.9624 B( 18-C , 19-C ) :   1.2356
B( 18-C , 21-H ) :   0.9828 B( 19-C , 20-C ) :   1.5578 B( 19-C , 22-C ) :   1.0352
B( 22-C , 23-H ) :   0.9386 B( 22-C , 24-H ) :   0.9308 B( 22-C , 25-C ) :   1.0785
B( 25-C , 26-H ) :   0.9583 B( 25-C , 27-H ) :   0.9506 B( 25-C , 28-C ) :   1.0652
B( 28-C , 29-H ) :   0.9764 B( 28-C , 30-H ) :   0.9746 B( 28-C , 31-H ) :   0.9768

Dispersion correction           -0.013755257
FINAL SINGLE POINT ENERGY     -1339.853356317385

DIPOLE MOMENT
-------------
                                X             Y             Z
Electronic contribution:     30.79325       0.12996       8.79967
Nuclear contribution   :    -31.52974      -0.26782      -8.80876
                        -----------------------------------------
Total Dipole Moment    :     -0.73649      -0.13786      -0.00909
                        -----------------------------------------
Magnitude (a.u.)       :      0.74934
Magnitude (Debye)      :      1.90467

Rotational constants in cm-1:     0.017152     0.009342     0.006341
Rotational constants in MHz :   514.218699   280.060483   190.098715

                             ****ORCA TERMINATED NORMALLY****
TOTAL RUN TIME: 0 days 0 hours 0 minutes 21 seconds 530 msec
