                         Program Version 4.2.1 -  RELEASE  -
|  1> ! wB97X-D3 SP def2-SVP
|  2> %pal
|  3> nprocs 24
|  4> end
|  5>
|  6> * xyz 0 1
|  7> S 	 -128.426 	 23.1228 	 -19.6206
|  8> C 	 -127.449 	 23.509 	 -18.2331
|  9> C 	 -126.295 	 24.1483 	 -18.6169
| 10> C 	 -126.166 	 24.2569 	 -20.0841
| 11> C 	 -127.314 	 23.845 	 -20.7706
| 12> H 	 -125.298 	 24.6743 	 -20.5993
| 13> C 	 -125.219 	 24.549 	 -17.6549
| 14> H 	 -124.318 	 24.3546 	 -18.1923
| 15> H 	 -125.261 	 23.7445 	 -16.887
| 16> C 	 -125.321 	 25.9852 	 -17.16
| 17> H 	 -125.545 	 26.751 	 -17.9951
| 18> H 	 -126.216 	 26.0417 	 -16.5625
| 19> C 	 -124.05 	 26.3727 	 -16.2741
| 20> H 	 -123.217 	 26.2927 	 -17.0318
| 21> H 	 -124.038 	 27.4567 	 -15.9302
| 22> H 	 -123.752 	 25.7565 	 -15.4151
| 23> S 	 -128.754 	 24.8481 	 -22.8134
| 24> C 	 -128.689 	 23.9908 	 -24.3486
| 25> C 	 -127.663 	 23.0704 	 -24.3907
| 26> C 	 -126.877 	 23.0802 	 -23.2046
| 27> C 	 -127.529 	 23.7883 	 -22.2251
| 28> H 	 -127.637 	 22.4778 	 -25.3232
| 29> C 	 -125.77 	 22.0727 	 -22.9262
| 30> H 	 -125.694 	 21.2855 	 -23.6605
| 31> H 	 -126.077 	 21.5752 	 -22.004
| 32> C 	 -124.363 	 22.6003 	 -22.7269
| 33> H 	 -124.402 	 23.5622 	 -22.0815
| 34> H 	 -123.894 	 22.8033 	 -23.727
| 35> C 	 -123.334 	 21.6119 	 -22.1425
| 36> H 	 -122.317 	 22.1625 	 -21.9745
| 37> H 	 -123.179 	 20.661 	 -22.6675
| 38> H 	 -123.697 	 21.3198 	 -21.1143
| 39> H 	 -127.776 	 23.3767 	 -17.1845
| 40> H 	 -129.367 	 24.1477 	 -25.1541
| 41> *
| 42>
| 43>                          ****END OF INPUT****

CARTESIAN COORDINATES (ANGSTROEM)
---------------------------------
  S    -128.426000   23.122800  -19.620600
  C    -127.449000   23.509000  -18.233100
  C    -126.295000   24.148300  -18.616900
  C    -126.166000   24.256900  -20.084100
  C    -127.314000   23.845000  -20.770600
  H    -125.298000   24.674300  -20.599300
  C    -125.219000   24.549000  -17.654900
  H    -124.318000   24.354600  -18.192300
  H    -125.261000   23.744500  -16.887000
  C    -125.321000   25.985200  -17.160000
  H    -125.545000   26.751000  -17.995100
  H    -126.216000   26.041700  -16.562500
  C    -124.050000   26.372700  -16.274100
  H    -123.217000   26.292700  -17.031800
  H    -124.038000   27.456700  -15.930200
  H    -123.752000   25.756500  -15.415100
  S    -128.754000   24.848100  -22.813400
  C    -128.689000   23.990800  -24.348600
  C    -127.663000   23.070400  -24.390700
  C    -126.877000   23.080200  -23.204600
  C    -127.529000   23.788300  -22.225100
  H    -127.637000   22.477800  -25.323200
  C    -125.770000   22.072700  -22.926200
  H    -125.694000   21.285500  -23.660500
  H    -126.077000   21.575200  -22.004000
  C    -124.363000   22.600300  -22.726900
  H    -124.402000   23.562200  -22.081500
  H    -123.894000   22.803300  -23.727000
  C    -123.334000   21.611900  -22.142500
  H    -122.317000   22.162500  -21.974500
  H    -123.179000   20.661000  -22.667500
  H    -123.697000   21.319800  -21.114300
  H    -127.776000   23.376700  -17.184500
  H    -129.367000   24.147700  -25.154100

 Total Charge           Charge          ....    0
 Multiplicity           Mult            ....    1
 Number of Electrons    NEL             ....  134
 Basis Dimension        Dim             ....  322

ORBITAL ENERGIES
----------------

  NO   OCC          E(Eh)            E(eV)
   0   2.0000     -88.965336     -2420.8699
   1   2.0000     -88.965062     -2420.8624
   2   2.0000     -10.332353      -281.1576
   3   2.0000     -10.324088      -280.9327
   4   2.0000     -10.315619      -280.7023
   5   2.0000     -10.312446      -280.6159
   6   2.0000     -10.305742      -280.4335
   7   2.0000     -10.302072      -280.3336
   8   2.0000     -10.301591      -280.3205
   9   2.0000     -10.299264      -280.2572
  10   2.0000     -10.296262      -280.1755
  11   2.0000     -10.294281      -280.1216
  12   2.0000     -10.292650      -280.0772
  13   2.0000     -10.290942      -280.0308
  14   2.0000     -10.290026      -280.0058
  15   2.0000     -10.289030      -279.9787
  16   2.0000      -8.080664      -219.8860
  17   2.0000      -8.079757      -219.8614
  18   2.0000      -6.039026      -164.3302
  19   2.0000      -6.038415      -164.3136
  20   2.0000      -6.035236      -164.2271
  21   2.0000      -6.034081      -164.1957
  22   2.0000      -6.031388      -164.1224
  23   2.0000      -6.030540      -164.0993
  24   2.0000      -1.008959       -27.4552
  25   2.0000      -0.984741       -26.7962
  26   2.0000      -0.910422       -24.7738
  27   2.0000      -0.907351       -24.6903
  28   2.0000      -0.867232       -23.5986
  29   2.0000      -0.850261       -23.1368
  30   2.0000      -0.839810       -22.8524
  31   2.0000      -0.814786       -22.1715
  32   2.0000      -0.778785       -21.1918
  33   2.0000      -0.768436       -20.9102
  34   2.0000      -0.705681       -19.2025
  35   2.0000      -0.700545       -19.0628
  36   2.0000      -0.684138       -18.6163
  37   2.0000      -0.662306       -18.0223
  38   2.0000      -0.640619       -17.4321
  39   2.0000      -0.614885       -16.7319
  40   2.0000      -0.593795       -16.1580
  41   2.0000      -0.569929       -15.5086
  42   2.0000      -0.566223       -15.4077
  43   2.0000      -0.550761       -14.9870
  44   2.0000      -0.524243       -14.2654
  45   2.0000      -0.522241       -14.2109
  46   2.0000      -0.513717       -13.9790
  47   2.0000      -0.508573       -13.8390
  48   2.0000      -0.506173       -13.7737
  49   2.0000      -0.501369       -13.6429
  50   2.0000      -0.494177       -13.4472
  51   2.0000      -0.477092       -12.9823
  52   2.0000      -0.468207       -12.7406
  53   2.0000      -0.463171       -12.6035
  54   2.0000      -0.459120       -12.4933
  55   2.0000      -0.446321       -12.1450
  56   2.0000      -0.442479       -12.0405
  57   2.0000      -0.438166       -11.9231
  58   2.0000      -0.430348       -11.7104
  59   2.0000      -0.425824       -11.5873
  60   2.0000      -0.418529       -11.3887
  61   2.0000      -0.411756       -11.2045
  62   2.0000      -0.405751       -11.0410
  63   2.0000      -0.338823        -9.2198
  64   2.0000      -0.331339        -9.0162
  65   2.0000      -0.325324        -8.8525
  66   2.0000      -0.303270        -8.2524
  67   0.0000       0.033834         0.9207
  68   0.0000       0.064736         1.7616
  69   0.0000       0.112346         3.0571
  70   0.0000       0.118308         3.2193
  71   0.0000       0.126105         3.4315

MULLIKEN ATOMIC CHARGES
-----------------------
   0 S :    0.112828
   1 C :   -0.127883
   2 C :   -0.127732
   3 C :    0.038272
   4 C :   -0.149911
   5 H :    0.025635
   6 C :    0.074627
   7 H :    0.009012
   8 H :    0.031955
   9 C :   -0.068533
  10 H :    0.052974
  11 H :    0.022064
  12 C :   -0.086105
  13 H :    0.031543
  14 H :    0.048629
  15 H :    0.046635
  16 S :    0.123718
  17 C :   -0.090777
  18 C :   -0.061363
  19 C :    0.045089
  20 C :   -0.205028
  21 H :    0.033478
  22 C :    0.073693
  23 H :    0.012130
  24 H :    0.031856
  25 C :   -0.104081
  26 H :    0.034510
  27 H :    0.034527
  28 C :   -0.092780
  29 H :    0.052481
  30 H :    0.042164
  31 H :    0.029500
  32 H :    0.064482
  33 H :    0.042393
Sum of atomic charges:   -0.0000000

LOEWDIN ATOMIC CHARGES
----------------------
   0 S :    0.408658
   1 C :   -0.206674
   2 C :   -0.065338
   3 C :   -0.062500
   4 C :   -0.202087
   5 H :    0.029316
   6 C :   -0.036752
   7 H :    0.024320
   8 H :    0.037419
   9 C :   -0.042630
  10 H :    0.040035
  11 H :    0.018676
  12 C :   -0.080704
  13 H :    0.028146
  14 H :    0.032796
  15 H :    0.027356
  16 S :    0.415809
  17 C :   -0.180379
  18 C :   -0.070276
  19 C :   -0.050948
  20 C :   -0.205147
  21 H :    0.041078
  22 C :   -0.033783
  23 H :    0.027365
  24 H :    0.034643
  25 C :   -0.052004
  26 H :    0.029380
  27 H :    0.027019
  28 C :   -0.079334
  29 H :    0.039331
  30 H :    0.024242
  31 H :    0.023942
  32 H :    0.037953
  33 H :    0.021073

  Mayer bond orders larger than 0.100000
B(  0-S ,  1-C ) :   1.1356 B(  0-S ,  4-C ) :   1.1574 B(  1-C ,  2-C ) :   1.6242
B(  1-C , 32-H ) :   0.9632 B(  2-C ,  3-C ) :   1.2312 B(  2-C ,  6-C ) :   1.0164
B(  3-C ,  4-C ) :   1.5791 B(  3-C ,  5-H ) :   0.9839 B(  4-C , 20-C ) :   1.0033
B(  6-C ,  7-H ) :   0.9391 B(  6-C ,  8-H ) :   0.9440 B(  6-C ,  9-C ) :   1.0461
B(  9-C , 10-H ) :   0.9586 B(  9-C , 11-H ) :   0.9557 B(  9-C , 12-C ) :   1.0544
B( 12-C , 13-H ) :   0.9782 B( 12-C , 14-H ) :   0.9770 B( 12-C , 15-H ) :   0.9780
B( 16-S , 17-C ) :   1.1374 B( 16-S , 20-C ) :   1.1686 B( 17-C , 18-C ) :   1.6458
B( 17-C , 20-C ) :   0.1018 B( 17-C , 33-H ) :   0.9712 B( 18-C , 19-C ) :   1.2035
B( 18-C , 21-H ) :   0.9880 B( 19-C , 20-C ) :   1.5956 B( 19-C , 22-C ) :   1.0436
B( 22-C , 23-H ) :   0.9399 B( 22-C , 24-H ) :   0.9342 B( 22-C , 25-C ) :   1.0588
B( 25-C , 26-H ) :   0.9510 B( 25-C , 27-H ) :   0.9508 B( 25-C , 28-C ) :   1.0779
B( 28-C , 29-H ) :   0.9731 B( 28-C , 30-H ) :   0.9738 B( 28-C , 31-H ) :   0.9727

Dispersion correction           -0.014376538
FINAL SINGLE POINT ENERGY     -1339.869671635770

DIPOLE MOMENT
-------------
                                X             Y             Z
Electronic contribution:    -26.70681       0.36372     -10.88006
Nuclear contribution   :     27.15771      -0.51410      10.94843
                        -----------------------------------------
Total Dipole Moment    :      0.45089      -0.15037       0.06837
                        -----------------------------------------
Magnitude (a.u.)       :      0.48020
Magnitude (Debye)      :      1.22057

Rotational constants in cm-1:     0.018538     0.008328     0.006762
Rotational constants in MHz :   555.767866   249.664851   202.714569

                             ****ORCA TERMINATED NORMALLY****
TOTAL RUN TIME: 0 days 0 hours 0 minutes 21 seconds 366 msec
