                         Program Version 4.2.1 -  RELEASE  -
|  1> ! wB97X-D3 SP def2-SVP
|  2> %pal
|  3> nprocs 24
|  4> end
|  5>
|  6> * xyz 0 1
|  7> S 	 -106.362 	 59.5939 	 -105.19
|  8> C 	 -105.13 	 58.779 	 -106.111
|  9> C 	 -105.365 	 58.9394 	 -107.477
| 10> C 	 -106.627 	 59.5316 	 -107.742
| 11> C 	 -107.345 	 59.8925 	 -106.618
| 12> H 	 -107.111 	 59.6959 	 -108.651
| 13> C 	 -104.503 	 58.4801 	 -108.58
| 14> H 	 -104.99 	 58.0609 	 -109.504
| 15> H 	 -103.819 	 57.7216 	 -108.241
| 16> C 	 -103.496 	 59.478 	 -109.099
| 17> H 	 -102.959 	 59.8573 	 -108.25
| 18> H 	 -102.714 	 58.9513 	 -109.645
| 19> C 	 -103.951 	 60.6118 	 -109.959
| 20> H 	 -104.612 	 61.2627 	 -109.361
| 21> H 	 -103.225 	 61.2661 	 -110.366
| 22> H 	 -104.659 	 60.2211 	 -110.731
| 23> S 	 -108.88 	 61.796 	 -105.313
| 24> C 	 -110.56 	 61.9179 	 -105.828
| 25> C 	 -110.923 	 61.013 	 -106.765
| 26> C 	 -109.865 	 60.1409 	 -107.173
| 27> C 	 -108.684 	 60.456 	 -106.443
| 28> H 	 -111.907 	 61.0822 	 -107.196
| 29> C 	 -110.117 	 59.109 	 -108.296
| 30> H 	 -109.272 	 59.2996 	 -109.022
| 31> H 	 -110.998 	 59.307 	 -108.855
| 32> C 	 -109.971 	 57.6088 	 -107.864
| 33> H 	 -110.769 	 57.3468 	 -107.127
| 34> H 	 -109.006 	 57.4573 	 -107.368
| 35> C 	 -110.09 	 56.6476 	 -109.017
| 36> H 	 -109.653 	 57.132 	 -109.924
| 37> H 	 -111.132 	 56.4675 	 -109.234
| 38> H 	 -109.588 	 55.7055 	 -108.896
| 39> H 	 -104.27 	 58.2842 	 -105.668
| 40> H 	 -111.217 	 62.7518 	 -105.593
| 41> *
| 42>
| 43>                          ****END OF INPUT****

CARTESIAN COORDINATES (ANGSTROEM)
---------------------------------
  S    -106.362000   59.593900  -105.190000
  C    -105.130000   58.779000  -106.111000
  C    -105.365000   58.939400  -107.477000
  C    -106.627000   59.531600  -107.742000
  C    -107.345000   59.892500  -106.618000
  H    -107.111000   59.695900  -108.651000
  C    -104.503000   58.480100  -108.580000
  H    -104.990000   58.060900  -109.504000
  H    -103.819000   57.721600  -108.241000
  C    -103.496000   59.478000  -109.099000
  H    -102.959000   59.857300  -108.250000
  H    -102.714000   58.951300  -109.645000
  C    -103.951000   60.611800  -109.959000
  H    -104.612000   61.262700  -109.361000
  H    -103.225000   61.266100  -110.366000
  H    -104.659000   60.221100  -110.731000
  S    -108.880000   61.796000  -105.313000
  C    -110.560000   61.917900  -105.828000
  C    -110.923000   61.013000  -106.765000
  C    -109.865000   60.140900  -107.173000
  C    -108.684000   60.456000  -106.443000
  H    -111.907000   61.082200  -107.196000
  C    -110.117000   59.109000  -108.296000
  H    -109.272000   59.299600  -109.022000
  H    -110.998000   59.307000  -108.855000
  C    -109.971000   57.608800  -107.864000
  H    -110.769000   57.346800  -107.127000
  H    -109.006000   57.457300  -107.368000
  C    -110.090000   56.647600  -109.017000
  H    -109.653000   57.132000  -109.924000
  H    -111.132000   56.467500  -109.234000
  H    -109.588000   55.705500  -108.896000
  H    -104.270000   58.284200  -105.668000
  H    -111.217000   62.751800  -105.593000

 Total Charge           Charge          ....    0
 Multiplicity           Mult            ....    1
 Number of Electrons    NEL             ....  134
 Basis Dimension        Dim             ....  322

ORBITAL ENERGIES
----------------

  NO   OCC          E(Eh)            E(eV)
   0   2.0000     -88.971764     -2421.0448
   1   2.0000     -88.964085     -2420.8358
   2   2.0000     -10.333878      -281.1991
   3   2.0000     -10.329577      -281.0821
   4   2.0000     -10.316881      -280.7366
   5   2.0000     -10.314597      -280.6745
   6   2.0000     -10.311431      -280.5883
   7   2.0000     -10.302586      -280.3476
   8   2.0000     -10.301690      -280.3232
   9   2.0000     -10.290698      -280.0241
  10   2.0000     -10.289453      -279.9902
  11   2.0000     -10.289249      -279.9847
  12   2.0000     -10.287222      -279.9295
  13   2.0000     -10.276869      -279.6478
  14   2.0000     -10.274102      -279.5725
  15   2.0000     -10.271885      -279.5122
  16   2.0000      -8.085948      -220.0298
  17   2.0000      -8.079016      -219.8412
  18   2.0000      -6.044441      -164.4776
  19   2.0000      -6.040708      -164.3760
  20   2.0000      -6.037496      -164.2886
  21   2.0000      -6.036587      -164.2639
  22   2.0000      -6.033432      -164.1780
  23   2.0000      -6.029874      -164.0812
  24   2.0000      -1.006105       -27.3775
  25   2.0000      -0.984126       -26.7794
  26   2.0000      -0.919656       -25.0251
  27   2.0000      -0.905547       -24.6412
  28   2.0000      -0.870506       -23.6877
  29   2.0000      -0.854574       -23.2541
  30   2.0000      -0.847707       -23.0673
  31   2.0000      -0.818260       -22.2660
  32   2.0000      -0.787121       -21.4187
  33   2.0000      -0.771130       -20.9835
  34   2.0000      -0.705470       -19.1968
  35   2.0000      -0.698654       -19.0113
  36   2.0000      -0.689079       -18.7508
  37   2.0000      -0.661881       -18.0107
  38   2.0000      -0.644595       -17.5403
  39   2.0000      -0.620068       -16.8729
  40   2.0000      -0.596127       -16.2215
  41   2.0000      -0.577980       -15.7276
  42   2.0000      -0.566037       -15.4026
  43   2.0000      -0.552210       -15.0264
  44   2.0000      -0.542393       -14.7593
  45   2.0000      -0.522995       -14.2314
  46   2.0000      -0.513728       -13.9792
  47   2.0000      -0.513073       -13.9614
  48   2.0000      -0.504884       -13.7386
  49   2.0000      -0.499486       -13.5917
  50   2.0000      -0.491825       -13.3832
  51   2.0000      -0.483749       -13.1635
  52   2.0000      -0.480259       -13.0685
  53   2.0000      -0.466365       -12.6904
  54   2.0000      -0.454745       -12.3742
  55   2.0000      -0.452754       -12.3201
  56   2.0000      -0.442938       -12.0529
  57   2.0000      -0.433122       -11.7859
  58   2.0000      -0.430013       -11.7013
  59   2.0000      -0.425690       -11.5836
  60   2.0000      -0.420466       -11.4415
  61   2.0000      -0.415751       -11.3132
  62   2.0000      -0.408126       -11.1057
  63   2.0000      -0.353307        -9.6140
  64   2.0000      -0.336291        -9.1509
  65   2.0000      -0.329844        -8.9755
  66   2.0000      -0.284422        -7.7395
  67   0.0000       0.024776         0.6742
  68   0.0000       0.066187         1.8010
  69   0.0000       0.101091         2.7508
  70   0.0000       0.117356         3.1934
  71   0.0000       0.139166         3.7869

MULLIKEN ATOMIC CHARGES
-----------------------
   0 S :    0.095899
   1 C :   -0.118898
   2 C :   -0.045575
   3 C :    0.046209
   4 C :   -0.157040
   5 H :   -0.022812
   6 C :    0.058119
   7 H :    0.034267
   8 H :    0.011384
   9 C :   -0.073523
  10 H :    0.009577
  11 H :    0.019717
  12 C :   -0.031276
  13 H :    0.023764
  14 H :    0.034388
  15 H :    0.017877
  16 S :    0.117049
  17 C :   -0.085986
  18 C :   -0.038775
  19 C :   -0.021577
  20 C :   -0.149033
  21 H :    0.014778
  22 C :    0.063184
  23 H :    0.024877
  24 H :    0.016229
  25 C :   -0.087786
  26 H :    0.038160
  27 H :    0.046760
  28 C :   -0.030552
  29 H :    0.019550
  30 H :    0.026903
  31 H :    0.036029
  32 H :    0.052171
  33 H :    0.055944
Sum of atomic charges:    0.0000000

LOEWDIN ATOMIC CHARGES
----------------------
   0 S :    0.401237
   1 C :   -0.197756
   2 C :   -0.061710
   3 C :   -0.061484
   4 C :   -0.183097
   5 H :    0.019708
   6 C :   -0.035976
   7 H :    0.035425
   8 H :    0.033846
   9 C :   -0.043832
  10 H :    0.019346
  11 H :    0.021696
  12 C :   -0.069408
  13 H :    0.026377
  14 H :    0.022850
  15 H :    0.025138
  16 S :    0.399196
  17 C :   -0.183016
  18 C :   -0.070521
  19 C :   -0.047494
  20 C :   -0.197823
  21 H :    0.032372
  22 C :   -0.027628
  23 H :    0.034267
  24 H :    0.024086
  25 C :   -0.042527
  26 H :    0.028252
  27 H :    0.028944
  28 C :   -0.067031
  29 H :    0.025709
  30 H :    0.022949
  31 H :    0.026013
  32 H :    0.030568
  33 H :    0.031323

  Mayer bond orders larger than 0.100000
B(  0-S ,  1-C ) :   1.1453 B(  0-S ,  4-C ) :   1.1514 B(  1-C ,  2-C ) :   1.5859
B(  1-C ,  4-C ) :   0.1044 B(  1-C , 32-H ) :   0.9704 B(  2-C ,  3-C ) :   1.2252
B(  2-C ,  6-C ) :   1.0436 B(  3-C ,  4-C ) :   1.5711 B(  3-C ,  5-H ) :   1.0108
B(  4-C , 20-C ) :   1.0412 B(  6-C ,  7-H ) :   0.9437 B(  6-C ,  8-H ) :   0.9257
B(  6-C ,  9-C ) :   1.0813 B(  9-C , 10-H ) :   0.9448 B(  9-C , 11-H ) :   0.9547
B(  9-C , 12-C ) :   1.0888 B( 12-C , 13-H ) :   0.9695 B( 12-C , 14-H ) :   0.9723
B( 12-C , 15-H ) :   0.9698 B( 16-S , 17-C ) :   1.1308 B( 16-S , 20-C ) :   1.1481
B( 17-C , 18-C ) :   1.6471 B( 17-C , 33-H ) :   0.9611 B( 18-C , 19-C ) :   1.2340
B( 18-C , 21-H ) :   0.9883 B( 19-C , 20-C ) :   1.5837 B( 19-C , 22-C ) :   1.0310
B( 22-C , 23-H ) :   0.9307 B( 22-C , 24-H ) :   0.9413 B( 22-C , 25-C ) :   1.0569
B( 25-C , 26-H ) :   0.9579 B( 25-C , 27-H ) :   0.9575 B( 25-C , 28-C ) :   1.0814
B( 28-C , 29-H ) :   0.9723 B( 28-C , 30-H ) :   0.9754 B( 28-C , 31-H ) :   0.9741

Dispersion correction           -0.014491742
FINAL SINGLE POINT ENERGY     -1339.881492783656

DIPOLE MOMENT
-------------
                                X             Y             Z
Electronic contribution:     -4.63219      12.66042      23.84445
Nuclear contribution   :      4.53920     -12.84643     -24.44549
                        -----------------------------------------
Total Dipole Moment    :     -0.09299      -0.18602      -0.60104
                        -----------------------------------------
Magnitude (a.u.)       :      0.63600
Magnitude (Debye)      :      1.61658

Rotational constants in cm-1:     0.016976     0.009240     0.007407
Rotational constants in MHz :   508.933291   276.993758   222.066781

                             ****ORCA TERMINATED NORMALLY****
TOTAL RUN TIME: 0 days 0 hours 0 minutes 21 seconds 937 msec
