                         Program Version 4.2.1 -  RELEASE  -
|  1> ! wB97X-D3 SP def2-SVP
|  2> %pal
|  3> nprocs 24
|  4> end
|  5>
|  6> * xyz 0 1
|  7> S 	 -56.0449 	 5.19915 	 -22.4278
|  8> C 	 -57.2888 	 5.30481 	 -21.2555
|  9> C 	 -58.2994 	 4.28745 	 -21.4839
| 10> C 	 -57.8434 	 3.44505 	 -22.5591
| 11> C 	 -56.6936 	 3.78342 	 -23.1575
| 12> H 	 -58.3494 	 2.58669 	 -22.8988
| 13> C 	 -59.6536 	 3.97864 	 -20.8062
| 14> H 	 -59.4405 	 3.46129 	 -19.8243
| 15> H 	 -60.0897 	 3.17386 	 -21.3527
| 16> C 	 -60.7 	 5.07783 	 -20.719
| 17> H 	 -60.2119 	 5.99003 	 -20.1994
| 18> H 	 -60.8426 	 5.37078 	 -21.7502
| 19> C 	 -61.9392 	 4.61217 	 -19.9761
| 20> H 	 -62.708 	 5.11168 	 -20.4597
| 21> H 	 -62.2642 	 3.5969 	 -20.114
| 22> H 	 -61.8922 	 4.84559 	 -18.9348
| 23> S 	 -55.9141 	 1.45837 	 -24.2323
| 24> C 	 -54.9612 	 1.35884 	 -25.6706
| 25> C 	 -54.8454 	 2.57244 	 -26.2466
| 26> C 	 -55.4829 	 3.64263 	 -25.5139
| 27> C 	 -56.0748 	 3.19535 	 -24.3233
| 28> H 	 -54.2471 	 2.72082 	 -27.1617
| 29> C 	 -55.4879 	 5.08006 	 -25.9768
| 30> H 	 -54.7504 	 5.24992 	 -26.7553
| 31> H 	 -55.0447 	 5.53931 	 -25.1625
| 32> C 	 -56.9119 	 5.70353 	 -26.3008
| 33> H 	 -56.7019 	 6.78876 	 -26.4062
| 34> H 	 -57.6599 	 5.53424 	 -25.528
| 35> C 	 -57.5624 	 5.04734 	 -27.5292
| 36> H 	 -57.5929 	 3.95264 	 -27.3129
| 37> H 	 -57.0212 	 5.30011 	 -28.4174
| 38> H 	 -58.5297 	 5.42585 	 -27.5941
| 39> H 	 -57.5165 	 6.08586 	 -20.506
| 40> H 	 -54.6534 	 0.431699 	 -26.0758
| 41> *
| 42>
| 43>                          ****END OF INPUT****

CARTESIAN COORDINATES (ANGSTROEM)
---------------------------------
  S    -56.044900    5.199150  -22.427800
  C    -57.288800    5.304810  -21.255500
  C    -58.299400    4.287450  -21.483900
  C    -57.843400    3.445050  -22.559100
  C    -56.693600    3.783420  -23.157500
  H    -58.349400    2.586690  -22.898800
  C    -59.653600    3.978640  -20.806200
  H    -59.440500    3.461290  -19.824300
  H    -60.089700    3.173860  -21.352700
  C    -60.700000    5.077830  -20.719000
  H    -60.211900    5.990030  -20.199400
  H    -60.842600    5.370780  -21.750200
  C    -61.939200    4.612170  -19.976100
  H    -62.708000    5.111680  -20.459700
  H    -62.264200    3.596900  -20.114000
  H    -61.892200    4.845590  -18.934800
  S    -55.914100    1.458370  -24.232300
  C    -54.961200    1.358840  -25.670600
  C    -54.845400    2.572440  -26.246600
  C    -55.482900    3.642630  -25.513900
  C    -56.074800    3.195350  -24.323300
  H    -54.247100    2.720820  -27.161700
  C    -55.487900    5.080060  -25.976800
  H    -54.750400    5.249920  -26.755300
  H    -55.044700    5.539310  -25.162500
  C    -56.911900    5.703530  -26.300800
  H    -56.701900    6.788760  -26.406200
  H    -57.659900    5.534240  -25.528000
  C    -57.562400    5.047340  -27.529200
  H    -57.592900    3.952640  -27.312900
  H    -57.021200    5.300110  -28.417400
  H    -58.529700    5.425850  -27.594100
  H    -57.516500    6.085860  -20.506000
  H    -54.653400    0.431699  -26.075800

 Total Charge           Charge          ....    0
 Multiplicity           Mult            ....    1
 Number of Electrons    NEL             ....  134
 Basis Dimension        Dim             ....  322

ORBITAL ENERGIES
----------------

  NO   OCC          E(Eh)            E(eV)
   0   2.0000     -88.968838     -2420.9652
   1   2.0000     -88.959656     -2420.7153
   2   2.0000     -10.325892      -280.9818
   3   2.0000     -10.322116      -280.8790
   4   2.0000     -10.320100      -280.8242
   5   2.0000     -10.309947      -280.5479
   6   2.0000     -10.308002      -280.4950
   7   2.0000     -10.305130      -280.4168
   8   2.0000     -10.293583      -280.1026
   9   2.0000     -10.292847      -280.0826
  10   2.0000     -10.292712      -280.0789
  11   2.0000     -10.286848      -279.9194
  12   2.0000     -10.284556      -279.8570
  13   2.0000     -10.283959      -279.8407
  14   2.0000     -10.271211      -279.4939
  15   2.0000     -10.267305      -279.3876
  16   2.0000      -8.084052      -219.9783
  17   2.0000      -8.075206      -219.7375
  18   2.0000      -6.042554      -164.4262
  19   2.0000      -6.038271      -164.3097
  20   2.0000      -6.035032      -164.2216
  21   2.0000      -6.033700      -164.1853
  22   2.0000      -6.029479      -164.0705
  23   2.0000      -6.026058      -163.9774
  24   2.0000      -1.012284       -27.5456
  25   2.0000      -0.987111       -26.8607
  26   2.0000      -0.913441       -24.8560
  27   2.0000      -0.903200       -24.5773
  28   2.0000      -0.873867       -23.7791
  29   2.0000      -0.855282       -23.2734
  30   2.0000      -0.845493       -23.0070
  31   2.0000      -0.815288       -22.1851
  32   2.0000      -0.786229       -21.3944
  33   2.0000      -0.773119       -21.0376
  34   2.0000      -0.706164       -19.2157
  35   2.0000      -0.702583       -19.1183
  36   2.0000      -0.685936       -18.6653
  37   2.0000      -0.665851       -18.1187
  38   2.0000      -0.640190       -17.4204
  39   2.0000      -0.615460       -16.7475
  40   2.0000      -0.593215       -16.1422
  41   2.0000      -0.572265       -15.5721
  42   2.0000      -0.566544       -15.4164
  43   2.0000      -0.552940       -15.0463
  44   2.0000      -0.546690       -14.8762
  45   2.0000      -0.522990       -14.2313
  46   2.0000      -0.520344       -14.1593
  47   2.0000      -0.517208       -14.0739
  48   2.0000      -0.505936       -13.7672
  49   2.0000      -0.499822       -13.6008
  50   2.0000      -0.490811       -13.3556
  51   2.0000      -0.476513       -12.9666
  52   2.0000      -0.472930       -12.8691
  53   2.0000      -0.466081       -12.6827
  54   2.0000      -0.464549       -12.6410
  55   2.0000      -0.448940       -12.2163
  56   2.0000      -0.441310       -12.0086
  57   2.0000      -0.432982       -11.7820
  58   2.0000      -0.432043       -11.7565
  59   2.0000      -0.422935       -11.5086
  60   2.0000      -0.417890       -11.3714
  61   2.0000      -0.413830       -11.2609
  62   2.0000      -0.411396       -11.1947
  63   2.0000      -0.353016        -9.6060
  64   2.0000      -0.330050        -8.9811
  65   2.0000      -0.325067        -8.8455
  66   2.0000      -0.289176        -7.8689
  67   0.0000       0.030865         0.8399
  68   0.0000       0.075976         2.0674
  69   0.0000       0.111558         3.0357
  70   0.0000       0.124053         3.3757
  71   0.0000       0.132331         3.6009

MULLIKEN ATOMIC CHARGES
-----------------------
   0 S :    0.129017
   1 C :   -0.118722
   2 C :   -0.113086
   3 C :    0.020465
   4 C :   -0.119367
   5 H :   -0.009480
   6 C :    0.053345
   7 H :    0.044300
   8 H :    0.005157
   9 C :   -0.107858
  10 H :    0.039891
  11 H :    0.033279
  12 C :    0.015539
  13 H :    0.012793
  14 H :    0.020770
  15 H :    0.040549
  16 S :    0.090054
  17 C :   -0.065984
  18 C :   -0.038908
  19 C :   -0.085157
  20 C :   -0.161563
  21 H :    0.026283
  22 C :    0.112068
  23 H :    0.009733
  24 H :    0.006417
  25 C :   -0.090725
  26 H :    0.037420
  27 H :    0.040184
  28 C :   -0.023266
  29 H :    0.049326
  30 H :    0.023750
  31 H :    0.020050
  32 H :    0.059254
  33 H :    0.044473
Sum of atomic charges:   -0.0000000

LOEWDIN ATOMIC CHARGES
----------------------
   0 S :    0.447314
   1 C :   -0.224382
   2 C :   -0.057223
   3 C :   -0.067454
   4 C :   -0.212349
   5 H :    0.020271
   6 C :   -0.040491
   7 H :    0.037478
   8 H :    0.023256
   9 C :   -0.041168
  10 H :    0.031608
  11 H :    0.023948
  12 C :   -0.058821
  13 H :    0.023706
  14 H :    0.026101
  15 H :    0.028976
  16 S :    0.416183
  17 C :   -0.183255
  18 C :   -0.078231
  19 C :   -0.057590
  20 C :   -0.197836
  21 H :    0.036495
  22 C :   -0.034575
  23 H :    0.029374
  24 H :    0.017689
  25 C :   -0.032542
  26 H :    0.026145
  27 H :    0.026246
  28 C :   -0.058452
  29 H :    0.035205
  30 H :    0.018670
  31 H :    0.016562
  32 H :    0.036177
  33 H :    0.022966

  Mayer bond orders larger than 0.100000
B(  0-S ,  1-C ) :   1.1665 B(  0-S ,  4-C ) :   1.1471 B(  1-C ,  2-C ) :   1.5698
B(  1-C , 32-H ) :   0.9649 B(  2-C ,  3-C ) :   1.2717 B(  2-C ,  6-C ) :   1.0120
B(  3-C ,  4-C ) :   1.5731 B(  3-C ,  5-H ) :   0.9964 B(  4-C , 20-C ) :   1.0298
B(  6-C ,  7-H ) :   0.9363 B(  6-C ,  8-H ) :   0.9411 B(  6-C ,  9-C ) :   1.0562
B(  9-C , 10-H ) :   0.9579 B(  9-C , 11-H ) :   0.9618 B(  9-C , 12-C ) :   1.0686
B( 12-C , 13-H ) :   0.9699 B( 12-C , 14-H ) :   0.9726 B( 12-C , 15-H ) :   0.9745
B( 16-S , 17-C ) :   1.1588 B( 16-S , 20-C ) :   1.1490 B( 17-C , 18-C ) :   1.5985
B( 17-C , 33-H ) :   0.9739 B( 18-C , 19-C ) :   1.2413 B( 18-C , 21-H ) :   0.9896
B( 19-C , 20-C ) :   1.5704 B( 19-C , 22-C ) :   1.0317 B( 22-C , 23-H ) :   0.9323
B( 22-C , 24-H ) :   0.9233 B( 22-C , 25-C ) :   1.0577 B( 25-C , 26-H ) :   0.9576
B( 25-C , 27-H ) :   0.9630 B( 25-C , 28-C ) :   1.0696 B( 28-C , 29-H ) :   0.9744
B( 28-C , 30-H ) :   0.9772 B( 28-C , 31-H ) :   0.9748

Dispersion correction           -0.014479663
FINAL SINGLE POINT ENERGY     -1339.866666641841

DIPOLE MOMENT
-------------
                                X             Y             Z
Electronic contribution:     19.84881      -9.85996       1.58057
Nuclear contribution   :    -20.28895      10.03028      -1.71556
                        -----------------------------------------
Total Dipole Moment    :     -0.44014       0.17033      -0.13499
                        -----------------------------------------
Magnitude (a.u.)       :      0.49088
Magnitude (Debye)      :      1.24771

Rotational constants in cm-1:     0.021430     0.007504     0.006868
Rotational constants in MHz :   642.469244   224.958837   205.910219

                             ****ORCA TERMINATED NORMALLY****
TOTAL RUN TIME: 0 days 0 hours 0 minutes 20 seconds 274 msec
