                         Program Version 4.2.1 -  RELEASE  -
|  1> ! wB97X-D3 SP def2-SVP
|  2> %pal
|  3> nprocs 24
|  4> end
|  5>
|  6> * xyz 0 1
|  7> S 	 -109.775 	 50.9932 	 -86.7968
|  8> C 	 -108.234 	 51.6756 	 -86.4164
|  9> C 	 -107.825 	 52.4846 	 -87.4612
| 10> C 	 -108.881 	 52.782 	 -88.4033
| 11> C 	 -109.999 	 52.0534 	 -88.1445
| 12> H 	 -108.807 	 53.464 	 -89.2341
| 13> C 	 -106.463 	 53.121 	 -87.614
| 14> H 	 -105.808 	 52.4064 	 -88.1845
| 15> H 	 -106.091 	 53.0451 	 -86.6113
| 16> C 	 -106.41 	 54.5718 	 -88.0404
| 17> H 	 -105.451 	 54.9911 	 -88.1478
| 18> H 	 -107.021 	 54.7526 	 -88.9662
| 19> C 	 -107.073 	 55.4329 	 -86.9756
| 20> H 	 -106.291 	 55.9213 	 -86.4308
| 21> H 	 -107.605 	 56.2704 	 -87.3756
| 22> H 	 -107.766 	 54.9206 	 -86.3597
| 23> S 	 -111.783 	 50.7818 	 -89.7135
| 24> C 	 -113.093 	 51.7025 	 -90.4881
| 25> C 	 -113.077 	 53.0366 	 -90.0841
| 26> C 	 -112.022 	 53.3043 	 -89.1812
| 27> C 	 -111.199 	 52.1915 	 -88.9157
| 28> H 	 -113.845 	 53.6545 	 -90.4727
| 29> C 	 -111.773 	 54.7196 	 -88.6512
| 30> H 	 -111.026 	 54.7521 	 -87.818
| 31> H 	 -112.699 	 55.1399 	 -88.336
| 32> C 	 -111.195 	 55.5659 	 -89.8262
| 33> H 	 -112.014 	 55.3886 	 -90.5771
| 34> H 	 -110.403 	 55.0397 	 -90.3572
| 35> C 	 -110.98 	 57.0694 	 -89.3538
| 36> H 	 -110.109 	 57.0917 	 -88.6938
| 37> H 	 -111.835 	 57.5127 	 -88.7589
| 38> H 	 -110.822 	 57.7532 	 -90.2142
| 39> H 	 -107.648 	 51.2491 	 -85.6989
| 40> H 	 -113.895 	 51.3638 	 -91.1279
| 41> *
| 42>
| 43>                          ****END OF INPUT****

CARTESIAN COORDINATES (ANGSTROEM)
---------------------------------
  S    -109.775000   50.993200  -86.796800
  C    -108.234000   51.675600  -86.416400
  C    -107.825000   52.484600  -87.461200
  C    -108.881000   52.782000  -88.403300
  C    -109.999000   52.053400  -88.144500
  H    -108.807000   53.464000  -89.234100
  C    -106.463000   53.121000  -87.614000
  H    -105.808000   52.406400  -88.184500
  H    -106.091000   53.045100  -86.611300
  C    -106.410000   54.571800  -88.040400
  H    -105.451000   54.991100  -88.147800
  H    -107.021000   54.752600  -88.966200
  C    -107.073000   55.432900  -86.975600
  H    -106.291000   55.921300  -86.430800
  H    -107.605000   56.270400  -87.375600
  H    -107.766000   54.920600  -86.359700
  S    -111.783000   50.781800  -89.713500
  C    -113.093000   51.702500  -90.488100
  C    -113.077000   53.036600  -90.084100
  C    -112.022000   53.304300  -89.181200
  C    -111.199000   52.191500  -88.915700
  H    -113.845000   53.654500  -90.472700
  C    -111.773000   54.719600  -88.651200
  H    -111.026000   54.752100  -87.818000
  H    -112.699000   55.139900  -88.336000
  C    -111.195000   55.565900  -89.826200
  H    -112.014000   55.388600  -90.577100
  H    -110.403000   55.039700  -90.357200
  C    -110.980000   57.069400  -89.353800
  H    -110.109000   57.091700  -88.693800
  H    -111.835000   57.512700  -88.758900
  H    -110.822000   57.753200  -90.214200
  H    -107.648000   51.249100  -85.698900
  H    -113.895000   51.363800  -91.127900

 Total Charge           Charge          ....    0
 Multiplicity           Mult            ....    1
 Number of Electrons    NEL             ....  134
 Basis Dimension        Dim             ....  322

ORBITAL ENERGIES
----------------

  NO   OCC          E(Eh)            E(eV)
   0   2.0000     -88.967324     -2420.9240
   1   2.0000     -88.964780     -2420.8547
   2   2.0000     -10.323566      -280.9185
   3   2.0000     -10.323134      -280.9068
   4   2.0000     -10.318046      -280.7683
   5   2.0000     -10.307760      -280.4884
   6   2.0000     -10.304634      -280.4033
   7   2.0000     -10.303059      -280.3605
   8   2.0000     -10.293998      -280.1139
   9   2.0000     -10.292655      -280.0774
  10   2.0000     -10.292143      -280.0635
  11   2.0000     -10.291295      -280.0404
  12   2.0000     -10.290774      -280.0262
  13   2.0000     -10.290319      -280.0138
  14   2.0000     -10.285398      -279.8799
  15   2.0000     -10.264535      -279.3122
  16   2.0000      -8.081836      -219.9179
  17   2.0000      -8.080448      -219.8802
  18   2.0000      -6.040322      -164.3655
  19   2.0000      -6.038912      -164.3271
  20   2.0000      -6.036257      -164.2549
  21   2.0000      -6.034827      -164.2160
  22   2.0000      -6.032760      -164.1597
  23   2.0000      -6.031201      -164.1173
  24   2.0000      -1.012242       -27.5445
  25   2.0000      -0.986153       -26.8346
  26   2.0000      -0.919014       -25.0076
  27   2.0000      -0.903215       -24.5777
  28   2.0000      -0.877305       -23.8727
  29   2.0000      -0.849207       -23.1081
  30   2.0000      -0.841557       -22.8999
  31   2.0000      -0.817673       -22.2500
  32   2.0000      -0.781206       -21.2577
  33   2.0000      -0.768189       -20.9035
  34   2.0000      -0.712535       -19.3890
  35   2.0000      -0.701490       -19.0885
  36   2.0000      -0.697323       -18.9751
  37   2.0000      -0.662422       -18.0254
  38   2.0000      -0.646654       -17.5963
  39   2.0000      -0.626927       -17.0595
  40   2.0000      -0.591106       -16.0848
  41   2.0000      -0.570780       -15.5317
  42   2.0000      -0.563450       -15.3323
  43   2.0000      -0.554292       -15.0831
  44   2.0000      -0.546596       -14.8736
  45   2.0000      -0.522038       -14.2054
  46   2.0000      -0.517252       -14.0752
  47   2.0000      -0.510638       -13.8952
  48   2.0000      -0.505710       -13.7611
  49   2.0000      -0.504712       -13.7339
  50   2.0000      -0.492197       -13.3934
  51   2.0000      -0.480324       -13.0703
  52   2.0000      -0.468968       -12.7613
  53   2.0000      -0.466245       -12.6872
  54   2.0000      -0.457281       -12.4432
  55   2.0000      -0.452014       -12.2999
  56   2.0000      -0.447748       -12.1839
  57   2.0000      -0.440810       -11.9950
  58   2.0000      -0.437024       -11.8920
  59   2.0000      -0.424265       -11.5448
  60   2.0000      -0.418634       -11.3916
  61   2.0000      -0.410093       -11.1592
  62   2.0000      -0.408194       -11.1075
  63   2.0000      -0.346603        -9.4315
  64   2.0000      -0.331227        -9.0131
  65   2.0000      -0.327321        -8.9069
  66   2.0000      -0.294975        -8.0267
  67   0.0000       0.035110         0.9554
  68   0.0000       0.065655         1.7866
  69   0.0000       0.111363         3.0303
  70   0.0000       0.119596         3.2544
  71   0.0000       0.130284         3.5452

MULLIKEN ATOMIC CHARGES
-----------------------
   0 S :    0.116510
   1 C :   -0.081592
   2 C :   -0.131334
   3 C :    0.026216
   4 C :   -0.123852
   5 H :    0.003653
   6 C :    0.094451
   7 H :    0.050088
   8 H :    0.004878
   9 C :   -0.057217
  10 H :    0.023634
  11 H :    0.035938
  12 C :   -0.042119
  13 H :    0.018645
  14 H :    0.013909
  15 H :    0.037928
  16 S :    0.114350
  17 C :   -0.092955
  18 C :   -0.047327
  19 C :   -0.025314
  20 C :   -0.180540
  21 H :    0.015406
  22 C :    0.078036
  23 H :    0.036777
  24 H :    0.018844
  25 C :   -0.106397
  26 H :    0.017827
  27 H :    0.030627
  28 C :   -0.048181
  29 H :    0.040098
  30 H :    0.042490
  31 H :    0.046131
  32 H :    0.018799
  33 H :    0.051592
Sum of atomic charges:   -0.0000000

LOEWDIN ATOMIC CHARGES
----------------------
   0 S :    0.421968
   1 C :   -0.193111
   2 C :   -0.054480
   3 C :   -0.058413
   4 C :   -0.202640
   5 H :    0.029012
   6 C :   -0.037164
   7 H :    0.039253
   8 H :    0.027186
   9 C :   -0.038788
  10 H :    0.022293
  11 H :    0.026433
  12 C :   -0.060908
  13 H :    0.023899
  14 H :    0.021853
  15 H :    0.020887
  16 S :    0.413805
  17 C :   -0.181509
  18 C :   -0.070022
  19 C :   -0.052825
  20 C :   -0.209600
  21 H :    0.029455
  22 C :   -0.026162
  23 H :    0.029445
  24 H :    0.023833
  25 C :   -0.046639
  26 H :    0.024699
  27 H :    0.022011
  28 C :   -0.072546
  29 H :    0.025976
  30 H :    0.034336
  31 H :    0.029556
  32 H :    0.008912
  33 H :    0.029994

  Mayer bond orders larger than 0.100000
B(  0-S ,  1-C ) :   1.1361 B(  0-S ,  4-C ) :   1.1590 B(  1-C ,  2-C ) :   1.6074
B(  1-C , 32-H ) :   0.9787 B(  2-C ,  3-C ) :   1.2204 B(  2-C ,  6-C ) :   1.0168
B(  3-C ,  4-C ) :   1.5674 B(  3-C ,  5-H ) :   1.0035 B(  4-C , 20-C ) :   1.0346
B(  6-C ,  7-H ) :   0.9284 B(  6-C ,  8-H ) :   0.9369 B(  6-C ,  9-C ) :   1.0739
B(  9-C , 10-H ) :   0.9598 B(  9-C , 11-H ) :   0.9604 B(  9-C , 12-C ) :   1.0653
B( 12-C , 13-H ) :   0.9744 B( 12-C , 14-H ) :   0.9731 B( 12-C , 15-H ) :   0.9790
B( 16-S , 17-C ) :   1.1539 B( 16-S , 20-C ) :   1.1537 B( 17-C , 18-C ) :   1.6121
B( 17-C , 20-C ) :   0.1095 B( 17-C , 33-H ) :   0.9661 B( 18-C , 19-C ) :   1.2386
B( 18-C , 21-H ) :   0.9924 B( 19-C , 20-C ) :   1.5773 B( 19-C , 22-C ) :   1.0486
B( 22-C , 23-H ) :   0.9398 B( 22-C , 24-H ) :   0.9339 B( 22-C , 25-C ) :   1.0420
B( 25-C , 26-H ) :   0.9584 B( 25-C , 27-H ) :   0.9580 B( 25-C , 28-C ) :   1.0478
B( 28-C , 29-H ) :   0.9767 B( 28-C , 30-H ) :   0.9742 B( 28-C , 31-H ) :   0.9761

Dispersion correction           -0.015521166
FINAL SINGLE POINT ENERGY     -1339.867862080458

DIPOLE MOMENT
-------------
                                X             Y             Z
Electronic contribution:    -11.20254     -29.13177       0.80284
Nuclear contribution   :     11.42476      29.73801      -0.93816
                        -----------------------------------------
Total Dipole Moment    :      0.22222       0.60624      -0.13532
                        -----------------------------------------
Magnitude (a.u.)       :      0.65971
Magnitude (Debye)      :      1.67685

Rotational constants in cm-1:     0.016861     0.011030     0.007356
Rotational constants in MHz :   505.490338   330.671160   220.539763

                             ****ORCA TERMINATED NORMALLY****
TOTAL RUN TIME: 0 days 0 hours 0 minutes 21 seconds 787 msec
