                         Program Version 4.2.1 -  RELEASE  -
|  1> ! wB97X-D3 SP def2-SVP
|  2> %pal
|  3> nprocs 24
|  4> end
|  5>
|  6> * xyz 0 1
|  7> S 	 -105.446 	 5.24541 	 -105.466
|  8> C 	 -104.419 	 6.5288 	 -104.896
|  9> C 	 -103.284 	 6.05503 	 -104.346
| 10> C 	 -103.185 	 4.62032 	 -104.538
| 11> C 	 -104.254 	 4.06359 	 -105.226
| 12> H 	 -102.278 	 4.08812 	 -104.371
| 13> C 	 -102.203 	 6.81116 	 -103.682
| 14> H 	 -102.007 	 6.31417 	 -102.734
| 15> H 	 -102.625 	 7.74369 	 -103.403
| 16> C 	 -100.907 	 7.1233 	 -104.609
| 17> H 	 -100.427 	 6.23222 	 -104.989
| 18> H 	 -101.131 	 7.7783 	 -105.466
| 19> C 	 -99.9093 	 8.01763 	 -103.806
| 20> H 	 -100.141 	 9.10746 	 -103.762
| 21> H 	 -99.7085 	 7.65891 	 -102.797
| 22> H 	 -98.9439 	 8.07428 	 -104.274
| 23> S 	 -106.169 	 2.04377 	 -105.306
| 24> C 	 -105.587 	 0.437918 	 -105.61
| 25> C 	 -104.29 	 0.340127 	 -106.026
| 26> C 	 -103.64 	 1.6172 	 -105.942
| 27> C 	 -104.496 	 2.63751 	 -105.582
| 28> H 	 -103.826 	 -0.606568 	 -106.171
| 29> C 	 -102.146 	 1.83315 	 -106.206
| 30> H 	 -101.905 	 2.89407 	 -106.218
| 31> H 	 -101.742 	 1.41816 	 -107.114
| 32> C 	 -101.283 	 1.19308 	 -105.136
| 33> H 	 -101.647 	 0.246978 	 -104.911
| 34> H 	 -101.358 	 1.5951 	 -104.156
| 35> C 	 -99.8316 	 1.14988 	 -105.506
| 36> H 	 -99.4718 	 2.14948 	 -105.728
| 37> H 	 -99.5305 	 0.551166 	 -106.35
| 38> H 	 -99.2667 	 0.756957 	 -104.693
| 39> H 	 -104.604 	 7.62747 	 -104.966
| 40> H 	 -106.276 	 -0.367958 	 -105.567
| 41> *
| 42>
| 43>                          ****END OF INPUT****

CARTESIAN COORDINATES (ANGSTROEM)
---------------------------------
  S    -105.446000    5.245410  -105.466000
  C    -104.419000    6.528800  -104.896000
  C    -103.284000    6.055030  -104.346000
  C    -103.185000    4.620320  -104.538000
  C    -104.254000    4.063590  -105.226000
  H    -102.278000    4.088120  -104.371000
  C    -102.203000    6.811160  -103.682000
  H    -102.007000    6.314170  -102.734000
  H    -102.625000    7.743690  -103.403000
  C    -100.907000    7.123300  -104.609000
  H    -100.427000    6.232220  -104.989000
  H    -101.131000    7.778300  -105.466000
  C    -99.909300    8.017630  -103.806000
  H    -100.141000    9.107460  -103.762000
  H    -99.708500    7.658910  -102.797000
  H    -98.943900    8.074280  -104.274000
  S    -106.169000    2.043770  -105.306000
  C    -105.587000    0.437918  -105.610000
  C    -104.290000    0.340127  -106.026000
  C    -103.640000    1.617200  -105.942000
  C    -104.496000    2.637510  -105.582000
  H    -103.826000   -0.606568  -106.171000
  C    -102.146000    1.833150  -106.206000
  H    -101.905000    2.894070  -106.218000
  H    -101.742000    1.418160  -107.114000
  C    -101.283000    1.193080  -105.136000
  H    -101.647000    0.246978  -104.911000
  H    -101.358000    1.595100  -104.156000
  C    -99.831600    1.149880  -105.506000
  H    -99.471800    2.149480  -105.728000
  H    -99.530500    0.551166  -106.350000
  H    -99.266700    0.756957  -104.693000
  H    -104.604000    7.627470  -104.966000
  H    -106.276000   -0.367958  -105.567000

 Total Charge           Charge          ....    0
 Multiplicity           Mult            ....    1
 Number of Electrons    NEL             ....  134
 Basis Dimension        Dim             ....  322

ORBITAL ENERGIES
----------------

  NO   OCC          E(Eh)            E(eV)
   0   2.0000     -88.965456     -2420.8731
   1   2.0000     -88.962673     -2420.7974
   2   2.0000     -10.330971      -281.1200
   3   2.0000     -10.328169      -281.0438
   4   2.0000     -10.315199      -280.6908
   5   2.0000     -10.309551      -280.5372
   6   2.0000     -10.306867      -280.4641
   7   2.0000     -10.299438      -280.2620
   8   2.0000     -10.294096      -280.1166
   9   2.0000     -10.293334      -280.0959
  10   2.0000     -10.293149      -280.0908
  11   2.0000     -10.289524      -279.9922
  12   2.0000     -10.287785      -279.9449
  13   2.0000     -10.280358      -279.7428
  14   2.0000     -10.272976      -279.5419
  15   2.0000     -10.271760      -279.5088
  16   2.0000      -8.080213      -219.8738
  17   2.0000      -8.078781      -219.8348
  18   2.0000      -6.038691      -164.3211
  19   2.0000      -6.037379      -164.2854
  20   2.0000      -6.034940      -164.2191
  21   2.0000      -6.033084      -164.1686
  22   2.0000      -6.030798      -164.1064
  23   2.0000      -6.029389      -164.0680
  24   2.0000      -1.009947       -27.4820
  25   2.0000      -0.987553       -26.8727
  26   2.0000      -0.918158       -24.9844
  27   2.0000      -0.907717       -24.7002
  28   2.0000      -0.867095       -23.5949
  29   2.0000      -0.856309       -23.3014
  30   2.0000      -0.844669       -22.9846
  31   2.0000      -0.814626       -22.1671
  32   2.0000      -0.785879       -21.3848
  33   2.0000      -0.774492       -21.0750
  34   2.0000      -0.711852       -19.3705
  35   2.0000      -0.708077       -19.2678
  36   2.0000      -0.695930       -18.9372
  37   2.0000      -0.666099       -18.1255
  38   2.0000      -0.635331       -17.2882
  39   2.0000      -0.623718       -16.9722
  40   2.0000      -0.606165       -16.4946
  41   2.0000      -0.569517       -15.4973
  42   2.0000      -0.567034       -15.4298
  43   2.0000      -0.553703       -15.0670
  44   2.0000      -0.529145       -14.3988
  45   2.0000      -0.525192       -14.2912
  46   2.0000      -0.520032       -14.1508
  47   2.0000      -0.515008       -14.0141
  48   2.0000      -0.503961       -13.7135
  49   2.0000      -0.495272       -13.4770
  50   2.0000      -0.493181       -13.4201
  51   2.0000      -0.481427       -13.1003
  52   2.0000      -0.471618       -12.8334
  53   2.0000      -0.464649       -12.6437
  54   2.0000      -0.459698       -12.5090
  55   2.0000      -0.455760       -12.4019
  56   2.0000      -0.445549       -12.1240
  57   2.0000      -0.441090       -12.0027
  58   2.0000      -0.438667       -11.9367
  59   2.0000      -0.429616       -11.6904
  60   2.0000      -0.422907       -11.5079
  61   2.0000      -0.417645       -11.3647
  62   2.0000      -0.415521       -11.3069
  63   2.0000      -0.354446        -9.6450
  64   2.0000      -0.334998        -9.1158
  65   2.0000      -0.325679        -8.8622
  66   2.0000      -0.288975        -7.8634
  67   0.0000       0.032651         0.8885
  68   0.0000       0.075200         2.0463
  69   0.0000       0.104668         2.8481
  70   0.0000       0.122400         3.3307
  71   0.0000       0.128416         3.4944

MULLIKEN ATOMIC CHARGES
-----------------------
   0 S :    0.101269
   1 C :   -0.128907
   2 C :   -0.103548
   3 C :    0.028738
   4 C :   -0.129287
   5 H :   -0.009819
   6 C :    0.088490
   7 H :    0.037185
   8 H :    0.000131
   9 C :   -0.059135
  10 H :    0.035930
  11 H :    0.039329
  12 C :   -0.072585
  13 H :    0.037423
  14 H :    0.029464
  15 H :    0.023039
  16 S :    0.091827
  17 C :   -0.076834
  18 C :   -0.003664
  19 C :   -0.049131
  20 C :   -0.117023
  21 H :    0.014827
  22 C :    0.083198
  23 H :    0.020747
  24 H :    0.018386
  25 C :   -0.047513
  26 H :   -0.005906
  27 H :    0.009979
  28 C :   -0.022084
  29 H :    0.018074
  30 H :    0.024956
  31 H :    0.023857
  32 H :    0.054321
  33 H :    0.044265
Sum of atomic charges:    0.0000000

LOEWDIN ATOMIC CHARGES
----------------------
   0 S :    0.421733
   1 C :   -0.207718
   2 C :   -0.069055
   3 C :   -0.068788
   4 C :   -0.202022
   5 H :    0.020420
   6 C :   -0.028096
   7 H :    0.036902
   8 H :    0.025017
   9 C :   -0.028080
  10 H :    0.021093
  11 H :    0.032046
  12 C :   -0.077125
  13 H :    0.029682
  14 H :    0.021421
  15 H :    0.023153
  16 S :    0.383069
  17 C :   -0.167857
  18 C :   -0.067184
  19 C :   -0.047897
  20 C :   -0.177313
  21 H :    0.030637
  22 C :   -0.023567
  23 H :    0.027708
  24 H :    0.030063
  25 C :   -0.040833
  26 H :    0.013448
  27 H :    0.021105
  28 C :   -0.059936
  29 H :    0.023151
  30 H :    0.021965
  31 H :    0.025172
  32 H :    0.039010
  33 H :    0.018675

  Mayer bond orders larger than 0.100000
B(  0-S ,  1-C ) :   1.1240 B(  0-S ,  4-C ) :   1.1661 B(  1-C ,  2-C ) :   1.6425
B(  1-C , 32-H ) :   0.9594 B(  2-C ,  3-C ) :   1.2290 B(  2-C ,  6-C ) :   1.0410
B(  3-C ,  4-C ) :   1.5617 B(  3-C ,  5-H ) :   0.9965 B(  4-C , 20-C ) :   1.0195
B(  6-C ,  7-H ) :   0.9371 B(  6-C ,  8-H ) :   0.9337 B(  6-C ,  9-C ) :   1.0425
B(  9-C , 10-H ) :   0.9645 B(  9-C , 11-H ) :   0.9594 B(  9-C , 12-C ) :   1.0727
B( 12-C , 13-H ) :   0.9781 B( 12-C , 14-H ) :   0.9771 B( 12-C , 15-H ) :   0.9731
B( 16-S , 17-C ) :   1.1587 B( 16-S , 20-C ) :   1.1165 B( 17-C , 18-C ) :   1.6308
B( 17-C , 33-H ) :   0.9685 B( 18-C , 19-C ) :   1.2020 B( 18-C , 21-H ) :   0.9956
B( 19-C , 20-C ) :   1.6592 B( 19-C , 22-C ) :   1.0425 B( 22-C , 23-H ) :   0.9336
B( 22-C , 24-H ) :   0.9400 B( 22-C , 25-C ) :   1.0547 B( 25-C , 26-H ) :   0.9484
B( 25-C , 27-H ) :   0.9412 B( 25-C , 28-C ) :   1.0960 B( 28-C , 29-H ) :   0.9706
B( 28-C , 30-H ) :   0.9723 B( 28-C , 31-H ) :   0.9698

Dispersion correction           -0.013820234
FINAL SINGLE POINT ENERGY     -1339.875832751693

DIPOLE MOMENT
-------------
                                X             Y             Z
Electronic contribution:    -33.01984      -5.60106      -4.48216
Nuclear contribution   :     33.78886       5.53333       4.61059
                        -----------------------------------------
Total Dipole Moment    :      0.76902      -0.06773       0.12843
                        -----------------------------------------
Magnitude (a.u.)       :      0.78261
Magnitude (Debye)      :      1.98923

Rotational constants in cm-1:     0.017430     0.009141     0.006222
Rotational constants in MHz :   522.536050   274.030621   186.538884

                             ****ORCA TERMINATED NORMALLY****
TOTAL RUN TIME: 0 days 0 hours 0 minutes 21 seconds 636 msec
