                         Program Version 4.2.1 -  RELEASE  -
|  1> ! wB97X-D3 SP def2-SVP
|  2> %pal
|  3> nprocs 24
|  4> end
|  5>
|  6> * xyz 0 1
|  7> S 	 -37.3806 	 -12.2843 	 20.4949
|  8> C 	 -36.4595 	 -13.5854 	 21.1416
|  9> C 	 -35.7707 	 -14.2454 	 20.131
| 10> C 	 -36.0579 	 -13.664 	 18.8519
| 11> C 	 -37.0663 	 -12.7178 	 18.8067
| 12> H 	 -35.5722 	 -13.9353 	 17.8743
| 13> C 	 -34.849 	 -15.4626 	 20.2805
| 14> H 	 -35.4916 	 -16.2698 	 20.0408
| 15> H 	 -34.6626 	 -15.6645 	 21.3495
| 16> C 	 -33.5736 	 -15.439 	 19.4702
| 17> H 	 -33.2883 	 -16.4023 	 19.2894
| 18> H 	 -33.8381 	 -15.1326 	 18.4286
| 19> C 	 -32.5087 	 -14.5595 	 20.1739
| 20> H 	 -31.5872 	 -14.8852 	 19.7988
| 21> H 	 -32.7021 	 -13.4736 	 20.1117
| 22> H 	 -32.4854 	 -14.7401 	 21.2924
| 23> S 	 -39.4109 	 -12.0256 	 17.713
| 24> C 	 -39.4361 	 -11.1261 	 16.2686
| 25> C 	 -38.212 	 -10.9545 	 15.6882
| 26> C 	 -37.2093 	 -11.6424 	 16.3866
| 27> C 	 -37.7001 	 -12.0883 	 17.6541
| 28> H 	 -38.165 	 -10.3942 	 14.7641
| 29> C 	 -35.7964 	 -11.4914 	 16.0138
| 30> H 	 -35.6731 	 -11.4685 	 14.979
| 31> H 	 -35.2022 	 -12.3545 	 16.3899
| 32> C 	 -35.0571 	 -10.1673 	 16.5158
| 33> H 	 -34.9972 	 -10.0995 	 17.5787
| 34> H 	 -35.6565 	 -9.35221 	 16.12
| 35> C 	 -33.6533 	 -9.988 	 15.9063
| 36> H 	 -33.7928 	 -9.87221 	 14.8773
| 37> H 	 -33.0759 	 -10.9166 	 15.9745
| 38> H 	 -33.1447 	 -9.12329 	 16.3274
| 39> H 	 -36.5274 	 -13.9257 	 22.1763
| 40> H 	 -40.3639 	 -10.7043 	 15.8891
| 41> *
| 42>
| 43>                          ****END OF INPUT****

CARTESIAN COORDINATES (ANGSTROEM)
---------------------------------
  S    -37.380600  -12.284300   20.494900
  C    -36.459500  -13.585400   21.141600
  C    -35.770700  -14.245400   20.131000
  C    -36.057900  -13.664000   18.851900
  C    -37.066300  -12.717800   18.806700
  H    -35.572200  -13.935300   17.874300
  C    -34.849000  -15.462600   20.280500
  H    -35.491600  -16.269800   20.040800
  H    -34.662600  -15.664500   21.349500
  C    -33.573600  -15.439000   19.470200
  H    -33.288300  -16.402300   19.289400
  H    -33.838100  -15.132600   18.428600
  C    -32.508700  -14.559500   20.173900
  H    -31.587200  -14.885200   19.798800
  H    -32.702100  -13.473600   20.111700
  H    -32.485400  -14.740100   21.292400
  S    -39.410900  -12.025600   17.713000
  C    -39.436100  -11.126100   16.268600
  C    -38.212000  -10.954500   15.688200
  C    -37.209300  -11.642400   16.386600
  C    -37.700100  -12.088300   17.654100
  H    -38.165000  -10.394200   14.764100
  C    -35.796400  -11.491400   16.013800
  H    -35.673100  -11.468500   14.979000
  H    -35.202200  -12.354500   16.389900
  C    -35.057100  -10.167300   16.515800
  H    -34.997200  -10.099500   17.578700
  H    -35.656500   -9.352210   16.120000
  C    -33.653300   -9.988000   15.906300
  H    -33.792800   -9.872210   14.877300
  H    -33.075900  -10.916600   15.974500
  H    -33.144700   -9.123290   16.327400
  H    -36.527400  -13.925700   22.176300
  H    -40.363900  -10.704300   15.889100

 Total Charge           Charge          ....    0
 Multiplicity           Mult            ....    1
 Number of Electrons    NEL             ....  134
 Basis Dimension        Dim             ....  322

ORBITAL ENERGIES
----------------

  NO   OCC          E(Eh)            E(eV)
   0   2.0000     -88.967055     -2420.9167
   1   2.0000     -88.961285     -2420.7596
   2   2.0000     -10.329205      -281.0720
   3   2.0000     -10.327377      -281.0222
   4   2.0000     -10.311014      -280.5769
   5   2.0000     -10.309921      -280.5472
   6   2.0000     -10.303964      -280.3851
   7   2.0000     -10.301327      -280.3134
   8   2.0000     -10.294308      -280.1224
   9   2.0000     -10.290173      -280.0098
  10   2.0000     -10.288412      -279.9619
  11   2.0000     -10.287477      -279.9365
  12   2.0000     -10.283635      -279.8319
  13   2.0000     -10.283588      -279.8307
  14   2.0000     -10.280125      -279.7364
  15   2.0000     -10.272759      -279.5360
  16   2.0000      -8.083401      -219.9605
  17   2.0000      -8.076180      -219.7640
  18   2.0000      -6.041530      -164.3984
  19   2.0000      -6.037637      -164.2924
  20   2.0000      -6.034776      -164.2146
  21   2.0000      -6.034507      -164.2073
  22   2.0000      -6.030596      -164.1009
  23   2.0000      -6.026902      -164.0003
  24   2.0000      -1.012734       -27.5579
  25   2.0000      -0.988027       -26.8856
  26   2.0000      -0.912955       -24.8428
  27   2.0000      -0.909167       -24.7397
  28   2.0000      -0.871773       -23.7222
  29   2.0000      -0.856999       -23.3201
  30   2.0000      -0.839749       -22.8507
  31   2.0000      -0.814729       -22.1699
  32   2.0000      -0.782886       -21.3034
  33   2.0000      -0.770655       -20.9706
  34   2.0000      -0.713804       -19.4236
  35   2.0000      -0.701284       -19.0829
  36   2.0000      -0.690545       -18.7907
  37   2.0000      -0.663515       -18.0552
  38   2.0000      -0.636098       -17.3091
  39   2.0000      -0.621557       -16.9134
  40   2.0000      -0.600928       -16.3521
  41   2.0000      -0.570929       -15.5358
  42   2.0000      -0.563847       -15.3431
  43   2.0000      -0.558834       -15.2067
  44   2.0000      -0.530072       -14.4240
  45   2.0000      -0.526186       -14.3183
  46   2.0000      -0.518130       -14.0990
  47   2.0000      -0.511845       -13.9280
  48   2.0000      -0.502136       -13.6638
  49   2.0000      -0.493522       -13.4294
  50   2.0000      -0.491523       -13.3750
  51   2.0000      -0.489200       -13.3118
  52   2.0000      -0.466798       -12.7022
  53   2.0000      -0.465386       -12.6638
  54   2.0000      -0.458812       -12.4849
  55   2.0000      -0.449065       -12.2197
  56   2.0000      -0.443825       -12.0771
  57   2.0000      -0.439750       -11.9662
  58   2.0000      -0.433860       -11.8059
  59   2.0000      -0.427703       -11.6384
  60   2.0000      -0.426364       -11.6019
  61   2.0000      -0.420282       -11.4364
  62   2.0000      -0.408565       -11.1176
  63   2.0000      -0.349046        -9.4980
  64   2.0000      -0.332720        -9.0538
  65   2.0000      -0.322751        -8.7825
  66   2.0000      -0.285249        -7.7620
  67   0.0000       0.024439         0.6650
  68   0.0000       0.078950         2.1483
  69   0.0000       0.117026         3.1844
  70   0.0000       0.117850         3.2069
  71   0.0000       0.134046         3.6476

MULLIKEN ATOMIC CHARGES
-----------------------
   0 S :    0.103413
   1 C :   -0.133377
   2 C :   -0.092338
   3 C :   -0.009963
   4 C :   -0.142536
   5 H :    0.028748
   6 C :    0.063455
   7 H :    0.027361
   8 H :    0.011432
   9 C :   -0.023829
  10 H :   -0.001347
  11 H :    0.021685
  12 C :   -0.036619
  13 H :    0.025843
  14 H :    0.053308
  15 H :    0.029386
  16 S :    0.133991
  17 C :   -0.090415
  18 C :   -0.044389
  19 C :    0.011283
  20 C :   -0.174222
  21 H :    0.019432
  22 C :    0.050654
  23 H :    0.000826
  24 H :    0.016490
  25 C :   -0.068477
  26 H :    0.035191
  27 H :    0.021099
  28 C :   -0.026240
  29 H :    0.010125
  30 H :    0.026686
  31 H :    0.045413
  32 H :    0.055643
  33 H :    0.052294
Sum of atomic charges:    0.0000000

LOEWDIN ATOMIC CHARGES
----------------------
   0 S :    0.402264
   1 C :   -0.214446
   2 C :   -0.064515
   3 C :   -0.076434
   4 C :   -0.195830
   5 H :    0.032242
   6 C :   -0.030404
   7 H :    0.029131
   8 H :    0.028148
   9 C :   -0.035507
  10 H :    0.012917
  11 H :    0.028779
  12 C :   -0.059551
  13 H :    0.017770
  14 H :    0.034050
  15 H :    0.031678
  16 S :    0.456278
  17 C :   -0.199548
  18 C :   -0.070029
  19 C :   -0.053975
  20 C :   -0.209815
  21 H :    0.035464
  22 C :   -0.032820
  23 H :    0.020798
  24 H :    0.029375
  25 C :   -0.025065
  26 H :    0.019685
  27 H :    0.021200
  28 C :   -0.061962
  29 H :    0.015187
  30 H :    0.025122
  31 H :    0.030767
  32 H :    0.032847
  33 H :    0.026201

  Mayer bond orders larger than 0.100000
B(  0-S ,  1-C ) :   1.1449 B(  0-S ,  4-C ) :   1.1474 B(  1-C ,  2-C ) :   1.5928
B(  1-C ,  4-C ) :   0.1022 B(  1-C , 32-H ) :   0.9666 B(  2-C ,  3-C ) :   1.2545
B(  2-C ,  6-C ) :   1.0072 B(  3-C ,  4-C ) :   1.5804 B(  3-C ,  5-H ) :   0.9755
B(  4-C , 20-C ) :   1.0556 B(  6-C ,  7-H ) :   0.9317 B(  6-C ,  8-H ) :   0.9433
B(  6-C ,  9-C ) :   1.0877 B(  9-C , 10-H ) :   0.9482 B(  9-C , 11-H ) :   0.9477
B(  9-C , 12-C ) :   1.0585 B( 12-C , 13-H ) :   0.9765 B( 12-C , 14-H ) :   0.9770
B( 12-C , 15-H ) :   0.9763 B( 16-S , 17-C ) :   1.1782 B( 16-S , 20-C ) :   1.1877
B( 17-C , 18-C ) :   1.5826 B( 17-C , 20-C ) :   0.1047 B( 17-C , 33-H ) :   0.9656
B( 18-C , 19-C ) :   1.2555 B( 18-C , 21-H ) :   0.9958 B( 19-C , 20-C ) :   1.5027
B( 19-C , 22-C ) :   1.0954 B( 22-C , 23-H ) :   0.9261 B( 22-C , 24-H ) :   0.9268
B( 22-C , 25-C ) :   1.0527 B( 25-C , 26-H ) :   0.9618 B( 25-C , 27-H ) :   0.9576
B( 25-C , 28-C ) :   1.0778 B( 28-C , 29-H ) :   0.9739 B( 28-C , 30-H ) :   0.9755
B( 28-C , 31-H ) :   0.9731

Dispersion correction           -0.014155145
FINAL SINGLE POINT ENERGY     -1339.868306945645

DIPOLE MOMENT
-------------
                                X             Y             Z
Electronic contribution:    -28.46578       2.84273       6.14490
Nuclear contribution   :     28.89038      -3.01931      -6.50421
                        -----------------------------------------
Total Dipole Moment    :      0.42460      -0.17658      -0.35931
                        -----------------------------------------
Magnitude (a.u.)       :      0.58359
Magnitude (Debye)      :      1.48336

Rotational constants in cm-1:     0.017216     0.009501     0.006968
Rotational constants in MHz :   516.136256   284.842843   208.886050

                             ****ORCA TERMINATED NORMALLY****
TOTAL RUN TIME: 0 days 0 hours 0 minutes 21 seconds 762 msec
