                         Program Version 4.2.1 -  RELEASE  -
|  1> ! wB97X-D3 SP def2-SVP
|  2> %pal
|  3> nprocs 24
|  4> end
|  5>
|  6> * xyz 0 1
|  7> S 	 -64.9611 	 20.8557 	 -117.998
|  8> C 	 -63.4844 	 20.2924 	 -118.707
|  9> C 	 -62.7185 	 19.4859 	 -117.872
| 10> C 	 -63.4713 	 19.1618 	 -116.707
| 11> C 	 -64.6911 	 19.8342 	 -116.6
| 12> H 	 -63.2502 	 18.4634 	 -115.934
| 13> C 	 -61.4686 	 18.7091 	 -118.241
| 14> H 	 -61.0021 	 19.1414 	 -119.076
| 15> H 	 -61.8319 	 17.7588 	 -118.49
| 16> C 	 -60.5405 	 18.3097 	 -117.101
| 17> H 	 -59.9496 	 19.178 	 -116.821
| 18> H 	 -61.1716 	 17.8501 	 -116.281
| 19> C 	 -59.4659 	 17.2505 	 -117.594
| 20> H 	 -58.8573 	 17.6562 	 -118.403
| 21> H 	 -58.8255 	 16.8684 	 -116.692
| 22> H 	 -59.9114 	 16.3246 	 -118.031
| 23> S 	 -66.6123 	 18.0295 	 -115.748
| 24> C 	 -67.7654 	 18.5284 	 -114.502
| 25> C 	 -67.5728 	 19.8049 	 -114.104
| 26> C 	 -66.5208 	 20.4996 	 -114.851
| 27> C 	 -65.7846 	 19.6039 	 -115.612
| 28> H 	 -68.1808 	 20.2796 	 -113.353
| 29> C 	 -66.198 	 21.9942 	 -114.631
| 30> H 	 -65.1306 	 22.2104 	 -114.92
| 31> H 	 -66.2481 	 22.2547 	 -113.602
| 32> C 	 -67.2047 	 22.8318 	 -115.445
| 33> H 	 -68.1318 	 22.8302 	 -114.895
| 34> H 	 -67.4243 	 22.34 	 -116.456
| 35> C 	 -66.8405 	 24.2902 	 -115.532
| 36> H 	 -66.7694 	 24.611 	 -114.48
| 37> H 	 -67.6 	 24.7998 	 -116.142
| 38> H 	 -65.9119 	 24.4755 	 -116.073
| 39> H 	 -63.1253 	 20.6219 	 -119.663
| 40> H 	 -68.4457 	 17.8482 	 -114.009
| 41> *
| 42>
| 43>                          ****END OF INPUT****

CARTESIAN COORDINATES (ANGSTROEM)
---------------------------------
  S    -64.961100   20.855700  -117.998000
  C    -63.484400   20.292400  -118.707000
  C    -62.718500   19.485900  -117.872000
  C    -63.471300   19.161800  -116.707000
  C    -64.691100   19.834200  -116.600000
  H    -63.250200   18.463400  -115.934000
  C    -61.468600   18.709100  -118.241000
  H    -61.002100   19.141400  -119.076000
  H    -61.831900   17.758800  -118.490000
  C    -60.540500   18.309700  -117.101000
  H    -59.949600   19.178000  -116.821000
  H    -61.171600   17.850100  -116.281000
  C    -59.465900   17.250500  -117.594000
  H    -58.857300   17.656200  -118.403000
  H    -58.825500   16.868400  -116.692000
  H    -59.911400   16.324600  -118.031000
  S    -66.612300   18.029500  -115.748000
  C    -67.765400   18.528400  -114.502000
  C    -67.572800   19.804900  -114.104000
  C    -66.520800   20.499600  -114.851000
  C    -65.784600   19.603900  -115.612000
  H    -68.180800   20.279600  -113.353000
  C    -66.198000   21.994200  -114.631000
  H    -65.130600   22.210400  -114.920000
  H    -66.248100   22.254700  -113.602000
  C    -67.204700   22.831800  -115.445000
  H    -68.131800   22.830200  -114.895000
  H    -67.424300   22.340000  -116.456000
  C    -66.840500   24.290200  -115.532000
  H    -66.769400   24.611000  -114.480000
  H    -67.600000   24.799800  -116.142000
  H    -65.911900   24.475500  -116.073000
  H    -63.125300   20.621900  -119.663000
  H    -68.445700   17.848200  -114.009000

 Total Charge           Charge          ....    0
 Multiplicity           Mult            ....    1
 Number of Electrons    NEL             ....  134
 Basis Dimension        Dim             ....  322

ORBITAL ENERGIES
----------------

  NO   OCC          E(Eh)            E(eV)
   0   2.0000     -88.967094     -2420.9177
   1   2.0000     -88.961551     -2420.7669
   2   2.0000     -10.328487      -281.0524
   3   2.0000     -10.328312      -281.0476
   4   2.0000     -10.315331      -280.6944
   5   2.0000     -10.311999      -280.6038
   6   2.0000     -10.307424      -280.4793
   7   2.0000     -10.301983      -280.3312
   8   2.0000     -10.296019      -280.1689
   9   2.0000     -10.293647      -280.1044
  10   2.0000     -10.293392      -280.0974
  11   2.0000     -10.292841      -280.0824
  12   2.0000     -10.292249      -280.0663
  13   2.0000     -10.285184      -279.8741
  14   2.0000     -10.284514      -279.8559
  15   2.0000     -10.276284      -279.6319
  16   2.0000      -8.081729      -219.9150
  17   2.0000      -8.075743      -219.7521
  18   2.0000      -6.040167      -164.3613
  19   2.0000      -6.036203      -164.2534
  20   2.0000      -6.034391      -164.2041
  21   2.0000      -6.032636      -164.1564
  22   2.0000      -6.030518      -164.0987
  23   2.0000      -6.026189      -163.9809
  24   2.0000      -1.001407       -27.2497
  25   2.0000      -0.980137       -26.6709
  26   2.0000      -0.913981       -24.8707
  27   2.0000      -0.907723       -24.7004
  28   2.0000      -0.864620       -23.5275
  29   2.0000      -0.847288       -23.0559
  30   2.0000      -0.843851       -22.9624
  31   2.0000      -0.812895       -22.1200
  32   2.0000      -0.780781       -21.2461
  33   2.0000      -0.768600       -20.9147
  34   2.0000      -0.704716       -19.1763
  35   2.0000      -0.689233       -18.7550
  36   2.0000      -0.685837       -18.6626
  37   2.0000      -0.661785       -18.0081
  38   2.0000      -0.640917       -17.4402
  39   2.0000      -0.618419       -16.8280
  40   2.0000      -0.595936       -16.2162
  41   2.0000      -0.577800       -15.7227
  42   2.0000      -0.566262       -15.4088
  43   2.0000      -0.562202       -15.2983
  44   2.0000      -0.526216       -14.3191
  45   2.0000      -0.520853       -14.1731
  46   2.0000      -0.517677       -14.0867
  47   2.0000      -0.504089       -13.7170
  48   2.0000      -0.499763       -13.5992
  49   2.0000      -0.496404       -13.5079
  50   2.0000      -0.488673       -13.2975
  51   2.0000      -0.476592       -12.9687
  52   2.0000      -0.469297       -12.7702
  53   2.0000      -0.465721       -12.6729
  54   2.0000      -0.455286       -12.3890
  55   2.0000      -0.448098       -12.1934
  56   2.0000      -0.441292       -12.0082
  57   2.0000      -0.438153       -11.9227
  58   2.0000      -0.432994       -11.7824
  59   2.0000      -0.424234       -11.5440
  60   2.0000      -0.421969       -11.4824
  61   2.0000      -0.417715       -11.3666
  62   2.0000      -0.413178       -11.2431
  63   2.0000      -0.336597        -9.1593
  64   2.0000      -0.333604        -9.0778
  65   2.0000      -0.323783        -8.8106
  66   2.0000      -0.299325        -8.1450
  67   0.0000       0.038388         1.0446
  68   0.0000       0.064192         1.7468
  69   0.0000       0.107410         2.9228
  70   0.0000       0.112153         3.0518
  71   0.0000       0.127670         3.4741

MULLIKEN ATOMIC CHARGES
-----------------------
   0 S :    0.123817
   1 C :   -0.125407
   2 C :   -0.038534
   3 C :    0.004098
   4 C :   -0.163082
   5 H :    0.004614
   6 C :    0.101077
   7 H :    0.008544
   8 H :    0.021721
   9 C :   -0.102926
  10 H :    0.040949
  11 H :    0.053145
  12 C :   -0.103941
  13 H :    0.038380
  14 H :    0.056584
  15 H :    0.032965
  16 S :    0.091667
  17 C :   -0.081074
  18 C :   -0.009227
  19 C :   -0.060298
  20 C :   -0.148288
  21 H :    0.014947
  22 C :    0.064584
  23 H :    0.038102
  24 H :    0.017245
  25 C :   -0.120599
  26 H :    0.023023
  27 H :    0.045567
  28 C :   -0.024119
  29 H :    0.032177
  30 H :    0.038000
  31 H :    0.032746
  32 H :    0.036620
  33 H :    0.056922
Sum of atomic charges:    0.0000000

LOEWDIN ATOMIC CHARGES
----------------------
   0 S :    0.418025
   1 C :   -0.199022
   2 C :   -0.059019
   3 C :   -0.059698
   4 C :   -0.198428
   5 H :    0.026014
   6 C :   -0.027099
   7 H :    0.021528
   8 H :    0.031872
   9 C :   -0.037380
  10 H :    0.024925
  11 H :    0.033039
  12 C :   -0.078674
  13 H :    0.023556
  14 H :    0.039187
  15 H :    0.023576
  16 S :    0.375654
  17 C :   -0.173850
  18 C :   -0.068224
  19 C :   -0.048222
  20 C :   -0.192055
  21 H :    0.029598
  22 C :   -0.030893
  23 H :    0.034141
  24 H :    0.023699
  25 C :   -0.048089
  26 H :    0.021413
  27 H :    0.027304
  28 C :   -0.065387
  29 H :    0.028771
  30 H :    0.030050
  31 H :    0.023071
  32 H :    0.021148
  33 H :    0.029469

  Mayer bond orders larger than 0.100000
B(  0-S ,  1-C ) :   1.1555 B(  0-S ,  4-C ) :   1.1494 B(  1-C ,  2-C ) :   1.6039
B(  1-C , 32-H ) :   0.9669 B(  2-C ,  3-C ) :   1.2193 B(  2-C ,  6-C ) :   1.0299
B(  3-C ,  4-C ) :   1.5930 B(  3-C ,  5-H ) :   0.9956 B(  4-C , 20-C ) :   1.0170
B(  6-C ,  7-H ) :   0.9423 B(  6-C ,  8-H ) :   0.9361 B(  6-C ,  9-C ) :   1.0577
B(  9-C , 10-H ) :   0.9576 B(  9-C , 11-H ) :   0.9500 B(  9-C , 12-C ) :   1.0741
B( 12-C , 13-H ) :   0.9756 B( 12-C , 14-H ) :   0.9752 B( 12-C , 15-H ) :   0.9753
B( 16-S , 17-C ) :   1.1299 B( 16-S , 20-C ) :   1.1220 B( 17-C , 18-C ) :   1.6590
B( 17-C , 33-H ) :   0.9635 B( 18-C , 19-C ) :   1.1949 B( 18-C , 21-H ) :   0.9886
B( 19-C , 20-C ) :   1.6395 B( 19-C , 22-C ) :   1.0454 B( 22-C , 23-H ) :   0.9465
B( 22-C , 24-H ) :   0.9358 B( 22-C , 25-C ) :   1.0425 B( 25-C , 26-H ) :   0.9529
B( 25-C , 27-H ) :   0.9579 B( 25-C , 28-C ) :   1.0869 B( 28-C , 29-H ) :   0.9683
B( 28-C , 30-H ) :   0.9724 B( 28-C , 31-H ) :   0.9762

Dispersion correction           -0.013999673
FINAL SINGLE POINT ENERGY     -1339.878113440172

DIPOLE MOMENT
-------------
                                X             Y             Z
Electronic contribution:    -14.05459      -6.67031      -1.89067
Nuclear contribution   :     14.24230       6.75064       2.00525
                        -----------------------------------------
Total Dipole Moment    :      0.18771       0.08033       0.11458
                        -----------------------------------------
Magnitude (a.u.)       :      0.23413
Magnitude (Debye)      :      0.59511

Rotational constants in cm-1:     0.020628     0.007634     0.006305
Rotational constants in MHz :   618.418126   228.850898   189.011214

                             ****ORCA TERMINATED NORMALLY****
TOTAL RUN TIME: 0 days 0 hours 0 minutes 20 seconds 782 msec
