                         Program Version 4.2.1 -  RELEASE  -
|  1> ! wB97X-D3 SP def2-SVP
|  2> %pal
|  3> nprocs 24
|  4> end
|  5>
|  6> * xyz 0 1
|  7> S 	 -42.0154 	 17.644 	 -93.3858
|  8> C 	 -40.253 	 17.8777 	 -93.4972
|  9> C 	 -39.6808 	 16.9523 	 -94.358
| 10> C 	 -40.6976 	 16.3285 	 -95.1403
| 11> C 	 -41.9623 	 16.6079 	 -94.7757
| 12> H 	 -40.4352 	 15.5914 	 -95.8227
| 13> C 	 -38.2223 	 16.7081 	 -94.5834
| 14> H 	 -37.9483 	 15.6918 	 -94.9094
| 15> H 	 -37.9272 	 16.8076 	 -93.5687
| 16> C 	 -37.4451 	 17.7242 	 -95.4838
| 17> H 	 -37.6245 	 18.7476 	 -95.1187
| 18> H 	 -36.4493 	 17.5066 	 -95.4572
| 19> C 	 -37.8828 	 17.647 	 -96.9505
| 20> H 	 -37.2056 	 18.2893 	 -97.476
| 21> H 	 -37.7315 	 16.6766 	 -97.3833
| 22> H 	 -38.8939 	 18.0771 	 -96.9263
| 23> S 	 -44.6489 	 15.6577 	 -94.3359
| 24> C 	 -45.5728 	 15.218 	 -95.6828
| 25> C 	 -44.9692 	 15.4863 	 -96.8754
| 26> C 	 -43.6351 	 15.9858 	 -96.7114
| 27> C 	 -43.2738 	 16.1438 	 -95.3984
| 28> H 	 -45.4778 	 15.2876 	 -97.7611
| 29> C 	 -42.821 	 16.3199 	 -97.933
| 30> H 	 -43.5515 	 16.1626 	 -98.7632
| 31> H 	 -41.9617 	 15.7139 	 -97.9957
| 32> C 	 -42.328 	 17.8251 	 -97.9057
| 33> H 	 -41.6118 	 18.0052 	 -97.0478
| 34> H 	 -43.1464 	 18.4999 	 -97.7377
| 35> C 	 -41.5283 	 18.1128 	 -99.2154
| 36> H 	 -40.7105 	 17.4054 	 -99.2977
| 37> H 	 -41.0352 	 19.0003 	 -99.2078
| 38> H 	 -42.1299 	 18.1772 	 -100.072
| 39> H 	 -39.6682 	 18.5989 	 -92.8301
| 40> H 	 -46.5015 	 14.7204 	 -95.522
| 41> *
| 42>
| 43>                          ****END OF INPUT****

CARTESIAN COORDINATES (ANGSTROEM)
---------------------------------
  S    -42.015400   17.644000  -93.385800
  C    -40.253000   17.877700  -93.497200
  C    -39.680800   16.952300  -94.358000
  C    -40.697600   16.328500  -95.140300
  C    -41.962300   16.607900  -94.775700
  H    -40.435200   15.591400  -95.822700
  C    -38.222300   16.708100  -94.583400
  H    -37.948300   15.691800  -94.909400
  H    -37.927200   16.807600  -93.568700
  C    -37.445100   17.724200  -95.483800
  H    -37.624500   18.747600  -95.118700
  H    -36.449300   17.506600  -95.457200
  C    -37.882800   17.647000  -96.950500
  H    -37.205600   18.289300  -97.476000
  H    -37.731500   16.676600  -97.383300
  H    -38.893900   18.077100  -96.926300
  S    -44.648900   15.657700  -94.335900
  C    -45.572800   15.218000  -95.682800
  C    -44.969200   15.486300  -96.875400
  C    -43.635100   15.985800  -96.711400
  C    -43.273800   16.143800  -95.398400
  H    -45.477800   15.287600  -97.761100
  C    -42.821000   16.319900  -97.933000
  H    -43.551500   16.162600  -98.763200
  H    -41.961700   15.713900  -97.995700
  C    -42.328000   17.825100  -97.905700
  H    -41.611800   18.005200  -97.047800
  H    -43.146400   18.499900  -97.737700
  C    -41.528300   18.112800  -99.215400
  H    -40.710500   17.405400  -99.297700
  H    -41.035200   19.000300  -99.207800
  H    -42.129900   18.177200  -100.072000
  H    -39.668200   18.598900  -92.830100
  H    -46.501500   14.720400  -95.522000

 Total Charge           Charge          ....    0
 Multiplicity           Mult            ....    1
 Number of Electrons    NEL             ....  134
 Basis Dimension        Dim             ....  322

ORBITAL ENERGIES
----------------

  NO   OCC          E(Eh)            E(eV)
   0   2.0000     -88.965850     -2420.8839
   1   2.0000     -88.962360     -2420.7889
   2   2.0000     -10.330618      -281.1104
   3   2.0000     -10.329461      -281.0789
   4   2.0000     -10.321327      -280.8576
   5   2.0000     -10.310217      -280.5553
   6   2.0000     -10.301171      -280.3091
   7   2.0000     -10.299548      -280.2650
   8   2.0000     -10.290960      -280.0313
   9   2.0000     -10.290415      -280.0164
  10   2.0000     -10.286122      -279.8996
  11   2.0000     -10.286035      -279.8972
  12   2.0000     -10.283181      -279.8196
  13   2.0000     -10.283088      -279.8170
  14   2.0000     -10.274902      -279.5943
  15   2.0000     -10.262066      -279.2450
  16   2.0000      -8.080493      -219.8814
  17   2.0000      -8.077791      -219.8079
  18   2.0000      -6.039066      -164.3313
  19   2.0000      -6.036270      -164.2552
  20   2.0000      -6.035156      -164.2249
  21   2.0000      -6.032214      -164.1449
  22   2.0000      -6.031052      -164.1133
  23   2.0000      -6.028552      -164.0452
  24   2.0000      -1.006156       -27.3789
  25   2.0000      -0.988085       -26.8872
  26   2.0000      -0.914524       -24.8855
  27   2.0000      -0.903754       -24.5924
  28   2.0000      -0.864458       -23.5231
  29   2.0000      -0.852143       -23.1880
  30   2.0000      -0.845716       -23.0131
  31   2.0000      -0.818180       -22.2638
  32   2.0000      -0.785448       -21.3731
  33   2.0000      -0.773397       -21.0452
  34   2.0000      -0.706328       -19.2202
  35   2.0000      -0.704290       -19.1647
  36   2.0000      -0.686234       -18.6734
  37   2.0000      -0.664224       -18.0745
  38   2.0000      -0.635818       -17.3015
  39   2.0000      -0.623330       -16.9617
  40   2.0000      -0.599453       -16.3120
  41   2.0000      -0.583688       -15.8830
  42   2.0000      -0.564734       -15.3672
  43   2.0000      -0.556325       -15.1384
  44   2.0000      -0.542998       -14.7757
  45   2.0000      -0.517553       -14.0833
  46   2.0000      -0.515738       -14.0340
  47   2.0000      -0.512200       -13.9377
  48   2.0000      -0.503139       -13.6911
  49   2.0000      -0.491889       -13.3850
  50   2.0000      -0.488643       -13.2966
  51   2.0000      -0.485917       -13.2225
  52   2.0000      -0.472044       -12.8450
  53   2.0000      -0.462822       -12.5940
  54   2.0000      -0.458802       -12.4846
  55   2.0000      -0.451075       -12.2744
  56   2.0000      -0.444724       -12.1015
  57   2.0000      -0.435998       -11.8641
  58   2.0000      -0.433748       -11.8029
  59   2.0000      -0.430168       -11.7055
  60   2.0000      -0.422496       -11.4967
  61   2.0000      -0.416569       -11.3354
  62   2.0000      -0.412810       -11.2331
  63   2.0000      -0.348612        -9.4862
  64   2.0000      -0.331720        -9.0266
  65   2.0000      -0.329745        -8.9728
  66   2.0000      -0.289382        -7.8745
  67   0.0000       0.032475         0.8837
  68   0.0000       0.067583         1.8390
  69   0.0000       0.104579         2.8457
  70   0.0000       0.123630         3.3641
  71   0.0000       0.128418         3.4944

MULLIKEN ATOMIC CHARGES
-----------------------
   0 S :    0.104883
   1 C :   -0.170078
   2 C :   -0.091225
   3 C :    0.014424
   4 C :   -0.103956
   5 H :   -0.018435
   6 C :    0.066909
   7 H :    0.027276
   8 H :    0.019448
   9 C :   -0.041730
  10 H :    0.025358
  11 H :    0.010688
  12 C :   -0.049651
  13 H :    0.024837
  14 H :    0.026636
  15 H :    0.052919
  16 S :    0.094413
  17 C :   -0.080489
  18 C :   -0.009547
  19 C :   -0.050944
  20 C :   -0.134593
  21 H :   -0.007811
  22 C :    0.095759
  23 H :    0.025913
  24 H :    0.023025
  25 C :   -0.130293
  26 H :    0.063200
  27 H :    0.030056
  28 C :    0.025779
  29 H :    0.017864
  30 H :   -0.001236
  31 H :    0.018391
  32 H :    0.071073
  33 H :    0.051135
Sum of atomic charges:   -0.0000000

LOEWDIN ATOMIC CHARGES
----------------------
   0 S :    0.396221
   1 C :   -0.202285
   2 C :   -0.059930
   3 C :   -0.068262
   4 C :   -0.182192
   5 H :    0.020222
   6 C :   -0.033793
   7 H :    0.032542
   8 H :    0.030133
   9 C :   -0.024013
  10 H :    0.025603
  11 H :    0.008675
  12 C :   -0.061846
  13 H :    0.023924
  14 H :    0.020631
  15 H :    0.032154
  16 S :    0.398567
  17 C :   -0.186060
  18 C :   -0.071775
  19 C :   -0.055578
  20 C :   -0.184523
  21 H :    0.021773
  22 C :   -0.022593
  23 H :    0.035543
  24 H :    0.023695
  25 C :   -0.032889
  26 H :    0.032564
  27 H :    0.019899
  28 C :   -0.057266
  29 H :    0.025687
  30 H :    0.012488
  31 H :    0.018057
  32 H :    0.040353
  33 H :    0.024272

  Mayer bond orders larger than 0.100000
B(  0-S ,  1-C ) :   1.1317 B(  0-S ,  4-C ) :   1.1492 B(  1-C ,  2-C ) :   1.6159
B(  1-C , 32-H ) :   0.9590 B(  2-C ,  3-C ) :   1.2235 B(  2-C ,  6-C ) :   1.0118
B(  3-C ,  4-C ) :   1.5856 B(  3-C ,  5-H ) :   1.0160 B(  4-C , 20-C ) :   1.0009
B(  6-C ,  7-H ) :   0.9460 B(  6-C ,  8-H ) :   0.9302 B(  6-C ,  9-C ) :   1.0779
B(  9-C , 10-H ) :   0.9569 B(  9-C , 11-H ) :   0.9554 B(  9-C , 12-C ) :   1.0833
B( 12-C , 13-H ) :   0.9711 B( 12-C , 14-H ) :   0.9738 B( 12-C , 15-H ) :   0.9752
B( 16-S , 17-C ) :   1.1777 B( 16-S , 20-C ) :   1.1224 B( 17-C , 18-C ) :   1.5982
B( 17-C , 33-H ) :   0.9676 B( 18-C , 19-C ) :   1.2318 B( 18-C , 21-H ) :   1.0055
B( 19-C , 20-C ) :   1.6252 B( 19-C , 22-C ) :   1.0398 B( 22-C , 23-H ) :   0.9390
B( 22-C , 24-H ) :   0.9267 B( 22-C , 25-C ) :   1.0590 B( 25-C , 26-H ) :   0.9525
B( 25-C , 27-H ) :   0.9581 B( 25-C , 28-C ) :   1.0858 B( 28-C , 29-H ) :   0.9694
B( 28-C , 30-H ) :   0.9680 B( 28-C , 31-H ) :   0.9745

Dispersion correction           -0.015804400
FINAL SINGLE POINT ENERGY     -1339.863809665153

DIPOLE MOMENT
-------------
                                X             Y             Z
Electronic contribution:    -21.69766      -6.62542      21.41102
Nuclear contribution   :     22.20224       6.57284     -21.89654
                        -----------------------------------------
Total Dipole Moment    :      0.50458      -0.05258      -0.48552
                        -----------------------------------------
Magnitude (a.u.)       :      0.70220
Magnitude (Debye)      :      1.78486

Rotational constants in cm-1:     0.019592     0.009887     0.007240
Rotational constants in MHz :   587.356872   296.407954   217.038268

                             ****ORCA TERMINATED NORMALLY****
TOTAL RUN TIME: 0 days 0 hours 0 minutes 23 seconds 328 msec
