                         Program Version 4.2.1 -  RELEASE  -
|  1> ! wB97X-D3 SP def2-SVP
|  2> %pal
|  3> nprocs 24
|  4> end
|  5>
|  6> * xyz 0 1
|  7> S 	 -115.791 	 17.7203 	 -115.016
|  8> C 	 -115.796 	 19.1916 	 -116.003
|  9> C 	 -115.893 	 20.2939 	 -115.214
| 10> C 	 -115.933 	 19.9717 	 -113.808
| 11> C 	 -115.684 	 18.6465 	 -113.492
| 12> H 	 -116.027 	 20.742 	 -113.009
| 13> C 	 -116.045 	 21.7158 	 -115.699
| 14> H 	 -116.925 	 22.1891 	 -115.193
| 15> H 	 -116.341 	 21.7074 	 -116.765
| 16> C 	 -114.864 	 22.6673 	 -115.515
| 17> H 	 -115.184 	 23.6201 	 -115.921
| 18> H 	 -114.647 	 22.861 	 -114.454
| 19> C 	 -113.655 	 22.0265 	 -116.234
| 20> H 	 -113.937 	 21.5328 	 -117.161
| 21> H 	 -112.897 	 22.7544 	 -116.544
| 22> H 	 -113.287 	 21.2097 	 -115.547
| 23> S 	 -116.662 	 16.5376 	 -111.962
| 24> C 	 -115.913 	 16.102 	 -110.459
| 25> C 	 -115.208 	 17.1963 	 -109.993
| 26> C 	 -114.992 	 18.2371 	 -110.931
| 27> C 	 -115.581 	 17.9602 	 -112.176
| 28> H 	 -114.873 	 17.1604 	 -108.968
| 29> C 	 -114.075 	 19.4008 	 -110.549
| 30> H 	 -113.518 	 19.6858 	 -111.487
| 31> H 	 -113.339 	 18.965 	 -109.838
| 32> C 	 -114.715 	 20.6324 	 -109.82
| 33> H 	 -115.231 	 20.293 	 -108.95
| 34> H 	 -115.383 	 21.1668 	 -110.552
| 35> C 	 -113.788 	 21.7305 	 -109.345
| 36> H 	 -113.301 	 22.3422 	 -110.151
| 37> H 	 -113.18 	 21.28 	 -108.582
| 38> H 	 -114.361 	 22.5978 	 -108.904
| 39> H 	 -115.774 	 19.2775 	 -117.063
| 40> H 	 -116.088 	 15.1681 	 -109.9
| 41> *
| 42>
| 43>                          ****END OF INPUT****

CARTESIAN COORDINATES (ANGSTROEM)
---------------------------------
  S    -115.791000   17.720300  -115.016000
  C    -115.796000   19.191600  -116.003000
  C    -115.893000   20.293900  -115.214000
  C    -115.933000   19.971700  -113.808000
  C    -115.684000   18.646500  -113.492000
  H    -116.027000   20.742000  -113.009000
  C    -116.045000   21.715800  -115.699000
  H    -116.925000   22.189100  -115.193000
  H    -116.341000   21.707400  -116.765000
  C    -114.864000   22.667300  -115.515000
  H    -115.184000   23.620100  -115.921000
  H    -114.647000   22.861000  -114.454000
  C    -113.655000   22.026500  -116.234000
  H    -113.937000   21.532800  -117.161000
  H    -112.897000   22.754400  -116.544000
  H    -113.287000   21.209700  -115.547000
  S    -116.662000   16.537600  -111.962000
  C    -115.913000   16.102000  -110.459000
  C    -115.208000   17.196300  -109.993000
  C    -114.992000   18.237100  -110.931000
  C    -115.581000   17.960200  -112.176000
  H    -114.873000   17.160400  -108.968000
  C    -114.075000   19.400800  -110.549000
  H    -113.518000   19.685800  -111.487000
  H    -113.339000   18.965000  -109.838000
  C    -114.715000   20.632400  -109.820000
  H    -115.231000   20.293000  -108.950000
  H    -115.383000   21.166800  -110.552000
  C    -113.788000   21.730500  -109.345000
  H    -113.301000   22.342200  -110.151000
  H    -113.180000   21.280000  -108.582000
  H    -114.361000   22.597800  -108.904000
  H    -115.774000   19.277500  -117.063000
  H    -116.088000   15.168100  -109.900000

 Total Charge           Charge          ....    0
 Multiplicity           Mult            ....    1
 Number of Electrons    NEL             ....  134
 Basis Dimension        Dim             ....  322

ORBITAL ENERGIES
----------------

  NO   OCC          E(Eh)            E(eV)
   0   2.0000     -88.965260     -2420.8678
   1   2.0000     -88.963250     -2420.8131
   2   2.0000     -10.339347      -281.3479
   3   2.0000     -10.337856      -281.3074
   4   2.0000     -10.319784      -280.8156
   5   2.0000     -10.315065      -280.6872
   6   2.0000     -10.310555      -280.5645
   7   2.0000     -10.301990      -280.3314
   8   2.0000     -10.301388      -280.3150
   9   2.0000     -10.300429      -280.2889
  10   2.0000     -10.295607      -280.1577
  11   2.0000     -10.292792      -280.0811
  12   2.0000     -10.292160      -280.0639
  13   2.0000     -10.288933      -279.9761
  14   2.0000     -10.285141      -279.8729
  15   2.0000     -10.280154      -279.7372
  16   2.0000      -8.079101      -219.8435
  17   2.0000      -8.077682      -219.8049
  18   2.0000      -6.037887      -164.2993
  19   2.0000      -6.036197      -164.2533
  20   2.0000      -6.033790      -164.1878
  21   2.0000      -6.032351      -164.1486
  22   2.0000      -6.029515      -164.0714
  23   2.0000      -6.028317      -164.0388
  24   2.0000      -1.001936       -27.2641
  25   2.0000      -0.983609       -26.7654
  26   2.0000      -0.913161       -24.8484
  27   2.0000      -0.905543       -24.6411
  28   2.0000      -0.867052       -23.5937
  29   2.0000      -0.854478       -23.2515
  30   2.0000      -0.838394       -22.8139
  31   2.0000      -0.813647       -22.1405
  32   2.0000      -0.779307       -21.2060
  33   2.0000      -0.773454       -21.0468
  34   2.0000      -0.709188       -19.2980
  35   2.0000      -0.697012       -18.9667
  36   2.0000      -0.689734       -18.7686
  37   2.0000      -0.659429       -17.9440
  38   2.0000      -0.638807       -17.3828
  39   2.0000      -0.619158       -16.8482
  40   2.0000      -0.590824       -16.0771
  41   2.0000      -0.577226       -15.7071
  42   2.0000      -0.570972       -15.5369
  43   2.0000      -0.549288       -14.9469
  44   2.0000      -0.539372       -14.6771
  45   2.0000      -0.519901       -14.1472
  46   2.0000      -0.516766       -14.0619
  47   2.0000      -0.512330       -13.9412
  48   2.0000      -0.505910       -13.7665
  49   2.0000      -0.503986       -13.7141
  50   2.0000      -0.488194       -13.2844
  51   2.0000      -0.480641       -13.0789
  52   2.0000      -0.474136       -12.9019
  53   2.0000      -0.463659       -12.6168
  54   2.0000      -0.459027       -12.4908
  55   2.0000      -0.446015       -12.1367
  56   2.0000      -0.442818       -12.0497
  57   2.0000      -0.432399       -11.7662
  58   2.0000      -0.429558       -11.6889
  59   2.0000      -0.422545       -11.4980
  60   2.0000      -0.419784       -11.4229
  61   2.0000      -0.412236       -11.2175
  62   2.0000      -0.412100       -11.2138
  63   2.0000      -0.348668        -9.4877
  64   2.0000      -0.329523        -8.9668
  65   2.0000      -0.325923        -8.8688
  66   2.0000      -0.294603        -8.0166
  67   0.0000       0.018229         0.4960
  68   0.0000       0.070879         1.9287
  69   0.0000       0.101072         2.7503
  70   0.0000       0.119995         3.2652
  71   0.0000       0.123886         3.3711

MULLIKEN ATOMIC CHARGES
-----------------------
   0 S :    0.096088
   1 C :   -0.090529
   2 C :   -0.095333
   3 C :    0.028050
   4 C :   -0.143675
   5 H :    0.021729
   6 C :    0.013327
   7 H :    0.036226
   8 H :    0.024424
   9 C :   -0.048046
  10 H :    0.026387
  11 H :    0.031391
  12 C :   -0.068377
  13 H :    0.017468
  14 H :    0.039730
  15 H :    0.061197
  16 S :    0.088415
  17 C :   -0.096501
  18 C :   -0.052144
  19 C :    0.004797
  20 C :   -0.150609
  21 H :    0.017427
  22 C :    0.026622
  23 H :    0.041816
  24 H :    0.024247
  25 C :   -0.059702
  26 H :    0.025875
  27 H :    0.031735
  28 C :   -0.068943
  29 H :    0.038495
  30 H :    0.035760
  31 H :    0.036262
  32 H :    0.034328
  33 H :    0.072061
Sum of atomic charges:    0.0000000

LOEWDIN ATOMIC CHARGES
----------------------
   0 S :    0.380521
   1 C :   -0.177667
   2 C :   -0.071706
   3 C :   -0.060949
   4 C :   -0.183824
   5 H :    0.033933
   6 C :   -0.037122
   7 H :    0.035501
   8 H :    0.029706
   9 C :   -0.040510
  10 H :    0.022276
  11 H :    0.023500
  12 C :   -0.070313
  13 H :    0.019470
  14 H :    0.025614
  15 H :    0.039458
  16 S :    0.389259
  17 C :   -0.187807
  18 C :   -0.077219
  19 C :   -0.057177
  20 C :   -0.179668
  21 H :    0.029817
  22 C :   -0.036253
  23 H :    0.037971
  24 H :    0.031167
  25 C :   -0.041978
  26 H :    0.022047
  27 H :    0.025610
  28 C :   -0.074766
  29 H :    0.030803
  30 H :    0.021467
  31 H :    0.034733
  32 H :    0.025749
  33 H :    0.038357

  Mayer bond orders larger than 0.100000
B(  0-S ,  1-C ) :   1.1205 B(  0-S ,  4-C ) :   1.1337 B(  1-C ,  2-C ) :   1.6377
B(  1-C , 32-H ) :   0.9671 B(  2-C ,  3-C ) :   1.2192 B(  2-C ,  6-C ) :   1.0230
B(  3-C ,  4-C ) :   1.5844 B(  3-C ,  5-H ) :   0.9871 B(  4-C , 20-C ) :   1.0435
B(  6-C ,  7-H ) :   0.9403 B(  6-C ,  8-H ) :   0.9453 B(  6-C ,  9-C ) :   1.0776
B(  9-C , 10-H ) :   0.9550 B(  9-C , 11-H ) :   0.9572 B(  9-C , 12-C ) :   1.0621
B( 12-C , 13-H ) :   0.9783 B( 12-C , 14-H ) :   0.9754 B( 12-C , 15-H ) :   0.9695
B( 16-S , 17-C ) :   1.1517 B( 16-S , 20-C ) :   1.1436 B( 17-C , 18-C ) :   1.5977
B( 17-C , 20-C ) :   0.1062 B( 17-C , 33-H ) :   0.9668 B( 18-C , 19-C ) :   1.2456
B( 18-C , 21-H ) :   0.9903 B( 19-C , 20-C ) :   1.5760 B( 19-C , 22-C ) :   1.0381
B( 22-C , 23-H ) :   0.9385 B( 22-C , 24-H ) :   0.9388 B( 22-C , 25-C ) :   1.0613
B( 25-C , 26-H ) :   0.9532 B( 25-C , 27-H ) :   0.9541 B( 25-C , 28-C ) :   1.0921
B( 28-C , 29-H ) :   0.9724 B( 28-C , 30-H ) :   0.9749 B( 28-C , 31-H ) :   0.9702

Dispersion correction           -0.014106698
FINAL SINGLE POINT ENERGY     -1339.872143182989

DIPOLE MOMENT
-------------
                                X             Y             Z
Electronic contribution:    -11.92205     -27.92823      -3.96589
Nuclear contribution   :     12.05279      28.61792       4.26776
                        -----------------------------------------
Total Dipole Moment    :      0.13074       0.68969       0.30188
                        -----------------------------------------
Magnitude (a.u.)       :      0.76413
Magnitude (Debye)      :      1.94227

Rotational constants in cm-1:     0.016652     0.009570     0.006474
Rotational constants in MHz :   499.214196   286.909428   194.095222

                             ****ORCA TERMINATED NORMALLY****
TOTAL RUN TIME: 0 days 0 hours 0 minutes 21 seconds 383 msec
