                         Program Version 4.2.1 -  RELEASE  -
|  1> ! wB97X-D3 SP def2-SVP
|  2> %pal
|  3> nprocs 24
|  4> end
|  5>
|  6> * xyz 0 1
|  7> S 	 45.9154 	 -20.0146 	 -112.775
|  8> C 	 47.0406 	 -20.178 	 -111.444
|  9> C 	 47.6345 	 -21.4061 	 -111.282
| 10> C 	 47.1447 	 -22.2552 	 -112.404
| 11> C 	 46.3374 	 -21.6428 	 -113.299
| 12> H 	 47.5505 	 -23.2302 	 -112.578
| 13> C 	 48.6531 	 -21.8171 	 -110.26
| 14> H 	 48.2762 	 -22.8177 	 -109.958
| 15> H 	 48.475 	 -21.1643 	 -109.445
| 16> C 	 50.144 	 -21.6758 	 -110.67
| 17> H 	 50.3324 	 -20.6554 	 -111.031
| 18> H 	 50.7829 	 -21.7652 	 -109.74
| 19> C 	 50.6659 	 -22.7914 	 -111.569
| 20> H 	 51.7091 	 -22.7329 	 -111.774
| 21> H 	 50.5273 	 -23.7382 	 -111.07
| 22> H 	 50.2718 	 -22.7062 	 -112.566
| 23> S 	 44.2009 	 -22.9427 	 -114.504
| 24> C 	 44.1692 	 -23.1697 	 -116.282
| 25> C 	 45.4405 	 -22.7481 	 -116.73
| 26> C 	 46.3118 	 -22.2374 	 -115.757
| 27> C 	 45.7746 	 -22.1758 	 -114.482
| 28> H 	 45.6273 	 -22.8814 	 -117.758
| 29> C 	 47.7147 	 -21.8234 	 -116.093
| 30> H 	 47.9438 	 -20.9772 	 -115.423
| 31> H 	 47.5465 	 -21.2793 	 -117.001
| 32> C 	 48.7678 	 -22.9174 	 -116.154
| 33> H 	 48.4938 	 -23.5467 	 -116.978
| 34> H 	 48.5595 	 -23.5058 	 -115.243
| 35> C 	 50.2644 	 -22.4195 	 -116.123
| 36> H 	 50.4781 	 -21.9785 	 -117.093
| 37> H 	 50.9926 	 -23.2665 	 -116.01
| 38> H 	 50.4949 	 -21.7582 	 -115.343
| 39> H 	 47.4486 	 -19.2899 	 -111.078
| 40> H 	 43.355 	 -23.6162 	 -116.902
| 41> *
| 42>
| 43>                          ****END OF INPUT****

CARTESIAN COORDINATES (ANGSTROEM)
---------------------------------
  S     45.915400  -20.014600  -112.775000
  C     47.040600  -20.178000  -111.444000
  C     47.634500  -21.406100  -111.282000
  C     47.144700  -22.255200  -112.404000
  C     46.337400  -21.642800  -113.299000
  H     47.550500  -23.230200  -112.578000
  C     48.653100  -21.817100  -110.260000
  H     48.276200  -22.817700  -109.958000
  H     48.475000  -21.164300  -109.445000
  C     50.144000  -21.675800  -110.670000
  H     50.332400  -20.655400  -111.031000
  H     50.782900  -21.765200  -109.740000
  C     50.665900  -22.791400  -111.569000
  H     51.709100  -22.732900  -111.774000
  H     50.527300  -23.738200  -111.070000
  H     50.271800  -22.706200  -112.566000
  S     44.200900  -22.942700  -114.504000
  C     44.169200  -23.169700  -116.282000
  C     45.440500  -22.748100  -116.730000
  C     46.311800  -22.237400  -115.757000
  C     45.774600  -22.175800  -114.482000
  H     45.627300  -22.881400  -117.758000
  C     47.714700  -21.823400  -116.093000
  H     47.943800  -20.977200  -115.423000
  H     47.546500  -21.279300  -117.001000
  C     48.767800  -22.917400  -116.154000
  H     48.493800  -23.546700  -116.978000
  H     48.559500  -23.505800  -115.243000
  C     50.264400  -22.419500  -116.123000
  H     50.478100  -21.978500  -117.093000
  H     50.992600  -23.266500  -116.010000
  H     50.494900  -21.758200  -115.343000
  H     47.448600  -19.289900  -111.078000
  H     43.355000  -23.616200  -116.902000

 Total Charge           Charge          ....    0
 Multiplicity           Mult            ....    1
 Number of Electrons    NEL             ....  134
 Basis Dimension        Dim             ....  322

ORBITAL ENERGIES
----------------

  NO   OCC          E(Eh)            E(eV)
   0   2.0000     -88.961871     -2420.7756
   1   2.0000     -88.961491     -2420.7652
   2   2.0000     -10.326434      -280.9966
   3   2.0000     -10.323234      -280.9095
   4   2.0000     -10.319392      -280.8049
   5   2.0000     -10.307968      -280.4941
   6   2.0000     -10.305219      -280.4193
   7   2.0000     -10.298468      -280.2356
   8   2.0000     -10.296740      -280.1885
   9   2.0000     -10.295855      -280.1645
  10   2.0000     -10.295383      -280.1516
  11   2.0000     -10.289958      -280.0040
  12   2.0000     -10.289115      -279.9811
  13   2.0000     -10.282065      -279.7892
  14   2.0000     -10.281758      -279.7809
  15   2.0000     -10.275738      -279.6171
  16   2.0000      -8.076617      -219.7759
  17   2.0000      -8.075857      -219.7553
  18   2.0000      -6.035137      -164.2244
  19   2.0000      -6.034406      -164.2045
  20   2.0000      -6.031178      -164.1167
  21   2.0000      -6.030300      -164.0928
  22   2.0000      -6.027222      -164.0091
  23   2.0000      -6.026757      -163.9964
  24   2.0000      -1.005681       -27.3660
  25   2.0000      -0.980001       -26.6672
  26   2.0000      -0.914180       -24.8761
  27   2.0000      -0.905114       -24.6294
  28   2.0000      -0.873067       -23.7574
  29   2.0000      -0.848087       -23.0776
  30   2.0000      -0.844758       -22.9870
  31   2.0000      -0.817185       -22.2367
  32   2.0000      -0.786801       -21.4100
  33   2.0000      -0.772214       -21.0130
  34   2.0000      -0.709981       -19.3196
  35   2.0000      -0.707489       -19.2518
  36   2.0000      -0.698839       -19.0164
  37   2.0000      -0.660673       -17.9778
  38   2.0000      -0.646523       -17.5928
  39   2.0000      -0.616367       -16.7722
  40   2.0000      -0.586893       -15.9702
  41   2.0000      -0.574098       -15.6220
  42   2.0000      -0.564114       -15.3503
  43   2.0000      -0.551746       -15.0138
  44   2.0000      -0.544589       -14.8190
  45   2.0000      -0.525769       -14.3069
  46   2.0000      -0.518564       -14.1108
  47   2.0000      -0.514788       -14.0081
  48   2.0000      -0.510066       -13.8796
  49   2.0000      -0.499042       -13.5796
  50   2.0000      -0.492665       -13.4061
  51   2.0000      -0.482446       -13.1280
  52   2.0000      -0.476377       -12.9629
  53   2.0000      -0.464049       -12.6274
  54   2.0000      -0.452524       -12.3138
  55   2.0000      -0.444349       -12.0913
  56   2.0000      -0.439226       -11.9520
  57   2.0000      -0.437340       -11.9006
  58   2.0000      -0.433337       -11.7917
  59   2.0000      -0.428889       -11.6707
  60   2.0000      -0.423451       -11.5227
  61   2.0000      -0.416530       -11.3344
  62   2.0000      -0.405154       -11.0248
  63   2.0000      -0.334838        -9.1114
  64   2.0000      -0.325851        -8.8669
  65   2.0000      -0.321445        -8.7470
  66   2.0000      -0.308854        -8.4043
  67   0.0000       0.044249         1.2041
  68   0.0000       0.048472         1.3190
  69   0.0000       0.111864         3.0440
  70   0.0000       0.120666         3.2835
  71   0.0000       0.124775         3.3953

MULLIKEN ATOMIC CHARGES
-----------------------
   0 S :    0.107295
   1 C :   -0.096528
   2 C :   -0.127834
   3 C :    0.055045
   4 C :   -0.186467
   5 H :    0.006038
   6 C :    0.091669
   7 H :    0.038392
   8 H :    0.015201
   9 C :   -0.076532
  10 H :    0.030817
  11 H :    0.036676
  12 C :   -0.027938
  13 H :    0.020481
  14 H :    0.032313
  15 H :    0.031978
  16 S :    0.104325
  17 C :   -0.128697
  18 C :   -0.027794
  19 C :   -0.039792
  20 C :   -0.165739
  21 H :    0.001237
  22 C :    0.085534
  23 H :    0.018616
  24 H :    0.007555
  25 C :   -0.034999
  26 H :    0.023541
  27 H :    0.024493
  28 C :   -0.036342
  29 H :    0.032888
  30 H :    0.037380
  31 H :    0.031122
  32 H :    0.033444
  33 H :    0.082622
Sum of atomic charges:   -0.0000000

LOEWDIN ATOMIC CHARGES
----------------------
   0 S :    0.391502
   1 C :   -0.183185
   2 C :   -0.056725
   3 C :   -0.047293
   4 C :   -0.195398
   5 H :    0.025725
   6 C :   -0.032596
   7 H :    0.040162
   8 H :    0.030280
   9 C :   -0.037734
  10 H :    0.026105
  11 H :    0.031151
  12 C :   -0.066409
  13 H :    0.024216
  14 H :    0.027418
  15 H :    0.023601
  16 S :    0.395337
  17 C :   -0.184768
  18 C :   -0.071579
  19 C :   -0.058774
  20 C :   -0.208893
  21 H :    0.022598
  22 C :   -0.038167
  23 H :    0.031663
  24 H :    0.024941
  25 C :   -0.034538
  26 H :    0.023202
  27 H :    0.025442
  28 C :   -0.060592
  29 H :    0.026122
  30 H :    0.032742
  31 H :    0.017867
  32 H :    0.011900
  33 H :    0.044679

  Mayer bond orders larger than 0.100000
B(  0-S ,  1-C ) :   1.1351 B(  0-S ,  4-C ) :   1.1159 B(  1-C ,  2-C ) :   1.6670
B(  1-C , 32-H ) :   0.9619 B(  2-C ,  3-C ) :   1.1849 B(  2-C ,  6-C ) :   1.0165
B(  3-C ,  4-C ) :   1.6482 B(  3-C ,  5-H ) :   0.9923 B(  4-C , 20-C ) :   1.0382
B(  6-C ,  7-H ) :   0.9401 B(  6-C ,  8-H ) :   0.9308 B(  6-C ,  9-C ) :   1.0638
B(  9-C , 10-H ) :   0.9543 B(  9-C , 11-H ) :   0.9559 B(  9-C , 12-C ) :   1.0836
B( 12-C , 13-H ) :   0.9686 B( 12-C , 14-H ) :   0.9733 B( 12-C , 15-H ) :   0.9728
B( 16-S , 17-C ) :   1.1605 B( 16-S , 20-C ) :   1.1484 B( 17-C , 18-C ) :   1.5663
B( 17-C , 20-C ) :   0.1146 B( 17-C , 33-H ) :   0.9651 B( 18-C , 19-C ) :   1.2749
B( 18-C , 21-H ) :   0.9977 B( 19-C , 20-C ) :   1.5640 B( 19-C , 22-C ) :   1.0427
B( 22-C , 23-H ) :   0.9211 B( 22-C , 24-H ) :   0.9252 B( 22-C , 25-C ) :   1.0490
B( 25-C , 26-H ) :   0.9549 B( 25-C , 27-H ) :   0.9553 B( 25-C , 28-C ) :   1.0744
B( 28-C , 29-H ) :   0.9763 B( 28-C , 30-H ) :   0.9766 B( 28-C , 31-H ) :   0.9763

Dispersion correction           -0.015536324
FINAL SINGLE POINT ENERGY     -1339.867628444937

DIPOLE MOMENT
-------------
                                X             Y             Z
Electronic contribution:    -29.75045       5.38326      -0.08220
Nuclear contribution   :     30.57868      -5.53522       0.00004
                        -----------------------------------------
Total Dipole Moment    :      0.82823      -0.15195      -0.08216
                        -----------------------------------------
Magnitude (a.u.)       :      0.84605
Magnitude (Debye)      :      2.15049

Rotational constants in cm-1:     0.017709     0.009949     0.007398
Rotational constants in MHz :   530.894792   298.263927   221.772733

                             ****ORCA TERMINATED NORMALLY****
TOTAL RUN TIME: 0 days 0 hours 0 minutes 22 seconds 371 msec
