                         Program Version 4.2.1 -  RELEASE  -
|  1> ! wB97X-D3 SP def2-SVP
|  2> %pal
|  3> nprocs 24
|  4> end
|  5>
|  6> * xyz 0 1
|  7> S 	 -107.011 	 39.3938 	 -10.5338
|  8> C 	 -107.633 	 40.3885 	 -11.857
|  9> C 	 -107.883 	 39.641 	 -13.0226
| 10> C 	 -107.75 	 38.286 	 -12.7106
| 11> C 	 -107.416 	 37.9277 	 -11.3863
| 12> H 	 -107.995 	 37.4595 	 -13.4294
| 13> C 	 -108.12 	 40.289 	 -14.3675
| 14> H 	 -108.876 	 41.0031 	 -14.277
| 15> H 	 -108.494 	 39.4738 	 -14.9779
| 16> C 	 -106.921 	 40.8603 	 -15.183
| 17> H 	 -106.285 	 41.4784 	 -14.505
| 18> H 	 -106.311 	 40.0936 	 -15.5975
| 19> C 	 -107.471 	 41.6313 	 -16.3622
| 20> H 	 -108.01 	 40.9669 	 -17.0584
| 21> H 	 -108.214 	 42.4339 	 -16.1136
| 22> H 	 -106.693 	 42.1115 	 -17.0483
| 23> S 	 -106.141 	 36.7961 	 -9.2499
| 24> C 	 -105.991 	 35.0333 	 -9.16594
| 25> C 	 -106.248 	 34.4773 	 -10.3998
| 26> C 	 -106.991 	 35.2993 	 -11.3055
| 27> C 	 -107.011 	 36.6357 	 -10.7959
| 28> H 	 -106.119 	 33.3974 	 -10.5395
| 29> C 	 -107.457 	 34.844 	 -12.6591
| 30> H 	 -106.995 	 33.8395 	 -12.7074
| 31> H 	 -107.048 	 35.4339 	 -13.5463
| 32> C 	 -108.998 	 34.7565 	 -12.8735
| 33> H 	 -109.456 	 35.8141 	 -12.7516
| 34> H 	 -109.364 	 34.2514 	 -11.9914
| 35> C 	 -109.408 	 34.0105 	 -14.1828
| 36> H 	 -108.951 	 33.0232 	 -14.1083
| 37> H 	 -109.23 	 34.4708 	 -15.1413
| 38> H 	 -110.477 	 33.9106 	 -14.2581
| 39> H 	 -107.29 	 41.4627 	 -11.9003
| 40> H 	 -105.421 	 34.4592 	 -8.39007
| 41> *
| 42>
| 43>                          ****END OF INPUT****

CARTESIAN COORDINATES (ANGSTROEM)
---------------------------------
  S    -107.011000   39.393800  -10.533800
  C    -107.633000   40.388500  -11.857000
  C    -107.883000   39.641000  -13.022600
  C    -107.750000   38.286000  -12.710600
  C    -107.416000   37.927700  -11.386300
  H    -107.995000   37.459500  -13.429400
  C    -108.120000   40.289000  -14.367500
  H    -108.876000   41.003100  -14.277000
  H    -108.494000   39.473800  -14.977900
  C    -106.921000   40.860300  -15.183000
  H    -106.285000   41.478400  -14.505000
  H    -106.311000   40.093600  -15.597500
  C    -107.471000   41.631300  -16.362200
  H    -108.010000   40.966900  -17.058400
  H    -108.214000   42.433900  -16.113600
  H    -106.693000   42.111500  -17.048300
  S    -106.141000   36.796100   -9.249900
  C    -105.991000   35.033300   -9.165940
  C    -106.248000   34.477300  -10.399800
  C    -106.991000   35.299300  -11.305500
  C    -107.011000   36.635700  -10.795900
  H    -106.119000   33.397400  -10.539500
  C    -107.457000   34.844000  -12.659100
  H    -106.995000   33.839500  -12.707400
  H    -107.048000   35.433900  -13.546300
  C    -108.998000   34.756500  -12.873500
  H    -109.456000   35.814100  -12.751600
  H    -109.364000   34.251400  -11.991400
  C    -109.408000   34.010500  -14.182800
  H    -108.951000   33.023200  -14.108300
  H    -109.230000   34.470800  -15.141300
  H    -110.477000   33.910600  -14.258100
  H    -107.290000   41.462700  -11.900300
  H    -105.421000   34.459200   -8.390070

 Total Charge           Charge          ....    0
 Multiplicity           Mult            ....    1
 Number of Electrons    NEL             ....  134
 Basis Dimension        Dim             ....  322

ORBITAL ENERGIES
----------------

  NO   OCC          E(Eh)            E(eV)
   0   2.0000     -88.969622     -2420.9865
   1   2.0000     -88.967193     -2420.9204
   2   2.0000     -10.338839      -281.3341
   3   2.0000     -10.335444      -281.2417
   4   2.0000     -10.322832      -280.8985
   5   2.0000     -10.317447      -280.7520
   6   2.0000     -10.310717      -280.5689
   7   2.0000     -10.304647      -280.4037
   8   2.0000     -10.302759      -280.3523
   9   2.0000     -10.299566      -280.2654
  10   2.0000     -10.298696      -280.2418
  11   2.0000     -10.297581      -280.2114
  12   2.0000     -10.292688      -280.0783
  13   2.0000     -10.292111      -280.0626
  14   2.0000     -10.289114      -279.9810
  15   2.0000     -10.282282      -279.7951
  16   2.0000      -8.083599      -219.9659
  17   2.0000      -8.081794      -219.9168
  18   2.0000      -6.042197      -164.4165
  19   2.0000      -6.040241      -164.3633
  20   2.0000      -6.038457      -164.3148
  21   2.0000      -6.036384      -164.2584
  22   2.0000      -6.034062      -164.1952
  23   2.0000      -6.032573      -164.1547
  24   2.0000      -1.004784       -27.3416
  25   2.0000      -0.980826       -26.6896
  26   2.0000      -0.915891       -24.9227
  27   2.0000      -0.905559       -24.6415
  28   2.0000      -0.870658       -23.6918
  29   2.0000      -0.850767       -23.1506
  30   2.0000      -0.844613       -22.9831
  31   2.0000      -0.811557       -22.0836
  32   2.0000      -0.783733       -21.3265
  33   2.0000      -0.769492       -20.9389
  34   2.0000      -0.708805       -19.2876
  35   2.0000      -0.705908       -19.2087
  36   2.0000      -0.688081       -18.7236
  37   2.0000      -0.662825       -18.0364
  38   2.0000      -0.633400       -17.2357
  39   2.0000      -0.619304       -16.8521
  40   2.0000      -0.593707       -16.1556
  41   2.0000      -0.571988       -15.5646
  42   2.0000      -0.561473       -15.2785
  43   2.0000      -0.557281       -15.1644
  44   2.0000      -0.524499       -14.2723
  45   2.0000      -0.522438       -14.2163
  46   2.0000      -0.512661       -13.9502
  47   2.0000      -0.509315       -13.8592
  48   2.0000      -0.506349       -13.7785
  49   2.0000      -0.494169       -13.4470
  50   2.0000      -0.489565       -13.3217
  51   2.0000      -0.482963       -13.1421
  52   2.0000      -0.467659       -12.7256
  53   2.0000      -0.461375       -12.5547
  54   2.0000      -0.458260       -12.4699
  55   2.0000      -0.453940       -12.3523
  56   2.0000      -0.442980       -12.0541
  57   2.0000      -0.440377       -11.9833
  58   2.0000      -0.436631       -11.8813
  59   2.0000      -0.431987       -11.7550
  60   2.0000      -0.422257       -11.4902
  61   2.0000      -0.418727       -11.3941
  62   2.0000      -0.410605       -11.1731
  63   2.0000      -0.358809        -9.7637
  64   2.0000      -0.339634        -9.2419
  65   2.0000      -0.328468        -8.9381
  66   2.0000      -0.276627        -7.5274
  67   0.0000       0.005510         0.1499
  68   0.0000       0.075333         2.0499
  69   0.0000       0.079885         2.1738
  70   0.0000       0.117185         3.1888
  71   0.0000       0.132694         3.6108

MULLIKEN ATOMIC CHARGES
-----------------------
   0 S :    0.077438
   1 C :   -0.123526
   2 C :   -0.099096
   3 C :   -0.018743
   4 C :   -0.102022
   5 H :    0.016658
   6 C :    0.074986
   7 H :    0.022664
   8 H :    0.013522
   9 C :   -0.027266
  10 H :    0.034000
  11 H :    0.029073
  12 C :   -0.098519
  13 H :    0.027706
  14 H :    0.037752
  15 H :    0.046107
  16 S :    0.082351
  17 C :   -0.096976
  18 C :   -0.040620
  19 C :   -0.054304
  20 C :   -0.107344
  21 H :    0.029471
  22 C :    0.005285
  23 H :    0.016674
  24 H :    0.052104
  25 C :   -0.094233
  26 H :    0.048952
  27 H :    0.027245
  28 C :   -0.026398
  29 H :    0.035772
  30 H :    0.029224
  31 H :    0.030001
  32 H :    0.075088
  33 H :    0.076975
Sum of atomic charges:    0.0000000

LOEWDIN ATOMIC CHARGES
----------------------
   0 S :    0.401863
   1 C :   -0.205705
   2 C :   -0.063714
   3 C :   -0.075924
   4 C :   -0.192842
   5 H :    0.033003
   6 C :   -0.024090
   7 H :    0.026156
   8 H :    0.031518
   9 C :   -0.033664
  10 H :    0.025333
  11 H :    0.024140
  12 C :   -0.078448
  13 H :    0.025177
  14 H :    0.027040
  15 H :    0.034071
  16 S :    0.381609
  17 C :   -0.190886
  18 C :   -0.070648
  19 C :   -0.061700
  20 C :   -0.171983
  21 H :    0.033324
  22 C :   -0.043757
  23 H :    0.031702
  24 H :    0.035935
  25 C :   -0.045719
  26 H :    0.032133
  27 H :    0.023768
  28 C :   -0.067116
  29 H :    0.029032
  30 H :    0.024572
  31 H :    0.028066
  32 H :    0.035714
  33 H :    0.042038

  Mayer bond orders larger than 0.100000
B(  0-S ,  1-C ) :   1.1540 B(  0-S ,  4-C ) :   1.1657 B(  1-C ,  2-C ) :   1.5619
B(  1-C ,  4-C ) :   0.1054 B(  1-C , 32-H ) :   0.9545 B(  2-C ,  3-C ) :   1.3272
B(  2-C ,  6-C ) :   1.0183 B(  3-C ,  4-C ) :   1.5065 B(  3-C ,  5-H ) :   0.9743
B(  4-C , 20-C ) :   1.0955 B(  6-C ,  7-H ) :   0.9437 B(  6-C ,  8-H ) :   0.9345
B(  6-C ,  9-C ) :   1.0574 B(  9-C , 10-H ) :   0.9590 B(  9-C , 11-H ) :   0.9534
B(  9-C , 12-C ) :   1.0747 B( 12-C , 13-H ) :   0.9726 B( 12-C , 14-H ) :   0.9757
B( 12-C , 15-H ) :   0.9723 B( 16-S , 17-C ) :   1.1317 B( 16-S , 20-C ) :   1.1452
B( 17-C , 18-C ) :   1.6325 B( 17-C , 33-H ) :   0.9583 B( 18-C , 19-C ) :   1.2638
B( 18-C , 21-H ) :   0.9699 B( 19-C , 20-C ) :   1.5417 B( 19-C , 22-C ) :   1.0457
B( 22-C , 23-H ) :   0.9301 B( 22-C , 24-H ) :   0.9349 B( 22-C , 25-C ) :   1.0502
B( 25-C , 26-H ) :   0.9534 B( 25-C , 27-H ) :   0.9512 B( 25-C , 28-C ) :   1.0726
B( 28-C , 29-H ) :   0.9744 B( 28-C , 30-H ) :   0.9755 B( 28-C , 31-H ) :   0.9735

Dispersion correction           -0.013550563
FINAL SINGLE POINT ENERGY     -1339.859841926067

DIPOLE MOMENT
-------------
                                X             Y             Z
Electronic contribution:      9.29376       1.48312      29.89503
Nuclear contribution   :     -9.21656      -1.78321     -30.68054
                        -----------------------------------------
Total Dipole Moment    :      0.07720      -0.30009      -0.78551
                        -----------------------------------------
Magnitude (a.u.)       :      0.84442
Magnitude (Debye)      :      2.14634

Rotational constants in cm-1:     0.017623     0.008454     0.006109
Rotational constants in MHz :   528.315860   253.429717   183.130212

                             ****ORCA TERMINATED NORMALLY****
TOTAL RUN TIME: 0 days 0 hours 0 minutes 21 seconds 54 msec
