                         Program Version 4.2.1 -  RELEASE  -
|  1> ! wB97X-D3 SP def2-SVP
|  2> %pal
|  3> nprocs 24
|  4> end
|  5>
|  6> * xyz 0 1
|  7> S 	 -59.1484 	 5.7177 	 -23.3443
|  8> C 	 -60.7646 	 5.97322 	 -23.9884
|  9> C 	 -61.7092 	 5.07349 	 -23.5659
| 10> C 	 -61.101 	 4.13386 	 -22.6679
| 11> C 	 -59.7295 	 4.26814 	 -22.5208
| 12> H 	 -61.5961 	 3.30667 	 -22.1689
| 13> C 	 -63.2183 	 5.18678 	 -23.7561
| 14> H 	 -63.6746 	 5.31953 	 -22.7311
| 15> H 	 -63.4579 	 4.17107 	 -24.1391
| 16> C 	 -63.8966 	 6.21059 	 -24.7229
| 17> H 	 -63.902 	 7.23838 	 -24.3014
| 18> H 	 -63.4487 	 6.14225 	 -25.7269
| 19> C 	 -65.3885 	 5.81503 	 -24.8319
| 20> H 	 -65.4587 	 4.76817 	 -24.8091
| 21> H 	 -66.0106 	 6.31498 	 -24.1012
| 22> H 	 -65.7615 	 6.05982 	 -25.8523
| 23> S 	 -57.0282 	 3.53371 	 -22.3093
| 24> C 	 -56.4792 	 2.18022 	 -21.3272
| 25> C 	 -57.6102 	 1.67134 	 -20.7501
| 26> C 	 -58.9001 	 2.2839 	 -20.9835
| 27> C 	 -58.7684 	 3.38534 	 -21.8707
| 28> H 	 -57.5045 	 0.792724 	 -20.1522
| 29> C 	 -60.1727 	 1.75421 	 -20.3662
| 30> H 	 -59.9754 	 0.76948 	 -19.9705
| 31> H 	 -60.8821 	 1.65438 	 -21.1979
| 32> C 	 -60.7199 	 2.72233 	 -19.327
| 33> H 	 -60.8568 	 3.6777 	 -19.8419
| 34> H 	 -60.0397 	 2.8488 	 -18.5232
| 35> C 	 -62.1164 	 2.21339 	 -18.8088
| 36> H 	 -61.9207 	 1.23619 	 -18.4612
| 37> H 	 -62.6959 	 2.04839 	 -19.7582
| 38> H 	 -62.6538 	 2.85108 	 -18.1373
| 39> H 	 -61.027 	 6.85899 	 -24.4736
| 40> H 	 -55.4356 	 1.81251 	 -21.224
| 41> *
| 42>
| 43>                          ****END OF INPUT****

CARTESIAN COORDINATES (ANGSTROEM)
---------------------------------
  S    -59.148400    5.717700  -23.344300
  C    -60.764600    5.973220  -23.988400
  C    -61.709200    5.073490  -23.565900
  C    -61.101000    4.133860  -22.667900
  C    -59.729500    4.268140  -22.520800
  H    -61.596100    3.306670  -22.168900
  C    -63.218300    5.186780  -23.756100
  H    -63.674600    5.319530  -22.731100
  H    -63.457900    4.171070  -24.139100
  C    -63.896600    6.210590  -24.722900
  H    -63.902000    7.238380  -24.301400
  H    -63.448700    6.142250  -25.726900
  C    -65.388500    5.815030  -24.831900
  H    -65.458700    4.768170  -24.809100
  H    -66.010600    6.314980  -24.101200
  H    -65.761500    6.059820  -25.852300
  S    -57.028200    3.533710  -22.309300
  C    -56.479200    2.180220  -21.327200
  C    -57.610200    1.671340  -20.750100
  C    -58.900100    2.283900  -20.983500
  C    -58.768400    3.385340  -21.870700
  H    -57.504500    0.792724  -20.152200
  C    -60.172700    1.754210  -20.366200
  H    -59.975400    0.769480  -19.970500
  H    -60.882100    1.654380  -21.197900
  C    -60.719900    2.722330  -19.327000
  H    -60.856800    3.677700  -19.841900
  H    -60.039700    2.848800  -18.523200
  C    -62.116400    2.213390  -18.808800
  H    -61.920700    1.236190  -18.461200
  H    -62.695900    2.048390  -19.758200
  H    -62.653800    2.851080  -18.137300
  H    -61.027000    6.858990  -24.473600
  H    -55.435600    1.812510  -21.224000

 Total Charge           Charge          ....    0
 Multiplicity           Mult            ....    1
 Number of Electrons    NEL             ....  134
 Basis Dimension        Dim             ....  322

ORBITAL ENERGIES
----------------

  NO   OCC          E(Eh)            E(eV)
   0   2.0000     -88.966020     -2420.8885
   1   2.0000     -88.962312     -2420.7876
   2   2.0000     -10.336613      -281.2735
   3   2.0000     -10.335365      -281.2396
   4   2.0000     -10.322241      -280.8824
   5   2.0000     -10.308297      -280.5030
   6   2.0000     -10.308293      -280.5029
   7   2.0000     -10.305211      -280.4190
   8   2.0000     -10.304047      -280.3874
   9   2.0000     -10.298009      -280.2231
  10   2.0000     -10.298002      -280.2229
  11   2.0000     -10.294933      -280.1394
  12   2.0000     -10.292052      -280.0610
  13   2.0000     -10.284081      -279.8441
  14   2.0000     -10.278857      -279.7019
  15   2.0000     -10.278824      -279.7010
  16   2.0000      -8.080513      -219.8819
  17   2.0000      -8.076150      -219.7632
  18   2.0000      -6.039088      -164.3319
  19   2.0000      -6.035215      -164.2265
  20   2.0000      -6.034921      -164.2185
  21   2.0000      -6.031054      -164.1133
  22   2.0000      -6.030656      -164.1025
  23   2.0000      -6.026787      -163.9972
  24   2.0000      -1.002824       -27.2882
  25   2.0000      -0.979617       -26.6567
  26   2.0000      -0.914070       -24.8731
  27   2.0000      -0.910498       -24.7759
  28   2.0000      -0.871086       -23.7035
  29   2.0000      -0.852816       -23.2063
  30   2.0000      -0.842117       -22.9152
  31   2.0000      -0.814025       -22.1508
  32   2.0000      -0.779728       -21.2175
  33   2.0000      -0.770690       -20.9715
  34   2.0000      -0.712650       -19.3922
  35   2.0000      -0.705257       -19.1910
  36   2.0000      -0.693001       -18.8575
  37   2.0000      -0.663900       -18.0656
  38   2.0000      -0.637765       -17.3545
  39   2.0000      -0.615830       -16.7576
  40   2.0000      -0.594104       -16.1664
  41   2.0000      -0.580766       -15.8034
  42   2.0000      -0.572212       -15.5707
  43   2.0000      -0.563764       -15.3408
  44   2.0000      -0.532216       -14.4823
  45   2.0000      -0.518425       -14.1071
  46   2.0000      -0.517269       -14.0756
  47   2.0000      -0.514777       -14.0078
  48   2.0000      -0.511012       -13.9053
  49   2.0000      -0.501714       -13.6523
  50   2.0000      -0.491601       -13.3771
  51   2.0000      -0.481501       -13.1023
  52   2.0000      -0.475710       -12.9447
  53   2.0000      -0.459963       -12.5162
  54   2.0000      -0.457312       -12.4441
  55   2.0000      -0.445767       -12.1299
  56   2.0000      -0.442909       -12.0522
  57   2.0000      -0.442600       -12.0438
  58   2.0000      -0.430823       -11.7233
  59   2.0000      -0.429273       -11.6811
  60   2.0000      -0.426027       -11.5928
  61   2.0000      -0.422685       -11.5018
  62   2.0000      -0.406032       -11.0487
  63   2.0000      -0.362553        -9.8656
  64   2.0000      -0.332990        -9.0611
  65   2.0000      -0.325007        -8.8439
  66   2.0000      -0.281991        -7.6734
  67   0.0000       0.016189         0.4405
  68   0.0000       0.086170         2.3448
  69   0.0000       0.097373         2.6496
  70   0.0000       0.118991         3.2379
  71   0.0000       0.135337         3.6827

MULLIKEN ATOMIC CHARGES
-----------------------
   0 S :    0.101676
   1 C :   -0.098610
   2 C :   -0.047973
   3 C :   -0.017215
   4 C :   -0.111074
   5 H :   -0.006297
   6 C :   -0.010253
   7 H :    0.056358
   8 H :    0.038441
   9 C :   -0.086829
  10 H :    0.046375
  11 H :    0.043916
  12 C :   -0.032878
  13 H :    0.013061
  14 H :    0.042868
  15 H :    0.030195
  16 S :    0.072199
  17 C :   -0.096307
  18 C :   -0.029837
  19 C :   -0.063503
  20 C :   -0.114303
  21 H :    0.003402
  22 C :    0.055971
  23 H :    0.013960
  24 H :    0.031665
  25 C :   -0.075856
  26 H :    0.037211
  27 H :    0.026559
  28 C :   -0.008820
  29 H :    0.016035
  30 H :    0.016966
  31 H :    0.045727
  32 H :    0.026610
  33 H :    0.080561
Sum of atomic charges:    0.0000000

LOEWDIN ATOMIC CHARGES
----------------------
   0 S :    0.390780
   1 C :   -0.182990
   2 C :   -0.064118
   3 C :   -0.066736
   4 C :   -0.177720
   5 H :    0.026340
   6 C :   -0.039610
   7 H :    0.042776
   8 H :    0.035317
   9 C :   -0.043665
  10 H :    0.030121
  11 H :    0.028290
  12 C :   -0.059327
  13 H :    0.015284
  14 H :    0.025824
  15 H :    0.031565
  16 S :    0.375161
  17 C :   -0.190218
  18 C :   -0.076111
  19 C :   -0.055482
  20 C :   -0.178305
  21 H :    0.022684
  22 C :   -0.028908
  23 H :    0.027203
  24 H :    0.029078
  25 C :   -0.031239
  26 H :    0.025150
  27 H :    0.019123
  28 C :   -0.059172
  29 H :    0.017514
  30 H :    0.027392
  31 H :    0.023237
  32 H :    0.013536
  33 H :    0.047228

  Mayer bond orders larger than 0.100000
B(  0-S ,  1-C ) :   1.1237 B(  0-S ,  4-C ) :   1.1327 B(  1-C ,  2-C ) :   1.6467
B(  1-C , 32-H ) :   0.9651 B(  2-C ,  3-C ) :   1.2331 B(  2-C ,  6-C ) :   1.0001
B(  3-C ,  4-C ) :   1.5770 B(  3-C ,  5-H ) :   0.9864 B(  4-C , 20-C ) :   1.0975
B(  6-C ,  7-H ) :   0.9472 B(  6-C ,  8-H ) :   0.9370 B(  6-C ,  9-C ) :   1.0771
B(  9-C , 10-H ) :   0.9547 B(  9-C , 11-H ) :   0.9566 B(  9-C , 12-C ) :   1.0779
B( 12-C , 13-H ) :   0.9757 B( 12-C , 14-H ) :   0.9789 B( 12-C , 15-H ) :   0.9748
B( 16-S , 17-C ) :   1.1354 B( 16-S , 20-C ) :   1.1371 B( 17-C , 18-C ) :   1.5967
B( 17-C , 20-C ) :   0.1011 B( 17-C , 33-H ) :   0.9665 B( 18-C , 19-C ) :   1.2673
B( 18-C , 21-H ) :   0.9877 B( 19-C , 20-C ) :   1.5441 B( 19-C , 22-C ) :   1.0442
B( 22-C , 23-H ) :   0.9256 B( 22-C , 24-H ) :   0.9300 B( 22-C , 25-C ) :   1.0644
B( 25-C , 26-H ) :   0.9567 B( 25-C , 27-H ) :   0.9551 B( 25-C , 28-C ) :   1.0698
B( 28-C , 29-H ) :   0.9735 B( 28-C , 30-H ) :   0.9739 B( 28-C , 31-H ) :   0.9762

Dispersion correction           -0.013705119
FINAL SINGLE POINT ENERGY     -1339.877457339594

DIPOLE MOMENT
-------------
                                X             Y             Z
Electronic contribution:     30.72569       3.51754      -4.97213
Nuclear contribution   :    -31.41089      -3.80138       5.18560
                        -----------------------------------------
Total Dipole Moment    :     -0.68521      -0.28384       0.21347
                        -----------------------------------------
Magnitude (a.u.)       :      0.77178
Magnitude (Debye)      :      1.96170

Rotational constants in cm-1:     0.019742     0.007992     0.005973
Rotational constants in MHz :   591.844772   239.587856   179.060852

                             ****ORCA TERMINATED NORMALLY****
TOTAL RUN TIME: 0 days 0 hours 0 minutes 21 seconds 331 msec
