                         Program Version 4.2.1 -  RELEASE  -
|  1> ! wB97X-D3 SP def2-SVP
|  2> %pal
|  3> nprocs 24
|  4> end
|  5>
|  6> * xyz 0 1
|  7> S 	 -54.2528 	 9.59488 	 -105.454
|  8> C 	 -52.8507 	 10.3398 	 -104.709
|  9> C 	 -52.879 	 10.1742 	 -103.332
| 10> C 	 -53.8486 	 9.2378 	 -102.942
| 11> C 	 -54.8213 	 9.02715 	 -103.878
| 12> H 	 -53.9506 	 8.86194 	 -101.956
| 13> C 	 -51.8958 	 10.7794 	 -102.385
| 14> H 	 -52.4101 	 11.3153 	 -101.567
| 15> H 	 -51.5838 	 11.6711 	 -102.9
| 16> C 	 -50.6374 	 9.89072 	 -102.132
| 17> H 	 -50.3826 	 9.38763 	 -103.133
| 18> H 	 -49.7756 	 10.5206 	 -101.941
| 19> C 	 -50.7941 	 8.94966 	 -100.975
| 20> H 	 -51.5262 	 8.25603 	 -101.394
| 21> H 	 -49.8911 	 8.44207 	 -100.823
| 22> H 	 -51.1981 	 9.44281 	 -100.075
| 23> S 	 -57.4873 	 9.22896 	 -103.588
| 24> C 	 -58.4584 	 7.81811 	 -103.607
| 25> C 	 -57.714 	 6.6547 	 -103.767
| 26> C 	 -56.3047 	 6.93313 	 -103.729
| 27> C 	 -56.0652 	 8.28534 	 -103.665
| 28> H 	 -58.0521 	 5.63964 	 -103.794
| 29> C 	 -55.2812 	 5.82983 	 -103.916
| 30> H 	 -54.4833 	 6.28015 	 -104.469
| 31> H 	 -55.7843 	 5.0926 	 -104.579
| 32> C 	 -54.7675 	 5.4559 	 -102.499
| 33> H 	 -55.5884 	 5.20239 	 -101.91
| 34> H 	 -54.321 	 6.29464 	 -102.038
| 35> C 	 -53.7115 	 4.26519 	 -102.493
| 36> H 	 -53.3795 	 4.08945 	 -101.438
| 37> H 	 -52.9105 	 4.37816 	 -103.218
| 38> H 	 -54.2431 	 3.40575 	 -102.764
| 39> H 	 -52.15 	 10.8279 	 -105.302
| 40> H 	 -59.5131 	 7.84459 	 -103.532
| 41> *
| 42>
| 43>                          ****END OF INPUT****

CARTESIAN COORDINATES (ANGSTROEM)
---------------------------------
  S    -54.252800    9.594880  -105.454000
  C    -52.850700   10.339800  -104.709000
  C    -52.879000   10.174200  -103.332000
  C    -53.848600    9.237800  -102.942000
  C    -54.821300    9.027150  -103.878000
  H    -53.950600    8.861940  -101.956000
  C    -51.895800   10.779400  -102.385000
  H    -52.410100   11.315300  -101.567000
  H    -51.583800   11.671100  -102.900000
  C    -50.637400    9.890720  -102.132000
  H    -50.382600    9.387630  -103.133000
  H    -49.775600   10.520600  -101.941000
  C    -50.794100    8.949660  -100.975000
  H    -51.526200    8.256030  -101.394000
  H    -49.891100    8.442070  -100.823000
  H    -51.198100    9.442810  -100.075000
  S    -57.487300    9.228960  -103.588000
  C    -58.458400    7.818110  -103.607000
  C    -57.714000    6.654700  -103.767000
  C    -56.304700    6.933130  -103.729000
  C    -56.065200    8.285340  -103.665000
  H    -58.052100    5.639640  -103.794000
  C    -55.281200    5.829830  -103.916000
  H    -54.483300    6.280150  -104.469000
  H    -55.784300    5.092600  -104.579000
  C    -54.767500    5.455900  -102.499000
  H    -55.588400    5.202390  -101.910000
  H    -54.321000    6.294640  -102.038000
  C    -53.711500    4.265190  -102.493000
  H    -53.379500    4.089450  -101.438000
  H    -52.910500    4.378160  -103.218000
  H    -54.243100    3.405750  -102.764000
  H    -52.150000   10.827900  -105.302000
  H    -59.513100    7.844590  -103.532000

 Total Charge           Charge          ....    0
 Multiplicity           Mult            ....    1
 Number of Electrons    NEL             ....  134
 Basis Dimension        Dim             ....  322

ORBITAL ENERGIES
----------------

  NO   OCC          E(Eh)            E(eV)
   0   2.0000     -88.964144     -2420.8374
   1   2.0000     -88.963058     -2420.8079
   2   2.0000     -10.324101      -280.9331
   3   2.0000     -10.314725      -280.6779
   4   2.0000     -10.312561      -280.6191
   5   2.0000     -10.309694      -280.5410
   6   2.0000     -10.295990      -280.1681
   7   2.0000     -10.295782      -280.1625
   8   2.0000     -10.291146      -280.0363
   9   2.0000     -10.290960      -280.0313
  10   2.0000     -10.289772      -279.9989
  11   2.0000     -10.288375      -279.9609
  12   2.0000     -10.284950      -279.8677
  13   2.0000     -10.281781      -279.7815
  14   2.0000     -10.276022      -279.6248
  15   2.0000     -10.273083      -279.5448
  16   2.0000      -8.080357      -219.8777
  17   2.0000      -8.077495      -219.7998
  18   2.0000      -6.038683      -164.3209
  19   2.0000      -6.035904      -164.2453
  20   2.0000      -6.034626      -164.2105
  21   2.0000      -6.032082      -164.1413
  22   2.0000      -6.031262      -164.1190
  23   2.0000      -6.028342      -164.0395
  24   2.0000      -1.010313       -27.4920
  25   2.0000      -0.987852       -26.8808
  26   2.0000      -0.911981       -24.8163
  27   2.0000      -0.907096       -24.6833
  28   2.0000      -0.868178       -23.6243
  29   2.0000      -0.850272       -23.1371
  30   2.0000      -0.848035       -23.0762
  31   2.0000      -0.817023       -22.2323
  32   2.0000      -0.782803       -21.3012
  33   2.0000      -0.768540       -20.9130
  34   2.0000      -0.708110       -19.2687
  35   2.0000      -0.697661       -18.9843
  36   2.0000      -0.693860       -18.8809
  37   2.0000      -0.668388       -18.1878
  38   2.0000      -0.648667       -17.6511
  39   2.0000      -0.619574       -16.8595
  40   2.0000      -0.595126       -16.1942
  41   2.0000      -0.570741       -15.5306
  42   2.0000      -0.561926       -15.2908
  43   2.0000      -0.554784       -15.0964
  44   2.0000      -0.536752       -14.6058
  45   2.0000      -0.523123       -14.2349
  46   2.0000      -0.520525       -14.1642
  47   2.0000      -0.512583       -13.9481
  48   2.0000      -0.506418       -13.7803
  49   2.0000      -0.497333       -13.5331
  50   2.0000      -0.489046       -13.3076
  51   2.0000      -0.483139       -13.1469
  52   2.0000      -0.471671       -12.8348
  53   2.0000      -0.463025       -12.5996
  54   2.0000      -0.462219       -12.5776
  55   2.0000      -0.446990       -12.1632
  56   2.0000      -0.443723       -12.0743
  57   2.0000      -0.439266       -11.9530
  58   2.0000      -0.438419       -11.9300
  59   2.0000      -0.428304       -11.6547
  60   2.0000      -0.418946       -11.4001
  61   2.0000      -0.414043       -11.2667
  62   2.0000      -0.406281       -11.0555
  63   2.0000      -0.335442        -9.1278
  64   2.0000      -0.328399        -8.9362
  65   2.0000      -0.321901        -8.7594
  66   2.0000      -0.303162        -8.2495
  67   0.0000       0.047806         1.3009
  68   0.0000       0.056007         1.5240
  69   0.0000       0.113606         3.0914
  70   0.0000       0.127734         3.4758
  71   0.0000       0.130498         3.5510

MULLIKEN ATOMIC CHARGES
-----------------------
   0 S :    0.111028
   1 C :   -0.106668
   2 C :   -0.097307
   3 C :    0.047100
   4 C :   -0.158910
   5 H :    0.004911
   6 C :    0.070905
   7 H :    0.034200
   8 H :    0.001626
   9 C :   -0.089469
  10 H :    0.040220
  11 H :    0.021434
  12 C :   -0.002928
  13 H :    0.024253
  14 H :    0.027755
  15 H :    0.040427
  16 S :    0.131293
  17 C :   -0.075406
  18 C :   -0.015745
  19 C :   -0.081517
  20 C :   -0.206197
  21 H :    0.007726
  22 C :    0.108189
  23 H :    0.018874
  24 H :    0.032843
  25 C :   -0.060336
  26 H :    0.012954
  27 H :    0.019643
  28 C :   -0.017869
  29 H :    0.038846
  30 H :    0.035470
  31 H :    0.012456
  32 H :    0.027013
  33 H :    0.043187
Sum of atomic charges:   -0.0000000

LOEWDIN ATOMIC CHARGES
----------------------
   0 S :    0.393409
   1 C :   -0.181670
   2 C :   -0.063602
   3 C :   -0.058753
   4 C :   -0.192104
   5 H :    0.024487
   6 C :   -0.042512
   7 H :    0.036643
   8 H :    0.030673
   9 C :   -0.038668
  10 H :    0.035018
  11 H :    0.016622
  12 C :   -0.061816
  13 H :    0.027834
  14 H :    0.019649
  15 H :    0.030227
  16 S :    0.446683
  17 C :   -0.188561
  18 C :   -0.069635
  19 C :   -0.050504
  20 C :   -0.227545
  21 H :    0.026816
  22 C :   -0.026063
  23 H :    0.026498
  24 H :    0.034667
  25 C :   -0.023037
  26 H :    0.015551
  27 H :    0.018918
  28 C :   -0.062427
  29 H :    0.031748
  30 H :    0.024666
  31 H :    0.014968
  32 H :    0.012386
  33 H :    0.019434

  Mayer bond orders larger than 0.100000
B(  0-S ,  1-C ) :   1.1445 B(  0-S ,  4-C ) :   1.1401 B(  1-C ,  2-C ) :   1.5892
B(  1-C ,  4-C ) :   0.1049 B(  1-C , 32-H ) :   0.9798 B(  2-C ,  3-C ) :   1.2431
B(  2-C ,  6-C ) :   1.0377 B(  3-C ,  4-C ) :   1.5981 B(  3-C ,  5-H ) :   0.9874
B(  4-C , 20-C ) :   1.0060 B(  6-C ,  7-H ) :   0.9390 B(  6-C ,  8-H ) :   0.9249
B(  6-C ,  9-C ) :   1.0475 B(  9-C , 10-H ) :   0.9543 B(  9-C , 11-H ) :   0.9570
B(  9-C , 12-C ) :   1.0798 B( 12-C , 13-H ) :   0.9719 B( 12-C , 14-H ) :   0.9701
B( 12-C , 15-H ) :   0.9748 B( 16-S , 17-C ) :   1.1782 B( 16-S , 20-C ) :   1.1644
B( 17-C , 18-C ) :   1.5681 B( 17-C , 33-H ) :   0.9747 B( 18-C , 19-C ) :   1.2717
B( 18-C , 21-H ) :   0.9899 B( 19-C , 20-C ) :   1.6021 B( 19-C , 22-C ) :   1.0320
B( 22-C , 23-H ) :   0.9186 B( 22-C , 24-H ) :   0.9449 B( 22-C , 25-C ) :   1.0524
B( 25-C , 26-H ) :   0.9591 B( 25-C , 27-H ) :   0.9558 B( 25-C , 28-C ) :   1.0765
B( 28-C , 29-H ) :   0.9756 B( 28-C , 30-H ) :   0.9764 B( 28-C , 31-H ) :   0.9761

Dispersion correction           -0.015032961
FINAL SINGLE POINT ENERGY     -1339.865795850813

DIPOLE MOMENT
-------------
                                X             Y             Z
Electronic contribution:    -20.53457      13.39604     -14.22758
Nuclear contribution   :     20.86910     -13.62467      14.51851
                        -----------------------------------------
Total Dipole Moment    :      0.33453      -0.22863       0.29093
                        -----------------------------------------
Magnitude (a.u.)       :      0.49882
Magnitude (Debye)      :      1.26790

Rotational constants in cm-1:     0.017407     0.009645     0.007349
Rotational constants in MHz :   521.858172   289.135640   220.330260

                             ****ORCA TERMINATED NORMALLY****
TOTAL RUN TIME: 0 days 0 hours 0 minutes 22 seconds 134 msec
