                         Program Version 4.2.1 -  RELEASE  -
|  1> ! wB97X-D3 SP def2-SVP
|  2> %pal
|  3> nprocs 24
|  4> end
|  5>
|  6> * xyz 0 1
|  7> S 	 -108.337 	 50.5009 	 -69.9806
|  8> C 	 -108.839 	 49.7664 	 -71.4374
|  9> C 	 -107.792 	 49.8131 	 -72.3775
| 10> C 	 -106.563 	 50.29 	 -71.8268
| 11> C 	 -106.675 	 50.6568 	 -70.5457
| 12> H 	 -105.644 	 50.3384 	 -72.3944
| 13> C 	 -107.891 	 49.2267 	 -73.8023
| 14> H 	 -108.42 	 48.3197 	 -73.7708
| 15> H 	 -106.875 	 49.0146 	 -74.0324
| 16> C 	 -108.427 	 50.0315 	 -75.0063
| 17> H 	 -109.35 	 50.5131 	 -74.7666
| 18> H 	 -107.768 	 50.8958 	 -75.3523
| 19> C 	 -108.764 	 49.1679 	 -76.2144
| 20> H 	 -109.372 	 48.3615 	 -75.8309
| 21> H 	 -109.239 	 49.7963 	 -76.949
| 22> H 	 -107.953 	 48.7151 	 -76.7292
| 23> S 	 -105.495 	 50.1104 	 -68.0749
| 24> C 	 -104.012 	 51.02 	 -67.6171
| 25> C 	 -103.742 	 52.0449 	 -68.4908
| 26> C 	 -104.694 	 52.071 	 -69.5864
| 27> C 	 -105.628 	 51.035 	 -69.5638
| 28> H 	 -102.892 	 52.6427 	 -68.2108
| 29> C 	 -104.551 	 53.1097 	 -70.7019
| 30> H 	 -105.047 	 53.9539 	 -70.2886
| 31> H 	 -105.211 	 52.7891 	 -71.511
| 32> C 	 -103.109 	 53.3703 	 -71.1678
| 33> H 	 -102.691 	 52.4334 	 -71.4484
| 34> H 	 -102.538 	 53.5859 	 -70.2395
| 35> C 	 -102.866 	 54.3759 	 -72.2059
| 36> H 	 -103.217 	 53.9824 	 -73.1392
| 37> H 	 -101.764 	 54.5718 	 -72.4953
| 38> H 	 -103.254 	 55.343 	 -71.939
| 39> H 	 -109.834 	 49.356 	 -71.5273
| 40> H 	 -103.386 	 50.6009 	 -66.9078
| 41> *
| 42>
| 43>                          ****END OF INPUT****

CARTESIAN COORDINATES (ANGSTROEM)
---------------------------------
  S    -108.337000   50.500900  -69.980600
  C    -108.839000   49.766400  -71.437400
  C    -107.792000   49.813100  -72.377500
  C    -106.563000   50.290000  -71.826800
  C    -106.675000   50.656800  -70.545700
  H    -105.644000   50.338400  -72.394400
  C    -107.891000   49.226700  -73.802300
  H    -108.420000   48.319700  -73.770800
  H    -106.875000   49.014600  -74.032400
  C    -108.427000   50.031500  -75.006300
  H    -109.350000   50.513100  -74.766600
  H    -107.768000   50.895800  -75.352300
  C    -108.764000   49.167900  -76.214400
  H    -109.372000   48.361500  -75.830900
  H    -109.239000   49.796300  -76.949000
  H    -107.953000   48.715100  -76.729200
  S    -105.495000   50.110400  -68.074900
  C    -104.012000   51.020000  -67.617100
  C    -103.742000   52.044900  -68.490800
  C    -104.694000   52.071000  -69.586400
  C    -105.628000   51.035000  -69.563800
  H    -102.892000   52.642700  -68.210800
  C    -104.551000   53.109700  -70.701900
  H    -105.047000   53.953900  -70.288600
  H    -105.211000   52.789100  -71.511000
  C    -103.109000   53.370300  -71.167800
  H    -102.691000   52.433400  -71.448400
  H    -102.538000   53.585900  -70.239500
  C    -102.866000   54.375900  -72.205900
  H    -103.217000   53.982400  -73.139200
  H    -101.764000   54.571800  -72.495300
  H    -103.254000   55.343000  -71.939000
  H    -109.834000   49.356000  -71.527300
  H    -103.386000   50.600900  -66.907800

 Total Charge           Charge          ....    0
 Multiplicity           Mult            ....    1
 Number of Electrons    NEL             ....  134
 Basis Dimension        Dim             ....  322

ORBITAL ENERGIES
----------------

  NO   OCC          E(Eh)            E(eV)
   0   2.0000     -88.962656     -2420.7969
   1   2.0000     -88.961491     -2420.7652
   2   2.0000     -10.329335      -281.0755
   3   2.0000     -10.327753      -281.0325
   4   2.0000     -10.316020      -280.7132
   5   2.0000     -10.313931      -280.6563
   6   2.0000     -10.309197      -280.5275
   7   2.0000     -10.304306      -280.3944
   8   2.0000     -10.298204      -280.2284
   9   2.0000     -10.292182      -280.0645
  10   2.0000     -10.287659      -279.9414
  11   2.0000     -10.286684      -279.9149
  12   2.0000     -10.286045      -279.8975
  13   2.0000     -10.282550      -279.8024
  14   2.0000     -10.279150      -279.7099
  15   2.0000     -10.272373      -279.5255
  16   2.0000      -8.078324      -219.8224
  17   2.0000      -8.075773      -219.7529
  18   2.0000      -6.036715      -164.2674
  19   2.0000      -6.034321      -164.2022
  20   2.0000      -6.032660      -164.1570
  21   2.0000      -6.030384      -164.0951
  22   2.0000      -6.029195      -164.0628
  23   2.0000      -6.026474      -163.9887
  24   2.0000      -1.006601       -27.3910
  25   2.0000      -0.981485       -26.7076
  26   2.0000      -0.912090       -24.8192
  27   2.0000      -0.908298       -24.7160
  28   2.0000      -0.870088       -23.6763
  29   2.0000      -0.856055       -23.2944
  30   2.0000      -0.849475       -23.1154
  31   2.0000      -0.822213       -22.3736
  32   2.0000      -0.782116       -21.2825
  33   2.0000      -0.769294       -20.9336
  34   2.0000      -0.705191       -19.1892
  35   2.0000      -0.699700       -19.0398
  36   2.0000      -0.696734       -18.9591
  37   2.0000      -0.659228       -17.9385
  38   2.0000      -0.648496       -17.6465
  39   2.0000      -0.625859       -17.0305
  40   2.0000      -0.595080       -16.1930
  41   2.0000      -0.571604       -15.5541
  42   2.0000      -0.567267       -15.4361
  43   2.0000      -0.563934       -15.3454
  44   2.0000      -0.530393       -14.4327
  45   2.0000      -0.528389       -14.3782
  46   2.0000      -0.520767       -14.1708
  47   2.0000      -0.514100       -13.9894
  48   2.0000      -0.508424       -13.8349
  49   2.0000      -0.499008       -13.5787
  50   2.0000      -0.495279       -13.4772
  51   2.0000      -0.483544       -13.1579
  52   2.0000      -0.472235       -12.8502
  53   2.0000      -0.463726       -12.6186
  54   2.0000      -0.462486       -12.5849
  55   2.0000      -0.450675       -12.2635
  56   2.0000      -0.446412       -12.1475
  57   2.0000      -0.437466       -11.9041
  58   2.0000      -0.428260       -11.6536
  59   2.0000      -0.421430       -11.4677
  60   2.0000      -0.419316       -11.4102
  61   2.0000      -0.411936       -11.2094
  62   2.0000      -0.408686       -11.1209
  63   2.0000      -0.350289        -9.5318
  64   2.0000      -0.331053        -9.0084
  65   2.0000      -0.325205        -8.8493
  66   2.0000      -0.294399        -8.0110
  67   0.0000       0.034434         0.9370
  68   0.0000       0.064672         1.7598
  69   0.0000       0.114341         3.1114
  70   0.0000       0.124226         3.3803
  71   0.0000       0.129371         3.5204

MULLIKEN ATOMIC CHARGES
-----------------------
   0 S :    0.108857
   1 C :   -0.129418
   2 C :   -0.097805
   3 C :    0.048625
   4 C :   -0.159774
   5 H :    0.015849
   6 C :    0.100470
   7 H :    0.009885
   8 H :    0.004944
   9 C :   -0.074895
  10 H :    0.017101
  11 H :    0.031336
  12 C :   -0.035207
  13 H :    0.024251
  14 H :    0.033245
  15 H :    0.021291
  16 S :    0.087621
  17 C :   -0.084158
  18 C :   -0.034708
  19 C :   -0.053921
  20 C :   -0.147374
  21 H :    0.031715
  22 C :    0.122201
  23 H :    0.024905
  24 H :    0.011334
  25 C :   -0.081188
  26 H :    0.015792
  27 H :    0.022895
  28 C :   -0.020796
  29 H :    0.022370
  30 H :    0.036304
  31 H :    0.030715
  32 H :    0.055218
  33 H :    0.042319
Sum of atomic charges:   -0.0000000

LOEWDIN ATOMIC CHARGES
----------------------
   0 S :    0.415300
   1 C :   -0.206347
   2 C :   -0.060600
   3 C :   -0.063442
   4 C :   -0.186404
   5 H :    0.035510
   6 C :   -0.028126
   7 H :    0.024240
   8 H :    0.026169
   9 C :   -0.042001
  10 H :    0.017923
  11 H :    0.027764
  12 C :   -0.059366
  13 H :    0.023126
  14 H :    0.028124
  15 H :    0.017614
  16 S :    0.375133
  17 C :   -0.149655
  18 C :   -0.069922
  19 C :   -0.048107
  20 C :   -0.201678
  21 H :    0.036140
  22 C :   -0.027232
  23 H :    0.030276
  24 H :    0.027394
  25 C :   -0.047945
  26 H :    0.021692
  27 H :    0.023920
  28 C :   -0.065903
  29 H :    0.023201
  30 H :    0.038545
  31 H :    0.023289
  32 H :    0.028161
  33 H :    0.013206

  Mayer bond orders larger than 0.100000
B(  0-S ,  1-C ) :   1.1553 B(  0-S ,  4-C ) :   1.1586 B(  1-C ,  2-C ) :   1.5759
B(  1-C , 32-H ) :   0.9780 B(  2-C ,  3-C ) :   1.2553 B(  2-C ,  6-C ) :   1.0200
B(  3-C ,  4-C ) :   1.5938 B(  3-C ,  5-H ) :   0.9939 B(  4-C , 20-C ) :   1.0041
B(  6-C ,  7-H ) :   0.9436 B(  6-C ,  8-H ) :   0.9363 B(  6-C ,  9-C ) :   1.0624
B(  9-C , 10-H ) :   0.9562 B(  9-C , 11-H ) :   0.9542 B(  9-C , 12-C ) :   1.0820
B( 12-C , 13-H ) :   0.9740 B( 12-C , 14-H ) :   0.9729 B( 12-C , 15-H ) :   0.9772
B( 16-S , 17-C ) :   1.1436 B( 16-S , 20-C ) :   1.1332 B( 17-C , 18-C ) :   1.6389
B( 17-C , 33-H ) :   0.9737 B( 18-C , 19-C ) :   1.1907 B( 18-C , 21-H ) :   0.9918
B( 19-C , 20-C ) :   1.6208 B( 19-C , 22-C ) :   1.0368 B( 22-C , 23-H ) :   0.9206
B( 22-C , 24-H ) :   0.9316 B( 22-C , 25-C ) :   1.0547 B( 25-C , 26-H ) :   0.9545
B( 25-C , 27-H ) :   0.9461 B( 25-C , 28-C ) :   1.1019 B( 28-C , 29-H ) :   0.9696
B( 28-C , 30-H ) :   0.9689 B( 28-C , 31-H ) :   0.9721

Dispersion correction           -0.013147909
FINAL SINGLE POINT ENERGY     -1339.868995554777

DIPOLE MOMENT
-------------
                                X             Y             Z
Electronic contribution:     -6.36291      -7.59836      28.49879
Nuclear contribution   :      6.72510       7.71363     -29.03667
                        -----------------------------------------
Total Dipole Moment    :      0.36219       0.11528      -0.53788
                        -----------------------------------------
Magnitude (a.u.)       :      0.65862
Magnitude (Debye)      :      1.67409

Rotational constants in cm-1:     0.017665     0.007861     0.005841
Rotational constants in MHz :   529.571009   235.679639   175.100160

                             ****ORCA TERMINATED NORMALLY****
TOTAL RUN TIME: 0 days 0 hours 0 minutes 20 seconds 686 msec
