                         Program Version 4.2.1 -  RELEASE  -
|  1> ! wB97X-D3 SP def2-SVP
|  2> %pal
|  3> nprocs 24
|  4> end
|  5>
|  6> * xyz 0 1
|  7> S 	 -133.461 	 69.5556 	 -65.8279
|  8> C 	 -133.588 	 68.9438 	 -67.4972
|  9> C 	 -134.73 	 68.1458 	 -67.5762
| 10> C 	 -135.406 	 67.91 	 -66.3642
| 11> C 	 -134.852 	 68.6263 	 -65.3042
| 12> H 	 -136.221 	 67.2779 	 -66.1129
| 13> C 	 -134.952 	 67.2847 	 -68.7943
| 14> H 	 -134.514 	 67.7413 	 -69.6215
| 15> H 	 -136.007 	 67.3534 	 -69.0232
| 16> C 	 -134.693 	 65.8529 	 -68.6021
| 17> H 	 -135.299 	 65.4758 	 -67.7541
| 18> H 	 -134.944 	 65.4238 	 -69.5783
| 19> C 	 -133.201 	 65.6268 	 -68.3306
| 20> H 	 -133.048 	 64.5119 	 -68.4437
| 21> H 	 -132.687 	 66.0438 	 -69.2252
| 22> H 	 -132.747 	 66.0021 	 -67.4207
| 23> S 	 -135.421 	 67.2771 	 -63.0293
| 24> C 	 -136.003 	 68.1126 	 -61.6934
| 25> C 	 -136.177 	 69.4263 	 -61.9301
| 26> C 	 -135.861 	 69.8462 	 -63.2419
| 27> C 	 -135.432 	 68.746 	 -63.9699
| 28> H 	 -136.613 	 70.0868 	 -61.1912
| 29> C 	 -135.949 	 71.3278 	 -63.724
| 30> H 	 -135.074 	 71.3682 	 -64.3738
| 31> H 	 -135.689 	 72.0466 	 -62.8609
| 32> C 	 -137.165 	 71.7352 	 -64.5266
| 33> H 	 -137.972 	 71.6527 	 -63.8522
| 34> H 	 -137.514 	 70.8929 	 -65.2317
| 35> C 	 -136.956 	 72.9608 	 -65.5196
| 36> H 	 -136.238 	 72.639 	 -66.295
| 37> H 	 -136.504 	 73.7781 	 -64.9053
| 38> H 	 -137.855 	 73.2927 	 -65.9635
| 39> H 	 -132.798 	 69.0239 	 -68.2126
| 40> H 	 -136.418 	 67.4814 	 -60.8433
| 41> *
| 42>
| 43>                          ****END OF INPUT****

CARTESIAN COORDINATES (ANGSTROEM)
---------------------------------
  S    -133.461000   69.555600  -65.827900
  C    -133.588000   68.943800  -67.497200
  C    -134.730000   68.145800  -67.576200
  C    -135.406000   67.910000  -66.364200
  C    -134.852000   68.626300  -65.304200
  H    -136.221000   67.277900  -66.112900
  C    -134.952000   67.284700  -68.794300
  H    -134.514000   67.741300  -69.621500
  H    -136.007000   67.353400  -69.023200
  C    -134.693000   65.852900  -68.602100
  H    -135.299000   65.475800  -67.754100
  H    -134.944000   65.423800  -69.578300
  C    -133.201000   65.626800  -68.330600
  H    -133.048000   64.511900  -68.443700
  H    -132.687000   66.043800  -69.225200
  H    -132.747000   66.002100  -67.420700
  S    -135.421000   67.277100  -63.029300
  C    -136.003000   68.112600  -61.693400
  C    -136.177000   69.426300  -61.930100
  C    -135.861000   69.846200  -63.241900
  C    -135.432000   68.746000  -63.969900
  H    -136.613000   70.086800  -61.191200
  C    -135.949000   71.327800  -63.724000
  H    -135.074000   71.368200  -64.373800
  H    -135.689000   72.046600  -62.860900
  C    -137.165000   71.735200  -64.526600
  H    -137.972000   71.652700  -63.852200
  H    -137.514000   70.892900  -65.231700
  C    -136.956000   72.960800  -65.519600
  H    -136.238000   72.639000  -66.295000
  H    -136.504000   73.778100  -64.905300
  H    -137.855000   73.292700  -65.963500
  H    -132.798000   69.023900  -68.212600
  H    -136.418000   67.481400  -60.843300

 Total Charge           Charge          ....    0
 Multiplicity           Mult            ....    1
 Number of Electrons    NEL             ....  134
 Basis Dimension        Dim             ....  322

ORBITAL ENERGIES
----------------

  NO   OCC          E(Eh)            E(eV)
   0   2.0000     -88.966644     -2420.9055
   1   2.0000     -88.964388     -2420.8441
   2   2.0000     -10.329557      -281.0815
   3   2.0000     -10.323580      -280.9189
   4   2.0000     -10.316235      -280.7190
   5   2.0000     -10.311650      -280.5943
   6   2.0000     -10.304723      -280.4058
   7   2.0000     -10.300038      -280.2783
   8   2.0000     -10.297915      -280.2205
   9   2.0000     -10.292161      -280.0639
  10   2.0000     -10.287201      -279.9290
  11   2.0000     -10.286973      -279.9228
  12   2.0000     -10.284865      -279.8654
  13   2.0000     -10.283569      -279.8301
  14   2.0000     -10.277813      -279.6735
  15   2.0000     -10.275340      -279.6062
  16   2.0000      -8.080952      -219.8939
  17   2.0000      -8.080299      -219.8761
  18   2.0000      -6.039190      -164.3347
  19   2.0000      -6.038773      -164.3234
  20   2.0000      -6.035239      -164.2272
  21   2.0000      -6.034796      -164.2151
  22   2.0000      -6.031849      -164.1350
  23   2.0000      -6.031326      -164.1207
  24   2.0000      -1.013308       -27.5735
  25   2.0000      -0.988014       -26.8852
  26   2.0000      -0.922950       -25.1147
  27   2.0000      -0.902461       -24.5572
  28   2.0000      -0.868591       -23.6356
  29   2.0000      -0.851000       -23.1569
  30   2.0000      -0.843607       -22.9557
  31   2.0000      -0.811832       -22.0911
  32   2.0000      -0.783898       -21.3309
  33   2.0000      -0.773828       -21.0569
  34   2.0000      -0.707886       -19.2626
  35   2.0000      -0.696570       -18.9546
  36   2.0000      -0.686246       -18.6737
  37   2.0000      -0.662641       -18.0314
  38   2.0000      -0.641670       -17.4607
  39   2.0000      -0.622191       -16.9307
  40   2.0000      -0.600502       -16.3405
  41   2.0000      -0.570164       -15.5150
  42   2.0000      -0.550814       -14.9884
  43   2.0000      -0.548722       -14.9315
  44   2.0000      -0.543740       -14.7959
  45   2.0000      -0.528712       -14.3870
  46   2.0000      -0.525576       -14.3017
  47   2.0000      -0.504076       -13.7166
  48   2.0000      -0.502949       -13.6859
  49   2.0000      -0.498137       -13.5550
  50   2.0000      -0.488917       -13.3041
  51   2.0000      -0.480808       -13.0834
  52   2.0000      -0.475636       -12.9427
  53   2.0000      -0.465283       -12.6610
  54   2.0000      -0.456234       -12.4148
  55   2.0000      -0.448721       -12.2103
  56   2.0000      -0.446130       -12.1398
  57   2.0000      -0.439641       -11.9632
  58   2.0000      -0.430921       -11.7259
  59   2.0000      -0.422116       -11.4864
  60   2.0000      -0.417161       -11.3515
  61   2.0000      -0.407305       -11.0833
  62   2.0000      -0.398565       -10.8455
  63   2.0000      -0.340231        -9.2582
  64   2.0000      -0.335536        -9.1304
  65   2.0000      -0.330505        -8.9935
  66   2.0000      -0.297141        -8.0856
  67   0.0000       0.033484         0.9112
  68   0.0000       0.067797         1.8448
  69   0.0000       0.113514         3.0889
  70   0.0000       0.119730         3.2580
  71   0.0000       0.129351         3.5198

MULLIKEN ATOMIC CHARGES
-----------------------
   0 S :    0.103395
   1 C :   -0.126951
   2 C :   -0.070497
   3 C :    0.028580
   4 C :   -0.141734
   5 H :    0.004299
   6 C :    0.091449
   7 H :   -0.004246
   8 H :    0.011858
   9 C :   -0.052812
  10 H :    0.040616
  11 H :    0.032106
  12 C :   -0.075172
  13 H :    0.035185
  14 H :    0.017846
  15 H :    0.060002
  16 S :    0.118821
  17 C :   -0.108098
  18 C :   -0.043657
  19 C :   -0.030754
  20 C :   -0.209530
  21 H :    0.012948
  22 C :    0.070226
  23 H :    0.005880
  24 H :    0.043693
  25 C :   -0.075950
  26 H :    0.009903
  27 H :    0.033599
  28 C :   -0.039890
  29 H :    0.052790
  30 H :    0.037734
  31 H :    0.035488
  32 H :    0.050009
  33 H :    0.082862
Sum of atomic charges:    0.0000000

LOEWDIN ATOMIC CHARGES
----------------------
   0 S :    0.398756
   1 C :   -0.189215
   2 C :   -0.057085
   3 C :   -0.063273
   4 C :   -0.189496
   5 H :    0.027920
   6 C :   -0.035335
   7 H :    0.017748
   8 H :    0.029930
   9 C :   -0.038997
  10 H :    0.028017
  11 H :    0.031126
  12 C :   -0.071042
  13 H :    0.030412
  14 H :    0.024632
  15 H :    0.026763
  16 S :    0.439924
  17 C :   -0.218193
  18 C :   -0.078254
  19 C :   -0.052844
  20 C :   -0.204015
  21 H :    0.030953
  22 C :   -0.037531
  23 H :    0.018864
  24 H :    0.039631
  25 C :   -0.052550
  26 H :    0.014200
  27 H :    0.034975
  28 C :   -0.057083
  29 H :    0.034717
  30 H :    0.027797
  31 H :    0.020746
  32 H :    0.025507
  33 H :    0.042294

  Mayer bond orders larger than 0.100000
B(  0-S ,  1-C ) :   1.1309 B(  0-S ,  4-C ) :   1.1627 B(  1-C ,  2-C ) :   1.5782
B(  1-C ,  4-C ) :   0.1029 B(  1-C , 32-H ) :   0.9776 B(  2-C ,  3-C ) :   1.2330
B(  2-C ,  6-C ) :   1.0380 B(  3-C ,  4-C ) :   1.5583 B(  3-C ,  5-H ) :   1.0013
B(  4-C , 20-C ) :   1.0054 B(  6-C ,  7-H ) :   0.9377 B(  6-C ,  8-H ) :   0.9217
B(  6-C ,  9-C ) :   1.0887 B(  9-C , 10-H ) :   0.9474 B(  9-C , 11-H ) :   0.9485
B(  9-C , 12-C ) :   1.0758 B( 12-C , 13-H ) :   0.9745 B( 12-C , 14-H ) :   0.9724
B( 12-C , 15-H ) :   0.9753 B( 16-S , 17-C ) :   1.1692 B( 16-S , 20-C ) :   1.1754
B( 17-C , 18-C ) :   1.5878 B( 17-C , 33-H ) :   0.9555 B( 18-C , 19-C ) :   1.2648
B( 18-C , 21-H ) :   0.9943 B( 19-C , 20-C ) :   1.5846 B( 19-C , 22-C ) :   1.0203
B( 22-C , 23-H ) :   0.9256 B( 22-C , 24-H ) :   0.9356 B( 22-C , 25-C ) :   1.0534
B( 25-C , 26-H ) :   0.9573 B( 25-C , 27-H ) :   0.9570 B( 25-C , 28-C ) :   1.0536
B( 28-C , 29-H ) :   0.9751 B( 28-C , 30-H ) :   0.9800 B( 28-C , 31-H ) :   0.9769

Dispersion correction           -0.015059250
FINAL SINGLE POINT ENERGY     -1339.865384472494

DIPOLE MOMENT
-------------
                                X             Y             Z
Electronic contribution:      5.21090      -3.87257      14.72145
Nuclear contribution   :     -5.52054       3.80349     -14.98499
                        -----------------------------------------
Total Dipole Moment    :     -0.30964      -0.06908      -0.26354
                        -----------------------------------------
Magnitude (a.u.)       :      0.41243
Magnitude (Debye)      :      1.04833

Rotational constants in cm-1:     0.019171     0.009246     0.007195
Rotational constants in MHz :   574.739775   277.183242   215.707236

                             ****ORCA TERMINATED NORMALLY****
TOTAL RUN TIME: 0 days 0 hours 0 minutes 20 seconds 824 msec
