                         Program Version 4.2.1 -  RELEASE  -
|  1> ! wB97X-D3 SP def2-SVP
|  2> %pal
|  3> nprocs 24
|  4> end
|  5>
|  6> * xyz 0 1
|  7> S 	 -105.307 	 38.061 	 -19.3892
|  8> C 	 -104.836 	 36.9227 	 -18.0927
|  9> C 	 -104.721 	 35.5917 	 -18.5352
| 10> C 	 -105.048 	 35.5493 	 -19.9118
| 11> C 	 -105.39 	 36.7389 	 -20.5404
| 12> H 	 -105.177 	 34.7076 	 -20.5404
| 13> C 	 -104.284 	 34.3303 	 -17.6946
| 14> H 	 -104.223 	 33.5439 	 -18.3993
| 15> H 	 -105.22 	 34.0939 	 -17.1373
| 16> C 	 -103.059 	 34.7145 	 -16.8247
| 17> H 	 -102.218 	 34.8727 	 -17.5165
| 18> H 	 -103.291 	 35.5953 	 -16.3111
| 19> C 	 -102.765 	 33.512 	 -15.8251
| 20> H 	 -101.891 	 33.7789 	 -15.1311
| 21> H 	 -103.626 	 33.3179 	 -15.1853
| 22> H 	 -102.486 	 32.5728 	 -16.389
| 23> S 	 -107.02 	 38.1263 	 -22.2657
| 24> C 	 -106.928 	 37.6724 	 -24.0642
| 25> C 	 -105.932 	 36.7769 	 -24.3113
| 26> C 	 -105.146 	 36.5079 	 -23.1195
| 27> C 	 -105.648 	 37.0218 	 -21.9494
| 28> H 	 -105.706 	 36.4758 	 -25.2933
| 29> C 	 -103.885 	 35.6976 	 -23.2466
| 30> H 	 -103.717 	 35.3966 	 -24.3405
| 31> H 	 -104.136 	 34.7616 	 -22.7249
| 32> C 	 -102.643 	 36.3694 	 -22.7771
| 33> H 	 -102.794 	 36.8251 	 -21.8093
| 34> H 	 -102.454 	 37.1962 	 -23.4657
| 35> C 	 -101.413 	 35.4491 	 -22.6461
| 36> H 	 -101.611 	 34.6596 	 -21.9136
| 37> H 	 -100.515 	 36.0103 	 -22.3111
| 38> H 	 -101.151 	 35.1182 	 -23.6055
| 39> H 	 -104.879 	 37.1241 	 -17.043
| 40> H 	 -107.692 	 38.0274 	 -24.7256
| 41> *
| 42>
| 43>                          ****END OF INPUT****

CARTESIAN COORDINATES (ANGSTROEM)
---------------------------------
  S    -105.307000   38.061000  -19.389200
  C    -104.836000   36.922700  -18.092700
  C    -104.721000   35.591700  -18.535200
  C    -105.048000   35.549300  -19.911800
  C    -105.390000   36.738900  -20.540400
  H    -105.177000   34.707600  -20.540400
  C    -104.284000   34.330300  -17.694600
  H    -104.223000   33.543900  -18.399300
  H    -105.220000   34.093900  -17.137300
  C    -103.059000   34.714500  -16.824700
  H    -102.218000   34.872700  -17.516500
  H    -103.291000   35.595300  -16.311100
  C    -102.765000   33.512000  -15.825100
  H    -101.891000   33.778900  -15.131100
  H    -103.626000   33.317900  -15.185300
  H    -102.486000   32.572800  -16.389000
  S    -107.020000   38.126300  -22.265700
  C    -106.928000   37.672400  -24.064200
  C    -105.932000   36.776900  -24.311300
  C    -105.146000   36.507900  -23.119500
  C    -105.648000   37.021800  -21.949400
  H    -105.706000   36.475800  -25.293300
  C    -103.885000   35.697600  -23.246600
  H    -103.717000   35.396600  -24.340500
  H    -104.136000   34.761600  -22.724900
  C    -102.643000   36.369400  -22.777100
  H    -102.794000   36.825100  -21.809300
  H    -102.454000   37.196200  -23.465700
  C    -101.413000   35.449100  -22.646100
  H    -101.611000   34.659600  -21.913600
  H    -100.515000   36.010300  -22.311100
  H    -101.151000   35.118200  -23.605500
  H    -104.879000   37.124100  -17.043000
  H    -107.692000   38.027400  -24.725600

 Total Charge           Charge          ....    0
 Multiplicity           Mult            ....    1
 Number of Electrons    NEL             ....  134
 Basis Dimension        Dim             ....  322

ORBITAL ENERGIES
----------------

  NO   OCC          E(Eh)            E(eV)
   0   2.0000     -88.967139     -2420.9189
   1   2.0000     -88.961293     -2420.7598
   2   2.0000     -10.330184      -281.0986
   3   2.0000     -10.329348      -281.0758
   4   2.0000     -10.325911      -280.9823
   5   2.0000     -10.315808      -280.7074
   6   2.0000     -10.307061      -280.4694
   7   2.0000     -10.305221      -280.4193
   8   2.0000     -10.301482      -280.3176
   9   2.0000     -10.297338      -280.2048
  10   2.0000     -10.295724      -280.1609
  11   2.0000     -10.293625      -280.1038
  12   2.0000     -10.292617      -280.0763
  13   2.0000     -10.290634      -280.0224
  14   2.0000     -10.277528      -279.6658
  15   2.0000     -10.274340      -279.5790
  16   2.0000      -8.080985      -219.8948
  17   2.0000      -8.074547      -219.7196
  18   2.0000      -6.039575      -164.3452
  19   2.0000      -6.035567      -164.2361
  20   2.0000      -6.033288      -164.1741
  21   2.0000      -6.031767      -164.1327
  22   2.0000      -6.029454      -164.0698
  23   2.0000      -6.024953      -163.9473
  24   2.0000      -0.999630       -27.2013
  25   2.0000      -0.974835       -26.5266
  26   2.0000      -0.909754       -24.7557
  27   2.0000      -0.907159       -24.6851
  28   2.0000      -0.867119       -23.5955
  29   2.0000      -0.847240       -23.0546
  30   2.0000      -0.840937       -22.8830
  31   2.0000      -0.813791       -22.1444
  32   2.0000      -0.778962       -21.1966
  33   2.0000      -0.769060       -20.9272
  34   2.0000      -0.714583       -19.4448
  35   2.0000      -0.704353       -19.1664
  36   2.0000      -0.686717       -18.6865
  37   2.0000      -0.670526       -18.2459
  38   2.0000      -0.642757       -17.4903
  39   2.0000      -0.610530       -16.6134
  40   2.0000      -0.592300       -16.1173
  41   2.0000      -0.573958       -15.6182
  42   2.0000      -0.571133       -15.5413
  43   2.0000      -0.557157       -15.1610
  44   2.0000      -0.523026       -14.2323
  45   2.0000      -0.521058       -14.1787
  46   2.0000      -0.517571       -14.0838
  47   2.0000      -0.515450       -14.0261
  48   2.0000      -0.503572       -13.7029
  49   2.0000      -0.495892       -13.4939
  50   2.0000      -0.490437       -13.3455
  51   2.0000      -0.481674       -13.1070
  52   2.0000      -0.471813       -12.8387
  53   2.0000      -0.462601       -12.5880
  54   2.0000      -0.452117       -12.3027
  55   2.0000      -0.447895       -12.1878
  56   2.0000      -0.444049       -12.0832
  57   2.0000      -0.438215       -11.9244
  58   2.0000      -0.435331       -11.8459
  59   2.0000      -0.428365       -11.6564
  60   2.0000      -0.415433       -11.3045
  61   2.0000      -0.414215       -11.2714
  62   2.0000      -0.412381       -11.2214
  63   2.0000      -0.349363        -9.5066
  64   2.0000      -0.334078        -9.0907
  65   2.0000      -0.326432        -8.8827
  66   2.0000      -0.287817        -7.8319
  67   0.0000       0.020405         0.5552
  68   0.0000       0.068772         1.8714
  69   0.0000       0.090302         2.4572
  70   0.0000       0.120418         3.2767
  71   0.0000       0.129391         3.5209

MULLIKEN ATOMIC CHARGES
-----------------------
   0 S :    0.104439
   1 C :   -0.130466
   2 C :   -0.109276
   3 C :    0.019302
   4 C :   -0.146960
   5 H :   -0.007452
   6 C :    0.092369
   7 H :    0.009801
   8 H :    0.044817
   9 C :   -0.057666
  10 H :    0.049663
  11 H :    0.026950
  12 C :   -0.088210
  13 H :    0.047224
  14 H :    0.038402
  15 H :    0.046234
  16 S :    0.061225
  17 C :   -0.087106
  18 C :    0.016264
  19 C :   -0.074350
  20 C :   -0.119431
  21 H :    0.009028
  22 C :    0.050287
  23 H :    0.020101
  24 H :    0.027364
  25 C :   -0.074340
  26 H :    0.037956
  27 H :    0.025953
  28 C :   -0.021007
  29 H :    0.034832
  30 H :    0.033349
  31 H :    0.013442
  32 H :    0.048005
  33 H :    0.059254
Sum of atomic charges:    0.0000000

LOEWDIN ATOMIC CHARGES
----------------------
   0 S :    0.390952
   1 C :   -0.194651
   2 C :   -0.054803
   3 C :   -0.070472
   4 C :   -0.190423
   5 H :    0.022643
   6 C :   -0.021929
   7 H :    0.021590
   8 H :    0.038951
   9 C :   -0.026955
  10 H :    0.033486
  11 H :    0.016853
  12 C :   -0.076108
  13 H :    0.032302
  14 H :    0.023144
  15 H :    0.031457
  16 S :    0.333691
  17 C :   -0.133510
  18 C :   -0.058805
  19 C :   -0.052433
  20 C :   -0.185547
  21 H :    0.028139
  22 C :   -0.038841
  23 H :    0.033706
  24 H :    0.029411
  25 C :   -0.042924
  26 H :    0.024269
  27 H :    0.026466
  28 C :   -0.057705
  29 H :    0.026717
  30 H :    0.031547
  31 H :    0.013895
  32 H :    0.021266
  33 H :    0.024622

  Mayer bond orders larger than 0.100000
B(  0-S ,  1-C ) :   1.1392 B(  0-S ,  4-C ) :   1.1410 B(  1-C ,  2-C ) :   1.6025
B(  1-C ,  4-C ) :   0.1111 B(  1-C , 32-H ) :   0.9641 B(  2-C ,  3-C ) :   1.2558
B(  2-C ,  6-C ) :   0.9886 B(  3-C ,  4-C ) :   1.5868 B(  3-C ,  5-H ) :   0.9986
B(  4-C , 20-C ) :   1.0323 B(  6-C ,  7-H ) :   0.9468 B(  6-C ,  8-H ) :   0.9378
B(  6-C ,  9-C ) :   1.0496 B(  9-C , 10-H ) :   0.9601 B(  9-C , 11-H ) :   0.9589
B(  9-C , 12-C ) :   1.0729 B( 12-C , 13-H ) :   0.9765 B( 12-C , 14-H ) :   0.9775
B( 12-C , 15-H ) :   0.9758 B( 16-S , 17-C ) :   1.1189 B( 16-S , 20-C ) :   1.0995
B( 17-C , 18-C ) :   1.6512 B( 17-C , 33-H ) :   0.9696 B( 18-C , 19-C ) :   1.1995
B( 18-C , 21-H ) :   0.9955 B( 19-C , 20-C ) :   1.6443 B( 19-C , 22-C ) :   1.0348
B( 22-C , 23-H ) :   0.9335 B( 22-C , 24-H ) :   0.9293 B( 22-C , 25-C ) :   1.0665
B( 25-C , 26-H ) :   0.9576 B( 25-C , 27-H ) :   0.9500 B( 25-C , 28-C ) :   1.0870
B( 28-C , 29-H ) :   0.9758 B( 28-C , 30-H ) :   0.9730 B( 28-C , 31-H ) :   0.9746

Dispersion correction           -0.014234541
FINAL SINGLE POINT ENERGY     -1339.866980201980

DIPOLE MOMENT
-------------
                                X             Y             Z
Electronic contribution:    -21.74744      19.68052      -8.05429
Nuclear contribution   :     22.06686     -20.33674       7.96849
                        -----------------------------------------
Total Dipole Moment    :      0.31942      -0.65622      -0.08580
                        -----------------------------------------
Magnitude (a.u.)       :      0.73485
Magnitude (Debye)      :      1.86785

Rotational constants in cm-1:     0.020726     0.008085     0.006441
Rotational constants in MHz :   621.362405   242.396316   193.098215

                             ****ORCA TERMINATED NORMALLY****
TOTAL RUN TIME: 0 days 0 hours 0 minutes 22 seconds 853 msec
