                         Program Version 4.2.1 -  RELEASE  -
|  1> ! wB97X-D3 SP def2-SVP
|  2> %pal
|  3> nprocs 24
|  4> end
|  5>
|  6> * xyz 0 1
|  7> S 	 -129.149 	 58.6842 	 -52.4644
|  8> C 	 -130.123 	 59.4978 	 -53.6872
|  9> C 	 -129.379 	 60.26 	 -54.5449
| 10> C 	 -127.956 	 60.2089 	 -54.2364
| 11> C 	 -127.688 	 59.4824 	 -53.1032
| 12> H 	 -127.111 	 60.7848 	 -54.7931
| 13> C 	 -129.835 	 61.0653 	 -55.7018
| 14> H 	 -130.561 	 60.6135 	 -56.3338
| 15> H 	 -128.923 	 61.1834 	 -56.3337
| 16> C 	 -130.285 	 62.4329 	 -55.2685
| 17> H 	 -131.089 	 62.2315 	 -54.5438
| 18> H 	 -129.419 	 63.0146 	 -54.8436
| 19> C 	 -130.755 	 63.2857 	 -56.4279
| 20> H 	 -130.981 	 64.2659 	 -56.0299
| 21> H 	 -130.084 	 63.3917 	 -57.2581
| 22> H 	 -131.67 	 62.9774 	 -57.0088
| 23> S 	 -126.142 	 59.3965 	 -50.827
| 24> C 	 -124.455 	 59.0496 	 -50.8982
| 25> C 	 -124.055 	 58.8659 	 -52.1931
| 26> C 	 -125.103 	 58.89 	 -53.1485
| 27> C 	 -126.352 	 59.2268 	 -52.5574
| 28> H 	 -123.022 	 58.5966 	 -52.363
| 29> C 	 -124.854 	 58.6859 	 -54.6594
| 30> H 	 -125.798 	 58.716 	 -55.2124
| 31> H 	 -124.408 	 57.6862 	 -54.8209
| 32> C 	 -123.85 	 59.7107 	 -55.1536
| 33> H 	 -122.819 	 59.5483 	 -54.8396
| 34> H 	 -124.104 	 60.7736 	 -54.8903
| 35> C 	 -123.779 	 59.6073 	 -56.6735
| 36> H 	 -124.677 	 60.0384 	 -57.0521
| 37> H 	 -123.7 	 58.6289 	 -57.059
| 38> H 	 -122.903 	 60.2311 	 -57.0048
| 39> H 	 -131.185 	 59.4272 	 -53.7874
| 40> H 	 -123.795 	 59.1724 	 -50.1137
| 41> *
| 42>
| 43>                          ****END OF INPUT****

CARTESIAN COORDINATES (ANGSTROEM)
---------------------------------
  S    -129.149000   58.684200  -52.464400
  C    -130.123000   59.497800  -53.687200
  C    -129.379000   60.260000  -54.544900
  C    -127.956000   60.208900  -54.236400
  C    -127.688000   59.482400  -53.103200
  H    -127.111000   60.784800  -54.793100
  C    -129.835000   61.065300  -55.701800
  H    -130.561000   60.613500  -56.333800
  H    -128.923000   61.183400  -56.333700
  C    -130.285000   62.432900  -55.268500
  H    -131.089000   62.231500  -54.543800
  H    -129.419000   63.014600  -54.843600
  C    -130.755000   63.285700  -56.427900
  H    -130.981000   64.265900  -56.029900
  H    -130.084000   63.391700  -57.258100
  H    -131.670000   62.977400  -57.008800
  S    -126.142000   59.396500  -50.827000
  C    -124.455000   59.049600  -50.898200
  C    -124.055000   58.865900  -52.193100
  C    -125.103000   58.890000  -53.148500
  C    -126.352000   59.226800  -52.557400
  H    -123.022000   58.596600  -52.363000
  C    -124.854000   58.685900  -54.659400
  H    -125.798000   58.716000  -55.212400
  H    -124.408000   57.686200  -54.820900
  C    -123.850000   59.710700  -55.153600
  H    -122.819000   59.548300  -54.839600
  H    -124.104000   60.773600  -54.890300
  C    -123.779000   59.607300  -56.673500
  H    -124.677000   60.038400  -57.052100
  H    -123.700000   58.628900  -57.059000
  H    -122.903000   60.231100  -57.004800
  H    -131.185000   59.427200  -53.787400
  H    -123.795000   59.172400  -50.113700

 Total Charge           Charge          ....    0
 Multiplicity           Mult            ....    1
 Number of Electrons    NEL             ....  134
 Basis Dimension        Dim             ....  322

ORBITAL ENERGIES
----------------

  NO   OCC          E(Eh)            E(eV)
   0   2.0000     -88.967704     -2420.9343
   1   2.0000     -88.962899     -2420.8035
   2   2.0000     -10.332550      -281.1630
   3   2.0000     -10.328668      -281.0573
   4   2.0000     -10.312592      -280.6199
   5   2.0000     -10.308662      -280.5130
   6   2.0000     -10.306901      -280.4650
   7   2.0000     -10.302664      -280.3497
   8   2.0000     -10.299607      -280.2665
   9   2.0000     -10.295268      -280.1485
  10   2.0000     -10.290287      -280.0130
  11   2.0000     -10.290018      -280.0056
  12   2.0000     -10.287755      -279.9441
  13   2.0000     -10.286307      -279.9046
  14   2.0000     -10.277235      -279.6578
  15   2.0000     -10.273109      -279.5455
  16   2.0000      -8.081687      -219.9139
  17   2.0000      -8.078177      -219.8184
  18   2.0000      -6.040417      -164.3681
  19   2.0000      -6.036565      -164.2633
  20   2.0000      -6.036396      -164.2587
  21   2.0000      -6.032490      -164.1524
  22   2.0000      -6.032146      -164.1430
  23   2.0000      -6.029154      -164.0616
  24   2.0000      -1.004135       -27.3239
  25   2.0000      -0.983757       -26.7694
  26   2.0000      -0.920128       -25.0379
  27   2.0000      -0.913966       -24.8703
  28   2.0000      -0.870416       -23.6852
  29   2.0000      -0.851657       -23.1748
  30   2.0000      -0.845970       -23.0200
  31   2.0000      -0.815171       -22.1819
  32   2.0000      -0.781635       -21.2694
  33   2.0000      -0.771284       -20.9877
  34   2.0000      -0.704487       -19.1701
  35   2.0000      -0.699667       -19.0389
  36   2.0000      -0.696942       -18.9648
  37   2.0000      -0.657789       -17.8994
  38   2.0000      -0.638539       -17.3755
  39   2.0000      -0.619589       -16.8599
  40   2.0000      -0.598576       -16.2881
  41   2.0000      -0.572590       -15.5810
  42   2.0000      -0.571242       -15.5443
  43   2.0000      -0.561995       -15.2927
  44   2.0000      -0.534481       -14.5440
  45   2.0000      -0.530780       -14.4433
  46   2.0000      -0.515631       -14.0310
  47   2.0000      -0.508731       -13.8433
  48   2.0000      -0.507449       -13.8084
  49   2.0000      -0.497538       -13.5387
  50   2.0000      -0.495261       -13.4767
  51   2.0000      -0.477173       -12.9845
  52   2.0000      -0.471306       -12.8249
  53   2.0000      -0.463227       -12.6050
  54   2.0000      -0.455389       -12.3918
  55   2.0000      -0.447321       -12.1722
  56   2.0000      -0.446743       -12.1565
  57   2.0000      -0.440887       -11.9971
  58   2.0000      -0.434437       -11.8216
  59   2.0000      -0.424923       -11.5627
  60   2.0000      -0.421476       -11.4689
  61   2.0000      -0.417289       -11.3550
  62   2.0000      -0.410946       -11.1824
  63   2.0000      -0.350400        -9.5349
  64   2.0000      -0.330038        -8.9808
  65   2.0000      -0.329563        -8.9679
  66   2.0000      -0.291165        -7.9230
  67   0.0000       0.030960         0.8425
  68   0.0000       0.072249         1.9660
  69   0.0000       0.105476         2.8701
  70   0.0000       0.122600         3.3361
  71   0.0000       0.125925         3.4266

MULLIKEN ATOMIC CHARGES
-----------------------
   0 S :    0.112651
   1 C :   -0.110335
   2 C :   -0.077962
   3 C :   -0.024706
   4 C :   -0.122782
   5 H :    0.054643
   6 C :    0.065480
   7 H :    0.019780
   8 H :    0.016097
   9 C :   -0.076200
  10 H :    0.034223
  11 H :    0.041602
  12 C :   -0.038739
  13 H :    0.032603
  14 H :    0.018906
  15 H :    0.024870
  16 S :    0.102370
  17 C :   -0.055908
  18 C :   -0.049274
  19 C :   -0.020888
  20 C :   -0.178318
  21 H :    0.018900
  22 C :    0.075427
  23 H :    0.028824
  24 H :    0.033500
  25 C :   -0.116542
  26 H :    0.031238
  27 H :    0.040109
  28 C :   -0.021262
  29 H :    0.016586
  30 H :    0.021421
  31 H :    0.036391
  32 H :    0.034485
  33 H :    0.032811
Sum of atomic charges:   -0.0000000

LOEWDIN ATOMIC CHARGES
----------------------
   0 S :    0.385463
   1 C :   -0.190450
   2 C :   -0.060751
   3 C :   -0.073053
   4 C :   -0.184551
   5 H :    0.049432
   6 C :   -0.037133
   7 H :    0.024623
   8 H :    0.032255
   9 C :   -0.038346
  10 H :    0.027793
  11 H :    0.035737
  12 C :   -0.074624
  13 H :    0.026459
  14 H :    0.020754
  15 H :    0.027580
  16 S :    0.417508
  17 C :   -0.181131
  18 C :   -0.072959
  19 C :   -0.051003
  20 C :   -0.204851
  21 H :    0.031360
  22 C :   -0.029624
  23 H :    0.029792
  24 H :    0.036707
  25 C :   -0.044581
  26 H :    0.022305
  27 H :    0.028562
  28 C :   -0.059562
  29 H :    0.017430
  30 H :    0.016662
  31 H :    0.031301
  32 H :    0.024561
  33 H :    0.016336

  Mayer bond orders larger than 0.100000
B(  0-S ,  1-C ) :   1.1118 B(  0-S ,  4-C ) :   1.1354 B(  1-C ,  2-C ) :   1.6518
B(  1-C , 32-H ) :   0.9684 B(  2-C ,  3-C ) :   1.2118 B(  2-C ,  6-C ) :   1.0275
B(  3-C ,  4-C ) :   1.6149 B(  3-C ,  5-H ) :   0.9717 B(  4-C , 20-C ) :   1.0356
B(  6-C ,  7-H ) :   0.9413 B(  6-C ,  8-H ) :   0.9325 B(  6-C ,  9-C ) :   1.0717
B(  9-C , 10-H ) :   0.9561 B(  9-C , 11-H ) :   0.9511 B(  9-C , 12-C ) :   1.0849
B( 12-C , 13-H ) :   0.9736 B( 12-C , 14-H ) :   0.9710 B( 12-C , 15-H ) :   0.9703
B( 16-S , 17-C ) :   1.1657 B( 16-S , 20-C ) :   1.1566 B( 17-C , 18-C ) :   1.5980
B( 17-C , 20-C ) :   0.1022 B( 17-C , 33-H ) :   0.9743 B( 18-C , 19-C ) :   1.2575
B( 18-C , 21-H ) :   0.9898 B( 19-C , 20-C ) :   1.5574 B( 19-C , 22-C ) :   1.0411
B( 22-C , 23-H ) :   0.9447 B( 22-C , 24-H ) :   0.9234 B( 22-C , 25-C ) :   1.0651
B( 25-C , 26-H ) :   0.9513 B( 25-C , 27-H ) :   0.9583 B( 25-C , 28-C ) :   1.0858
B( 28-C , 29-H ) :   0.9761 B( 28-C , 30-H ) :   0.9710 B( 28-C , 31-H ) :   0.9747

Dispersion correction           -0.013796343
FINAL SINGLE POINT ENERGY     -1339.884190103110

DIPOLE MOMENT
-------------
                                X             Y             Z
Electronic contribution:     -2.71131     -13.53058      27.21826
Nuclear contribution   :      2.98078      13.79336     -27.86252
                        -----------------------------------------
Total Dipole Moment    :      0.26947       0.26278      -0.64426
                        -----------------------------------------
Magnitude (a.u.)       :      0.74615
Magnitude (Debye)      :      1.89656

Rotational constants in cm-1:     0.017226     0.008567     0.006414
Rotational constants in MHz :   516.426606   256.826525   192.289343

                             ****ORCA TERMINATED NORMALLY****
TOTAL RUN TIME: 0 days 0 hours 0 minutes 21 seconds 363 msec
