                         Program Version 4.2.1 -  RELEASE  -
|  1> ! wB97X-D3 SP def2-SVP
|  2> %pal
|  3> nprocs 24
|  4> end
|  5>
|  6> * xyz 0 1
|  7> S 	 -66.4217 	 11.5792 	 -69.2852
|  8> C 	 -66.3207 	 13.2084 	 -69.7533
|  9> C 	 -67.3764 	 13.6185 	 -70.5084
| 10> C 	 -68.3667 	 12.5767 	 -70.5128
| 11> C 	 -68.1003 	 11.463 	 -69.8364
| 12> H 	 -69.2417 	 12.6349 	 -71.0797
| 13> C 	 -67.3525 	 14.8689 	 -71.3549
| 14> H 	 -67.4646 	 14.609 	 -72.3778
| 15> H 	 -66.3774 	 15.3837 	 -71.382
| 16> C 	 -68.3232 	 16.0328 	 -71.0778
| 17> H 	 -68.1877 	 16.4442 	 -70.042
| 18> H 	 -67.9722 	 16.8031 	 -71.7207
| 19> C 	 -69.8212 	 15.731 	 -71.2875
| 20> H 	 -69.9175 	 15.5158 	 -72.326
| 21> H 	 -70.0678 	 14.7844 	 -70.7922
| 22> H 	 -70.5024 	 16.5739 	 -71.1538
| 23> S 	 -68.6326 	 9.34675 	 -68.2092
| 24> C 	 -69.837 	 8.19195 	 -68.6601
| 25> C 	 -70.6093 	 8.61288 	 -69.6652
| 26> C 	 -70.1956 	 9.90369 	 -70.1767
| 27> C 	 -68.9776 	 10.3169 	 -69.6376
| 28> H 	 -71.4818 	 8.0716 	 -69.9879
| 29> C 	 -70.9311 	 10.5515 	 -71.3519
| 30> H 	 -71.4781 	 9.76611 	 -71.8965
| 31> H 	 -70.2659 	 11.0268 	 -72.0324
| 32> C 	 -72.0055 	 11.5271 	 -70.9399
| 33> H 	 -72.5156 	 11.9186 	 -71.7579
| 34> H 	 -71.6129 	 12.2779 	 -70.334
| 35> C 	 -73.041 	 10.8683 	 -70.0536
| 36> H 	 -73.903 	 11.4774 	 -69.9338
| 37> H 	 -72.7291 	 10.7731 	 -69.0684
| 38> H 	 -73.4813 	 9.96 	 -70.4684
| 39> H 	 -65.4763 	 13.7564 	 -69.6413
| 40> H 	 -70.0276 	 7.31398 	 -68.0586
| 41> *
| 42>
| 43>                          ****END OF INPUT****

CARTESIAN COORDINATES (ANGSTROEM)
---------------------------------
  S    -66.421700   11.579200  -69.285200
  C    -66.320700   13.208400  -69.753300
  C    -67.376400   13.618500  -70.508400
  C    -68.366700   12.576700  -70.512800
  C    -68.100300   11.463000  -69.836400
  H    -69.241700   12.634900  -71.079700
  C    -67.352500   14.868900  -71.354900
  H    -67.464600   14.609000  -72.377800
  H    -66.377400   15.383700  -71.382000
  C    -68.323200   16.032800  -71.077800
  H    -68.187700   16.444200  -70.042000
  H    -67.972200   16.803100  -71.720700
  C    -69.821200   15.731000  -71.287500
  H    -69.917500   15.515800  -72.326000
  H    -70.067800   14.784400  -70.792200
  H    -70.502400   16.573900  -71.153800
  S    -68.632600    9.346750  -68.209200
  C    -69.837000    8.191950  -68.660100
  C    -70.609300    8.612880  -69.665200
  C    -70.195600    9.903690  -70.176700
  C    -68.977600   10.316900  -69.637600
  H    -71.481800    8.071600  -69.987900
  C    -70.931100   10.551500  -71.351900
  H    -71.478100    9.766110  -71.896500
  H    -70.265900   11.026800  -72.032400
  C    -72.005500   11.527100  -70.939900
  H    -72.515600   11.918600  -71.757900
  H    -71.612900   12.277900  -70.334000
  C    -73.041000   10.868300  -70.053600
  H    -73.903000   11.477400  -69.933800
  H    -72.729100   10.773100  -69.068400
  H    -73.481300    9.960000  -70.468400
  H    -65.476300   13.756400  -69.641300
  H    -70.027600    7.313980  -68.058600

 Total Charge           Charge          ....    0
 Multiplicity           Mult            ....    1
 Number of Electrons    NEL             ....  134
 Basis Dimension        Dim             ....  322

ORBITAL ENERGIES
----------------

  NO   OCC          E(Eh)            E(eV)
   0   2.0000     -88.963791     -2420.8278
   1   2.0000     -88.960830     -2420.7473
   2   2.0000     -10.330438      -281.1055
   3   2.0000     -10.326915      -281.0096
   4   2.0000     -10.310593      -280.5655
   5   2.0000     -10.306830      -280.4631
   6   2.0000     -10.302597      -280.3479
   7   2.0000     -10.298905      -280.2474
   8   2.0000     -10.293274      -280.0942
   9   2.0000     -10.290865      -280.0287
  10   2.0000     -10.289587      -279.9939
  11   2.0000     -10.286334      -279.9054
  12   2.0000     -10.284855      -279.8651
  13   2.0000     -10.275740      -279.6171
  14   2.0000     -10.272996      -279.5424
  15   2.0000     -10.263475      -279.2834
  16   2.0000      -8.079378      -219.8511
  17   2.0000      -8.076335      -219.7683
  18   2.0000      -6.037908      -164.2998
  19   2.0000      -6.034825      -164.2159
  20   2.0000      -6.033942      -164.1919
  21   2.0000      -6.030926      -164.1098
  22   2.0000      -6.029869      -164.0811
  23   2.0000      -6.026876      -163.9996
  24   2.0000      -1.014493       -27.6058
  25   2.0000      -0.992421       -27.0051
  26   2.0000      -0.919833       -25.0299
  27   2.0000      -0.911923       -24.8147
  28   2.0000      -0.878709       -23.9109
  29   2.0000      -0.852875       -23.2079
  30   2.0000      -0.843659       -22.9571
  31   2.0000      -0.824863       -22.4457
  32   2.0000      -0.790028       -21.4977
  33   2.0000      -0.779988       -21.2245
  34   2.0000      -0.713153       -19.4059
  35   2.0000      -0.701643       -19.0927
  36   2.0000      -0.694649       -18.9024
  37   2.0000      -0.668901       -18.2017
  38   2.0000      -0.646524       -17.5928
  39   2.0000      -0.626771       -17.0553
  40   2.0000      -0.602589       -16.3973
  41   2.0000      -0.577204       -15.7065
  42   2.0000      -0.569832       -15.5059
  43   2.0000      -0.554184       -15.0801
  44   2.0000      -0.546748       -14.8778
  45   2.0000      -0.539811       -14.6890
  46   2.0000      -0.517124       -14.0717
  47   2.0000      -0.510468       -13.8905
  48   2.0000      -0.508160       -13.8277
  49   2.0000      -0.502664       -13.6782
  50   2.0000      -0.490790       -13.3551
  51   2.0000      -0.487787       -13.2733
  52   2.0000      -0.478634       -13.0243
  53   2.0000      -0.467687       -12.7264
  54   2.0000      -0.461389       -12.5550
  55   2.0000      -0.447129       -12.1670
  56   2.0000      -0.442777       -12.0486
  57   2.0000      -0.436803       -11.8860
  58   2.0000      -0.431930       -11.7534
  59   2.0000      -0.428484       -11.6596
  60   2.0000      -0.423359       -11.5202
  61   2.0000      -0.417971       -11.3736
  62   2.0000      -0.412335       -11.2202
  63   2.0000      -0.367452        -9.9989
  64   2.0000      -0.330225        -8.9859
  65   2.0000      -0.327509        -8.9120
  66   2.0000      -0.288225        -7.8430
  67   0.0000       0.024587         0.6690
  68   0.0000       0.088179         2.3995
  69   0.0000       0.101805         2.7703
  70   0.0000       0.114072         3.1041
  71   0.0000       0.135276         3.6810

MULLIKEN ATOMIC CHARGES
-----------------------
   0 S :    0.111015
   1 C :   -0.076128
   2 C :   -0.039804
   3 C :   -0.015380
   4 C :   -0.071116
   5 H :   -0.038097
   6 C :    0.047817
   7 H :    0.021983
   8 H :    0.019427
   9 C :   -0.074197
  10 H :    0.031668
  11 H :    0.018346
  12 C :   -0.036172
  13 H :    0.004625
  14 H :    0.040100
  15 H :    0.042781
  16 S :    0.085221
  17 C :   -0.070585
  18 C :   -0.012284
  19 C :   -0.075224
  20 C :   -0.124718
  21 H :    0.014225
  22 C :    0.049658
  23 H :    0.019193
  24 H :    0.026946
  25 C :   -0.003610
  26 H :    0.016814
  27 H :    0.016889
  28 C :   -0.042287
  29 H :    0.009822
  30 H :    0.028979
  31 H :    0.016305
  32 H :    0.003769
  33 H :    0.054017
Sum of atomic charges:   -0.0000000

LOEWDIN ATOMIC CHARGES
----------------------
   0 S :    0.409574
   1 C :   -0.180482
   2 C :   -0.062147
   3 C :   -0.062974
   4 C :   -0.184289
   5 H :    0.015757
   6 C :   -0.031401
   7 H :    0.028465
   8 H :    0.037194
   9 C :   -0.038836
  10 H :    0.025244
  11 H :    0.018133
  12 C :   -0.070625
  13 H :    0.018260
  14 H :    0.027332
  15 H :    0.030403
  16 S :    0.398439
  17 C :   -0.183613
  18 C :   -0.068072
  19 C :   -0.051441
  20 C :   -0.181070
  21 H :    0.031992
  22 C :   -0.027654
  23 H :    0.031478
  24 H :    0.022364
  25 C :   -0.027747
  26 H :    0.017946
  27 H :    0.017632
  28 C :   -0.059498
  29 H :    0.023133
  30 H :    0.019459
  31 H :    0.020831
  32 H :    0.006984
  33 H :    0.029229

  Mayer bond orders larger than 0.100000
B(  0-S ,  1-C ) :   1.1505 B(  0-S ,  4-C ) :   1.1181 B(  1-C ,  2-C ) :   1.6184
B(  1-C , 32-H ) :   0.9751 B(  2-C ,  3-C ) :   1.2201 B(  2-C ,  6-C ) :   1.0212
B(  3-C ,  4-C ) :   1.6067 B(  3-C ,  5-H ) :   1.0020 B(  4-C , 20-C ) :   1.0713
B(  6-C ,  7-H ) :   0.9385 B(  6-C ,  8-H ) :   0.9396 B(  6-C ,  9-C ) :   1.0775
B(  9-C , 10-H ) :   0.9554 B(  9-C , 11-H ) :   0.9550 B(  9-C , 12-C ) :   1.0750
B( 12-C , 13-H ) :   0.9718 B( 12-C , 14-H ) :   0.9729 B( 12-C , 15-H ) :   0.9723
B( 16-S , 17-C ) :   1.1402 B( 16-S , 20-C ) :   1.1359 B( 17-C , 18-C ) :   1.6345
B( 17-C , 33-H ) :   0.9657 B( 18-C , 19-C ) :   1.2220 B( 18-C , 21-H ) :   0.9923
B( 19-C , 20-C ) :   1.6057 B( 19-C , 22-C ) :   1.0321 B( 22-C , 23-H ) :   0.9383
B( 22-C , 24-H ) :   0.9418 B( 22-C , 25-C ) :   1.0821 B( 25-C , 26-H ) :   0.9556
B( 25-C , 27-H ) :   0.9457 B( 25-C , 28-C ) :   1.0948 B( 28-C , 29-H ) :   0.9658
B( 28-C , 30-H ) :   0.9697 B( 28-C , 31-H ) :   0.9726

Dispersion correction           -0.014966241
FINAL SINGLE POINT ENERGY     -1339.866350585053

DIPOLE MOMENT
-------------
                                X             Y             Z
Electronic contribution:     19.74227     -18.17511      13.30735
Nuclear contribution   :    -20.20822      18.53355     -13.81608
                        -----------------------------------------
Total Dipole Moment    :     -0.46595       0.35844      -0.50873
                        -----------------------------------------
Magnitude (a.u.)       :      0.77743
Magnitude (Debye)      :      1.97607

Rotational constants in cm-1:     0.018374     0.010137     0.006903
Rotational constants in MHz :   550.835134   303.899589   206.939349

                             ****ORCA TERMINATED NORMALLY****
TOTAL RUN TIME: 0 days 0 hours 0 minutes 22 seconds 785 msec
