                         Program Version 4.2.1 -  RELEASE  -
|  1> ! wB97X-D3 SP def2-SVP
|  2> %pal
|  3> nprocs 24
|  4> end
|  5>
|  6> * xyz 0 1
|  7> S 	 -54.4717 	 15.8887 	 -89.5742
|  8> C 	 -53.4937 	 17.0393 	 -88.7359
|  9> C 	 -53.0492 	 16.7081 	 -87.4919
| 10> C 	 -53.5712 	 15.3911 	 -87.2001
| 11> C 	 -54.3381 	 14.839 	 -88.1995
| 12> H 	 -53.5429 	 14.882 	 -86.2962
| 13> C 	 -52.1634 	 17.5788 	 -86.654
| 14> H 	 -51.969 	 17.1405 	 -85.6799
| 15> H 	 -52.7385 	 18.5043 	 -86.5766
| 16> C 	 -50.7973 	 18.0446 	 -87.2544
| 17> H 	 -50.9163 	 18.4987 	 -88.2232
| 18> H 	 -50.5011 	 18.8775 	 -86.5594
| 19> C 	 -49.6456 	 17.0126 	 -87.271
| 20> H 	 -49.5426 	 16.6743 	 -86.3084
| 21> H 	 -49.9005 	 16.1327 	 -87.9922
| 22> H 	 -48.7581 	 17.5094 	 -87.6208
| 23> S 	 -56.8176 	 13.7616 	 -88.3138
| 24> C 	 -56.9916 	 12.0661 	 -88.0086
| 25> C 	 -55.7814 	 11.3682 	 -87.8575
| 26> C 	 -54.6698 	 12.3028 	 -87.8984
| 27> C 	 -55.0478 	 13.6019 	 -88.1277
| 28> H 	 -55.6221 	 10.3804 	 -87.602
| 29> C 	 -53.2646 	 11.9119 	 -87.4017
| 30> H 	 -53.2461 	 11.1098 	 -86.6697
| 31> H 	 -52.8817 	 12.7285 	 -86.8338
| 32> C 	 -52.3392 	 11.6084 	 -88.5863
| 33> H 	 -52.4746 	 12.2754 	 -89.4555
| 34> H 	 -52.4273 	 10.5736 	 -88.9363
| 35> C 	 -50.8672 	 11.6616 	 -88.2618
| 36> H 	 -50.4585 	 12.6885 	 -88.1692
| 37> H 	 -50.3425 	 11.336 	 -89.1768
| 38> H 	 -50.6157 	 10.9332 	 -87.4465
| 39> H 	 -53.3319 	 18.0079 	 -89.0711
| 40> H 	 -57.9221 	 11.524 	 -87.8973
| 41> *
| 42>
| 43>                          ****END OF INPUT****

CARTESIAN COORDINATES (ANGSTROEM)
---------------------------------
  S    -54.471700   15.888700  -89.574200
  C    -53.493700   17.039300  -88.735900
  C    -53.049200   16.708100  -87.491900
  C    -53.571200   15.391100  -87.200100
  C    -54.338100   14.839000  -88.199500
  H    -53.542900   14.882000  -86.296200
  C    -52.163400   17.578800  -86.654000
  H    -51.969000   17.140500  -85.679900
  H    -52.738500   18.504300  -86.576600
  C    -50.797300   18.044600  -87.254400
  H    -50.916300   18.498700  -88.223200
  H    -50.501100   18.877500  -86.559400
  C    -49.645600   17.012600  -87.271000
  H    -49.542600   16.674300  -86.308400
  H    -49.900500   16.132700  -87.992200
  H    -48.758100   17.509400  -87.620800
  S    -56.817600   13.761600  -88.313800
  C    -56.991600   12.066100  -88.008600
  C    -55.781400   11.368200  -87.857500
  C    -54.669800   12.302800  -87.898400
  C    -55.047800   13.601900  -88.127700
  H    -55.622100   10.380400  -87.602000
  C    -53.264600   11.911900  -87.401700
  H    -53.246100   11.109800  -86.669700
  H    -52.881700   12.728500  -86.833800
  C    -52.339200   11.608400  -88.586300
  H    -52.474600   12.275400  -89.455500
  H    -52.427300   10.573600  -88.936300
  C    -50.867200   11.661600  -88.261800
  H    -50.458500   12.688500  -88.169200
  H    -50.342500   11.336000  -89.176800
  H    -50.615700   10.933200  -87.446500
  H    -53.331900   18.007900  -89.071100
  H    -57.922100   11.524000  -87.897300

 Total Charge           Charge          ....    0
 Multiplicity           Mult            ....    1
 Number of Electrons    NEL             ....  134
 Basis Dimension        Dim             ....  322

ORBITAL ENERGIES
----------------

  NO   OCC          E(Eh)            E(eV)
   0   2.0000     -88.966656     -2420.9058
   1   2.0000     -88.965662     -2420.8787
   2   2.0000     -10.320551      -280.8365
   3   2.0000     -10.320210      -280.8272
   4   2.0000     -10.318904      -280.7917
   5   2.0000     -10.302158      -280.3360
   6   2.0000     -10.301056      -280.3060
   7   2.0000     -10.298310      -280.2313
   8   2.0000     -10.295932      -280.1666
   9   2.0000     -10.292287      -280.0674
  10   2.0000     -10.291778      -280.0535
  11   2.0000     -10.288678      -279.9691
  12   2.0000     -10.287553      -279.9385
  13   2.0000     -10.280714      -279.7525
  14   2.0000     -10.278401      -279.6895
  15   2.0000     -10.277034      -279.6523
  16   2.0000      -8.082091      -219.9249
  17   2.0000      -8.080240      -219.8745
  18   2.0000      -6.040464      -164.3694
  19   2.0000      -6.038734      -164.3223
  20   2.0000      -6.036606      -164.2644
  21   2.0000      -6.034869      -164.2171
  22   2.0000      -6.032860      -164.1625
  23   2.0000      -6.030917      -164.1096
  24   2.0000      -1.008814       -27.4512
  25   2.0000      -0.981757       -26.7150
  26   2.0000      -0.911967       -24.8159
  27   2.0000      -0.907226       -24.6869
  28   2.0000      -0.869481       -23.6598
  29   2.0000      -0.854040       -23.2396
  30   2.0000      -0.847789       -23.0695
  31   2.0000      -0.813694       -22.1417
  32   2.0000      -0.786487       -21.4014
  33   2.0000      -0.771625       -20.9970
  34   2.0000      -0.703334       -19.1387
  35   2.0000      -0.699594       -19.0369
  36   2.0000      -0.685384       -18.6502
  37   2.0000      -0.670152       -18.2358
  38   2.0000      -0.646480       -17.5916
  39   2.0000      -0.611152       -16.6303
  40   2.0000      -0.595985       -16.2176
  41   2.0000      -0.578334       -15.7373
  42   2.0000      -0.563767       -15.3409
  43   2.0000      -0.549450       -14.9513
  44   2.0000      -0.539405       -14.6780
  45   2.0000      -0.524610       -14.2754
  46   2.0000      -0.522265       -14.2115
  47   2.0000      -0.512019       -13.9327
  48   2.0000      -0.496595       -13.5130
  49   2.0000      -0.493843       -13.4381
  50   2.0000      -0.491269       -13.3681
  51   2.0000      -0.482236       -13.1223
  52   2.0000      -0.474390       -12.9088
  53   2.0000      -0.468011       -12.7352
  54   2.0000      -0.459052       -12.4914
  55   2.0000      -0.450396       -12.2559
  56   2.0000      -0.441567       -12.0157
  57   2.0000      -0.436365       -11.8741
  58   2.0000      -0.432504       -11.7690
  59   2.0000      -0.427170       -11.6239
  60   2.0000      -0.419114       -11.4047
  61   2.0000      -0.414173       -11.2702
  62   2.0000      -0.413104       -11.2411
  63   2.0000      -0.341107        -9.2820
  64   2.0000      -0.330812        -9.0018
  65   2.0000      -0.327363        -8.9080
  66   2.0000      -0.291737        -7.9386
  67   0.0000       0.037340         1.0161
  68   0.0000       0.064514         1.7555
  69   0.0000       0.109991         2.9930
  70   0.0000       0.121616         3.3094
  71   0.0000       0.125198         3.4068

MULLIKEN ATOMIC CHARGES
-----------------------
   0 S :    0.131671
   1 C :   -0.102006
   2 C :   -0.067572
   3 C :    0.041504
   4 C :   -0.163781
   5 H :   -0.010987
   6 C :    0.081687
   7 H :    0.019406
   8 H :    0.038407
   9 C :   -0.108884
  10 H :    0.023790
  11 H :    0.031849
  12 C :   -0.021914
  13 H :    0.012143
  14 H :    0.053674
  15 H :    0.036342
  16 S :    0.112612
  17 C :   -0.077086
  18 C :    0.000399
  19 C :   -0.033477
  20 C :   -0.183661
  21 H :   -0.010749
  22 C :    0.101503
  23 H :    0.018516
  24 H :    0.001704
  25 C :   -0.088456
  26 H :    0.041414
  27 H :    0.026118
  28 C :   -0.074761
  29 H :    0.040187
  30 H :    0.025787
  31 H :    0.037854
  32 H :    0.009985
  33 H :    0.056782
Sum of atomic charges:    0.0000000

LOEWDIN ATOMIC CHARGES
----------------------
   0 S :    0.419322
   1 C :   -0.192617
   2 C :   -0.060846
   3 C :   -0.053620
   4 C :   -0.205854
   5 H :    0.017711
   6 C :   -0.031907
   7 H :    0.029256
   8 H :    0.041323
   9 C :   -0.037825
  10 H :    0.016824
  11 H :    0.028769
  12 C :   -0.059210
  13 H :    0.010000
  14 H :    0.038881
  15 H :    0.026135
  16 S :    0.399959
  17 C :   -0.184656
  18 C :   -0.060313
  19 C :   -0.043764
  20 C :   -0.194350
  21 H :    0.018154
  22 C :   -0.026169
  23 H :    0.028985
  24 H :    0.023864
  25 C :   -0.044982
  26 H :    0.030087
  27 H :    0.025152
  28 C :   -0.075424
  29 H :    0.025376
  30 H :    0.027432
  31 H :    0.027075
  32 H :    0.008828
  33 H :    0.028404

  Mayer bond orders larger than 0.100000
B(  0-S ,  1-C ) :   1.1381 B(  0-S ,  4-C ) :   1.1406 B(  1-C ,  2-C ) :   1.6330
B(  1-C , 32-H ) :   0.9679 B(  2-C ,  3-C ) :   1.2132 B(  2-C ,  6-C ) :   1.0224
B(  3-C ,  4-C ) :   1.6007 B(  3-C ,  5-H ) :   0.9980 B(  4-C , 20-C ) :   1.0400
B(  6-C ,  7-H ) :   0.9427 B(  6-C ,  8-H ) :   0.9274 B(  6-C ,  9-C ) :   1.0792
B(  9-C , 10-H ) :   0.9564 B(  9-C , 11-H ) :   0.9551 B(  9-C , 12-C ) :   1.0729
B( 12-C , 13-H ) :   0.9749 B( 12-C , 14-H ) :   0.9762 B( 12-C , 15-H ) :   0.9730
B( 16-S , 17-C ) :   1.1611 B( 16-S , 20-C ) :   1.1190 B( 17-C , 18-C ) :   1.6033
B( 17-C , 33-H ) :   0.9658 B( 18-C , 19-C ) :   1.2339 B( 18-C , 21-H ) :   0.9960
B( 19-C , 20-C ) :   1.6382 B( 19-C , 22-C ) :   1.0336 B( 22-C , 23-H ) :   0.9358
B( 22-C , 24-H ) :   0.9434 B( 22-C , 25-C ) :   1.0472 B( 25-C , 26-H ) :   0.9618
B( 25-C , 27-H ) :   0.9549 B( 25-C , 28-C ) :   1.0958 B( 28-C , 29-H ) :   0.9730
B( 28-C , 30-H ) :   0.9721 B( 28-C , 31-H ) :   0.9705

Dispersion correction           -0.014299134
FINAL SINGLE POINT ENERGY     -1339.869267212200

DIPOLE MOMENT
-------------
                                X             Y             Z
Electronic contribution:    -28.95737       0.97675      -7.72503
Nuclear contribution   :     29.42506      -0.97885       8.17488
                        -----------------------------------------
Total Dipole Moment    :      0.46770      -0.00210       0.44985
                        -----------------------------------------
Magnitude (a.u.)       :      0.64893
Magnitude (Debye)      :      1.64944

Rotational constants in cm-1:     0.019005     0.009159     0.006913
Rotational constants in MHz :   569.743481   274.579293   207.231768

                             ****ORCA TERMINATED NORMALLY****
TOTAL RUN TIME: 0 days 0 hours 0 minutes 21 seconds 897 msec
