                         Program Version 4.2.1 -  RELEASE  -
|  1> ! wB97X-D3 SP def2-SVP
|  2> %pal
|  3> nprocs 24
|  4> end
|  5>
|  6> * xyz 0 1
|  7> S 	 -117.273 	 60.5914 	 -81.3771
|  8> C 	 -118.761 	 61.3944 	 -80.8838
|  9> C 	 -118.513 	 62.5158 	 -80.1143
| 10> C 	 -117.097 	 62.7488 	 -80.0526
| 11> C 	 -116.325 	 61.7239 	 -80.5645
| 12> H 	 -116.599 	 63.5278 	 -79.5334
| 13> C 	 -119.465 	 63.31 	 -79.3359
| 14> H 	 -120.367 	 63.5883 	 -79.8383
| 15> H 	 -119.083 	 64.2722 	 -79.265
| 16> C 	 -119.791 	 62.7233 	 -77.922
| 17> H 	 -120.349 	 63.4874 	 -77.3831
| 18> H 	 -120.532 	 61.8854 	 -77.9445
| 19> C 	 -118.583 	 62.3248 	 -77.1011
| 20> H 	 -117.896 	 61.7277 	 -77.6969
| 21> H 	 -118.093 	 63.281 	 -76.7079
| 22> H 	 -118.82 	 61.6358 	 -76.2793
| 23> S 	 -114.12 	 62.0261 	 -82.2693
| 24> C 	 -112.605 	 61.9337 	 -81.5542
| 25> C 	 -112.63 	 61.52 	 -80.2201
| 26> C 	 -113.936 	 61.4424 	 -79.6815
| 27> C 	 -114.872 	 61.7055 	 -80.6421
| 28> H 	 -111.72 	 61.3311 	 -79.6007
| 29> C 	 -114.243 	 61.0459 	 -78.2367
| 30> H 	 -115.032 	 61.6527 	 -77.7567
| 31> H 	 -113.286 	 61.293 	 -77.6456
| 32> C 	 -114.56 	 59.5558 	 -78.0244
| 33> H 	 -113.524 	 59.1145 	 -78.1027
| 34> H 	 -115.318 	 59.2178 	 -78.7285
| 35> C 	 -115.103 	 59.1651 	 -76.5931
| 36> H 	 -115.299 	 58.1162 	 -76.6104
| 37> H 	 -116.05 	 59.5842 	 -76.2721
| 38> H 	 -114.355 	 59.4656 	 -75.8005
| 39> H 	 -119.743 	 61.0931 	 -81.0767
| 40> H 	 -111.697 	 61.9989 	 -82.0894
| 41> *
| 42>
| 43>                          ****END OF INPUT****

CARTESIAN COORDINATES (ANGSTROEM)
---------------------------------
  S    -117.273000   60.591400  -81.377100
  C    -118.761000   61.394400  -80.883800
  C    -118.513000   62.515800  -80.114300
  C    -117.097000   62.748800  -80.052600
  C    -116.325000   61.723900  -80.564500
  H    -116.599000   63.527800  -79.533400
  C    -119.465000   63.310000  -79.335900
  H    -120.367000   63.588300  -79.838300
  H    -119.083000   64.272200  -79.265000
  C    -119.791000   62.723300  -77.922000
  H    -120.349000   63.487400  -77.383100
  H    -120.532000   61.885400  -77.944500
  C    -118.583000   62.324800  -77.101100
  H    -117.896000   61.727700  -77.696900
  H    -118.093000   63.281000  -76.707900
  H    -118.820000   61.635800  -76.279300
  S    -114.120000   62.026100  -82.269300
  C    -112.605000   61.933700  -81.554200
  C    -112.630000   61.520000  -80.220100
  C    -113.936000   61.442400  -79.681500
  C    -114.872000   61.705500  -80.642100
  H    -111.720000   61.331100  -79.600700
  C    -114.243000   61.045900  -78.236700
  H    -115.032000   61.652700  -77.756700
  H    -113.286000   61.293000  -77.645600
  C    -114.560000   59.555800  -78.024400
  H    -113.524000   59.114500  -78.102700
  H    -115.318000   59.217800  -78.728500
  C    -115.103000   59.165100  -76.593100
  H    -115.299000   58.116200  -76.610400
  H    -116.050000   59.584200  -76.272100
  H    -114.355000   59.465600  -75.800500
  H    -119.743000   61.093100  -81.076700
  H    -111.697000   61.998900  -82.089400

 Total Charge           Charge          ....    0
 Multiplicity           Mult            ....    1
 Number of Electrons    NEL             ....  134
 Basis Dimension        Dim             ....  322

ORBITAL ENERGIES
----------------

  NO   OCC          E(Eh)            E(eV)
   0   2.0000     -88.966985     -2420.9147
   1   2.0000     -88.966443     -2420.9000
   2   2.0000     -10.324091      -280.9328
   3   2.0000     -10.319912      -280.8191
   4   2.0000     -10.311633      -280.5938
   5   2.0000     -10.308221      -280.5009
   6   2.0000     -10.302049      -280.3330
   7   2.0000     -10.299138      -280.2538
   8   2.0000     -10.297315      -280.2042
   9   2.0000     -10.294248      -280.1207
  10   2.0000     -10.292394      -280.0703
  11   2.0000     -10.290572      -280.0207
  12   2.0000     -10.287120      -279.9268
  13   2.0000     -10.284167      -279.8464
  14   2.0000     -10.280607      -279.7495
  15   2.0000     -10.279801      -279.7276
  16   2.0000      -8.082411      -219.9336
  17   2.0000      -8.081664      -219.9133
  18   2.0000      -6.040810      -164.3788
  19   2.0000      -6.039967      -164.3559
  20   2.0000      -6.036688      -164.2666
  21   2.0000      -6.036224      -164.2540
  22   2.0000      -6.033381      -164.1767
  23   2.0000      -6.032492      -164.1525
  24   2.0000      -1.010594       -27.4997
  25   2.0000      -0.988096       -26.8874
  26   2.0000      -0.917208       -24.9585
  27   2.0000      -0.904391       -24.6097
  28   2.0000      -0.865839       -23.5607
  29   2.0000      -0.852426       -23.1957
  30   2.0000      -0.844478       -22.9794
  31   2.0000      -0.809249       -22.0208
  32   2.0000      -0.788116       -21.4457
  33   2.0000      -0.776934       -21.1415
  34   2.0000      -0.704112       -19.1599
  35   2.0000      -0.700980       -19.0746
  36   2.0000      -0.687632       -18.7114
  37   2.0000      -0.660416       -17.9708
  38   2.0000      -0.646009       -17.5788
  39   2.0000      -0.612562       -16.6686
  40   2.0000      -0.598045       -16.2736
  41   2.0000      -0.573890       -15.6163
  42   2.0000      -0.564936       -15.3727
  43   2.0000      -0.549805       -14.9609
  44   2.0000      -0.545512       -14.8441
  45   2.0000      -0.520128       -14.1534
  46   2.0000      -0.512040       -13.9333
  47   2.0000      -0.507316       -13.8048
  48   2.0000      -0.504183       -13.7195
  49   2.0000      -0.499222       -13.5845
  50   2.0000      -0.491596       -13.3770
  51   2.0000      -0.476916       -12.9775
  52   2.0000      -0.470864       -12.8129
  53   2.0000      -0.462933       -12.5971
  54   2.0000      -0.461230       -12.5507
  55   2.0000      -0.444430       -12.0936
  56   2.0000      -0.443473       -12.0675
  57   2.0000      -0.437124       -11.8948
  58   2.0000      -0.436773       -11.8852
  59   2.0000      -0.427482       -11.6324
  60   2.0000      -0.418796       -11.3960
  61   2.0000      -0.413831       -11.2609
  62   2.0000      -0.410964       -11.1829
  63   2.0000      -0.338210        -9.2032
  64   2.0000      -0.332074        -9.0362
  65   2.0000      -0.325491        -8.8571
  66   2.0000      -0.301072        -8.1926
  67   0.0000       0.041936         1.1411
  68   0.0000       0.056715         1.5433
  69   0.0000       0.112554         3.0627
  70   0.0000       0.122491         3.3332
  71   0.0000       0.127105         3.4587

MULLIKEN ATOMIC CHARGES
-----------------------
   0 S :    0.123651
   1 C :   -0.091816
   2 C :   -0.109525
   3 C :    0.052385
   4 C :   -0.185007
   5 H :   -0.003877
   6 C :    0.137364
   7 H :    0.011131
   8 H :   -0.004526
   9 C :   -0.075576
  10 H :    0.025302
  11 H :    0.030446
  12 C :   -0.077296
  13 H :    0.052960
  14 H :    0.041858
  15 H :    0.034130
  16 S :    0.125943
  17 C :   -0.064074
  18 C :   -0.067243
  19 C :    0.011888
  20 C :   -0.200075
  21 H :    0.027623
  22 C :    0.046911
  23 H :    0.030743
  24 H :    0.026138
  25 C :   -0.088266
  26 H :    0.042125
  27 H :    0.042941
  28 C :   -0.054116
  29 H :    0.034546
  30 H :    0.027180
  31 H :    0.036115
  32 H :    0.016184
  33 H :    0.043832
Sum of atomic charges:    0.0000000

LOEWDIN ATOMIC CHARGES
----------------------
   0 S :    0.432350
   1 C :   -0.185866
   2 C :   -0.061187
   3 C :   -0.054332
   4 C :   -0.224395
   5 H :    0.024008
   6 C :   -0.033481
   7 H :    0.032097
   8 H :    0.025329
   9 C :   -0.038517
  10 H :    0.023188
  11 H :    0.025407
  12 C :   -0.074025
  13 H :    0.025374
  14 H :    0.033248
  15 H :    0.028313
  16 S :    0.412993
  17 C :   -0.197799
  18 C :   -0.081047
  19 C :   -0.052443
  20 C :   -0.183662
  21 H :    0.035865
  22 C :   -0.038020
  23 H :    0.029498
  24 H :    0.034729
  25 C :   -0.039651
  26 H :    0.034400
  27 H :    0.024820
  28 C :   -0.070342
  29 H :    0.024844
  30 H :    0.021237
  31 H :    0.029739
  32 H :    0.015796
  33 H :    0.021532

  Mayer bond orders larger than 0.100000
B(  0-S ,  1-C ) :   1.1410 B(  0-S ,  4-C ) :   1.1682 B(  1-C ,  2-C ) :   1.6000
B(  1-C , 32-H ) :   0.9761 B(  2-C ,  3-C ) :   1.2342 B(  2-C ,  6-C ) :   1.0451
B(  3-C ,  4-C ) :   1.5797 B(  3-C ,  5-H ) :   0.9961 B(  4-C , 20-C ) :   1.0110
B(  6-C ,  7-H ) :   0.9258 B(  6-C ,  8-H ) :   0.9227 B(  6-C ,  9-C ) :   1.0584
B(  9-C , 10-H ) :   0.9565 B(  9-C , 11-H ) :   0.9584 B(  9-C , 12-C ) :   1.0819
B( 12-C , 13-H ) :   0.9687 B( 12-C , 14-H ) :   0.9749 B( 12-C , 15-H ) :   0.9705
B( 16-S , 17-C ) :   1.1806 B( 16-S , 20-C ) :   1.1345 B( 17-C , 18-C ) :   1.5918
B( 17-C , 20-C ) :   0.1004 B( 17-C , 33-H ) :   0.9685 B( 18-C , 19-C ) :   1.2580
B( 18-C , 21-H ) :   0.9796 B( 19-C , 20-C ) :   1.6211 B( 19-C , 22-C ) :   1.0362
B( 22-C , 23-H ) :   0.9358 B( 22-C , 24-H ) :   0.9344 B( 22-C , 25-C ) :   1.0576
B( 25-C , 26-H ) :   0.9558 B( 25-C , 27-H ) :   0.9595 B( 25-C , 28-C ) :   1.0813
B( 28-C , 29-H ) :   0.9747 B( 28-C , 30-H ) :   0.9752 B( 28-C , 31-H ) :   0.9745

Dispersion correction           -0.015802178
FINAL SINGLE POINT ENERGY     -1339.876415298493

DIPOLE MOMENT
-------------
                                X             Y             Z
Electronic contribution:      7.68209       1.60773     -27.66000
Nuclear contribution   :     -7.81838      -1.50056      28.20295
                        -----------------------------------------
Total Dipole Moment    :     -0.13629       0.10716       0.54294
                        -----------------------------------------
Magnitude (a.u.)       :      0.56995
Magnitude (Debye)      :      1.44871

Rotational constants in cm-1:     0.017866     0.010286     0.007772
Rotational constants in MHz :   535.615126   308.367195   233.003828

                             ****ORCA TERMINATED NORMALLY****
TOTAL RUN TIME: 0 days 0 hours 0 minutes 21 seconds 715 msec
