                         Program Version 4.2.1 -  RELEASE  -
|  1> ! wB97X-D3 SP def2-SVP
|  2> %pal
|  3> nprocs 24
|  4> end
|  5>
|  6> * xyz 0 1
|  7> S 	 -110.414 	 59.0116 	 -93.7558
|  8> C 	 -109.625 	 59.8552 	 -92.4682
|  9> C 	 -108.268 	 59.5986 	 -92.4442
| 10> C 	 -107.822 	 58.998 	 -93.6814
| 11> C 	 -108.905 	 58.5328 	 -94.479
| 12> H 	 -106.775 	 58.8386 	 -93.9418
| 13> C 	 -107.33 	 60.1193 	 -91.3879
| 14> H 	 -106.498 	 59.4877 	 -91.4531
| 15> H 	 -107.692 	 59.9851 	 -90.3251
| 16> C 	 -106.879 	 61.5017 	 -91.6841
| 17> H 	 -105.965 	 61.7533 	 -91.1575
| 18> H 	 -106.634 	 61.5038 	 -92.7204
| 19> C 	 -107.965 	 62.5848 	 -91.3358
| 20> H 	 -108.732 	 62.4345 	 -92.1229
| 21> H 	 -108.442 	 62.5511 	 -90.3463
| 22> H 	 -107.646 	 63.6209 	 -91.5566
| 23> S 	 -109.416 	 58.7729 	 -97.2208
| 24> C 	 -109.235 	 57.3397 	 -98.1788
| 25> C 	 -108.895 	 56.2708 	 -97.4325
| 26> C 	 -108.784 	 56.4577 	 -95.9911
| 27> C 	 -109.001 	 57.8168 	 -95.7223
| 28> H 	 -108.714 	 55.3568 	 -97.9771
| 29> C 	 -108.282 	 55.3469 	 -94.9946
| 30> H 	 -108.86 	 54.3874 	 -95.1355
| 31> H 	 -108.634 	 55.5766 	 -93.9886
| 32> C 	 -106.8 	 54.993 	 -95.2046
| 33> H 	 -106.152 	 55.8817 	 -94.9895
| 34> H 	 -106.645 	 54.5016 	 -96.1994
| 35> C 	 -106.211 	 54.1873 	 -94.0565
| 36> H 	 -105.098 	 54.1193 	 -93.9509
| 37> H 	 -106.548 	 53.176 	 -94.0574
| 38> H 	 -106.393 	 54.6959 	 -93.0776
| 39> H 	 -110.163 	 60.3151 	 -91.6139
| 40> H 	 -109.426 	 57.2963 	 -99.1884
| 41> *
| 42>
| 43>                          ****END OF INPUT****

CARTESIAN COORDINATES (ANGSTROEM)
---------------------------------
  S    -110.414000   59.011600  -93.755800
  C    -109.625000   59.855200  -92.468200
  C    -108.268000   59.598600  -92.444200
  C    -107.822000   58.998000  -93.681400
  C    -108.905000   58.532800  -94.479000
  H    -106.775000   58.838600  -93.941800
  C    -107.330000   60.119300  -91.387900
  H    -106.498000   59.487700  -91.453100
  H    -107.692000   59.985100  -90.325100
  C    -106.879000   61.501700  -91.684100
  H    -105.965000   61.753300  -91.157500
  H    -106.634000   61.503800  -92.720400
  C    -107.965000   62.584800  -91.335800
  H    -108.732000   62.434500  -92.122900
  H    -108.442000   62.551100  -90.346300
  H    -107.646000   63.620900  -91.556600
  S    -109.416000   58.772900  -97.220800
  C    -109.235000   57.339700  -98.178800
  C    -108.895000   56.270800  -97.432500
  C    -108.784000   56.457700  -95.991100
  C    -109.001000   57.816800  -95.722300
  H    -108.714000   55.356800  -97.977100
  C    -108.282000   55.346900  -94.994600
  H    -108.860000   54.387400  -95.135500
  H    -108.634000   55.576600  -93.988600
  C    -106.800000   54.993000  -95.204600
  H    -106.152000   55.881700  -94.989500
  H    -106.645000   54.501600  -96.199400
  C    -106.211000   54.187300  -94.056500
  H    -105.098000   54.119300  -93.950900
  H    -106.548000   53.176000  -94.057400
  H    -106.393000   54.695900  -93.077600
  H    -110.163000   60.315100  -91.613900
  H    -109.426000   57.296300  -99.188400

 Total Charge           Charge          ....    0
 Multiplicity           Mult            ....    1
 Number of Electrons    NEL             ....  134
 Basis Dimension        Dim             ....  322

ORBITAL ENERGIES
----------------

  NO   OCC          E(Eh)            E(eV)
   0   2.0000     -88.963314     -2420.8148
   1   2.0000     -88.962464     -2420.7917
   2   2.0000     -10.331239      -281.1273
   3   2.0000     -10.329454      -281.0787
   4   2.0000     -10.315074      -280.6874
   5   2.0000     -10.312075      -280.6058
   6   2.0000     -10.308169      -280.4995
   7   2.0000     -10.304978      -280.4127
   8   2.0000     -10.303581      -280.3747
   9   2.0000     -10.300351      -280.2868
  10   2.0000     -10.296627      -280.1855
  11   2.0000     -10.290415      -280.0164
  12   2.0000     -10.286931      -279.9216
  13   2.0000     -10.282353      -279.7971
  14   2.0000     -10.281052      -279.7616
  15   2.0000     -10.279816      -279.7280
  16   2.0000      -8.078620      -219.8304
  17   2.0000      -8.076763      -219.7799
  18   2.0000      -6.036991      -164.2749
  19   2.0000      -6.035335      -164.2298
  20   2.0000      -6.032887      -164.1632
  21   2.0000      -6.031470      -164.1247
  22   2.0000      -6.029643      -164.0749
  23   2.0000      -6.027333      -164.0121
  24   2.0000      -1.002270       -27.2732
  25   2.0000      -0.979914       -26.6648
  26   2.0000      -0.919297       -25.0153
  27   2.0000      -0.906812       -24.6756
  28   2.0000      -0.867845       -23.6153
  29   2.0000      -0.847184       -23.0530
  30   2.0000      -0.840657       -22.8754
  31   2.0000      -0.808185       -21.9918
  32   2.0000      -0.785757       -21.3815
  33   2.0000      -0.775190       -21.0940
  34   2.0000      -0.709762       -19.3136
  35   2.0000      -0.695047       -18.9132
  36   2.0000      -0.692489       -18.8436
  37   2.0000      -0.654229       -17.8025
  38   2.0000      -0.639623       -17.4050
  39   2.0000      -0.618823       -16.8390
  40   2.0000      -0.598071       -16.2743
  41   2.0000      -0.573641       -15.6096
  42   2.0000      -0.570938       -15.5360
  43   2.0000      -0.546437       -14.8693
  44   2.0000      -0.539565       -14.6823
  45   2.0000      -0.519159       -14.1270
  46   2.0000      -0.516424       -14.0526
  47   2.0000      -0.515214       -14.0197
  48   2.0000      -0.506673       -13.7873
  49   2.0000      -0.490844       -13.3565
  50   2.0000      -0.484662       -13.1883
  51   2.0000      -0.483146       -13.1471
  52   2.0000      -0.474954       -12.9241
  53   2.0000      -0.460673       -12.5355
  54   2.0000      -0.458368       -12.4728
  55   2.0000      -0.442295       -12.0355
  56   2.0000      -0.440700       -11.9921
  57   2.0000      -0.436684       -11.8828
  58   2.0000      -0.432703       -11.7744
  59   2.0000      -0.430128       -11.7044
  60   2.0000      -0.424331       -11.5466
  61   2.0000      -0.405699       -11.0396
  62   2.0000      -0.404395       -11.0041
  63   2.0000      -0.334984        -9.1154
  64   2.0000      -0.327357        -8.9078
  65   2.0000      -0.323193        -8.7945
  66   2.0000      -0.307172        -8.3586
  67   0.0000       0.038395         1.0448
  68   0.0000       0.056703         1.5430
  69   0.0000       0.111002         3.0205
  70   0.0000       0.118312         3.2194
  71   0.0000       0.129850         3.5334

MULLIKEN ATOMIC CHARGES
-----------------------
   0 S :    0.122900
   1 C :   -0.120921
   2 C :   -0.141968
   3 C :    0.049436
   4 C :   -0.185537
   5 H :    0.019068
   6 C :    0.084225
   7 H :    0.000020
   8 H :    0.036733
   9 C :   -0.032456
  10 H :    0.025745
  11 H :    0.017068
  12 C :   -0.083346
  13 H :    0.036167
  14 H :    0.040645
  15 H :    0.034267
  16 S :    0.103020
  17 C :   -0.051481
  18 C :   -0.040864
  19 C :    0.026603
  20 C :   -0.199021
  21 H :    0.011004
  22 C :    0.063051
  23 H :    0.030611
  24 H :    0.028557
  25 C :   -0.072850
  26 H :    0.040850
  27 H :    0.052472
  28 C :   -0.078435
  29 H :    0.035876
  30 H :    0.024721
  31 H :    0.032509
  32 H :    0.064223
  33 H :    0.027105
Sum of atomic charges:   -0.0000000

LOEWDIN ATOMIC CHARGES
----------------------
   0 S :    0.427519
   1 C :   -0.211047
   2 C :   -0.065896
   3 C :   -0.057998
   4 C :   -0.204794
   5 H :    0.031831
   6 C :   -0.034179
   7 H :    0.023290
   8 H :    0.036075
   9 C :   -0.032415
  10 H :    0.020223
  11 H :    0.024026
  12 C :   -0.076358
  13 H :    0.029499
  14 H :    0.024870
  15 H :    0.027620
  16 S :    0.377335
  17 C :   -0.172268
  18 C :   -0.074394
  19 C :   -0.037945
  20 C :   -0.190446
  21 H :    0.027755
  22 C :   -0.032611
  23 H :    0.037520
  24 H :    0.032171
  25 C :   -0.048020
  26 H :    0.035987
  27 H :    0.033142
  28 C :   -0.075932
  29 H :    0.030465
  30 H :    0.013573
  31 H :    0.031163
  32 H :    0.034599
  33 H :    0.015641

  Mayer bond orders larger than 0.100000
B(  0-S ,  1-C ) :   1.1544 B(  0-S ,  4-C ) :   1.1795 B(  1-C ,  2-C ) :   1.5999
B(  1-C ,  4-C ) :   0.1005 B(  1-C , 32-H ) :   0.9570 B(  2-C ,  3-C ) :   1.2463
B(  2-C ,  6-C ) :   1.0369 B(  3-C ,  4-C ) :   1.5580 B(  3-C ,  5-H ) :   0.9918
B(  4-C , 20-C ) :   1.0330 B(  6-C ,  7-H ) :   0.9213 B(  6-C ,  8-H ) :   0.9436
B(  6-C ,  9-C ) :   1.0797 B(  9-C , 10-H ) :   0.9562 B(  9-C , 11-H ) :   0.9493
B(  9-C , 12-C ) :   1.0710 B( 12-C , 13-H ) :   0.9703 B( 12-C , 14-H ) :   0.9782
B( 12-C , 15-H ) :   0.9739 B( 16-S , 17-C ) :   1.1306 B( 16-S , 20-C ) :   1.1274
B( 17-C , 18-C ) :   1.6682 B( 17-C , 33-H ) :   0.9736 B( 18-C , 19-C ) :   1.1885
B( 18-C , 21-H ) :   0.9854 B( 19-C , 20-C ) :   1.6272 B( 19-C , 22-C ) :   1.0420
B( 22-C , 23-H ) :   0.9353 B( 22-C , 24-H ) :   0.9364 B( 22-C , 25-C ) :   1.0562
B( 25-C , 26-H ) :   0.9586 B( 25-C , 27-H ) :   0.9537 B( 25-C , 28-C ) :   1.0695
B( 28-C , 29-H ) :   0.9769 B( 28-C , 30-H ) :   0.9742 B( 28-C , 31-H ) :   0.9737

Dispersion correction           -0.014297723
FINAL SINGLE POINT ENERGY     -1339.864429924242

DIPOLE MOMENT
-------------
                                X             Y             Z
Electronic contribution:    -17.29372       3.55183     -15.85312
Nuclear contribution   :     17.79805      -3.90041      16.10615
                        -----------------------------------------
Total Dipole Moment    :      0.50433      -0.34857       0.25303
                        -----------------------------------------
Magnitude (a.u.)       :      0.66323
Magnitude (Debye)      :      1.68579

Rotational constants in cm-1:     0.018905     0.008334     0.006616
Rotational constants in MHz :   566.748869   249.847932   198.333451

                             ****ORCA TERMINATED NORMALLY****
TOTAL RUN TIME: 0 days 0 hours 0 minutes 21 seconds 197 msec
