                         Program Version 4.2.1 -  RELEASE  -
|  1> ! wB97X-D3 SP def2-SVP
|  2> %pal
|  3> nprocs 24
|  4> end
|  5>
|  6> * xyz 0 1
|  7> S 	 -63.3852 	 9.95912 	 -76.3899
|  8> C 	 -62.6363 	 8.49378 	 -75.8533
|  9> C 	 -62.7119 	 7.50799 	 -76.8176
| 10> C 	 -63.3914 	 7.94705 	 -78.0587
| 11> C 	 -63.8064 	 9.26921 	 -77.946
| 12> H 	 -63.6577 	 7.3974 	 -78.8895
| 13> C 	 -62.0818 	 6.12621 	 -76.6723
| 14> H 	 -62.8333 	 5.42954 	 -76.3394
| 15> H 	 -61.3177 	 6.27216 	 -75.949
| 16> C 	 -61.3734 	 5.63408 	 -77.9438
| 17> H 	 -61.023 	 4.6655 	 -77.6865
| 18> H 	 -61.8653 	 5.62596 	 -78.9212
| 19> C 	 -60.2556 	 6.61903 	 -78.0912
| 20> H 	 -60.5913 	 7.51942 	 -78.5113
| 21> H 	 -59.6677 	 6.84678 	 -77.1629
| 22> H 	 -59.5703 	 6.26663 	 -78.8754
| 23> S 	 -64.1103 	 11.7949 	 -78.8716
| 24> C 	 -65.1559 	 12.2445 	 -80.1499
| 25> C 	 -65.7867 	 11.0959 	 -80.6376
| 26> C 	 -65.2607 	 9.86416 	 -80.0392
| 27> C 	 -64.3994 	 10.1138 	 -78.9874
| 28> H 	 -66.439 	 11.2733 	 -81.3996
| 29> C 	 -65.7056 	 8.52897 	 -80.5592
| 30> H 	 -64.8391 	 7.78774 	 -80.488
| 31> H 	 -65.8678 	 8.62582 	 -81.6247
| 32> C 	 -66.7695 	 7.96447 	 -79.7382
| 33> H 	 -67.5312 	 8.62734 	 -79.3948
| 34> H 	 -66.3465 	 7.7349 	 -78.7628
| 35> C 	 -67.2922 	 6.66943 	 -80.3386
| 36> H 	 -66.4917 	 5.93394 	 -80.5825
| 37> H 	 -67.6913 	 6.74872 	 -81.2994
| 38> H 	 -68.1293 	 6.28894 	 -79.7254
| 39> H 	 -62.1217 	 8.30012 	 -74.9604
| 40> H 	 -65.1844 	 13.3151 	 -80.541
| 41> *
| 42>
| 43>                          ****END OF INPUT****

CARTESIAN COORDINATES (ANGSTROEM)
---------------------------------
  S    -63.385200    9.959120  -76.389900
  C    -62.636300    8.493780  -75.853300
  C    -62.711900    7.507990  -76.817600
  C    -63.391400    7.947050  -78.058700
  C    -63.806400    9.269210  -77.946000
  H    -63.657700    7.397400  -78.889500
  C    -62.081800    6.126210  -76.672300
  H    -62.833300    5.429540  -76.339400
  H    -61.317700    6.272160  -75.949000
  C    -61.373400    5.634080  -77.943800
  H    -61.023000    4.665500  -77.686500
  H    -61.865300    5.625960  -78.921200
  C    -60.255600    6.619030  -78.091200
  H    -60.591300    7.519420  -78.511300
  H    -59.667700    6.846780  -77.162900
  H    -59.570300    6.266630  -78.875400
  S    -64.110300   11.794900  -78.871600
  C    -65.155900   12.244500  -80.149900
  C    -65.786700   11.095900  -80.637600
  C    -65.260700    9.864160  -80.039200
  C    -64.399400   10.113800  -78.987400
  H    -66.439000   11.273300  -81.399600
  C    -65.705600    8.528970  -80.559200
  H    -64.839100    7.787740  -80.488000
  H    -65.867800    8.625820  -81.624700
  C    -66.769500    7.964470  -79.738200
  H    -67.531200    8.627340  -79.394800
  H    -66.346500    7.734900  -78.762800
  C    -67.292200    6.669430  -80.338600
  H    -66.491700    5.933940  -80.582500
  H    -67.691300    6.748720  -81.299400
  H    -68.129300    6.288940  -79.725400
  H    -62.121700    8.300120  -74.960400
  H    -65.184400   13.315100  -80.541000

 Total Charge           Charge          ....    0
 Multiplicity           Mult            ....    1
 Number of Electrons    NEL             ....  134
 Basis Dimension        Dim             ....  322

ORBITAL ENERGIES
----------------

  NO   OCC          E(Eh)            E(eV)
   0   2.0000     -88.966747     -2420.9083
   1   2.0000     -88.960951     -2420.7505
   2   2.0000     -10.334463      -281.2150
   3   2.0000     -10.325235      -280.9639
   4   2.0000     -10.322075      -280.8780
   5   2.0000     -10.307838      -280.4905
   6   2.0000     -10.306565      -280.4559
   7   2.0000     -10.303661      -280.3769
   8   2.0000     -10.293709      -280.1061
   9   2.0000     -10.293642      -280.1042
  10   2.0000     -10.291900      -280.0568
  11   2.0000     -10.287397      -279.9343
  12   2.0000     -10.281985      -279.7870
  13   2.0000     -10.276323      -279.6330
  14   2.0000     -10.274564      -279.5851
  15   2.0000     -10.267806      -279.4012
  16   2.0000      -8.081534      -219.9097
  17   2.0000      -8.077442      -219.7984
  18   2.0000      -6.040185      -164.3618
  19   2.0000      -6.036016      -164.2483
  20   2.0000      -6.035884      -164.2447
  21   2.0000      -6.032151      -164.1432
  22   2.0000      -6.031459      -164.1244
  23   2.0000      -6.028389      -164.0408
  24   2.0000      -1.011814       -27.5328
  25   2.0000      -0.985185       -26.8083
  26   2.0000      -0.924676       -25.1617
  27   2.0000      -0.921361       -25.0715
  28   2.0000      -0.872926       -23.7535
  29   2.0000      -0.852855       -23.2074
  30   2.0000      -0.840779       -22.8788
  31   2.0000      -0.819941       -22.3117
  32   2.0000      -0.781831       -21.2747
  33   2.0000      -0.772106       -21.0101
  34   2.0000      -0.714387       -19.4395
  35   2.0000      -0.704240       -19.1633
  36   2.0000      -0.691470       -18.8159
  37   2.0000      -0.669291       -18.2123
  38   2.0000      -0.642652       -17.4875
  39   2.0000      -0.625832       -17.0297
  40   2.0000      -0.601520       -16.3682
  41   2.0000      -0.574193       -15.6246
  42   2.0000      -0.563963       -15.3462
  43   2.0000      -0.557392       -15.1674
  44   2.0000      -0.542841       -14.7714
  45   2.0000      -0.537924       -14.6377
  46   2.0000      -0.518984       -14.1223
  47   2.0000      -0.517196       -14.0736
  48   2.0000      -0.506146       -13.7729
  49   2.0000      -0.502988       -13.6870
  50   2.0000      -0.493985       -13.4420
  51   2.0000      -0.482604       -13.1323
  52   2.0000      -0.473379       -12.8813
  53   2.0000      -0.464680       -12.6446
  54   2.0000      -0.455249       -12.3880
  55   2.0000      -0.450834       -12.2678
  56   2.0000      -0.445409       -12.1202
  57   2.0000      -0.443106       -12.0575
  58   2.0000      -0.439332       -11.9548
  59   2.0000      -0.424269       -11.5450
  60   2.0000      -0.414574       -11.2811
  61   2.0000      -0.407831       -11.0977
  62   2.0000      -0.403982       -10.9929
  63   2.0000      -0.360264        -9.8033
  64   2.0000      -0.328955        -8.9513
  65   2.0000      -0.324036        -8.8175
  66   2.0000      -0.287467        -7.8224
  67   0.0000       0.027120         0.7380
  68   0.0000       0.082479         2.2444
  69   0.0000       0.112300         3.0558
  70   0.0000       0.117091         3.1862
  71   0.0000       0.130652         3.5552

MULLIKEN ATOMIC CHARGES
-----------------------
   0 S :    0.111196
   1 C :   -0.084672
   2 C :   -0.139909
   3 C :    0.044190
   4 C :   -0.108129
   5 H :   -0.033649
   6 C :    0.101904
   7 H :    0.039858
   8 H :    0.006622
   9 C :   -0.048819
  10 H :    0.021686
  11 H :    0.038749
  12 C :   -0.063531
  13 H :    0.031113
  14 H :    0.034439
  15 H :    0.020938
  16 S :    0.093301
  17 C :   -0.131129
  18 C :    0.001298
  19 C :   -0.067313
  20 C :   -0.113997
  21 H :   -0.015031
  22 C :    0.042372
  23 H :    0.023700
  24 H :    0.023156
  25 C :   -0.039601
  26 H :    0.019108
  27 H :    0.021542
  28 C :   -0.009730
  29 H :    0.020461
  30 H :    0.004156
  31 H :    0.039184
  32 H :    0.023263
  33 H :    0.093274
Sum of atomic charges:    0.0000000

LOEWDIN ATOMIC CHARGES
----------------------
   0 S :    0.407901
   1 C :   -0.205496
   2 C :   -0.050007
   3 C :   -0.061838
   4 C :   -0.177322
   5 H :    0.012485
   6 C :   -0.023664
   7 H :    0.027804
   8 H :    0.024686
   9 C :   -0.038069
  10 H :    0.020502
  11 H :    0.029104
  12 C :   -0.063739
  13 H :    0.019945
  14 H :    0.027786
  15 H :    0.023231
  16 S :    0.432600
  17 C :   -0.207680
  18 C :   -0.062944
  19 C :   -0.052843
  20 C :   -0.212274
  21 H :    0.014681
  22 C :   -0.034889
  23 H :    0.034122
  24 H :    0.028500
  25 C :   -0.045564
  26 H :    0.023756
  27 H :    0.029918
  28 C :   -0.065541
  29 H :    0.029163
  30 H :    0.013710
  31 H :    0.031919
  32 H :    0.021324
  33 H :    0.048730

  Mayer bond orders larger than 0.100000
B(  0-S ,  1-C ) :   1.1154 B(  0-S ,  4-C ) :   1.1510 B(  1-C ,  2-C ) :   1.6510
B(  1-C , 32-H ) :   0.9687 B(  2-C ,  3-C ) :   1.2056 B(  2-C ,  6-C ) :   1.0105
B(  3-C ,  4-C ) :   1.5695 B(  3-C ,  5-H ) :   1.0036 B(  4-C , 20-C ) :   1.0602
B(  6-C ,  7-H ) :   0.9312 B(  6-C ,  8-H ) :   0.9461 B(  6-C ,  9-C ) :   1.0787
B(  9-C , 10-H ) :   0.9539 B(  9-C , 11-H ) :   0.9513 B(  9-C , 12-C ) :   1.0800
B( 12-C , 13-H ) :   0.9698 B( 12-C , 14-H ) :   0.9756 B( 12-C , 15-H ) :   0.9690
B( 16-S , 17-C ) :   1.1788 B( 16-S , 20-C ) :   1.1490 B( 17-C , 18-C ) :   1.5726
B( 17-C , 33-H ) :   0.9606 B( 18-C , 19-C ) :   1.2431 B( 18-C , 21-H ) :   1.0126
B( 19-C , 20-C ) :   1.5696 B( 19-C , 22-C ) :   1.0462 B( 22-C , 23-H ) :   0.9336
B( 22-C , 24-H ) :   0.9360 B( 22-C , 25-C ) :   1.0623 B( 25-C , 26-H ) :   0.9525
B( 25-C , 27-H ) :   0.9406 B( 25-C , 28-C ) :   1.0827 B( 28-C , 29-H ) :   0.9662
B( 28-C , 30-H ) :   0.9720 B( 28-C , 31-H ) :   0.9717

Dispersion correction           -0.014757650
FINAL SINGLE POINT ENERGY     -1339.856753290850

DIPOLE MOMENT
-------------
                                X             Y             Z
Electronic contribution:     -0.20541      25.14619       8.19179
Nuclear contribution   :      0.12830     -25.60116      -8.57181
                        -----------------------------------------
Total Dipole Moment    :     -0.07712      -0.45497      -0.38002
                        -----------------------------------------
Magnitude (a.u.)       :      0.59779
Magnitude (Debye)      :      1.51947

Rotational constants in cm-1:     0.017703     0.009806     0.007413
Rotational constants in MHz :   530.717307   293.990714   222.250574

                             ****ORCA TERMINATED NORMALLY****
TOTAL RUN TIME: 0 days 0 hours 0 minutes 22 seconds 291 msec
