                         Program Version 4.2.1 -  RELEASE  -
|  1> ! wB97X-D3 SP def2-SVP
|  2> %pal
|  3> nprocs 24
|  4> end
|  5>
|  6> * xyz 0 1
|  7> S 	 -35.9333 	 -29.9494 	 -99.379
|  8> C 	 -34.9346 	 -29.8426 	 -100.83
|  9> C 	 -34.8417 	 -31.0554 	 -101.53
| 10> C 	 -35.4554 	 -32.0844 	 -100.775
| 11> C 	 -36.0072 	 -31.7023 	 -99.5435
| 12> H 	 -35.497 	 -33.131 	 -101.139
| 13> C 	 -34.2187 	 -31.3334 	 -102.865
| 14> H 	 -33.95 	 -32.3971 	 -102.977
| 15> H 	 -33.2401 	 -30.8326 	 -102.87
| 16> C 	 -35.0541 	 -30.8812 	 -104.054
| 17> H 	 -35.3204 	 -29.8143 	 -103.979
| 18> H 	 -34.5706 	 -31.0563 	 -105.009
| 19> C 	 -36.3879 	 -31.619 	 -104.043
| 20> H 	 -36.2006 	 -32.6512 	 -103.757
| 21> H 	 -37.1204 	 -31.1302 	 -103.325
| 22> H 	 -36.7032 	 -31.5492 	 -105.094
| 23> S 	 -37.9749 	 -32.7914 	 -98.0777
| 24> C 	 -37.7055 	 -34.2647 	 -97.2264
| 25> C 	 -36.3957 	 -34.6415 	 -97.3128
| 26> C 	 -35.5701 	 -33.752 	 -98.024
| 27> C 	 -36.3092 	 -32.6598 	 -98.5229
| 28> H 	 -36.1109 	 -35.6333 	 -96.9763
| 29> C 	 -34.2272 	 -34.1909 	 -98.5239
| 30> H 	 -34.1818 	 -33.996 	 -99.5859
| 31> H 	 -34.0845 	 -35.2435 	 -98.5628
| 32> C 	 -33.0697 	 -33.2784 	 -98.0373
| 33> H 	 -33.2593 	 -33.2564 	 -96.9898
| 34> H 	 -33.1259 	 -32.2705 	 -98.3314
| 35> C 	 -31.6922 	 -33.8789 	 -98.3382
| 36> H 	 -31.5146 	 -33.9342 	 -99.3594
| 37> H 	 -31.6303 	 -34.8612 	 -97.884
| 38> H 	 -30.9689 	 -33.1927 	 -97.9573
| 39> H 	 -34.6119 	 -28.8348 	 -101.174
| 40> H 	 -38.3413 	 -34.9054 	 -96.7181
| 41> *
| 42>
| 43>                          ****END OF INPUT****

CARTESIAN COORDINATES (ANGSTROEM)
---------------------------------
  S    -35.933300  -29.949400  -99.379000
  C    -34.934600  -29.842600  -100.830000
  C    -34.841700  -31.055400  -101.530000
  C    -35.455400  -32.084400  -100.775000
  C    -36.007200  -31.702300  -99.543500
  H    -35.497000  -33.131000  -101.139000
  C    -34.218700  -31.333400  -102.865000
  H    -33.950000  -32.397100  -102.977000
  H    -33.240100  -30.832600  -102.870000
  C    -35.054100  -30.881200  -104.054000
  H    -35.320400  -29.814300  -103.979000
  H    -34.570600  -31.056300  -105.009000
  C    -36.387900  -31.619000  -104.043000
  H    -36.200600  -32.651200  -103.757000
  H    -37.120400  -31.130200  -103.325000
  H    -36.703200  -31.549200  -105.094000
  S    -37.974900  -32.791400  -98.077700
  C    -37.705500  -34.264700  -97.226400
  C    -36.395700  -34.641500  -97.312800
  C    -35.570100  -33.752000  -98.024000
  C    -36.309200  -32.659800  -98.522900
  H    -36.110900  -35.633300  -96.976300
  C    -34.227200  -34.190900  -98.523900
  H    -34.181800  -33.996000  -99.585900
  H    -34.084500  -35.243500  -98.562800
  C    -33.069700  -33.278400  -98.037300
  H    -33.259300  -33.256400  -96.989800
  H    -33.125900  -32.270500  -98.331400
  C    -31.692200  -33.878900  -98.338200
  H    -31.514600  -33.934200  -99.359400
  H    -31.630300  -34.861200  -97.884000
  H    -30.968900  -33.192700  -97.957300
  H    -34.611900  -28.834800  -101.174000
  H    -38.341300  -34.905400  -96.718100

 Total Charge           Charge          ....    0
 Multiplicity           Mult            ....    1
 Number of Electrons    NEL             ....  134
 Basis Dimension        Dim             ....  322

ORBITAL ENERGIES
----------------

  NO   OCC          E(Eh)            E(eV)
   0   2.0000     -88.970414     -2421.0080
   1   2.0000     -88.965843     -2420.8837
   2   2.0000     -10.327290      -281.0199
   3   2.0000     -10.323736      -280.9231
   4   2.0000     -10.322005      -280.8760
   5   2.0000     -10.306309      -280.4489
   6   2.0000     -10.304603      -280.4025
   7   2.0000     -10.299957      -280.2761
   8   2.0000     -10.296578      -280.1841
   9   2.0000     -10.294390      -280.1246
  10   2.0000     -10.285973      -279.8956
  11   2.0000     -10.284939      -279.8674
  12   2.0000     -10.280656      -279.7509
  13   2.0000     -10.277817      -279.6736
  14   2.0000     -10.272217      -279.5212
  15   2.0000     -10.265715      -279.3443
  16   2.0000      -8.084571      -219.9924
  17   2.0000      -8.081203      -219.9007
  18   2.0000      -6.043016      -164.4388
  19   2.0000      -6.039566      -164.3450
  20   2.0000      -6.039155      -164.3338
  21   2.0000      -6.035506      -164.2345
  22   2.0000      -6.035438      -164.2326
  23   2.0000      -6.032203      -164.1446
  24   2.0000      -1.009434       -27.4681
  25   2.0000      -0.985018       -26.8037
  26   2.0000      -0.918077       -24.9821
  27   2.0000      -0.909239       -24.7417
  28   2.0000      -0.871799       -23.7229
  29   2.0000      -0.853360       -23.2211
  30   2.0000      -0.848612       -23.0919
  31   2.0000      -0.810735       -22.0612
  32   2.0000      -0.783283       -21.3142
  33   2.0000      -0.770651       -20.9705
  34   2.0000      -0.710231       -19.3264
  35   2.0000      -0.699329       -19.0297
  36   2.0000      -0.692723       -18.8499
  37   2.0000      -0.661123       -17.9901
  38   2.0000      -0.638919       -17.3859
  39   2.0000      -0.617745       -16.8097
  40   2.0000      -0.597695       -16.2641
  41   2.0000      -0.579439       -15.7673
  42   2.0000      -0.563852       -15.3432
  43   2.0000      -0.555643       -15.1198
  44   2.0000      -0.542682       -14.7671
  45   2.0000      -0.525959       -14.3121
  46   2.0000      -0.513394       -13.9702
  47   2.0000      -0.510622       -13.8947
  48   2.0000      -0.505979       -13.7684
  49   2.0000      -0.496910       -13.5216
  50   2.0000      -0.495031       -13.4705
  51   2.0000      -0.478485       -13.0202
  52   2.0000      -0.470519       -12.8035
  53   2.0000      -0.464074       -12.6281
  54   2.0000      -0.459561       -12.5053
  55   2.0000      -0.449005       -12.2180
  56   2.0000      -0.443105       -12.0575
  57   2.0000      -0.437916       -11.9163
  58   2.0000      -0.434533       -11.8242
  59   2.0000      -0.427363       -11.6291
  60   2.0000      -0.423465       -11.5231
  61   2.0000      -0.413724       -11.2580
  62   2.0000      -0.402248       -10.9457
  63   2.0000      -0.339691        -9.2435
  64   2.0000      -0.334613        -9.1053
  65   2.0000      -0.324063        -8.8182
  66   2.0000      -0.292785        -7.9671
  67   0.0000       0.027962         0.7609
  68   0.0000       0.057370         1.5611
  69   0.0000       0.112230         3.0539
  70   0.0000       0.116592         3.1726
  71   0.0000       0.133347         3.6286

MULLIKEN ATOMIC CHARGES
-----------------------
   0 S :    0.121422
   1 C :   -0.155308
   2 C :   -0.075109
   3 C :    0.000715
   4 C :   -0.147936
   5 H :    0.037106
   6 C :    0.058316
   7 H :    0.026251
   8 H :    0.030336
   9 C :   -0.068386
  10 H :    0.032311
  11 H :    0.031873
  12 C :   -0.074871
  13 H :    0.023183
  14 H :    0.064257
  15 H :    0.037133
  16 S :    0.121231
  17 C :   -0.046762
  18 C :   -0.074882
  19 C :    0.006163
  20 C :   -0.165837
  21 H :    0.015644
  22 C :    0.064201
  23 H :   -0.001944
  24 H :    0.011395
  25 C :   -0.076546
  26 H :    0.016614
  27 H :    0.030611
  28 C :    0.008374
  29 H :    0.011213
  30 H :    0.028699
  31 H :    0.025936
  32 H :    0.062658
  33 H :    0.021938
Sum of atomic charges:    0.0000000

LOEWDIN ATOMIC CHARGES
----------------------
   0 S :    0.402853
   1 C :   -0.193250
   2 C :   -0.066169
   3 C :   -0.055560
   4 C :   -0.210980
   5 H :    0.035428
   6 C :   -0.037180
   7 H :    0.030714
   8 H :    0.033832
   9 C :   -0.041859
  10 H :    0.026573
  11 H :    0.022099
  12 C :   -0.068227
  13 H :    0.017822
  14 H :    0.037637
  15 H :    0.028656
  16 S :    0.437313
  17 C :   -0.189425
  18 C :   -0.072368
  19 C :   -0.050056
  20 C :   -0.209470
  21 H :    0.030773
  22 C :   -0.035553
  23 H :    0.028021
  24 H :    0.026089
  25 C :   -0.027708
  26 H :    0.017015
  27 H :    0.020528
  28 C :   -0.052376
  29 H :    0.013834
  30 H :    0.025899
  31 H :    0.025623
  32 H :    0.030864
  33 H :    0.018607

  Mayer bond orders larger than 0.100000
B(  0-S ,  1-C ) :   1.1601 B(  0-S ,  4-C ) :   1.1447 B(  1-C ,  2-C ) :   1.5671
B(  1-C ,  4-C ) :   0.1085 B(  1-C , 32-H ) :   0.9649 B(  2-C ,  3-C ) :   1.2751
B(  2-C ,  6-C ) :   1.0157 B(  3-C ,  4-C ) :   1.5443 B(  3-C ,  5-H ) :   0.9806
B(  4-C , 20-C ) :   1.0268 B(  6-C ,  7-H ) :   0.9456 B(  6-C ,  8-H ) :   0.9341
B(  6-C ,  9-C ) :   1.0792 B(  9-C , 10-H ) :   0.9557 B(  9-C , 11-H ) :   0.9611
B(  9-C , 12-C ) :   1.0663 B( 12-C , 13-H ) :   0.9779 B( 12-C , 14-H ) :   0.9720
B( 12-C , 15-H ) :   0.9753 B( 16-S , 17-C ) :   1.1646 B( 16-S , 20-C ) :   1.1681
B( 17-C , 18-C ) :   1.5982 B( 17-C , 20-C ) :   0.1030 B( 17-C , 33-H ) :   0.9726
B( 18-C , 19-C ) :   1.2691 B( 18-C , 21-H ) :   0.9905 B( 19-C , 20-C ) :   1.5481
B( 19-C , 22-C ) :   1.0501 B( 22-C , 23-H ) :   0.9247 B( 22-C , 24-H ) :   0.9486
B( 22-C , 25-C ) :   1.0256 B( 25-C , 26-H ) :   0.9621 B( 25-C , 27-H ) :   0.9583
B( 25-C , 28-C ) :   1.0888 B( 28-C , 29-H ) :   0.9735 B( 28-C , 30-H ) :   0.9756
B( 28-C , 31-H ) :   0.9713

Dispersion correction           -0.015331058
FINAL SINGLE POINT ENERGY     -1339.862934367025

DIPOLE MOMENT
-------------
                                X             Y             Z
Electronic contribution:    -17.95459       7.62781      15.48449
Nuclear contribution   :     18.37107      -7.99593     -16.02978
                        -----------------------------------------
Total Dipole Moment    :      0.41648      -0.36811      -0.54528
                        -----------------------------------------
Magnitude (a.u.)       :      0.77865
Magnitude (Debye)      :      1.97917

Rotational constants in cm-1:     0.017409     0.009540     0.007819
Rotational constants in MHz :   521.916072   285.997161   234.409422

                             ****ORCA TERMINATED NORMALLY****
TOTAL RUN TIME: 0 days 0 hours 0 minutes 22 seconds 677 msec
