                         Program Version 4.2.1 -  RELEASE  -
|  1> ! wB97X-D3 SP def2-SVP
|  2> %pal
|  3> nprocs 24
|  4> end
|  5>
|  6> * xyz 0 1
|  7> S 	 -138.829 	 10.2791 	 1.8243
|  8> C 	 -140.234 	 10.0355 	 0.838054
|  9> C 	 -141.37 	 10.5968 	 1.45456
| 10> C 	 -140.961 	 11.3751 	 2.59224
| 11> C 	 -139.689 	 11.1445 	 3.02797
| 12> H 	 -141.581 	 12.002 	 3.1643
| 13> C 	 -142.815 	 10.5559 	 1.02355
| 14> H 	 -142.935 	 9.85756 	 0.16761
| 15> H 	 -143.07 	 11.5363 	 0.565763
| 16> C 	 -143.7 	 10.1846 	 2.19709
| 17> H 	 -143.183 	 9.26178 	 2.60202
| 18> H 	 -143.557 	 10.9406 	 2.93466
| 19> C 	 -145.176 	 10.06 	 1.8811
| 20> H 	 -145.544 	 11.0858 	 1.65938
| 21> H 	 -145.359 	 9.36848 	 1.02699
| 22> H 	 -145.708 	 9.5538 	 2.69632
| 23> S 	 -137.381 	 12.1417 	 4.13985
| 24> C 	 -137.196 	 12.3729 	 5.85655
| 25> C 	 -138.398 	 12.0862 	 6.50308
| 26> C 	 -139.359 	 11.4481 	 5.63401
| 27> C 	 -139.011 	 11.5284 	 4.27747
| 28> H 	 -138.466 	 12.1959 	 7.60311
| 29> C 	 -140.673 	 10.8981 	 6.15488
| 30> H 	 -141.524 	 11.5186 	 5.81841
| 31> H 	 -140.508 	 11.0731 	 7.23433
| 32> C 	 -140.97 	 9.39258 	 5.94799
| 33> H 	 -140.121 	 8.87757 	 6.38651
| 34> H 	 -140.98 	 9.12691 	 4.86753
| 35> C 	 -142.381 	 9.02392 	 6.49845
| 36> H 	 -142.229 	 9.04529 	 7.58556
| 37> H 	 -142.78 	 8.09352 	 6.14445
| 38> H 	 -143.086 	 9.81351 	 6.21772
| 39> H 	 -140.437 	 9.41456 	 0.0160854
| 40> H 	 -136.224 	 12.761 	 6.2096
| 41> *
| 42>
| 43>                          ****END OF INPUT****

CARTESIAN COORDINATES (ANGSTROEM)
---------------------------------
  S    -138.829000   10.279100    1.824300
  C    -140.234000   10.035500    0.838054
  C    -141.370000   10.596800    1.454560
  C    -140.961000   11.375100    2.592240
  C    -139.689000   11.144500    3.027970
  H    -141.581000   12.002000    3.164300
  C    -142.815000   10.555900    1.023550
  H    -142.935000    9.857560    0.167610
  H    -143.070000   11.536300    0.565763
  C    -143.700000   10.184600    2.197090
  H    -143.183000    9.261780    2.602020
  H    -143.557000   10.940600    2.934660
  C    -145.176000   10.060000    1.881100
  H    -145.544000   11.085800    1.659380
  H    -145.359000    9.368480    1.026990
  H    -145.708000    9.553800    2.696320
  S    -137.381000   12.141700    4.139850
  C    -137.196000   12.372900    5.856550
  C    -138.398000   12.086200    6.503080
  C    -139.359000   11.448100    5.634010
  C    -139.011000   11.528400    4.277470
  H    -138.466000   12.195900    7.603110
  C    -140.673000   10.898100    6.154880
  H    -141.524000   11.518600    5.818410
  H    -140.508000   11.073100    7.234330
  C    -140.970000    9.392580    5.947990
  H    -140.121000    8.877570    6.386510
  H    -140.980000    9.126910    4.867530
  C    -142.381000    9.023920    6.498450
  H    -142.229000    9.045290    7.585560
  H    -142.780000    8.093520    6.144450
  H    -143.086000    9.813510    6.217720
  H    -140.437000    9.414560    0.016085
  H    -136.224000   12.761000    6.209600

 Total Charge           Charge          ....    0
 Multiplicity           Mult            ....    1
 Number of Electrons    NEL             ....  134
 Basis Dimension        Dim             ....  322

ORBITAL ENERGIES
----------------

  NO   OCC          E(Eh)            E(eV)
   0   2.0000     -88.966740     -2420.9081
   1   2.0000     -88.963497     -2420.8198
   2   2.0000     -10.329789      -281.0879
   3   2.0000     -10.327571      -281.0275
   4   2.0000     -10.323951      -280.9290
   5   2.0000     -10.310837      -280.5721
   6   2.0000     -10.308461      -280.5075
   7   2.0000     -10.303830      -280.3815
   8   2.0000     -10.302476      -280.3446
   9   2.0000     -10.296099      -280.1711
  10   2.0000     -10.293984      -280.1135
  11   2.0000     -10.287912      -279.9483
  12   2.0000     -10.287811      -279.9456
  13   2.0000     -10.286753      -279.9168
  14   2.0000     -10.286420      -279.9077
  15   2.0000     -10.279134      -279.7094
  16   2.0000      -8.082047      -219.9237
  17   2.0000      -8.078765      -219.8344
  18   2.0000      -6.040623      -164.3737
  19   2.0000      -6.037146      -164.2791
  20   2.0000      -6.036332      -164.2569
  21   2.0000      -6.033040      -164.1674
  22   2.0000      -6.032824      -164.1615
  23   2.0000      -6.029783      -164.0787
  24   2.0000      -1.010606       -27.5000
  25   2.0000      -0.986437       -26.8423
  26   2.0000      -0.919111       -25.0103
  27   2.0000      -0.904774       -24.6202
  28   2.0000      -0.869541       -23.6614
  29   2.0000      -0.850832       -23.1523
  30   2.0000      -0.845472       -23.0065
  31   2.0000      -0.816725       -22.2242
  32   2.0000      -0.781207       -21.2577
  33   2.0000      -0.770924       -20.9779
  34   2.0000      -0.709419       -19.3043
  35   2.0000      -0.697404       -18.9773
  36   2.0000      -0.686982       -18.6937
  37   2.0000      -0.663607       -18.0577
  38   2.0000      -0.643089       -17.4993
  39   2.0000      -0.623392       -16.9634
  40   2.0000      -0.594819       -16.1858
  41   2.0000      -0.574653       -15.6371
  42   2.0000      -0.566352       -15.4112
  43   2.0000      -0.560885       -15.2625
  44   2.0000      -0.525746       -14.3063
  45   2.0000      -0.521791       -14.1987
  46   2.0000      -0.516992       -14.0681
  47   2.0000      -0.512730       -13.9521
  48   2.0000      -0.505765       -13.7626
  49   2.0000      -0.502726       -13.6799
  50   2.0000      -0.495421       -13.4811
  51   2.0000      -0.487692       -13.2708
  52   2.0000      -0.468787       -12.7563
  53   2.0000      -0.465478       -12.6663
  54   2.0000      -0.460738       -12.5373
  55   2.0000      -0.447045       -12.1647
  56   2.0000      -0.442214       -12.0332
  57   2.0000      -0.434773       -11.8308
  58   2.0000      -0.431655       -11.7459
  59   2.0000      -0.431026       -11.7288
  60   2.0000      -0.422618       -11.5000
  61   2.0000      -0.418331       -11.3834
  62   2.0000      -0.404057       -10.9950
  63   2.0000      -0.347478        -9.4553
  64   2.0000      -0.330556        -8.9949
  65   2.0000      -0.327979        -8.9248
  66   2.0000      -0.291987        -7.9454
  67   0.0000       0.027371         0.7448
  68   0.0000       0.072914         1.9841
  69   0.0000       0.110499         3.0068
  70   0.0000       0.114937         3.1276
  71   0.0000       0.123967         3.3733

MULLIKEN ATOMIC CHARGES
-----------------------
   0 S :    0.121871
   1 C :   -0.066734
   2 C :   -0.144115
   3 C :    0.034524
   4 C :   -0.134279
   5 H :   -0.008212
   6 C :    0.069757
   7 H :    0.014024
   8 H :    0.039263
   9 C :   -0.117101
  10 H :    0.042165
  11 H :    0.023173
  12 C :   -0.024024
  13 H :    0.042608
  14 H :    0.030971
  15 H :    0.040868
  16 S :    0.093101
  17 C :   -0.115989
  18 C :   -0.030484
  19 C :   -0.064798
  20 C :   -0.131157
  21 H :    0.039333
  22 C :    0.035074
  23 H :    0.039015
  24 H :    0.012789
  25 C :   -0.086793
  26 H :    0.032272
  27 H :    0.044154
  28 C :   -0.031412
  29 H :    0.033488
  30 H :    0.036818
  31 H :    0.028848
  32 H :    0.023195
  33 H :    0.077790
Sum of atomic charges:    0.0000000

LOEWDIN ATOMIC CHARGES
----------------------
   0 S :    0.430588
   1 C :   -0.205428
   2 C :   -0.056820
   3 C :   -0.062039
   4 C :   -0.202496
   5 H :    0.019470
   6 C :   -0.037088
   7 H :    0.027686
   8 H :    0.034108
   9 C :   -0.048401
  10 H :    0.032594
  11 H :    0.017484
  12 C :   -0.067526
  13 H :    0.032759
  14 H :    0.027952
  15 H :    0.030742
  16 S :    0.410551
  17 C :   -0.188951
  18 C :   -0.078380
  19 C :   -0.059942
  20 C :   -0.199921
  21 H :    0.038355
  22 C :   -0.037217
  23 H :    0.029909
  24 H :    0.030725
  25 C :   -0.040192
  26 H :    0.024015
  27 H :    0.025668
  28 C :   -0.061830
  29 H :    0.027827
  30 H :    0.022965
  31 H :    0.025714
  32 H :    0.021816
  33 H :    0.035304

  Mayer bond orders larger than 0.100000
B(  0-S ,  1-C ) :   1.1388 B(  0-S ,  4-C ) :   1.1588 B(  1-C ,  2-C ) :   1.6103
B(  1-C , 32-H ) :   0.9682 B(  2-C ,  3-C ) :   1.2243 B(  2-C ,  6-C ) :   1.0347
B(  3-C ,  4-C ) :   1.5910 B(  3-C ,  5-H ) :   0.9996 B(  4-C , 20-C ) :   1.0261
B(  6-C ,  7-H ) :   0.9384 B(  6-C ,  8-H ) :   0.9341 B(  6-C ,  9-C ) :   1.0507
B(  9-C , 10-H ) :   0.9554 B(  9-C , 11-H ) :   0.9522 B(  9-C , 12-C ) :   1.0845
B( 12-C , 13-H ) :   0.9702 B( 12-C , 14-H ) :   0.9735 B( 12-C , 15-H ) :   0.9724
B( 16-S , 17-C ) :   1.1753 B( 16-S , 20-C ) :   1.1541 B( 17-C , 18-C ) :   1.5686
B( 17-C , 20-C ) :   0.1039 B( 17-C , 33-H ) :   0.9674 B( 18-C , 19-C ) :   1.2681
B( 18-C , 21-H ) :   0.9805 B( 19-C , 20-C ) :   1.5670 B( 19-C , 22-C ) :   1.0371
B( 22-C , 23-H ) :   0.9369 B( 22-C , 24-H ) :   0.9339 B( 22-C , 25-C ) :   1.0557
B( 25-C , 26-H ) :   0.9569 B( 25-C , 27-H ) :   0.9593 B( 25-C , 28-C ) :   1.0686
B( 28-C , 29-H ) :   0.9780 B( 28-C , 30-H ) :   0.9762 B( 28-C , 31-H ) :   0.9742

Dispersion correction           -0.014979848
FINAL SINGLE POINT ENERGY     -1339.881800156042

DIPOLE MOMENT
-------------
                                X             Y             Z
Electronic contribution:     30.48904       9.02500      -6.64899
Nuclear contribution   :    -31.10355      -9.11473       6.93465
                        -----------------------------------------
Total Dipole Moment    :     -0.61451      -0.08973       0.28566
                        -----------------------------------------
Magnitude (a.u.)       :      0.68358
Magnitude (Debye)      :      1.73751

Rotational constants in cm-1:     0.018736     0.009638     0.007027
Rotational constants in MHz :   561.701264   288.944125   210.672050

                             ****ORCA TERMINATED NORMALLY****
TOTAL RUN TIME: 0 days 0 hours 0 minutes 21 seconds 288 msec
