                         Program Version 4.2.1 -  RELEASE  -
|  1> ! wB97X-D3 SP def2-SVP
|  2> %pal
|  3> nprocs 24
|  4> end
|  5>
|  6> * xyz 0 1
|  7> S 	 -102.911 	 15.8539 	 -119.954
|  8> C 	 -101.915 	 16.8216 	 -118.855
|  9> C 	 -101.862 	 16.2929 	 -117.589
| 10> C 	 -102.713 	 15.1726 	 -117.474
| 11> C 	 -103.511 	 14.9711 	 -118.596
| 12> H 	 -102.769 	 14.5218 	 -116.686
| 13> C 	 -100.959 	 16.845 	 -116.465
| 14> H 	 -101.618 	 16.9024 	 -115.628
| 15> H 	 -100.704 	 17.8914 	 -116.744
| 16> C 	 -99.6977 	 16.0291 	 -116.114
| 17> H 	 -99.9938 	 14.9662 	 -116.171
| 18> H 	 -98.9112 	 16.1558 	 -116.904
| 19> C 	 -99.1376 	 16.2616 	 -114.702
| 20> H 	 -98.724 	 17.2405 	 -114.626
| 21> H 	 -99.8672 	 15.9784 	 -113.982
| 22> H 	 -98.3981 	 15.5457 	 -114.52
| 23> S 	 -105.745 	 14.2829 	 -120.043
| 24> C 	 -106.349 	 12.6387 	 -119.933
| 25> C 	 -105.605 	 11.8822 	 -119.034
| 26> C 	 -104.565 	 12.6416 	 -118.332
| 27> C 	 -104.469 	 13.9258 	 -118.83
| 28> H 	 -105.945 	 10.8961 	 -118.728
| 29> C 	 -103.64 	 11.9681 	 -117.358
| 30> H 	 -104.286 	 11.2842 	 -116.83
| 31> H 	 -103.22 	 12.5949 	 -116.639
| 32> C 	 -102.497 	 11.1907 	 -117.956
| 33> H 	 -102.023 	 10.5093 	 -117.256
| 34> H 	 -101.732 	 11.839 	 -118.342
| 35> C 	 -102.917 	 9.94514 	 -118.832
| 36> H 	 -103.828 	 9.40355 	 -118.508
| 37> H 	 -102.086 	 9.21751 	 -118.885
| 38> H 	 -102.995 	 10.2521 	 -119.892
| 39> H 	 -101.091 	 17.4773 	 -119.144
| 40> H 	 -107.141 	 12.2938 	 -120.521
| 41> *
| 42>
| 43>                          ****END OF INPUT****

CARTESIAN COORDINATES (ANGSTROEM)
---------------------------------
  S    -102.911000   15.853900  -119.954000
  C    -101.915000   16.821600  -118.855000
  C    -101.862000   16.292900  -117.589000
  C    -102.713000   15.172600  -117.474000
  C    -103.511000   14.971100  -118.596000
  H    -102.769000   14.521800  -116.686000
  C    -100.959000   16.845000  -116.465000
  H    -101.618000   16.902400  -115.628000
  H    -100.704000   17.891400  -116.744000
  C    -99.697700   16.029100  -116.114000
  H    -99.993800   14.966200  -116.171000
  H    -98.911200   16.155800  -116.904000
  C    -99.137600   16.261600  -114.702000
  H    -98.724000   17.240500  -114.626000
  H    -99.867200   15.978400  -113.982000
  H    -98.398100   15.545700  -114.520000
  S    -105.745000   14.282900  -120.043000
  C    -106.349000   12.638700  -119.933000
  C    -105.605000   11.882200  -119.034000
  C    -104.565000   12.641600  -118.332000
  C    -104.469000   13.925800  -118.830000
  H    -105.945000   10.896100  -118.728000
  C    -103.640000   11.968100  -117.358000
  H    -104.286000   11.284200  -116.830000
  H    -103.220000   12.594900  -116.639000
  C    -102.497000   11.190700  -117.956000
  H    -102.023000   10.509300  -117.256000
  H    -101.732000   11.839000  -118.342000
  C    -102.917000    9.945140  -118.832000
  H    -103.828000    9.403550  -118.508000
  H    -102.086000    9.217510  -118.885000
  H    -102.995000   10.252100  -119.892000
  H    -101.091000   17.477300  -119.144000
  H    -107.141000   12.293800  -120.521000

 Total Charge           Charge          ....    0
 Multiplicity           Mult            ....    1
 Number of Electrons    NEL             ....  134
 Basis Dimension        Dim             ....  322

ORBITAL ENERGIES
----------------

  NO   OCC          E(Eh)            E(eV)
   0   2.0000     -88.967184     -2420.9201
   1   2.0000     -88.964699     -2420.8525
   2   2.0000     -10.327939      -281.0375
   3   2.0000     -10.326788      -281.0062
   4   2.0000     -10.317049      -280.7412
   5   2.0000     -10.308373      -280.5051
   6   2.0000     -10.306014      -280.4409
   7   2.0000     -10.299334      -280.2591
   8   2.0000     -10.299260      -280.2571
   9   2.0000     -10.294788      -280.1354
  10   2.0000     -10.293584      -280.1026
  11   2.0000     -10.287871      -279.9472
  12   2.0000     -10.286361      -279.9061
  13   2.0000     -10.285005      -279.8692
  14   2.0000     -10.283440      -279.8266
  15   2.0000     -10.272448      -279.5275
  16   2.0000      -8.081857      -219.9185
  17   2.0000      -8.078833      -219.8362
  18   2.0000      -6.040292      -164.3647
  19   2.0000      -6.037421      -164.2866
  20   2.0000      -6.036603      -164.2643
  21   2.0000      -6.033462      -164.1789
  22   2.0000      -6.032443      -164.1511
  23   2.0000      -6.029502      -164.0711
  24   2.0000      -1.007731       -27.4218
  25   2.0000      -0.979657       -26.6578
  26   2.0000      -0.914292       -24.8791
  27   2.0000      -0.910032       -24.7632
  28   2.0000      -0.871829       -23.7237
  29   2.0000      -0.853125       -23.2147
  30   2.0000      -0.840975       -22.8841
  31   2.0000      -0.814933       -22.1755
  32   2.0000      -0.790176       -21.5018
  33   2.0000      -0.777334       -21.1523
  34   2.0000      -0.710994       -19.3471
  35   2.0000      -0.699923       -19.0459
  36   2.0000      -0.692227       -18.8364
  37   2.0000      -0.667667       -18.1681
  38   2.0000      -0.638511       -17.3748
  39   2.0000      -0.623538       -16.9673
  40   2.0000      -0.595618       -16.2076
  41   2.0000      -0.569896       -15.5077
  42   2.0000      -0.565741       -15.3946
  43   2.0000      -0.561784       -15.2869
  44   2.0000      -0.545498       -14.8438
  45   2.0000      -0.526891       -14.3374
  46   2.0000      -0.521405       -14.1881
  47   2.0000      -0.506540       -13.7837
  48   2.0000      -0.502627       -13.6772
  49   2.0000      -0.497654       -13.5419
  50   2.0000      -0.489455       -13.3188
  51   2.0000      -0.481082       -13.0909
  52   2.0000      -0.476762       -12.9733
  53   2.0000      -0.467749       -12.7281
  54   2.0000      -0.463331       -12.6079
  55   2.0000      -0.453442       -12.3388
  56   2.0000      -0.445622       -12.1260
  57   2.0000      -0.440461       -11.9856
  58   2.0000      -0.433707       -11.8018
  59   2.0000      -0.426360       -11.6018
  60   2.0000      -0.422130       -11.4868
  61   2.0000      -0.420855       -11.4520
  62   2.0000      -0.393119       -10.6973
  63   2.0000      -0.354431        -9.6446
  64   2.0000      -0.332648        -9.0518
  65   2.0000      -0.329384        -8.9630
  66   2.0000      -0.283238        -7.7073
  67   0.0000       0.021718         0.5910
  68   0.0000       0.073790         2.0079
  69   0.0000       0.102631         2.7927
  70   0.0000       0.109861         2.9895
  71   0.0000       0.132742         3.6121

MULLIKEN ATOMIC CHARGES
-----------------------
   0 S :    0.109002
   1 C :   -0.107141
   2 C :   -0.102424
   3 C :    0.026321
   4 C :   -0.100823
   5 H :   -0.046647
   6 C :    0.086367
   7 H :    0.019595
   8 H :    0.024827
   9 C :   -0.112018
  10 H :    0.023381
  11 H :    0.036461
  12 C :    0.009958
  13 H :    0.037725
  14 H :    0.022392
  15 H :    0.015785
  16 S :    0.092666
  17 C :   -0.066513
  18 C :   -0.029703
  19 C :   -0.053540
  20 C :   -0.148518
  21 H :    0.021506
  22 C :    0.119486
  23 H :    0.009575
  24 H :    0.004188
  25 C :   -0.063134
  26 H :    0.027339
  27 H :    0.037184
  28 C :   -0.097012
  29 H :    0.039780
  30 H :    0.030755
  31 H :    0.041896
  32 H :    0.048716
  33 H :    0.042568
Sum of atomic charges:    0.0000000

LOEWDIN ATOMIC CHARGES
----------------------
   0 S :    0.410520
   1 C :   -0.204303
   2 C :   -0.056590
   3 C :   -0.060661
   4 C :   -0.188820
   5 H :    0.009430
   6 C :   -0.028801
   7 H :    0.026818
   8 H :    0.032295
   9 C :   -0.043509
  10 H :    0.023470
  11 H :    0.027662
  12 C :   -0.054859
  13 H :    0.024304
  14 H :    0.024533
  15 H :    0.022565
  16 S :    0.378740
  17 C :   -0.170531
  18 C :   -0.064866
  19 C :   -0.051585
  20 C :   -0.182129
  21 H :    0.029477
  22 C :   -0.026908
  23 H :    0.032600
  24 H :    0.020616
  25 C :   -0.038053
  26 H :    0.029338
  27 H :    0.025593
  28 C :   -0.073022
  29 H :    0.026908
  30 H :    0.025311
  31 H :    0.025743
  32 H :    0.030066
  33 H :    0.018648

  Mayer bond orders larger than 0.100000
B(  0-S ,  1-C ) :   1.1218 B(  0-S ,  4-C ) :   1.1678 B(  1-C ,  2-C ) :   1.6330
B(  1-C , 32-H ) :   0.9559 B(  2-C ,  3-C ) :   1.2508 B(  2-C ,  6-C ) :   1.0157
B(  3-C ,  4-C ) :   1.5415 B(  3-C ,  5-H ) :   1.0195 B(  4-C , 20-C ) :   1.0770
B(  6-C ,  7-H ) :   0.9403 B(  6-C ,  8-H ) :   0.9403 B(  6-C ,  9-C ) :   1.0535
B(  9-C , 10-H ) :   0.9594 B(  9-C , 11-H ) :   0.9550 B(  9-C , 12-C ) :   1.0887
B( 12-C , 13-H ) :   0.9767 B( 12-C , 14-H ) :   0.9708 B( 12-C , 15-H ) :   0.9692
B( 16-S , 17-C ) :   1.1385 B( 16-S , 20-C ) :   1.1202 B( 17-C , 18-C ) :   1.6285
B( 17-C , 33-H ) :   0.9756 B( 18-C , 19-C ) :   1.2164 B( 18-C , 21-H ) :   0.9805
B( 19-C , 20-C ) :   1.6130 B( 19-C , 22-C ) :   1.0452 B( 22-C , 23-H ) :   0.9175
B( 22-C , 24-H ) :   0.9355 B( 22-C , 25-C ) :   1.0919 B( 25-C , 26-H ) :   0.9610
B( 25-C , 27-H ) :   0.9575 B( 25-C , 28-C ) :   1.0464 B( 28-C , 29-H ) :   0.9726
B( 28-C , 30-H ) :   0.9816 B( 28-C , 31-H ) :   0.9734

Dispersion correction           -0.014306183
FINAL SINGLE POINT ENERGY     -1339.859266855097

DIPOLE MOMENT
-------------
                                X             Y             Z
Electronic contribution:    -19.80543      10.72647     -18.80499
Nuclear contribution   :     20.30274     -11.25809      19.35055
                        -----------------------------------------
Total Dipole Moment    :      0.49731      -0.53162       0.54555
                        -----------------------------------------
Magnitude (a.u.)       :      0.90971
Magnitude (Debye)      :      2.31229

Rotational constants in cm-1:     0.019851     0.008492     0.006535
Rotational constants in MHz :   595.130834   254.583215   195.901778

                             ****ORCA TERMINATED NORMALLY****
TOTAL RUN TIME: 0 days 0 hours 0 minutes 20 seconds 620 msec
