                         Program Version 4.2.1 -  RELEASE  -
|  1> ! wB97X-D3 SP def2-SVP
|  2> %pal
|  3> nprocs 24
|  4> end
|  5>
|  6> * xyz 0 1
|  7> S 	 -121.242 	 52.1652 	 -33.7418
|  8> C 	 -120.408 	 52.3756 	 -35.2795
|  9> C 	 -120.654 	 51.2798 	 -36.1266
| 10> C 	 -121.558 	 50.3726 	 -35.5688
| 11> C 	 -122.073 	 50.7013 	 -34.3353
| 12> H 	 -121.993 	 49.3947 	 -35.9294
| 13> C 	 -120.035 	 50.9483 	 -37.4646
| 14> H 	 -120.095 	 49.9215 	 -37.6491
| 15> H 	 -118.972 	 51.095 	 -37.4674
| 16> C 	 -120.586 	 51.7151 	 -38.6478
| 17> H 	 -120.133 	 51.1864 	 -39.4812
| 18> H 	 -121.695 	 51.5828 	 -38.8521
| 19> C 	 -120.322 	 53.2041 	 -38.5763
| 20> H 	 -121.015 	 53.5759 	 -37.8618
| 21> H 	 -119.307 	 53.4374 	 -38.2387
| 22> H 	 -120.404 	 53.6672 	 -39.5471
| 23> S 	 -122.373 	 49.6586 	 -31.6625
| 24> C 	 -123.748 	 48.5964 	 -31.3439
| 25> C 	 -124.501 	 48.2653 	 -32.4856
| 26> C 	 -124.077 	 49.0968 	 -33.6419
| 27> C 	 -122.882 	 49.8638 	 -33.4051
| 28> H 	 -125.273 	 47.5641 	 -32.375
| 29> C 	 -124.915 	 49.0632 	 -34.8852
| 30> H 	 -125.681 	 48.2847 	 -34.7577
| 31> H 	 -124.229 	 48.771 	 -35.6424
| 32> C 	 -125.391 	 50.5089 	 -35.4347
| 33> H 	 -125.902 	 50.3704 	 -36.3972
| 34> H 	 -124.579 	 51.3019 	 -35.6959
| 35> C 	 -126.38 	 51.2611 	 -34.4908
| 36> H 	 -126.736 	 52.1965 	 -34.8065
| 37> H 	 -126.028 	 51.5373 	 -33.5024
| 38> H 	 -127.264 	 50.6732 	 -34.2351
| 39> H 	 -119.642 	 53.1213 	 -35.4242
| 40> H 	 -123.936 	 48.0726 	 -30.452
| 41> *
| 42>
| 43>                          ****END OF INPUT****

CARTESIAN COORDINATES (ANGSTROEM)
---------------------------------
  S    -121.242000   52.165200  -33.741800
  C    -120.408000   52.375600  -35.279500
  C    -120.654000   51.279800  -36.126600
  C    -121.558000   50.372600  -35.568800
  C    -122.073000   50.701300  -34.335300
  H    -121.993000   49.394700  -35.929400
  C    -120.035000   50.948300  -37.464600
  H    -120.095000   49.921500  -37.649100
  H    -118.972000   51.095000  -37.467400
  C    -120.586000   51.715100  -38.647800
  H    -120.133000   51.186400  -39.481200
  H    -121.695000   51.582800  -38.852100
  C    -120.322000   53.204100  -38.576300
  H    -121.015000   53.575900  -37.861800
  H    -119.307000   53.437400  -38.238700
  H    -120.404000   53.667200  -39.547100
  S    -122.373000   49.658600  -31.662500
  C    -123.748000   48.596400  -31.343900
  C    -124.501000   48.265300  -32.485600
  C    -124.077000   49.096800  -33.641900
  C    -122.882000   49.863800  -33.405100
  H    -125.273000   47.564100  -32.375000
  C    -124.915000   49.063200  -34.885200
  H    -125.681000   48.284700  -34.757700
  H    -124.229000   48.771000  -35.642400
  C    -125.391000   50.508900  -35.434700
  H    -125.902000   50.370400  -36.397200
  H    -124.579000   51.301900  -35.695900
  C    -126.380000   51.261100  -34.490800
  H    -126.736000   52.196500  -34.806500
  H    -126.028000   51.537300  -33.502400
  H    -127.264000   50.673200  -34.235100
  H    -119.642000   53.121300  -35.424200
  H    -123.936000   48.072600  -30.452000

 Total Charge           Charge          ....    0
 Multiplicity           Mult            ....    1
 Number of Electrons    NEL             ....  134
 Basis Dimension        Dim             ....  322

ORBITAL ENERGIES
----------------

  NO   OCC          E(Eh)            E(eV)
   0   2.0000     -88.969879     -2420.9935
   1   2.0000     -88.966766     -2420.9088
   2   2.0000     -10.340374      -281.3759
   3   2.0000     -10.334225      -281.2086
   4   2.0000     -10.320402      -280.8324
   5   2.0000     -10.319961      -280.8204
   6   2.0000     -10.316572      -280.7282
   7   2.0000     -10.304482      -280.3992
   8   2.0000     -10.301958      -280.3305
   9   2.0000     -10.299732      -280.2700
  10   2.0000     -10.298868      -280.2465
  11   2.0000     -10.296762      -280.1891
  12   2.0000     -10.286170      -279.9009
  13   2.0000     -10.284852      -279.8650
  14   2.0000     -10.272189      -279.5205
  15   2.0000     -10.265921      -279.3499
  16   2.0000      -8.082751      -219.9428
  17   2.0000      -8.080748      -219.8883
  18   2.0000      -6.041463      -164.3966
  19   2.0000      -6.039245      -164.3362
  20   2.0000      -6.037563      -164.2904
  21   2.0000      -6.035308      -164.2291
  22   2.0000      -6.033358      -164.1760
  23   2.0000      -6.031610      -164.1284
  24   2.0000      -0.997565       -27.1451
  25   2.0000      -0.971027       -26.4230
  26   2.0000      -0.916922       -24.9507
  27   2.0000      -0.896258       -24.3884
  28   2.0000      -0.862473       -23.4691
  29   2.0000      -0.849945       -23.1282
  30   2.0000      -0.840408       -22.8687
  31   2.0000      -0.813081       -22.1251
  32   2.0000      -0.788630       -21.4597
  33   2.0000      -0.772508       -21.0210
  34   2.0000      -0.710756       -19.3407
  35   2.0000      -0.697929       -18.9916
  36   2.0000      -0.687551       -18.7092
  37   2.0000      -0.660222       -17.9655
  38   2.0000      -0.646517       -17.5926
  39   2.0000      -0.616402       -16.7732
  40   2.0000      -0.582505       -15.8508
  41   2.0000      -0.576407       -15.6848
  42   2.0000      -0.557279       -15.1643
  43   2.0000      -0.543421       -14.7872
  44   2.0000      -0.538582       -14.6556
  45   2.0000      -0.533339       -14.5129
  46   2.0000      -0.518429       -14.1072
  47   2.0000      -0.508324       -13.8322
  48   2.0000      -0.503011       -13.6876
  49   2.0000      -0.490166       -13.3381
  50   2.0000      -0.486032       -13.2256
  51   2.0000      -0.482664       -13.1340
  52   2.0000      -0.469231       -12.7684
  53   2.0000      -0.466847       -12.7036
  54   2.0000      -0.460942       -12.5429
  55   2.0000      -0.444860       -12.1052
  56   2.0000      -0.437026       -11.8921
  57   2.0000      -0.434757       -11.8303
  58   2.0000      -0.430296       -11.7090
  59   2.0000      -0.425160       -11.5692
  60   2.0000      -0.419557       -11.4167
  61   2.0000      -0.412801       -11.2329
  62   2.0000      -0.410378       -11.1669
  63   2.0000      -0.348437        -9.4815
  64   2.0000      -0.332819        -9.0565
  65   2.0000      -0.326538        -8.8856
  66   2.0000      -0.285370        -7.7653
  67   0.0000       0.018245         0.4965
  68   0.0000       0.065265         1.7759
  69   0.0000       0.100400         2.7320
  70   0.0000       0.120725         3.2851
  71   0.0000       0.123719         3.3666

MULLIKEN ATOMIC CHARGES
-----------------------
   0 S :    0.092954
   1 C :   -0.117011
   2 C :   -0.077215
   3 C :    0.009243
   4 C :   -0.168398
   5 H :    0.031534
   6 C :    0.100728
   7 H :    0.003831
   8 H :    0.019567
   9 C :   -0.086155
  10 H :    0.020518
  11 H :    0.031645
  12 C :   -0.028549
  13 H :    0.041422
  14 H :    0.016562
  15 H :    0.035487
  16 S :    0.100462
  17 C :   -0.076333
  18 C :   -0.024784
  19 C :   -0.072937
  20 C :   -0.125659
  21 H :    0.009695
  22 C :    0.099098
  23 H :    0.032391
  24 H :    0.021774
  25 C :   -0.107784
  26 H :    0.034545
  27 H :    0.066999
  28 C :   -0.033470
  29 H :    0.013386
  30 H :    0.025611
  31 H :    0.014926
  32 H :    0.052327
  33 H :    0.043592
Sum of atomic charges:    0.0000000

LOEWDIN ATOMIC CHARGES
----------------------
   0 S :    0.389156
   1 C :   -0.191365
   2 C :   -0.063121
   3 C :   -0.068470
   4 C :   -0.184714
   5 H :    0.043330
   6 C :   -0.026883
   7 H :    0.024807
   8 H :    0.030306
   9 C :   -0.041328
  10 H :    0.020295
  11 H :    0.028947
  12 C :   -0.062208
  13 H :    0.025158
  14 H :    0.020944
  15 H :    0.027684
  16 S :    0.371913
  17 C :   -0.169710
  18 C :   -0.065360
  19 C :   -0.044419
  20 C :   -0.187101
  21 H :    0.024318
  22 C :   -0.031477
  23 H :    0.035891
  24 H :    0.029671
  25 C :   -0.041203
  26 H :    0.024404
  27 H :    0.043432
  28 C :   -0.075573
  29 H :    0.017820
  30 H :    0.026007
  31 H :    0.021349
  32 H :    0.026845
  33 H :    0.020657

  Mayer bond orders larger than 0.100000
B(  0-S ,  1-C ) :   1.1491 B(  0-S ,  4-C ) :   1.1417 B(  1-C ,  2-C ) :   1.5722
B(  1-C ,  4-C ) :   0.1054 B(  1-C , 32-H ) :   0.9716 B(  2-C ,  3-C ) :   1.2649
B(  2-C ,  6-C ) :   1.0188 B(  3-C ,  4-C ) :   1.5747 B(  3-C ,  5-H ) :   0.9778
B(  4-C , 20-C ) :   1.0593 B(  6-C ,  7-H ) :   0.9361 B(  6-C ,  8-H ) :   0.9349
B(  6-C ,  9-C ) :   1.0814 B(  9-C , 10-H ) :   0.9547 B(  9-C , 11-H ) :   0.9539
B(  9-C , 12-C ) :   1.0754 B( 12-C , 13-H ) :   0.9708 B( 12-C , 14-H ) :   0.9744
B( 12-C , 15-H ) :   0.9715 B( 16-S , 17-C ) :   1.1510 B( 16-S , 20-C ) :   1.1063
B( 17-C , 18-C ) :   1.6417 B( 17-C , 33-H ) :   0.9661 B( 18-C , 19-C ) :   1.2084
B( 18-C , 21-H ) :   0.9929 B( 19-C , 20-C ) :   1.5876 B( 19-C , 22-C ) :   1.0473
B( 22-C , 23-H ) :   0.9427 B( 22-C , 24-H ) :   0.9229 B( 22-C , 25-C ) :   1.0494
B( 25-C , 26-H ) :   0.9583 B( 25-C , 27-H ) :   0.9560 B( 25-C , 28-C ) :   1.0654
B( 28-C , 29-H ) :   0.9753 B( 28-C , 30-H ) :   0.9747 B( 28-C , 31-H ) :   0.9761

Dispersion correction           -0.014974387
FINAL SINGLE POINT ENERGY     -1339.853037396279

DIPOLE MOMENT
-------------
                                X             Y             Z
Electronic contribution:      7.72860      -4.22696      24.04284
Nuclear contribution   :     -7.84449       3.87637     -24.61602
                        -----------------------------------------
Total Dipole Moment    :     -0.11589      -0.35059      -0.57318
                        -----------------------------------------
Magnitude (a.u.)       :      0.68182
Magnitude (Debye)      :      1.73305

Rotational constants in cm-1:     0.021408     0.008327     0.007011
Rotational constants in MHz :   641.796211   249.631111   210.180625

                             ****ORCA TERMINATED NORMALLY****
TOTAL RUN TIME: 0 days 0 hours 0 minutes 22 seconds 21 msec
