                         Program Version 4.2.1 -  RELEASE  -
|  1> ! wB97X-D3 SP def2-SVP
|  2> %pal
|  3> nprocs 24
|  4> end
|  5>
|  6> * xyz 0 1
|  7> S 	 28.7671 	 -27.5492 	 -129.663
|  8> C 	 29.1822 	 -28.2246 	 -131.185
|  9> C 	 28.5183 	 -27.7656 	 -132.263
| 10> C 	 27.4899 	 -26.9185 	 -131.864
| 11> C 	 27.5036 	 -26.6306 	 -130.463
| 12> H 	 26.7181 	 -26.4398 	 -132.499
| 13> C 	 28.6863 	 -28.3422 	 -133.692
| 14> H 	 27.7515 	 -28.0529 	 -134.148
| 15> H 	 28.772 	 -29.4783 	 -133.658
| 16> C 	 29.948 	 -27.8562 	 -134.492
| 17> H 	 29.8932 	 -26.7497 	 -134.438
| 18> H 	 30.8598 	 -28.0699 	 -133.928
| 19> C 	 29.9574 	 -28.219 	 -135.99
| 20> H 	 30.4259 	 -29.1678 	 -136.126
| 21> H 	 28.9524 	 -28.3873 	 -136.424
| 22> H 	 30.5788 	 -27.4719 	 -136.507
| 23> S 	 25.6778 	 -27.0738 	 -128.444
| 24> C 	 24.3307 	 -26.0084 	 -128.225
| 25> C 	 24.5468 	 -24.8121 	 -128.918
| 26> C 	 25.6872 	 -24.8837 	 -129.828
| 27> C 	 26.3951 	 -26.089 	 -129.692
| 28> H 	 23.8752 	 -24.0102 	 -128.821
| 29> C 	 26.0046 	 -23.8361 	 -130.884
| 30> H 	 25.2841 	 -23.0821 	 -130.788
| 31> H 	 25.6486 	 -24.182 	 -131.877
| 32> C 	 27.4348 	 -23.2163 	 -130.925
| 33> H 	 28.21 	 -23.9887 	 -131.031
| 34> H 	 27.5599 	 -22.7817 	 -129.928
| 35> C 	 27.5678 	 -22.1424 	 -132.086
| 36> H 	 28.5854 	 -21.7483 	 -131.964
| 37> H 	 27.0404 	 -21.2642 	 -131.924
| 38> H 	 27.425 	 -22.3928 	 -133.103
| 39> H 	 30.0091 	 -28.9008 	 -131.222
| 40> H 	 23.518 	 -26.1937 	 -127.541
| 41> *
| 42>
| 43>                          ****END OF INPUT****

CARTESIAN COORDINATES (ANGSTROEM)
---------------------------------
  S     28.767100  -27.549200  -129.663000
  C     29.182200  -28.224600  -131.185000
  C     28.518300  -27.765600  -132.263000
  C     27.489900  -26.918500  -131.864000
  C     27.503600  -26.630600  -130.463000
  H     26.718100  -26.439800  -132.499000
  C     28.686300  -28.342200  -133.692000
  H     27.751500  -28.052900  -134.148000
  H     28.772000  -29.478300  -133.658000
  C     29.948000  -27.856200  -134.492000
  H     29.893200  -26.749700  -134.438000
  H     30.859800  -28.069900  -133.928000
  C     29.957400  -28.219000  -135.990000
  H     30.425900  -29.167800  -136.126000
  H     28.952400  -28.387300  -136.424000
  H     30.578800  -27.471900  -136.507000
  S     25.677800  -27.073800  -128.444000
  C     24.330700  -26.008400  -128.225000
  C     24.546800  -24.812100  -128.918000
  C     25.687200  -24.883700  -129.828000
  C     26.395100  -26.089000  -129.692000
  H     23.875200  -24.010200  -128.821000
  C     26.004600  -23.836100  -130.884000
  H     25.284100  -23.082100  -130.788000
  H     25.648600  -24.182000  -131.877000
  C     27.434800  -23.216300  -130.925000
  H     28.210000  -23.988700  -131.031000
  H     27.559900  -22.781700  -129.928000
  C     27.567800  -22.142400  -132.086000
  H     28.585400  -21.748300  -131.964000
  H     27.040400  -21.264200  -131.924000
  H     27.425000  -22.392800  -133.103000
  H     30.009100  -28.900800  -131.222000
  H     23.518000  -26.193700  -127.541000

 Total Charge           Charge          ....    0
 Multiplicity           Mult            ....    1
 Number of Electrons    NEL             ....  134
 Basis Dimension        Dim             ....  322

ORBITAL ENERGIES
----------------

  NO   OCC          E(Eh)            E(eV)
   0   2.0000     -88.969269     -2420.9769
   1   2.0000     -88.962594     -2420.7952
   2   2.0000     -10.329759      -281.0870
   3   2.0000     -10.323160      -280.9075
   4   2.0000     -10.316267      -280.7199
   5   2.0000     -10.305922      -280.4384
   6   2.0000     -10.304054      -280.3876
   7   2.0000     -10.301457      -280.3169
   8   2.0000     -10.299630      -280.2672
   9   2.0000     -10.296332      -280.1774
  10   2.0000     -10.294718      -280.1335
  11   2.0000     -10.291653      -280.0501
  12   2.0000     -10.290933      -280.0305
  13   2.0000     -10.286678      -279.9148
  14   2.0000     -10.282017      -279.7879
  15   2.0000     -10.271342      -279.4974
  16   2.0000      -8.084582      -219.9927
  17   2.0000      -8.077677      -219.8048
  18   2.0000      -6.042758      -164.4318
  19   2.0000      -6.039033      -164.3304
  20   2.0000      -6.036164      -164.2524
  21   2.0000      -6.035656      -164.2386
  22   2.0000      -6.032010      -164.1393
  23   2.0000      -6.028561      -164.0455
  24   2.0000      -1.008177       -27.4339
  25   2.0000      -0.983928       -26.7740
  26   2.0000      -0.904570       -24.6146
  27   2.0000      -0.898697       -24.4548
  28   2.0000      -0.867474       -23.6052
  29   2.0000      -0.853349       -23.2208
  30   2.0000      -0.843363       -22.9491
  31   2.0000      -0.809628       -22.0311
  32   2.0000      -0.783493       -21.3199
  33   2.0000      -0.771695       -20.9989
  34   2.0000      -0.711534       -19.3618
  35   2.0000      -0.701322       -19.0839
  36   2.0000      -0.691981       -18.8298
  37   2.0000      -0.664891       -18.0926
  38   2.0000      -0.641418       -17.4539
  39   2.0000      -0.614543       -16.7226
  40   2.0000      -0.590676       -16.0731
  41   2.0000      -0.565786       -15.3958
  42   2.0000      -0.556579       -15.1453
  43   2.0000      -0.552712       -15.0401
  44   2.0000      -0.525917       -14.3109
  45   2.0000      -0.520989       -14.1768
  46   2.0000      -0.511785       -13.9264
  47   2.0000      -0.507758       -13.8168
  48   2.0000      -0.505104       -13.7446
  49   2.0000      -0.494862       -13.4659
  50   2.0000      -0.491496       -13.3743
  51   2.0000      -0.482251       -13.1227
  52   2.0000      -0.472222       -12.8498
  53   2.0000      -0.467958       -12.7338
  54   2.0000      -0.461819       -12.5667
  55   2.0000      -0.451672       -12.2906
  56   2.0000      -0.444785       -12.1032
  57   2.0000      -0.438899       -11.9430
  58   2.0000      -0.433217       -11.7884
  59   2.0000      -0.425972       -11.5913
  60   2.0000      -0.417274       -11.3546
  61   2.0000      -0.413603       -11.2547
  62   2.0000      -0.411095       -11.1865
  63   2.0000      -0.345530        -9.4023
  64   2.0000      -0.337623        -9.1872
  65   2.0000      -0.324783        -8.8378
  66   2.0000      -0.284874        -7.7518
  67   0.0000       0.028363         0.7718
  68   0.0000       0.066486         1.8092
  69   0.0000       0.113689         3.0936
  70   0.0000       0.125436         3.4133
  71   0.0000       0.129679         3.5287

MULLIKEN ATOMIC CHARGES
-----------------------
   0 S :    0.120105
   1 C :   -0.127497
   2 C :   -0.038069
   3 C :    0.007466
   4 C :   -0.181576
   5 H :    0.027786
   6 C :    0.046213
   7 H :    0.016916
   8 H :    0.046680
   9 C :   -0.096647
  10 H :    0.026522
  11 H :    0.032497
  12 C :   -0.031167
  13 H :    0.023567
  14 H :    0.037809
  15 H :    0.045726
  16 S :    0.110797
  17 C :   -0.102622
  18 C :   -0.008964
  19 C :   -0.056798
  20 C :   -0.138939
  21 H :    0.001481
  22 C :    0.085645
  23 H :   -0.019054
  24 H :    0.022121
  25 C :   -0.072395
  26 H :    0.053414
  27 H :    0.033816
  28 C :   -0.025271
  29 H :    0.024544
  30 H :    0.009347
  31 H :    0.031551
  32 H :    0.035219
  33 H :    0.059776
Sum of atomic charges:   -0.0000000

LOEWDIN ATOMIC CHARGES
----------------------
   0 S :    0.423872
   1 C :   -0.191180
   2 C :   -0.075479
   3 C :   -0.052509
   4 C :   -0.200860
   5 H :    0.037040
   6 C :   -0.026281
   7 H :    0.025310
   8 H :    0.036811
   9 C :   -0.047342
  10 H :    0.024234
  11 H :    0.024114
  12 C :   -0.067482
  13 H :    0.021014
  14 H :    0.031775
  15 H :    0.033431
  16 S :    0.415603
  17 C :   -0.192470
  18 C :   -0.065024
  19 C :   -0.057140
  20 C :   -0.207401
  21 H :    0.021231
  22 C :   -0.041418
  23 H :    0.019860
  24 H :    0.031456
  25 C :   -0.028310
  26 H :    0.026816
  27 H :    0.028992
  28 C :   -0.064670
  29 H :    0.032877
  30 H :    0.015650
  31 H :    0.020949
  32 H :    0.017397
  33 H :    0.029137

  Mayer bond orders larger than 0.100000
B(  0-S ,  1-C ) :   1.1668 B(  0-S ,  4-C ) :   1.1628 B(  1-C ,  2-C ) :   1.5855
B(  1-C , 32-H ) :   0.9653 B(  2-C ,  3-C ) :   1.2884 B(  2-C ,  6-C ) :   1.0023
B(  3-C ,  4-C ) :   1.5282 B(  3-C ,  5-H ) :   0.9807 B(  4-C , 20-C ) :   1.0591
B(  6-C ,  7-H ) :   0.9423 B(  6-C ,  8-H ) :   0.9510 B(  6-C ,  9-C ) :   1.0535
B(  9-C , 10-H ) :   0.9616 B(  9-C , 11-H ) :   0.9594 B(  9-C , 12-C ) :   1.0678
B( 12-C , 13-H ) :   0.9747 B( 12-C , 14-H ) :   0.9746 B( 12-C , 15-H ) :   0.9771
B( 16-S , 17-C ) :   1.1695 B( 16-S , 20-C ) :   1.1431 B( 17-C , 18-C ) :   1.5833
B( 17-C , 33-H ) :   0.9704 B( 18-C , 19-C ) :   1.2538 B( 18-C , 21-H ) :   0.9968
B( 19-C , 20-C ) :   1.5709 B( 19-C , 22-C ) :   1.0467 B( 22-C , 23-H ) :   0.9205
B( 22-C , 24-H ) :   0.9288 B( 22-C , 25-C ) :   1.0467 B( 25-C , 26-H ) :   0.9594
B( 25-C , 27-H ) :   0.9560 B( 25-C , 28-C ) :   1.0716 B( 28-C , 29-H ) :   0.9726
B( 28-C , 30-H ) :   0.9739 B( 28-C , 31-H ) :   0.9802

Dispersion correction           -0.013976301
FINAL SINGLE POINT ENERGY     -1339.868506842353

DIPOLE MOMENT
-------------
                                X             Y             Z
Electronic contribution:     -7.97052     -11.21359      26.99768
Nuclear contribution   :      7.93858      11.39739     -27.55668
                        -----------------------------------------
Total Dipole Moment    :     -0.03193       0.18379      -0.55900
                        -----------------------------------------
Magnitude (a.u.)       :      0.58930
Magnitude (Debye)      :      1.49789

Rotational constants in cm-1:     0.018552     0.008228     0.006458
Rotational constants in MHz :   556.164590   246.663908   193.611160

                             ****ORCA TERMINATED NORMALLY****
TOTAL RUN TIME: 0 days 0 hours 0 minutes 21 seconds 213 msec
