                         Program Version 4.2.1 -  RELEASE  -
|  1> ! wB97X-D3 SP def2-SVP
|  2> %pal
|  3> nprocs 24
|  4> end
|  5>
|  6> * xyz 0 1
|  7> S 	 -44.5803 	 -11.1254 	 15.282
|  8> C 	 -45.5012 	 -10.9213 	 16.7366
|  9> C 	 -44.7168 	 -10.5374 	 17.7747
| 10> C 	 -43.4204 	 -10.0869 	 17.3275
| 11> C 	 -43.2643 	 -10.1672 	 15.9748
| 12> H 	 -42.6335 	 -9.6847 	 17.99
| 13> C 	 -45.0433 	 -10.7627 	 19.2619
| 14> H 	 -44.4306 	 -11.5483 	 19.7037
| 15> H 	 -46.0663 	 -11.1539 	 19.3831
| 16> C 	 -44.9076 	 -9.44937 	 20.0847
| 17> H 	 -44.0021 	 -8.95933 	 19.982
| 18> H 	 -45.6848 	 -8.8076 	 19.7854
| 19> C 	 -45.0825 	 -9.71994 	 21.5332
| 20> H 	 -45.0071 	 -8.79119 	 22.116
| 21> H 	 -46.1695 	 -10.0406 	 21.6836
| 22> H 	 -44.4172 	 -10.4802 	 22.0095
| 23> S 	 -41.2332 	 -10.9803 	 14.34
| 24> C 	 -39.9409 	 -9.85454 	 13.9274
| 25> C 	 -40.1897 	 -8.62104 	 14.4075
| 26> C 	 -41.4086 	 -8.54425 	 15.1318
| 27> C 	 -42.0818 	 -9.71982 	 15.228
| 28> H 	 -39.5341 	 -7.85371 	 14.2258
| 29> C 	 -41.8086 	 -7.33228 	 15.869
| 30> H 	 -42.5988 	 -7.6578 	 16.5695
| 31> H 	 -42.1845 	 -6.53596 	 15.2242
| 32> C 	 -40.767 	 -6.63986 	 16.8167
| 33> H 	 -41.2232 	 -5.8113 	 17.312
| 34> H 	 -39.9085 	 -6.30517 	 16.1908
| 35> C 	 -40.1587 	 -7.56895 	 17.942
| 36> H 	 -39.8166 	 -8.4789 	 17.5828
| 37> H 	 -40.8758 	 -7.86826 	 18.6665
| 38> H 	 -39.4733 	 -7.08392 	 18.6569
| 39> H 	 -46.5173 	 -11.2911 	 16.9236
| 40> H 	 -39.022 	 -10.1898 	 13.4368
| 41> *
| 42>
| 43>                          ****END OF INPUT****

CARTESIAN COORDINATES (ANGSTROEM)
---------------------------------
  S    -44.580300  -11.125400   15.282000
  C    -45.501200  -10.921300   16.736600
  C    -44.716800  -10.537400   17.774700
  C    -43.420400  -10.086900   17.327500
  C    -43.264300  -10.167200   15.974800
  H    -42.633500   -9.684700   17.990000
  C    -45.043300  -10.762700   19.261900
  H    -44.430600  -11.548300   19.703700
  H    -46.066300  -11.153900   19.383100
  C    -44.907600   -9.449370   20.084700
  H    -44.002100   -8.959330   19.982000
  H    -45.684800   -8.807600   19.785400
  C    -45.082500   -9.719940   21.533200
  H    -45.007100   -8.791190   22.116000
  H    -46.169500  -10.040600   21.683600
  H    -44.417200  -10.480200   22.009500
  S    -41.233200  -10.980300   14.340000
  C    -39.940900   -9.854540   13.927400
  C    -40.189700   -8.621040   14.407500
  C    -41.408600   -8.544250   15.131800
  C    -42.081800   -9.719820   15.228000
  H    -39.534100   -7.853710   14.225800
  C    -41.808600   -7.332280   15.869000
  H    -42.598800   -7.657800   16.569500
  H    -42.184500   -6.535960   15.224200
  C    -40.767000   -6.639860   16.816700
  H    -41.223200   -5.811300   17.312000
  H    -39.908500   -6.305170   16.190800
  C    -40.158700   -7.568950   17.942000
  H    -39.816600   -8.478900   17.582800
  H    -40.875800   -7.868260   18.666500
  H    -39.473300   -7.083920   18.656900
  H    -46.517300  -11.291100   16.923600
  H    -39.022000  -10.189800   13.436800

 Total Charge           Charge          ....    0
 Multiplicity           Mult            ....    1
 Number of Electrons    NEL             ....  134
 Basis Dimension        Dim             ....  322

ORBITAL ENERGIES
----------------

  NO   OCC          E(Eh)            E(eV)
   0   2.0000     -88.965826     -2420.8832
   1   2.0000     -88.960207     -2420.7303
   2   2.0000     -10.330677      -281.1120
   3   2.0000     -10.325131      -280.9611
   4   2.0000     -10.317445      -280.7520
   5   2.0000     -10.311827      -280.5991
   6   2.0000     -10.299366      -280.2600
   7   2.0000     -10.297531      -280.2101
   8   2.0000     -10.297253      -280.2025
   9   2.0000     -10.295790      -280.1627
  10   2.0000     -10.293047      -280.0880
  11   2.0000     -10.287749      -279.9439
  12   2.0000     -10.285477      -279.8821
  13   2.0000     -10.282494      -279.8009
  14   2.0000     -10.275537      -279.6116
  15   2.0000     -10.271570      -279.5036
  16   2.0000      -8.080702      -219.8871
  17   2.0000      -8.075333      -219.7410
  18   2.0000      -6.039347      -164.3390
  19   2.0000      -6.035531      -164.2351
  20   2.0000      -6.033893      -164.1906
  21   2.0000      -6.030955      -164.1106
  22   2.0000      -6.029829      -164.0800
  23   2.0000      -6.025970      -163.9750
  24   2.0000      -1.010878       -27.5074
  25   2.0000      -0.989743       -26.9323
  26   2.0000      -0.915102       -24.9012
  27   2.0000      -0.904472       -24.6119
  28   2.0000      -0.876358       -23.8469
  29   2.0000      -0.849802       -23.1243
  30   2.0000      -0.844816       -22.9886
  31   2.0000      -0.821179       -22.3454
  32   2.0000      -0.782517       -21.2934
  33   2.0000      -0.771854       -21.0032
  34   2.0000      -0.711993       -19.3743
  35   2.0000      -0.700690       -19.0667
  36   2.0000      -0.695018       -18.9124
  37   2.0000      -0.665159       -18.0999
  38   2.0000      -0.640157       -17.4196
  39   2.0000      -0.622912       -16.9503
  40   2.0000      -0.597392       -16.2559
  41   2.0000      -0.574265       -15.6265
  42   2.0000      -0.570339       -15.5197
  43   2.0000      -0.552168       -15.0253
  44   2.0000      -0.546127       -14.8609
  45   2.0000      -0.526161       -14.3176
  46   2.0000      -0.519213       -14.1285
  47   2.0000      -0.506670       -13.7872
  48   2.0000      -0.502676       -13.6785
  49   2.0000      -0.500739       -13.6258
  50   2.0000      -0.496811       -13.5189
  51   2.0000      -0.481259       -13.0957
  52   2.0000      -0.472386       -12.8543
  53   2.0000      -0.458719       -12.4824
  54   2.0000      -0.456232       -12.4147
  55   2.0000      -0.452729       -12.3194
  56   2.0000      -0.448582       -12.2065
  57   2.0000      -0.438131       -11.9221
  58   2.0000      -0.434684       -11.8284
  59   2.0000      -0.425960       -11.5910
  60   2.0000      -0.421818       -11.4783
  61   2.0000      -0.419503       -11.4153
  62   2.0000      -0.409425       -11.1410
  63   2.0000      -0.351812        -9.5733
  64   2.0000      -0.330330        -8.9887
  65   2.0000      -0.326213        -8.8767
  66   2.0000      -0.296511        -8.0685
  67   0.0000       0.035086         0.9547
  68   0.0000       0.064212         1.7473
  69   0.0000       0.102943         2.8012
  70   0.0000       0.126939         3.4542
  71   0.0000       0.128546         3.4979

MULLIKEN ATOMIC CHARGES
-----------------------
   0 S :    0.112545
   1 C :   -0.117081
   2 C :   -0.077048
   3 C :    0.031859
   4 C :   -0.145229
   5 H :    0.022126
   6 C :    0.051161
   7 H :    0.039310
   8 H :    0.012256
   9 C :   -0.033926
  10 H :    0.015502
  11 H :    0.022406
  12 C :   -0.080329
  13 H :    0.032688
  14 H :    0.026333
  15 H :    0.040792
  16 S :    0.080361
  17 C :   -0.091003
  18 C :    0.008187
  19 C :   -0.027693
  20 C :   -0.151997
  21 H :   -0.013881
  22 C :    0.054295
  23 H :    0.024427
  24 H :    0.041415
  25 C :   -0.081063
  26 H :    0.032232
  27 H :    0.035760
  28 C :   -0.044731
  29 H :    0.029051
  30 H :    0.004699
  31 H :    0.032847
  32 H :    0.049828
  33 H :    0.063905
Sum of atomic charges:   -0.0000000

LOEWDIN ATOMIC CHARGES
----------------------
   0 S :    0.396887
   1 C :   -0.199104
   2 C :   -0.067160
   3 C :   -0.060626
   4 C :   -0.186066
   5 H :    0.034725
   6 C :   -0.023089
   7 H :    0.032459
   8 H :    0.028953
   9 C :   -0.037246
  10 H :    0.012382
  11 H :    0.024472
  12 C :   -0.071980
  13 H :    0.025904
  14 H :    0.028579
  15 H :    0.026335
  16 S :    0.382781
  17 C :   -0.167052
  18 C :   -0.061512
  19 C :   -0.063624
  20 C :   -0.184844
  21 H :    0.019998
  22 C :   -0.035105
  23 H :    0.033259
  24 H :    0.035473
  25 C :   -0.030327
  26 H :    0.022736
  27 H :    0.022086
  28 C :   -0.071049
  29 H :    0.016100
  30 H :    0.017137
  31 H :    0.032572
  32 H :    0.032944
  33 H :    0.033001

  Mayer bond orders larger than 0.100000
B(  0-S ,  1-C ) :   1.1247 B(  0-S ,  4-C ) :   1.1337 B(  1-C ,  2-C ) :   1.6555
B(  1-C , 32-H ) :   0.9617 B(  2-C ,  3-C ) :   1.2087 B(  2-C ,  6-C ) :   1.0222
B(  3-C ,  4-C ) :   1.5959 B(  3-C ,  5-H ) :   0.9893 B(  4-C , 20-C ) :   1.0169
B(  6-C ,  7-H ) :   0.9485 B(  6-C ,  8-H ) :   0.9414 B(  6-C ,  9-C ) :   1.0536
B(  9-C , 10-H ) :   0.9590 B(  9-C , 11-H ) :   0.9501 B(  9-C , 12-C ) :   1.0982
B( 12-C , 13-H ) :   0.9710 B( 12-C , 14-H ) :   0.9715 B( 12-C , 15-H ) :   0.9738
B( 16-S , 17-C ) :   1.1443 B( 16-S , 20-C ) :   1.1281 B( 17-C , 18-C ) :   1.6287
B( 17-C , 33-H ) :   0.9658 B( 18-C , 19-C ) :   1.1972 B( 18-C , 21-H ) :   1.0124
B( 19-C , 20-C ) :   1.6446 B( 19-C , 22-C ) :   1.0611 B( 22-C , 23-H ) :   0.9363
B( 22-C , 24-H ) :   0.9250 B( 22-C , 25-C ) :   1.0708 B( 25-C , 26-H ) :   0.9588
B( 25-C , 27-H ) :   0.9563 B( 25-C , 28-C ) :   1.0678 B( 28-C , 29-H ) :   0.9786
B( 28-C , 30-H ) :   0.9673 B( 28-C , 31-H ) :   0.9719

Dispersion correction           -0.014733843
FINAL SINGLE POINT ENERGY     -1339.870195717015

DIPOLE MOMENT
-------------
                                X             Y             Z
Electronic contribution:     -0.30997     -14.80009     -27.56719
Nuclear contribution   :      0.45940      15.14381      28.21078
                        -----------------------------------------
Total Dipole Moment    :      0.14943       0.34372       0.64358
                        -----------------------------------------
Magnitude (a.u.)       :      0.74476
Magnitude (Debye)      :      1.89304

Rotational constants in cm-1:     0.018343     0.009312     0.006783
Rotational constants in MHz :   549.920618   279.179212   203.347650

                             ****ORCA TERMINATED NORMALLY****
TOTAL RUN TIME: 0 days 0 hours 0 minutes 22 seconds 245 msec
