                         Program Version 4.2.1 -  RELEASE  -
|  1> ! wB97X-D3 SP def2-SVP
|  2> %pal
|  3> nprocs 24
|  4> end
|  5>
|  6> * xyz 0 1
|  7> S 	 -65.1267 	 -49.1665 	 -93.5108
|  8> C 	 -63.9893 	 -48.0427 	 -92.8153
|  9> C 	 -63.65 	 -48.3282 	 -91.4964
| 10> C 	 -64.4419 	 -49.4104 	 -91.0158
| 11> C 	 -65.2437 	 -49.9515 	 -92.0156
| 12> H 	 -64.6444 	 -49.7603 	 -89.9938
| 13> C 	 -62.5523 	 -47.6685 	 -90.7251
| 14> H 	 -61.6153 	 -47.9724 	 -91.2081
| 15> H 	 -62.425 	 -48.0539 	 -89.659
| 16> C 	 -62.6351 	 -46.1328 	 -90.6401
| 17> H 	 -62.9738 	 -45.7992 	 -91.6624
| 18> H 	 -63.5215 	 -45.7757 	 -90.0377
| 19> C 	 -61.3414 	 -45.4568 	 -90.2281
| 20> H 	 -60.6932 	 -45.5295 	 -91.082
| 21> H 	 -61.4984 	 -44.3741 	 -90.2746
| 22> H 	 -60.8578 	 -45.7156 	 -89.2933
| 23> S 	 -67.7834 	 -50.9349 	 -92.1908
| 24> C 	 -68.0811 	 -52.6616 	 -92.2559
| 25> C 	 -66.9359 	 -53.3439 	 -92.044
| 26> C 	 -65.804 	 -52.4598 	 -91.826
| 27> C 	 -66.094 	 -51.1047 	 -91.9477
| 28> H 	 -67.0625 	 -54.4087 	 -91.9424
| 29> C 	 -64.4374 	 -53.0739 	 -91.4228
| 30> H 	 -64.5153 	 -54.1882 	 -91.1731
| 31> H 	 -64.2543 	 -52.7586 	 -90.3325
| 32> C 	 -63.307 	 -52.9399 	 -92.3888
| 33> H 	 -62.4517 	 -53.3955 	 -91.9559
| 34> H 	 -63.0129 	 -51.8995 	 -92.4108
| 35> C 	 -63.5831 	 -53.524 	 -93.7433
| 36> H 	 -64.6691 	 -53.47 	 -94.0132
| 37> H 	 -63.2245 	 -54.5668 	 -93.6652
| 38> H 	 -62.9157 	 -52.957 	 -94.3625
| 39> H 	 -63.4221 	 -47.2588 	 -93.379
| 40> H 	 -69.0567 	 -53.0283 	 -92.3077
| 41> *
| 42>
| 43>                          ****END OF INPUT****

CARTESIAN COORDINATES (ANGSTROEM)
---------------------------------
  S    -65.126700  -49.166500  -93.510800
  C    -63.989300  -48.042700  -92.815300
  C    -63.650000  -48.328200  -91.496400
  C    -64.441900  -49.410400  -91.015800
  C    -65.243700  -49.951500  -92.015600
  H    -64.644400  -49.760300  -89.993800
  C    -62.552300  -47.668500  -90.725100
  H    -61.615300  -47.972400  -91.208100
  H    -62.425000  -48.053900  -89.659000
  C    -62.635100  -46.132800  -90.640100
  H    -62.973800  -45.799200  -91.662400
  H    -63.521500  -45.775700  -90.037700
  C    -61.341400  -45.456800  -90.228100
  H    -60.693200  -45.529500  -91.082000
  H    -61.498400  -44.374100  -90.274600
  H    -60.857800  -45.715600  -89.293300
  S    -67.783400  -50.934900  -92.190800
  C    -68.081100  -52.661600  -92.255900
  C    -66.935900  -53.343900  -92.044000
  C    -65.804000  -52.459800  -91.826000
  C    -66.094000  -51.104700  -91.947700
  H    -67.062500  -54.408700  -91.942400
  C    -64.437400  -53.073900  -91.422800
  H    -64.515300  -54.188200  -91.173100
  H    -64.254300  -52.758600  -90.332500
  C    -63.307000  -52.939900  -92.388800
  H    -62.451700  -53.395500  -91.955900
  H    -63.012900  -51.899500  -92.410800
  C    -63.583100  -53.524000  -93.743300
  H    -64.669100  -53.470000  -94.013200
  H    -63.224500  -54.566800  -93.665200
  H    -62.915700  -52.957000  -94.362500
  H    -63.422100  -47.258800  -93.379000
  H    -69.056700  -53.028300  -92.307700

 Total Charge           Charge          ....    0
 Multiplicity           Mult            ....    1
 Number of Electrons    NEL             ....  134
 Basis Dimension        Dim             ....  322

ORBITAL ENERGIES
----------------

  NO   OCC          E(Eh)            E(eV)
   0   2.0000     -88.970646     -2421.0144
   1   2.0000     -88.958809     -2420.6923
   2   2.0000     -10.322287      -280.8837
   3   2.0000     -10.321093      -280.8512
   4   2.0000     -10.314864      -280.6817
   5   2.0000     -10.310066      -280.5512
   6   2.0000     -10.306322      -280.4493
   7   2.0000     -10.302876      -280.3555
   8   2.0000     -10.297171      -280.2003
   9   2.0000     -10.295103      -280.1440
  10   2.0000     -10.294395      -280.1247
  11   2.0000     -10.294297      -280.1221
  12   2.0000     -10.291925      -280.0575
  13   2.0000     -10.278398      -279.6894
  14   2.0000     -10.270739      -279.4810
  15   2.0000     -10.268367      -279.4165
  16   2.0000      -8.086251      -220.0381
  17   2.0000      -8.074679      -219.7232
  18   2.0000      -6.044537      -164.4802
  19   2.0000      -6.040629      -164.3739
  20   2.0000      -6.037181      -164.2800
  21   2.0000      -6.033132      -164.1699
  22   2.0000      -6.028901      -164.0547
  23   2.0000      -6.025544      -163.9634
  24   2.0000      -1.014588       -27.6084
  25   2.0000      -0.988226       -26.8910
  26   2.0000      -0.914906       -24.8959
  27   2.0000      -0.908860       -24.7313
  28   2.0000      -0.874314       -23.7913
  29   2.0000      -0.854043       -23.2397
  30   2.0000      -0.842091       -22.9144
  31   2.0000      -0.816546       -22.2193
  32   2.0000      -0.784396       -21.3445
  33   2.0000      -0.769564       -20.9409
  34   2.0000      -0.705622       -19.2009
  35   2.0000      -0.701382       -19.0856
  36   2.0000      -0.681660       -18.5489
  37   2.0000      -0.662804       -18.0358
  38   2.0000      -0.641671       -17.4607
  39   2.0000      -0.613690       -16.6994
  40   2.0000      -0.587529       -15.9875
  41   2.0000      -0.577780       -15.7222
  42   2.0000      -0.557843       -15.1797
  43   2.0000      -0.554382       -15.0855
  44   2.0000      -0.548964       -14.9381
  45   2.0000      -0.524476       -14.2717
  46   2.0000      -0.518805       -14.1174
  47   2.0000      -0.513442       -13.9715
  48   2.0000      -0.501654       -13.6507
  49   2.0000      -0.497745       -13.5443
  50   2.0000      -0.484496       -13.1838
  51   2.0000      -0.479687       -13.0530
  52   2.0000      -0.477276       -12.9873
  53   2.0000      -0.469498       -12.7757
  54   2.0000      -0.457219       -12.4415
  55   2.0000      -0.452714       -12.3190
  56   2.0000      -0.440088       -11.9754
  57   2.0000      -0.433693       -11.8014
  58   2.0000      -0.428563       -11.6618
  59   2.0000      -0.427021       -11.6198
  60   2.0000      -0.409596       -11.1457
  61   2.0000      -0.406295       -11.0559
  62   2.0000      -0.397245       -10.8096
  63   2.0000      -0.341413        -9.2903
  64   2.0000      -0.333739        -9.0815
  65   2.0000      -0.324943        -8.8422
  66   2.0000      -0.298937        -8.1345
  67   0.0000       0.038757         1.0546
  68   0.0000       0.063217         1.7202
  69   0.0000       0.114544         3.1169
  70   0.0000       0.120774         3.2864
  71   0.0000       0.131167         3.5692

MULLIKEN ATOMIC CHARGES
-----------------------
   0 S :    0.150731
   1 C :   -0.142256
   2 C :   -0.069879
   3 C :    0.034334
   4 C :   -0.184871
   5 H :    0.026179
   6 C :    0.054609
   7 H :    0.036915
   8 H :    0.032469
   9 C :   -0.121624
  10 H :    0.019553
  11 H :    0.038668
  12 C :   -0.017211
  13 H :    0.018772
  14 H :    0.025663
  15 H :    0.048050
  16 S :    0.095433
  17 C :   -0.083892
  18 C :   -0.017794
  19 C :   -0.031117
  20 C :   -0.171534
  21 H :    0.022167
  22 C :    0.005168
  23 H :    0.013627
  24 H :    0.038031
  25 C :   -0.037260
  26 H :    0.008776
  27 H :    0.024751
  28 C :   -0.037457
  29 H :    0.057679
  30 H :    0.030218
  31 H :    0.032296
  32 H :    0.061374
  33 H :    0.039432
Sum of atomic charges:    0.0000000

LOEWDIN ATOMIC CHARGES
----------------------
   0 S :    0.450685
   1 C :   -0.214730
   2 C :   -0.062746
   3 C :   -0.062641
   4 C :   -0.215260
   5 H :    0.039086
   6 C :   -0.040452
   7 H :    0.035400
   8 H :    0.036097
   9 C :   -0.048515
  10 H :    0.024698
  11 H :    0.028632
  12 C :   -0.070446
  13 H :    0.025855
  14 H :    0.032303
  15 H :    0.027001
  16 S :    0.411846
  17 C :   -0.170007
  18 C :   -0.075034
  19 C :   -0.055672
  20 C :   -0.222874
  21 H :    0.034911
  22 C :   -0.045831
  23 H :    0.030331
  24 H :    0.036877
  25 C :   -0.049470
  26 H :    0.020464
  27 H :    0.019692
  28 C :   -0.062162
  29 H :    0.034443
  30 H :    0.029035
  31 H :    0.027772
  32 H :    0.033046
  33 H :    0.017668

  Mayer bond orders larger than 0.100000
B(  0-S ,  1-C ) :   1.1448 B(  0-S ,  4-C ) :   1.1859 B(  1-C ,  2-C ) :   1.6073
B(  1-C , 32-H ) :   0.9563 B(  2-C ,  3-C ) :   1.2433 B(  2-C ,  6-C ) :   1.0163
B(  3-C ,  4-C ) :   1.5701 B(  3-C ,  5-H ) :   0.9926 B(  4-C , 20-C ) :   1.0219
B(  6-C ,  7-H ) :   0.9385 B(  6-C ,  8-H ) :   0.9449 B(  6-C ,  9-C ) :   1.0505
B(  9-C , 10-H ) :   0.9572 B(  9-C , 11-H ) :   0.9551 B(  9-C , 12-C ) :   1.0802
B( 12-C , 13-H ) :   0.9695 B( 12-C , 14-H ) :   0.9670 B( 12-C , 15-H ) :   0.9763
B( 16-S , 17-C ) :   1.1603 B( 16-S , 20-C ) :   1.1529 B( 17-C , 18-C ) :   1.6091
B( 17-C , 33-H ) :   0.9761 B( 18-C , 19-C ) :   1.2256 B( 18-C , 21-H ) :   0.9959
B( 19-C , 20-C ) :   1.5916 B( 19-C , 22-C ) :   1.0228 B( 22-C , 23-H ) :   0.9413
B( 22-C , 24-H ) :   0.9388 B( 22-C , 25-C ) :   1.0759 B( 25-C , 26-H ) :   0.9474
B( 25-C , 27-H ) :   0.9577 B( 25-C , 28-C ) :   1.0574 B( 28-C , 29-H ) :   0.9771
B( 28-C , 30-H ) :   0.9760 B( 28-C , 31-H ) :   0.9734

Dispersion correction           -0.014853847
FINAL SINGLE POINT ENERGY     -1339.867841366725

DIPOLE MOMENT
-------------
                                X             Y             Z
Electronic contribution:    -23.15420      -2.82080      -6.94312
Nuclear contribution   :     23.63783       2.73594       7.25056
                        -----------------------------------------
Total Dipole Moment    :      0.48363      -0.08486       0.30744
                        -----------------------------------------
Magnitude (a.u.)       :      0.57933
Magnitude (Debye)      :      1.47254

Rotational constants in cm-1:     0.024026     0.007571     0.006666
Rotational constants in MHz :   720.278320   226.978582   199.846697

                             ****ORCA TERMINATED NORMALLY****
TOTAL RUN TIME: 0 days 0 hours 0 minutes 22 seconds 63 msec
