                         Program Version 4.2.1 -  RELEASE  -
|  1> ! wB97X-D3 SP def2-SVP
|  2> %pal
|  3> nprocs 24
|  4> end
|  5>
|  6> * xyz 0 1
|  7> S 	 -53.5892 	 -6.46817 	 -27.166
|  8> C 	 -52.4848 	 -6.44353 	 -25.7902
|  9> C 	 -52.706 	 -5.24118 	 -25.122
| 10> C 	 -53.8569 	 -4.4932 	 -25.5736
| 11> C 	 -54.4675 	 -5.02337 	 -26.697
| 12> H 	 -54.2672 	 -3.54839 	 -25.1896
| 13> C 	 -51.9519 	 -4.78329 	 -23.8734
| 14> H 	 -51.1009 	 -5.37662 	 -23.695
| 15> H 	 -52.6719 	 -4.82504 	 -23.0223
| 16> C 	 -51.448 	 -3.2822 	 -23.8693
| 17> H 	 -50.9826 	 -3.04104 	 -24.8148
| 18> H 	 -52.2931 	 -2.65085 	 -23.7742
| 19> C 	 -50.4347 	 -3.01336 	 -22.7018
| 20> H 	 -50.0835 	 -1.96551 	 -22.6242
| 21> H 	 -50.9895 	 -3.27159 	 -21.7394
| 22> H 	 -49.5339 	 -3.697 	 -22.6946
| 23> S 	 -56.9068 	 -5.41979 	 -27.7774
| 24> C 	 -57.7607 	 -4.1108 	 -28.6334
| 25> C 	 -57.0615 	 -2.9277 	 -28.5235
| 26> C 	 -55.7893 	 -3.08431 	 -27.8398
| 27> C 	 -55.5628 	 -4.41478 	 -27.4486
| 28> H 	 -57.3687 	 -2.01971 	 -28.9198
| 29> C 	 -54.6733 	 -1.93109 	 -27.8599
| 30> H 	 -53.6679 	 -2.29578 	 -27.5356
| 31> H 	 -55.0245 	 -1.29079 	 -26.9943
| 32> C 	 -54.3712 	 -1.02072 	 -29.0739
| 33> H 	 -53.4903 	 -0.359917 	 -28.917
| 34> H 	 -55.2912 	 -0.396249 	 -29.3538
| 35> C 	 -54.0897 	 -1.94436 	 -30.2134
| 36> H 	 -53.3257 	 -2.75845 	 -30.1405
| 37> H 	 -53.8204 	 -1.44569 	 -31.0921
| 38> H 	 -55.0366 	 -2.42224 	 -30.506
| 39> H 	 -51.7065 	 -7.14532 	 -25.6228
| 40> H 	 -58.6837 	 -4.19074 	 -29.1149
| 41> *
| 42>
| 43>                          ****END OF INPUT****

CARTESIAN COORDINATES (ANGSTROEM)
---------------------------------
  S    -53.589200   -6.468170  -27.166000
  C    -52.484800   -6.443530  -25.790200
  C    -52.706000   -5.241180  -25.122000
  C    -53.856900   -4.493200  -25.573600
  C    -54.467500   -5.023370  -26.697000
  H    -54.267200   -3.548390  -25.189600
  C    -51.951900   -4.783290  -23.873400
  H    -51.100900   -5.376620  -23.695000
  H    -52.671900   -4.825040  -23.022300
  C    -51.448000   -3.282200  -23.869300
  H    -50.982600   -3.041040  -24.814800
  H    -52.293100   -2.650850  -23.774200
  C    -50.434700   -3.013360  -22.701800
  H    -50.083500   -1.965510  -22.624200
  H    -50.989500   -3.271590  -21.739400
  H    -49.533900   -3.697000  -22.694600
  S    -56.906800   -5.419790  -27.777400
  C    -57.760700   -4.110800  -28.633400
  C    -57.061500   -2.927700  -28.523500
  C    -55.789300   -3.084310  -27.839800
  C    -55.562800   -4.414780  -27.448600
  H    -57.368700   -2.019710  -28.919800
  C    -54.673300   -1.931090  -27.859900
  H    -53.667900   -2.295780  -27.535600
  H    -55.024500   -1.290790  -26.994300
  C    -54.371200   -1.020720  -29.073900
  H    -53.490300   -0.359917  -28.917000
  H    -55.291200   -0.396249  -29.353800
  C    -54.089700   -1.944360  -30.213400
  H    -53.325700   -2.758450  -30.140500
  H    -53.820400   -1.445690  -31.092100
  H    -55.036600   -2.422240  -30.506000
  H    -51.706500   -7.145320  -25.622800
  H    -58.683700   -4.190740  -29.114900

 Total Charge           Charge          ....    0
 Multiplicity           Mult            ....    1
 Number of Electrons    NEL             ....  134
 Basis Dimension        Dim             ....  322

ORBITAL ENERGIES
----------------

  NO   OCC          E(Eh)            E(eV)
   0   2.0000     -88.967963     -2420.9414
   1   2.0000     -88.964156     -2420.8377
   2   2.0000     -10.331265      -281.1280
   3   2.0000     -10.329916      -281.0913
   4   2.0000     -10.319669      -280.8125
   5   2.0000     -10.318297      -280.7751
   6   2.0000     -10.315787      -280.7068
   7   2.0000     -10.307388      -280.4783
   8   2.0000     -10.304245      -280.3928
   9   2.0000     -10.297759      -280.2163
  10   2.0000     -10.296916      -280.1933
  11   2.0000     -10.296220      -280.1744
  12   2.0000     -10.293447      -280.0989
  13   2.0000     -10.292712      -280.0789
  14   2.0000     -10.288359      -279.9605
  15   2.0000     -10.267305      -279.3876
  16   2.0000      -8.082935      -219.9478
  17   2.0000      -8.078544      -219.8284
  18   2.0000      -6.041497      -164.3975
  19   2.0000      -6.037300      -164.2833
  20   2.0000      -6.037158      -164.2794
  21   2.0000      -6.033712      -164.1856
  22   2.0000      -6.032950      -164.1649
  23   2.0000      -6.029339      -164.0667
  24   2.0000      -1.005970       -27.3738
  25   2.0000      -0.982114       -26.7247
  26   2.0000      -0.906057       -24.6551
  27   2.0000      -0.902956       -24.5707
  28   2.0000      -0.872367       -23.7383
  29   2.0000      -0.847223       -23.0541
  30   2.0000      -0.839087       -22.8327
  31   2.0000      -0.816704       -22.2236
  32   2.0000      -0.776436       -21.1279
  33   2.0000      -0.768024       -20.8990
  34   2.0000      -0.709769       -19.3138
  35   2.0000      -0.696925       -18.9643
  36   2.0000      -0.691454       -18.8154
  37   2.0000      -0.664360       -18.0782
  38   2.0000      -0.645366       -17.5613
  39   2.0000      -0.616763       -16.7830
  40   2.0000      -0.595060       -16.1924
  41   2.0000      -0.569088       -15.4857
  42   2.0000      -0.563869       -15.3437
  43   2.0000      -0.550185       -14.9713
  44   2.0000      -0.548386       -14.9223
  45   2.0000      -0.522241       -14.2109
  46   2.0000      -0.516553       -14.0561
  47   2.0000      -0.512470       -13.9450
  48   2.0000      -0.503654       -13.7051
  49   2.0000      -0.492445       -13.4001
  50   2.0000      -0.486806       -13.2467
  51   2.0000      -0.480033       -13.0624
  52   2.0000      -0.473204       -12.8765
  53   2.0000      -0.462470       -12.5844
  54   2.0000      -0.459282       -12.4977
  55   2.0000      -0.446062       -12.1380
  56   2.0000      -0.443357       -12.0644
  57   2.0000      -0.432690       -11.7741
  58   2.0000      -0.428393       -11.6572
  59   2.0000      -0.425037       -11.5659
  60   2.0000      -0.422169       -11.4878
  61   2.0000      -0.410920       -11.1817
  62   2.0000      -0.409539       -11.1441
  63   2.0000      -0.350278        -9.5315
  64   2.0000      -0.330108        -8.9827
  65   2.0000      -0.326043        -8.8721
  66   2.0000      -0.296746        -8.0749
  67   0.0000       0.027593         0.7508
  68   0.0000       0.073618         2.0032
  69   0.0000       0.114994         3.1291
  70   0.0000       0.119254         3.2451
  71   0.0000       0.126385         3.4391

MULLIKEN ATOMIC CHARGES
-----------------------
   0 S :    0.097849
   1 C :   -0.105046
   2 C :   -0.081262
   3 C :    0.020824
   4 C :   -0.131129
   5 H :    0.022597
   6 C :    0.058858
   7 H :    0.005342
   8 H :    0.046916
   9 C :   -0.071778
  10 H :    0.030960
  11 H :    0.025568
  12 C :   -0.097418
  13 H :    0.049702
  14 H :    0.033230
  15 H :    0.043364
  16 S :    0.114219
  17 C :   -0.064062
  18 C :   -0.002370
  19 C :   -0.029860
  20 C :   -0.174765
  21 H :   -0.006626
  22 C :   -0.004581
  23 H :    0.043250
  24 H :    0.040900
  25 C :   -0.062680
  26 H :    0.045874
  27 H :    0.038587
  28 C :   -0.045318
  29 H :    0.039641
  30 H :    0.008628
  31 H :    0.026213
  32 H :    0.045015
  33 H :    0.039357
Sum of atomic charges:   -0.0000000

LOEWDIN ATOMIC CHARGES
----------------------
   0 S :    0.396003
   1 C :   -0.188858
   2 C :   -0.061465
   3 C :   -0.066717
   4 C :   -0.195335
   5 H :    0.035426
   6 C :   -0.026490
   7 H :    0.018019
   8 H :    0.038575
   9 C :   -0.036275
  10 H :    0.020115
  11 H :    0.015934
  12 C :   -0.077205
  13 H :    0.029367
  14 H :    0.029771
  15 H :    0.028826
  16 S :    0.418897
  17 C :   -0.164618
  18 C :   -0.057002
  19 C :   -0.053106
  20 C :   -0.212225
  21 H :    0.019855
  22 C :   -0.041854
  23 H :    0.034377
  24 H :    0.032573
  25 C :   -0.046509
  26 H :    0.033481
  27 H :    0.030743
  28 C :   -0.074150
  29 H :    0.031905
  30 H :    0.013212
  31 H :    0.028566
  32 H :    0.026672
  33 H :    0.019489

  Mayer bond orders larger than 0.100000
B(  0-S ,  1-C ) :   1.1278 B(  0-S ,  4-C ) :   1.1540 B(  1-C ,  2-C ) :   1.5943
B(  1-C , 32-H ) :   0.9796 B(  2-C ,  3-C ) :   1.2173 B(  2-C ,  6-C ) :   1.0386
B(  3-C ,  4-C ) :   1.5771 B(  3-C ,  5-H ) :   0.9948 B(  4-C , 20-C ) :   1.0241
B(  6-C ,  7-H ) :   0.9491 B(  6-C ,  8-H ) :   0.9422 B(  6-C ,  9-C ) :   1.0485
B(  9-C , 10-H ) :   0.9627 B(  9-C , 11-H ) :   0.9543 B(  9-C , 12-C ) :   1.0780
B( 12-C , 13-H ) :   0.9756 B( 12-C , 14-H ) :   0.9740 B( 12-C , 15-H ) :   0.9764
B( 16-S , 17-C ) :   1.1410 B( 16-S , 20-C ) :   1.1639 B( 17-C , 18-C ) :   1.6039
B( 17-C , 33-H ) :   0.9786 B( 18-C , 19-C ) :   1.2426 B( 18-C , 21-H ) :   0.9965
B( 19-C , 20-C ) :   1.5895 B( 19-C , 22-C ) :   1.0080 B( 22-C , 23-H ) :   0.9497
B( 22-C , 24-H ) :   0.9362 B( 22-C , 25-C ) :   1.0722 B( 25-C , 26-H ) :   0.9533
B( 25-C , 27-H ) :   0.9476 B( 25-C , 28-C ) :   1.0834 B( 28-C , 29-H ) :   0.9747
B( 28-C , 30-H ) :   0.9702 B( 28-C , 31-H ) :   0.9674

Dispersion correction           -0.014349492
FINAL SINGLE POINT ENERGY     -1339.869041337310

DIPOLE MOMENT
-------------
                                X             Y             Z
Electronic contribution:    -16.77798     -21.18827      -7.01757
Nuclear contribution   :     17.00283      21.82833       7.12255
                        -----------------------------------------
Total Dipole Moment    :      0.22484       0.64006       0.10498
                        -----------------------------------------
Magnitude (a.u.)       :      0.68648
Magnitude (Debye)      :      1.74489

Rotational constants in cm-1:     0.018420     0.008355     0.006710
Rotational constants in MHz :   552.208881   250.469537   201.165565

                             ****ORCA TERMINATED NORMALLY****
TOTAL RUN TIME: 0 days 0 hours 0 minutes 21 seconds 386 msec
