                         Program Version 4.2.1 -  RELEASE  -
|  1> ! wB97X-D3 SP def2-SVP
|  2> %pal
|  3> nprocs 24
|  4> end
|  5>
|  6> * xyz 0 1
|  7> S 	 -132.435 	 64.8755 	 -60.3202
|  8> C 	 -132.132 	 66.3208 	 -61.225
|  9> C 	 -133.215 	 66.8468 	 -61.9491
| 10> C 	 -134.343 	 65.9368 	 -61.8857
| 11> C 	 -134.036 	 64.785 	 -61.2178
| 12> H 	 -135.275 	 65.9527 	 -62.4301
| 13> C 	 -133.225 	 68.0588 	 -62.9134
| 14> H 	 -132.44 	 68.5997 	 -62.5592
| 15> H 	 -134.126 	 68.592 	 -62.6873
| 16> C 	 -133.128 	 67.7294 	 -64.414
| 17> H 	 -134.045 	 67.2558 	 -64.7038
| 18> H 	 -133.092 	 68.5932 	 -65.1181
| 19> C 	 -132.022 	 66.7365 	 -64.853
| 20> H 	 -132.004 	 66.5529 	 -65.9554
| 21> H 	 -130.997 	 67.1692 	 -64.6082
| 22> H 	 -132.067 	 65.7729 	 -64.3434
| 23> S 	 -135.224 	 62.7515 	 -62.686
| 24> C 	 -136.302 	 61.6408 	 -61.8874
| 25> C 	 -136.352 	 61.8988 	 -60.5256
| 26> C 	 -135.535 	 62.9523 	 -60.0896
| 27> C 	 -134.887 	 63.625 	 -61.1514
| 28> H 	 -137.065 	 61.3829 	 -59.9175
| 29> C 	 -135.62 	 63.3801 	 -58.6244
| 30> H 	 -136.677 	 63.3684 	 -58.2901
| 31> H 	 -135.399 	 64.4386 	 -58.5439
| 32> C 	 -134.775 	 62.5632 	 -57.6915
| 33> H 	 -135.34 	 61.6023 	 -57.5901
| 34> H 	 -134.857 	 62.9694 	 -56.6799
| 35> C 	 -133.307 	 62.3701 	 -58.1429
| 36> H 	 -132.828 	 63.3622 	 -58.1541
| 37> H 	 -133.205 	 61.8322 	 -59.1143
| 38> H 	 -132.665 	 61.9278 	 -57.3734
| 39> H 	 -131.123 	 66.6133 	 -61.5473
| 40> H 	 -137.03 	 60.9783 	 -62.3915
| 41> *
| 42>
| 43>                          ****END OF INPUT****

CARTESIAN COORDINATES (ANGSTROEM)
---------------------------------
  S    -132.435000   64.875500  -60.320200
  C    -132.132000   66.320800  -61.225000
  C    -133.215000   66.846800  -61.949100
  C    -134.343000   65.936800  -61.885700
  C    -134.036000   64.785000  -61.217800
  H    -135.275000   65.952700  -62.430100
  C    -133.225000   68.058800  -62.913400
  H    -132.440000   68.599700  -62.559200
  H    -134.126000   68.592000  -62.687300
  C    -133.128000   67.729400  -64.414000
  H    -134.045000   67.255800  -64.703800
  H    -133.092000   68.593200  -65.118100
  C    -132.022000   66.736500  -64.853000
  H    -132.004000   66.552900  -65.955400
  H    -130.997000   67.169200  -64.608200
  H    -132.067000   65.772900  -64.343400
  S    -135.224000   62.751500  -62.686000
  C    -136.302000   61.640800  -61.887400
  C    -136.352000   61.898800  -60.525600
  C    -135.535000   62.952300  -60.089600
  C    -134.887000   63.625000  -61.151400
  H    -137.065000   61.382900  -59.917500
  C    -135.620000   63.380100  -58.624400
  H    -136.677000   63.368400  -58.290100
  H    -135.399000   64.438600  -58.543900
  C    -134.775000   62.563200  -57.691500
  H    -135.340000   61.602300  -57.590100
  H    -134.857000   62.969400  -56.679900
  C    -133.307000   62.370100  -58.142900
  H    -132.828000   63.362200  -58.154100
  H    -133.205000   61.832200  -59.114300
  H    -132.665000   61.927800  -57.373400
  H    -131.123000   66.613300  -61.547300
  H    -137.030000   60.978300  -62.391500

 Total Charge           Charge          ....    0
 Multiplicity           Mult            ....    1
 Number of Electrons    NEL             ....  134
 Basis Dimension        Dim             ....  322

ORBITAL ENERGIES
----------------

  NO   OCC          E(Eh)            E(eV)
   0   2.0000     -88.968922     -2420.9674
   1   2.0000     -88.967131     -2420.9187
   2   2.0000     -10.332207      -281.1536
   3   2.0000     -10.329694      -281.0853
   4   2.0000     -10.317772      -280.7608
   5   2.0000     -10.315593      -280.7016
   6   2.0000     -10.308423      -280.5064
   7   2.0000     -10.302609      -280.3482
   8   2.0000     -10.297946      -280.2213
   9   2.0000     -10.290968      -280.0315
  10   2.0000     -10.289634      -279.9952
  11   2.0000     -10.289123      -279.9813
  12   2.0000     -10.287925      -279.9487
  13   2.0000     -10.285666      -279.8872
  14   2.0000     -10.283833      -279.8373
  15   2.0000     -10.277257      -279.6584
  16   2.0000      -8.082276      -219.9299
  17   2.0000      -8.081045      -219.8964
  18   2.0000      -6.040815      -164.3789
  19   2.0000      -6.039595      -164.3457
  20   2.0000      -6.037260      -164.2822
  21   2.0000      -6.035533      -164.2352
  22   2.0000      -6.032764      -164.1599
  23   2.0000      -6.031956      -164.1379
  24   2.0000      -0.999799       -27.2059
  25   2.0000      -0.978118       -26.6159
  26   2.0000      -0.908217       -24.7138
  27   2.0000      -0.907205       -24.6863
  28   2.0000      -0.869272       -23.6541
  29   2.0000      -0.845841       -23.0165
  30   2.0000      -0.842421       -22.9234
  31   2.0000      -0.809964       -22.0403
  32   2.0000      -0.786180       -21.3930
  33   2.0000      -0.770121       -20.9561
  34   2.0000      -0.709015       -19.2933
  35   2.0000      -0.698146       -18.9975
  36   2.0000      -0.686248       -18.6738
  37   2.0000      -0.659558       -17.9475
  38   2.0000      -0.637382       -17.3440
  39   2.0000      -0.615961       -16.7612
  40   2.0000      -0.593997       -16.1635
  41   2.0000      -0.560417       -15.2497
  42   2.0000      -0.551429       -15.0052
  43   2.0000      -0.549681       -14.9576
  44   2.0000      -0.544668       -14.8212
  45   2.0000      -0.541281       -14.7290
  46   2.0000      -0.513905       -13.9841
  47   2.0000      -0.507122       -13.7995
  48   2.0000      -0.497426       -13.5357
  49   2.0000      -0.490463       -13.3462
  50   2.0000      -0.485293       -13.2055
  51   2.0000      -0.476335       -12.9617
  52   2.0000      -0.469919       -12.7872
  53   2.0000      -0.460606       -12.5337
  54   2.0000      -0.455943       -12.4068
  55   2.0000      -0.450511       -12.2590
  56   2.0000      -0.441590       -12.0163
  57   2.0000      -0.439589       -11.9618
  58   2.0000      -0.434123       -11.8131
  59   2.0000      -0.425893       -11.5891
  60   2.0000      -0.416472       -11.3328
  61   2.0000      -0.411422       -11.1954
  62   2.0000      -0.403023       -10.9668
  63   2.0000      -0.344416        -9.3720
  64   2.0000      -0.334877        -9.1125
  65   2.0000      -0.327794        -8.9197
  66   2.0000      -0.289836        -7.8868
  67   0.0000       0.026694         0.7264
  68   0.0000       0.051384         1.3982
  69   0.0000       0.098374         2.6769
  70   0.0000       0.109813         2.9882
  71   0.0000       0.132817         3.6141

MULLIKEN ATOMIC CHARGES
-----------------------
   0 S :    0.105715
   1 C :   -0.104181
   2 C :   -0.153708
   3 C :    0.034911
   4 C :   -0.153793
   5 H :    0.022884
   6 C :    0.157184
   7 H :   -0.002798
   8 H :    0.029849
   9 C :   -0.060212
  10 H :    0.017804
  11 H :    0.037691
  12 C :   -0.100931
  13 H :    0.043997
  14 H :    0.028527
  15 H :    0.051730
  16 S :    0.104963
  17 C :   -0.104480
  18 C :   -0.037052
  19 C :   -0.011117
  20 C :   -0.196537
  21 H :    0.012308
  22 C :    0.047393
  23 H :    0.029806
  24 H :    0.019989
  25 C :   -0.061243
  26 H :    0.022421
  27 H :    0.026976
  28 C :   -0.071068
  29 H :    0.032297
  30 H :    0.067975
  31 H :    0.030467
  32 H :    0.061686
  33 H :    0.070549
Sum of atomic charges:    0.0000000

LOEWDIN ATOMIC CHARGES
----------------------
   0 S :    0.388769
   1 C :   -0.208526
   2 C :   -0.054275
   3 C :   -0.049881
   4 C :   -0.166783
   5 H :    0.034907
   6 C :   -0.017946
   7 H :    0.015743
   8 H :    0.035477
   9 C :   -0.043998
  10 H :    0.019951
  11 H :    0.031501
  12 C :   -0.075153
  13 H :    0.031733
  14 H :    0.024788
  15 H :    0.026213
  16 S :    0.397089
  17 C :   -0.198440
  18 C :   -0.071047
  19 C :   -0.056198
  20 C :   -0.189016
  21 H :    0.028057
  22 C :   -0.035534
  23 H :    0.035561
  24 H :    0.024650
  25 C :   -0.045864
  26 H :    0.023083
  27 H :    0.025784
  28 C :   -0.080919
  29 H :    0.017011
  30 H :    0.034951
  31 H :    0.029008
  32 H :    0.031608
  33 H :    0.037698

  Mayer bond orders larger than 0.100000
B(  0-S ,  1-C ) :   1.1331 B(  0-S ,  4-C ) :   1.0914 B(  1-C ,  2-C ) :   1.6592
B(  1-C , 32-H ) :   0.9511 B(  2-C ,  3-C ) :   1.1711 B(  2-C ,  6-C ) :   1.0160
B(  3-C ,  4-C ) :   1.6392 B(  3-C ,  5-H ) :   0.9899 B(  4-C , 20-C ) :   1.0676
B(  6-C ,  7-H ) :   0.9354 B(  6-C ,  8-H ) :   0.9374 B(  6-C ,  9-C ) :   1.0576
B(  9-C , 10-H ) :   0.9540 B(  9-C , 11-H ) :   0.9575 B(  9-C , 12-C ) :   1.0754
B( 12-C , 13-H ) :   0.9741 B( 12-C , 14-H ) :   0.9771 B( 12-C , 15-H ) :   0.9726
B( 16-S , 17-C ) :   1.1568 B( 16-S , 20-C ) :   1.1423 B( 17-C , 18-C ) :   1.5923
B( 17-C , 20-C ) :   0.1097 B( 17-C , 33-H ) :   0.9603 B( 18-C , 19-C ) :   1.2621
B( 18-C , 21-H ) :   0.9903 B( 19-C , 20-C ) :   1.5477 B( 19-C , 22-C ) :   1.0351
B( 22-C , 23-H ) :   0.9446 B( 22-C , 24-H ) :   0.9354 B( 22-C , 25-C ) :   1.0719
B( 25-C , 26-H ) :   0.9542 B( 25-C , 27-H ) :   0.9528 B( 25-C , 28-C ) :   1.0734
B( 28-C , 29-H ) :   0.9632 B( 28-C , 30-H ) :   0.9698 B( 28-C , 31-H ) :   0.9687

Dispersion correction           -0.015953025
FINAL SINGLE POINT ENERGY     -1339.867313077029

DIPOLE MOMENT
-------------
                                X             Y             Z
Electronic contribution:     -3.41468      -6.47993      -0.85370
Nuclear contribution   :      3.11565       6.70029       0.78386
                        -----------------------------------------
Total Dipole Moment    :     -0.29903       0.22036      -0.06984
                        -----------------------------------------
Magnitude (a.u.)       :      0.37797
Magnitude (Debye)      :      0.96071

Rotational constants in cm-1:     0.022562     0.008905     0.007161
Rotational constants in MHz :   676.405347   266.977163   214.676956

                             ****ORCA TERMINATED NORMALLY****
TOTAL RUN TIME: 0 days 0 hours 0 minutes 21 seconds 1 msec
