                         Program Version 4.2.1 -  RELEASE  -
|  1> ! wB97X-D3 SP def2-SVP
|  2> %pal
|  3> nprocs 24
|  4> end
|  5>
|  6> * xyz 0 1
|  7> S 	 -144.453 	 26.8141 	 -19.8257
|  8> C 	 -144.384 	 25.0332 	 -19.982
|  9> C 	 -143.671 	 24.5398 	 -18.8942
| 10> C 	 -142.92 	 25.5409 	 -18.157
| 11> C 	 -143.373 	 26.812 	 -18.438
| 12> H 	 -142.257 	 25.2835 	 -17.3305
| 13> C 	 -143.572 	 23.084 	 -18.6155
| 14> H 	 -144.561 	 22.7341 	 -18.553
| 15> H 	 -142.972 	 22.8659 	 -17.7253
| 16> C 	 -143.022 	 22.2315 	 -19.832
| 17> H 	 -143.698 	 22.4793 	 -20.6667
| 18> H 	 -142.074 	 22.6837 	 -20.0682
| 19> C 	 -142.717 	 20.803 	 -19.5799
| 20> H 	 -143.642 	 20.2245 	 -19.4135
| 21> H 	 -142.319 	 20.3885 	 -20.5188
| 22> H 	 -141.964 	 20.7065 	 -18.7365
| 23> S 	 -144.747 	 28.8563 	 -17.125
| 24> C 	 -143.811 	 29.9376 	 -16.1636
| 25> C 	 -142.471 	 29.7398 	 -16.2863
| 26> C 	 -142.172 	 28.6804 	 -17.2043
| 27> C 	 -143.3 	 27.9959 	 -17.6192
| 28> H 	 -141.776 	 30.4623 	 -15.7862
| 29> C 	 -140.795 	 28.2137 	 -17.4375
| 30> H 	 -140.873 	 27.1642 	 -17.7525
| 31> H 	 -140.2 	 28.3123 	 -16.5235
| 32> C 	 -140.009 	 29.1027 	 -18.5108
| 33> H 	 -140.084 	 30.1107 	 -18.2181
| 34> H 	 -140.586 	 29.0711 	 -19.4532
| 35> C 	 -138.454 	 28.8915 	 -18.7581
| 36> H 	 -138.225 	 27.8608 	 -18.9945
| 37> H 	 -137.757 	 29.1795 	 -17.9397
| 38> H 	 -138.197 	 29.6526 	 -19.4896
| 39> H 	 -144.953 	 24.52 	 -20.7032
| 40> H 	 -144.245 	 30.7864 	 -15.7023
| 41> *
| 42>
| 43>                          ****END OF INPUT****

CARTESIAN COORDINATES (ANGSTROEM)
---------------------------------
  S    -144.453000   26.814100  -19.825700
  C    -144.384000   25.033200  -19.982000
  C    -143.671000   24.539800  -18.894200
  C    -142.920000   25.540900  -18.157000
  C    -143.373000   26.812000  -18.438000
  H    -142.257000   25.283500  -17.330500
  C    -143.572000   23.084000  -18.615500
  H    -144.561000   22.734100  -18.553000
  H    -142.972000   22.865900  -17.725300
  C    -143.022000   22.231500  -19.832000
  H    -143.698000   22.479300  -20.666700
  H    -142.074000   22.683700  -20.068200
  C    -142.717000   20.803000  -19.579900
  H    -143.642000   20.224500  -19.413500
  H    -142.319000   20.388500  -20.518800
  H    -141.964000   20.706500  -18.736500
  S    -144.747000   28.856300  -17.125000
  C    -143.811000   29.937600  -16.163600
  C    -142.471000   29.739800  -16.286300
  C    -142.172000   28.680400  -17.204300
  C    -143.300000   27.995900  -17.619200
  H    -141.776000   30.462300  -15.786200
  C    -140.795000   28.213700  -17.437500
  H    -140.873000   27.164200  -17.752500
  H    -140.200000   28.312300  -16.523500
  C    -140.009000   29.102700  -18.510800
  H    -140.084000   30.110700  -18.218100
  H    -140.586000   29.071100  -19.453200
  C    -138.454000   28.891500  -18.758100
  H    -138.225000   27.860800  -18.994500
  H    -137.757000   29.179500  -17.939700
  H    -138.197000   29.652600  -19.489600
  H    -144.953000   24.520000  -20.703200
  H    -144.245000   30.786400  -15.702300

 Total Charge           Charge          ....    0
 Multiplicity           Mult            ....    1
 Number of Electrons    NEL             ....  134
 Basis Dimension        Dim             ....  322

ORBITAL ENERGIES
----------------

  NO   OCC          E(Eh)            E(eV)
   0   2.0000     -88.964685     -2420.8521
   1   2.0000     -88.963420     -2420.8177
   2   2.0000     -10.331635      -281.1381
   3   2.0000     -10.323378      -280.9134
   4   2.0000     -10.313744      -280.6512
   5   2.0000     -10.310256      -280.5563
   6   2.0000     -10.304651      -280.4038
   7   2.0000     -10.299427      -280.2617
   8   2.0000     -10.298472      -280.2357
   9   2.0000     -10.294149      -280.1180
  10   2.0000     -10.289150      -279.9820
  11   2.0000     -10.287001      -279.9235
  12   2.0000     -10.285944      -279.8948
  13   2.0000     -10.285388      -279.8796
  14   2.0000     -10.283876      -279.8385
  15   2.0000     -10.281876      -279.7841
  16   2.0000      -8.079938      -219.8663
  17   2.0000      -8.077590      -219.8024
  18   2.0000      -6.038431      -164.3140
  19   2.0000      -6.036191      -164.2531
  20   2.0000      -6.034375      -164.2037
  21   2.0000      -6.032110      -164.1421
  22   2.0000      -6.030680      -164.1031
  23   2.0000      -6.028360      -164.0400
  24   2.0000      -1.009213       -27.4621
  25   2.0000      -0.983420       -26.7602
  26   2.0000      -0.914600       -24.8875
  27   2.0000      -0.901064       -24.5192
  28   2.0000      -0.871865       -23.7246
  29   2.0000      -0.850127       -23.1331
  30   2.0000      -0.844333       -22.9755
  31   2.0000      -0.819369       -22.2962
  32   2.0000      -0.782375       -21.2895
  33   2.0000      -0.767851       -20.8943
  34   2.0000      -0.706931       -19.2366
  35   2.0000      -0.700418       -19.0594
  36   2.0000      -0.693059       -18.8591
  37   2.0000      -0.658688       -17.9238
  38   2.0000      -0.643852       -17.5201
  39   2.0000      -0.620416       -16.8824
  40   2.0000      -0.594181       -16.1685
  41   2.0000      -0.576191       -15.6790
  42   2.0000      -0.563162       -15.3244
  43   2.0000      -0.553389       -15.0585
  44   2.0000      -0.530788       -14.4435
  45   2.0000      -0.521339       -14.1864
  46   2.0000      -0.520355       -14.1596
  47   2.0000      -0.513720       -13.9790
  48   2.0000      -0.506983       -13.7957
  49   2.0000      -0.502780       -13.6813
  50   2.0000      -0.491288       -13.3686
  51   2.0000      -0.483758       -13.1637
  52   2.0000      -0.468987       -12.7618
  53   2.0000      -0.465249       -12.6601
  54   2.0000      -0.457881       -12.4596
  55   2.0000      -0.453608       -12.3433
  56   2.0000      -0.447807       -12.1854
  57   2.0000      -0.430769       -11.7218
  58   2.0000      -0.429352       -11.6833
  59   2.0000      -0.423352       -11.5200
  60   2.0000      -0.422183       -11.4882
  61   2.0000      -0.410718       -11.1762
  62   2.0000      -0.410539       -11.1713
  63   2.0000      -0.347978        -9.4690
  64   2.0000      -0.328852        -8.9485
  65   2.0000      -0.324265        -8.8237
  66   2.0000      -0.290397        -7.9021
  67   0.0000       0.027550         0.7497
  68   0.0000       0.067078         1.8253
  69   0.0000       0.117025         3.1844
  70   0.0000       0.119315         3.2467
  71   0.0000       0.125411         3.4126

MULLIKEN ATOMIC CHARGES
-----------------------
   0 S :    0.092593
   1 C :   -0.121562
   2 C :   -0.100416
   3 C :    0.045034
   4 C :   -0.163012
   5 H :    0.027668
   6 C :    0.090728
   7 H :    0.021778
   8 H :    0.016512
   9 C :   -0.116503
  10 H :    0.026568
  11 H :    0.021222
  12 C :   -0.032625
  13 H :    0.030831
  14 H :    0.037803
  15 H :    0.046733
  16 S :    0.114951
  17 C :   -0.081340
  18 C :   -0.036688
  19 C :   -0.042205
  20 C :   -0.145075
  21 H :    0.037690
  22 C :    0.081152
  23 H :    0.021967
  24 H :    0.024500
  25 C :   -0.092408
  26 H :    0.010554
  27 H :    0.036593
  28 C :   -0.047534
  29 H :    0.040118
  30 H :    0.028352
  31 H :    0.036980
  32 H :    0.044096
  33 H :    0.044944
Sum of atomic charges:   -0.0000000

LOEWDIN ATOMIC CHARGES
----------------------
   0 S :    0.385164
   1 C :   -0.185878
   2 C :   -0.051059
   3 C :   -0.063761
   4 C :   -0.182172
   5 H :    0.034551
   6 C :   -0.031662
   7 H :    0.027669
   8 H :    0.027062
   9 C :   -0.043771
  10 H :    0.021832
  11 H :    0.020354
  12 C :   -0.069285
  13 H :    0.024742
  14 H :    0.032530
  15 H :    0.035478
  16 S :    0.412695
  17 C :   -0.184816
  18 C :   -0.075315
  19 C :   -0.057217
  20 C :   -0.203860
  21 H :    0.041797
  22 C :   -0.033892
  23 H :    0.030178
  24 H :    0.031214
  25 C :   -0.036286
  26 H :    0.014227
  27 H :    0.028337
  28 C :   -0.070186
  29 H :    0.022813
  30 H :    0.027038
  31 H :    0.031256
  32 H :    0.017805
  33 H :    0.022421

  Mayer bond orders larger than 0.100000
B(  0-S ,  1-C ) :   1.1105 B(  0-S ,  4-C ) :   1.1556 B(  1-C ,  2-C ) :   1.5953
B(  1-C , 32-H ) :   0.9820 B(  2-C ,  3-C ) :   1.2376 B(  2-C ,  6-C ) :   1.0491
B(  3-C ,  4-C ) :   1.5631 B(  3-C ,  5-H ) :   0.9805 B(  4-C , 20-C ) :   1.0529
B(  6-C ,  7-H ) :   0.9279 B(  6-C ,  8-H ) :   0.9435 B(  6-C ,  9-C ) :   1.0561
B(  9-C , 10-H ) :   0.9530 B(  9-C , 11-H ) :   0.9570 B(  9-C , 12-C ) :   1.0943
B( 12-C , 13-H ) :   0.9720 B( 12-C , 14-H ) :   0.9682 B( 12-C , 15-H ) :   0.9695
B( 16-S , 17-C ) :   1.1577 B( 16-S , 20-C ) :   1.1292 B( 17-C , 18-C ) :   1.6235
B( 17-C , 33-H ) :   0.9681 B( 18-C , 19-C ) :   1.2280 B( 18-C , 21-H ) :   0.9828
B( 19-C , 20-C ) :   1.5851 B( 19-C , 22-C ) :   1.0665 B( 22-C , 23-H ) :   0.9269
B( 22-C , 24-H ) :   0.9380 B( 22-C , 25-C ) :   1.0447 B( 25-C , 26-H ) :   0.9606
B( 25-C , 27-H ) :   0.9587 B( 25-C , 28-C ) :   1.0737 B( 28-C , 29-H ) :   0.9789
B( 28-C , 30-H ) :   0.9751 B( 28-C , 31-H ) :   0.9734

Dispersion correction           -0.013382566
FINAL SINGLE POINT ENERGY     -1339.868644143378

DIPOLE MOMENT
-------------
                                X             Y             Z
Electronic contribution:    -21.23663      16.14474       3.60862
Nuclear contribution   :     21.62841     -16.40557      -3.45103
                        -----------------------------------------
Total Dipole Moment    :      0.39178      -0.26083       0.15759
                        -----------------------------------------
Magnitude (a.u.)       :      0.49635
Magnitude (Debye)      :      1.26161

Rotational constants in cm-1:     0.018807     0.007646     0.006161
Rotational constants in MHz :   563.826346   229.223942   184.716926

                             ****ORCA TERMINATED NORMALLY****
TOTAL RUN TIME: 0 days 0 hours 0 minutes 19 seconds 769 msec
