                         Program Version 4.2.1 -  RELEASE  -
|  1> ! wB97X-D3 SP def2-SVP
|  2> %pal
|  3> nprocs 24
|  4> end
|  5>
|  6> * xyz 0 1
|  7> S 	 -80.9423 	 -14.0666 	 -52.7735
|  8> C 	 -82.1254 	 -14.972 	 -53.74
|  9> C 	 -83.3011 	 -15.0318 	 -53.149
| 10> C 	 -83.3947 	 -14.2807 	 -51.9301
| 11> C 	 -82.1701 	 -13.7756 	 -51.5753
| 12> H 	 -84.2491 	 -14.0704 	 -51.2996
| 13> C 	 -84.5287 	 -15.7151 	 -53.7017
| 14> H 	 -84.6378 	 -16.5664 	 -52.9618
| 15> H 	 -84.2952 	 -16.273 	 -54.6573
| 16> C 	 -85.8134 	 -14.9264 	 -53.8739
| 17> H 	 -86.621 	 -15.5502 	 -54.271
| 18> H 	 -86.1083 	 -14.519 	 -52.895
| 19> C 	 -85.5324 	 -13.7089 	 -54.7682
| 20> H 	 -84.9164 	 -13.9871 	 -55.6067
| 21> H 	 -86.4477 	 -13.445 	 -55.2578
| 22> H 	 -85.0587 	 -12.9171 	 -54.1982
| 23> S 	 -81.9128 	 -11.2126 	 -50.4891
| 24> C 	 -81.6727 	 -11.0566 	 -48.7146
| 25> C 	 -81.6174 	 -12.3239 	 -48.0918
| 26> C 	 -81.7688 	 -13.3784 	 -49.0363
| 27> C 	 -81.8889 	 -12.9942 	 -50.3751
| 28> H 	 -81.5839 	 -12.3858 	 -47.0005
| 29> C 	 -82.0574 	 -14.7801 	 -48.484
| 30> H 	 -81.8823 	 -15.5531 	 -49.2911
| 31> H 	 -83.1187 	 -14.9154 	 -48.2803
| 32> C 	 -81.2939 	 -15.2196 	 -47.2309
| 33> H 	 -81.6573 	 -14.6164 	 -46.4685
| 34> H 	 -80.2007 	 -15.1844 	 -47.3642
| 35> C 	 -81.5582 	 -16.5986 	 -46.6313
| 36> H 	 -80.9835 	 -16.8338 	 -45.7791
| 37> H 	 -81.3117 	 -17.3631 	 -47.362
| 38> H 	 -82.6478 	 -16.5683 	 -46.5096
| 39> H 	 -81.8351 	 -15.4577 	 -54.6412
| 40> H 	 -81.6907 	 -10.1395 	 -48.0744
| 41> *
| 42>
| 43>                          ****END OF INPUT****

CARTESIAN COORDINATES (ANGSTROEM)
---------------------------------
  S    -80.942300  -14.066600  -52.773500
  C    -82.125400  -14.972000  -53.740000
  C    -83.301100  -15.031800  -53.149000
  C    -83.394700  -14.280700  -51.930100
  C    -82.170100  -13.775600  -51.575300
  H    -84.249100  -14.070400  -51.299600
  C    -84.528700  -15.715100  -53.701700
  H    -84.637800  -16.566400  -52.961800
  H    -84.295200  -16.273000  -54.657300
  C    -85.813400  -14.926400  -53.873900
  H    -86.621000  -15.550200  -54.271000
  H    -86.108300  -14.519000  -52.895000
  C    -85.532400  -13.708900  -54.768200
  H    -84.916400  -13.987100  -55.606700
  H    -86.447700  -13.445000  -55.257800
  H    -85.058700  -12.917100  -54.198200
  S    -81.912800  -11.212600  -50.489100
  C    -81.672700  -11.056600  -48.714600
  C    -81.617400  -12.323900  -48.091800
  C    -81.768800  -13.378400  -49.036300
  C    -81.888900  -12.994200  -50.375100
  H    -81.583900  -12.385800  -47.000500
  C    -82.057400  -14.780100  -48.484000
  H    -81.882300  -15.553100  -49.291100
  H    -83.118700  -14.915400  -48.280300
  C    -81.293900  -15.219600  -47.230900
  H    -81.657300  -14.616400  -46.468500
  H    -80.200700  -15.184400  -47.364200
  C    -81.558200  -16.598600  -46.631300
  H    -80.983500  -16.833800  -45.779100
  H    -81.311700  -17.363100  -47.362000
  H    -82.647800  -16.568300  -46.509600
  H    -81.835100  -15.457700  -54.641200
  H    -81.690700  -10.139500  -48.074400

 Total Charge           Charge          ....    0
 Multiplicity           Mult            ....    1
 Number of Electrons    NEL             ....  134
 Basis Dimension        Dim             ....  322

ORBITAL ENERGIES
----------------

  NO   OCC          E(Eh)            E(eV)
   0   2.0000     -88.969105     -2420.9724
   1   2.0000     -88.962101     -2420.7819
   2   2.0000     -10.329236      -281.0728
   3   2.0000     -10.328280      -281.0468
   4   2.0000     -10.328194      -281.0444
   5   2.0000     -10.308064      -280.4967
   6   2.0000     -10.307522      -280.4819
   7   2.0000     -10.298055      -280.2243
   8   2.0000     -10.296718      -280.1879
   9   2.0000     -10.296243      -280.1750
  10   2.0000     -10.294587      -280.1299
  11   2.0000     -10.294484      -280.1272
  12   2.0000     -10.288799      -279.9725
  13   2.0000     -10.278441      -279.6906
  14   2.0000     -10.273823      -279.5649
  15   2.0000     -10.269806      -279.4556
  16   2.0000      -8.082222      -219.9285
  17   2.0000      -8.077197      -219.7917
  18   2.0000      -6.040871      -164.3805
  19   2.0000      -6.036962      -164.2741
  20   2.0000      -6.035680      -164.2392
  21   2.0000      -6.032913      -164.1639
  22   2.0000      -6.031799      -164.1336
  23   2.0000      -6.027805      -164.0249
  24   2.0000      -1.006374       -27.3848
  25   2.0000      -0.979158       -26.6442
  26   2.0000      -0.914236       -24.8776
  27   2.0000      -0.907992       -24.7077
  28   2.0000      -0.870384       -23.6843
  29   2.0000      -0.849983       -23.1292
  30   2.0000      -0.845431       -23.0053
  31   2.0000      -0.814508       -22.1639
  32   2.0000      -0.782152       -21.2834
  33   2.0000      -0.771672       -20.9983
  34   2.0000      -0.707394       -19.2492
  35   2.0000      -0.694331       -18.8937
  36   2.0000      -0.693075       -18.8595
  37   2.0000      -0.652308       -17.7502
  38   2.0000      -0.645619       -17.5682
  39   2.0000      -0.620092       -16.8736
  40   2.0000      -0.593111       -16.1394
  41   2.0000      -0.576478       -15.6868
  42   2.0000      -0.567198       -15.4342
  43   2.0000      -0.554161       -15.0795
  44   2.0000      -0.545001       -14.8302
  45   2.0000      -0.526749       -14.3336
  46   2.0000      -0.518747       -14.1158
  47   2.0000      -0.518158       -14.0998
  48   2.0000      -0.499009       -13.5787
  49   2.0000      -0.496569       -13.5123
  50   2.0000      -0.483885       -13.1672
  51   2.0000      -0.478405       -13.0181
  52   2.0000      -0.467859       -12.7311
  53   2.0000      -0.466984       -12.7073
  54   2.0000      -0.461330       -12.5534
  55   2.0000      -0.452717       -12.3191
  56   2.0000      -0.445426       -12.1207
  57   2.0000      -0.431966       -11.7544
  58   2.0000      -0.428191       -11.6517
  59   2.0000      -0.420913       -11.4536
  60   2.0000      -0.419658       -11.4195
  61   2.0000      -0.414683       -11.2841
  62   2.0000      -0.404783       -11.0147
  63   2.0000      -0.337553        -9.1853
  64   2.0000      -0.329101        -8.9553
  65   2.0000      -0.324955        -8.8425
  66   2.0000      -0.309326        -8.4172
  67   0.0000       0.040116         1.0916
  68   0.0000       0.054872         1.4931
  69   0.0000       0.111000         3.0205
  70   0.0000       0.121216         3.2984
  71   0.0000       0.128792         3.5046

MULLIKEN ATOMIC CHARGES
-----------------------
   0 S :    0.104691
   1 C :   -0.130784
   2 C :   -0.037468
   3 C :    0.033535
   4 C :   -0.179453
   5 H :    0.019494
   6 C :    0.020700
   7 H :    0.041221
   8 H :    0.022375
   9 C :   -0.068863
  10 H :    0.039264
  11 H :    0.029354
  12 C :   -0.024089
  13 H :    0.015192
  14 H :    0.023101
  15 H :    0.049153
  16 S :    0.109134
  17 C :   -0.110145
  18 C :   -0.056881
  19 C :    0.019734
  20 C :   -0.175235
  21 H :    0.035796
  22 C :    0.036788
  23 H :    0.031010
  24 H :    0.031840
  25 C :   -0.098362
  26 H :    0.015426
  27 H :    0.039467
  28 C :   -0.023355
  29 H :    0.035479
  30 H :    0.022001
  31 H :    0.022590
  32 H :    0.033813
  33 H :    0.073481
Sum of atomic charges:   -0.0000000

LOEWDIN ATOMIC CHARGES
----------------------
   0 S :    0.391131
   1 C :   -0.176746
   2 C :   -0.068544
   3 C :   -0.056102
   4 C :   -0.193504
   5 H :    0.035256
   6 C :   -0.040769
   7 H :    0.037303
   8 H :    0.029729
   9 C :   -0.041597
  10 H :    0.028789
  11 H :    0.023357
  12 C :   -0.060004
  13 H :    0.021376
  14 H :    0.023453
  15 H :    0.030310
  16 S :    0.382883
  17 C :   -0.179470
  18 C :   -0.074417
  19 C :   -0.051360
  20 C :   -0.199760
  21 H :    0.036245
  22 C :   -0.035299
  23 H :    0.033429
  24 H :    0.030856
  25 C :   -0.044212
  26 H :    0.011896
  27 H :    0.027085
  28 C :   -0.055572
  29 H :    0.023257
  30 H :    0.021342
  31 H :    0.025274
  32 H :    0.023101
  33 H :    0.041282

  Mayer bond orders larger than 0.100000
B(  0-S ,  1-C ) :   1.1071 B(  0-S ,  4-C ) :   1.1547 B(  1-C ,  2-C ) :   1.6724
B(  1-C , 32-H ) :   0.9720 B(  2-C ,  3-C ) :   1.1737 B(  2-C ,  6-C ) :   1.0081
B(  3-C ,  4-C ) :   1.6229 B(  3-C ,  5-H ) :   0.9976 B(  4-C , 20-C ) :   1.0152
B(  6-C ,  7-H ) :   0.9347 B(  6-C ,  8-H ) :   0.9455 B(  6-C ,  9-C ) :   1.0773
B(  9-C , 10-H ) :   0.9561 B(  9-C , 11-H ) :   0.9520 B(  9-C , 12-C ) :   1.0740
B( 12-C , 13-H ) :   0.9767 B( 12-C , 14-H ) :   0.9731 B( 12-C , 15-H ) :   0.9721
B( 16-S , 17-C ) :   1.1543 B( 16-S , 20-C ) :   1.1289 B( 17-C , 18-C ) :   1.6142
B( 17-C , 20-C ) :   0.1060 B( 17-C , 33-H ) :   0.9577 B( 18-C , 19-C ) :   1.2392
B( 18-C , 21-H ) :   0.9845 B( 19-C , 20-C ) :   1.6086 B( 19-C , 22-C ) :   1.0436
B( 22-C , 23-H ) :   0.9326 B( 22-C , 24-H ) :   0.9356 B( 22-C , 25-C ) :   1.0657
B( 25-C , 26-H ) :   0.9486 B( 25-C , 27-H ) :   0.9605 B( 25-C , 28-C ) :   1.0872
B( 28-C , 29-H ) :   0.9734 B( 28-C , 30-H ) :   0.9748 B( 28-C , 31-H ) :   0.9756

Dispersion correction           -0.014207913
FINAL SINGLE POINT ENERGY     -1339.870325181755

DIPOLE MOMENT
-------------
                                X             Y             Z
Electronic contribution:     13.52422      15.81981      -5.60261
Nuclear contribution   :    -14.07830     -16.19855       5.87299
                        -----------------------------------------
Total Dipole Moment    :     -0.55409      -0.37873       0.27039
                        -----------------------------------------
Magnitude (a.u.)       :      0.72358
Magnitude (Debye)      :      1.83918

Rotational constants in cm-1:     0.018239     0.008071     0.006900
Rotational constants in MHz :   546.784485   241.974786   206.855013

                             ****ORCA TERMINATED NORMALLY****
TOTAL RUN TIME: 0 days 0 hours 0 minutes 21 seconds 320 msec
