                         Program Version 4.2.1 -  RELEASE  -
|  1> ! wB97X-D3 SP def2-SVP
|  2> %pal
|  3> nprocs 24
|  4> end
|  5>
|  6> * xyz 0 1
|  7> S 	 -36.4799 	 -50.0184 	 -78.8936
|  8> C 	 -34.9389 	 -49.8789 	 -79.8211
|  9> C 	 -34.0599 	 -49.182 	 -79.0272
| 10> C 	 -34.5832 	 -48.764 	 -77.7708
| 11> C 	 -35.9175 	 -49.1323 	 -77.5516
| 12> H 	 -34.0236 	 -48.1573 	 -77.1082
| 13> C 	 -32.6418 	 -48.7723 	 -79.4434
| 14> H 	 -32.5668 	 -47.7148 	 -79.328
| 15> H 	 -32.4636 	 -49.0743 	 -80.4956
| 16> C 	 -31.4832 	 -49.3016 	 -78.6436
| 17> H 	 -31.176 	 -48.7566 	 -77.7121
| 18> H 	 -31.8428 	 -50.2121 	 -78.2114
| 19> C 	 -30.2612 	 -49.3666 	 -79.577
| 20> H 	 -30.0592 	 -48.3576 	 -80.0475
| 21> H 	 -29.3731 	 -49.677 	 -79.0006
| 22> H 	 -30.3383 	 -50.114 	 -80.3909
| 23> S 	 -37.5711 	 -50.1507 	 -75.6874
| 24> C 	 -38.6604 	 -49.0836 	 -74.8249
| 25> C 	 -38.3848 	 -47.7515 	 -74.9793
| 26> C 	 -37.266 	 -47.637 	 -75.8917
| 27> C 	 -36.7658 	 -48.8221 	 -76.4418
| 28> H 	 -39.0123 	 -47.0359 	 -74.4557
| 29> C 	 -36.694 	 -46.2738 	 -76.2545
| 30> H 	 -35.6471 	 -46.1969 	 -76.0816
| 31> H 	 -37.1616 	 -45.5738 	 -75.5385
| 32> C 	 -36.9443 	 -45.7612 	 -77.7118
| 33> H 	 -38.0018 	 -45.6719 	 -77.7628
| 34> H 	 -36.5258 	 -46.514 	 -78.3136
| 35> C 	 -36.2659 	 -44.4383 	 -78.0745
| 36> H 	 -35.1509 	 -44.5188 	 -78.1018
| 37> H 	 -36.6731 	 -43.8258 	 -77.2981
| 38> H 	 -36.4976 	 -44.0959 	 -79.113
| 39> H 	 -34.7348 	 -50.339 	 -80.8164
| 40> H 	 -39.659 	 -49.3398 	 -74.3785
| 41> *
| 42>
| 43>                          ****END OF INPUT****

CARTESIAN COORDINATES (ANGSTROEM)
---------------------------------
  S    -36.479900  -50.018400  -78.893600
  C    -34.938900  -49.878900  -79.821100
  C    -34.059900  -49.182000  -79.027200
  C    -34.583200  -48.764000  -77.770800
  C    -35.917500  -49.132300  -77.551600
  H    -34.023600  -48.157300  -77.108200
  C    -32.641800  -48.772300  -79.443400
  H    -32.566800  -47.714800  -79.328000
  H    -32.463600  -49.074300  -80.495600
  C    -31.483200  -49.301600  -78.643600
  H    -31.176000  -48.756600  -77.712100
  H    -31.842800  -50.212100  -78.211400
  C    -30.261200  -49.366600  -79.577000
  H    -30.059200  -48.357600  -80.047500
  H    -29.373100  -49.677000  -79.000600
  H    -30.338300  -50.114000  -80.390900
  S    -37.571100  -50.150700  -75.687400
  C    -38.660400  -49.083600  -74.824900
  C    -38.384800  -47.751500  -74.979300
  C    -37.266000  -47.637000  -75.891700
  C    -36.765800  -48.822100  -76.441800
  H    -39.012300  -47.035900  -74.455700
  C    -36.694000  -46.273800  -76.254500
  H    -35.647100  -46.196900  -76.081600
  H    -37.161600  -45.573800  -75.538500
  C    -36.944300  -45.761200  -77.711800
  H    -38.001800  -45.671900  -77.762800
  H    -36.525800  -46.514000  -78.313600
  C    -36.265900  -44.438300  -78.074500
  H    -35.150900  -44.518800  -78.101800
  H    -36.673100  -43.825800  -77.298100
  H    -36.497600  -44.095900  -79.113000
  H    -34.734800  -50.339000  -80.816400
  H    -39.659000  -49.339800  -74.378500

 Total Charge           Charge          ....    0
 Multiplicity           Mult            ....    1
 Number of Electrons    NEL             ....  134
 Basis Dimension        Dim             ....  322

ORBITAL ENERGIES
----------------

  NO   OCC          E(Eh)            E(eV)
   0   2.0000     -88.967118     -2420.9184
   1   2.0000     -88.965978     -2420.8874
   2   2.0000     -10.332041      -281.1491
   3   2.0000     -10.324904      -280.9549
   4   2.0000     -10.322914      -280.9008
   5   2.0000     -10.319383      -280.8047
   6   2.0000     -10.309558      -280.5373
   7   2.0000     -10.302221      -280.3377
   8   2.0000     -10.298452      -280.2351
   9   2.0000     -10.292756      -280.0801
  10   2.0000     -10.289802      -279.9997
  11   2.0000     -10.288359      -279.9605
  12   2.0000     -10.285671      -279.8873
  13   2.0000     -10.285012      -279.8694
  14   2.0000     -10.279212      -279.7116
  15   2.0000     -10.273012      -279.5429
  16   2.0000      -8.081733      -219.9151
  17   2.0000      -8.081238      -219.9017
  18   2.0000      -6.040273      -164.3642
  19   2.0000      -6.039722      -164.3492
  20   2.0000      -6.036068      -164.2498
  21   2.0000      -6.035573      -164.2363
  22   2.0000      -6.032587      -164.1550
  23   2.0000      -6.032065      -164.1408
  24   2.0000      -1.012094       -27.5405
  25   2.0000      -0.986001       -26.8305
  26   2.0000      -0.918217       -24.9860
  27   2.0000      -0.904470       -24.6119
  28   2.0000      -0.877054       -23.8659
  29   2.0000      -0.848147       -23.0793
  30   2.0000      -0.844552       -22.9814
  31   2.0000      -0.816877       -22.2283
  32   2.0000      -0.779990       -21.2246
  33   2.0000      -0.767250       -20.8779
  34   2.0000      -0.712629       -19.3916
  35   2.0000      -0.698078       -18.9957
  36   2.0000      -0.686559       -18.6822
  37   2.0000      -0.661580       -18.0025
  38   2.0000      -0.640625       -17.4323
  39   2.0000      -0.626225       -17.0404
  40   2.0000      -0.590488       -16.0680
  41   2.0000      -0.579573       -15.7710
  42   2.0000      -0.574071       -15.6213
  43   2.0000      -0.565163       -15.3789
  44   2.0000      -0.531073       -14.4512
  45   2.0000      -0.520217       -14.1558
  46   2.0000      -0.517314       -14.0768
  47   2.0000      -0.509543       -13.8654
  48   2.0000      -0.504025       -13.7152
  49   2.0000      -0.499358       -13.5882
  50   2.0000      -0.489941       -13.3320
  51   2.0000      -0.481733       -13.1086
  52   2.0000      -0.478206       -13.0126
  53   2.0000      -0.466853       -12.7037
  54   2.0000      -0.464033       -12.6270
  55   2.0000      -0.445261       -12.1162
  56   2.0000      -0.442678       -12.0459
  57   2.0000      -0.437150       -11.8955
  58   2.0000      -0.432334       -11.7644
  59   2.0000      -0.418587       -11.3903
  60   2.0000      -0.416386       -11.3304
  61   2.0000      -0.410188       -11.1618
  62   2.0000      -0.405753       -11.0411
  63   2.0000      -0.342824        -9.3287
  64   2.0000      -0.335298        -9.1239
  65   2.0000      -0.327419        -8.9095
  66   2.0000      -0.297074        -8.0838
  67   0.0000       0.025201         0.6858
  68   0.0000       0.067902         1.8477
  69   0.0000       0.112195         3.0530
  70   0.0000       0.117393         3.1944
  71   0.0000       0.125521         3.4156

MULLIKEN ATOMIC CHARGES
-----------------------
   0 S :    0.115826
   1 C :   -0.158235
   2 C :   -0.080048
   3 C :    0.045994
   4 C :   -0.141092
   5 H :   -0.007017
   6 C :    0.077741
   7 H :    0.027777
   8 H :    0.022769
   9 C :   -0.072879
  10 H :    0.033423
  11 H :    0.022829
  12 C :   -0.087380
  13 H :    0.044305
  14 H :    0.035712
  15 H :    0.040983
  16 S :    0.112015
  17 C :   -0.107210
  18 C :   -0.039192
  19 C :   -0.032184
  20 C :   -0.153195
  21 H :    0.030938
  22 C :    0.046433
  23 H :    0.015530
  24 H :    0.006459
  25 C :   -0.051691
  26 H :    0.023337
  27 H :    0.032668
  28 C :   -0.054016
  29 H :    0.033779
  30 H :    0.030013
  31 H :    0.043895
  32 H :    0.069936
  33 H :    0.071778
Sum of atomic charges:    0.0000000

LOEWDIN ATOMIC CHARGES
----------------------
   0 S :    0.415370
   1 C :   -0.194173
   2 C :   -0.064919
   3 C :   -0.063272
   4 C :   -0.208802
   5 H :    0.022849
   6 C :   -0.030400
   7 H :    0.029958
   8 H :    0.032808
   9 C :   -0.049950
  10 H :    0.028314
  11 H :    0.019957
  12 C :   -0.069706
  13 H :    0.032635
  14 H :    0.026748
  15 H :    0.025763
  16 S :    0.418352
  17 C :   -0.192305
  18 C :   -0.074249
  19 C :   -0.046588
  20 C :   -0.213722
  21 H :    0.040063
  22 C :   -0.033969
  23 H :    0.020168
  24 H :    0.024751
  25 C :   -0.031096
  26 H :    0.019510
  27 H :    0.016280
  28 C :   -0.067081
  29 H :    0.027593
  30 H :    0.022329
  31 H :    0.032469
  32 H :    0.042258
  33 H :    0.042055

  Mayer bond orders larger than 0.100000
B(  0-S ,  1-C ) :   1.1230 B(  0-S ,  4-C ) :   1.1754 B(  1-C ,  2-C ) :   1.5972
B(  1-C ,  4-C ) :   0.1001 B(  1-C , 32-H ) :   0.9668 B(  2-C ,  3-C ) :   1.2497
B(  2-C ,  6-C ) :   1.0332 B(  3-C ,  4-C ) :   1.5238 B(  3-C ,  5-H ) :   1.0098
B(  4-C , 20-C ) :   1.0536 B(  6-C ,  7-H ) :   0.9300 B(  6-C ,  8-H ) :   0.9504
B(  6-C ,  9-C ) :   1.0470 B(  9-C , 10-H ) :   0.9503 B(  9-C , 11-H ) :   0.9610
B(  9-C , 12-C ) :   1.0798 B( 12-C , 13-H ) :   0.9725 B( 12-C , 14-H ) :   0.9744
B( 12-C , 15-H ) :   0.9758 B( 16-S , 17-C ) :   1.1637 B( 16-S , 20-C ) :   1.1349
B( 17-C , 18-C ) :   1.6291 B( 17-C , 33-H ) :   0.9516 B( 18-C , 19-C ) :   1.2346
B( 18-C , 21-H ) :   0.9914 B( 19-C , 20-C ) :   1.5853 B( 19-C , 22-C ) :   1.0442
B( 22-C , 23-H ) :   0.9404 B( 22-C , 24-H ) :   0.9312 B( 22-C , 25-C ) :   1.0556
B( 25-C , 26-H ) :   0.9576 B( 25-C , 27-H ) :   0.9572 B( 25-C , 28-C ) :   1.0816
B( 28-C , 29-H ) :   0.9736 B( 28-C , 30-H ) :   0.9779 B( 28-C , 31-H ) :   0.9727

Dispersion correction           -0.014253885
FINAL SINGLE POINT ENERGY     -1339.862389355532

DIPOLE MOMENT
-------------
                                X             Y             Z
Electronic contribution:    -20.41464     -18.09205       7.97158
Nuclear contribution   :     20.68854      18.53225      -8.06526
                        -----------------------------------------
Total Dipole Moment    :      0.27391       0.44021      -0.09368
                        -----------------------------------------
Magnitude (a.u.)       :      0.52686
Magnitude (Debye)      :      1.33918

Rotational constants in cm-1:     0.019295     0.008276     0.006847
Rotational constants in MHz :   578.438749   248.100373   205.273803

                             ****ORCA TERMINATED NORMALLY****
TOTAL RUN TIME: 0 days 0 hours 0 minutes 21 seconds 742 msec
