                         Program Version 4.2.1 -  RELEASE  -
|  1> ! wB97X-D3 SP def2-SVP
|  2> %pal
|  3> nprocs 24
|  4> end
|  5>
|  6> * xyz 0 1
|  7> S 	 -56.2147 	 15.0957 	 -88.6539
|  8> C 	 -56.4229 	 16.114 	 -90.0671
|  9> C 	 -56.4654 	 17.4309 	 -89.7764
| 10> C 	 -56.4193 	 17.6201 	 -88.3483
| 11> C 	 -56.1153 	 16.4919 	 -87.6323
| 12> H 	 -56.4586 	 18.5602 	 -87.8954
| 13> C 	 -56.6577 	 18.5844 	 -90.6399
| 14> H 	 -57.2248 	 19.4175 	 -90.1395
| 15> H 	 -57.2809 	 18.3373 	 -91.5096
| 16> C 	 -55.3601 	 19.1757 	 -90.9672
| 17> H 	 -54.8026 	 19.4354 	 -90.0341
| 18> H 	 -54.8105 	 18.3798 	 -91.3671
| 19> C 	 -55.4252 	 20.4218 	 -91.8523
| 20> H 	 -56.1932 	 21.0795 	 -91.4212
| 21> H 	 -54.5269 	 20.9752 	 -91.8262
| 22> H 	 -55.7547 	 20.2331 	 -92.9294
| 23> S 	 -56.7139 	 15.3845 	 -85.0496
| 24> C 	 -55.6096 	 15.7193 	 -83.7588
| 25> C 	 -54.6516 	 16.6181 	 -84.1657
| 26> C 	 -54.7012 	 16.9991 	 -85.5542
| 27> C 	 -55.7853 	 16.3841 	 -86.1738
| 28> H 	 -53.9377 	 16.861 	 -83.3869
| 29> C 	 -53.5696 	 17.7331 	 -86.2688
| 30> H 	 -53.9706 	 18.3865 	 -87.0446
| 31> H 	 -52.8733 	 16.9928 	 -86.5731
| 32> C 	 -52.7623 	 18.6359 	 -85.3154
| 33> H 	 -52.2014 	 17.9467 	 -84.6419
| 34> H 	 -53.2759 	 19.5085 	 -84.8022
| 35> C 	 -51.5832 	 19.3232 	 -86.0867
| 36> H 	 -51.8427 	 20.3185 	 -86.5043
| 37> H 	 -51.1563 	 18.6046 	 -86.8106
| 38> H 	 -50.6785 	 19.5198 	 -85.3978
| 39> H 	 -56.4071 	 15.6015 	 -91.0189
| 40> H 	 -55.6676 	 15.2223 	 -82.7501
| 41> *
| 42>
| 43>                          ****END OF INPUT****

CARTESIAN COORDINATES (ANGSTROEM)
---------------------------------
  S    -56.214700   15.095700  -88.653900
  C    -56.422900   16.114000  -90.067100
  C    -56.465400   17.430900  -89.776400
  C    -56.419300   17.620100  -88.348300
  C    -56.115300   16.491900  -87.632300
  H    -56.458600   18.560200  -87.895400
  C    -56.657700   18.584400  -90.639900
  H    -57.224800   19.417500  -90.139500
  H    -57.280900   18.337300  -91.509600
  C    -55.360100   19.175700  -90.967200
  H    -54.802600   19.435400  -90.034100
  H    -54.810500   18.379800  -91.367100
  C    -55.425200   20.421800  -91.852300
  H    -56.193200   21.079500  -91.421200
  H    -54.526900   20.975200  -91.826200
  H    -55.754700   20.233100  -92.929400
  S    -56.713900   15.384500  -85.049600
  C    -55.609600   15.719300  -83.758800
  C    -54.651600   16.618100  -84.165700
  C    -54.701200   16.999100  -85.554200
  C    -55.785300   16.384100  -86.173800
  H    -53.937700   16.861000  -83.386900
  C    -53.569600   17.733100  -86.268800
  H    -53.970600   18.386500  -87.044600
  H    -52.873300   16.992800  -86.573100
  C    -52.762300   18.635900  -85.315400
  H    -52.201400   17.946700  -84.641900
  H    -53.275900   19.508500  -84.802200
  C    -51.583200   19.323200  -86.086700
  H    -51.842700   20.318500  -86.504300
  H    -51.156300   18.604600  -86.810600
  H    -50.678500   19.519800  -85.397800
  H    -56.407100   15.601500  -91.018900
  H    -55.667600   15.222300  -82.750100

 Total Charge           Charge          ....    0
 Multiplicity           Mult            ....    1
 Number of Electrons    NEL             ....  134
 Basis Dimension        Dim             ....  322

ORBITAL ENERGIES
----------------

  NO   OCC          E(Eh)            E(eV)
   0   2.0000     -88.964494     -2420.8469
   1   2.0000     -88.960940     -2420.7502
   2   2.0000     -10.328498      -281.0527
   3   2.0000     -10.327605      -281.0284
   4   2.0000     -10.319084      -280.7966
   5   2.0000     -10.311352      -280.5862
   6   2.0000     -10.305881      -280.4373
   7   2.0000     -10.295805      -280.1631
   8   2.0000     -10.295705      -280.1604
   9   2.0000     -10.293578      -280.1025
  10   2.0000     -10.292613      -280.0762
  11   2.0000     -10.287917      -279.9485
  12   2.0000     -10.287225      -279.9296
  13   2.0000     -10.287206      -279.9291
  14   2.0000     -10.281572      -279.7758
  15   2.0000     -10.279772      -279.7268
  16   2.0000      -8.079309      -219.8492
  17   2.0000      -8.076489      -219.7725
  18   2.0000      -6.037865      -164.2987
  19   2.0000      -6.034990      -164.2204
  20   2.0000      -6.033693      -164.1851
  21   2.0000      -6.030931      -164.1100
  22   2.0000      -6.030132      -164.0882
  23   2.0000      -6.027172      -164.0077
  24   2.0000      -1.006703       -27.3938
  25   2.0000      -0.987102       -26.8604
  26   2.0000      -0.928772       -25.2732
  27   2.0000      -0.909118       -24.7384
  28   2.0000      -0.867017       -23.5927
  29   2.0000      -0.850362       -23.1395
  30   2.0000      -0.842521       -22.9262
  31   2.0000      -0.814315       -22.1586
  32   2.0000      -0.783978       -21.3331
  33   2.0000      -0.771984       -21.0068
  34   2.0000      -0.702843       -19.1253
  35   2.0000      -0.694604       -18.9011
  36   2.0000      -0.691252       -18.8099
  37   2.0000      -0.654010       -17.7965
  38   2.0000      -0.641255       -17.4494
  39   2.0000      -0.626375       -17.0445
  40   2.0000      -0.596773       -16.2390
  41   2.0000      -0.582453       -15.8494
  42   2.0000      -0.578983       -15.7549
  43   2.0000      -0.558716       -15.2034
  44   2.0000      -0.529370       -14.4049
  45   2.0000      -0.524843       -14.2817
  46   2.0000      -0.518971       -14.1219
  47   2.0000      -0.512932       -13.9576
  48   2.0000      -0.499907       -13.6032
  49   2.0000      -0.497689       -13.5428
  50   2.0000      -0.488741       -13.2993
  51   2.0000      -0.478830       -13.0296
  52   2.0000      -0.466505       -12.6943
  53   2.0000      -0.463528       -12.6132
  54   2.0000      -0.456295       -12.4164
  55   2.0000      -0.448590       -12.2068
  56   2.0000      -0.446839       -12.1591
  57   2.0000      -0.443125       -12.0580
  58   2.0000      -0.437313       -11.8999
  59   2.0000      -0.426584       -11.6079
  60   2.0000      -0.416421       -11.3314
  61   2.0000      -0.410398       -11.1675
  62   2.0000      -0.409946       -11.1552
  63   2.0000      -0.339977        -9.2512
  64   2.0000      -0.331875        -9.0308
  65   2.0000      -0.328465        -8.9380
  66   2.0000      -0.300182        -8.1684
  67   0.0000       0.036691         0.9984
  68   0.0000       0.072743         1.9794
  69   0.0000       0.115294         3.1373
  70   0.0000       0.123818         3.3692
  71   0.0000       0.130110         3.5405

MULLIKEN ATOMIC CHARGES
-----------------------
   0 S :    0.098553
   1 C :   -0.137991
   2 C :   -0.063151
   3 C :    0.057535
   4 C :   -0.165560
   5 H :   -0.012511
   6 C :    0.058319
   7 H :    0.021584
   8 H :    0.028178
   9 C :   -0.079967
  10 H :    0.027243
  11 H :    0.008538
  12 C :   -0.012595
  13 H :    0.018192
  14 H :    0.029709
  15 H :    0.042896
  16 S :    0.111303
  17 C :   -0.125077
  18 C :   -0.049252
  19 C :   -0.026831
  20 C :   -0.156986
  21 H :    0.021235
  22 C :    0.126851
  23 H :    0.033978
  24 H :    0.039203
  25 C :   -0.139161
  26 H :    0.038427
  27 H :    0.055165
  28 C :   -0.090521
  29 H :    0.045401
  30 H :    0.031459
  31 H :    0.037367
  32 H :    0.047644
  33 H :    0.080820
Sum of atomic charges:    0.0000000

LOEWDIN ATOMIC CHARGES
----------------------
   0 S :    0.401898
   1 C :   -0.185918
   2 C :   -0.062979
   3 C :   -0.050934
   4 C :   -0.191611
   5 H :    0.019565
   6 C :   -0.038162
   7 H :    0.033582
   8 H :    0.031996
   9 C :   -0.042654
  10 H :    0.029791
  11 H :    0.015551
  12 C :   -0.065007
  13 H :    0.025113
  14 H :    0.020795
  15 H :    0.033531
  16 S :    0.401056
  17 C :   -0.198995
  18 C :   -0.080049
  19 C :   -0.054395
  20 C :   -0.199829
  21 H :    0.031801
  22 C :   -0.022329
  23 H :    0.031984
  24 H :    0.036338
  25 C :   -0.050153
  26 H :    0.027170
  27 H :    0.033992
  28 C :   -0.079943
  29 H :    0.024447
  30 H :    0.023879
  31 H :    0.031994
  32 H :    0.024348
  33 H :    0.044127

  Mayer bond orders larger than 0.100000
B(  0-S ,  1-C ) :   1.1314 B(  0-S ,  4-C ) :   1.1552 B(  1-C ,  2-C ) :   1.6232
B(  1-C , 32-H ) :   0.9738 B(  2-C ,  3-C ) :   1.2198 B(  2-C ,  6-C ) :   1.0367
B(  3-C ,  4-C ) :   1.6024 B(  3-C ,  5-H ) :   0.9988 B(  4-C , 20-C ) :   1.0084
B(  6-C ,  7-H ) :   0.9312 B(  6-C ,  8-H ) :   0.9390 B(  6-C ,  9-C ) :   1.0603
B(  9-C , 10-H ) :   0.9511 B(  9-C , 11-H ) :   0.9509 B(  9-C , 12-C ) :   1.0792
B( 12-C , 13-H ) :   0.9681 B( 12-C , 14-H ) :   0.9740 B( 12-C , 15-H ) :   0.9729
B( 16-S , 17-C ) :   1.1536 B( 16-S , 20-C ) :   1.1485 B( 17-C , 18-C ) :   1.6226
B( 17-C , 33-H ) :   0.9576 B( 18-C , 19-C ) :   1.2220 B( 18-C , 21-H ) :   0.9902
B( 19-C , 20-C ) :   1.6069 B( 19-C , 22-C ) :   1.0417 B( 22-C , 23-H ) :   0.9307
B( 22-C , 24-H ) :   0.9223 B( 22-C , 25-C ) :   1.0846 B( 25-C , 26-H ) :   0.9458
B( 25-C , 27-H ) :   0.9621 B( 25-C , 28-C ) :   1.0725 B( 28-C , 29-H ) :   0.9774
B( 28-C , 30-H ) :   0.9707 B( 28-C , 31-H ) :   0.9777

Dispersion correction           -0.013765337
FINAL SINGLE POINT ENERGY     -1339.874416811063

DIPOLE MOMENT
-------------
                                X             Y             Z
Electronic contribution:    -16.67623     -25.29994      11.04683
Nuclear contribution   :     17.14833      25.79127     -11.15469
                        -----------------------------------------
Total Dipole Moment    :      0.47210       0.49133      -0.10786
                        -----------------------------------------
Magnitude (a.u.)       :      0.68987
Magnitude (Debye)      :      1.75350

Rotational constants in cm-1:     0.016590     0.009166     0.006421
Rotational constants in MHz :   497.342511   274.798943   192.491252

                             ****ORCA TERMINATED NORMALLY****
TOTAL RUN TIME: 0 days 0 hours 0 minutes 21 seconds 470 msec
