                         Program Version 4.2.1 -  RELEASE  -
|  1> ! wB97X-D3 SP def2-SVP
|  2> %pal
|  3> nprocs 24
|  4> end
|  5>
|  6> * xyz 0 1
|  7> S 	 -118.175 	 62.363 	 -34.2041
|  8> C 	 -117.867 	 61.7053 	 -32.5792
|  9> C 	 -117.863 	 62.6598 	 -31.5771
| 10> C 	 -118.24 	 63.9544 	 -32.1608
| 11> C 	 -118.349 	 63.9739 	 -33.5063
| 12> H 	 -118.386 	 64.8626 	 -31.5123
| 13> C 	 -117.642 	 62.4719 	 -30.0432
| 14> H 	 -116.555 	 62.5146 	 -29.8609
| 15> H 	 -117.881 	 61.4317 	 -29.7823
| 16> C 	 -118.268 	 63.4933 	 -29.1221
| 17> H 	 -117.991 	 63.2607 	 -28.1092
| 18> H 	 -117.839 	 64.4766 	 -29.267
| 19> C 	 -119.852 	 63.694 	 -29.2885
| 20> H 	 -120.06 	 64.2657 	 -30.1129
| 21> H 	 -120.372 	 62.7123 	 -29.2208
| 22> H 	 -120.167 	 64.3104 	 -28.4651
| 23> S 	 -117.548 	 65.6478 	 -35.5334
| 24> C 	 -118.561 	 67.0626 	 -35.8723
| 25> C 	 -119.764 	 66.9927 	 -35.2619
| 26> C 	 -119.888 	 65.8675 	 -34.4261
| 27> C 	 -118.718 	 65.0747 	 -34.3504
| 28> H 	 -120.511 	 67.7637 	 -35.4722
| 29> C 	 -121.153 	 65.4499 	 -33.6242
| 30> H 	 -120.813 	 64.5655 	 -33.1277
| 31> H 	 -121.852 	 65.0082 	 -34.3148
| 32> C 	 -121.844 	 66.5782 	 -32.816
| 33> H 	 -122.782 	 66.1931 	 -32.4507
| 34> H 	 -122.103 	 67.3189 	 -33.5701
| 35> C 	 -120.982 	 67.2087 	 -31.804
| 36> H 	 -120.013 	 67.6031 	 -32.2113
| 37> H 	 -120.775 	 66.438 	 -31.0687
| 38> H 	 -121.541 	 67.9268 	 -31.2428
| 39> H 	 -117.615 	 60.7025 	 -32.3478
| 40> H 	 -118.317 	 67.7681 	 -36.6055
| 41> *
| 42>
| 43>                          ****END OF INPUT****

CARTESIAN COORDINATES (ANGSTROEM)
---------------------------------
  S    -118.175000   62.363000  -34.204100
  C    -117.867000   61.705300  -32.579200
  C    -117.863000   62.659800  -31.577100
  C    -118.240000   63.954400  -32.160800
  C    -118.349000   63.973900  -33.506300
  H    -118.386000   64.862600  -31.512300
  C    -117.642000   62.471900  -30.043200
  H    -116.555000   62.514600  -29.860900
  H    -117.881000   61.431700  -29.782300
  C    -118.268000   63.493300  -29.122100
  H    -117.991000   63.260700  -28.109200
  H    -117.839000   64.476600  -29.267000
  C    -119.852000   63.694000  -29.288500
  H    -120.060000   64.265700  -30.112900
  H    -120.372000   62.712300  -29.220800
  H    -120.167000   64.310400  -28.465100
  S    -117.548000   65.647800  -35.533400
  C    -118.561000   67.062600  -35.872300
  C    -119.764000   66.992700  -35.261900
  C    -119.888000   65.867500  -34.426100
  C    -118.718000   65.074700  -34.350400
  H    -120.511000   67.763700  -35.472200
  C    -121.153000   65.449900  -33.624200
  H    -120.813000   64.565500  -33.127700
  H    -121.852000   65.008200  -34.314800
  C    -121.844000   66.578200  -32.816000
  H    -122.782000   66.193100  -32.450700
  H    -122.103000   67.318900  -33.570100
  C    -120.982000   67.208700  -31.804000
  H    -120.013000   67.603100  -32.211300
  H    -120.775000   66.438000  -31.068700
  H    -121.541000   67.926800  -31.242800
  H    -117.615000   60.702500  -32.347800
  H    -118.317000   67.768100  -36.605500

 Total Charge           Charge          ....    0
 Multiplicity           Mult            ....    1
 Number of Electrons    NEL             ....  134
 Basis Dimension        Dim             ....  322

ORBITAL ENERGIES
----------------

  NO   OCC          E(Eh)            E(eV)
   0   2.0000     -88.965582     -2420.8766
   1   2.0000     -88.962421     -2420.7905
   2   2.0000     -10.325164      -280.9620
   3   2.0000     -10.323850      -280.9262
   4   2.0000     -10.313887      -280.6551
   5   2.0000     -10.312472      -280.6166
   6   2.0000     -10.307062      -280.4694
   7   2.0000     -10.304448      -280.3983
   8   2.0000     -10.300725      -280.2970
   9   2.0000     -10.297616      -280.2124
  10   2.0000     -10.291616      -280.0491
  11   2.0000     -10.291584      -280.0482
  12   2.0000     -10.283992      -279.8416
  13   2.0000     -10.282276      -279.7950
  14   2.0000     -10.276939      -279.6497
  15   2.0000     -10.273233      -279.5489
  16   2.0000      -8.079711      -219.8601
  17   2.0000      -8.076953      -219.7851
  18   2.0000      -6.038434      -164.3141
  19   2.0000      -6.035414      -164.2320
  20   2.0000      -6.034450      -164.2057
  21   2.0000      -6.031519      -164.1260
  22   2.0000      -6.030134      -164.0883
  23   2.0000      -6.027751      -164.0235
  24   2.0000      -1.003475       -27.3059
  25   2.0000      -0.979221       -26.6460
  26   2.0000      -0.909876       -24.7590
  27   2.0000      -0.908533       -24.7224
  28   2.0000      -0.872006       -23.7285
  29   2.0000      -0.848275       -23.0827
  30   2.0000      -0.837186       -22.7810
  31   2.0000      -0.818428       -22.2706
  32   2.0000      -0.789527       -21.4841
  33   2.0000      -0.774361       -21.0714
  34   2.0000      -0.711769       -19.3682
  35   2.0000      -0.699865       -19.0443
  36   2.0000      -0.697396       -18.9771
  37   2.0000      -0.651204       -17.7202
  38   2.0000      -0.638985       -17.3877
  39   2.0000      -0.621332       -16.9073
  40   2.0000      -0.597262       -16.2523
  41   2.0000      -0.564784       -15.3685
  42   2.0000      -0.554250       -15.0819
  43   2.0000      -0.551580       -15.0093
  44   2.0000      -0.544556       -14.8181
  45   2.0000      -0.534166       -14.5354
  46   2.0000      -0.523891       -14.2558
  47   2.0000      -0.511049       -13.9063
  48   2.0000      -0.502811       -13.6822
  49   2.0000      -0.500079       -13.6078
  50   2.0000      -0.489482       -13.3195
  51   2.0000      -0.476725       -12.9723
  52   2.0000      -0.470401       -12.8003
  53   2.0000      -0.463319       -12.6075
  54   2.0000      -0.456325       -12.4172
  55   2.0000      -0.450222       -12.2512
  56   2.0000      -0.447196       -12.1688
  57   2.0000      -0.439223       -11.9519
  58   2.0000      -0.434226       -11.8159
  59   2.0000      -0.423156       -11.5147
  60   2.0000      -0.421233       -11.4623
  61   2.0000      -0.415955       -11.3187
  62   2.0000      -0.411573       -11.1995
  63   2.0000      -0.341860        -9.3025
  64   2.0000      -0.329707        -8.9718
  65   2.0000      -0.326971        -8.8973
  66   2.0000      -0.297645        -8.0993
  67   0.0000       0.038377         1.0443
  68   0.0000       0.061127         1.6634
  69   0.0000       0.111801         3.0423
  70   0.0000       0.119278         3.2457
  71   0.0000       0.129574         3.5259

MULLIKEN ATOMIC CHARGES
-----------------------
   0 S :    0.109830
   1 C :   -0.107039
   2 C :   -0.108907
   3 C :    0.010324
   4 C :   -0.150625
   5 H :    0.029359
   6 C :    0.084395
   7 H :    0.043984
   8 H :    0.024049
   9 C :   -0.093465
  10 H :    0.025981
  11 H :    0.025921
  12 C :   -0.019114
  13 H :    0.010979
  14 H :    0.045926
  15 H :    0.024314
  16 S :    0.099781
  17 C :   -0.070604
  18 C :   -0.040807
  19 C :   -0.042931
  20 C :   -0.183108
  21 H :    0.027869
  22 C :    0.089311
  23 H :    0.015644
  24 H :    0.026546
  25 C :   -0.056132
  26 H :    0.024487
  27 H :    0.020131
  28 C :   -0.019926
  29 H :    0.057790
  30 H :    0.009147
  31 H :    0.023638
  32 H :    0.026840
  33 H :    0.036409
Sum of atomic charges:    0.0000000

LOEWDIN ATOMIC CHARGES
----------------------
   0 S :    0.383531
   1 C :   -0.182133
   2 C :   -0.057603
   3 C :   -0.061942
   4 C :   -0.198399
   5 H :    0.038954
   6 C :   -0.033851
   7 H :    0.040291
   8 H :    0.030448
   9 C :   -0.040152
  10 H :    0.025533
  11 H :    0.022461
  12 C :   -0.055513
  13 H :    0.006469
  14 H :    0.032801
  15 H :    0.026107
  16 S :    0.391813
  17 C :   -0.161990
  18 C :   -0.078635
  19 C :   -0.048978
  20 C :   -0.205309
  21 H :    0.037942
  22 C :   -0.029244
  23 H :    0.025606
  24 H :    0.032462
  25 C :   -0.040176
  26 H :    0.024747
  27 H :    0.021118
  28 C :   -0.066049
  29 H :    0.036247
  30 H :    0.022432
  31 H :    0.024168
  32 H :    0.018984
  33 H :    0.017859

  Mayer bond orders larger than 0.100000
B(  0-S ,  1-C ) :   1.1214 B(  0-S ,  4-C ) :   1.1221 B(  1-C ,  2-C ) :   1.6727
B(  1-C , 32-H ) :   0.9664 B(  2-C ,  3-C ) :   1.2038 B(  2-C ,  6-C ) :   0.9959
B(  3-C ,  4-C ) :   1.6387 B(  3-C ,  5-H ) :   0.9793 B(  4-C , 20-C ) :   1.0226
B(  6-C ,  7-H ) :   0.9316 B(  6-C ,  8-H ) :   0.9442 B(  6-C ,  9-C ) :   1.0911
B(  9-C , 10-H ) :   0.9526 B(  9-C , 11-H ) :   0.9458 B(  9-C , 12-C ) :   1.0732
B( 12-C , 13-H ) :   0.9746 B( 12-C , 14-H ) :   0.9751 B( 12-C , 15-H ) :   0.9731
B( 16-S , 17-C ) :   1.1539 B( 16-S , 20-C ) :   1.1412 B( 17-C , 18-C ) :   1.6160
B( 17-C , 20-C ) :   0.1087 B( 17-C , 33-H ) :   0.9714 B( 18-C , 19-C ) :   1.2370
B( 18-C , 21-H ) :   0.9905 B( 19-C , 20-C ) :   1.5794 B( 19-C , 22-C ) :   1.0239
B( 22-C , 23-H ) :   0.9339 B( 22-C , 24-H ) :   0.9310 B( 22-C , 25-C ) :   1.0642
B( 25-C , 26-H ) :   0.9511 B( 25-C , 27-H ) :   0.9502 B( 25-C , 28-C ) :   1.0929
B( 28-C , 29-H ) :   0.9661 B( 28-C , 30-H ) :   0.9709 B( 28-C , 31-H ) :   0.9636

Dispersion correction           -0.016046032
FINAL SINGLE POINT ENERGY     -1339.877392476310

DIPOLE MOMENT
-------------
                                X             Y             Z
Electronic contribution:     14.00471      -6.45209     -25.03103
Nuclear contribution   :    -14.37198       6.65760      25.65190
                        -----------------------------------------
Total Dipole Moment    :     -0.36727       0.20551       0.62087
                        -----------------------------------------
Magnitude (a.u.)       :      0.75007
Magnitude (Debye)      :      1.90652

Rotational constants in cm-1:     0.017540     0.010695     0.007623
Rotational constants in MHz :   525.839068   320.613400   228.533506

                             ****ORCA TERMINATED NORMALLY****
TOTAL RUN TIME: 0 days 0 hours 0 minutes 23 seconds 16 msec
