                         Program Version 4.2.1 -  RELEASE  -
|  1> ! wB97X-D3 SP def2-SVP
|  2> %pal
|  3> nprocs 24
|  4> end
|  5>
|  6> * xyz 0 1
|  7> S 	 -97.5529 	 48.6932 	 -98.6597
|  8> C 	 -97.276 	 49.9247 	 -97.4092
|  9> C 	 -97.5956 	 51.1934 	 -97.8212
| 10> C 	 -98.0346 	 51.2115 	 -99.1996
| 11> C 	 -98.1136 	 49.9312 	 -99.7482
| 12> H 	 -98.37 	 52.0374 	 -99.8414
| 13> C 	 -97.1816 	 52.4356 	 -97.0826
| 14> H 	 -98.0851 	 52.8941 	 -96.6923
| 15> H 	 -96.9336 	 53.2402 	 -97.8092
| 16> C 	 -96.0833 	 52.3927 	 -95.9867
| 17> H 	 -96.2829 	 51.4497 	 -95.3681
| 18> H 	 -95.093 	 52.207 	 -96.5415
| 19> C 	 -95.9714 	 53.6277 	 -95.1286
| 20> H 	 -96.6407 	 53.5124 	 -94.2522
| 21> H 	 -94.9929 	 53.7612 	 -94.7292
| 22> H 	 -96.2465 	 54.5577 	 -95.612
| 23> S 	 -97.2145 	 49.1995 	 -102.321
| 24> C 	 -98.4395 	 49.0072 	 -103.577
| 25> C 	 -99.7317 	 49.185 	 -103.09
| 26> C 	 -99.7351 	 49.6303 	 -101.733
| 27> C 	 -98.5125 	 49.5931 	 -101.127
| 28> H 	 -100.545 	 48.9465 	 -103.77
| 29> C 	 -101.052 	 49.7367 	 -101.029
| 30> H 	 -100.813 	 49.7586 	 -99.9672
| 31> H 	 -101.649 	 48.8658 	 -101.011
| 32> C 	 -101.85 	 51.0086 	 -101.349
| 33> H 	 -102.224 	 50.9826 	 -102.426
| 34> H 	 -101.033 	 51.7151 	 -101.364
| 35> C 	 -103.072 	 51.3173 	 -100.403
| 36> H 	 -103.688 	 52.1687 	 -100.737
| 37> H 	 -102.663 	 51.4897 	 -99.3985
| 38> H 	 -103.694 	 50.4369 	 -100.332
| 39> H 	 -96.9264 	 49.6724 	 -96.353
| 40> H 	 -98.2976 	 48.6978 	 -104.596
| 41> *
| 42>
| 43>                          ****END OF INPUT****

CARTESIAN COORDINATES (ANGSTROEM)
---------------------------------
  S    -97.552900   48.693200  -98.659700
  C    -97.276000   49.924700  -97.409200
  C    -97.595600   51.193400  -97.821200
  C    -98.034600   51.211500  -99.199600
  C    -98.113600   49.931200  -99.748200
  H    -98.370000   52.037400  -99.841400
  C    -97.181600   52.435600  -97.082600
  H    -98.085100   52.894100  -96.692300
  H    -96.933600   53.240200  -97.809200
  C    -96.083300   52.392700  -95.986700
  H    -96.282900   51.449700  -95.368100
  H    -95.093000   52.207000  -96.541500
  C    -95.971400   53.627700  -95.128600
  H    -96.640700   53.512400  -94.252200
  H    -94.992900   53.761200  -94.729200
  H    -96.246500   54.557700  -95.612000
  S    -97.214500   49.199500  -102.321000
  C    -98.439500   49.007200  -103.577000
  C    -99.731700   49.185000  -103.090000
  C    -99.735100   49.630300  -101.733000
  C    -98.512500   49.593100  -101.127000
  H    -100.545000   48.946500  -103.770000
  C    -101.052000   49.736700  -101.029000
  H    -100.813000   49.758600  -99.967200
  H    -101.649000   48.865800  -101.011000
  C    -101.850000   51.008600  -101.349000
  H    -102.224000   50.982600  -102.426000
  H    -101.033000   51.715100  -101.364000
  C    -103.072000   51.317300  -100.403000
  H    -103.688000   52.168700  -100.737000
  H    -102.663000   51.489700  -99.398500
  H    -103.694000   50.436900  -100.332000
  H    -96.926400   49.672400  -96.353000
  H    -98.297600   48.697800  -104.596000

 Total Charge           Charge          ....    0
 Multiplicity           Mult            ....    1
 Number of Electrons    NEL             ....  134
 Basis Dimension        Dim             ....  322

ORBITAL ENERGIES
----------------

  NO   OCC          E(Eh)            E(eV)
   0   2.0000     -88.967562     -2420.9304
   1   2.0000     -88.965980     -2420.8874
   2   2.0000     -10.330586      -281.1095
   3   2.0000     -10.329439      -281.0783
   4   2.0000     -10.320332      -280.8305
   5   2.0000     -10.318044      -280.7683
   6   2.0000     -10.305406      -280.4243
   7   2.0000     -10.301532      -280.3189
   8   2.0000     -10.301325      -280.3133
   9   2.0000     -10.300833      -280.2999
  10   2.0000     -10.294507      -280.1278
  11   2.0000     -10.293032      -280.0877
  12   2.0000     -10.289327      -279.9868
  13   2.0000     -10.282977      -279.8140
  14   2.0000     -10.280247      -279.7397
  15   2.0000     -10.279935      -279.7312
  16   2.0000      -8.082008      -219.9226
  17   2.0000      -8.079663      -219.8588
  18   2.0000      -6.040522      -164.3710
  19   2.0000      -6.038302      -164.3105
  20   2.0000      -6.036605      -164.2644
  21   2.0000      -6.034387      -164.2040
  22   2.0000      -6.032724      -164.1588
  23   2.0000      -6.030269      -164.0919
  24   2.0000      -1.001951       -27.2645
  25   2.0000      -0.980116       -26.6703
  26   2.0000      -0.910617       -24.7791
  27   2.0000      -0.904737       -24.6191
  28   2.0000      -0.867003       -23.5924
  29   2.0000      -0.849963       -23.1287
  30   2.0000      -0.843821       -22.9615
  31   2.0000      -0.812521       -22.1098
  32   2.0000      -0.784064       -21.3355
  33   2.0000      -0.772147       -21.0112
  34   2.0000      -0.708094       -19.2682
  35   2.0000      -0.698762       -19.0143
  36   2.0000      -0.692706       -18.8495
  37   2.0000      -0.658124       -17.9085
  38   2.0000      -0.638202       -17.3664
  39   2.0000      -0.608748       -16.5649
  40   2.0000      -0.595741       -16.2109
  41   2.0000      -0.573257       -15.5991
  42   2.0000      -0.559403       -15.2221
  43   2.0000      -0.555011       -15.1026
  44   2.0000      -0.523828       -14.2541
  45   2.0000      -0.522065       -14.2061
  46   2.0000      -0.517522       -14.0825
  47   2.0000      -0.512058       -13.9338
  48   2.0000      -0.505375       -13.7519
  49   2.0000      -0.498137       -13.5550
  50   2.0000      -0.489186       -13.3114
  51   2.0000      -0.478969       -13.0334
  52   2.0000      -0.469941       -12.7877
  53   2.0000      -0.462266       -12.5789
  54   2.0000      -0.459195       -12.4953
  55   2.0000      -0.449727       -12.2377
  56   2.0000      -0.445607       -12.1256
  57   2.0000      -0.434810       -11.8318
  58   2.0000      -0.430378       -11.7112
  59   2.0000      -0.426437       -11.6040
  60   2.0000      -0.425178       -11.5697
  61   2.0000      -0.411050       -11.1852
  62   2.0000      -0.404603       -11.0098
  63   2.0000      -0.335426        -9.1274
  64   2.0000      -0.331416        -9.0183
  65   2.0000      -0.327780        -8.9193
  66   2.0000      -0.305503        -8.3132
  67   0.0000       0.039421         1.0727
  68   0.0000       0.058232         1.5846
  69   0.0000       0.111688         3.0392
  70   0.0000       0.117068         3.1856
  71   0.0000       0.122939         3.3454

MULLIKEN ATOMIC CHARGES
-----------------------
   0 S :    0.118149
   1 C :   -0.167642
   2 C :   -0.040328
   3 C :    0.035962
   4 C :   -0.195788
   5 H :    0.026978
   6 C :    0.042293
   7 H :    0.021885
   8 H :    0.026502
   9 C :   -0.115747
  10 H :    0.038350
  11 H :    0.049169
  12 C :   -0.023597
  13 H :    0.034201
  14 H :    0.030188
  15 H :    0.031034
  16 S :    0.104962
  17 C :   -0.089815
  18 C :   -0.037399
  19 C :    0.006592
  20 C :   -0.168957
  21 H :    0.027701
  22 C :    0.064190
  23 H :    0.008910
  24 H :    0.016954
  25 C :   -0.102321
  26 H :    0.031710
  27 H :    0.021730
  28 C :   -0.035355
  29 H :    0.048168
  30 H :    0.035326
  31 H :    0.030137
  32 H :    0.075661
  33 H :    0.050196
Sum of atomic charges:   -0.0000000

LOEWDIN ATOMIC CHARGES
----------------------
   0 S :    0.399961
   1 C :   -0.200616
   2 C :   -0.065772
   3 C :   -0.056195
   4 C :   -0.200195
   5 H :    0.038370
   6 C :   -0.043482
   7 H :    0.029941
   8 H :    0.035151
   9 C :   -0.049272
  10 H :    0.027605
  11 H :    0.033546
  12 C :   -0.065640
  13 H :    0.032138
  14 H :    0.025897
  15 H :    0.025795
  16 S :    0.376152
  17 C :   -0.174951
  18 C :   -0.068539
  19 C :   -0.054720
  20 C :   -0.184416
  21 H :    0.035478
  22 C :   -0.035556
  23 H :    0.029524
  24 H :    0.023067
  25 C :   -0.043008
  26 H :    0.024346
  27 H :    0.019031
  28 C :   -0.064565
  29 H :    0.031271
  30 H :    0.027519
  31 H :    0.024225
  32 H :    0.040655
  33 H :    0.027255

  Mayer bond orders larger than 0.100000
B(  0-S ,  1-C ) :   1.1239 B(  0-S ,  4-C ) :   1.1535 B(  1-C ,  2-C ) :   1.6494
B(  1-C , 32-H ) :   0.9510 B(  2-C ,  3-C ) :   1.2061 B(  2-C ,  6-C ) :   1.0152
B(  3-C ,  4-C ) :   1.6123 B(  3-C ,  5-H ) :   0.9888 B(  4-C , 20-C ) :   1.0058
B(  6-C ,  7-H ) :   0.9233 B(  6-C ,  8-H ) :   0.9428 B(  6-C ,  9-C ) :   1.0633
B(  9-C , 10-H ) :   0.9524 B(  9-C , 11-H ) :   0.9585 B(  9-C , 12-C ) :   1.0762
B( 12-C , 13-H ) :   0.9723 B( 12-C , 14-H ) :   0.9729 B( 12-C , 15-H ) :   0.9769
B( 16-S , 17-C ) :   1.1443 B( 16-S , 20-C ) :   1.1183 B( 17-C , 18-C ) :   1.6488
B( 17-C , 33-H ) :   0.9644 B( 18-C , 19-C ) :   1.1931 B( 18-C , 21-H ) :   0.9897
B( 19-C , 20-C ) :   1.6395 B( 19-C , 22-C ) :   1.0542 B( 22-C , 23-H ) :   0.9290
B( 22-C , 24-H ) :   0.9421 B( 22-C , 25-C ) :   1.0357 B( 25-C , 26-H ) :   0.9586
B( 25-C , 27-H ) :   0.9601 B( 25-C , 28-C ) :   1.0688 B( 28-C , 29-H ) :   0.9766
B( 28-C , 30-H ) :   0.9764 B( 28-C , 31-H ) :   0.9747

Dispersion correction           -0.013796559
FINAL SINGLE POINT ENERGY     -1339.875727912021

DIPOLE MOMENT
-------------
                                X             Y             Z
Electronic contribution:     11.36088     -18.93892     -14.34457
Nuclear contribution   :    -11.65903      19.34606      14.56223
                        -----------------------------------------
Total Dipole Moment    :     -0.29815       0.40713       0.21766
                        -----------------------------------------
Magnitude (a.u.)       :      0.54957
Magnitude (Debye)      :      1.39690

Rotational constants in cm-1:     0.019115     0.007442     0.006078
Rotational constants in MHz :   573.047372   223.113720   182.226879

                             ****ORCA TERMINATED NORMALLY****
TOTAL RUN TIME: 0 days 0 hours 0 minutes 20 seconds 953 msec
