                         Program Version 4.2.1 -  RELEASE  -
|  1> ! wB97X-D3 SP def2-SVP
|  2> %pal
|  3> nprocs 24
|  4> end
|  5>
|  6> * xyz 0 1
|  7> S 	 -51.2252 	 -54.2508 	 -78.4638
|  8> C 	 -52.2796 	 -53.1184 	 -77.7286
|  9> C 	 -51.822 	 -51.8467 	 -77.9362
| 10> C 	 -50.6442 	 -51.7844 	 -78.8129
| 11> C 	 -50.2068 	 -53.0437 	 -79.204
| 12> H 	 -50.0545 	 -50.9157 	 -79.0697
| 13> C 	 -52.414 	 -50.5707 	 -77.3811
| 14> H 	 -53.4781 	 -50.77 	 -77.2337
| 15> H 	 -52.221 	 -49.759 	 -78.0283
| 16> C 	 -51.7335 	 -50.2988 	 -76.0798
| 17> H 	 -51.9039 	 -51.09 	 -75.4329
| 18> H 	 -50.6446 	 -50.217 	 -76.3091
| 19> C 	 -52.4378 	 -49.0688 	 -75.5909
| 20> H 	 -53.4819 	 -49.3024 	 -75.2927
| 21> H 	 -51.924 	 -48.6274 	 -74.8126
| 22> H 	 -52.4434 	 -48.3691 	 -76.4015
| 23> S 	 -47.6798 	 -53.9039 	 -79.2751
| 24> C 	 -46.8981 	 -53.9512 	 -80.8901
| 25> C 	 -47.7904 	 -53.669 	 -81.9136
| 26> C 	 -49.0755 	 -53.2383 	 -81.4293
| 27> C 	 -49.1202 	 -53.3418 	 -80.073
| 28> H 	 -47.5237 	 -53.6072 	 -82.9718
| 29> C 	 -50.1136 	 -52.6564 	 -82.378
| 30> H 	 -51.0374 	 -52.6549 	 -81.7386
| 31> H 	 -50.2913 	 -53.3226 	 -83.2449
| 32> C 	 -49.9794 	 -51.189 	 -82.7551
| 33> H 	 -49.7083 	 -50.5642 	 -81.9407
| 34> H 	 -50.9853 	 -50.7935 	 -82.9836
| 35> C 	 -48.9099 	 -50.9715 	 -83.8576
| 36> H 	 -49.2183 	 -51.4129 	 -84.8302
| 37> H 	 -47.9116 	 -51.2801 	 -83.467
| 38> H 	 -48.7369 	 -49.9116 	 -83.95
| 39> H 	 -53.1018 	 -53.5093 	 -77.1212
| 40> H 	 -45.7696 	 -53.8543 	 -81.021
| 41> *
| 42>
| 43>                          ****END OF INPUT****

CARTESIAN COORDINATES (ANGSTROEM)
---------------------------------
  S    -51.225200  -54.250800  -78.463800
  C    -52.279600  -53.118400  -77.728600
  C    -51.822000  -51.846700  -77.936200
  C    -50.644200  -51.784400  -78.812900
  C    -50.206800  -53.043700  -79.204000
  H    -50.054500  -50.915700  -79.069700
  C    -52.414000  -50.570700  -77.381100
  H    -53.478100  -50.770000  -77.233700
  H    -52.221000  -49.759000  -78.028300
  C    -51.733500  -50.298800  -76.079800
  H    -51.903900  -51.090000  -75.432900
  H    -50.644600  -50.217000  -76.309100
  C    -52.437800  -49.068800  -75.590900
  H    -53.481900  -49.302400  -75.292700
  H    -51.924000  -48.627400  -74.812600
  H    -52.443400  -48.369100  -76.401500
  S    -47.679800  -53.903900  -79.275100
  C    -46.898100  -53.951200  -80.890100
  C    -47.790400  -53.669000  -81.913600
  C    -49.075500  -53.238300  -81.429300
  C    -49.120200  -53.341800  -80.073000
  H    -47.523700  -53.607200  -82.971800
  C    -50.113600  -52.656400  -82.378000
  H    -51.037400  -52.654900  -81.738600
  H    -50.291300  -53.322600  -83.244900
  C    -49.979400  -51.189000  -82.755100
  H    -49.708300  -50.564200  -81.940700
  H    -50.985300  -50.793500  -82.983600
  C    -48.909900  -50.971500  -83.857600
  H    -49.218300  -51.412900  -84.830200
  H    -47.911600  -51.280100  -83.467000
  H    -48.736900  -49.911600  -83.950000
  H    -53.101800  -53.509300  -77.121200
  H    -45.769600  -53.854300  -81.021000

 Total Charge           Charge          ....    0
 Multiplicity           Mult            ....    1
 Number of Electrons    NEL             ....  134
 Basis Dimension        Dim             ....  322

ORBITAL ENERGIES
----------------

  NO   OCC          E(Eh)            E(eV)
   0   2.0000     -88.966371     -2420.8980
   1   2.0000     -88.957929     -2420.6683
   2   2.0000     -10.324642      -280.9478
   3   2.0000     -10.321693      -280.8675
   4   2.0000     -10.319057      -280.7958
   5   2.0000     -10.310061      -280.5510
   6   2.0000     -10.300933      -280.3026
   7   2.0000     -10.298977      -280.2494
   8   2.0000     -10.296403      -280.1794
   9   2.0000     -10.294398      -280.1248
  10   2.0000     -10.294104      -280.1168
  11   2.0000     -10.286180      -279.9012
  12   2.0000     -10.281973      -279.7867
  13   2.0000     -10.281002      -279.7603
  14   2.0000     -10.274405      -279.5808
  15   2.0000     -10.268009      -279.4067
  16   2.0000      -8.080893      -219.8923
  17   2.0000      -8.073795      -219.6991
  18   2.0000      -6.039391      -164.3402
  19   2.0000      -6.035673      -164.2390
  20   2.0000      -6.032218      -164.1450
  21   2.0000      -6.031414      -164.1231
  22   2.0000      -6.028015      -164.0306
  23   2.0000      -6.024707      -163.9406
  24   2.0000      -1.008416       -27.4404
  25   2.0000      -0.983109       -26.7518
  26   2.0000      -0.928259       -25.2592
  27   2.0000      -0.907966       -24.7070
  28   2.0000      -0.873600       -23.7719
  29   2.0000      -0.848305       -23.0836
  30   2.0000      -0.845314       -23.0022
  31   2.0000      -0.811583       -22.0843
  32   2.0000      -0.781427       -21.2637
  33   2.0000      -0.767632       -20.8883
  34   2.0000      -0.706280       -19.2189
  35   2.0000      -0.701270       -19.0825
  36   2.0000      -0.687963       -18.7204
  37   2.0000      -0.663575       -18.0568
  38   2.0000      -0.650752       -17.7079
  39   2.0000      -0.614294       -16.7158
  40   2.0000      -0.593058       -16.1379
  41   2.0000      -0.585369       -15.9287
  42   2.0000      -0.559346       -15.2206
  43   2.0000      -0.546343       -14.8668
  44   2.0000      -0.541922       -14.7464
  45   2.0000      -0.527636       -14.3577
  46   2.0000      -0.515964       -14.0401
  47   2.0000      -0.513254       -13.9663
  48   2.0000      -0.510527       -13.8922
  49   2.0000      -0.495621       -13.4865
  50   2.0000      -0.493000       -13.4152
  51   2.0000      -0.480893       -13.0858
  52   2.0000      -0.472308       -12.8521
  53   2.0000      -0.463070       -12.6008
  54   2.0000      -0.457125       -12.4390
  55   2.0000      -0.446205       -12.1419
  56   2.0000      -0.443413       -12.0659
  57   2.0000      -0.439237       -11.9523
  58   2.0000      -0.434213       -11.8155
  59   2.0000      -0.430586       -11.7168
  60   2.0000      -0.419236       -11.4080
  61   2.0000      -0.412260       -11.2182
  62   2.0000      -0.406239       -11.0543
  63   2.0000      -0.340190        -9.2570
  64   2.0000      -0.326829        -8.8935
  65   2.0000      -0.321050        -8.7362
  66   2.0000      -0.302275        -8.2253
  67   0.0000       0.044835         1.2200
  68   0.0000       0.057784         1.5724
  69   0.0000       0.108860         2.9622
  70   0.0000       0.123910         3.3718
  71   0.0000       0.128841         3.5060

MULLIKEN ATOMIC CHARGES
-----------------------
   0 S :    0.108913
   1 C :   -0.142515
   2 C :   -0.090831
   3 C :    0.037175
   4 C :   -0.179343
   5 H :    0.013207
   6 C :    0.068893
   7 H :    0.023146
   8 H :    0.012490
   9 C :   -0.072557
  10 H :    0.010162
  11 H :    0.034448
  12 C :    0.037230
  13 H :    0.031798
  14 H :    0.010372
  15 H :    0.007853
  16 S :    0.114925
  17 C :   -0.118127
  18 C :   -0.032156
  19 C :   -0.014836
  20 C :   -0.202320
  21 H :    0.028299
  22 C :    0.050193
  23 H :    0.036866
  24 H :    0.040418
  25 C :   -0.042386
  26 H :    0.008858
  27 H :    0.031442
  28 C :   -0.060595
  29 H :    0.045504
  30 H :    0.034293
  31 H :    0.023590
  32 H :    0.058710
  33 H :    0.086878
Sum of atomic charges:    0.0000000

LOEWDIN ATOMIC CHARGES
----------------------
   0 S :    0.415777
   1 C :   -0.215019
   2 C :   -0.060451
   3 C :   -0.065818
   4 C :   -0.205382
   5 H :    0.029034
   6 C :   -0.025389
   7 H :    0.030042
   8 H :    0.021774
   9 C :   -0.032736
  10 H :    0.013934
  11 H :    0.030292
  12 C :   -0.051192
  13 H :    0.031893
  14 H :    0.011726
  15 H :    0.020298
  16 S :    0.393637
  17 C :   -0.187556
  18 C :   -0.065980
  19 C :   -0.052093
  20 C :   -0.205508
  21 H :    0.032721
  22 C :   -0.035866
  23 H :    0.040638
  24 H :    0.035425
  25 C :   -0.038905
  26 H :    0.019984
  27 H :    0.028246
  28 C :   -0.071867
  29 H :    0.028245
  30 H :    0.030156
  31 H :    0.023105
  32 H :    0.032431
  33 H :    0.044404

  Mayer bond orders larger than 0.100000
B(  0-S ,  1-C ) :   1.1414 B(  0-S ,  4-C ) :   1.1616 B(  1-C ,  2-C ) :   1.6049
B(  1-C , 32-H ) :   0.9741 B(  2-C ,  3-C ) :   1.2246 B(  2-C ,  6-C ) :   1.0239
B(  3-C ,  4-C ) :   1.5835 B(  3-C ,  5-H ) :   0.9928 B(  4-C , 20-C ) :   1.0151
B(  6-C ,  7-H ) :   0.9413 B(  6-C ,  8-H ) :   0.9384 B(  6-C ,  9-C ) :   1.0725
B(  9-C , 10-H ) :   0.9531 B(  9-C , 11-H ) :   0.9524 B(  9-C , 12-C ) :   1.0866
B( 12-C , 13-H ) :   0.9698 B( 12-C , 14-H ) :   0.9681 B( 12-C , 15-H ) :   0.9682
B( 16-S , 17-C ) :   1.1275 B( 16-S , 20-C ) :   1.1469 B( 17-C , 18-C ) :   1.6373
B( 17-C , 33-H ) :   0.9547 B( 18-C , 19-C ) :   1.2145 B( 18-C , 21-H ) :   0.9780
B( 19-C , 20-C ) :   1.6459 B( 19-C , 22-C ) :   1.0488 B( 22-C , 23-H ) :   0.9191
B( 22-C , 24-H ) :   0.9387 B( 22-C , 25-C ) :   1.0750 B( 25-C , 26-H ) :   0.9477
B( 25-C , 27-H ) :   0.9564 B( 25-C , 28-C ) :   1.0788 B( 28-C , 29-H ) :   0.9771
B( 28-C , 30-H ) :   0.9678 B( 28-C , 31-H ) :   0.9716

Dispersion correction           -0.014561519
FINAL SINGLE POINT ENERGY     -1339.866078222023

DIPOLE MOMENT
-------------
                                X             Y             Z
Electronic contribution:      8.57701     -22.92868       4.37591
Nuclear contribution   :     -8.70982      23.63699      -4.52886
                        -----------------------------------------
Total Dipole Moment    :     -0.13281       0.70832      -0.15295
                        -----------------------------------------
Magnitude (a.u.)       :      0.73671
Magnitude (Debye)      :      1.87257

Rotational constants in cm-1:     0.020038     0.007995     0.006854
Rotational constants in MHz :   600.710822   239.683253   205.479559

                             ****ORCA TERMINATED NORMALLY****
TOTAL RUN TIME: 0 days 0 hours 0 minutes 21 seconds 877 msec
