                         Program Version 4.2.1 -  RELEASE  -
|  1> ! wB97X-D3 SP def2-SVP
|  2> %pal
|  3> nprocs 24
|  4> end
|  5>
|  6> * xyz 0 1
|  7> S 	 -56.9906 	 13.3755 	 -93.2648
|  8> C 	 -55.5984 	 12.4763 	 -93.9972
|  9> C 	 -54.4265 	 12.9248 	 -93.4895
| 10> C 	 -54.5771 	 14.106 	 -92.7056
| 11> C 	 -55.858 	 14.619 	 -92.6913
| 12> H 	 -53.7432 	 14.6676 	 -92.2008
| 13> C 	 -53.0635 	 12.2322 	 -93.684
| 14> H 	 -52.3653 	 12.9553 	 -94.0679
| 15> H 	 -53.1465 	 11.543 	 -94.5438
| 16> C 	 -52.3698 	 11.5154 	 -92.5609
| 17> H 	 -52.1238 	 12.2419 	 -91.8051
| 18> H 	 -53.0618 	 10.6969 	 -92.2196
| 19> C 	 -51.0787 	 10.8403 	 -93.0794
| 20> H 	 -50.2316 	 11.3651 	 -92.6682
| 21> H 	 -51.0907 	 9.79183 	 -92.7606
| 22> H 	 -50.9508 	 10.8599 	 -94.1851
| 23> S 	 -56.2513 	 15.759 	 -90.3122
| 24> C 	 -56.6049 	 17.4965 	 -90.2695
| 25> C 	 -56.8077 	 18.0288 	 -91.5045
| 26> C 	 -56.626 	 17.0497 	 -92.504
| 27> C 	 -56.2257 	 15.8517 	 -91.9901
| 28> H 	 -56.9437 	 19.0154 	 -91.6096
| 29> C 	 -56.5983 	 17.4974 	 -93.9377
| 30> H 	 -57.1999 	 18.4406 	 -94.0543
| 31> H 	 -57.1534 	 16.7188 	 -94.4477
| 32> C 	 -55.2731 	 17.9356 	 -94.5583
| 33> H 	 -54.5094 	 17.1808 	 -94.4667
| 34> H 	 -54.9188 	 18.8192 	 -93.9903
| 35> C 	 -55.3883 	 18.2465 	 -96.0656
| 36> H 	 -55.8201 	 17.2905 	 -96.4844
| 37> H 	 -54.382 	 18.5319 	 -96.3978
| 38> H 	 -56.1176 	 19.1113 	 -96.1641
| 39> H 	 -55.5835 	 11.603 	 -94.6217
| 40> H 	 -56.892 	 18.0085 	 -89.3488
| 41> *
| 42>
| 43>                          ****END OF INPUT****

CARTESIAN COORDINATES (ANGSTROEM)
---------------------------------
  S    -56.990600   13.375500  -93.264800
  C    -55.598400   12.476300  -93.997200
  C    -54.426500   12.924800  -93.489500
  C    -54.577100   14.106000  -92.705600
  C    -55.858000   14.619000  -92.691300
  H    -53.743200   14.667600  -92.200800
  C    -53.063500   12.232200  -93.684000
  H    -52.365300   12.955300  -94.067900
  H    -53.146500   11.543000  -94.543800
  C    -52.369800   11.515400  -92.560900
  H    -52.123800   12.241900  -91.805100
  H    -53.061800   10.696900  -92.219600
  C    -51.078700   10.840300  -93.079400
  H    -50.231600   11.365100  -92.668200
  H    -51.090700    9.791830  -92.760600
  H    -50.950800   10.859900  -94.185100
  S    -56.251300   15.759000  -90.312200
  C    -56.604900   17.496500  -90.269500
  C    -56.807700   18.028800  -91.504500
  C    -56.626000   17.049700  -92.504000
  C    -56.225700   15.851700  -91.990100
  H    -56.943700   19.015400  -91.609600
  C    -56.598300   17.497400  -93.937700
  H    -57.199900   18.440600  -94.054300
  H    -57.153400   16.718800  -94.447700
  C    -55.273100   17.935600  -94.558300
  H    -54.509400   17.180800  -94.466700
  H    -54.918800   18.819200  -93.990300
  C    -55.388300   18.246500  -96.065600
  H    -55.820100   17.290500  -96.484400
  H    -54.382000   18.531900  -96.397800
  H    -56.117600   19.111300  -96.164100
  H    -55.583500   11.603000  -94.621700
  H    -56.892000   18.008500  -89.348800

 Total Charge           Charge          ....    0
 Multiplicity           Mult            ....    1
 Number of Electrons    NEL             ....  134
 Basis Dimension        Dim             ....  322

ORBITAL ENERGIES
----------------

  NO   OCC          E(Eh)            E(eV)
   0   2.0000     -88.966616     -2420.9047
   1   2.0000     -88.966042     -2420.8891
   2   2.0000     -10.329151      -281.0705
   3   2.0000     -10.317344      -280.7492
   4   2.0000     -10.313815      -280.6532
   5   2.0000     -10.313433      -280.6428
   6   2.0000     -10.298124      -280.2262
   7   2.0000     -10.295738      -280.1613
   8   2.0000     -10.294297      -280.1221
   9   2.0000     -10.290117      -280.0083
  10   2.0000     -10.288513      -279.9647
  11   2.0000     -10.287347      -279.9329
  12   2.0000     -10.286438      -279.9082
  13   2.0000     -10.282241      -279.7940
  14   2.0000     -10.281226      -279.7664
  15   2.0000     -10.281203      -279.7658
  16   2.0000      -8.081879      -219.9191
  17   2.0000      -8.079805      -219.8627
  18   2.0000      -6.040175      -164.3615
  19   2.0000      -6.038593      -164.3185
  20   2.0000      -6.036342      -164.2572
  21   2.0000      -6.034828      -164.2160
  22   2.0000      -6.032682      -164.1576
  23   2.0000      -6.030042      -164.0858
  24   2.0000      -1.013315       -27.5737
  25   2.0000      -0.983931       -26.7741
  26   2.0000      -0.913457       -24.8564
  27   2.0000      -0.908312       -24.7164
  28   2.0000      -0.875371       -23.8201
  29   2.0000      -0.852846       -23.2071
  30   2.0000      -0.841180       -22.8897
  31   2.0000      -0.815728       -22.1971
  32   2.0000      -0.779957       -21.2237
  33   2.0000      -0.767880       -20.8951
  34   2.0000      -0.705487       -19.1973
  35   2.0000      -0.694929       -18.9100
  36   2.0000      -0.686771       -18.6880
  37   2.0000      -0.673768       -18.3342
  38   2.0000      -0.634222       -17.2580
  39   2.0000      -0.615966       -16.7613
  40   2.0000      -0.596129       -16.2215
  41   2.0000      -0.576604       -15.6902
  42   2.0000      -0.570847       -15.5335
  43   2.0000      -0.561048       -15.2669
  44   2.0000      -0.528797       -14.3893
  45   2.0000      -0.519351       -14.1323
  46   2.0000      -0.517613       -14.0850
  47   2.0000      -0.509379       -13.8609
  48   2.0000      -0.503229       -13.6936
  49   2.0000      -0.500207       -13.6113
  50   2.0000      -0.486884       -13.2488
  51   2.0000      -0.478971       -13.0335
  52   2.0000      -0.468800       -12.7567
  53   2.0000      -0.460522       -12.5314
  54   2.0000      -0.459190       -12.4952
  55   2.0000      -0.446152       -12.1404
  56   2.0000      -0.443733       -12.0746
  57   2.0000      -0.439206       -11.9514
  58   2.0000      -0.433244       -11.7892
  59   2.0000      -0.421674       -11.4743
  60   2.0000      -0.417183       -11.3521
  61   2.0000      -0.416190       -11.3251
  62   2.0000      -0.411173       -11.1886
  63   2.0000      -0.341123        -9.2824
  64   2.0000      -0.328858        -8.9487
  65   2.0000      -0.323687        -8.8080
  66   2.0000      -0.307140        -8.3577
  67   0.0000       0.040004         1.0886
  68   0.0000       0.056105         1.5267
  69   0.0000       0.103934         2.8282
  70   0.0000       0.116279         3.1641
  71   0.0000       0.131888         3.5889

MULLIKEN ATOMIC CHARGES
-----------------------
   0 S :    0.102692
   1 C :   -0.108687
   2 C :   -0.057742
   3 C :    0.002407
   4 C :   -0.137318
   5 H :    0.035724
   6 C :    0.026958
   7 H :    0.019160
   8 H :    0.009337
   9 C :   -0.054792
  10 H :    0.033175
  11 H :    0.041477
  12 C :   -0.058003
  13 H :    0.033861
  14 H :    0.040934
  15 H :    0.035537
  16 S :    0.129611
  17 C :   -0.096168
  18 C :    0.009491
  19 C :    0.001413
  20 C :   -0.210101
  21 H :   -0.028439
  22 C :    0.048640
  23 H :    0.014736
  24 H :    0.023594
  25 C :   -0.062700
  26 H :    0.021947
  27 H :    0.022120
  28 C :   -0.062242
  29 H :    0.051161
  30 H :    0.046412
  31 H :    0.036445
  32 H :    0.033463
  33 H :    0.055898
Sum of atomic charges:    0.0000000

LOEWDIN ATOMIC CHARGES
----------------------
   0 S :    0.363440
   1 C :   -0.174015
   2 C :   -0.065745
   3 C :   -0.066335
   4 C :   -0.186612
   5 H :    0.039262
   6 C :   -0.037380
   7 H :    0.025215
   8 H :    0.026261
   9 C :   -0.039271
  10 H :    0.023046
  11 H :    0.031098
  12 C :   -0.065286
  13 H :    0.025587
  14 H :    0.030796
  15 H :    0.027681
  16 S :    0.432914
  17 C :   -0.174918
  18 C :   -0.050977
  19 C :   -0.056634
  20 C :   -0.223094
  21 H :    0.013543
  22 C :   -0.037893
  23 H :    0.033395
  24 H :    0.027587
  25 C :   -0.041685
  26 H :    0.017141
  27 H :    0.022663
  28 C :   -0.066421
  29 H :    0.035722
  30 H :    0.028760
  31 H :    0.027396
  32 H :    0.027361
  33 H :    0.027400

  Mayer bond orders larger than 0.100000
B(  0-S ,  1-C ) :   1.1034 B(  0-S ,  4-C ) :   1.1240 B(  1-C ,  2-C ) :   1.6668
B(  1-C , 32-H ) :   0.9639 B(  2-C ,  3-C ) :   1.2091 B(  2-C ,  6-C ) :   1.0152
B(  3-C ,  4-C ) :   1.6033 B(  3-C ,  5-H ) :   0.9869 B(  4-C , 20-C ) :   1.0249
B(  6-C ,  7-H ) :   0.9380 B(  6-C ,  8-H ) :   0.9396 B(  6-C ,  9-C ) :   1.0761
B(  9-C , 10-H ) :   0.9574 B(  9-C , 11-H ) :   0.9613 B(  9-C , 12-C ) :   1.0584
B( 12-C , 13-H ) :   0.9775 B( 12-C , 14-H ) :   0.9793 B( 12-C , 15-H ) :   0.9782
B( 16-S , 17-C ) :   1.1479 B( 16-S , 20-C ) :   1.1717 B( 17-C , 18-C ) :   1.6188
B( 17-C , 33-H ) :   0.9622 B( 18-C , 19-C ) :   1.2358 B( 18-C , 21-H ) :   1.0132
B( 19-C , 20-C ) :   1.5976 B( 19-C , 22-C ) :   1.0589 B( 22-C , 23-H ) :   0.9334
B( 22-C , 24-H ) :   0.9198 B( 22-C , 25-C ) :   1.0647 B( 25-C , 26-H ) :   0.9557
B( 25-C , 27-H ) :   0.9513 B( 25-C , 28-C ) :   1.0735 B( 28-C , 29-H ) :   0.9754
B( 28-C , 30-H ) :   0.9728 B( 28-C , 31-H ) :   0.9757

Dispersion correction           -0.013821359
FINAL SINGLE POINT ENERGY     -1339.859341666245

DIPOLE MOMENT
-------------
                                X             Y             Z
Electronic contribution:    -18.93816      -0.08777      14.83616
Nuclear contribution   :     19.46147       0.21941     -14.93013
                        -----------------------------------------
Total Dipole Moment    :      0.52332       0.13165      -0.09397
                        -----------------------------------------
Magnitude (a.u.)       :      0.54774
Magnitude (Debye)      :      1.39226

Rotational constants in cm-1:     0.018213     0.007843     0.006861
Rotational constants in MHz :   546.005007   235.139681   205.693940

                             ****ORCA TERMINATED NORMALLY****
TOTAL RUN TIME: 0 days 0 hours 0 minutes 21 seconds 146 msec
