                         Program Version 4.2.1 -  RELEASE  -
|  1> ! wB97X-D3 SP def2-SVP
|  2> %pal
|  3> nprocs 24
|  4> end
|  5>
|  6> * xyz 0 1
|  7> S 	 -84.1202 	 -37.7476 	 -71.3505
|  8> C 	 -84.1763 	 -37.5308 	 -73.0344
|  9> C 	 -83.5887 	 -38.5976 	 -73.7265
| 10> C 	 -83.3449 	 -39.6938 	 -72.8799
| 11> C 	 -83.6634 	 -39.48 	 -71.5811
| 12> H 	 -82.9397 	 -40.6656 	 -73.0654
| 13> C 	 -83.3648 	 -38.6429 	 -75.2608
| 14> H 	 -84.1137 	 -38.0481 	 -75.6327
| 15> H 	 -83.5097 	 -39.6887 	 -75.5803
| 16> C 	 -82.0301 	 -38.0713 	 -75.7901
| 17> H 	 -82.1151 	 -37.8947 	 -76.9454
| 18> H 	 -81.8952 	 -37.0438 	 -75.5193
| 19> C 	 -80.8201 	 -38.991 	 -75.6814
| 20> H 	 -80.8261 	 -39.5936 	 -74.7898
| 21> H 	 -80.9224 	 -39.7989 	 -76.4314
| 22> H 	 -79.8507 	 -38.4858 	 -75.8389
| 23> S 	 -82.8075 	 -39.7713 	 -68.8925
| 24> C 	 -83.4557 	 -41.0823 	 -68.0307
| 25> C 	 -84.194 	 -41.9464 	 -68.8216
| 26> C 	 -84.2232 	 -41.5534 	 -70.1813
| 27> C 	 -83.6031 	 -40.3344 	 -70.3856
| 28> H 	 -84.7 	 -42.7411 	 -68.396
| 29> C 	 -85.0369 	 -42.4129 	 -71.2209
| 30> H 	 -85.1593 	 -41.7484 	 -72.0899
| 31> H 	 -86.0729 	 -42.6156 	 -70.7591
| 32> C 	 -84.3526 	 -43.6835 	 -71.6781
| 33> H 	 -85.0048 	 -44.3763 	 -72.2101
| 34> H 	 -84.2891 	 -44.1583 	 -70.7077
| 35> C 	 -82.9845 	 -43.5069 	 -72.4005
| 36> H 	 -82.2389 	 -44.3724 	 -72.3183
| 37> H 	 -82.5267 	 -42.6052 	 -71.9917
| 38> H 	 -83.1405 	 -43.4008 	 -73.4828
| 39> H 	 -84.4477 	 -36.6502 	 -73.4085
| 40> H 	 -83.3549 	 -41.0871 	 -66.9392
| 41> *
| 42>
| 43>                          ****END OF INPUT****

CARTESIAN COORDINATES (ANGSTROEM)
---------------------------------
  S    -84.120200  -37.747600  -71.350500
  C    -84.176300  -37.530800  -73.034400
  C    -83.588700  -38.597600  -73.726500
  C    -83.344900  -39.693800  -72.879900
  C    -83.663400  -39.480000  -71.581100
  H    -82.939700  -40.665600  -73.065400
  C    -83.364800  -38.642900  -75.260800
  H    -84.113700  -38.048100  -75.632700
  H    -83.509700  -39.688700  -75.580300
  C    -82.030100  -38.071300  -75.790100
  H    -82.115100  -37.894700  -76.945400
  H    -81.895200  -37.043800  -75.519300
  C    -80.820100  -38.991000  -75.681400
  H    -80.826100  -39.593600  -74.789800
  H    -80.922400  -39.798900  -76.431400
  H    -79.850700  -38.485800  -75.838900
  S    -82.807500  -39.771300  -68.892500
  C    -83.455700  -41.082300  -68.030700
  C    -84.194000  -41.946400  -68.821600
  C    -84.223200  -41.553400  -70.181300
  C    -83.603100  -40.334400  -70.385600
  H    -84.700000  -42.741100  -68.396000
  C    -85.036900  -42.412900  -71.220900
  H    -85.159300  -41.748400  -72.089900
  H    -86.072900  -42.615600  -70.759100
  C    -84.352600  -43.683500  -71.678100
  H    -85.004800  -44.376300  -72.210100
  H    -84.289100  -44.158300  -70.707700
  C    -82.984500  -43.506900  -72.400500
  H    -82.238900  -44.372400  -72.318300
  H    -82.526700  -42.605200  -71.991700
  H    -83.140500  -43.400800  -73.482800
  H    -84.447700  -36.650200  -73.408500
  H    -83.354900  -41.087100  -66.939200

 Total Charge           Charge          ....    0
 Multiplicity           Mult            ....    1
 Number of Electrons    NEL             ....  134
 Basis Dimension        Dim             ....  322

ORBITAL ENERGIES
----------------

  NO   OCC          E(Eh)            E(eV)
   0   2.0000     -88.967350     -2420.9247
   1   2.0000     -88.961957     -2420.7779
   2   2.0000     -10.329230      -281.0726
   3   2.0000     -10.328384      -281.0496
   4   2.0000     -10.316063      -280.7143
   5   2.0000     -10.305261      -280.4204
   6   2.0000     -10.304688      -280.4048
   7   2.0000     -10.302585      -280.3476
   8   2.0000     -10.301634      -280.3217
   9   2.0000     -10.291639      -280.0497
  10   2.0000     -10.291001      -280.0324
  11   2.0000     -10.289798      -279.9996
  12   2.0000     -10.288161      -279.9551
  13   2.0000     -10.287592      -279.9396
  14   2.0000     -10.287005      -279.9236
  15   2.0000     -10.277742      -279.6716
  16   2.0000      -8.082690      -219.9412
  17   2.0000      -8.077224      -219.7924
  18   2.0000      -6.041134      -164.3876
  19   2.0000      -6.037069      -164.2770
  20   2.0000      -6.035544      -164.2355
  21   2.0000      -6.033529      -164.1807
  22   2.0000      -6.031790      -164.1333
  23   2.0000      -6.028021      -164.0308
  24   2.0000      -1.007992       -27.4289
  25   2.0000      -0.988536       -26.8994
  26   2.0000      -0.908363       -24.7178
  27   2.0000      -0.905590       -24.6424
  28   2.0000      -0.869884       -23.6708
  29   2.0000      -0.851843       -23.1798
  30   2.0000      -0.847595       -23.0642
  31   2.0000      -0.816185       -22.2095
  32   2.0000      -0.784361       -21.3435
  33   2.0000      -0.772349       -21.0167
  34   2.0000      -0.704508       -19.1706
  35   2.0000      -0.701747       -19.0955
  36   2.0000      -0.693965       -18.8837
  37   2.0000      -0.661480       -17.9998
  38   2.0000      -0.655823       -17.8459
  39   2.0000      -0.616852       -16.7854
  40   2.0000      -0.594307       -16.1719
  41   2.0000      -0.567516       -15.4429
  42   2.0000      -0.558534       -15.1985
  43   2.0000      -0.553795       -15.0695
  44   2.0000      -0.541563       -14.7367
  45   2.0000      -0.534736       -14.5509
  46   2.0000      -0.516323       -14.0499
  47   2.0000      -0.508284       -13.8311
  48   2.0000      -0.502711       -13.6795
  49   2.0000      -0.493210       -13.4209
  50   2.0000      -0.488448       -13.2914
  51   2.0000      -0.482636       -13.1332
  52   2.0000      -0.473085       -12.8733
  53   2.0000      -0.463624       -12.6158
  54   2.0000      -0.458298       -12.4709
  55   2.0000      -0.451057       -12.2739
  56   2.0000      -0.446531       -12.1507
  57   2.0000      -0.444863       -12.1053
  58   2.0000      -0.441434       -12.0120
  59   2.0000      -0.430955       -11.7269
  60   2.0000      -0.420569       -11.4443
  61   2.0000      -0.403818       -10.9884
  62   2.0000      -0.396150       -10.7798
  63   2.0000      -0.350143        -9.5279
  64   2.0000      -0.337148        -9.1743
  65   2.0000      -0.329635        -8.9698
  66   2.0000      -0.288461        -7.8494
  67   0.0000       0.030302         0.8245
  68   0.0000       0.062769         1.7080
  69   0.0000       0.112058         3.0493
  70   0.0000       0.124998         3.4014
  71   0.0000       0.128815         3.5052

MULLIKEN ATOMIC CHARGES
-----------------------
   0 S :    0.100232
   1 C :   -0.060220
   2 C :   -0.084732
   3 C :    0.047768
   4 C :   -0.163847
   5 H :   -0.019460
   6 C :    0.118437
   7 H :    0.000406
   8 H :    0.025605
   9 C :   -0.090483
  10 H :    0.030077
  11 H :    0.020730
  12 C :   -0.037014
  13 H :    0.023643
  14 H :    0.021304
  15 H :    0.047000
  16 S :    0.115973
  17 C :   -0.102811
  18 C :   -0.003101
  19 C :   -0.039129
  20 C :   -0.173553
  21 H :   -0.008460
  22 C :    0.026183
  23 H :    0.027881
  24 H :    0.052343
  25 C :   -0.035737
  26 H :    0.030619
  27 H :    0.012052
  28 C :   -0.088942
  29 H :    0.051375
  30 H :    0.055669
  31 H :    0.040993
  32 H :   -0.008318
  33 H :    0.067518
Sum of atomic charges:   -0.0000000

LOEWDIN ATOMIC CHARGES
----------------------
   0 S :    0.401887
   1 C :   -0.182765
   2 C :   -0.059312
   3 C :   -0.065246
   4 C :   -0.167681
   5 H :    0.028752
   6 C :   -0.019332
   7 H :    0.021498
   8 H :    0.032338
   9 C :   -0.047971
  10 H :    0.032871
  11 H :    0.018491
  12 C :   -0.071133
  13 H :    0.020359
  14 H :    0.027279
  15 H :    0.032482
  16 S :    0.413696
  17 C :   -0.195970
  18 C :   -0.067441
  19 C :   -0.054709
  20 C :   -0.198940
  21 H :    0.019475
  22 C :   -0.030363
  23 H :    0.024249
  24 H :    0.043788
  25 C :   -0.048453
  26 H :    0.025157
  27 H :    0.021408
  28 C :   -0.073063
  29 H :    0.038722
  30 H :    0.024996
  31 H :    0.026459
  32 H :   -0.002917
  33 H :    0.031389

  Mayer bond orders larger than 0.100000
B(  0-S ,  1-C ) :   1.1689 B(  0-S ,  4-C ) :   1.1370 B(  1-C ,  2-C ) :   1.5826
B(  1-C ,  4-C ) :   0.1048 B(  1-C , 32-H ) :   0.9864 B(  2-C ,  3-C ) :   1.2242
B(  2-C ,  6-C ) :   1.0109 B(  3-C ,  4-C ) :   1.5961 B(  3-C ,  5-H ) :   0.9974
B(  4-C , 20-C ) :   1.0378 B(  6-C ,  7-H ) :   0.9288 B(  6-C ,  8-H ) :   0.9489
B(  6-C ,  9-C ) :   1.0771 B(  9-C , 10-H ) :   0.9561 B(  9-C , 11-H ) :   0.9580
B(  9-C , 12-C ) :   1.0629 B( 12-C , 13-H ) :   0.9796 B( 12-C , 14-H ) :   0.9728
B( 12-C , 15-H ) :   0.9739 B( 16-S , 17-C ) :   1.1709 B( 16-S , 20-C ) :   1.1442
B( 17-C , 18-C ) :   1.5837 B( 17-C , 33-H ) :   0.9648 B( 18-C , 19-C ) :   1.2474
B( 18-C , 21-H ) :   1.0064 B( 19-C , 20-C ) :   1.5893 B( 19-C , 22-C ) :   1.0256
B( 22-C , 23-H ) :   0.9362 B( 22-C , 24-H ) :   0.9438 B( 22-C , 25-C ) :   1.0594
B( 25-C , 26-H ) :   0.9568 B( 25-C , 27-H ) :   0.9563 B( 25-C , 28-C ) :   1.0575
B( 28-C , 29-H ) :   0.9719 B( 28-C , 30-H ) :   0.9690 B( 28-C , 31-H ) :   0.9737

Dispersion correction           -0.014943854
FINAL SINGLE POINT ENERGY     -1339.862891214648

DIPOLE MOMENT
-------------
                                X             Y             Z
Electronic contribution:     -4.96429      13.64771      23.22774
Nuclear contribution   :      4.84073     -13.99043     -23.54736
                        -----------------------------------------
Total Dipole Moment    :     -0.12357      -0.34273      -0.31962
                        -----------------------------------------
Magnitude (a.u.)       :      0.48465
Magnitude (Debye)      :      1.23189

Rotational constants in cm-1:     0.019126     0.008984     0.007127
Rotational constants in MHz :   573.386686   269.336106   213.670224

                             ****ORCA TERMINATED NORMALLY****
TOTAL RUN TIME: 0 days 0 hours 0 minutes 20 seconds 980 msec
