                         Program Version 4.2.1 -  RELEASE  -
|  1> ! wB97X-D3 SP def2-SVP
|  2> %pal
|  3> nprocs 24
|  4> end
|  5>
|  6> * xyz 0 1
|  7> S 	 -3.37891 	 -25.4227 	 -109.98
|  8> C 	 -3.35593 	 -23.7906 	 -110.686
|  9> C 	 -2.72622 	 -22.8838 	 -109.819
| 10> C 	 -2.36551 	 -23.4699 	 -108.59
| 11> C 	 -2.75859 	 -24.7643 	 -108.474
| 12> H 	 -1.93272 	 -23.0532 	 -107.671
| 13> C 	 -2.22577 	 -21.5141 	 -110.281
| 14> H 	 -2.33637 	 -21.3036 	 -111.391
| 15> H 	 -1.19303 	 -21.5044 	 -110.113
| 16> C 	 -2.84082 	 -20.1995 	 -109.587
| 17> H 	 -2.70978 	 -20.397 	 -108.498
| 18> H 	 -2.28928 	 -19.3408 	 -109.84
| 19> C 	 -4.33112 	 -20.045 	 -109.964
| 20> H 	 -4.85141 	 -20.8569 	 -109.298
| 21> H 	 -4.46214 	 -19.0224 	 -109.741
| 22> H 	 -4.59073 	 -20.2264 	 -111.056
| 23> S 	 -1.17104 	 -26.4288 	 -106.938
| 24> C 	 -1.69264 	 -27.0091 	 -105.403
| 25> C 	 -3.01095 	 -26.6208 	 -105.171
| 26> C 	 -3.52556 	 -25.6696 	 -106.133
| 27> C 	 -2.63829 	 -25.5148 	 -107.205
| 28> H 	 -3.55421 	 -27.092 	 -104.357
| 29> C 	 -4.92519 	 -25.0845 	 -106.123
| 30> H 	 -4.89444 	 -24.1627 	 -106.689
| 31> H 	 -5.12171 	 -24.8418 	 -105.066
| 32> C 	 -6.16039 	 -25.8074 	 -106.918
| 33> H 	 -5.80925 	 -26.0982 	 -107.959
| 34> H 	 -7.00285 	 -25.145 	 -107.132
| 35> C 	 -6.51326 	 -27.0885 	 -106.13
| 36> H 	 -6.93349 	 -26.8382 	 -105.113
| 37> H 	 -5.70008 	 -27.8493 	 -106.125
| 38> H 	 -7.36512 	 -27.5079 	 -106.651
| 39> H 	 -3.69844 	 -23.488 	 -111.668
| 40> H 	 -1.41425 	 -27.9118 	 -104.978
| 41> *
| 42>
| 43>                          ****END OF INPUT****

CARTESIAN COORDINATES (ANGSTROEM)
---------------------------------
  S     -3.378910  -25.422700  -109.980000
  C     -3.355930  -23.790600  -110.686000
  C     -2.726220  -22.883800  -109.819000
  C     -2.365510  -23.469900  -108.590000
  C     -2.758590  -24.764300  -108.474000
  H     -1.932720  -23.053200  -107.671000
  C     -2.225770  -21.514100  -110.281000
  H     -2.336370  -21.303600  -111.391000
  H     -1.193030  -21.504400  -110.113000
  C     -2.840820  -20.199500  -109.587000
  H     -2.709780  -20.397000  -108.498000
  H     -2.289280  -19.340800  -109.840000
  C     -4.331120  -20.045000  -109.964000
  H     -4.851410  -20.856900  -109.298000
  H     -4.462140  -19.022400  -109.741000
  H     -4.590730  -20.226400  -111.056000
  S     -1.171040  -26.428800  -106.938000
  C     -1.692640  -27.009100  -105.403000
  C     -3.010950  -26.620800  -105.171000
  C     -3.525560  -25.669600  -106.133000
  C     -2.638290  -25.514800  -107.205000
  H     -3.554210  -27.092000  -104.357000
  C     -4.925190  -25.084500  -106.123000
  H     -4.894440  -24.162700  -106.689000
  H     -5.121710  -24.841800  -105.066000
  C     -6.160390  -25.807400  -106.918000
  H     -5.809250  -26.098200  -107.959000
  H     -7.002850  -25.145000  -107.132000
  C     -6.513260  -27.088500  -106.130000
  H     -6.933490  -26.838200  -105.113000
  H     -5.700080  -27.849300  -106.125000
  H     -7.365120  -27.507900  -106.651000
  H     -3.698440  -23.488000  -111.668000
  H     -1.414250  -27.911800  -104.978000

 Total Charge           Charge          ....    0
 Multiplicity           Mult            ....    1
 Number of Electrons    NEL             ....  134
 Basis Dimension        Dim             ....  322

ORBITAL ENERGIES
----------------

  NO   OCC          E(Eh)            E(eV)
   0   2.0000     -88.973230     -2421.0847
   1   2.0000     -88.964774     -2420.8546
   2   2.0000     -10.328992      -281.0661
   3   2.0000     -10.328097      -281.0418
   4   2.0000     -10.321379      -280.8590
   5   2.0000     -10.308046      -280.4962
   6   2.0000     -10.307774      -280.4888
   7   2.0000     -10.307730      -280.4876
   8   2.0000     -10.297403      -280.2066
   9   2.0000     -10.297373      -280.2058
  10   2.0000     -10.294860      -280.1374
  11   2.0000     -10.294550      -280.1289
  12   2.0000     -10.292503      -280.0732
  13   2.0000     -10.288862      -279.9742
  14   2.0000     -10.286065      -279.8980
  15   2.0000     -10.280121      -279.7363
  16   2.0000      -8.086856      -220.0545
  17   2.0000      -8.079889      -219.8650
  18   2.0000      -6.045363      -164.5027
  19   2.0000      -6.041612      -164.4006
  20   2.0000      -6.038324      -164.3112
  21   2.0000      -6.037572      -164.2907
  22   2.0000      -6.034170      -164.1981
  23   2.0000      -6.030874      -164.1084
  24   2.0000      -1.006773       -27.3957
  25   2.0000      -0.984697       -26.7950
  26   2.0000      -0.903074       -24.5739
  27   2.0000      -0.894527       -24.3413
  28   2.0000      -0.867542       -23.6070
  29   2.0000      -0.850461       -23.1422
  30   2.0000      -0.844464       -22.9790
  31   2.0000      -0.815557       -22.1924
  32   2.0000      -0.778178       -21.1753
  33   2.0000      -0.767733       -20.8911
  34   2.0000      -0.706988       -19.2381
  35   2.0000      -0.691748       -18.8234
  36   2.0000      -0.690333       -18.7849
  37   2.0000      -0.659335       -17.9414
  38   2.0000      -0.642225       -17.4758
  39   2.0000      -0.616977       -16.7888
  40   2.0000      -0.584690       -15.9102
  41   2.0000      -0.570689       -15.5292
  42   2.0000      -0.553412       -15.0591
  43   2.0000      -0.542419       -14.7600
  44   2.0000      -0.538074       -14.6417
  45   2.0000      -0.536641       -14.6027
  46   2.0000      -0.516936       -14.0665
  47   2.0000      -0.510232       -13.8841
  48   2.0000      -0.505506       -13.7555
  49   2.0000      -0.487077       -13.2540
  50   2.0000      -0.480946       -13.0872
  51   2.0000      -0.478584       -13.0229
  52   2.0000      -0.474824       -12.9206
  53   2.0000      -0.466598       -12.6968
  54   2.0000      -0.460772       -12.5382
  55   2.0000      -0.449092       -12.2204
  56   2.0000      -0.442832       -12.0501
  57   2.0000      -0.434907       -11.8344
  58   2.0000      -0.431770       -11.7491
  59   2.0000      -0.423023       -11.5110
  60   2.0000      -0.417873       -11.3709
  61   2.0000      -0.407415       -11.0863
  62   2.0000      -0.404906       -11.0180
  63   2.0000      -0.338929        -9.2227
  64   2.0000      -0.328420        -8.9368
  65   2.0000      -0.317212        -8.6318
  66   2.0000      -0.314022        -8.5450
  67   0.0000       0.041006         1.1158
  68   0.0000       0.045141         1.2283
  69   0.0000       0.107679         2.9301
  70   0.0000       0.113427         3.0865
  71   0.0000       0.128846         3.5061

MULLIKEN ATOMIC CHARGES
-----------------------
   0 S :    0.124562
   1 C :   -0.119758
   2 C :   -0.051226
   3 C :    0.044359
   4 C :   -0.173789
   5 H :    0.029943
   6 C :    0.026975
   7 H :    0.029295
   8 H :    0.026724
   9 C :   -0.091718
  10 H :    0.036266
  11 H :    0.024189
  12 C :   -0.074963
  13 H :    0.063832
  14 H :    0.035170
  15 H :    0.041293
  16 S :    0.110077
  17 C :   -0.051217
  18 C :   -0.082416
  19 C :   -0.014030
  20 C :   -0.204905
  21 H :    0.027756
  22 C :    0.054905
  23 H :    0.026097
  24 H :    0.032219
  25 C :   -0.082946
  26 H :    0.033436
  27 H :    0.040508
  28 C :   -0.066222
  29 H :    0.035305
  30 H :    0.052577
  31 H :    0.024288
  32 H :    0.047748
  33 H :    0.045668
Sum of atomic charges:   -0.0000000

LOEWDIN ATOMIC CHARGES
----------------------
   0 S :    0.399061
   1 C :   -0.185285
   2 C :   -0.063635
   3 C :   -0.059295
   4 C :   -0.197230
   5 H :    0.041952
   6 C :   -0.031401
   7 H :    0.031742
   8 H :    0.023302
   9 C :   -0.038132
  10 H :    0.026078
  11 H :    0.013089
  12 C :   -0.075194
  13 H :    0.044492
  14 H :    0.020655
  15 H :    0.028778
  16 S :    0.422547
  17 C :   -0.203699
  18 C :   -0.063484
  19 C :   -0.057679
  20 C :   -0.200519
  21 H :    0.031598
  22 C :   -0.038327
  23 H :    0.030532
  24 H :    0.031169
  25 C :   -0.035551
  26 H :    0.026213
  27 H :    0.025784
  28 C :   -0.076822
  29 H :    0.027979
  30 H :    0.031197
  31 H :    0.021461
  32 H :    0.028890
  33 H :    0.019736

  Mayer bond orders larger than 0.100000
B(  0-S ,  1-C ) :   1.1351 B(  0-S ,  4-C ) :   1.1390 B(  1-C ,  2-C ) :   1.6110
B(  1-C , 32-H ) :   0.9684 B(  2-C ,  3-C ) :   1.2133 B(  2-C ,  6-C ) :   1.0137
B(  3-C ,  4-C ) :   1.6162 B(  3-C ,  5-H ) :   0.9873 B(  4-C , 20-C ) :   1.0007
B(  6-C ,  7-H ) :   0.9540 B(  6-C ,  8-H ) :   0.9459 B(  6-C ,  9-C ) :   1.0622
B(  9-C , 10-H ) :   0.9606 B(  9-C , 11-H ) :   0.9637 B(  9-C , 12-C ) :   1.0547
B( 12-C , 13-H ) :   0.9747 B( 12-C , 14-H ) :   0.9775 B( 12-C , 15-H ) :   0.9778
B( 16-S , 17-C ) :   1.1610 B( 16-S , 20-C ) :   1.1707 B( 17-C , 18-C ) :   1.6135
B( 17-C , 20-C ) :   0.1006 B( 17-C , 33-H ) :   0.9612 B( 18-C , 19-C ) :   1.2399
B( 18-C , 21-H ) :   0.9849 B( 19-C , 20-C ) :   1.5775 B( 19-C , 22-C ) :   1.0593
B( 22-C , 23-H ) :   0.9269 B( 22-C , 24-H ) :   0.9395 B( 22-C , 25-C ) :   1.0467
B( 25-C , 26-H ) :   0.9519 B( 25-C , 27-H ) :   0.9605 B( 25-C , 28-C ) :   1.0732
B( 28-C , 29-H ) :   0.9756 B( 28-C , 30-H ) :   0.9746 B( 28-C , 31-H ) :   0.9735

Dispersion correction           -0.015121320
FINAL SINGLE POINT ENERGY     -1339.849542619455

DIPOLE MOMENT
-------------
                                X             Y             Z
Electronic contribution:     16.20030     -15.53208      -1.39164
Nuclear contribution   :    -16.48624      15.87019       1.35004
                        -----------------------------------------
Total Dipole Moment    :     -0.28594       0.33811      -0.04160
                        -----------------------------------------
Magnitude (a.u.)       :      0.44476
Magnitude (Debye)      :      1.13049

Rotational constants in cm-1:     0.019775     0.008215     0.007235
Rotational constants in MHz :   592.851884   246.265472   216.894032

                             ****ORCA TERMINATED NORMALLY****
TOTAL RUN TIME: 0 days 0 hours 0 minutes 20 seconds 734 msec
