                         Program Version 4.2.1 -  RELEASE  -
|  1> ! wB97X-D3 SP def2-SVP
|  2> %pal
|  3> nprocs 24
|  4> end
|  5>
|  6> * xyz 0 1
|  7> S 	 -58.2468 	 1.2385 	 -23.3655
|  8> C 	 -56.6653 	 0.549279 	 -24.0463
|  9> C 	 -55.7976 	 0.384023 	 -23.0102
| 10> C 	 -56.3662 	 0.643416 	 -21.7141
| 11> C 	 -57.6465 	 1.11941 	 -21.718
| 12> H 	 -55.8428 	 0.587712 	 -20.7781
| 13> C 	 -54.305 	 0.0125549 	 -23.2298
| 14> H 	 -54.248 	 -1.01592 	 -23.6842
| 15> H 	 -53.9866 	 -0.0997993 	 -22.2264
| 16> C 	 -53.5143 	 1.10906 	 -23.8913
| 17> H 	 -52.5294 	 0.818451 	 -24.224
| 18> H 	 -54.1468 	 1.42377 	 -24.6623
| 19> C 	 -53.4909 	 2.37836 	 -23.0064
| 20> H 	 -53.1115 	 1.96569 	 -22.107
| 21> H 	 -52.833 	 3.10998 	 -23.361
| 22> H 	 -54.523 	 2.86043 	 -22.8316
| 23> S 	 -59.5382 	 2.97904 	 -20.7572
| 24> C 	 -59.8281 	 3.12012 	 -19.0226
| 25> C 	 -59.282 	 2.07246 	 -18.4209
| 26> C 	 -58.3525 	 1.31585 	 -19.2152
| 27> C 	 -58.4297 	 1.64997 	 -20.5501
| 28> H 	 -59.4494 	 1.76894 	 -17.3936
| 29> C 	 -57.4771 	 0.228145 	 -18.5872
| 30> H 	 -57.3691 	 -0.539449 	 -19.3061
| 31> H 	 -58.1195 	 -0.196781 	 -17.7649
| 32> C 	 -56.1696 	 0.776752 	 -18.017
| 33> H 	 -56.4411 	 1.27526 	 -17.1133
| 34> H 	 -55.6617 	 1.55882 	 -18.6661
| 35> C 	 -55.1435 	 -0.423017 	 -17.8374
| 36> H 	 -54.2157 	 -0.0999237 	 -17.3835
| 37> H 	 -54.8729 	 -0.837931 	 -18.8564
| 38> H 	 -55.539 	 -1.25965 	 -17.2398
| 39> H 	 -56.4163 	 0.230165 	 -24.992
| 40> H 	 -60.6555 	 3.71691 	 -18.5894
| 41> *
| 42>
| 43>                          ****END OF INPUT****

CARTESIAN COORDINATES (ANGSTROEM)
---------------------------------
  S    -58.246800    1.238500  -23.365500
  C    -56.665300    0.549279  -24.046300
  C    -55.797600    0.384023  -23.010200
  C    -56.366200    0.643416  -21.714100
  C    -57.646500    1.119410  -21.718000
  H    -55.842800    0.587712  -20.778100
  C    -54.305000    0.012555  -23.229800
  H    -54.248000   -1.015920  -23.684200
  H    -53.986600   -0.099799  -22.226400
  C    -53.514300    1.109060  -23.891300
  H    -52.529400    0.818451  -24.224000
  H    -54.146800    1.423770  -24.662300
  C    -53.490900    2.378360  -23.006400
  H    -53.111500    1.965690  -22.107000
  H    -52.833000    3.109980  -23.361000
  H    -54.523000    2.860430  -22.831600
  S    -59.538200    2.979040  -20.757200
  C    -59.828100    3.120120  -19.022600
  C    -59.282000    2.072460  -18.420900
  C    -58.352500    1.315850  -19.215200
  C    -58.429700    1.649970  -20.550100
  H    -59.449400    1.768940  -17.393600
  C    -57.477100    0.228145  -18.587200
  H    -57.369100   -0.539449  -19.306100
  H    -58.119500   -0.196781  -17.764900
  C    -56.169600    0.776752  -18.017000
  H    -56.441100    1.275260  -17.113300
  H    -55.661700    1.558820  -18.666100
  C    -55.143500   -0.423017  -17.837400
  H    -54.215700   -0.099924  -17.383500
  H    -54.872900   -0.837931  -18.856400
  H    -55.539000   -1.259650  -17.239800
  H    -56.416300    0.230165  -24.992000
  H    -60.655500    3.716910  -18.589400

 Total Charge           Charge          ....    0
 Multiplicity           Mult            ....    1
 Number of Electrons    NEL             ....  134
 Basis Dimension        Dim             ....  322

ORBITAL ENERGIES
----------------

  NO   OCC          E(Eh)            E(eV)
   0   2.0000     -88.967055     -2420.9167
   1   2.0000     -88.963302     -2420.8145
   2   2.0000     -10.337616      -281.3008
   3   2.0000     -10.332439      -281.1600
   4   2.0000     -10.317244      -280.7465
   5   2.0000     -10.314920      -280.6832
   6   2.0000     -10.303387      -280.3694
   7   2.0000     -10.301175      -280.3092
   8   2.0000     -10.297468      -280.2083
   9   2.0000     -10.294833      -280.1367
  10   2.0000     -10.293871      -280.1105
  11   2.0000     -10.293163      -280.0912
  12   2.0000     -10.291355      -280.0420
  13   2.0000     -10.290224      -280.0112
  14   2.0000     -10.279871      -279.7295
  15   2.0000     -10.273102      -279.5453
  16   2.0000      -8.080096      -219.8706
  17   2.0000      -8.078281      -219.8212
  18   2.0000      -6.038995      -164.3294
  19   2.0000      -6.036980      -164.2746
  20   2.0000      -6.034900      -164.2180
  21   2.0000      -6.032834      -164.1618
  22   2.0000      -6.030459      -164.0971
  23   2.0000      -6.028718      -164.0498
  24   2.0000      -1.007634       -27.4191
  25   2.0000      -0.983695       -26.7677
  26   2.0000      -0.918350       -24.9896
  27   2.0000      -0.909203       -24.7407
  28   2.0000      -0.870308       -23.6823
  29   2.0000      -0.846269       -23.0282
  30   2.0000      -0.837949       -22.8017
  31   2.0000      -0.821202       -22.3460
  32   2.0000      -0.781583       -21.2679
  33   2.0000      -0.774316       -21.0702
  34   2.0000      -0.712094       -19.3771
  35   2.0000      -0.705503       -19.1977
  36   2.0000      -0.696260       -18.9462
  37   2.0000      -0.663804       -18.0630
  38   2.0000      -0.639912       -17.4129
  39   2.0000      -0.614745       -16.7280
  40   2.0000      -0.596341       -16.2273
  41   2.0000      -0.580816       -15.8048
  42   2.0000      -0.563762       -15.3408
  43   2.0000      -0.557424       -15.1683
  44   2.0000      -0.544764       -14.8238
  45   2.0000      -0.525524       -14.3002
  46   2.0000      -0.522080       -14.2065
  47   2.0000      -0.512998       -13.9594
  48   2.0000      -0.504408       -13.7256
  49   2.0000      -0.497284       -13.5318
  50   2.0000      -0.486294       -13.2327
  51   2.0000      -0.477306       -12.9881
  52   2.0000      -0.471228       -12.8228
  53   2.0000      -0.466264       -12.6877
  54   2.0000      -0.455430       -12.3929
  55   2.0000      -0.450513       -12.2591
  56   2.0000      -0.449067       -12.2197
  57   2.0000      -0.443894       -12.0790
  58   2.0000      -0.437407       -11.9024
  59   2.0000      -0.429623       -11.6906
  60   2.0000      -0.417731       -11.3671
  61   2.0000      -0.411513       -11.1978
  62   2.0000      -0.404719       -11.0130
  63   2.0000      -0.362096        -9.8531
  64   2.0000      -0.333346        -9.0708
  65   2.0000      -0.328045        -8.9266
  66   2.0000      -0.294411        -8.0113
  67   0.0000       0.023608         0.6424
  68   0.0000       0.074939         2.0392
  69   0.0000       0.099478         2.7069
  70   0.0000       0.122161         3.3242
  71   0.0000       0.128543         3.4978

MULLIKEN ATOMIC CHARGES
-----------------------
   0 S :    0.082984
   1 C :   -0.080118
   2 C :   -0.135343
   3 C :    0.027215
   4 C :   -0.105667
   5 H :   -0.025822
   6 C :    0.075410
   7 H :    0.050010
   8 H :   -0.004271
   9 C :   -0.015133
  10 H :    0.035194
  11 H :    0.009615
  12 C :   -0.066258
  13 H :    0.009197
  14 H :    0.027279
  15 H :    0.069314
  16 S :    0.084967
  17 C :   -0.084073
  18 C :   -0.009186
  19 C :   -0.115529
  20 C :   -0.102710
  21 H :    0.014419
  22 C :    0.054028
  23 H :    0.021916
  24 H :    0.032736
  25 C :   -0.071386
  26 H :    0.023424
  27 H :    0.055721
  28 C :   -0.066007
  29 H :    0.037102
  30 H :    0.038560
  31 H :    0.039581
  32 H :    0.017093
  33 H :    0.075736
Sum of atomic charges:    0.0000000

LOEWDIN ATOMIC CHARGES
----------------------
   0 S :    0.356881
   1 C :   -0.155969
   2 C :   -0.054570
   3 C :   -0.074392
   4 C :   -0.171209
   5 H :    0.026314
   6 C :   -0.028600
   7 H :    0.039220
   8 H :    0.015940
   9 C :   -0.034152
  10 H :    0.024847
  11 H :    0.016435
  12 C :   -0.057887
  13 H :    0.014334
  14 H :    0.017252
  15 H :    0.043387
  16 S :    0.391673
  17 C :   -0.184367
  18 C :   -0.070436
  19 C :   -0.061329
  20 C :   -0.192339
  21 H :    0.030292
  22 C :   -0.031330
  23 H :    0.020947
  24 H :    0.038233
  25 C :   -0.039908
  26 H :    0.021060
  27 H :    0.032115
  28 C :   -0.068716
  29 H :    0.022806
  30 H :    0.028874
  31 H :    0.026819
  32 H :    0.016008
  33 H :    0.041767

  Mayer bond orders larger than 0.100000
B(  0-S ,  1-C ) :   1.0946 B(  0-S ,  4-C ) :   1.1333 B(  1-C ,  2-C ) :   1.6603
B(  1-C , 32-H ) :   0.9743 B(  2-C ,  3-C ) :   1.2172 B(  2-C ,  6-C ) :   0.9958
B(  3-C ,  4-C ) :   1.6042 B(  3-C ,  5-H ) :   0.9894 B(  4-C , 20-C ) :   1.0276
B(  6-C ,  7-H ) :   0.9400 B(  6-C ,  8-H ) :   0.9431 B(  6-C ,  9-C ) :   1.0659
B(  9-C , 10-H ) :   0.9580 B(  9-C , 11-H ) :   0.9557 B(  9-C , 12-C ) :   1.0628
B( 12-C , 13-H ) :   0.9805 B( 12-C , 14-H ) :   0.9741 B( 12-C , 15-H ) :   0.9720
B( 16-S , 17-C ) :   1.1295 B( 16-S , 20-C ) :   1.1316 B( 17-C , 18-C ) :   1.6346
B( 17-C , 33-H ) :   0.9580 B( 18-C , 19-C ) :   1.2454 B( 18-C , 21-H ) :   0.9824
B( 19-C , 20-C ) :   1.6190 B( 19-C , 22-C ) :   1.0372 B( 22-C , 23-H ) :   0.9447
B( 22-C , 24-H ) :   0.9321 B( 22-C , 25-C ) :   1.0385 B( 25-C , 26-H ) :   0.9517
B( 25-C , 27-H ) :   0.9604 B( 25-C , 28-C ) :   1.0673 B( 28-C , 29-H ) :   0.9761
B( 28-C , 30-H ) :   0.9767 B( 28-C , 31-H ) :   0.9744

Dispersion correction           -0.015055837
FINAL SINGLE POINT ENERGY     -1339.861792681818

DIPOLE MOMENT
-------------
                                X             Y             Z
Electronic contribution:    -25.91128       7.67508      -8.69201
Nuclear contribution   :     26.46448      -7.97710       9.17233
                        -----------------------------------------
Total Dipole Moment    :      0.55320      -0.30202       0.48032
                        -----------------------------------------
Magnitude (a.u.)       :      0.79244
Magnitude (Debye)      :      2.01421

Rotational constants in cm-1:     0.017616     0.009861     0.007244
Rotational constants in MHz :   528.106003   295.630692   217.158842

                             ****ORCA TERMINATED NORMALLY****
TOTAL RUN TIME: 0 days 0 hours 0 minutes 22 seconds 529 msec
