                         Program Version 4.2.1 -  RELEASE  -
|  1> ! wB97X-D3 SP def2-SVP
|  2> %pal
|  3> nprocs 24
|  4> end
|  5>
|  6> * xyz 0 1
|  7> S 	 -65.6115 	 19.6812 	 -115.839
|  8> C 	 -65.3284 	 20.4077 	 -117.422
|  9> C 	 -64.0977 	 20.9851 	 -117.511
| 10> C 	 -63.4074 	 20.8856 	 -116.284
| 11> C 	 -64.0997 	 20.2932 	 -115.28
| 12> H 	 -62.4232 	 21.1799 	 -116.08
| 13> C 	 -63.5257 	 21.669 	 -118.771
| 14> H 	 -64.3913 	 21.6754 	 -119.502
| 15> H 	 -62.6963 	 21.015 	 -119.085
| 16> C 	 -63.0668 	 23.086 	 -118.441
| 17> H 	 -63.8752 	 23.5682 	 -117.939
| 18> H 	 -62.3179 	 23.037 	 -117.689
| 19> C 	 -62.7625 	 23.9861 	 -119.64
| 20> H 	 -61.7995 	 23.8972 	 -120.145
| 21> H 	 -63.4879 	 23.7452 	 -120.459
| 22> H 	 -62.789 	 24.9873 	 -119.306
| 23> S 	 -63.935 	 18.4255 	 -113.382
| 24> C 	 -62.9123 	 18.7108 	 -112.006
| 25> C 	 -62.2713 	 19.9694 	 -112.035
| 26> C 	 -62.6933 	 20.7086 	 -113.181
| 27> C 	 -63.5528 	 19.9973 	 -113.988
| 28> H 	 -61.7405 	 20.3395 	 -111.163
| 29> C 	 -62.3891 	 22.1759 	 -113.313
| 30> H 	 -61.7761 	 22.3106 	 -114.198
| 31> H 	 -61.8091 	 22.4874 	 -112.467
| 32> C 	 -63.6215 	 23.0881 	 -113.254
| 33> H 	 -64.0488 	 23.0629 	 -112.298
| 34> H 	 -64.4334 	 22.7112 	 -113.879
| 35> C 	 -63.4113 	 24.5341 	 -113.637
| 36> H 	 -63.2363 	 24.5642 	 -114.759
| 37> H 	 -62.5716 	 25.005 	 -113.161
| 38> H 	 -64.3762 	 25.0434 	 -113.514
| 39> H 	 -65.9129 	 20.2191 	 -118.3
| 40> H 	 -62.9706 	 18.0081 	 -111.213
| 41> *
| 42>
| 43>                          ****END OF INPUT****

CARTESIAN COORDINATES (ANGSTROEM)
---------------------------------
  S    -65.611500   19.681200  -115.839000
  C    -65.328400   20.407700  -117.422000
  C    -64.097700   20.985100  -117.511000
  C    -63.407400   20.885600  -116.284000
  C    -64.099700   20.293200  -115.280000
  H    -62.423200   21.179900  -116.080000
  C    -63.525700   21.669000  -118.771000
  H    -64.391300   21.675400  -119.502000
  H    -62.696300   21.015000  -119.085000
  C    -63.066800   23.086000  -118.441000
  H    -63.875200   23.568200  -117.939000
  H    -62.317900   23.037000  -117.689000
  C    -62.762500   23.986100  -119.640000
  H    -61.799500   23.897200  -120.145000
  H    -63.487900   23.745200  -120.459000
  H    -62.789000   24.987300  -119.306000
  S    -63.935000   18.425500  -113.382000
  C    -62.912300   18.710800  -112.006000
  C    -62.271300   19.969400  -112.035000
  C    -62.693300   20.708600  -113.181000
  C    -63.552800   19.997300  -113.988000
  H    -61.740500   20.339500  -111.163000
  C    -62.389100   22.175900  -113.313000
  H    -61.776100   22.310600  -114.198000
  H    -61.809100   22.487400  -112.467000
  C    -63.621500   23.088100  -113.254000
  H    -64.048800   23.062900  -112.298000
  H    -64.433400   22.711200  -113.879000
  C    -63.411300   24.534100  -113.637000
  H    -63.236300   24.564200  -114.759000
  H    -62.571600   25.005000  -113.161000
  H    -64.376200   25.043400  -113.514000
  H    -65.912900   20.219100  -118.300000
  H    -62.970600   18.008100  -111.213000

 Total Charge           Charge          ....    0
 Multiplicity           Mult            ....    1
 Number of Electrons    NEL             ....  134
 Basis Dimension        Dim             ....  322

ORBITAL ENERGIES
----------------

  NO   OCC          E(Eh)            E(eV)
   0   2.0000     -88.965861     -2420.8842
   1   2.0000     -88.965431     -2420.8724
   2   2.0000     -10.321183      -280.8537
   3   2.0000     -10.319647      -280.8119
   4   2.0000     -10.316701      -280.7317
   5   2.0000     -10.308378      -280.5052
   6   2.0000     -10.300643      -280.2947
   7   2.0000     -10.300297      -280.2853
   8   2.0000     -10.299203      -280.2556
   9   2.0000     -10.296973      -280.1949
  10   2.0000     -10.288016      -279.9512
  11   2.0000     -10.282465      -279.8001
  12   2.0000     -10.282020      -279.7880
  13   2.0000     -10.278818      -279.7008
  14   2.0000     -10.277644      -279.6689
  15   2.0000     -10.274658      -279.5877
  16   2.0000      -8.081529      -219.9096
  17   2.0000      -8.080476      -219.8809
  18   2.0000      -6.039792      -164.3511
  19   2.0000      -6.038996      -164.3294
  20   2.0000      -6.035890      -164.2449
  21   2.0000      -6.035054      -164.2222
  22   2.0000      -6.032521      -164.1532
  23   2.0000      -6.031116      -164.1150
  24   2.0000      -1.015400       -27.6304
  25   2.0000      -0.987779       -26.8788
  26   2.0000      -0.914904       -24.8958
  27   2.0000      -0.911999       -24.8167
  28   2.0000      -0.873006       -23.7557
  29   2.0000      -0.858026       -23.3481
  30   2.0000      -0.847375       -23.0582
  31   2.0000      -0.814373       -22.1602
  32   2.0000      -0.784480       -21.3468
  33   2.0000      -0.774314       -21.0702
  34   2.0000      -0.710638       -19.3374
  35   2.0000      -0.699908       -19.0455
  36   2.0000      -0.690776       -18.7970
  37   2.0000      -0.672061       -18.2877
  38   2.0000      -0.641909       -17.4672
  39   2.0000      -0.621911       -16.9230
  40   2.0000      -0.597967       -16.2715
  41   2.0000      -0.569941       -15.5089
  42   2.0000      -0.567524       -15.4431
  43   2.0000      -0.559527       -15.2255
  44   2.0000      -0.532414       -14.4877
  45   2.0000      -0.529138       -14.3986
  46   2.0000      -0.515582       -14.0297
  47   2.0000      -0.510512       -13.8917
  48   2.0000      -0.505943       -13.7674
  49   2.0000      -0.498439       -13.5632
  50   2.0000      -0.496562       -13.5121
  51   2.0000      -0.488863       -13.3026
  52   2.0000      -0.477099       -12.9825
  53   2.0000      -0.465654       -12.6711
  54   2.0000      -0.455885       -12.4053
  55   2.0000      -0.452648       -12.3172
  56   2.0000      -0.444933       -12.1072
  57   2.0000      -0.440244       -11.9797
  58   2.0000      -0.430205       -11.7065
  59   2.0000      -0.426894       -11.6164
  60   2.0000      -0.423677       -11.5288
  61   2.0000      -0.416796       -11.3416
  62   2.0000      -0.411987       -11.2107
  63   2.0000      -0.351347        -9.5606
  64   2.0000      -0.335957        -9.1418
  65   2.0000      -0.331738        -9.0270
  66   2.0000      -0.285649        -7.7729
  67   0.0000       0.025583         0.6961
  68   0.0000       0.078166         2.1270
  69   0.0000       0.104551         2.8450
  70   0.0000       0.124336         3.3834
  71   0.0000       0.131059         3.5663

MULLIKEN ATOMIC CHARGES
-----------------------
   0 S :    0.096799
   1 C :   -0.122161
   2 C :   -0.088347
   3 C :    0.010321
   4 C :   -0.118224
   5 H :   -0.017312
   6 C :    0.083191
   7 H :    0.024482
   8 H :    0.048751
   9 C :   -0.080119
  10 H :    0.025252
  11 H :    0.020977
  12 C :   -0.025291
  13 H :    0.027510
  14 H :    0.031357
  15 H :    0.029710
  16 S :    0.108030
  17 C :   -0.096732
  18 C :   -0.026265
  19 C :   -0.058374
  20 C :   -0.145899
  21 H :    0.027412
  22 C :    0.101323
  23 H :    0.022186
  24 H :    0.006360
  25 C :   -0.067658
  26 H :    0.011520
  27 H :    0.034282
  28 C :   -0.049161
  29 H :    0.028417
  30 H :    0.031575
  31 H :    0.039569
  32 H :    0.038297
  33 H :    0.048221
Sum of atomic charges:    0.0000000

LOEWDIN ATOMIC CHARGES
----------------------
   0 S :    0.397892
   1 C :   -0.195773
   2 C :   -0.059109
   3 C :   -0.063781
   4 C :   -0.196557
   5 H :    0.019946
   6 C :   -0.025345
   7 H :    0.032989
   8 H :    0.035687
   9 C :   -0.041914
  10 H :    0.026556
  11 H :    0.017888
  12 C :   -0.064192
  13 H :    0.023700
  14 H :    0.031972
  15 H :    0.023142
  16 S :    0.423172
  17 C :   -0.180924
  18 C :   -0.065908
  19 C :   -0.059068
  20 C :   -0.201830
  21 H :    0.034996
  22 C :   -0.027422
  23 H :    0.026108
  24 H :    0.027716
  25 C :   -0.039955
  26 H :    0.016974
  27 H :    0.027386
  28 C :   -0.064786
  29 H :    0.029033
  30 H :    0.018727
  31 H :    0.032098
  32 H :    0.024269
  33 H :    0.016316

  Mayer bond orders larger than 0.100000
B(  0-S ,  1-C ) :   1.1180 B(  0-S ,  4-C ) :   1.1381 B(  1-C ,  2-C ) :   1.6484
B(  1-C , 32-H ) :   0.9630 B(  2-C ,  3-C ) :   1.2240 B(  2-C ,  6-C ) :   1.0111
B(  3-C ,  4-C ) :   1.5819 B(  3-C ,  5-H ) :   1.0057 B(  4-C , 20-C ) :   1.0607
B(  6-C ,  7-H ) :   0.9393 B(  6-C ,  8-H ) :   0.9345 B(  6-C ,  9-C ) :   1.0696
B(  9-C , 10-H ) :   0.9558 B(  9-C , 11-H ) :   0.9519 B(  9-C , 12-C ) :   1.0807
B( 12-C , 13-H ) :   0.9744 B( 12-C , 14-H ) :   0.9728 B( 12-C , 15-H ) :   0.9762
B( 16-S , 17-C ) :   1.1767 B( 16-S , 20-C ) :   1.1503 B( 17-C , 18-C ) :   1.5705
B( 17-C , 20-C ) :   0.1061 B( 17-C , 33-H ) :   0.9747 B( 18-C , 19-C ) :   1.2624
B( 18-C , 21-H ) :   0.9891 B( 19-C , 20-C ) :   1.5791 B( 19-C , 22-C ) :   1.0495
B( 22-C , 23-H ) :   0.9285 B( 22-C , 24-H ) :   0.9280 B( 22-C , 25-C ) :   1.0606
B( 25-C , 26-H ) :   0.9509 B( 25-C , 27-H ) :   0.9557 B( 25-C , 28-C ) :   1.0921
B( 28-C , 29-H ) :   0.9741 B( 28-C , 30-H ) :   0.9751 B( 28-C , 31-H ) :   0.9704

Dispersion correction           -0.014801904
FINAL SINGLE POINT ENERGY     -1339.883602826511

DIPOLE MOMENT
-------------
                                X             Y             Z
Electronic contribution:     -9.25905     -27.91127      10.98800
Nuclear contribution   :      9.58103      28.37464     -11.04947
                        -----------------------------------------
Total Dipole Moment    :      0.32198       0.46338      -0.06147
                        -----------------------------------------
Magnitude (a.u.)       :      0.56760
Magnitude (Debye)      :      1.44272

Rotational constants in cm-1:     0.018951     0.009456     0.007166
Rotational constants in MHz :   568.133557   283.469404   214.836650

                             ****ORCA TERMINATED NORMALLY****
TOTAL RUN TIME: 0 days 0 hours 0 minutes 21 seconds 462 msec
