                         Program Version 4.2.1 -  RELEASE  -
|  1> ! wB97X-D3 SP def2-SVP
|  2> %pal
|  3> nprocs 24
|  4> end
|  5>
|  6> * xyz 0 1
|  7> S 	 -64.6291 	 10.9444 	 -20.2169
|  8> C 	 -65.709 	 10.0175 	 -19.1398
|  9> C 	 -65.0161 	 9.18137 	 -18.2467
| 10> C 	 -63.6268 	 9.22163 	 -18.4349
| 11> C 	 -63.2453 	 10.0923 	 -19.4809
| 12> H 	 -62.9058 	 8.64932 	 -17.9443
| 13> C 	 -65.5408 	 8.08375 	 -17.3748
| 14> H 	 -65.0571 	 7.17105 	 -17.5921
| 15> H 	 -66.5998 	 7.80371 	 -17.6443
| 16> C 	 -65.4618 	 8.30347 	 -15.769
| 17> H 	 -64.3509 	 8.11333 	 -15.574
| 18> H 	 -65.6448 	 9.3367 	 -15.4388
| 19> C 	 -66.2813 	 7.34828 	 -14.8933
| 20> H 	 -65.9619 	 7.29556 	 -13.8944
| 21> H 	 -67.3279 	 7.73162 	 -14.9868
| 22> H 	 -66.2321 	 6.27823 	 -15.1592
| 23> S 	 -61.6286 	 10.4801 	 -21.7766
| 24> C 	 -59.8798 	 10.5743 	 -21.5006
| 25> C 	 -59.5111 	 10.6865 	 -20.1829
| 26> C 	 -60.6273 	 10.4305 	 -19.2942
| 27> C 	 -61.8619 	 10.3761 	 -20.0154
| 28> H 	 -58.5056 	 10.8135 	 -19.8627
| 29> C 	 -60.4899 	 10.47 	 -17.7814
| 30> H 	 -61.4466 	 10.2549 	 -17.3069
| 31> H 	 -60.4158 	 11.562 	 -17.6808
| 32> C 	 -59.392 	 9.56461 	 -17.1941
| 33> H 	 -59.3564 	 9.79839 	 -16.1373
| 34> H 	 -58.393 	 9.66545 	 -17.6828
| 35> C 	 -59.7983 	 8.07094 	 -17.3474
| 36> H 	 -59.0147 	 7.37511 	 -17.0949
| 37> H 	 -59.9301 	 7.93985 	 -18.4233
| 38> H 	 -60.6992 	 7.71168 	 -16.8746
| 39> H 	 -66.783 	 10.1239 	 -19.1462
| 40> H 	 -59.218 	 10.9389 	 -22.2856
| 41> *
| 42>
| 43>                          ****END OF INPUT****

CARTESIAN COORDINATES (ANGSTROEM)
---------------------------------
  S    -64.629100   10.944400  -20.216900
  C    -65.709000   10.017500  -19.139800
  C    -65.016100    9.181370  -18.246700
  C    -63.626800    9.221630  -18.434900
  C    -63.245300   10.092300  -19.480900
  H    -62.905800    8.649320  -17.944300
  C    -65.540800    8.083750  -17.374800
  H    -65.057100    7.171050  -17.592100
  H    -66.599800    7.803710  -17.644300
  C    -65.461800    8.303470  -15.769000
  H    -64.350900    8.113330  -15.574000
  H    -65.644800    9.336700  -15.438800
  C    -66.281300    7.348280  -14.893300
  H    -65.961900    7.295560  -13.894400
  H    -67.327900    7.731620  -14.986800
  H    -66.232100    6.278230  -15.159200
  S    -61.628600   10.480100  -21.776600
  C    -59.879800   10.574300  -21.500600
  C    -59.511100   10.686500  -20.182900
  C    -60.627300   10.430500  -19.294200
  C    -61.861900   10.376100  -20.015400
  H    -58.505600   10.813500  -19.862700
  C    -60.489900   10.470000  -17.781400
  H    -61.446600   10.254900  -17.306900
  H    -60.415800   11.562000  -17.680800
  C    -59.392000    9.564610  -17.194100
  H    -59.356400    9.798390  -16.137300
  H    -58.393000    9.665450  -17.682800
  C    -59.798300    8.070940  -17.347400
  H    -59.014700    7.375110  -17.094900
  H    -59.930100    7.939850  -18.423300
  H    -60.699200    7.711680  -16.874600
  H    -66.783000   10.123900  -19.146200
  H    -59.218000   10.938900  -22.285600

 Total Charge           Charge          ....    0
 Multiplicity           Mult            ....    1
 Number of Electrons    NEL             ....  134
 Basis Dimension        Dim             ....  322

ORBITAL ENERGIES
----------------

  NO   OCC          E(Eh)            E(eV)
   0   2.0000     -88.971290     -2421.0319
   1   2.0000     -88.968091     -2420.9448
   2   2.0000     -10.338058      -281.3129
   3   2.0000     -10.333754      -281.1957
   4   2.0000     -10.319220      -280.8002
   5   2.0000     -10.318828      -280.7896
   6   2.0000     -10.309913      -280.5470
   7   2.0000     -10.302998      -280.3588
   8   2.0000     -10.299160      -280.2544
   9   2.0000     -10.297384      -280.2061
  10   2.0000     -10.297161      -280.2000
  11   2.0000     -10.296829      -280.1910
  12   2.0000     -10.294404      -280.1250
  13   2.0000     -10.291211      -280.0381
  14   2.0000     -10.281599      -279.7765
  15   2.0000     -10.276785      -279.6455
  16   2.0000      -8.084721      -219.9964
  17   2.0000      -8.081929      -219.9205
  18   2.0000      -6.043219      -164.4443
  19   2.0000      -6.040512      -164.3707
  20   2.0000      -6.039490      -164.3429
  21   2.0000      -6.036751      -164.2683
  22   2.0000      -6.035508      -164.2345
  23   2.0000      -6.032481      -164.1522
  24   2.0000      -0.995002       -27.0754
  25   2.0000      -0.975788       -26.5525
  26   2.0000      -0.909863       -24.7586
  27   2.0000      -0.901072       -24.5194
  28   2.0000      -0.861637       -23.4463
  29   2.0000      -0.851029       -23.1577
  30   2.0000      -0.846289       -23.0287
  31   2.0000      -0.812107       -22.0985
  32   2.0000      -0.783100       -21.3092
  33   2.0000      -0.769104       -20.9284
  34   2.0000      -0.708502       -19.2793
  35   2.0000      -0.697758       -18.9870
  36   2.0000      -0.692528       -18.8447
  37   2.0000      -0.656706       -17.8699
  38   2.0000      -0.641888       -17.4667
  39   2.0000      -0.622392       -16.9362
  40   2.0000      -0.596693       -16.2368
  41   2.0000      -0.566314       -15.4102
  42   2.0000      -0.556163       -15.1340
  43   2.0000      -0.554027       -15.0758
  44   2.0000      -0.542113       -14.7516
  45   2.0000      -0.521762       -14.1979
  46   2.0000      -0.517080       -14.0705
  47   2.0000      -0.508089       -13.8258
  48   2.0000      -0.498818       -13.5735
  49   2.0000      -0.491834       -13.3835
  50   2.0000      -0.482995       -13.1430
  51   2.0000      -0.474847       -12.9212
  52   2.0000      -0.469335       -12.7713
  53   2.0000      -0.464158       -12.6304
  54   2.0000      -0.461035       -12.5454
  55   2.0000      -0.452703       -12.3187
  56   2.0000      -0.445727       -12.1288
  57   2.0000      -0.442924       -12.0526
  58   2.0000      -0.437029       -11.8922
  59   2.0000      -0.432016       -11.7557
  60   2.0000      -0.426820       -11.6144
  61   2.0000      -0.412065       -11.2129
  62   2.0000      -0.407256       -11.0820
  63   2.0000      -0.347975        -9.4689
  64   2.0000      -0.335858        -9.1391
  65   2.0000      -0.328656        -8.9432
  66   2.0000      -0.282367        -7.6836
  67   0.0000       0.021569         0.5869
  68   0.0000       0.067203         1.8287
  69   0.0000       0.101009         2.7486
  70   0.0000       0.115971         3.1557
  71   0.0000       0.127155         3.4601

MULLIKEN ATOMIC CHARGES
-----------------------
   0 S :    0.102296
   1 C :   -0.120307
   2 C :   -0.026175
   3 C :    0.046824
   4 C :   -0.147609
   5 H :   -0.022883
   6 C :    0.027866
   7 H :    0.025322
   8 H :    0.019941
   9 C :   -0.107894
  10 H :    0.026793
  11 H :    0.042982
  12 C :   -0.043514
  13 H :    0.028584
  14 H :    0.045048
  15 H :    0.028329
  16 S :    0.097647
  17 C :   -0.085197
  18 C :   -0.020498
  19 C :   -0.094114
  20 C :   -0.129299
  21 H :    0.015532
  22 C :    0.051296
  23 H :    0.016491
  24 H :    0.052155
  25 C :   -0.051996
  26 H :    0.036570
  27 H :    0.043321
  28 C :   -0.074018
  29 H :    0.032332
  30 H :    0.037769
  31 H :    0.035802
  32 H :    0.045447
  33 H :    0.065158
Sum of atomic charges:   -0.0000000

LOEWDIN ATOMIC CHARGES
----------------------
   0 S :    0.382743
   1 C :   -0.186171
   2 C :   -0.061893
   3 C :   -0.055465
   4 C :   -0.170651
   5 H :    0.019729
   6 C :   -0.032139
   7 H :    0.026948
   8 H :    0.029953
   9 C :   -0.043389
  10 H :    0.022951
  11 H :    0.026111
  12 C :   -0.071019
  13 H :    0.021729
  14 H :    0.033104
  15 H :    0.027512
  16 S :    0.381216
  17 C :   -0.179492
  18 C :   -0.063777
  19 C :   -0.051465
  20 C :   -0.200942
  21 H :    0.027894
  22 C :   -0.038552
  23 H :    0.030634
  24 H :    0.043658
  25 C :   -0.034439
  26 H :    0.025064
  27 H :    0.030002
  28 C :   -0.069441
  29 H :    0.025336
  30 H :    0.029620
  31 H :    0.020166
  32 H :    0.024806
  33 H :    0.029660

  Mayer bond orders larger than 0.100000
B(  0-S ,  1-C ) :   1.1308 B(  0-S ,  4-C ) :   1.1560 B(  1-C ,  2-C ) :   1.5977
B(  1-C ,  4-C ) :   0.1045 B(  1-C , 32-H ) :   0.9676 B(  2-C ,  3-C ) :   1.2465
B(  2-C ,  6-C ) :   1.0268 B(  3-C ,  4-C ) :   1.5600 B(  3-C ,  5-H ) :   0.9973
B(  4-C , 20-C ) :   1.0269 B(  6-C ,  7-H ) :   0.9477 B(  6-C ,  8-H ) :   0.9514
B(  6-C ,  9-C ) :   1.0268 B(  9-C , 10-H ) :   0.9592 B(  9-C , 11-H ) :   0.9651
B(  9-C , 12-C ) :   1.0801 B( 12-C , 13-H ) :   0.9733 B( 12-C , 14-H ) :   0.9765
B( 12-C , 15-H ) :   0.9737 B( 16-S , 17-C ) :   1.1422 B( 16-S , 20-C ) :   1.1329
B( 17-C , 18-C ) :   1.6380 B( 17-C , 33-H ) :   0.9563 B( 18-C , 19-C ) :   1.2257
B( 18-C , 21-H ) :   0.9885 B( 19-C , 20-C ) :   1.5857 B( 19-C , 22-C ) :   1.0247
B( 22-C , 23-H ) :   0.9371 B( 22-C , 24-H ) :   0.9369 B( 22-C , 25-C ) :   1.0541
B( 25-C , 26-H ) :   0.9567 B( 25-C , 27-H ) :   0.9589 B( 25-C , 28-C ) :   1.0662
B( 28-C , 29-H ) :   0.9731 B( 28-C , 30-H ) :   0.9752 B( 28-C , 31-H ) :   0.9727

Dispersion correction           -0.014464728
FINAL SINGLE POINT ENERGY     -1339.865996612283

DIPOLE MOMENT
-------------
                                X             Y             Z
Electronic contribution:     -1.17293      15.40545     -27.75934
Nuclear contribution   :      1.43534     -15.65223      28.39636
                        -----------------------------------------
Total Dipole Moment    :      0.26241      -0.24678       0.63701
                        -----------------------------------------
Magnitude (a.u.)       :      0.73181
Magnitude (Debye)      :      1.86011

Rotational constants in cm-1:     0.018357     0.008795     0.006323
Rotational constants in MHz :   550.326698   263.673030   189.564472

                             ****ORCA TERMINATED NORMALLY****
TOTAL RUN TIME: 0 days 0 hours 0 minutes 21 seconds 680 msec
