                         Program Version 4.2.1 -  RELEASE  -
|  1> ! wB97X-D3 SP def2-SVP
|  2> %pal
|  3> nprocs 24
|  4> end
|  5>
|  6> * xyz 0 1
|  7> S 	 -83.2745 	 -33.6804 	 -53.8819
|  8> C 	 -81.5806 	 -33.6774 	 -53.5873
|  9> C 	 -81.1598 	 -32.4991 	 -53.0781
| 10> C 	 -82.2546 	 -31.6519 	 -52.7153
| 11> C 	 -83.51 	 -32.2206 	 -53.0031
| 12> H 	 -82.1207 	 -30.7194 	 -52.2302
| 13> C 	 -79.7381 	 -32.1423 	 -53.029
| 14> H 	 -79.2211 	 -33.0517 	 -52.6448
| 15> H 	 -79.6332 	 -31.2693 	 -52.3269
| 16> C 	 -78.9567 	 -31.9126 	 -54.3167
| 17> H 	 -77.8625 	 -31.8112 	 -54.1518
| 18> H 	 -79.0923 	 -32.7554 	 -55.0726
| 19> C 	 -79.5164 	 -30.5949 	 -54.9694
| 20> H 	 -80.6268 	 -30.6539 	 -55.1149
| 21> H 	 -79.372 	 -29.7048 	 -54.4175
| 22> H 	 -79.0541 	 -30.4747 	 -55.9766
| 23> S 	 -85.3844 	 -30.7014 	 -54.1385
| 24> C 	 -86.7637 	 -30.0472 	 -53.1322
| 25> C 	 -86.6991 	 -30.5896 	 -51.8621
| 26> C 	 -85.5398 	 -31.461 	 -51.6705
| 27> C 	 -84.755 	 -31.5299 	 -52.776
| 28> H 	 -87.4744 	 -30.5147 	 -51.11
| 29> C 	 -85.2562 	 -32.233 	 -50.359
| 30> H 	 -85.5427 	 -31.5555 	 -49.5256
| 31> H 	 -84.2781 	 -32.6297 	 -50.3818
| 32> C 	 -86.2156 	 -33.3879 	 -50.1247
| 33> H 	 -87.2111 	 -32.9754 	 -50.0595
| 34> H 	 -85.8475 	 -33.7891 	 -49.1515
| 35> C 	 -86.2864 	 -34.3647 	 -51.3624
| 36> H 	 -85.2545 	 -34.6711 	 -51.6563
| 37> H 	 -86.783 	 -33.7276 	 -52.1019
| 38> H 	 -86.8866 	 -35.1725 	 -51.1013
| 39> H 	 -80.8154 	 -34.3451 	 -53.9983
| 40> H 	 -87.4634 	 -29.3253 	 -53.4326
| 41> *
| 42>
| 43>                          ****END OF INPUT****

CARTESIAN COORDINATES (ANGSTROEM)
---------------------------------
  S    -83.274500  -33.680400  -53.881900
  C    -81.580600  -33.677400  -53.587300
  C    -81.159800  -32.499100  -53.078100
  C    -82.254600  -31.651900  -52.715300
  C    -83.510000  -32.220600  -53.003100
  H    -82.120700  -30.719400  -52.230200
  C    -79.738100  -32.142300  -53.029000
  H    -79.221100  -33.051700  -52.644800
  H    -79.633200  -31.269300  -52.326900
  C    -78.956700  -31.912600  -54.316700
  H    -77.862500  -31.811200  -54.151800
  H    -79.092300  -32.755400  -55.072600
  C    -79.516400  -30.594900  -54.969400
  H    -80.626800  -30.653900  -55.114900
  H    -79.372000  -29.704800  -54.417500
  H    -79.054100  -30.474700  -55.976600
  S    -85.384400  -30.701400  -54.138500
  C    -86.763700  -30.047200  -53.132200
  C    -86.699100  -30.589600  -51.862100
  C    -85.539800  -31.461000  -51.670500
  C    -84.755000  -31.529900  -52.776000
  H    -87.474400  -30.514700  -51.110000
  C    -85.256200  -32.233000  -50.359000
  H    -85.542700  -31.555500  -49.525600
  H    -84.278100  -32.629700  -50.381800
  C    -86.215600  -33.387900  -50.124700
  H    -87.211100  -32.975400  -50.059500
  H    -85.847500  -33.789100  -49.151500
  C    -86.286400  -34.364700  -51.362400
  H    -85.254500  -34.671100  -51.656300
  H    -86.783000  -33.727600  -52.101900
  H    -86.886600  -35.172500  -51.101300
  H    -80.815400  -34.345100  -53.998300
  H    -87.463400  -29.325300  -53.432600

 Total Charge           Charge          ....    0
 Multiplicity           Mult            ....    1
 Number of Electrons    NEL             ....  134
 Basis Dimension        Dim             ....  322

ORBITAL ENERGIES
----------------

  NO   OCC          E(Eh)            E(eV)
   0   2.0000     -88.970992     -2421.0238
   1   2.0000     -88.963640     -2420.8237
   2   2.0000     -10.327614      -281.0287
   3   2.0000     -10.322909      -280.9006
   4   2.0000     -10.318990      -280.7940
   5   2.0000     -10.307472      -280.4806
   6   2.0000     -10.300892      -280.3015
   7   2.0000     -10.300708      -280.2965
   8   2.0000     -10.298693      -280.2417
   9   2.0000     -10.293791      -280.1083
  10   2.0000     -10.293585      -280.1027
  11   2.0000     -10.292524      -280.0738
  12   2.0000     -10.286918      -279.9213
  13   2.0000     -10.282885      -279.8115
  14   2.0000     -10.276597      -279.6404
  15   2.0000     -10.269709      -279.4530
  16   2.0000      -8.086026      -220.0319
  17   2.0000      -8.078151      -219.8177
  18   2.0000      -6.044449      -164.4778
  19   2.0000      -6.040418      -164.3681
  20   2.0000      -6.036912      -164.2727
  21   2.0000      -6.036869      -164.2716
  22   2.0000      -6.032713      -164.1585
  23   2.0000      -6.028663      -164.0483
  24   2.0000      -1.013303       -27.5734
  25   2.0000      -0.986256       -26.8374
  26   2.0000      -0.916495       -24.9391
  27   2.0000      -0.906815       -24.6757
  28   2.0000      -0.871940       -23.7267
  29   2.0000      -0.847211       -23.0538
  30   2.0000      -0.836777       -22.7699
  31   2.0000      -0.815271       -22.1847
  32   2.0000      -0.781132       -21.2557
  33   2.0000      -0.772397       -21.0180
  34   2.0000      -0.707719       -19.2580
  35   2.0000      -0.702150       -19.1065
  36   2.0000      -0.688160       -18.7258
  37   2.0000      -0.662879       -18.0379
  38   2.0000      -0.640263       -17.4225
  39   2.0000      -0.610042       -16.6001
  40   2.0000      -0.597424       -16.2567
  41   2.0000      -0.576608       -15.6903
  42   2.0000      -0.554222       -15.0811
  43   2.0000      -0.548425       -14.9234
  44   2.0000      -0.545697       -14.8492
  45   2.0000      -0.535266       -14.5653
  46   2.0000      -0.520028       -14.1507
  47   2.0000      -0.512746       -13.9525
  48   2.0000      -0.502843       -13.6831
  49   2.0000      -0.499529       -13.5929
  50   2.0000      -0.486959       -13.2508
  51   2.0000      -0.476568       -12.9681
  52   2.0000      -0.470370       -12.7994
  53   2.0000      -0.466928       -12.7057
  54   2.0000      -0.460938       -12.5428
  55   2.0000      -0.443328       -12.0636
  56   2.0000      -0.442646       -12.0450
  57   2.0000      -0.440432       -11.9848
  58   2.0000      -0.427843       -11.6422
  59   2.0000      -0.422074       -11.4852
  60   2.0000      -0.418896       -11.3987
  61   2.0000      -0.411126       -11.1873
  62   2.0000      -0.408538       -11.1169
  63   2.0000      -0.339597        -9.2409
  64   2.0000      -0.328036        -8.9263
  65   2.0000      -0.321459        -8.7474
  66   2.0000      -0.308075        -8.3832
  67   0.0000       0.044624         1.2143
  68   0.0000       0.051644         1.4053
  69   0.0000       0.108664         2.9569
  70   0.0000       0.120061         3.2670
  71   0.0000       0.124398         3.3850

MULLIKEN ATOMIC CHARGES
-----------------------
   0 S :    0.142148
   1 C :   -0.119908
   2 C :   -0.091062
   3 C :    0.062282
   4 C :   -0.185636
   5 H :   -0.001796
   6 C :    0.041306
   7 H :    0.033962
   8 H :    0.032607
   9 C :   -0.078770
  10 H :    0.044916
  11 H :    0.037878
  12 C :   -0.081154
  13 H :    0.047607
  14 H :    0.023088
  15 H :    0.036325
  16 S :    0.100862
  17 C :   -0.074094
  18 C :   -0.022081
  19 C :   -0.068362
  20 C :   -0.181994
  21 H :    0.022031
  22 C :    0.113000
  23 H :    0.029028
  24 H :    0.026936
  25 C :   -0.112213
  26 H :    0.017319
  27 H :    0.038684
  28 C :   -0.035700
  29 H :    0.035570
  30 H :    0.049511
  31 H :    0.026325
  32 H :    0.047151
  33 H :    0.044234
Sum of atomic charges:    0.0000000

LOEWDIN ATOMIC CHARGES
----------------------
   0 S :    0.444892
   1 C :   -0.210458
   2 C :   -0.074809
   3 C :   -0.048699
   4 C :   -0.215724
   5 H :    0.025177
   6 C :   -0.043899
   7 H :    0.039149
   8 H :    0.035316
   9 C :   -0.041425
  10 H :    0.029228
  11 H :    0.029219
  12 C :   -0.073940
  13 H :    0.032405
  14 H :    0.015513
  15 H :    0.027094
  16 S :    0.388160
  17 C :   -0.152861
  18 C :   -0.064208
  19 C :   -0.057503
  20 C :   -0.213547
  21 H :    0.030480
  22 C :   -0.024780
  23 H :    0.037018
  24 H :    0.024215
  25 C :   -0.039716
  26 H :    0.015454
  27 H :    0.025565
  28 C :   -0.059386
  29 H :    0.022046
  30 H :    0.031402
  31 H :    0.014650
  32 H :    0.033212
  33 H :    0.020759

  Mayer bond orders larger than 0.100000
B(  0-S ,  1-C ) :   1.1470 B(  0-S ,  4-C ) :   1.1728 B(  1-C ,  2-C ) :   1.6010
B(  1-C , 32-H ) :   0.9610 B(  2-C ,  3-C ) :   1.2609 B(  2-C ,  6-C ) :   1.0357
B(  3-C ,  4-C ) :   1.5336 B(  3-C ,  5-H ) :   1.0026 B(  4-C , 20-C ) :   1.0136
B(  6-C ,  7-H ) :   0.9281 B(  6-C ,  8-H ) :   0.9413 B(  6-C ,  9-C ) :   1.0732
B(  9-C , 10-H ) :   0.9551 B(  9-C , 11-H ) :   0.9529 B(  9-C , 12-C ) :   1.0627
B( 12-C , 13-H ) :   0.9774 B( 12-C , 14-H ) :   0.9781 B( 12-C , 15-H ) :   0.9757
B( 16-S , 17-C ) :   1.1208 B( 16-S , 20-C ) :   1.1417 B( 17-C , 18-C ) :   1.6429
B( 17-C , 33-H ) :   0.9768 B( 18-C , 19-C ) :   1.2053 B( 18-C , 21-H ) :   0.9822
B( 19-C , 20-C ) :   1.6518 B( 19-C , 22-C ) :   1.0452 B( 22-C , 23-H ) :   0.9332
B( 22-C , 24-H ) :   0.9321 B( 22-C , 25-C ) :   1.0703 B( 25-C , 26-H ) :   0.9595
B( 25-C , 27-H ) :   0.9594 B( 25-C , 28-C ) :   1.0615 B( 28-C , 29-H ) :   0.9766
B( 28-C , 30-H ) :   0.9703 B( 28-C , 31-H ) :   0.9764

Dispersion correction           -0.015794058
FINAL SINGLE POINT ENERGY     -1339.868529398324

DIPOLE MOMENT
-------------
                                X             Y             Z
Electronic contribution:    -10.14036       1.78304      -7.56600
Nuclear contribution   :     10.36673      -1.65313       7.86605
                        -----------------------------------------
Total Dipole Moment    :      0.22637       0.12991       0.30005
                        -----------------------------------------
Magnitude (a.u.)       :      0.39768
Magnitude (Debye)      :      1.01082

Rotational constants in cm-1:     0.023460     0.008480     0.007345
Rotational constants in MHz :   703.317093   254.238182   220.196761

                             ****ORCA TERMINATED NORMALLY****
TOTAL RUN TIME: 0 days 0 hours 0 minutes 22 seconds 372 msec
