                         Program Version 4.2.1 -  RELEASE  -
|  1> ! wB97X-D3 SP def2-SVP
|  2> %pal
|  3> nprocs 24
|  4> end
|  5>
|  6> * xyz 0 1
|  7> S 	 -133.205 	 7.99423 	 -2.61329
|  8> C 	 -131.466 	 8.48039 	 -2.70419
|  9> C 	 -130.745 	 7.3747 	 -3.02038
| 10> C 	 -131.564 	 6.17769 	 -3.16667
| 11> C 	 -132.926 	 6.34208 	 -3.05233
| 12> H 	 -131.071 	 5.28952 	 -3.33575
| 13> C 	 -129.249 	 7.30688 	 -3.053
| 14> H 	 -128.95 	 8.12231 	 -3.65208
| 15> H 	 -128.937 	 6.49212 	 -3.66788
| 16> C 	 -128.496 	 7.3418 	 -1.80188
| 17> H 	 -128.688 	 8.31987 	 -1.33359
| 18> H 	 -128.845 	 6.62573 	 -1.02599
| 19> C 	 -126.943 	 7.29481 	 -1.94773
| 20> H 	 -126.421 	 7.55008 	 -1.00655
| 21> H 	 -126.551 	 6.32574 	 -2.06197
| 22> H 	 -126.588 	 7.95504 	 -2.70756
| 23> S 	 -135.335 	 5.66482 	 -4.07878
| 24> C 	 -136.084 	 4.24425 	 -3.41836
| 25> C 	 -135.081 	 3.37918 	 -3.11559
| 26> C 	 -133.746 	 3.8939 	 -2.95136
| 27> C 	 -133.854 	 5.23683 	 -3.12619
| 28> H 	 -135.364 	 2.38821 	 -2.92892
| 29> C 	 -132.602 	 3.15466 	 -2.32337
| 30> H 	 -133.082 	 2.45789 	 -1.62672
| 31> H 	 -131.972 	 3.89362 	 -1.75092
| 32> C 	 -131.676 	 2.4792 	 -3.30343
| 33> H 	 -131.051 	 1.75829 	 -2.7237
| 34> H 	 -131.046 	 3.233 	 -3.75234
| 35> C 	 -132.451 	 1.53034 	 -4.26431
| 36> H 	 -133.286 	 2.044 	 -4.73032
| 37> H 	 -132.866 	 0.763582 	 -3.6335
| 38> H 	 -131.822 	 1.1287 	 -5.04475
| 39> H 	 -131.035 	 9.4626 	 -2.40797
| 40> H 	 -137.073 	 3.96159 	 -3.7048
| 41> *
| 42>
| 43>                          ****END OF INPUT****

CARTESIAN COORDINATES (ANGSTROEM)
---------------------------------
  S    -133.205000    7.994230   -2.613290
  C    -131.466000    8.480390   -2.704190
  C    -130.745000    7.374700   -3.020380
  C    -131.564000    6.177690   -3.166670
  C    -132.926000    6.342080   -3.052330
  H    -131.071000    5.289520   -3.335750
  C    -129.249000    7.306880   -3.053000
  H    -128.950000    8.122310   -3.652080
  H    -128.937000    6.492120   -3.667880
  C    -128.496000    7.341800   -1.801880
  H    -128.688000    8.319870   -1.333590
  H    -128.845000    6.625730   -1.025990
  C    -126.943000    7.294810   -1.947730
  H    -126.421000    7.550080   -1.006550
  H    -126.551000    6.325740   -2.061970
  H    -126.588000    7.955040   -2.707560
  S    -135.335000    5.664820   -4.078780
  C    -136.084000    4.244250   -3.418360
  C    -135.081000    3.379180   -3.115590
  C    -133.746000    3.893900   -2.951360
  C    -133.854000    5.236830   -3.126190
  H    -135.364000    2.388210   -2.928920
  C    -132.602000    3.154660   -2.323370
  H    -133.082000    2.457890   -1.626720
  H    -131.972000    3.893620   -1.750920
  C    -131.676000    2.479200   -3.303430
  H    -131.051000    1.758290   -2.723700
  H    -131.046000    3.233000   -3.752340
  C    -132.451000    1.530340   -4.264310
  H    -133.286000    2.044000   -4.730320
  H    -132.866000    0.763582   -3.633500
  H    -131.822000    1.128700   -5.044750
  H    -131.035000    9.462600   -2.407970
  H    -137.073000    3.961590   -3.704800

 Total Charge           Charge          ....    0
 Multiplicity           Mult            ....    1
 Number of Electrons    NEL             ....  134
 Basis Dimension        Dim             ....  322

ORBITAL ENERGIES
----------------

  NO   OCC          E(Eh)            E(eV)
   0   2.0000     -88.965554     -2420.8758
   1   2.0000     -88.953974     -2420.5607
   2   2.0000     -10.329295      -281.0744
   3   2.0000     -10.328806      -281.0611
   4   2.0000     -10.321470      -280.8615
   5   2.0000     -10.309811      -280.5442
   6   2.0000     -10.304505      -280.3998
   7   2.0000     -10.299627      -280.2671
   8   2.0000     -10.297854      -280.2189
   9   2.0000     -10.292024      -280.0602
  10   2.0000     -10.289934      -280.0033
  11   2.0000     -10.289291      -279.9859
  12   2.0000     -10.288073      -279.9527
  13   2.0000     -10.281541      -279.7749
  14   2.0000     -10.277832      -279.6740
  15   2.0000     -10.276614      -279.6409
  16   2.0000      -8.079528      -219.8551
  17   2.0000      -8.069259      -219.5757
  18   2.0000      -6.038365      -164.3123
  19   2.0000      -6.034024      -164.1942
  20   2.0000      -6.030032      -164.0855
  21   2.0000      -6.027799      -164.0248
  22   2.0000      -6.024271      -163.9287
  23   2.0000      -6.019340      -163.7946
  24   2.0000      -1.009875       -27.4801
  25   2.0000      -0.986392       -26.8411
  26   2.0000      -0.922475       -25.1018
  27   2.0000      -0.918347       -24.9895
  28   2.0000      -0.873939       -23.7811
  29   2.0000      -0.851629       -23.1740
  30   2.0000      -0.841091       -22.8873
  31   2.0000      -0.813630       -22.1400
  32   2.0000      -0.789553       -21.4848
  33   2.0000      -0.782950       -21.3051
  34   2.0000      -0.712863       -19.3980
  35   2.0000      -0.708387       -19.2762
  36   2.0000      -0.695742       -18.9321
  37   2.0000      -0.666197       -18.1281
  38   2.0000      -0.637832       -17.3563
  39   2.0000      -0.624693       -16.9988
  40   2.0000      -0.594563       -16.1789
  41   2.0000      -0.572935       -15.5904
  42   2.0000      -0.571437       -15.5496
  43   2.0000      -0.562398       -15.3036
  44   2.0000      -0.548998       -14.9390
  45   2.0000      -0.531871       -14.4729
  46   2.0000      -0.525808       -14.3080
  47   2.0000      -0.509651       -13.8683
  48   2.0000      -0.505069       -13.7436
  49   2.0000      -0.504052       -13.7159
  50   2.0000      -0.493399       -13.4261
  51   2.0000      -0.486811       -13.2468
  52   2.0000      -0.471869       -12.8402
  53   2.0000      -0.465744       -12.6735
  54   2.0000      -0.462503       -12.5853
  55   2.0000      -0.447596       -12.1797
  56   2.0000      -0.444478       -12.0949
  57   2.0000      -0.439247       -11.9525
  58   2.0000      -0.434436       -11.8216
  59   2.0000      -0.426222       -11.5981
  60   2.0000      -0.416698       -11.3389
  61   2.0000      -0.413715       -11.2577
  62   2.0000      -0.408677       -11.1207
  63   2.0000      -0.353774        -9.6267
  64   2.0000      -0.329316        -8.9611
  65   2.0000      -0.321610        -8.7515
  66   2.0000      -0.293492        -7.9863
  67   0.0000       0.016184         0.4404
  68   0.0000       0.077125         2.0987
  69   0.0000       0.093460         2.5432
  70   0.0000       0.117680         3.2022
  71   0.0000       0.130433         3.5493

MULLIKEN ATOMIC CHARGES
-----------------------
   0 S :    0.105244
   1 C :   -0.152003
   2 C :   -0.082782
   3 C :    0.040872
   4 C :   -0.065882
   5 H :   -0.072297
   6 C :    0.111286
   7 H :    0.006406
   8 H :    0.003537
   9 C :   -0.068729
  10 H :    0.016986
  11 H :    0.032005
  12 C :   -0.031590
  13 H :    0.027916
  14 H :    0.020096
  15 H :    0.028525
  16 S :    0.059903
  17 C :   -0.042663
  18 C :   -0.048254
  19 C :    0.000961
  20 C :   -0.172086
  21 H :   -0.006634
  22 C :    0.029463
  23 H :    0.030301
  24 H :    0.047400
  25 C :   -0.067119
  26 H :    0.034762
  27 H :    0.042861
  28 C :   -0.051117
  29 H :    0.044376
  30 H :    0.024446
  31 H :    0.039483
  32 H :    0.066950
  33 H :    0.047375
Sum of atomic charges:   -0.0000000

LOEWDIN ATOMIC CHARGES
----------------------
   0 S :    0.395141
   1 C :   -0.181365
   2 C :   -0.059831
   3 C :   -0.056802
   4 C :   -0.205452
   5 H :    0.008487
   6 C :   -0.039653
   7 H :    0.029947
   8 H :    0.025369
   9 C :   -0.041062
  10 H :    0.023809
  11 H :    0.027772
  12 C :   -0.061873
  13 H :    0.032754
  14 H :    0.017711
  15 H :    0.022079
  16 S :    0.359678
  17 C :   -0.178696
  18 C :   -0.061035
  19 C :   -0.057272
  20 C :   -0.147298
  21 H :    0.016894
  22 C :   -0.033857
  23 H :    0.032672
  24 H :    0.041145
  25 C :   -0.037310
  26 H :    0.031047
  27 H :    0.017443
  28 C :   -0.060769
  29 H :    0.024971
  30 H :    0.023767
  31 H :    0.026166
  32 H :    0.041687
  33 H :    0.023735

  Mayer bond orders larger than 0.100000
B(  0-S ,  1-C ) :   1.1152 B(  0-S ,  4-C ) :   1.1383 B(  1-C ,  2-C ) :   1.6176
B(  1-C , 32-H ) :   0.9669 B(  2-C ,  3-C ) :   1.2577 B(  2-C ,  6-C ) :   1.0264
B(  3-C ,  4-C ) :   1.5231 B(  3-C ,  5-H ) :   1.0077 B(  4-C , 20-C ) :   1.0700
B(  6-C ,  7-H ) :   0.9179 B(  6-C ,  8-H ) :   0.9319 B(  6-C ,  9-C ) :   1.0794
B(  9-C , 10-H ) :   0.9501 B(  9-C , 11-H ) :   0.9548 B(  9-C , 12-C ) :   1.0781
B( 12-C , 13-H ) :   0.9726 B( 12-C , 14-H ) :   0.9756 B( 12-C , 15-H ) :   0.9753
B( 16-S , 17-C ) :   1.1058 B( 16-S , 20-C ) :   1.1386 B( 17-C , 18-C ) :   1.6622
B( 17-C , 33-H ) :   0.9704 B( 18-C , 19-C ) :   1.1560 B( 18-C , 21-H ) :   0.9901
B( 19-C , 20-C ) :   1.6315 B( 19-C , 22-C ) :   1.0190 B( 22-C , 23-H ) :   0.9385
B( 22-C , 24-H ) :   0.9394 B( 22-C , 25-C ) :   1.0735 B( 25-C , 26-H ) :   0.9535
B( 25-C , 27-H ) :   0.9520 B( 25-C , 28-C ) :   1.0701 B( 28-C , 29-H ) :   0.9743
B( 28-C , 30-H ) :   0.9762 B( 28-C , 31-H ) :   0.9745

Dispersion correction           -0.014353695
FINAL SINGLE POINT ENERGY     -1339.845828964422

DIPOLE MOMENT
-------------
                                X             Y             Z
Electronic contribution:    -26.85408      12.82171      -3.29755
Nuclear contribution   :     27.59711     -13.34893       3.43313
                        -----------------------------------------
Total Dipole Moment    :      0.74303      -0.52722       0.13558
                        -----------------------------------------
Magnitude (a.u.)       :      0.92111
Magnitude (Debye)      :      2.34127

Rotational constants in cm-1:     0.019961     0.008647     0.006352
Rotational constants in MHz :   598.416713   259.221442   190.422869

                             ****ORCA TERMINATED NORMALLY****
TOTAL RUN TIME: 0 days 0 hours 0 minutes 22 seconds 169 msec
