                         Program Version 4.2.1 -  RELEASE  -
|  1> ! wB97X-D3 SP def2-SVP
|  2> %pal
|  3> nprocs 24
|  4> end
|  5>
|  6> * xyz 0 1
|  7> S 	 26.1819 	 -6.63719 	 -119.327
|  8> C 	 25.4774 	 -6.65393 	 -120.925
|  9> C 	 26.1558 	 -7.29537 	 -121.96
| 10> C 	 27.3042 	 -7.91754 	 -121.346
| 11> C 	 27.2982 	 -7.79653 	 -119.984
| 12> H 	 28.0558 	 -8.46027 	 -121.913
| 13> C 	 25.8345 	 -7.24789 	 -123.416
| 14> H 	 24.822 	 -7.05225 	 -123.467
| 15> H 	 25.9167 	 -8.28441 	 -123.793
| 16> C 	 26.5804 	 -6.18531 	 -124.215
| 17> H 	 27.6065 	 -6.45433 	 -124.116
| 18> H 	 26.3978 	 -6.23699 	 -125.309
| 19> C 	 26.4143 	 -4.71816 	 -123.873
| 20> H 	 26.7117 	 -4.49264 	 -122.848
| 21> H 	 27.1726 	 -4.23269 	 -124.505
| 22> H 	 25.3719 	 -4.38236 	 -124.003
| 23> S 	 29.4451 	 -7.14469 	 -118.336
| 24> C 	 30.3878 	 -8.46389 	 -117.523
| 25> C 	 29.863 	 -9.66724 	 -117.974
| 26> C 	 28.8372 	 -9.58268 	 -118.873
| 27> C 	 28.3826 	 -8.32012 	 -119.103
| 28> H 	 30.1917 	 -10.6499 	 -117.695
| 29> C 	 28.3577 	 -10.8785 	 -119.576
| 30> H 	 27.3209 	 -10.8355 	 -119.818
| 31> H 	 28.4176 	 -11.5954 	 -118.722
| 32> C 	 29.1793 	 -11.2403 	 -120.854
| 33> H 	 30.2302 	 -11.377 	 -120.487
| 34> H 	 29.2409 	 -10.3277 	 -121.463
| 35> C 	 28.7202 	 -12.6165 	 -121.53
| 36> H 	 29.6243 	 -12.9005 	 -122.212
| 37> H 	 27.8277 	 -12.6331 	 -122.168
| 38> H 	 28.7625 	 -13.4392 	 -120.859
| 39> H 	 24.531 	 -6.1363 	 -121.13
| 40> H 	 31.1383 	 -8.34945 	 -116.751
| 41> *
| 42>
| 43>                          ****END OF INPUT****

CARTESIAN COORDINATES (ANGSTROEM)
---------------------------------
  S     26.181900   -6.637190  -119.327000
  C     25.477400   -6.653930  -120.925000
  C     26.155800   -7.295370  -121.960000
  C     27.304200   -7.917540  -121.346000
  C     27.298200   -7.796530  -119.984000
  H     28.055800   -8.460270  -121.913000
  C     25.834500   -7.247890  -123.416000
  H     24.822000   -7.052250  -123.467000
  H     25.916700   -8.284410  -123.793000
  C     26.580400   -6.185310  -124.215000
  H     27.606500   -6.454330  -124.116000
  H     26.397800   -6.236990  -125.309000
  C     26.414300   -4.718160  -123.873000
  H     26.711700   -4.492640  -122.848000
  H     27.172600   -4.232690  -124.505000
  H     25.371900   -4.382360  -124.003000
  S     29.445100   -7.144690  -118.336000
  C     30.387800   -8.463890  -117.523000
  C     29.863000   -9.667240  -117.974000
  C     28.837200   -9.582680  -118.873000
  C     28.382600   -8.320120  -119.103000
  H     30.191700  -10.649900  -117.695000
  C     28.357700  -10.878500  -119.576000
  H     27.320900  -10.835500  -119.818000
  H     28.417600  -11.595400  -118.722000
  C     29.179300  -11.240300  -120.854000
  H     30.230200  -11.377000  -120.487000
  H     29.240900  -10.327700  -121.463000
  C     28.720200  -12.616500  -121.530000
  H     29.624300  -12.900500  -122.212000
  H     27.827700  -12.633100  -122.168000
  H     28.762500  -13.439200  -120.859000
  H     24.531000   -6.136300  -121.130000
  H     31.138300   -8.349450  -116.751000

 Total Charge           Charge          ....    0
 Multiplicity           Mult            ....    1
 Number of Electrons    NEL             ....  134
 Basis Dimension        Dim             ....  322

ORBITAL ENERGIES
----------------

  NO   OCC          E(Eh)            E(eV)
   0   2.0000     -88.972750     -2421.0716
   1   2.0000     -88.962436     -2420.7909
   2   2.0000     -10.326899      -281.0092
   3   2.0000     -10.321595      -280.8649
   4   2.0000     -10.320616      -280.8382
   5   2.0000     -10.314780      -280.6794
   6   2.0000     -10.301971      -280.3309
   7   2.0000     -10.300325      -280.2861
   8   2.0000     -10.295872      -280.1649
   9   2.0000     -10.291899      -280.0568
  10   2.0000     -10.290012      -280.0055
  11   2.0000     -10.289648      -279.9956
  12   2.0000     -10.288643      -279.9682
  13   2.0000     -10.286095      -279.8989
  14   2.0000     -10.285843      -279.8920
  15   2.0000     -10.279002      -279.7059
  16   2.0000      -8.087765      -220.0793
  17   2.0000      -8.076049      -219.7605
  18   2.0000      -6.045972      -164.5193
  19   2.0000      -6.042763      -164.4320
  20   2.0000      -6.038286      -164.3101
  21   2.0000      -6.034643      -164.2110
  22   2.0000      -6.030705      -164.1038
  23   2.0000      -6.026801      -163.9976
  24   2.0000      -1.007295       -27.4099
  25   2.0000      -0.984472       -26.7888
  26   2.0000      -0.918670       -24.9983
  27   2.0000      -0.895442       -24.3662
  28   2.0000      -0.864192       -23.5159
  29   2.0000      -0.854258       -23.2455
  30   2.0000      -0.842089       -22.9144
  31   2.0000      -0.813638       -22.1402
  32   2.0000      -0.784806       -21.3557
  33   2.0000      -0.770801       -20.9746
  34   2.0000      -0.705370       -19.1941
  35   2.0000      -0.699943       -19.0464
  36   2.0000      -0.691097       -18.8057
  37   2.0000      -0.666109       -18.1258
  38   2.0000      -0.640516       -17.4293
  39   2.0000      -0.622060       -16.9271
  40   2.0000      -0.591014       -16.0823
  41   2.0000      -0.563529       -15.3344
  42   2.0000      -0.555248       -15.1091
  43   2.0000      -0.552785       -15.0420
  44   2.0000      -0.548826       -14.9343
  45   2.0000      -0.519436       -14.1346
  46   2.0000      -0.514428       -13.9983
  47   2.0000      -0.511265       -13.9122
  48   2.0000      -0.502284       -13.6678
  49   2.0000      -0.492279       -13.3956
  50   2.0000      -0.483864       -13.1666
  51   2.0000      -0.477817       -13.0021
  52   2.0000      -0.468982       -12.7616
  53   2.0000      -0.464486       -12.6393
  54   2.0000      -0.459620       -12.5069
  55   2.0000      -0.457137       -12.4393
  56   2.0000      -0.444014       -12.0822
  57   2.0000      -0.441284       -12.0080
  58   2.0000      -0.429225       -11.6798
  59   2.0000      -0.425204       -11.5704
  60   2.0000      -0.423008       -11.5106
  61   2.0000      -0.418855       -11.3976
  62   2.0000      -0.405484       -11.0338
  63   2.0000      -0.343134        -9.3371
  64   2.0000      -0.332839        -9.0570
  65   2.0000      -0.327439        -8.9101
  66   2.0000      -0.294293        -8.0081
  67   0.0000       0.033716         0.9175
  68   0.0000       0.061662         1.6779
  69   0.0000       0.102781         2.7968
  70   0.0000       0.121262         3.2997
  71   0.0000       0.126777         3.4498

MULLIKEN ATOMIC CHARGES
-----------------------
   0 S :    0.133525
   1 C :   -0.119613
   2 C :   -0.125643
   3 C :    0.023017
   4 C :   -0.146660
   5 H :    0.012558
   6 C :    0.138102
   7 H :   -0.009260
   8 H :    0.032770
   9 C :   -0.076043
  10 H :    0.013308
  11 H :    0.033825
  12 C :   -0.048445
  13 H :    0.037625
  14 H :    0.039708
  15 H :    0.037592
  16 S :    0.084248
  17 C :   -0.096177
  18 C :   -0.008552
  19 C :   -0.054264
  20 C :   -0.167833
  21 H :    0.001735
  22 C :    0.067517
  23 H :    0.019891
  24 H :    0.022025
  25 C :   -0.071378
  26 H :    0.027850
  27 H :    0.033949
  28 C :   -0.056868
  29 H :    0.036304
  30 H :    0.054583
  31 H :    0.029403
  32 H :    0.041097
  33 H :    0.060101
Sum of atomic charges:    0.0000000

LOEWDIN ATOMIC CHARGES
----------------------
   0 S :    0.416494
   1 C :   -0.193083
   2 C :   -0.059028
   3 C :   -0.051441
   4 C :   -0.196889
   5 H :    0.029887
   6 C :   -0.031306
   7 H :    0.019830
   8 H :    0.039112
   9 C :   -0.042158
  10 H :    0.018649
  11 H :    0.029675
  12 C :   -0.063575
  13 H :    0.024667
  14 H :    0.034760
  15 H :    0.026151
  16 S :    0.372128
  17 C :   -0.170802
  18 C :   -0.067827
  19 C :   -0.075130
  20 C :   -0.191671
  21 H :    0.027047
  22 C :   -0.029597
  23 H :    0.021885
  24 H :    0.030025
  25 C :   -0.039637
  26 H :    0.029026
  27 H :    0.023965
  28 C :   -0.072329
  29 H :    0.039076
  30 H :    0.027894
  31 H :    0.021690
  32 H :    0.021536
  33 H :    0.030978

  Mayer bond orders larger than 0.100000
B(  0-S ,  1-C ) :   1.1415 B(  0-S ,  4-C ) :   1.1460 B(  1-C ,  2-C ) :   1.6332
B(  1-C , 32-H ) :   0.9557 B(  2-C ,  3-C ) :   1.2189 B(  2-C ,  6-C ) :   1.0299
B(  3-C ,  4-C ) :   1.6038 B(  3-C ,  5-H ) :   0.9902 B(  4-C , 20-C ) :   0.9882
B(  6-C ,  7-H ) :   0.9237 B(  6-C ,  8-H ) :   0.9328 B(  6-C ,  9-C ) :   1.0600
B(  9-C , 10-H ) :   0.9560 B(  9-C , 11-H ) :   0.9552 B(  9-C , 12-C ) :   1.0833
B( 12-C , 13-H ) :   0.9723 B( 12-C , 14-H ) :   0.9701 B( 12-C , 15-H ) :   0.9752
B( 16-S , 17-C ) :   1.1363 B( 16-S , 20-C ) :   1.1489 B( 17-C , 18-C ) :   1.5730
B( 17-C , 20-C ) :   0.1143 B( 17-C , 33-H ) :   0.9723 B( 18-C , 19-C ) :   1.2938
B( 18-C , 21-H ) :   0.9799 B( 19-C , 20-C ) :   1.6198 B( 19-C , 22-C ) :   1.0307
B( 22-C , 23-H ) :   0.9351 B( 22-C , 24-H ) :   0.9396 B( 22-C , 25-C ) :   1.0484
B( 25-C , 26-H ) :   0.9547 B( 25-C , 27-H ) :   0.9571 B( 25-C , 28-C ) :   1.0609
B( 28-C , 29-H ) :   0.9757 B( 28-C , 30-H ) :   0.9793 B( 28-C , 31-H ) :   0.9747

Dispersion correction           -0.014581010
FINAL SINGLE POINT ENERGY     -1339.860957362650

DIPOLE MOMENT
-------------
                                X             Y             Z
Electronic contribution:      0.65115      11.21562      22.75492
Nuclear contribution   :     -0.65268     -11.57559     -23.30996
                        -----------------------------------------
Total Dipole Moment    :     -0.00153      -0.35997      -0.55505
                        -----------------------------------------
Magnitude (a.u.)       :      0.66156
Magnitude (Debye)      :      1.68154

Rotational constants in cm-1:     0.017775     0.008960     0.006902
Rotational constants in MHz :   532.867818   268.616376   206.906229

                             ****ORCA TERMINATED NORMALLY****
TOTAL RUN TIME: 0 days 0 hours 0 minutes 21 seconds 633 msec
