                         Program Version 4.2.1 -  RELEASE  -
|  1> ! wB97X-D3 SP def2-SVP
|  2> %pal
|  3> nprocs 24
|  4> end
|  5>
|  6> * xyz 0 1
|  7> S 	 32.2255 	 -32.7069 	 -130.52
|  8> C 	 32.2656 	 -32.7545 	 -128.725
|  9> C 	 33.1298 	 -33.6904 	 -128.331
| 10> C 	 33.6325 	 -34.5237 	 -129.366
| 11> C 	 33.2135 	 -34.1777 	 -130.678
| 12> H 	 34.2116 	 -35.5037 	 -129.223
| 13> C 	 33.5027 	 -33.9083 	 -126.928
| 14> H 	 33.5731 	 -34.9937 	 -126.829
| 15> H 	 32.7601 	 -33.5959 	 -126.267
| 16> C 	 34.8696 	 -33.2651 	 -126.569
| 17> H 	 35.2833 	 -33.5543 	 -125.657
| 18> H 	 35.6103 	 -33.6327 	 -127.312
| 19> C 	 34.7571 	 -31.6899 	 -126.655
| 20> H 	 35.7014 	 -31.1401 	 -126.648
| 21> H 	 34.3027 	 -31.2568 	 -127.548
| 22> H 	 34.2051 	 -31.3763 	 -125.807
| 23> S 	 34.5112 	 -34.3429 	 -133.158
| 24> C 	 34.2251 	 -35.828 	 -133.991
| 25> C 	 33.1361 	 -36.5353 	 -133.522
| 26> C 	 32.5867 	 -35.9467 	 -132.313
| 27> C 	 33.3079 	 -34.8937 	 -131.945
| 28> H 	 32.8422 	 -37.4209 	 -134.074
| 29> C 	 31.4705 	 -36.6689 	 -131.597
| 30> H 	 30.7842 	 -37.1928 	 -132.18
| 31> H 	 30.7293 	 -35.9174 	 -131.3
| 32> C 	 31.8816 	 -37.3966 	 -130.321
| 33> H 	 31.0892 	 -38.0118 	 -129.952
| 34> H 	 32.1248 	 -36.5902 	 -129.543
| 35> C 	 33.1299 	 -38.3502 	 -130.394
| 36> H 	 33.5288 	 -38.678 	 -129.391
| 37> H 	 33.8325 	 -37.646 	 -130.684
| 38> H 	 33.0546 	 -39.1364 	 -131.099
| 39> H 	 31.7971 	 -32.0121 	 -128.015
| 40> H 	 34.8488 	 -36.1871 	 -134.818
| 41> *
| 42>
| 43>                          ****END OF INPUT****

CARTESIAN COORDINATES (ANGSTROEM)
---------------------------------
  S     32.225500  -32.706900  -130.520000
  C     32.265600  -32.754500  -128.725000
  C     33.129800  -33.690400  -128.331000
  C     33.632500  -34.523700  -129.366000
  C     33.213500  -34.177700  -130.678000
  H     34.211600  -35.503700  -129.223000
  C     33.502700  -33.908300  -126.928000
  H     33.573100  -34.993700  -126.829000
  H     32.760100  -33.595900  -126.267000
  C     34.869600  -33.265100  -126.569000
  H     35.283300  -33.554300  -125.657000
  H     35.610300  -33.632700  -127.312000
  C     34.757100  -31.689900  -126.655000
  H     35.701400  -31.140100  -126.648000
  H     34.302700  -31.256800  -127.548000
  H     34.205100  -31.376300  -125.807000
  S     34.511200  -34.342900  -133.158000
  C     34.225100  -35.828000  -133.991000
  C     33.136100  -36.535300  -133.522000
  C     32.586700  -35.946700  -132.313000
  C     33.307900  -34.893700  -131.945000
  H     32.842200  -37.420900  -134.074000
  C     31.470500  -36.668900  -131.597000
  H     30.784200  -37.192800  -132.180000
  H     30.729300  -35.917400  -131.300000
  C     31.881600  -37.396600  -130.321000
  H     31.089200  -38.011800  -129.952000
  H     32.124800  -36.590200  -129.543000
  C     33.129900  -38.350200  -130.394000
  H     33.528800  -38.678000  -129.391000
  H     33.832500  -37.646000  -130.684000
  H     33.054600  -39.136400  -131.099000
  H     31.797100  -32.012100  -128.015000
  H     34.848800  -36.187100  -134.818000

 Total Charge           Charge          ....    0
 Multiplicity           Mult            ....    1
 Number of Electrons    NEL             ....  134
 Basis Dimension        Dim             ....  322

ORBITAL ENERGIES
----------------

  NO   OCC          E(Eh)            E(eV)
   0   2.0000     -88.966686     -2420.9066
   1   2.0000     -88.961683     -2420.7705
   2   2.0000     -10.334953      -281.2284
   3   2.0000     -10.324978      -280.9569
   4   2.0000     -10.317886      -280.7639
   5   2.0000     -10.316825      -280.7351
   6   2.0000     -10.305078      -280.4154
   7   2.0000     -10.304851      -280.4093
   8   2.0000     -10.294025      -280.1147
   9   2.0000     -10.293205      -280.0923
  10   2.0000     -10.289240      -279.9844
  11   2.0000     -10.287462      -279.9361
  12   2.0000     -10.286704      -279.9154
  13   2.0000     -10.285413      -279.8803
  14   2.0000     -10.273557      -279.5577
  15   2.0000     -10.269582      -279.4495
  16   2.0000      -8.081598      -219.9115
  17   2.0000      -8.075405      -219.7429
  18   2.0000      -6.040069      -164.3586
  19   2.0000      -6.036438      -164.2598
  20   2.0000      -6.034074      -164.1955
  21   2.0000      -6.032029      -164.1399
  22   2.0000      -6.029967      -164.0838
  23   2.0000      -6.026119      -163.9790
  24   2.0000      -1.006635       -27.3919
  25   2.0000      -0.985435       -26.8150
  26   2.0000      -0.913453       -24.8563
  27   2.0000      -0.908860       -24.7313
  28   2.0000      -0.865431       -23.5496
  29   2.0000      -0.847641       -23.0655
  30   2.0000      -0.837756       -22.7965
  31   2.0000      -0.811480       -22.0815
  32   2.0000      -0.792178       -21.5563
  33   2.0000      -0.779047       -21.1989
  34   2.0000      -0.714544       -19.4437
  35   2.0000      -0.702201       -19.1079
  36   2.0000      -0.688371       -18.7315
  37   2.0000      -0.661893       -18.0110
  38   2.0000      -0.636739       -17.3266
  39   2.0000      -0.615074       -16.7370
  40   2.0000      -0.600795       -16.3485
  41   2.0000      -0.571138       -15.5415
  42   2.0000      -0.555739       -15.1224
  43   2.0000      -0.545624       -14.8472
  44   2.0000      -0.544397       -14.8138
  45   2.0000      -0.539622       -14.6839
  46   2.0000      -0.518895       -14.1199
  47   2.0000      -0.512224       -13.9383
  48   2.0000      -0.500066       -13.6075
  49   2.0000      -0.492480       -13.4011
  50   2.0000      -0.488488       -13.2924
  51   2.0000      -0.477571       -12.9954
  52   2.0000      -0.470306       -12.7977
  53   2.0000      -0.465537       -12.6679
  54   2.0000      -0.458365       -12.4727
  55   2.0000      -0.445809       -12.1311
  56   2.0000      -0.444632       -12.0991
  57   2.0000      -0.440674       -11.9913
  58   2.0000      -0.431384       -11.7386
  59   2.0000      -0.424942       -11.5633
  60   2.0000      -0.418984       -11.4011
  61   2.0000      -0.413776       -11.2594
  62   2.0000      -0.400331       -10.8936
  63   2.0000      -0.336018        -9.1435
  64   2.0000      -0.330095        -8.9823
  65   2.0000      -0.324576        -8.8322
  66   2.0000      -0.309546        -8.4232
  67   0.0000       0.042422         1.1544
  68   0.0000       0.047292         1.2869
  69   0.0000       0.106540         2.8991
  70   0.0000       0.120988         3.2922
  71   0.0000       0.122994         3.3468

MULLIKEN ATOMIC CHARGES
-----------------------
   0 S :    0.085953
   1 C :   -0.140935
   2 C :   -0.096123
   3 C :    0.023503
   4 C :   -0.179611
   5 H :    0.044380
   6 C :    0.096189
   7 H :    0.020593
   8 H :    0.004654
   9 C :   -0.034346
  10 H :    0.019737
  11 H :    0.028476
  12 C :   -0.069352
  13 H :    0.030383
  14 H :    0.039806
  15 H :    0.019568
  16 S :    0.118944
  17 C :   -0.096510
  18 C :   -0.042623
  19 C :   -0.002570
  20 C :   -0.201149
  21 H :    0.021073
  22 C :    0.144610
  23 H :   -0.000287
  24 H :    0.023138
  25 C :   -0.111075
  26 H :    0.024204
  27 H :    0.049761
  28 C :   -0.031942
  29 H :    0.035090
  30 H :    0.015834
  31 H :    0.030545
  32 H :    0.068074
  33 H :    0.062007
Sum of atomic charges:    0.0000000

LOEWDIN ATOMIC CHARGES
----------------------
   0 S :    0.369632
   1 C :   -0.185414
   2 C :   -0.078819
   3 C :   -0.066969
   4 C :   -0.182764
   5 H :    0.043501
   6 C :   -0.023535
   7 H :    0.032195
   8 H :    0.019230
   9 C :   -0.025582
  10 H :    0.014720
  11 H :    0.027005
  12 C :   -0.070188
  13 H :    0.027508
  14 H :    0.027233
  15 H :    0.017344
  16 S :    0.390967
  17 C :   -0.183246
  18 C :   -0.071802
  19 C :   -0.040482
  20 C :   -0.195603
  21 H :    0.032702
  22 C :   -0.033462
  23 H :    0.023630
  24 H :    0.043605
  25 C :   -0.036410
  26 H :    0.016840
  27 H :    0.034244
  28 C :   -0.066190
  29 H :    0.033152
  30 H :    0.013108
  31 H :    0.017673
  32 H :    0.044266
  33 H :    0.031914

  Mayer bond orders larger than 0.100000
B(  0-S ,  1-C ) :   1.1138 B(  0-S ,  4-C ) :   1.1512 B(  1-C ,  2-C ) :   1.6407
B(  1-C , 32-H ) :   0.9573 B(  2-C ,  3-C ) :   1.2232 B(  2-C ,  6-C ) :   1.0305
B(  3-C ,  4-C ) :   1.5904 B(  3-C ,  5-H ) :   0.9745 B(  4-C , 20-C ) :   1.0142
B(  6-C ,  7-H ) :   0.9330 B(  6-C ,  8-H ) :   0.9433 B(  6-C ,  9-C ) :   1.0643
B(  9-C , 10-H ) :   0.9616 B(  9-C , 11-H ) :   0.9579 B(  9-C , 12-C ) :   1.0591
B( 12-C , 13-H ) :   0.9749 B( 12-C , 14-H ) :   0.9765 B( 12-C , 15-H ) :   0.9787
B( 16-S , 17-C ) :   1.1453 B( 16-S , 20-C ) :   1.1117 B( 17-C , 18-C ) :   1.6635
B( 17-C , 33-H ) :   0.9627 B( 18-C , 19-C ) :   1.1662 B( 18-C , 21-H ) :   0.9931
B( 19-C , 20-C ) :   1.6758 B( 19-C , 22-C ) :   1.0401 B( 22-C , 23-H ) :   0.9330
B( 22-C , 24-H ) :   0.9139 B( 22-C , 25-C ) :   1.0697 B( 25-C , 26-H ) :   0.9560
B( 25-C , 27-H ) :   0.9540 B( 25-C , 28-C ) :   1.0667 B( 28-C , 29-H ) :   0.9744
B( 28-C , 30-H ) :   0.9704 B( 28-C , 31-H ) :   0.9762

Dispersion correction           -0.016446437
FINAL SINGLE POINT ENERGY     -1339.850979412973

DIPOLE MOMENT
-------------
                                X             Y             Z
Electronic contribution:     -1.39187       9.62501     -20.62956
Nuclear contribution   :      1.34768     -10.08919      20.99268
                        -----------------------------------------
Total Dipole Moment    :     -0.04418      -0.46419       0.36312
                        -----------------------------------------
Magnitude (a.u.)       :      0.59100
Magnitude (Debye)      :      1.50219

Rotational constants in cm-1:     0.021635     0.008806     0.007643
Rotational constants in MHz :   648.608379   264.006673   229.121945

                             ****ORCA TERMINATED NORMALLY****
TOTAL RUN TIME: 0 days 0 hours 0 minutes 22 seconds 913 msec
