                         Program Version 4.2.1 -  RELEASE  -
|  1> ! wB97X-D3 SP def2-SVP
|  2> %pal
|  3> nprocs 24
|  4> end
|  5>
|  6> * xyz 0 1
|  7> S 	 -100.186 	 -3.42631 	 -111.693
|  8> C 	 -101.543 	 -3.78101 	 -112.813
|  9> C 	 -102.792 	 -3.80923 	 -112.235
| 10> C 	 -102.639 	 -3.23948 	 -110.882
| 11> C 	 -101.35 	 -2.99335 	 -110.414
| 12> H 	 -103.352 	 -3.06298 	 -110.112
| 13> C 	 -104.066 	 -4.16516 	 -112.935
| 14> H 	 -104.334 	 -3.345 	 -113.653
| 15> H 	 -104.826 	 -3.97638 	 -112.09
| 16> C 	 -104.115 	 -5.54483 	 -113.566
| 17> H 	 -103.205 	 -5.5584 	 -114.207
| 18> H 	 -104.041 	 -6.3083 	 -112.814
| 19> C 	 -105.414 	 -5.84084 	 -114.242
| 20> H 	 -105.495 	 -6.88882 	 -114.628
| 21> H 	 -106.285 	 -5.75452 	 -113.517
| 22> H 	 -105.643 	 -5.16823 	 -115.06
| 23> S 	 -99.4865 	 -3.49313 	 -108.503
| 24> C 	 -99.4209 	 -2.66678 	 -106.907
| 25> C 	 -100.509 	 -1.77673 	 -106.865
| 26> C 	 -101.27 	 -1.63663 	 -108.106
| 27> C 	 -100.934 	 -2.61949 	 -109.041
| 28> H 	 -100.856 	 -1.20168 	 -106.017
| 29> C 	 -102.48 	 -0.730724 	 -108.147
| 30> H 	 -103.248 	 -1.00642 	 -107.403
| 31> H 	 -102.872 	 -1.01733 	 -109.096
| 32> C 	 -102.276 	 0.74211 	 -107.928
| 33> H 	 -101.612 	 0.942058 	 -107.015
| 34> H 	 -103.301 	 1.11506 	 -107.494
| 35> C 	 -101.86 	 1.59223 	 -109.149
| 36> H 	 -101.822 	 2.53278 	 -108.757
| 37> H 	 -102.674 	 1.54124 	 -109.883
| 38> H 	 -100.868 	 1.39598 	 -109.636
| 39> H 	 -101.372 	 -4.11412 	 -113.792
| 40> H 	 -98.7284 	 -2.90014 	 -106.093
| 41> *
| 42>
| 43>                          ****END OF INPUT****

CARTESIAN COORDINATES (ANGSTROEM)
---------------------------------
  S    -100.186000   -3.426310  -111.693000
  C    -101.543000   -3.781010  -112.813000
  C    -102.792000   -3.809230  -112.235000
  C    -102.639000   -3.239480  -110.882000
  C    -101.350000   -2.993350  -110.414000
  H    -103.352000   -3.062980  -110.112000
  C    -104.066000   -4.165160  -112.935000
  H    -104.334000   -3.345000  -113.653000
  H    -104.826000   -3.976380  -112.090000
  C    -104.115000   -5.544830  -113.566000
  H    -103.205000   -5.558400  -114.207000
  H    -104.041000   -6.308300  -112.814000
  C    -105.414000   -5.840840  -114.242000
  H    -105.495000   -6.888820  -114.628000
  H    -106.285000   -5.754520  -113.517000
  H    -105.643000   -5.168230  -115.060000
  S    -99.486500   -3.493130  -108.503000
  C    -99.420900   -2.666780  -106.907000
  C    -100.509000   -1.776730  -106.865000
  C    -101.270000   -1.636630  -108.106000
  C    -100.934000   -2.619490  -109.041000
  H    -100.856000   -1.201680  -106.017000
  C    -102.480000   -0.730724  -108.147000
  H    -103.248000   -1.006420  -107.403000
  H    -102.872000   -1.017330  -109.096000
  C    -102.276000    0.742110  -107.928000
  H    -101.612000    0.942058  -107.015000
  H    -103.301000    1.115060  -107.494000
  C    -101.860000    1.592230  -109.149000
  H    -101.822000    2.532780  -108.757000
  H    -102.674000    1.541240  -109.883000
  H    -100.868000    1.395980  -109.636000
  H    -101.372000   -4.114120  -113.792000
  H    -98.728400   -2.900140  -106.093000

 Total Charge           Charge          ....    0
 Multiplicity           Mult            ....    1
 Number of Electrons    NEL             ....  134
 Basis Dimension        Dim             ....  322

ORBITAL ENERGIES
----------------

  NO   OCC          E(Eh)            E(eV)
   0   2.0000     -88.966775     -2420.9090
   1   2.0000     -88.963357     -2420.8160
   2   2.0000     -10.336860      -281.2803
   3   2.0000     -10.336437      -281.2687
   4   2.0000     -10.328219      -281.0451
   5   2.0000     -10.314950      -280.6841
   6   2.0000     -10.309574      -280.5378
   7   2.0000     -10.306208      -280.4462
   8   2.0000     -10.303838      -280.3817
   9   2.0000     -10.299992      -280.2770
  10   2.0000     -10.299884      -280.2741
  11   2.0000     -10.299759      -280.2707
  12   2.0000     -10.291488      -280.0456
  13   2.0000     -10.287802      -279.9453
  14   2.0000     -10.286458      -279.9087
  15   2.0000     -10.273786      -279.5639
  16   2.0000      -8.080292      -219.8759
  17   2.0000      -8.077153      -219.7905
  18   2.0000      -6.039043      -164.3307
  19   2.0000      -6.035935      -164.2461
  20   2.0000      -6.035077      -164.2228
  21   2.0000      -6.031691      -164.1307
  22   2.0000      -6.030732      -164.1045
  23   2.0000      -6.027750      -164.0234
  24   2.0000      -0.996816       -27.1248
  25   2.0000      -0.973905       -26.5013
  26   2.0000      -0.918852       -25.0032
  27   2.0000      -0.908086       -24.7103
  28   2.0000      -0.869237       -23.6531
  29   2.0000      -0.848817       -23.0975
  30   2.0000      -0.841240       -22.8913
  31   2.0000      -0.814564       -22.1654
  32   2.0000      -0.782756       -21.2999
  33   2.0000      -0.774832       -21.0842
  34   2.0000      -0.708827       -19.2882
  35   2.0000      -0.700843       -19.0709
  36   2.0000      -0.692222       -18.8363
  37   2.0000      -0.658254       -17.9120
  38   2.0000      -0.645835       -17.5741
  39   2.0000      -0.609710       -16.5911
  40   2.0000      -0.593464       -16.1490
  41   2.0000      -0.571061       -15.5394
  42   2.0000      -0.563682       -15.3386
  43   2.0000      -0.552144       -15.0246
  44   2.0000      -0.533252       -14.5105
  45   2.0000      -0.528479       -14.3806
  46   2.0000      -0.525803       -14.3078
  47   2.0000      -0.512892       -13.9565
  48   2.0000      -0.506032       -13.7698
  49   2.0000      -0.498579       -13.5670
  50   2.0000      -0.494297       -13.4505
  51   2.0000      -0.476400       -12.9635
  52   2.0000      -0.464634       -12.6433
  53   2.0000      -0.463279       -12.6065
  54   2.0000      -0.453647       -12.3444
  55   2.0000      -0.451312       -12.2808
  56   2.0000      -0.438512       -11.9325
  57   2.0000      -0.436471       -11.8770
  58   2.0000      -0.432798       -11.7770
  59   2.0000      -0.427056       -11.6208
  60   2.0000      -0.421371       -11.4661
  61   2.0000      -0.414438       -11.2774
  62   2.0000      -0.399715       -10.8768
  63   2.0000      -0.351155        -9.5554
  64   2.0000      -0.329811        -8.9746
  65   2.0000      -0.325545        -8.8585
  66   2.0000      -0.291387        -7.9290
  67   0.0000       0.024942         0.6787
  68   0.0000       0.064699         1.7605
  69   0.0000       0.097667         2.6577
  70   0.0000       0.111744         3.0407
  71   0.0000       0.127607         3.4724

MULLIKEN ATOMIC CHARGES
-----------------------
   0 S :    0.100313
   1 C :   -0.106531
   2 C :   -0.060804
   3 C :    0.026137
   4 C :   -0.138895
   5 H :    0.002114
   6 C :    0.012243
   7 H :    0.053264
   8 H :    0.028391
   9 C :   -0.047730
  10 H :    0.036247
  11 H :    0.032291
  12 C :   -0.061089
  13 H :    0.044249
  14 H :    0.034781
  15 H :    0.028189
  16 S :    0.070413
  17 C :   -0.092506
  18 C :   -0.019717
  19 C :   -0.054982
  20 C :   -0.149871
  21 H :    0.020284
  22 C :    0.088382
  23 H :    0.038214
  24 H :   -0.006223
  25 C :   -0.150488
  26 H :    0.035410
  27 H :    0.031190
  28 C :   -0.001687
  29 H :    0.013237
  30 H :    0.033550
  31 H :    0.055290
  32 H :    0.031298
  33 H :    0.075037
Sum of atomic charges:   -0.0000000

LOEWDIN ATOMIC CHARGES
----------------------
   0 S :    0.369521
   1 C :   -0.166152
   2 C :   -0.059938
   3 C :   -0.061396
   4 C :   -0.187203
   5 H :    0.022547
   6 C :   -0.043069
   7 H :    0.040802
   8 H :    0.037098
   9 C :   -0.042865
  10 H :    0.029046
  11 H :    0.029288
  12 C :   -0.070892
  13 H :    0.032670
  14 H :    0.033201
  15 H :    0.020551
  16 S :    0.374275
  17 C :   -0.176734
  18 C :   -0.064055
  19 C :   -0.061206
  20 C :   -0.181596
  21 H :    0.027027
  22 C :   -0.042229
  23 H :    0.038491
  24 H :    0.023895
  25 C :   -0.050817
  26 H :    0.027571
  27 H :    0.032822
  28 C :   -0.060669
  29 H :    0.014532
  30 H :    0.028435
  31 H :    0.036947
  32 H :    0.012782
  33 H :    0.037320

  Mayer bond orders larger than 0.100000
B(  0-S ,  1-C ) :   1.1280 B(  0-S ,  4-C ) :   1.1143 B(  1-C ,  2-C ) :   1.6371
B(  1-C , 32-H ) :   0.9700 B(  2-C ,  3-C ) :   1.1949 B(  2-C ,  6-C ) :   1.0163
B(  3-C ,  4-C ) :   1.6235 B(  3-C ,  5-H ) :   0.9855 B(  4-C , 20-C ) :   1.0397
B(  6-C ,  7-H ) :   0.9392 B(  6-C ,  8-H ) :   0.9395 B(  6-C ,  9-C ) :   1.0520
B(  9-C , 10-H ) :   0.9550 B(  9-C , 11-H ) :   0.9516 B(  9-C , 12-C ) :   1.0911
B( 12-C , 13-H ) :   0.9731 B( 12-C , 14-H ) :   0.9696 B( 12-C , 15-H ) :   0.9734
B( 16-S , 17-C ) :   1.1303 B( 16-S , 20-C ) :   1.1287 B( 17-C , 18-C ) :   1.6040
B( 17-C , 33-H ) :   0.9710 B( 18-C , 19-C ) :   1.2276 B( 18-C , 21-H ) :   0.9801
B( 19-C , 20-C ) :   1.5960 B( 19-C , 22-C ) :   1.0424 B( 22-C , 23-H ) :   0.9403
B( 22-C , 24-H ) :   0.9304 B( 22-C , 25-C ) :   1.0609 B( 25-C , 26-H ) :   0.9548
B( 25-C , 27-H ) :   0.9550 B( 25-C , 28-C ) :   1.0719 B( 28-C , 29-H ) :   0.9708
B( 28-C , 30-H ) :   0.9729 B( 28-C , 31-H ) :   0.9751

Dispersion correction           -0.013184781
FINAL SINGLE POINT ENERGY     -1339.855761795480

DIPOLE MOMENT
-------------
                                X             Y             Z
Electronic contribution:     22.70596      -7.19137       6.81628
Nuclear contribution   :    -23.42789       7.31421      -6.77196
                        -----------------------------------------
Total Dipole Moment    :     -0.72193       0.12284       0.04431
                        -----------------------------------------
Magnitude (a.u.)       :      0.73365
Magnitude (Debye)      :      1.86478

Rotational constants in cm-1:     0.020795     0.007032     0.005997
Rotational constants in MHz :   623.408283   210.819538   179.778778

                             ****ORCA TERMINATED NORMALLY****
TOTAL RUN TIME: 0 days 0 hours 0 minutes 20 seconds 694 msec
