                         Program Version 4.2.1 -  RELEASE  -
|  1> ! wB97X-D3 SP def2-SVP
|  2> %pal
|  3> nprocs 24
|  4> end
|  5>
|  6> * xyz 0 1
|  7> S 	 -85.6517 	 2.45777 	 -112.984
|  8> C 	 -85.346 	 4.19331 	 -113.099
|  9> C 	 -85.7844 	 4.63931 	 -114.34
| 10> C 	 -86.2195 	 3.56927 	 -115.244
| 11> C 	 -86.1457 	 2.3192 	 -114.658
| 12> H 	 -86.5636 	 3.68469 	 -116.246
| 13> C 	 -85.8974 	 6.12752 	 -114.71
| 14> H 	 -85.9296 	 6.65799 	 -113.727
| 15> H 	 -86.8751 	 6.20077 	 -115.114
| 16> C 	 -84.7367 	 6.79312 	 -115.618
| 17> H 	 -84.9063 	 7.83565 	 -115.644
| 18> H 	 -83.8695 	 6.6176 	 -114.993
| 19> C 	 -84.617 	 6.22679 	 -117.002
| 20> H 	 -85.51 	 6.65002 	 -117.468
| 21> H 	 -83.8782 	 6.5625 	 -117.694
| 22> H 	 -84.5724 	 5.17564 	 -116.903
| 23> S 	 -87.8172 	 0.273423 	 -114.077
| 24> C 	 -88.2324 	 -0.904736 	 -115.266
| 25> C 	 -87.6391 	 -0.667453 	 -116.497
| 26> C 	 -86.7755 	 0.49358 	 -116.509
| 27> C 	 -86.7345 	 1.10647 	 -115.243
| 28> H 	 -87.8279 	 -1.40634 	 -117.326
| 29> C 	 -86.0893 	 0.933052 	 -117.81
| 30> H 	 -85.806 	 0.0295053 	 -118.357
| 31> H 	 -85.1293 	 1.36222 	 -117.506
| 32> C 	 -86.9719 	 1.82462 	 -118.713
| 33> H 	 -87.4642 	 2.6274 	 -118.166
| 34> H 	 -87.7238 	 1.04577 	 -119.103
| 35> C 	 -86.1922 	 2.48121 	 -119.839
| 36> H 	 -85.397 	 3.15176 	 -119.49
| 37> H 	 -86.9343 	 2.98861 	 -120.559
| 38> H 	 -85.5864 	 1.71607 	 -120.342
| 39> H 	 -85.0464 	 4.88664 	 -112.302
| 40> H 	 -88.9752 	 -1.77123 	 -115.112
| 41> *
| 42>
| 43>                          ****END OF INPUT****

CARTESIAN COORDINATES (ANGSTROEM)
---------------------------------
  S    -85.651700    2.457770  -112.984000
  C    -85.346000    4.193310  -113.099000
  C    -85.784400    4.639310  -114.340000
  C    -86.219500    3.569270  -115.244000
  C    -86.145700    2.319200  -114.658000
  H    -86.563600    3.684690  -116.246000
  C    -85.897400    6.127520  -114.710000
  H    -85.929600    6.657990  -113.727000
  H    -86.875100    6.200770  -115.114000
  C    -84.736700    6.793120  -115.618000
  H    -84.906300    7.835650  -115.644000
  H    -83.869500    6.617600  -114.993000
  C    -84.617000    6.226790  -117.002000
  H    -85.510000    6.650020  -117.468000
  H    -83.878200    6.562500  -117.694000
  H    -84.572400    5.175640  -116.903000
  S    -87.817200    0.273423  -114.077000
  C    -88.232400   -0.904736  -115.266000
  C    -87.639100   -0.667453  -116.497000
  C    -86.775500    0.493580  -116.509000
  C    -86.734500    1.106470  -115.243000
  H    -87.827900   -1.406340  -117.326000
  C    -86.089300    0.933052  -117.810000
  H    -85.806000    0.029505  -118.357000
  H    -85.129300    1.362220  -117.506000
  C    -86.971900    1.824620  -118.713000
  H    -87.464200    2.627400  -118.166000
  H    -87.723800    1.045770  -119.103000
  C    -86.192200    2.481210  -119.839000
  H    -85.397000    3.151760  -119.490000
  H    -86.934300    2.988610  -120.559000
  H    -85.586400    1.716070  -120.342000
  H    -85.046400    4.886640  -112.302000
  H    -88.975200   -1.771230  -115.112000

 Total Charge           Charge          ....    0
 Multiplicity           Mult            ....    1
 Number of Electrons    NEL             ....  134
 Basis Dimension        Dim             ....  322

ORBITAL ENERGIES
----------------

  NO   OCC          E(Eh)            E(eV)
   0   2.0000     -88.968079     -2420.9445
   1   2.0000     -88.965639     -2420.8781
   2   2.0000     -10.334867      -281.2260
   3   2.0000     -10.333595      -281.1914
   4   2.0000     -10.321873      -280.8724
   5   2.0000     -10.319328      -280.8032
   6   2.0000     -10.312271      -280.6112
   7   2.0000     -10.306711      -280.4599
   8   2.0000     -10.299353      -280.2596
   9   2.0000     -10.296735      -280.1884
  10   2.0000     -10.296678      -280.1868
  11   2.0000     -10.296265      -280.1756
  12   2.0000     -10.295748      -280.1615
  13   2.0000     -10.287411      -279.9347
  14   2.0000     -10.287080      -279.9257
  15   2.0000     -10.271676      -279.5065
  16   2.0000      -8.082316      -219.9310
  17   2.0000      -8.080275      -219.8755
  18   2.0000      -6.041034      -164.3849
  19   2.0000      -6.038775      -164.3234
  20   2.0000      -6.036875      -164.2717
  21   2.0000      -6.034804      -164.2154
  22   2.0000      -6.032870      -164.1627
  23   2.0000      -6.031017      -164.1123
  24   2.0000      -1.002572       -27.2814
  25   2.0000      -0.978607       -26.6293
  26   2.0000      -0.909966       -24.7614
  27   2.0000      -0.905643       -24.6438
  28   2.0000      -0.869092       -23.6492
  29   2.0000      -0.852431       -23.1958
  30   2.0000      -0.844105       -22.9693
  31   2.0000      -0.813263       -22.1300
  32   2.0000      -0.781426       -21.2637
  33   2.0000      -0.770529       -20.9672
  34   2.0000      -0.705409       -19.1952
  35   2.0000      -0.701778       -19.0964
  36   2.0000      -0.690504       -18.7896
  37   2.0000      -0.657612       -17.8945
  38   2.0000      -0.636359       -17.3162
  39   2.0000      -0.613034       -16.6815
  40   2.0000      -0.588761       -16.0210
  41   2.0000      -0.574688       -15.6381
  42   2.0000      -0.565757       -15.3950
  43   2.0000      -0.549091       -14.9415
  44   2.0000      -0.542460       -14.7611
  45   2.0000      -0.529919       -14.4198
  46   2.0000      -0.514313       -13.9952
  47   2.0000      -0.510563       -13.8931
  48   2.0000      -0.500240       -13.6122
  49   2.0000      -0.498955       -13.5773
  50   2.0000      -0.492632       -13.4052
  51   2.0000      -0.484827       -13.1928
  52   2.0000      -0.471769       -12.8375
  53   2.0000      -0.462650       -12.5894
  54   2.0000      -0.458220       -12.4688
  55   2.0000      -0.446794       -12.1579
  56   2.0000      -0.441767       -12.0211
  57   2.0000      -0.438274       -11.9260
  58   2.0000      -0.433951       -11.8084
  59   2.0000      -0.424237       -11.5441
  60   2.0000      -0.418105       -11.3772
  61   2.0000      -0.415701       -11.3118
  62   2.0000      -0.411038       -11.1849
  63   2.0000      -0.352742        -9.5986
  64   2.0000      -0.332044        -9.0354
  65   2.0000      -0.326914        -8.8958
  66   2.0000      -0.289741        -7.8843
  67   0.0000       0.026340         0.7167
  68   0.0000       0.070595         1.9210
  69   0.0000       0.106542         2.8992
  70   0.0000       0.119414         3.2494
  71   0.0000       0.125754         3.4219

MULLIKEN ATOMIC CHARGES
-----------------------
   0 S :    0.102255
   1 C :   -0.116144
   2 C :   -0.121451
   3 C :    0.039696
   4 C :   -0.114833
   5 H :   -0.007520
   6 C :    0.034709
   7 H :    0.024479
   8 H :    0.024095
   9 C :   -0.032905
  10 H :    0.024435
  11 H :    0.021638
  12 C :   -0.032444
  13 H :    0.020750
  14 H :    0.031005
  15 H :    0.037368
  16 S :    0.098190
  17 C :   -0.115559
  18 C :   -0.067034
  19 C :   -0.042076
  20 C :   -0.156366
  21 H :    0.039949
  22 C :    0.049995
  23 H :    0.025010
  24 H :    0.026077
  25 C :   -0.085519
  26 H :    0.043029
  27 H :    0.042974
  28 C :   -0.055920
  29 H :    0.036626
  30 H :    0.058143
  31 H :    0.022458
  32 H :    0.060650
  33 H :    0.084242
Sum of atomic charges:   -0.0000000

LOEWDIN ATOMIC CHARGES
----------------------
   0 S :    0.396881
   1 C :   -0.202176
   2 C :   -0.061760
   3 C :   -0.063135
   4 C :   -0.195280
   5 H :    0.024429
   6 C :   -0.029217
   7 H :    0.034401
   8 H :    0.022874
   9 C :   -0.027908
  10 H :    0.017478
  11 H :    0.019768
  12 C :   -0.067107
  13 H :    0.030552
  14 H :    0.025368
  15 H :    0.021896
  16 S :    0.398127
  17 C :   -0.208020
  18 C :   -0.086660
  19 C :   -0.053550
  20 C :   -0.177203
  21 H :    0.040964
  22 C :   -0.034866
  23 H :    0.031791
  24 H :    0.028045
  25 C :   -0.044370
  26 H :    0.021451
  27 H :    0.036267
  28 C :   -0.075011
  29 H :    0.027006
  30 H :    0.039293
  31 H :    0.023892
  32 H :    0.038019
  33 H :    0.047761

  Mayer bond orders larger than 0.100000
B(  0-S ,  1-C ) :   1.1168 B(  0-S ,  4-C ) :   1.1493 B(  1-C ,  2-C ) :   1.6300
B(  1-C , 32-H ) :   0.9644 B(  2-C ,  3-C ) :   1.2220 B(  2-C ,  6-C ) :   1.0165
B(  3-C ,  4-C ) :   1.5643 B(  3-C ,  5-H ) :   0.9969 B(  4-C , 20-C ) :   1.0421
B(  6-C ,  7-H ) :   0.9448 B(  6-C ,  8-H ) :   0.9443 B(  6-C ,  9-C ) :   1.0495
B(  9-C , 10-H ) :   0.9611 B(  9-C , 11-H ) :   0.9558 B(  9-C , 12-C ) :   1.0731
B( 12-C , 13-H ) :   0.9748 B( 12-C , 14-H ) :   0.9722 B( 12-C , 15-H ) :   0.9745
B( 16-S , 17-C ) :   1.1559 B( 16-S , 20-C ) :   1.1354 B( 17-C , 18-C ) :   1.6310
B( 17-C , 33-H ) :   0.9532 B( 18-C , 19-C ) :   1.2267 B( 18-C , 21-H ) :   0.9790
B( 19-C , 20-C ) :   1.6100 B( 19-C , 22-C ) :   1.0420 B( 22-C , 23-H ) :   0.9337
B( 22-C , 24-H ) :   0.9390 B( 22-C , 25-C ) :   1.0494 B( 25-C , 26-H ) :   0.9578
B( 25-C , 27-H ) :   0.9506 B( 25-C , 28-C ) :   1.0831 B( 28-C , 29-H ) :   0.9729
B( 28-C , 30-H ) :   0.9720 B( 28-C , 31-H ) :   0.9687

Dispersion correction           -0.014583791
FINAL SINGLE POINT ENERGY     -1339.869654584717

DIPOLE MOMENT
-------------
                                X             Y             Z
Electronic contribution:     -6.02872     -17.80972      25.44945
Nuclear contribution   :      5.94118      18.16758     -26.05520
                        -----------------------------------------
Total Dipole Moment    :     -0.08753       0.35786      -0.60575
                        -----------------------------------------
Magnitude (a.u.)       :      0.70899
Magnitude (Debye)      :      1.80210

Rotational constants in cm-1:     0.016459     0.010320     0.006691
Rotational constants in MHz :   493.436171   309.370982   200.587768

                             ****ORCA TERMINATED NORMALLY****
TOTAL RUN TIME: 0 days 0 hours 0 minutes 21 seconds 909 msec
