                         Program Version 4.2.1 -  RELEASE  -
|  1> ! wB97X-D3 SP def2-SVP
|  2> %pal
|  3> nprocs 24
|  4> end
|  5>
|  6> * xyz 0 1
|  7> S 	 -111.059 	 54.4759 	 -77.3683
|  8> C 	 -112.04 	 53.7063 	 -78.5866
|  9> C 	 -111.92 	 52.3329 	 -78.5788
| 10> C 	 -111.097 	 51.9383 	 -77.4438
| 11> C 	 -110.477 	 52.9717 	 -76.7571
| 12> H 	 -110.856 	 50.9641 	 -77.0471
| 13> C 	 -112.636 	 51.4056 	 -79.5434
| 14> H 	 -113.62 	 51.8749 	 -79.7915
| 15> H 	 -112.853 	 50.5041 	 -78.9982
| 16> C 	 -111.846 	 50.967 	 -80.8199
| 17> H 	 -110.884 	 50.5755 	 -80.5876
| 18> H 	 -112.456 	 50.1327 	 -81.2051
| 19> C 	 -111.643 	 51.9331 	 -81.9902
| 20> H 	 -112.63 	 52.1134 	 -82.5693
| 21> H 	 -111.164 	 52.8846 	 -81.8309
| 22> H 	 -111.034 	 51.4781 	 -82.7179
| 23> S 	 -108.373 	 51.3771 	 -76.1392
| 24> C 	 -107.137 	 51.8763 	 -74.9016
| 25> C 	 -107.503 	 53.098 	 -74.3637
| 26> C 	 -108.758 	 53.618 	 -74.9133
| 27> C 	 -109.324 	 52.8181 	 -75.8422
| 28> H 	 -106.946 	 53.4686 	 -73.536
| 29> C 	 -109.434 	 54.8984 	 -74.3837
| 30> H 	 -109.6 	 55.5819 	 -75.2482
| 31> H 	 -108.676 	 55.3647 	 -73.8375
| 32> C 	 -110.679 	 54.6998 	 -73.4711
| 33> H 	 -110.24 	 54.3768 	 -72.5426
| 34> H 	 -111.313 	 53.9171 	 -73.7711
| 35> C 	 -111.377 	 56.0446 	 -73.1586
| 36> H 	 -110.636 	 56.8073 	 -72.983
| 37> H 	 -112.153 	 56.0359 	 -72.3633
| 38> H 	 -111.958 	 56.4521 	 -74.0012
| 39> H 	 -112.551 	 54.2224 	 -79.4731
| 40> H 	 -106.28 	 51.3734 	 -74.5942
| 41> *
| 42>
| 43>                          ****END OF INPUT****

CARTESIAN COORDINATES (ANGSTROEM)
---------------------------------
  S    -111.059000   54.475900  -77.368300
  C    -112.040000   53.706300  -78.586600
  C    -111.920000   52.332900  -78.578800
  C    -111.097000   51.938300  -77.443800
  C    -110.477000   52.971700  -76.757100
  H    -110.856000   50.964100  -77.047100
  C    -112.636000   51.405600  -79.543400
  H    -113.620000   51.874900  -79.791500
  H    -112.853000   50.504100  -78.998200
  C    -111.846000   50.967000  -80.819900
  H    -110.884000   50.575500  -80.587600
  H    -112.456000   50.132700  -81.205100
  C    -111.643000   51.933100  -81.990200
  H    -112.630000   52.113400  -82.569300
  H    -111.164000   52.884600  -81.830900
  H    -111.034000   51.478100  -82.717900
  S    -108.373000   51.377100  -76.139200
  C    -107.137000   51.876300  -74.901600
  C    -107.503000   53.098000  -74.363700
  C    -108.758000   53.618000  -74.913300
  C    -109.324000   52.818100  -75.842200
  H    -106.946000   53.468600  -73.536000
  C    -109.434000   54.898400  -74.383700
  H    -109.600000   55.581900  -75.248200
  H    -108.676000   55.364700  -73.837500
  C    -110.679000   54.699800  -73.471100
  H    -110.240000   54.376800  -72.542600
  H    -111.313000   53.917100  -73.771100
  C    -111.377000   56.044600  -73.158600
  H    -110.636000   56.807300  -72.983000
  H    -112.153000   56.035900  -72.363300
  H    -111.958000   56.452100  -74.001200
  H    -112.551000   54.222400  -79.473100
  H    -106.280000   51.373400  -74.594200

 Total Charge           Charge          ....    0
 Multiplicity           Mult            ....    1
 Number of Electrons    NEL             ....  134
 Basis Dimension        Dim             ....  322

ORBITAL ENERGIES
----------------

  NO   OCC          E(Eh)            E(eV)
   0   2.0000     -88.967459     -2420.9276
   1   2.0000     -88.964968     -2420.8598
   2   2.0000     -10.330727      -281.1134
   3   2.0000     -10.328225      -281.0453
   4   2.0000     -10.320059      -280.8231
   5   2.0000     -10.317190      -280.7450
   6   2.0000     -10.304944      -280.4118
   7   2.0000     -10.303535      -280.3734
   8   2.0000     -10.299042      -280.2512
   9   2.0000     -10.298150      -280.2269
  10   2.0000     -10.294891      -280.1382
  11   2.0000     -10.290844      -280.0281
  12   2.0000     -10.289978      -280.0045
  13   2.0000     -10.282455      -279.7998
  14   2.0000     -10.278439      -279.6906
  15   2.0000     -10.277790      -279.6729
  16   2.0000      -8.082180      -219.9273
  17   2.0000      -8.078609      -219.8301
  18   2.0000      -6.040756      -164.3773
  19   2.0000      -6.037410      -164.2863
  20   2.0000      -6.036580      -164.2637
  21   2.0000      -6.033329      -164.1752
  22   2.0000      -6.032991      -164.1660
  23   2.0000      -6.029047      -164.0587
  24   2.0000      -1.006857       -27.3980
  25   2.0000      -0.980857       -26.6905
  26   2.0000      -0.907407       -24.6918
  27   2.0000      -0.902720       -24.5643
  28   2.0000      -0.870720       -23.6935
  29   2.0000      -0.850979       -23.1563
  30   2.0000      -0.841138       -22.8885
  31   2.0000      -0.815181       -22.1822
  32   2.0000      -0.785975       -21.3875
  33   2.0000      -0.771785       -21.0013
  34   2.0000      -0.710857       -19.3434
  35   2.0000      -0.702588       -19.1184
  36   2.0000      -0.690748       -18.7962
  37   2.0000      -0.673156       -18.3175
  38   2.0000      -0.635034       -17.2802
  39   2.0000      -0.611319       -16.6348
  40   2.0000      -0.588807       -16.0223
  41   2.0000      -0.571719       -15.5573
  42   2.0000      -0.562260       -15.2999
  43   2.0000      -0.544077       -14.8051
  44   2.0000      -0.539461       -14.6795
  45   2.0000      -0.526856       -14.3365
  46   2.0000      -0.518630       -14.1126
  47   2.0000      -0.512669       -13.9504
  48   2.0000      -0.505259       -13.7488
  49   2.0000      -0.489980       -13.3330
  50   2.0000      -0.487774       -13.2730
  51   2.0000      -0.481201       -13.0942
  52   2.0000      -0.474096       -12.9008
  53   2.0000      -0.465241       -12.6599
  54   2.0000      -0.458054       -12.4643
  55   2.0000      -0.448679       -12.2092
  56   2.0000      -0.442263       -12.0346
  57   2.0000      -0.437956       -11.9174
  58   2.0000      -0.432498       -11.7689
  59   2.0000      -0.425033       -11.5657
  60   2.0000      -0.419503       -11.4153
  61   2.0000      -0.416262       -11.3271
  62   2.0000      -0.409093       -11.1320
  63   2.0000      -0.358938        -9.7672
  64   2.0000      -0.330953        -9.0057
  65   2.0000      -0.327852        -8.9213
  66   2.0000      -0.289636        -7.8814
  67   0.0000       0.023786         0.6473
  68   0.0000       0.078723         2.1422
  69   0.0000       0.103265         2.8100
  70   0.0000       0.123380         3.3573
  71   0.0000       0.128231         3.4893

MULLIKEN ATOMIC CHARGES
-----------------------
   0 S :    0.103644
   1 C :   -0.136502
   2 C :   -0.087606
   3 C :   -0.014314
   4 C :   -0.116933
   5 H :    0.012637
   6 C :    0.070378
   7 H :    0.034239
   8 H :    0.022429
   9 C :   -0.052242
  10 H :    0.026417
  11 H :    0.032094
  12 C :   -0.059144
  13 H :    0.030094
  14 H :    0.036606
  15 H :    0.020572
  16 S :    0.073531
  17 C :   -0.066933
  18 C :   -0.015903
  19 C :   -0.103468
  20 C :   -0.096336
  21 H :    0.015050
  22 C :    0.052281
  23 H :    0.039181
  24 H :   -0.003359
  25 C :   -0.009083
  26 H :    0.018168
  27 H :    0.031586
  28 C :   -0.060812
  29 H :    0.024392
  30 H :    0.038805
  31 H :    0.028665
  32 H :    0.077304
  33 H :    0.034563
Sum of atomic charges:    0.0000000

LOEWDIN ATOMIC CHARGES
----------------------
   0 S :    0.423016
   1 C :   -0.214847
   2 C :   -0.064423
   3 C :   -0.075807
   4 C :   -0.199499
   5 H :    0.020973
   6 C :   -0.030575
   7 H :    0.036972
   8 H :    0.032258
   9 C :   -0.035295
  10 H :    0.022266
  11 H :    0.031087
  12 C :   -0.072778
  13 H :    0.031455
  14 H :    0.022330
  15 H :    0.022133
  16 S :    0.380223
  17 C :   -0.154716
  18 C :   -0.060140
  19 C :   -0.065117
  20 C :   -0.182147
  21 H :    0.028551
  22 C :   -0.032041
  23 H :    0.026017
  24 H :    0.019918
  25 C :   -0.029063
  26 H :    0.025416
  27 H :    0.018982
  28 C :   -0.069851
  29 H :    0.022604
  30 H :    0.029504
  31 H :    0.026100
  32 H :    0.047264
  33 H :    0.019230

  Mayer bond orders larger than 0.100000
B(  0-S ,  1-C ) :   1.1379 B(  0-S ,  4-C ) :   1.1466 B(  1-C ,  2-C ) :   1.6288
B(  1-C , 32-H ) :   0.9514 B(  2-C ,  3-C ) :   1.2243 B(  2-C ,  6-C ) :   1.0232
B(  3-C ,  4-C ) :   1.5724 B(  3-C ,  5-H ) :   0.9878 B(  4-C , 20-C ) :   1.0566
B(  6-C ,  7-H ) :   0.9459 B(  6-C ,  8-H ) :   0.9363 B(  6-C ,  9-C ) :   1.0639
B(  9-C , 10-H ) :   0.9580 B(  9-C , 11-H ) :   0.9546 B(  9-C , 12-C ) :   1.0834
B( 12-C , 13-H ) :   0.9744 B( 12-C , 14-H ) :   0.9755 B( 12-C , 15-H ) :   0.9700
B( 16-S , 17-C ) :   1.1196 B( 16-S , 20-C ) :   1.1145 B( 17-C , 18-C ) :   1.6571
B( 17-C , 33-H ) :   0.9740 B( 18-C , 19-C ) :   1.2084 B( 18-C , 21-H ) :   0.9896
B( 19-C , 20-C ) :   1.6419 B( 19-C , 22-C ) :   1.0389 B( 22-C , 23-H ) :   0.9381
B( 22-C , 24-H ) :   0.9231 B( 22-C , 25-C ) :   1.0469 B( 25-C , 26-H ) :   0.9509
B( 25-C , 27-H ) :   0.9670 B( 25-C , 28-C ) :   1.0723 B( 28-C , 29-H ) :   0.9732
B( 28-C , 30-H ) :   0.9758 B( 28-C , 31-H ) :   0.9756

Dispersion correction           -0.014105339
FINAL SINGLE POINT ENERGY     -1339.872148664193

DIPOLE MOMENT
-------------
                                X             Y             Z
Electronic contribution:     10.28394      -3.74462       4.63561
Nuclear contribution   :    -10.29758       3.66509      -4.65111
                        -----------------------------------------
Total Dipole Moment    :     -0.01363      -0.07954      -0.01550
                        -----------------------------------------
Magnitude (a.u.)       :      0.08217
Magnitude (Debye)      :      0.20886

Rotational constants in cm-1:     0.020983     0.008260     0.006401
Rotational constants in MHz :   629.062786   247.622098   191.890511

                             ****ORCA TERMINATED NORMALLY****
TOTAL RUN TIME: 0 days 0 hours 0 minutes 19 seconds 999 msec
