                         Program Version 4.2.1 -  RELEASE  -
|  1> ! wB97X-D3 SP def2-SVP
|  2> %pal
|  3> nprocs 24
|  4> end
|  5>
|  6> * xyz 0 1
|  7> S 	 24.0663 	 0.729915 	 -109.854
|  8> C 	 23.2441 	 0.687935 	 -111.411
|  9> C 	 24.1233 	 1.0429 	 -112.448
| 10> C 	 25.4047 	 1.39313 	 -111.95
| 11> C 	 25.5255 	 1.23659 	 -110.581
| 12> H 	 26.2732 	 1.78755 	 -112.467
| 13> C 	 23.7857 	 1.18385 	 -113.919
| 14> H 	 24.1466 	 2.11723 	 -114.258
| 15> H 	 22.663 	 1.37028 	 -113.969
| 16> C 	 24.2722 	 -0.0558871 	 -114.791
| 17> H 	 25.3513 	 -0.00658385 	 -115.065
| 18> H 	 24.0001 	 -1.00349 	 -114.228
| 19> C 	 23.6937 	 0.170289 	 -116.241
| 20> H 	 24.2325 	 -0.647604 	 -116.782
| 21> H 	 22.6524 	 0.00553363 	 -116.123
| 22> H 	 23.8212 	 1.21902 	 -116.612
| 23> S 	 27.8611 	 0.251237 	 -109.849
| 24> C 	 28.9297 	 1.12836 	 -108.726
| 25> C 	 28.4056 	 2.33941 	 -108.386
| 26> C 	 27.0991 	 2.5693 	 -108.951
| 27> C 	 26.678 	 1.49669 	 -109.751
| 28> H 	 28.7954 	 3.03328 	 -107.727
| 29> C 	 26.2792 	 3.78916 	 -108.56
| 30> H 	 26.5021 	 3.92362 	 -107.492
| 31> H 	 25.2764 	 3.4871 	 -108.785
| 32> C 	 26.7186 	 5.12282 	 -109.156
| 33> H 	 26.7793 	 5.05358 	 -110.248
| 34> H 	 27.6888 	 5.34481 	 -108.862
| 35> C 	 25.7517 	 6.29218 	 -108.914
| 36> H 	 24.7973 	 6.03001 	 -109.33
| 37> H 	 26.1639 	 7.17118 	 -109.406
| 38> H 	 25.7589 	 6.44402 	 -107.877
| 39> H 	 22.1844 	 0.528794 	 -111.637
| 40> H 	 29.9189 	 0.869682 	 -108.397
| 41> *
| 42>
| 43>                          ****END OF INPUT****

CARTESIAN COORDINATES (ANGSTROEM)
---------------------------------
  S     24.066300    0.729915  -109.854000
  C     23.244100    0.687935  -111.411000
  C     24.123300    1.042900  -112.448000
  C     25.404700    1.393130  -111.950000
  C     25.525500    1.236590  -110.581000
  H     26.273200    1.787550  -112.467000
  C     23.785700    1.183850  -113.919000
  H     24.146600    2.117230  -114.258000
  H     22.663000    1.370280  -113.969000
  C     24.272200   -0.055887  -114.791000
  H     25.351300   -0.006584  -115.065000
  H     24.000100   -1.003490  -114.228000
  C     23.693700    0.170289  -116.241000
  H     24.232500   -0.647604  -116.782000
  H     22.652400    0.005534  -116.123000
  H     23.821200    1.219020  -116.612000
  S     27.861100    0.251237  -109.849000
  C     28.929700    1.128360  -108.726000
  C     28.405600    2.339410  -108.386000
  C     27.099100    2.569300  -108.951000
  C     26.678000    1.496690  -109.751000
  H     28.795400    3.033280  -107.727000
  C     26.279200    3.789160  -108.560000
  H     26.502100    3.923620  -107.492000
  H     25.276400    3.487100  -108.785000
  C     26.718600    5.122820  -109.156000
  H     26.779300    5.053580  -110.248000
  H     27.688800    5.344810  -108.862000
  C     25.751700    6.292180  -108.914000
  H     24.797300    6.030010  -109.330000
  H     26.163900    7.171180  -109.406000
  H     25.758900    6.444020  -107.877000
  H     22.184400    0.528794  -111.637000
  H     29.918900    0.869682  -108.397000

 Total Charge           Charge          ....    0
 Multiplicity           Mult            ....    1
 Number of Electrons    NEL             ....  134
 Basis Dimension        Dim             ....  322

ORBITAL ENERGIES
----------------

  NO   OCC          E(Eh)            E(eV)
   0   2.0000     -88.967893     -2420.9394
   1   2.0000     -88.963951     -2420.8322
   2   2.0000     -10.321904      -280.8733
   3   2.0000     -10.321212      -280.8545
   4   2.0000     -10.315755      -280.7060
   5   2.0000     -10.315405      -280.6964
   6   2.0000     -10.301677      -280.3229
   7   2.0000     -10.300466      -280.2899
   8   2.0000     -10.299918      -280.2750
   9   2.0000     -10.296221      -280.1744
  10   2.0000     -10.290230      -280.0114
  11   2.0000     -10.287889      -279.9477
  12   2.0000     -10.286708      -279.9156
  13   2.0000     -10.284598      -279.8581
  14   2.0000     -10.276590      -279.6402
  15   2.0000     -10.270878      -279.4848
  16   2.0000      -8.082688      -219.9411
  17   2.0000      -8.078685      -219.8322
  18   2.0000      -6.041093      -164.3865
  19   2.0000      -6.037324      -164.2839
  20   2.0000      -6.037086      -164.2775
  21   2.0000      -6.033645      -164.1838
  22   2.0000      -6.033040      -164.1674
  23   2.0000      -6.029452      -164.0697
  24   2.0000      -1.008746       -27.4494
  25   2.0000      -0.982324       -26.7304
  26   2.0000      -0.910696       -24.7813
  27   2.0000      -0.905206       -24.6319
  28   2.0000      -0.870377       -23.6842
  29   2.0000      -0.851856       -23.1802
  30   2.0000      -0.846586       -23.0368
  31   2.0000      -0.814044       -22.1513
  32   2.0000      -0.780380       -21.2352
  33   2.0000      -0.766173       -20.8486
  34   2.0000      -0.704228       -19.1630
  35   2.0000      -0.695808       -18.9339
  36   2.0000      -0.691520       -18.8172
  37   2.0000      -0.669022       -18.2050
  38   2.0000      -0.642283       -17.4774
  39   2.0000      -0.612779       -16.6746
  40   2.0000      -0.591307       -16.0903
  41   2.0000      -0.575739       -15.6667
  42   2.0000      -0.569617       -15.5001
  43   2.0000      -0.559505       -15.2249
  44   2.0000      -0.529956       -14.4208
  45   2.0000      -0.526346       -14.3226
  46   2.0000      -0.522327       -14.2132
  47   2.0000      -0.508866       -13.8469
  48   2.0000      -0.501886       -13.6570
  49   2.0000      -0.498416       -13.5626
  50   2.0000      -0.488786       -13.3005
  51   2.0000      -0.479124       -13.0376
  52   2.0000      -0.469361       -12.7720
  53   2.0000      -0.462747       -12.5920
  54   2.0000      -0.456923       -12.4335
  55   2.0000      -0.451513       -12.2863
  56   2.0000      -0.446948       -12.1621
  57   2.0000      -0.442295       -12.0354
  58   2.0000      -0.437649       -11.9090
  59   2.0000      -0.424148       -11.5416
  60   2.0000      -0.423518       -11.5245
  61   2.0000      -0.408851       -11.1254
  62   2.0000      -0.401434       -10.9236
  63   2.0000      -0.336991        -9.1700
  64   2.0000      -0.330748        -9.0001
  65   2.0000      -0.318833        -8.6759
  66   2.0000      -0.304674        -8.2906
  67   0.0000       0.045016         1.2250
  68   0.0000       0.060553         1.6477
  69   0.0000       0.117316         3.1923
  70   0.0000       0.117610         3.2003
  71   0.0000       0.126797         3.4503

MULLIKEN ATOMIC CHARGES
-----------------------
   0 S :    0.132158
   1 C :   -0.122909
   2 C :   -0.092520
   3 C :    0.057996
   4 C :   -0.193561
   5 H :    0.011771
   6 C :    0.052251
   7 H :    0.013169
   8 H :    0.022223
   9 C :   -0.118908
  10 H :    0.044874
  11 H :    0.061579
  12 C :   -0.052829
  13 H :    0.051286
  14 H :    0.026430
  15 H :    0.048387
  16 S :    0.117528
  17 C :   -0.065739
  18 C :   -0.004061
  19 C :   -0.029092
  20 C :   -0.204906
  21 H :   -0.012876
  22 C :    0.103035
  23 H :    0.023673
  24 H :    0.013833
  25 C :   -0.085955
  26 H :    0.019333
  27 H :    0.002736
  28 C :    0.003289
  29 H :    0.034090
  30 H :    0.032739
  31 H :    0.016458
  32 H :    0.047999
  33 H :    0.046521
Sum of atomic charges:    0.0000000

LOEWDIN ATOMIC CHARGES
----------------------
   0 S :    0.429958
   1 C :   -0.210101
   2 C :   -0.063786
   3 C :   -0.062071
   4 C :   -0.220783
   5 H :    0.034029
   6 C :   -0.036662
   7 H :    0.022672
   8 H :    0.033288
   9 C :   -0.041700
  10 H :    0.029044
  11 H :    0.036162
  12 C :   -0.068075
  13 H :    0.033956
  14 H :    0.015891
  15 H :    0.032980
  16 S :    0.414986
  17 C :   -0.174047
  18 C :   -0.061661
  19 C :   -0.048525
  20 C :   -0.219939
  21 H :    0.018061
  22 C :   -0.027035
  23 H :    0.034667
  24 H :    0.024213
  25 C :   -0.037012
  26 H :    0.021800
  27 H :    0.009897
  28 C :   -0.049166
  29 H :    0.025169
  30 H :    0.028884
  31 H :    0.015520
  32 H :    0.031717
  33 H :    0.027670

  Mayer bond orders larger than 0.100000
B(  0-S ,  1-C ) :   1.1399 B(  0-S ,  4-C ) :   1.1716 B(  1-C ,  2-C ) :   1.5989
B(  1-C ,  4-C ) :   0.1025 B(  1-C , 32-H ) :   0.9653 B(  2-C ,  3-C ) :   1.2400
B(  2-C ,  6-C ) :   1.0255 B(  3-C ,  4-C ) :   1.5825 B(  3-C ,  5-H ) :   0.9960
B(  4-C , 20-C ) :   0.9908 B(  6-C ,  7-H ) :   0.9374 B(  6-C ,  8-H ) :   0.9489
B(  6-C ,  9-C ) :   1.0420 B(  9-C , 10-H ) :   0.9629 B(  9-C , 11-H ) :   0.9601
B(  9-C , 12-C ) :   1.0475 B( 12-C , 13-H ) :   0.9795 B( 12-C , 14-H ) :   0.9809
B( 12-C , 15-H ) :   0.9726 B( 16-S , 17-C ) :   1.1378 B( 16-S , 20-C ) :   1.1563
B( 17-C , 18-C ) :   1.6194 B( 17-C , 33-H ) :   0.9676 B( 18-C , 19-C ) :   1.2407
B( 18-C , 21-H ) :   0.9931 B( 19-C , 20-C ) :   1.6014 B( 19-C , 22-C ) :   1.0436
B( 22-C , 23-H ) :   0.9306 B( 22-C , 24-H ) :   0.9310 B( 22-C , 25-C ) :   1.0666
B( 25-C , 26-H ) :   0.9550 B( 25-C , 27-H ) :   0.9532 B( 25-C , 28-C ) :   1.0895
B( 28-C , 29-H ) :   0.9762 B( 28-C , 30-H ) :   0.9735 B( 28-C , 31-H ) :   0.9753

Dispersion correction           -0.013571107
FINAL SINGLE POINT ENERGY     -1339.862185869040

DIPOLE MOMENT
-------------
                                X             Y             Z
Electronic contribution:      6.15051     -15.11857      14.71617
Nuclear contribution   :     -6.11074      15.60955     -14.99456
                        -----------------------------------------
Total Dipole Moment    :      0.03977       0.49097      -0.27840
                        -----------------------------------------
Magnitude (a.u.)       :      0.56581
Magnitude (Debye)      :      1.43817

Rotational constants in cm-1:     0.018840     0.007514     0.006509
Rotational constants in MHz :   564.802705   225.269775   195.126497

                             ****ORCA TERMINATED NORMALLY****
TOTAL RUN TIME: 0 days 0 hours 0 minutes 21 seconds 32 msec
