                         Program Version 4.2.1 -  RELEASE  -
|  1> ! wB97X-D3 SP def2-SVP
|  2> %pal
|  3> nprocs 24
|  4> end
|  5>
|  6> * xyz 0 1
|  7> S 	 -126.478 	 69.1972 	 -61.8669
|  8> C 	 -126.194 	 70.4463 	 -60.7502
|  9> C 	 -127.311 	 71.2017 	 -60.5237
| 10> C 	 -128.48 	 70.7016 	 -61.243
| 11> C 	 -128.124 	 69.6945 	 -62.1006
| 12> H 	 -129.475 	 71.111 	 -61.2321
| 13> C 	 -127.363 	 72.2643 	 -59.3945
| 14> H 	 -126.512 	 72.0167 	 -58.7896
| 15> H 	 -128.283 	 72.2248 	 -58.8554
| 16> C 	 -127.338 	 73.7207 	 -59.8961
| 17> H 	 -128.154 	 73.9169 	 -60.661
| 18> H 	 -127.633 	 74.4387 	 -59.1278
| 19> C 	 -126.063 	 74.0496 	 -60.6883
| 20> H 	 -126.273 	 73.8045 	 -61.7776
| 21> H 	 -125.871 	 75.0784 	 -60.52
| 22> H 	 -125.17 	 73.4615 	 -60.3254
| 23> S 	 -130.262 	 68.0167 	 -62.5124
| 24> C 	 -130.957 	 67.7844 	 -64.0468
| 25> C 	 -130.317 	 68.4943 	 -64.9655
| 26> C 	 -129.189 	 69.2702 	 -64.4907
| 27> C 	 -129.022 	 69.0915 	 -63.1183
| 28> H 	 -130.666 	 68.4368 	 -65.9743
| 29> C 	 -128.398 	 70.1855 	 -65.3002
| 30> H 	 -127.528 	 70.5497 	 -64.7506
| 31> H 	 -128.987 	 71.0515 	 -65.477
| 32> C 	 -127.772 	 69.5808 	 -66.5254
| 33> H 	 -127.424 	 70.4284 	 -67.2018
| 34> H 	 -128.496 	 69.2109 	 -67.1828
| 35> C 	 -126.645 	 68.6222 	 -66.4093
| 36> H 	 -127.006 	 67.6503 	 -66.0806
| 37> H 	 -125.898 	 68.9889 	 -65.7062
| 38> H 	 -126.212 	 68.4119 	 -67.4659
| 39> H 	 -125.24 	 70.5118 	 -60.2024
| 40> H 	 -131.893 	 67.3126 	 -64.0909
| 41> *
| 42>
| 43>                          ****END OF INPUT****

CARTESIAN COORDINATES (ANGSTROEM)
---------------------------------
  S    -126.478000   69.197200  -61.866900
  C    -126.194000   70.446300  -60.750200
  C    -127.311000   71.201700  -60.523700
  C    -128.480000   70.701600  -61.243000
  C    -128.124000   69.694500  -62.100600
  H    -129.475000   71.111000  -61.232100
  C    -127.363000   72.264300  -59.394500
  H    -126.512000   72.016700  -58.789600
  H    -128.283000   72.224800  -58.855400
  C    -127.338000   73.720700  -59.896100
  H    -128.154000   73.916900  -60.661000
  H    -127.633000   74.438700  -59.127800
  C    -126.063000   74.049600  -60.688300
  H    -126.273000   73.804500  -61.777600
  H    -125.871000   75.078400  -60.520000
  H    -125.170000   73.461500  -60.325400
  S    -130.262000   68.016700  -62.512400
  C    -130.957000   67.784400  -64.046800
  C    -130.317000   68.494300  -64.965500
  C    -129.189000   69.270200  -64.490700
  C    -129.022000   69.091500  -63.118300
  H    -130.666000   68.436800  -65.974300
  C    -128.398000   70.185500  -65.300200
  H    -127.528000   70.549700  -64.750600
  H    -128.987000   71.051500  -65.477000
  C    -127.772000   69.580800  -66.525400
  H    -127.424000   70.428400  -67.201800
  H    -128.496000   69.210900  -67.182800
  C    -126.645000   68.622200  -66.409300
  H    -127.006000   67.650300  -66.080600
  H    -125.898000   68.988900  -65.706200
  H    -126.212000   68.411900  -67.465900
  H    -125.240000   70.511800  -60.202400
  H    -131.893000   67.312600  -64.090900

 Total Charge           Charge          ....    0
 Multiplicity           Mult            ....    1
 Number of Electrons    NEL             ....  134
 Basis Dimension        Dim             ....  322

ORBITAL ENERGIES
----------------

  NO   OCC          E(Eh)            E(eV)
   0   2.0000     -88.965015     -2420.8611
   1   2.0000     -88.955383     -2420.5990
   2   2.0000     -10.328101      -281.0419
   3   2.0000     -10.323952      -280.9290
   4   2.0000     -10.312209      -280.6095
   5   2.0000     -10.304387      -280.3966
   6   2.0000     -10.302765      -280.3525
   7   2.0000     -10.301019      -280.3050
   8   2.0000     -10.296402      -280.1793
   9   2.0000     -10.290070      -280.0070
  10   2.0000     -10.287672      -279.9418
  11   2.0000     -10.286702      -279.9154
  12   2.0000     -10.280530      -279.7474
  13   2.0000     -10.278802      -279.7004
  14   2.0000     -10.277853      -279.6746
  15   2.0000     -10.276528      -279.6386
  16   2.0000      -8.081005      -219.8953
  17   2.0000      -8.071783      -219.6444
  18   2.0000      -6.039348      -164.3390
  19   2.0000      -6.035319      -164.2294
  20   2.0000      -6.031880      -164.1358
  21   2.0000      -6.030126      -164.0881
  22   2.0000      -6.025968      -163.9749
  23   2.0000      -6.022711      -163.8863
  24   2.0000      -1.011520       -27.5249
  25   2.0000      -0.993076       -27.0230
  26   2.0000      -0.919957       -25.0333
  27   2.0000      -0.907858       -24.7041
  28   2.0000      -0.872267       -23.7356
  29   2.0000      -0.850806       -23.1516
  30   2.0000      -0.845281       -23.0013
  31   2.0000      -0.818227       -22.2651
  32   2.0000      -0.784924       -21.3589
  33   2.0000      -0.774025       -21.0623
  34   2.0000      -0.704849       -19.1799
  35   2.0000      -0.697832       -18.9890
  36   2.0000      -0.684771       -18.6336
  37   2.0000      -0.654649       -17.8139
  38   2.0000      -0.646254       -17.5855
  39   2.0000      -0.619369       -16.8539
  40   2.0000      -0.606238       -16.4966
  41   2.0000      -0.569356       -15.4930
  42   2.0000      -0.564130       -15.3508
  43   2.0000      -0.549187       -14.9441
  44   2.0000      -0.542982       -14.7753
  45   2.0000      -0.536839       -14.6081
  46   2.0000      -0.522925       -14.2295
  47   2.0000      -0.513781       -13.9807
  48   2.0000      -0.505706       -13.7610
  49   2.0000      -0.494229       -13.4487
  50   2.0000      -0.490809       -13.3556
  51   2.0000      -0.480950       -13.0873
  52   2.0000      -0.472528       -12.8581
  53   2.0000      -0.463914       -12.6238
  54   2.0000      -0.462108       -12.5746
  55   2.0000      -0.453451       -12.3390
  56   2.0000      -0.449014       -12.2183
  57   2.0000      -0.430784       -11.7222
  58   2.0000      -0.429706       -11.6929
  59   2.0000      -0.421556       -11.4711
  60   2.0000      -0.416160       -11.3243
  61   2.0000      -0.405026       -11.0213
  62   2.0000      -0.399662       -10.8754
  63   2.0000      -0.338215        -9.2033
  64   2.0000      -0.330961        -9.0059
  65   2.0000      -0.322127        -8.7655
  66   2.0000      -0.311232        -8.4691
  67   0.0000       0.050109         1.3635
  68   0.0000       0.065632         1.7859
  69   0.0000       0.114354         3.1117
  70   0.0000       0.122485         3.3330
  71   0.0000       0.140028         3.8104

MULLIKEN ATOMIC CHARGES
-----------------------
   0 S :    0.127818
   1 C :   -0.142347
   2 C :   -0.098677
   3 C :    0.056436
   4 C :   -0.171767
   5 H :    0.015804
   6 C :    0.101500
   7 H :    0.022851
   8 H :    0.021529
   9 C :   -0.114662
  10 H :    0.027834
  11 H :    0.032020
  12 C :   -0.062498
  13 H :    0.057905
  14 H :    0.030671
  15 H :    0.030729
  16 S :    0.091769
  17 C :   -0.067005
  18 C :   -0.028888
  19 C :   -0.020908
  20 C :   -0.192292
  21 H :    0.008405
  22 C :    0.125696
  23 H :    0.015013
  24 H :    0.028255
  25 C :   -0.097631
  26 H :    0.018621
  27 H :    0.001420
  28 C :   -0.038489
  29 H :    0.032162
  30 H :    0.035289
  31 H :    0.043489
  32 H :    0.064215
  33 H :    0.045731
Sum of atomic charges:   -0.0000000

LOEWDIN ATOMIC CHARGES
----------------------
   0 S :    0.430599
   1 C :   -0.215548
   2 C :   -0.063705
   3 C :   -0.052964
   4 C :   -0.205008
   5 H :    0.032839
   6 C :   -0.021766
   7 H :    0.025912
   8 H :    0.028542
   9 C :   -0.052823
  10 H :    0.029208
  11 H :    0.020405
  12 C :   -0.071355
  13 H :    0.037746
  14 H :    0.020748
  15 H :    0.024661
  16 S :    0.416128
  17 C :   -0.185917
  18 C :   -0.074528
  19 C :   -0.053040
  20 C :   -0.201797
  21 H :    0.027788
  22 C :   -0.033375
  23 H :    0.033211
  24 H :    0.035345
  25 C :   -0.052066
  26 H :    0.030093
  27 H :    0.010852
  28 C :   -0.064168
  29 H :    0.023415
  30 H :    0.024488
  31 H :    0.040314
  32 H :    0.033757
  33 H :    0.022008

  Mayer bond orders larger than 0.100000
B(  0-S ,  1-C ) :   1.1489 B(  0-S ,  4-C ) :   1.1612 B(  1-C ,  2-C ) :   1.6180
B(  1-C , 32-H ) :   0.9627 B(  2-C ,  3-C ) :   1.2260 B(  2-C ,  6-C ) :   1.0166
B(  3-C ,  4-C ) :   1.6007 B(  3-C ,  5-H ) :   0.9961 B(  4-C , 20-C ) :   0.9839
B(  6-C ,  7-H ) :   0.9509 B(  6-C ,  8-H ) :   0.9430 B(  6-C ,  9-C ) :   1.0680
B(  9-C , 10-H ) :   0.9598 B(  9-C , 11-H ) :   0.9647 B(  9-C , 12-C ) :   1.0501
B( 12-C , 13-H ) :   0.9773 B( 12-C , 14-H ) :   0.9756 B( 12-C , 15-H ) :   0.9811
B( 16-S , 17-C ) :   1.1629 B( 16-S , 20-C ) :   1.1589 B( 17-C , 18-C ) :   1.6123
B( 17-C , 33-H ) :   0.9737 B( 18-C , 19-C ) :   1.2115 B( 18-C , 21-H ) :   0.9995
B( 19-C , 20-C ) :   1.6002 B( 19-C , 22-C ) :   1.0648 B( 22-C , 23-H ) :   0.9244
B( 22-C , 24-H ) :   0.9189 B( 22-C , 25-C ) :   1.0746 B( 25-C , 26-H ) :   0.9471
B( 25-C , 27-H ) :   0.9503 B( 25-C , 28-C ) :   1.0858 B( 28-C , 29-H ) :   0.9724
B( 28-C , 30-H ) :   0.9703 B( 28-C , 31-H ) :   0.9691

Dispersion correction           -0.014806963
FINAL SINGLE POINT ENERGY     -1339.877518977273

DIPOLE MOMENT
-------------
                                X             Y             Z
Electronic contribution:     -9.05448     -17.66156       6.72767
Nuclear contribution   :      8.89855      18.15539      -6.83234
                        -----------------------------------------
Total Dipole Moment    :     -0.15593       0.49383      -0.10467
                        -----------------------------------------
Magnitude (a.u.)       :      0.52834
Magnitude (Debye)      :      1.34293

Rotational constants in cm-1:     0.020724     0.008169     0.007134
Rotational constants in MHz :   621.278727   244.906811   213.877677

                             ****ORCA TERMINATED NORMALLY****
TOTAL RUN TIME: 0 days 0 hours 0 minutes 21 seconds 715 msec
