                         Program Version 4.2.1 -  RELEASE  -
|  1> ! wB97X-D3 SP def2-SVP
|  2> %pal
|  3> nprocs 24
|  4> end
|  5>
|  6> * xyz 0 1
|  7> S 	 -45.3896 	 29.3983 	 28.651
|  8> C 	 -46.5697 	 28.7268 	 27.5359
|  9> C 	 -47.6392 	 28.0961 	 28.1652
| 10> C 	 -47.4996 	 28.2578 	 29.6131
| 11> C 	 -46.3435 	 28.9487 	 30.0167
| 12> H 	 -48.2193 	 27.9246 	 30.3534
| 13> C 	 -48.8772 	 27.4233 	 27.5498
| 14> H 	 -49.637 	 28.1237 	 27.0965
| 15> H 	 -49.3671 	 26.8787 	 28.3715
| 16> C 	 -48.5606 	 26.3907 	 26.432
| 17> H 	 -47.8664 	 26.7305 	 25.6348
| 18> H 	 -47.9728 	 25.5178 	 26.8139
| 19> C 	 -49.8482 	 25.855 	 25.7752
| 20> H 	 -50.3776 	 25.3099 	 26.5927
| 21> H 	 -50.5116 	 26.5978 	 25.456
| 22> H 	 -49.7918 	 25.1498 	 24.9013
| 23> S 	 -45.0422 	 30.7641 	 31.593
| 24> C 	 -44.9324 	 30.4959 	 33.2687
| 25> C 	 -45.5772 	 29.3584 	 33.6539
| 26> C 	 -46.0442 	 28.5704 	 32.5983
| 27> C 	 -45.8276 	 29.1875 	 31.3512
| 28> H 	 -45.6391 	 28.9951 	 34.6534
| 29> C 	 -46.7337 	 27.2233 	 32.9056
| 30> H 	 -47.2867 	 26.8451 	 32.0865
| 31> H 	 -47.4566 	 27.3438 	 33.6193
| 32> C 	 -45.9029 	 26.0181 	 33.4172
| 33> H 	 -45.1972 	 26.3985 	 34.17
| 34> H 	 -45.3499 	 25.6669 	 32.6321
| 35> C 	 -46.7013 	 24.7824 	 33.9733
| 36> H 	 -47.5266 	 24.5122 	 33.2533
| 37> H 	 -47.2019 	 24.8543 	 34.9972
| 38> H 	 -46.1282 	 23.8838 	 33.9345
| 39> H 	 -46.424 	 28.764 	 26.4535
| 40> H 	 -44.4286 	 31.0812 	 33.972
| 41> *
| 42>
| 43>                          ****END OF INPUT****

CARTESIAN COORDINATES (ANGSTROEM)
---------------------------------
  S    -45.389600   29.398300   28.651000
  C    -46.569700   28.726800   27.535900
  C    -47.639200   28.096100   28.165200
  C    -47.499600   28.257800   29.613100
  C    -46.343500   28.948700   30.016700
  H    -48.219300   27.924600   30.353400
  C    -48.877200   27.423300   27.549800
  H    -49.637000   28.123700   27.096500
  H    -49.367100   26.878700   28.371500
  C    -48.560600   26.390700   26.432000
  H    -47.866400   26.730500   25.634800
  H    -47.972800   25.517800   26.813900
  C    -49.848200   25.855000   25.775200
  H    -50.377600   25.309900   26.592700
  H    -50.511600   26.597800   25.456000
  H    -49.791800   25.149800   24.901300
  S    -45.042200   30.764100   31.593000
  C    -44.932400   30.495900   33.268700
  C    -45.577200   29.358400   33.653900
  C    -46.044200   28.570400   32.598300
  C    -45.827600   29.187500   31.351200
  H    -45.639100   28.995100   34.653400
  C    -46.733700   27.223300   32.905600
  H    -47.286700   26.845100   32.086500
  H    -47.456600   27.343800   33.619300
  C    -45.902900   26.018100   33.417200
  H    -45.197200   26.398500   34.170000
  H    -45.349900   25.666900   32.632100
  C    -46.701300   24.782400   33.973300
  H    -47.526600   24.512200   33.253300
  H    -47.201900   24.854300   34.997200
  H    -46.128200   23.883800   33.934500
  H    -46.424000   28.764000   26.453500
  H    -44.428600   31.081200   33.972000

 Total Charge           Charge          ....    0
 Multiplicity           Mult            ....    1
 Number of Electrons    NEL             ....  134
 Basis Dimension        Dim             ....  322

ORBITAL ENERGIES
----------------

  NO   OCC          E(Eh)            E(eV)
   0   2.0000     -88.967697     -2420.9341
   1   2.0000     -88.967645     -2420.9327
   2   2.0000     -10.330854      -281.1168
   3   2.0000     -10.329805      -281.0883
   4   2.0000     -10.317410      -280.7510
   5   2.0000     -10.310248      -280.5561
   6   2.0000     -10.309904      -280.5468
   7   2.0000     -10.306349      -280.4500
   8   2.0000     -10.306171      -280.4452
   9   2.0000     -10.298315      -280.2314
  10   2.0000     -10.294727      -280.1338
  11   2.0000     -10.289481      -279.9910
  12   2.0000     -10.286108      -279.8992
  13   2.0000     -10.284979      -279.8685
  14   2.0000     -10.284381      -279.8522
  15   2.0000     -10.280855      -279.7563
  16   2.0000      -8.082935      -219.9479
  17   2.0000      -8.082709      -219.9417
  18   2.0000      -6.041330      -164.3930
  19   2.0000      -6.041249      -164.3908
  20   2.0000      -6.037357      -164.2848
  21   2.0000      -6.037134      -164.2788
  22   2.0000      -6.033783      -164.1876
  23   2.0000      -6.033471      -164.1791
  24   2.0000      -1.009332       -27.4653
  25   2.0000      -0.984746       -26.7963
  26   2.0000      -0.908885       -24.7320
  27   2.0000      -0.906890       -24.6777
  28   2.0000      -0.869579       -23.6624
  29   2.0000      -0.853661       -23.2293
  30   2.0000      -0.844556       -22.9815
  31   2.0000      -0.809244       -22.0207
  32   2.0000      -0.786068       -21.3900
  33   2.0000      -0.774292       -21.0696
  34   2.0000      -0.709032       -19.2937
  35   2.0000      -0.705235       -19.1904
  36   2.0000      -0.696034       -18.9401
  37   2.0000      -0.667527       -18.1643
  38   2.0000      -0.639152       -17.3922
  39   2.0000      -0.618496       -16.8301
  40   2.0000      -0.604866       -16.4592
  41   2.0000      -0.567805       -15.4508
  42   2.0000      -0.565005       -15.3746
  43   2.0000      -0.557272       -15.1641
  44   2.0000      -0.521004       -14.1772
  45   2.0000      -0.517968       -14.0946
  46   2.0000      -0.514126       -13.9901
  47   2.0000      -0.511842       -13.9279
  48   2.0000      -0.503649       -13.7050
  49   2.0000      -0.500767       -13.6266
  50   2.0000      -0.490802       -13.3554
  51   2.0000      -0.483874       -13.1669
  52   2.0000      -0.475692       -12.9442
  53   2.0000      -0.462474       -12.5846
  54   2.0000      -0.458262       -12.4699
  55   2.0000      -0.455710       -12.4005
  56   2.0000      -0.446720       -12.1559
  57   2.0000      -0.437621       -11.9083
  58   2.0000      -0.433357       -11.7922
  59   2.0000      -0.430864       -11.7244
  60   2.0000      -0.422826       -11.5057
  61   2.0000      -0.420201       -11.4342
  62   2.0000      -0.414428       -11.2772
  63   2.0000      -0.354425        -9.6444
  64   2.0000      -0.336322        -9.1518
  65   2.0000      -0.331310        -9.0154
  66   2.0000      -0.284639        -7.7454
  67   0.0000       0.022118         0.6019
  68   0.0000       0.078272         2.1299
  69   0.0000       0.103688         2.8215
  70   0.0000       0.115378         3.1396
  71   0.0000       0.133359         3.6289

MULLIKEN ATOMIC CHARGES
-----------------------
   0 S :    0.107866
   1 C :   -0.130239
   2 C :   -0.062190
   3 C :   -0.002733
   4 C :   -0.132183
   5 H :    0.018650
   6 C :    0.052807
   7 H :    0.057572
   8 H :    0.028492
   9 C :   -0.109291
  10 H :    0.032872
  11 H :    0.036311
  12 C :   -0.057654
  13 H :    0.026553
  14 H :    0.017636
  15 H :    0.044817
  16 S :    0.106242
  17 C :   -0.043668
  18 C :   -0.032768
  19 C :   -0.046929
  20 C :   -0.136231
  21 H :    0.005388
  22 C :    0.119968
  23 H :   -0.008973
  24 H :   -0.001375
  25 C :   -0.042243
  26 H :    0.027362
  27 H :    0.016032
  28 C :   -0.089850
  29 H :    0.026207
  30 H :    0.050153
  31 H :    0.032783
  32 H :    0.054008
  33 H :    0.034607
Sum of atomic charges:    0.0000000

LOEWDIN ATOMIC CHARGES
----------------------
   0 S :    0.414631
   1 C :   -0.195088
   2 C :   -0.060533
   3 C :   -0.067224
   4 C :   -0.203216
   5 H :    0.027944
   6 C :   -0.030947
   7 H :    0.041691
   8 H :    0.033289
   9 C :   -0.050110
  10 H :    0.022137
  11 H :    0.029222
  12 C :   -0.073406
  13 H :    0.028484
  14 H :    0.013375
  15 H :    0.033341
  16 S :    0.419514
  17 C :   -0.187106
  18 C :   -0.068416
  19 C :   -0.049111
  20 C :   -0.191375
  21 H :    0.027146
  22 C :   -0.023512
  23 H :    0.020951
  24 H :    0.019650
  25 C :   -0.027881
  26 H :    0.023438
  27 H :    0.014570
  28 C :   -0.076100
  29 H :    0.028652
  30 H :    0.032717
  31 H :    0.024440
  32 H :    0.027957
  33 H :    0.020877

  Mayer bond orders larger than 0.100000
B(  0-S ,  1-C ) :   1.1412 B(  0-S ,  4-C ) :   1.1567 B(  1-C ,  2-C ) :   1.6103
B(  1-C , 32-H ) :   0.9682 B(  2-C ,  3-C ) :   1.2448 B(  2-C ,  6-C ) :   1.0108
B(  3-C ,  4-C ) :   1.5750 B(  3-C ,  5-H ) :   0.9846 B(  4-C , 20-C ) :   1.0441
B(  6-C ,  7-H ) :   0.9452 B(  6-C ,  8-H ) :   0.9435 B(  6-C ,  9-C ) :   1.0446
B(  9-C , 10-H ) :   0.9615 B(  9-C , 11-H ) :   0.9578 B(  9-C , 12-C ) :   1.0710
B( 12-C , 13-H ) :   0.9745 B( 12-C , 14-H ) :   0.9763 B( 12-C , 15-H ) :   0.9752
B( 16-S , 17-C ) :   1.1665 B( 16-S , 20-C ) :   1.1421 B( 17-C , 18-C ) :   1.5755
B( 17-C , 20-C ) :   0.1029 B( 17-C , 33-H ) :   0.9727 B( 18-C , 19-C ) :   1.2887
B( 18-C , 21-H ) :   0.9920 B( 19-C , 20-C ) :   1.5724 B( 19-C , 22-C ) :   1.0349
B( 22-C , 23-H ) :   0.9297 B( 22-C , 24-H ) :   0.9321 B( 22-C , 25-C ) :   1.0619
B( 25-C , 26-H ) :   0.9587 B( 25-C , 27-H ) :   0.9548 B( 25-C , 28-C ) :   1.0743
B( 28-C , 29-H ) :   0.9736 B( 28-C , 30-H ) :   0.9754 B( 28-C , 31-H ) :   0.9758

Dispersion correction           -0.012989868
FINAL SINGLE POINT ENERGY     -1339.872745569326

DIPOLE MOMENT
-------------
                                X             Y             Z
Electronic contribution:     17.18625      26.81732       1.40031
Nuclear contribution   :    -17.58942     -27.32464      -1.23756
                        -----------------------------------------
Total Dipole Moment    :     -0.40317      -0.50732       0.16275
                        -----------------------------------------
Magnitude (a.u.)       :      0.66814
Magnitude (Debye)      :      1.69828

Rotational constants in cm-1:     0.017452     0.007856     0.005734
Rotational constants in MHz :   523.201183   235.508173   171.903138

                             ****ORCA TERMINATED NORMALLY****
TOTAL RUN TIME: 0 days 0 hours 0 minutes 21 seconds 758 msec
