                         Program Version 4.2.1 -  RELEASE  -
|  1> ! wB97X-D3 SP def2-SVP
|  2> %pal
|  3> nprocs 24
|  4> end
|  5>
|  6> * xyz 0 1
|  7> S 	 -99.4423 	 -0.174524 	 -106.002
|  8> C 	 -100.746 	 -0.405374 	 -104.834
|  9> C 	 -101.632 	 0.66121 	 -104.974
| 10> C 	 -101.293 	 1.64898 	 -105.93
| 11> C 	 -100.135 	 1.33446 	 -106.562
| 12> H 	 -101.869 	 2.447 	 -106.187
| 13> C 	 -102.896 	 0.872608 	 -104.137
| 14> H 	 -102.607 	 1.71335 	 -103.461
| 15> H 	 -102.94 	 0.102842 	 -103.356
| 16> C 	 -104.17 	 1.07981 	 -104.966
| 17> H 	 -104.098 	 1.76432 	 -105.764
| 18> H 	 -104.27 	 0.231406 	 -105.605
| 19> C 	 -105.43 	 1.39293 	 -104.158
| 20> H 	 -105.397 	 2.47312 	 -103.945
| 21> H 	 -106.368 	 1.25175 	 -104.822
| 22> H 	 -105.468 	 0.807883 	 -103.168
| 23> S 	 -99.2678 	 0.755153 	 -109.114
| 24> C 	 -99.1235 	 2.02379 	 -110.266
| 25> C 	 -99.1756 	 3.29233 	 -109.736
| 26> C 	 -99.4831 	 3.30191 	 -108.363
| 27> C 	 -99.6482 	 1.97373 	 -107.833
| 28> H 	 -99.0505 	 4.16515 	 -110.35
| 29> C 	 -99.8553 	 4.6014 	 -107.686
| 30> H 	 -100.899 	 4.53293 	 -107.309
| 31> H 	 -99.8285 	 5.42329 	 -108.438
| 32> C 	 -98.8757 	 4.95478 	 -106.536
| 33> H 	 -97.88 	 4.78448 	 -107.056
| 34> H 	 -98.9634 	 4.20903 	 -105.784
| 35> C 	 -99.0007 	 6.31934 	 -106.002
| 36> H 	 -98.1676 	 6.45716 	 -105.333
| 37> H 	 -99.9818 	 6.57041 	 -105.533
| 38> H 	 -98.9152 	 7.048 	 -106.86
| 39> H 	 -100.953 	 -1.24561 	 -104.167
| 40> H 	 -98.8246 	 1.81697 	 -111.282
| 41> *
| 42>
| 43>                          ****END OF INPUT****

CARTESIAN COORDINATES (ANGSTROEM)
---------------------------------
  S    -99.442300   -0.174524  -106.002000
  C    -100.746000   -0.405374  -104.834000
  C    -101.632000    0.661210  -104.974000
  C    -101.293000    1.648980  -105.930000
  C    -100.135000    1.334460  -106.562000
  H    -101.869000    2.447000  -106.187000
  C    -102.896000    0.872608  -104.137000
  H    -102.607000    1.713350  -103.461000
  H    -102.940000    0.102842  -103.356000
  C    -104.170000    1.079810  -104.966000
  H    -104.098000    1.764320  -105.764000
  H    -104.270000    0.231406  -105.605000
  C    -105.430000    1.392930  -104.158000
  H    -105.397000    2.473120  -103.945000
  H    -106.368000    1.251750  -104.822000
  H    -105.468000    0.807883  -103.168000
  S    -99.267800    0.755153  -109.114000
  C    -99.123500    2.023790  -110.266000
  C    -99.175600    3.292330  -109.736000
  C    -99.483100    3.301910  -108.363000
  C    -99.648200    1.973730  -107.833000
  H    -99.050500    4.165150  -110.350000
  C    -99.855300    4.601400  -107.686000
  H    -100.899000    4.532930  -107.309000
  H    -99.828500    5.423290  -108.438000
  C    -98.875700    4.954780  -106.536000
  H    -97.880000    4.784480  -107.056000
  H    -98.963400    4.209030  -105.784000
  C    -99.000700    6.319340  -106.002000
  H    -98.167600    6.457160  -105.333000
  H    -99.981800    6.570410  -105.533000
  H    -98.915200    7.048000  -106.860000
  H    -100.953000   -1.245610  -104.167000
  H    -98.824600    1.816970  -111.282000

 Total Charge           Charge          ....    0
 Multiplicity           Mult            ....    1
 Number of Electrons    NEL             ....  134
 Basis Dimension        Dim             ....  322

ORBITAL ENERGIES
----------------

  NO   OCC          E(Eh)            E(eV)
   0   2.0000     -88.967777     -2420.9363
   1   2.0000     -88.966742     -2420.9081
   2   2.0000     -10.337605      -281.3005
   3   2.0000     -10.333274      -281.1827
   4   2.0000     -10.316461      -280.7252
   5   2.0000     -10.313450      -280.6433
   6   2.0000     -10.308576      -280.5106
   7   2.0000     -10.300222      -280.2833
   8   2.0000     -10.295894      -280.1655
   9   2.0000     -10.295613      -280.1579
  10   2.0000     -10.293587      -280.1027
  11   2.0000     -10.291051      -280.0337
  12   2.0000     -10.283631      -279.8318
  13   2.0000     -10.282826      -279.8099
  14   2.0000     -10.281064      -279.7620
  15   2.0000     -10.279553      -279.7209
  16   2.0000      -8.082031      -219.9233
  17   2.0000      -8.081139      -219.8990
  18   2.0000      -6.040658      -164.3747
  19   2.0000      -6.039530      -164.3440
  20   2.0000      -6.036620      -164.2648
  21   2.0000      -6.035664      -164.2388
  22   2.0000      -6.032668      -164.1572
  23   2.0000      -6.032062      -164.1407
  24   2.0000      -1.004325       -27.3291
  25   2.0000      -0.982900       -26.7461
  26   2.0000      -0.912679       -24.8353
  27   2.0000      -0.909456       -24.7476
  28   2.0000      -0.864978       -23.5372
  29   2.0000      -0.857391       -23.3308
  30   2.0000      -0.849067       -23.1043
  31   2.0000      -0.814497       -22.1636
  32   2.0000      -0.779674       -21.2160
  33   2.0000      -0.765400       -20.8276
  34   2.0000      -0.710623       -19.3370
  35   2.0000      -0.699864       -19.0443
  36   2.0000      -0.685122       -18.6431
  37   2.0000      -0.661676       -18.0051
  38   2.0000      -0.642918       -17.4947
  39   2.0000      -0.627248       -17.0683
  40   2.0000      -0.596660       -16.2359
  41   2.0000      -0.568538       -15.4707
  42   2.0000      -0.560788       -15.2598
  43   2.0000      -0.552037       -15.0217
  44   2.0000      -0.531571       -14.4648
  45   2.0000      -0.527938       -14.3659
  46   2.0000      -0.513761       -13.9802
  47   2.0000      -0.511285       -13.9128
  48   2.0000      -0.506014       -13.7693
  49   2.0000      -0.498605       -13.5677
  50   2.0000      -0.496822       -13.5192
  51   2.0000      -0.482670       -13.1341
  52   2.0000      -0.465925       -12.6785
  53   2.0000      -0.463107       -12.6018
  54   2.0000      -0.458612       -12.4795
  55   2.0000      -0.453073       -12.3287
  56   2.0000      -0.448299       -12.1988
  57   2.0000      -0.446893       -12.1606
  58   2.0000      -0.428106       -11.6494
  59   2.0000      -0.421829       -11.4786
  60   2.0000      -0.415026       -11.2934
  61   2.0000      -0.413119       -11.2415
  62   2.0000      -0.407597       -11.0913
  63   2.0000      -0.350391        -9.5346
  64   2.0000      -0.334597        -9.1049
  65   2.0000      -0.327551        -8.9131
  66   2.0000      -0.286898        -7.8069
  67   0.0000       0.025503         0.6940
  68   0.0000       0.066917         1.8209
  69   0.0000       0.108026         2.9395
  70   0.0000       0.122213         3.3256
  71   0.0000       0.136423         3.7123

MULLIKEN ATOMIC CHARGES
-----------------------
   0 S :    0.096855
   1 C :   -0.118661
   2 C :   -0.106798
   3 C :    0.056710
   4 C :   -0.094480
   5 H :   -0.029014
   6 C :    0.064782
   7 H :    0.035744
   8 H :    0.005018
   9 C :   -0.044567
  10 H :    0.010871
  11 H :    0.016966
  12 C :   -0.083227
  13 H :    0.037574
  14 H :    0.050521
  15 H :    0.051845
  16 S :    0.100947
  17 C :   -0.084905
  18 C :   -0.035203
  19 C :   -0.026541
  20 C :   -0.164858
  21 H :    0.015028
  22 C :    0.036657
  23 H :    0.038477
  24 H :    0.015701
  25 C :   -0.097737
  26 H :    0.035831
  27 H :    0.031869
  28 C :   -0.022562
  29 H :    0.040606
  30 H :    0.035871
  31 H :    0.024212
  32 H :    0.053088
  33 H :    0.053383
Sum of atomic charges:   -0.0000000

LOEWDIN ATOMIC CHARGES
----------------------
   0 S :    0.393990
   1 C :   -0.207506
   2 C :   -0.056164
   3 C :   -0.057061
   4 C :   -0.182358
   5 H :    0.015798
   6 C :   -0.035978
   7 H :    0.035883
   8 H :    0.025995
   9 C :   -0.049905
  10 H :    0.020054
  11 H :    0.025010
  12 C :   -0.073910
  13 H :    0.025980
  14 H :    0.038156
  15 H :    0.034366
  16 S :    0.402598
  17 C :   -0.189552
  18 C :   -0.074258
  19 C :   -0.055201
  20 C :   -0.178095
  21 H :    0.031523
  22 C :   -0.032639
  23 H :    0.029773
  24 H :    0.028027
  25 C :   -0.045538
  26 H :    0.033386
  27 H :    0.019425
  28 C :   -0.069055
  29 H :    0.029010
  30 H :    0.028856
  31 H :    0.028305
  32 H :    0.036107
  33 H :    0.024979

  Mayer bond orders larger than 0.100000
B(  0-S ,  1-C ) :   1.1075 B(  0-S ,  4-C ) :   1.1553 B(  1-C ,  2-C ) :   1.6239
B(  1-C , 32-H ) :   0.9671 B(  2-C ,  3-C ) :   1.2326 B(  2-C ,  6-C ) :   1.0233
B(  3-C ,  4-C ) :   1.5660 B(  3-C ,  5-H ) :   1.0131 B(  4-C , 20-C ) :   1.0235
B(  6-C ,  7-H ) :   0.9417 B(  6-C ,  8-H ) :   0.9397 B(  6-C ,  9-C ) :   1.0390
B(  9-C , 10-H ) :   0.9526 B(  9-C , 11-H ) :   0.9505 B(  9-C , 12-C ) :   1.0768
B( 12-C , 13-H ) :   0.9762 B( 12-C , 14-H ) :   0.9730 B( 12-C , 15-H ) :   0.9749
B( 16-S , 17-C ) :   1.1742 B( 16-S , 20-C ) :   1.1477 B( 17-C , 18-C ) :   1.5858
B( 17-C , 20-C ) :   0.1052 B( 17-C , 33-H ) :   0.9640 B( 18-C , 19-C ) :   1.2734
B( 18-C , 21-H ) :   0.9923 B( 19-C , 20-C ) :   1.5532 B( 19-C , 22-C ) :   1.0419
B( 22-C , 23-H ) :   0.9353 B( 22-C , 24-H ) :   0.9396 B( 22-C , 25-C ) :   1.0475
B( 25-C , 26-H ) :   0.9543 B( 25-C , 27-H ) :   0.9544 B( 25-C , 28-C ) :   1.0964
B( 28-C , 29-H ) :   0.9705 B( 28-C , 30-H ) :   0.9687 B( 28-C , 31-H ) :   0.9690

Dispersion correction           -0.013705536
FINAL SINGLE POINT ENERGY     -1339.867103922643

DIPOLE MOMENT
-------------
                                X             Y             Z
Electronic contribution:     16.16409     -19.07318     -12.83985
Nuclear contribution   :    -16.61238      19.53801      12.88215
                        -----------------------------------------
Total Dipole Moment    :     -0.44828       0.46483       0.04231
                        -----------------------------------------
Magnitude (a.u.)       :      0.64716
Magnitude (Debye)      :      1.64495

Rotational constants in cm-1:     0.016073     0.008647     0.006954
Rotational constants in MHz :   481.859518   259.215879   208.468119

                             ****ORCA TERMINATED NORMALLY****
TOTAL RUN TIME: 0 days 0 hours 0 minutes 21 seconds 164 msec
