                         Program Version 4.2.1 -  RELEASE  -
|  1> ! wB97X-D3 SP def2-SVP
|  2> %pal
|  3> nprocs 24
|  4> end
|  5>
|  6> * xyz 0 1
|  7> S 	 -137.568 	 11.0173 	 -14.6072
|  8> C 	 -137.48 	 9.47987 	 -13.7072
|  9> C 	 -136.139 	 9.04601 	 -13.5947
| 10> C 	 -135.167 	 9.9622 	 -14.2049
| 11> C 	 -135.819 	 11.0116 	 -14.8143
| 12> H 	 -134.06 	 9.7208 	 -14.3823
| 13> C 	 -135.616 	 7.75643 	 -12.9582
| 14> H 	 -136.459 	 7.20535 	 -12.4838
| 15> H 	 -134.952 	 8.01398 	 -12.2117
| 16> C 	 -134.778 	 6.83959 	 -13.8053
| 17> H 	 -135.426 	 6.12805 	 -14.4166
| 18> H 	 -134.24 	 7.46481 	 -14.5719
| 19> C 	 -133.845 	 5.89712 	 -13.0667
| 20> H 	 -133.178 	 6.37869 	 -12.3283
| 21> H 	 -134.315 	 5.08942 	 -12.5433
| 22> H 	 -133.17 	 5.50773 	 -13.8019
| 23> S 	 -135.412 	 13.6884 	 -15.2603
| 24> C 	 -134.782 	 14.2308 	 -16.8265
| 25> C 	 -134.256 	 13.1371 	 -17.4947
| 26> C 	 -134.505 	 11.8464 	 -16.9269
| 27> C 	 -135.166 	 12.0154 	 -15.686
| 28> H 	 -133.678 	 13.2681 	 -18.4046
| 29> C 	 -134.046 	 10.5913 	 -17.6786
| 30> H 	 -134.548 	 10.6578 	 -18.7019
| 31> H 	 -134.575 	 9.82969 	 -17.1705
| 32> C 	 -132.49 	 10.3006 	 -17.6831
| 33> H 	 -132.069 	 10.3496 	 -16.6482
| 34> H 	 -131.939 	 10.989 	 -18.2826
| 35> C 	 -132.106 	 9.02688 	 -18.3918
| 36> H 	 -132.319 	 8.15601 	 -17.753
| 37> H 	 -131.035 	 9.00385 	 -18.6273
| 38> H 	 -132.369 	 8.98003 	 -19.4082
| 39> H 	 -138.314 	 8.9527 	 -13.1831
| 40> H 	 -134.82 	 15.1687 	 -17.1719
| 41> *
| 42>
| 43>                          ****END OF INPUT****

CARTESIAN COORDINATES (ANGSTROEM)
---------------------------------
  S    -137.568000   11.017300  -14.607200
  C    -137.480000    9.479870  -13.707200
  C    -136.139000    9.046010  -13.594700
  C    -135.167000    9.962200  -14.204900
  C    -135.819000   11.011600  -14.814300
  H    -134.060000    9.720800  -14.382300
  C    -135.616000    7.756430  -12.958200
  H    -136.459000    7.205350  -12.483800
  H    -134.952000    8.013980  -12.211700
  C    -134.778000    6.839590  -13.805300
  H    -135.426000    6.128050  -14.416600
  H    -134.240000    7.464810  -14.571900
  C    -133.845000    5.897120  -13.066700
  H    -133.178000    6.378690  -12.328300
  H    -134.315000    5.089420  -12.543300
  H    -133.170000    5.507730  -13.801900
  S    -135.412000   13.688400  -15.260300
  C    -134.782000   14.230800  -16.826500
  C    -134.256000   13.137100  -17.494700
  C    -134.505000   11.846400  -16.926900
  C    -135.166000   12.015400  -15.686000
  H    -133.678000   13.268100  -18.404600
  C    -134.046000   10.591300  -17.678600
  H    -134.548000   10.657800  -18.701900
  H    -134.575000    9.829690  -17.170500
  C    -132.490000   10.300600  -17.683100
  H    -132.069000   10.349600  -16.648200
  H    -131.939000   10.989000  -18.282600
  C    -132.106000    9.026880  -18.391800
  H    -132.319000    8.156010  -17.753000
  H    -131.035000    9.003850  -18.627300
  H    -132.369000    8.980030  -19.408200
  H    -138.314000    8.952700  -13.183100
  H    -134.820000   15.168700  -17.171900

 Total Charge           Charge          ....    0
 Multiplicity           Mult            ....    1
 Number of Electrons    NEL             ....  134
 Basis Dimension        Dim             ....  322

ORBITAL ENERGIES
----------------

  NO   OCC          E(Eh)            E(eV)
   0   2.0000     -88.969734     -2420.9895
   1   2.0000     -88.964913     -2420.8584
   2   2.0000     -10.332058      -281.1496
   3   2.0000     -10.329115      -281.0695
   4   2.0000     -10.323101      -280.9058
   5   2.0000     -10.310393      -280.5601
   6   2.0000     -10.309542      -280.5369
   7   2.0000     -10.306232      -280.4468
   8   2.0000     -10.303372      -280.3690
   9   2.0000     -10.299628      -280.2671
  10   2.0000     -10.293779      -280.1080
  11   2.0000     -10.293242      -280.0934
  12   2.0000     -10.291344      -280.0417
  13   2.0000     -10.286427      -279.9079
  14   2.0000     -10.277442      -279.6634
  15   2.0000     -10.276447      -279.6363
  16   2.0000      -8.083414      -219.9609
  17   2.0000      -8.079349      -219.8503
  18   2.0000      -6.042088      -164.4136
  19   2.0000      -6.038133      -164.3059
  20   2.0000      -6.037861      -164.2986
  21   2.0000      -6.033974      -164.1928
  22   2.0000      -6.033866      -164.1898
  23   2.0000      -6.030171      -164.0893
  24   2.0000      -0.999064       -27.1859
  25   2.0000      -0.975026       -26.5318
  26   2.0000      -0.914794       -24.8928
  27   2.0000      -0.905923       -24.6514
  28   2.0000      -0.864051       -23.5120
  29   2.0000      -0.855820       -23.2880
  30   2.0000      -0.845390       -23.0042
  31   2.0000      -0.812793       -22.1172
  32   2.0000      -0.783731       -21.3264
  33   2.0000      -0.772486       -21.0204
  34   2.0000      -0.705770       -19.2050
  35   2.0000      -0.699830       -19.0433
  36   2.0000      -0.692289       -18.8381
  37   2.0000      -0.658796       -17.9268
  38   2.0000      -0.635818       -17.3015
  39   2.0000      -0.616297       -16.7703
  40   2.0000      -0.595575       -16.2064
  41   2.0000      -0.571207       -15.5433
  42   2.0000      -0.567533       -15.4434
  43   2.0000      -0.557325       -15.1656
  44   2.0000      -0.529130       -14.3983
  45   2.0000      -0.525954       -14.3119
  46   2.0000      -0.518248       -14.1022
  47   2.0000      -0.513347       -13.9689
  48   2.0000      -0.503702       -13.7064
  49   2.0000      -0.500490       -13.6190
  50   2.0000      -0.493760       -13.4359
  51   2.0000      -0.478243       -13.0137
  52   2.0000      -0.468905       -12.7596
  53   2.0000      -0.460609       -12.5338
  54   2.0000      -0.455476       -12.3941
  55   2.0000      -0.453719       -12.3463
  56   2.0000      -0.447903       -12.1881
  57   2.0000      -0.432812       -11.7774
  58   2.0000      -0.430845       -11.7239
  59   2.0000      -0.423568       -11.5259
  60   2.0000      -0.421744       -11.4762
  61   2.0000      -0.416372       -11.3300
  62   2.0000      -0.411657       -11.2017
  63   2.0000      -0.337213        -9.1760
  64   2.0000      -0.329635        -8.9698
  65   2.0000      -0.326380        -8.8812
  66   2.0000      -0.297872        -8.1055
  67   0.0000       0.031796         0.8652
  68   0.0000       0.066519         1.8101
  69   0.0000       0.108533         2.9533
  70   0.0000       0.112940         3.0733
  71   0.0000       0.120277         3.2729

MULLIKEN ATOMIC CHARGES
-----------------------
   0 S :    0.122337
   1 C :   -0.136384
   2 C :   -0.111708
   3 C :    0.000320
   4 C :   -0.142021
   5 H :    0.056195
   6 C :    0.135185
   7 H :    0.020659
   8 H :    0.003129
   9 C :   -0.128245
  10 H :    0.034235
  11 H :    0.028730
  12 C :   -0.038469
  13 H :    0.024609
  14 H :    0.036214
  15 H :    0.028984
  16 S :    0.103228
  17 C :   -0.050609
  18 C :   -0.028612
  19 C :   -0.039061
  20 C :   -0.197042
  21 H :    0.017736
  22 C :    0.086097
  23 H :    0.045915
  24 H :    0.011139
  25 C :   -0.061629
  26 H :    0.042139
  27 H :    0.018501
  28 C :   -0.037565
  29 H :    0.041496
  30 H :    0.018981
  31 H :    0.018511
  32 H :    0.065952
  33 H :    0.011053
Sum of atomic charges:    0.0000000

LOEWDIN ATOMIC CHARGES
----------------------
   0 S :    0.394384
   1 C :   -0.206011
   2 C :   -0.054413
   3 C :   -0.074062
   4 C :   -0.191456
   5 H :    0.047823
   6 C :   -0.035690
   7 H :    0.032544
   8 H :    0.022190
   9 C :   -0.047537
  10 H :    0.031179
  11 H :    0.024967
  12 C :   -0.065775
  13 H :    0.023514
  14 H :    0.023661
  15 H :    0.028661
  16 S :    0.401338
  17 C :   -0.162038
  18 C :   -0.064662
  19 C :   -0.056094
  20 C :   -0.205753
  21 H :    0.028954
  22 C :   -0.031438
  23 H :    0.044174
  24 H :    0.023133
  25 C :   -0.038333
  26 H :    0.032190
  27 H :    0.021171
  28 C :   -0.070396
  29 H :    0.026559
  30 H :    0.031018
  31 H :    0.022496
  32 H :    0.040228
  33 H :    0.003474

  Mayer bond orders larger than 0.100000
B(  0-S ,  1-C ) :   1.1108 B(  0-S ,  4-C ) :   1.1520 B(  1-C ,  2-C ) :   1.6496
B(  1-C , 32-H ) :   0.9597 B(  2-C ,  3-C ) :   1.1984 B(  2-C ,  6-C ) :   1.0373
B(  3-C ,  4-C ) :   1.6108 B(  3-C ,  5-H ) :   0.9739 B(  4-C , 20-C ) :   1.0080
B(  6-C ,  7-H ) :   0.9376 B(  6-C ,  8-H ) :   0.9303 B(  6-C ,  9-C ) :   1.0549
B(  9-C , 10-H ) :   0.9501 B(  9-C , 11-H ) :   0.9580 B(  9-C , 12-C ) :   1.0828
B( 12-C , 13-H ) :   0.9717 B( 12-C , 14-H ) :   0.9767 B( 12-C , 15-H ) :   0.9715
B( 16-S , 17-C ) :   1.1407 B( 16-S , 20-C ) :   1.1615 B( 17-C , 18-C ) :   1.5986
B( 17-C , 33-H ) :   0.9888 B( 18-C , 19-C ) :   1.2518 B( 18-C , 21-H ) :   0.9849
B( 19-C , 20-C ) :   1.5709 B( 19-C , 22-C ) :   1.0376 B( 22-C , 23-H ) :   0.9355
B( 22-C , 24-H ) :   0.9295 B( 22-C , 25-C ) :   1.0483 B( 25-C , 26-H ) :   0.9556
B( 25-C , 27-H ) :   0.9562 B( 25-C , 28-C ) :   1.0961 B( 28-C , 29-H ) :   0.9757
B( 28-C , 30-H ) :   0.9682 B( 28-C , 31-H ) :   0.9670

Dispersion correction           -0.013892292
FINAL SINGLE POINT ENERGY     -1339.855489625236

DIPOLE MOMENT
-------------
                                X             Y             Z
Electronic contribution:    -19.05898      27.29974       4.98131
Nuclear contribution   :     19.56817     -27.85266      -5.29349
                        -----------------------------------------
Total Dipole Moment    :      0.50919      -0.55292      -0.31218
                        -----------------------------------------
Magnitude (a.u.)       :      0.81391
Magnitude (Debye)      :      2.06880

Rotational constants in cm-1:     0.015697     0.009643     0.006490
Rotational constants in MHz :   470.573857   289.079837   194.557222

                             ****ORCA TERMINATED NORMALLY****
TOTAL RUN TIME: 0 days 0 hours 0 minutes 20 seconds 91 msec
