                         Program Version 4.2.1 -  RELEASE  -
|  1> ! wB97X-D3 SP def2-SVP
|  2> %pal
|  3> nprocs 24
|  4> end
|  5>
|  6> * xyz 0 1
|  7> S 	 -66.0858 	 -59.3309 	 -83.9931
|  8> C 	 -66.7049 	 -60.9716 	 -83.6473
|  9> C 	 -66.5357 	 -61.3234 	 -82.304
| 10> C 	 -65.9044 	 -60.279 	 -81.5485
| 11> C 	 -65.9542 	 -59.124 	 -82.2751
| 12> H 	 -65.4009 	 -60.277 	 -80.6064
| 13> C 	 -66.597 	 -62.7618 	 -81.8276
| 14> H 	 -65.8626 	 -62.7711 	 -81.0637
| 15> H 	 -66.2261 	 -63.4666 	 -82.5899
| 16> C 	 -67.9707 	 -63.2495 	 -81.2901
| 17> H 	 -68.6707 	 -63.2912 	 -82.0911
| 18> H 	 -67.8277 	 -64.2748 	 -81.0233
| 19> C 	 -68.607 	 -62.382 	 -80.2374
| 20> H 	 -68.775 	 -61.3298 	 -80.5218
| 21> H 	 -69.4834 	 -62.8311 	 -79.9736
| 22> H 	 -67.9767 	 -62.3298 	 -79.3916
| 23> S 	 -64.3456 	 -56.8345 	 -82.6389
| 24> C 	 -64.3376 	 -55.6096 	 -81.4516
| 25> C 	 -65.1445 	 -55.9347 	 -80.3542
| 26> C 	 -65.6345 	 -57.3111 	 -80.3918
| 27> C 	 -65.4825 	 -57.8418 	 -81.6886
| 28> H 	 -65.1852 	 -55.1787 	 -79.5745
| 29> C 	 -66.3258 	 -57.9453 	 -79.1723
| 30> H 	 -67.1152 	 -58.6469 	 -79.5606
| 31> H 	 -66.9905 	 -57.2903 	 -78.5475
| 32> C 	 -65.3833 	 -58.6648 	 -78.1894
| 33> H 	 -64.736 	 -57.9247 	 -77.747
| 34> H 	 -64.7005 	 -59.3345 	 -78.6505
| 35> C 	 -66.1454 	 -59.4247 	 -77.1342
| 36> H 	 -66.6326 	 -58.5976 	 -76.5962
| 37> H 	 -65.4234 	 -59.9248 	 -76.4875
| 38> H 	 -66.7666 	 -60.1361 	 -77.632
| 39> H 	 -67.025 	 -61.6638 	 -84.3831
| 40> H 	 -63.6938 	 -54.7492 	 -81.3767
| 41> *
| 42>
| 43>                          ****END OF INPUT****

CARTESIAN COORDINATES (ANGSTROEM)
---------------------------------
  S    -66.085800  -59.330900  -83.993100
  C    -66.704900  -60.971600  -83.647300
  C    -66.535700  -61.323400  -82.304000
  C    -65.904400  -60.279000  -81.548500
  C    -65.954200  -59.124000  -82.275100
  H    -65.400900  -60.277000  -80.606400
  C    -66.597000  -62.761800  -81.827600
  H    -65.862600  -62.771100  -81.063700
  H    -66.226100  -63.466600  -82.589900
  C    -67.970700  -63.249500  -81.290100
  H    -68.670700  -63.291200  -82.091100
  H    -67.827700  -64.274800  -81.023300
  C    -68.607000  -62.382000  -80.237400
  H    -68.775000  -61.329800  -80.521800
  H    -69.483400  -62.831100  -79.973600
  H    -67.976700  -62.329800  -79.391600
  S    -64.345600  -56.834500  -82.638900
  C    -64.337600  -55.609600  -81.451600
  C    -65.144500  -55.934700  -80.354200
  C    -65.634500  -57.311100  -80.391800
  C    -65.482500  -57.841800  -81.688600
  H    -65.185200  -55.178700  -79.574500
  C    -66.325800  -57.945300  -79.172300
  H    -67.115200  -58.646900  -79.560600
  H    -66.990500  -57.290300  -78.547500
  C    -65.383300  -58.664800  -78.189400
  H    -64.736000  -57.924700  -77.747000
  H    -64.700500  -59.334500  -78.650500
  C    -66.145400  -59.424700  -77.134200
  H    -66.632600  -58.597600  -76.596200
  H    -65.423400  -59.924800  -76.487500
  H    -66.766600  -60.136100  -77.632000
  H    -67.025000  -61.663800  -84.383100
  H    -63.693800  -54.749200  -81.376700

 Total Charge           Charge          ....    0
 Multiplicity           Mult            ....    1
 Number of Electrons    NEL             ....  134
 Basis Dimension        Dim             ....  322

ORBITAL ENERGIES
----------------

  NO   OCC          E(Eh)            E(eV)
   0   2.0000     -88.970162     -2421.0012
   1   2.0000     -88.966220     -2420.8939
   2   2.0000     -10.332891      -281.1723
   3   2.0000     -10.328011      -281.0395
   4   2.0000     -10.314412      -280.6694
   5   2.0000     -10.313618      -280.6478
   6   2.0000     -10.313312      -280.6395
   7   2.0000     -10.303040      -280.3600
   8   2.0000     -10.301167      -280.3090
   9   2.0000     -10.296173      -280.1731
  10   2.0000     -10.292045      -280.0608
  11   2.0000     -10.288871      -279.9744
  12   2.0000     -10.280771      -279.7540
  13   2.0000     -10.279712      -279.7252
  14   2.0000     -10.277941      -279.6770
  15   2.0000     -10.265074      -279.3269
  16   2.0000      -8.084502      -219.9905
  17   2.0000      -8.080924      -219.8931
  18   2.0000      -6.043007      -164.4386
  19   2.0000      -6.039527      -164.3439
  20   2.0000      -6.039458      -164.3420
  21   2.0000      -6.035385      -164.2312
  22   2.0000      -6.034840      -164.2163
  23   2.0000      -6.031742      -164.1320
  24   2.0000      -1.004773       -27.3413
  25   2.0000      -0.980565       -26.6825
  26   2.0000      -0.913821       -24.8663
  27   2.0000      -0.912341       -24.8260
  28   2.0000      -0.865677       -23.5563
  29   2.0000      -0.857293       -23.3281
  30   2.0000      -0.846222       -23.0269
  31   2.0000      -0.813822       -22.1452
  32   2.0000      -0.784713       -21.3531
  33   2.0000      -0.772080       -21.0094
  34   2.0000      -0.708758       -19.2863
  35   2.0000      -0.701315       -19.0837
  36   2.0000      -0.692482       -18.8434
  37   2.0000      -0.658168       -17.9097
  38   2.0000      -0.638791       -17.3824
  39   2.0000      -0.613766       -16.7014
  40   2.0000      -0.595060       -16.1924
  41   2.0000      -0.573766       -15.6130
  42   2.0000      -0.568970       -15.4825
  43   2.0000      -0.555050       -15.1037
  44   2.0000      -0.542137       -14.7523
  45   2.0000      -0.527588       -14.3564
  46   2.0000      -0.520579       -14.1657
  47   2.0000      -0.513350       -13.9690
  48   2.0000      -0.505821       -13.7641
  49   2.0000      -0.495237       -13.4761
  50   2.0000      -0.492121       -13.3913
  51   2.0000      -0.482870       -13.1396
  52   2.0000      -0.470731       -12.8092
  53   2.0000      -0.467416       -12.7190
  54   2.0000      -0.459544       -12.5048
  55   2.0000      -0.449884       -12.2420
  56   2.0000      -0.442273       -12.0349
  57   2.0000      -0.439856       -11.9691
  58   2.0000      -0.433697       -11.8015
  59   2.0000      -0.431672       -11.7464
  60   2.0000      -0.420564       -11.4441
  61   2.0000      -0.415360       -11.3025
  62   2.0000      -0.411936       -11.2094
  63   2.0000      -0.347240        -9.4489
  64   2.0000      -0.331270        -9.0143
  65   2.0000      -0.329055        -8.9540
  66   2.0000      -0.282464        -7.6862
  67   0.0000       0.020743         0.5645
  68   0.0000       0.069110         1.8806
  69   0.0000       0.095875         2.6089
  70   0.0000       0.118867         3.2345
  71   0.0000       0.122618         3.3366

MULLIKEN ATOMIC CHARGES
-----------------------
   0 S :    0.107641
   1 C :   -0.099912
   2 C :   -0.074209
   3 C :   -0.005668
   4 C :   -0.111859
   5 H :    0.009932
   6 C :    0.053199
   7 H :    0.006523
   8 H :    0.032423
   9 C :   -0.044527
  10 H :    0.013253
  11 H :    0.020058
  12 C :   -0.002068
  13 H :    0.045841
  14 H :    0.013024
  15 H :    0.009743
  16 S :    0.102124
  17 C :   -0.087351
  18 C :   -0.044587
  19 C :   -0.013836
  20 C :   -0.142837
  21 H :    0.019951
  22 C :   -0.007538
  23 H :    0.033318
  24 H :    0.026958
  25 C :   -0.072426
  26 H :    0.019468
  27 H :    0.015316
  28 C :   -0.016534
  29 H :    0.034463
  30 H :    0.036699
  31 H :    0.032504
  32 H :    0.035275
  33 H :    0.055638
Sum of atomic charges:   -0.0000000

LOEWDIN ATOMIC CHARGES
----------------------
   0 S :    0.394029
   1 C :   -0.181250
   2 C :   -0.055471
   3 C :   -0.059410
   4 C :   -0.186462
   5 H :    0.031523
   6 C :   -0.028831
   7 H :    0.022531
   8 H :    0.033505
   9 C :   -0.033099
  10 H :    0.018627
  11 H :    0.021682
  12 C :   -0.053649
  13 H :    0.033038
  14 H :    0.016337
  15 H :    0.016331
  16 S :    0.399194
  17 C :   -0.203342
  18 C :   -0.073057
  19 C :   -0.050588
  20 C :   -0.182896
  21 H :    0.030232
  22 C :   -0.042398
  23 H :    0.032581
  24 H :    0.033718
  25 C :   -0.041174
  26 H :    0.021696
  27 H :    0.011309
  28 C :   -0.055185
  29 H :    0.030017
  30 H :    0.028616
  31 H :    0.021666
  32 H :    0.018956
  33 H :    0.031229

  Mayer bond orders larger than 0.100000
B(  0-S ,  1-C ) :   1.1161 B(  0-S ,  4-C ) :   1.1548 B(  1-C ,  2-C ) :   1.6198
B(  1-C , 32-H ) :   0.9728 B(  2-C ,  3-C ) :   1.2004 B(  2-C ,  6-C ) :   1.0133
B(  3-C ,  4-C ) :   1.5695 B(  3-C ,  5-H ) :   0.9974 B(  4-C , 20-C ) :   1.0559
B(  6-C ,  7-H ) :   0.9430 B(  6-C ,  8-H ) :   0.9473 B(  6-C ,  9-C ) :   1.0690
B(  9-C , 10-H ) :   0.9543 B(  9-C , 11-H ) :   0.9532 B(  9-C , 12-C ) :   1.0862
B( 12-C , 13-H ) :   0.9678 B( 12-C , 14-H ) :   0.9669 B( 12-C , 15-H ) :   0.9751
B( 16-S , 17-C ) :   1.1568 B( 16-S , 20-C ) :   1.1308 B( 17-C , 18-C ) :   1.6237
B( 17-C , 33-H ) :   0.9653 B( 18-C , 19-C ) :   1.2255 B( 18-C , 21-H ) :   0.9880
B( 19-C , 20-C ) :   1.5954 B( 19-C , 22-C ) :   1.0359 B( 22-C , 23-H ) :   0.9378
B( 22-C , 24-H ) :   0.9424 B( 22-C , 25-C ) :   1.0519 B( 25-C , 26-H ) :   0.9496
B( 25-C , 27-H ) :   0.9505 B( 25-C , 28-C ) :   1.0806 B( 28-C , 29-H ) :   0.9750
B( 28-C , 30-H ) :   0.9725 B( 28-C , 31-H ) :   0.9754

Dispersion correction           -0.014962502
FINAL SINGLE POINT ENERGY     -1339.851725183026

DIPOLE MOMENT
-------------
                                X             Y             Z
Electronic contribution:     10.44228      17.26620     -25.04458
Nuclear contribution   :    -10.35597     -17.66339      25.67387
                        -----------------------------------------
Total Dipole Moment    :      0.08631      -0.39718       0.62930
                        -----------------------------------------
Magnitude (a.u.)       :      0.74915
Magnitude (Debye)      :      1.90418

Rotational constants in cm-1:     0.017183     0.010489     0.006874
Rotational constants in MHz :   515.121386   314.464249   206.080017

                             ****ORCA TERMINATED NORMALLY****
TOTAL RUN TIME: 0 days 0 hours 0 minutes 21 seconds 250 msec
