                         Program Version 4.2.1 -  RELEASE  -
|  1> ! wB97X-D3 SP def2-SVP
|  2> %pal
|  3> nprocs 24
|  4> end
|  5>
|  6> * xyz 0 1
|  7> S 	 -92.8336 	 4.8539 	 -2.87783
|  8> C 	 -91.2212 	 4.46742 	 -3.42341
|  9> C 	 -90.2554 	 4.856 	 -2.52284
| 10> C 	 -90.7889 	 5.42072 	 -1.29081
| 11> C 	 -92.1916 	 5.38982 	 -1.27547
| 12> H 	 -90.1892 	 5.79249 	 -0.439976
| 13> C 	 -88.8142 	 4.77502 	 -2.71134
| 14> H 	 -88.3923 	 5.74807 	 -2.29767
| 15> H 	 -88.7625 	 4.8764 	 -3.7589
| 16> C 	 -88.0662 	 3.57582 	 -2.09132
| 17> H 	 -88.3398 	 3.22295 	 -1.07507
| 18> H 	 -88.3258 	 2.71977 	 -2.69365
| 19> C 	 -86.5734 	 3.74241 	 -2.05004
| 20> H 	 -86.1325 	 4.52176 	 -1.50235
| 21> H 	 -86.1439 	 2.79146 	 -1.63509
| 22> H 	 -86.3971 	 3.77763 	 -3.08294
| 23> S 	 -94.4304 	 6.87127 	 -0.955702
| 24> C 	 -94.7892 	 7.56392 	 0.564019
| 25> C 	 -93.8684 	 7.24093 	 1.5298
| 26> C 	 -92.9605 	 6.24815 	 1.11421
| 27> C 	 -93.0845 	 5.98457 	 -0.267561
| 28> H 	 -93.883 	 7.55664 	 2.56551
| 29> C 	 -91.928 	 5.69834 	 2.0733
| 30> H 	 -92.0164 	 6.24404 	 3.01693
| 31> H 	 -90.8813 	 5.9655 	 1.68553
| 32> C 	 -91.9592 	 4.1535 	 2.33476
| 33> H 	 -92.9555 	 3.77317 	 2.29114
| 34> H 	 -91.7675 	 4.06847 	 3.33011
| 35> C 	 -91.0604 	 3.36727 	 1.438
| 36> H 	 -90.027 	 3.71297 	 1.52601
| 37> H 	 -91.313 	 3.28083 	 0.37974
| 38> H 	 -90.9891 	 2.32924 	 1.83168
| 39> H 	 -91.0045 	 4.00438 	 -4.37602
| 40> H 	 -95.6114 	 8.16229 	 0.747202
| 41> *
| 42>
| 43>                          ****END OF INPUT****

CARTESIAN COORDINATES (ANGSTROEM)
---------------------------------
  S    -92.833600    4.853900   -2.877830
  C    -91.221200    4.467420   -3.423410
  C    -90.255400    4.856000   -2.522840
  C    -90.788900    5.420720   -1.290810
  C    -92.191600    5.389820   -1.275470
  H    -90.189200    5.792490   -0.439976
  C    -88.814200    4.775020   -2.711340
  H    -88.392300    5.748070   -2.297670
  H    -88.762500    4.876400   -3.758900
  C    -88.066200    3.575820   -2.091320
  H    -88.339800    3.222950   -1.075070
  H    -88.325800    2.719770   -2.693650
  C    -86.573400    3.742410   -2.050040
  H    -86.132500    4.521760   -1.502350
  H    -86.143900    2.791460   -1.635090
  H    -86.397100    3.777630   -3.082940
  S    -94.430400    6.871270   -0.955702
  C    -94.789200    7.563920    0.564019
  C    -93.868400    7.240930    1.529800
  C    -92.960500    6.248150    1.114210
  C    -93.084500    5.984570   -0.267561
  H    -93.883000    7.556640    2.565510
  C    -91.928000    5.698340    2.073300
  H    -92.016400    6.244040    3.016930
  H    -90.881300    5.965500    1.685530
  C    -91.959200    4.153500    2.334760
  H    -92.955500    3.773170    2.291140
  H    -91.767500    4.068470    3.330110
  C    -91.060400    3.367270    1.438000
  H    -90.027000    3.712970    1.526010
  H    -91.313000    3.280830    0.379740
  H    -90.989100    2.329240    1.831680
  H    -91.004500    4.004380   -4.376020
  H    -95.611400    8.162290    0.747202

 Total Charge           Charge          ....    0
 Multiplicity           Mult            ....    1
 Number of Electrons    NEL             ....  134
 Basis Dimension        Dim             ....  322

ORBITAL ENERGIES
----------------

  NO   OCC          E(Eh)            E(eV)
   0   2.0000     -88.966015     -2420.8883
   1   2.0000     -88.965434     -2420.8725
   2   2.0000     -10.336531      -281.2713
   3   2.0000     -10.326927      -281.0100
   4   2.0000     -10.312548      -280.6187
   5   2.0000     -10.308533      -280.5094
   6   2.0000     -10.301999      -280.3317
   7   2.0000     -10.298272      -280.2302
   8   2.0000     -10.298085      -280.2251
   9   2.0000     -10.297481      -280.2087
  10   2.0000     -10.289519      -279.9920
  11   2.0000     -10.288796      -279.9724
  12   2.0000     -10.286761      -279.9170
  13   2.0000     -10.274410      -279.5809
  14   2.0000     -10.272135      -279.5190
  15   2.0000     -10.271060      -279.4897
  16   2.0000      -8.081504      -219.9089
  17   2.0000      -8.079320      -219.8495
  18   2.0000      -6.039839      -164.3524
  19   2.0000      -6.038034      -164.3032
  20   2.0000      -6.035850      -164.2438
  21   2.0000      -6.034064      -164.1952
  22   2.0000      -6.032463      -164.1517
  23   2.0000      -6.029822      -164.0798
  24   2.0000      -1.005606       -27.3639
  25   2.0000      -0.981633       -26.7116
  26   2.0000      -0.916570       -24.9411
  27   2.0000      -0.909296       -24.7432
  28   2.0000      -0.871538       -23.7158
  29   2.0000      -0.855612       -23.2824
  30   2.0000      -0.851353       -23.1665
  31   2.0000      -0.814573       -22.1656
  32   2.0000      -0.779915       -21.2226
  33   2.0000      -0.767874       -20.8949
  34   2.0000      -0.711530       -19.3617
  35   2.0000      -0.702757       -19.1230
  36   2.0000      -0.695055       -18.9134
  37   2.0000      -0.667039       -18.1511
  38   2.0000      -0.636382       -17.3168
  39   2.0000      -0.618232       -16.8230
  40   2.0000      -0.598847       -16.2955
  41   2.0000      -0.566305       -15.4099
  42   2.0000      -0.564144       -15.3511
  43   2.0000      -0.553091       -15.0504
  44   2.0000      -0.538871       -14.6634
  45   2.0000      -0.528857       -14.3909
  46   2.0000      -0.517499       -14.0819
  47   2.0000      -0.515313       -14.0224
  48   2.0000      -0.505676       -13.7601
  49   2.0000      -0.499980       -13.6052
  50   2.0000      -0.487782       -13.2732
  51   2.0000      -0.483101       -13.1458
  52   2.0000      -0.479914       -13.0591
  53   2.0000      -0.464036       -12.6271
  54   2.0000      -0.456871       -12.4321
  55   2.0000      -0.450069       -12.2470
  56   2.0000      -0.446922       -12.1614
  57   2.0000      -0.437601       -11.9077
  58   2.0000      -0.432186       -11.7604
  59   2.0000      -0.424310       -11.5461
  60   2.0000      -0.416717       -11.3395
  61   2.0000      -0.414627       -11.2826
  62   2.0000      -0.405190       -11.0258
  63   2.0000      -0.354400        -9.6437
  64   2.0000      -0.334608        -9.1052
  65   2.0000      -0.323107        -8.7922
  66   2.0000      -0.279952        -7.6179
  67   0.0000       0.021492         0.5848
  68   0.0000       0.077550         2.1102
  69   0.0000       0.097729         2.6593
  70   0.0000       0.123189         3.3521
  71   0.0000       0.128390         3.4937

MULLIKEN ATOMIC CHARGES
-----------------------
   0 S :    0.085283
   1 C :   -0.110093
   2 C :   -0.107193
   3 C :    0.019199
   4 C :   -0.130543
   5 H :    0.022433
   6 C :    0.067167
   7 H :    0.029063
   8 H :    0.009197
   9 C :   -0.058956
  10 H :    0.027532
  11 H :    0.018262
  12 C :   -0.021226
  13 H :    0.032214
  14 H :    0.031629
  15 H :    0.017832
  16 S :    0.107018
  17 C :   -0.050580
  18 C :   -0.035195
  19 C :   -0.048611
  20 C :   -0.131313
  21 H :    0.015030
  22 C :    0.008274
  23 H :    0.012588
  24 H :    0.035792
  25 C :    0.020841
  26 H :    0.019415
  27 H :   -0.004495
  28 C :   -0.060907
  29 H :    0.016125
  30 H :    0.067631
  31 H :    0.024945
  32 H :    0.042794
  33 H :    0.028850
Sum of atomic charges:   -0.0000000

LOEWDIN ATOMIC CHARGES
----------------------
   0 S :    0.371112
   1 C :   -0.201289
   2 C :   -0.064049
   3 C :   -0.058133
   4 C :   -0.172066
   5 H :    0.035019
   6 C :   -0.038286
   7 H :    0.038929
   8 H :    0.026350
   9 C :   -0.039528
  10 H :    0.024569
  11 H :    0.024025
  12 C :   -0.058554
  13 H :    0.017321
  14 H :    0.033566
  15 H :    0.020226
  16 S :    0.429170
  17 C :   -0.184316
  18 C :   -0.071139
  19 C :   -0.057729
  20 C :   -0.200392
  21 H :    0.030949
  22 C :   -0.032091
  23 H :    0.028014
  24 H :    0.034679
  25 C :   -0.031288
  26 H :    0.026072
  27 H :    0.013672
  28 C :   -0.068332
  29 H :    0.019999
  30 H :    0.031568
  31 H :    0.029774
  32 H :    0.028037
  33 H :    0.014142

  Mayer bond orders larger than 0.100000
B(  0-S ,  1-C ) :   1.1123 B(  0-S ,  4-C ) :   1.1356 B(  1-C ,  2-C ) :   1.6355
B(  1-C , 32-H ) :   0.9668 B(  2-C ,  3-C ) :   1.2185 B(  2-C ,  6-C ) :   1.0349
B(  3-C ,  4-C ) :   1.5752 B(  3-C ,  5-H ) :   0.9829 B(  4-C , 20-C ) :   1.0584
B(  6-C ,  7-H ) :   0.9391 B(  6-C ,  8-H ) :   0.9303 B(  6-C ,  9-C ) :   1.0438
B(  9-C , 10-H ) :   0.9629 B(  9-C , 11-H ) :   0.9509 B(  9-C , 12-C ) :   1.0770
B( 12-C , 13-H ) :   0.9793 B( 12-C , 14-H ) :   0.9719 B( 12-C , 15-H ) :   0.9772
B( 16-S , 17-C ) :   1.1759 B( 16-S , 20-C ) :   1.1523 B( 17-C , 18-C ) :   1.5624
B( 17-C , 33-H ) :   0.9780 B( 18-C , 19-C ) :   1.3020 B( 18-C , 21-H ) :   0.9855
B( 19-C , 20-C ) :   1.5415 B( 19-C , 22-C ) :   1.0458 B( 22-C , 23-H ) :   0.9338
B( 22-C , 24-H ) :   0.9366 B( 22-C , 25-C ) :   1.0523 B( 25-C , 26-H ) :   0.9530
B( 25-C , 27-H ) :   0.9497 B( 25-C , 28-C ) :   1.0893 B( 28-C , 29-H ) :   0.9719
B( 28-C , 30-H ) :   0.9726 B( 28-C , 31-H ) :   0.9648

Dispersion correction           -0.015179099
FINAL SINGLE POINT ENERGY     -1339.861336761418

DIPOLE MOMENT
-------------
                                X             Y             Z
Electronic contribution:    -26.75811      12.21338     -10.21853
Nuclear contribution   :     27.31041     -12.25837      10.64504
                        -----------------------------------------
Total Dipole Moment    :      0.55231      -0.04499       0.42651
                        -----------------------------------------
Magnitude (a.u.)       :      0.69927
Magnitude (Debye)      :      1.77739

Rotational constants in cm-1:     0.020576     0.009035     0.006981
Rotational constants in MHz :   616.861933   270.852222   209.279756

                             ****ORCA TERMINATED NORMALLY****
TOTAL RUN TIME: 0 days 0 hours 0 minutes 22 seconds 613 msec
