                         Program Version 4.2.1 -  RELEASE  -
|  1> ! wB97X-D3 SP def2-SVP
|  2> %pal
|  3> nprocs 24
|  4> end
|  5>
|  6> * xyz 0 1
|  7> S 	 -94.6308 	 12.7169 	 -115.786
|  8> C 	 -94.5237 	 11.0265 	 -115.419
|  9> C 	 -95.4027 	 10.2825 	 -116.151
| 10> C 	 -96.1428 	 11.0786 	 -117.114
| 11> C 	 -95.9699 	 12.4503 	 -116.977
| 12> H 	 -96.9481 	 10.6807 	 -117.785
| 13> C 	 -95.4601 	 8.76933 	 -116.006
| 14> H 	 -96.3849 	 8.45785 	 -115.556
| 15> H 	 -94.6589 	 8.52273 	 -115.327
| 16> C 	 -95.2549 	 7.93105 	 -117.345
| 17> H 	 -95.5064 	 6.93923 	 -117.149
| 18> H 	 -95.9678 	 8.35222 	 -118.051
| 19> C 	 -93.8213 	 8.01799 	 -117.896
| 20> H 	 -93.5687 	 9.09268 	 -118.011
| 21> H 	 -93.0721 	 7.60248 	 -117.204
| 22> H 	 -93.8529 	 7.50296 	 -118.865
| 23> S 	 -95.1477 	 14.3322 	 -118.885
| 24> C 	 -96.313 	 15.4936 	 -119.506
| 25> C 	 -97.5916 	 15.0812 	 -119.14
| 26> C 	 -97.6428 	 13.9294 	 -118.312
| 27> C 	 -96.3841 	 13.4972 	 -117.926
| 28> H 	 -98.3948 	 15.8005 	 -119.408
| 29> C 	 -98.9573 	 13.3216 	 -117.807
| 30> H 	 -98.6763 	 12.6276 	 -117.001
| 31> H 	 -99.4293 	 12.704 	 -118.556
| 32> C 	 -100.028 	 14.3946 	 -117.375
| 33> H 	 -100.335 	 14.839 	 -118.32
| 34> H 	 -99.544 	 15.2488 	 -116.876
| 35> C 	 -101.22 	 14.0043 	 -116.524
| 36> H 	 -101.936 	 13.3104 	 -116.989
| 37> H 	 -101.7 	 14.8526 	 -116.046
| 38> H 	 -100.765 	 13.5702 	 -115.61
| 39> H 	 -93.9746 	 10.6377 	 -114.613
| 40> H 	 -96.0234 	 16.4331 	 -120.017
| 41> *
| 42>
| 43>                          ****END OF INPUT****

CARTESIAN COORDINATES (ANGSTROEM)
---------------------------------
  S    -94.630800   12.716900  -115.786000
  C    -94.523700   11.026500  -115.419000
  C    -95.402700   10.282500  -116.151000
  C    -96.142800   11.078600  -117.114000
  C    -95.969900   12.450300  -116.977000
  H    -96.948100   10.680700  -117.785000
  C    -95.460100    8.769330  -116.006000
  H    -96.384900    8.457850  -115.556000
  H    -94.658900    8.522730  -115.327000
  C    -95.254900    7.931050  -117.345000
  H    -95.506400    6.939230  -117.149000
  H    -95.967800    8.352220  -118.051000
  C    -93.821300    8.017990  -117.896000
  H    -93.568700    9.092680  -118.011000
  H    -93.072100    7.602480  -117.204000
  H    -93.852900    7.502960  -118.865000
  S    -95.147700   14.332200  -118.885000
  C    -96.313000   15.493600  -119.506000
  C    -97.591600   15.081200  -119.140000
  C    -97.642800   13.929400  -118.312000
  C    -96.384100   13.497200  -117.926000
  H    -98.394800   15.800500  -119.408000
  C    -98.957300   13.321600  -117.807000
  H    -98.676300   12.627600  -117.001000
  H    -99.429300   12.704000  -118.556000
  C    -100.028000   14.394600  -117.375000
  H    -100.335000   14.839000  -118.320000
  H    -99.544000   15.248800  -116.876000
  C    -101.220000   14.004300  -116.524000
  H    -101.936000   13.310400  -116.989000
  H    -101.700000   14.852600  -116.046000
  H    -100.765000   13.570200  -115.610000
  H    -93.974600   10.637700  -114.613000
  H    -96.023400   16.433100  -120.017000

 Total Charge           Charge          ....    0
 Multiplicity           Mult            ....    1
 Number of Electrons    NEL             ....  134
 Basis Dimension        Dim             ....  322

ORBITAL ENERGIES
----------------

  NO   OCC          E(Eh)            E(eV)
   0   2.0000     -88.965629     -2420.8779
   1   2.0000     -88.962427     -2420.7907
   2   2.0000     -10.337736      -281.3041
   3   2.0000     -10.330002      -281.0937
   4   2.0000     -10.320817      -280.8437
   5   2.0000     -10.312470      -280.6166
   6   2.0000     -10.306267      -280.4478
   7   2.0000     -10.306177      -280.4453
   8   2.0000     -10.302784      -280.3530
   9   2.0000     -10.296539      -280.1831
  10   2.0000     -10.294546      -280.1288
  11   2.0000     -10.291902      -280.0569
  12   2.0000     -10.287067      -279.9253
  13   2.0000     -10.285180      -279.8740
  14   2.0000     -10.280544      -279.7478
  15   2.0000     -10.279132      -279.7094
  16   2.0000      -8.079882      -219.8648
  17   2.0000      -8.076797      -219.7808
  18   2.0000      -6.038450      -164.3146
  19   2.0000      -6.035318      -164.2294
  20   2.0000      -6.034433      -164.2053
  21   2.0000      -6.031355      -164.1215
  22   2.0000      -6.030595      -164.1008
  23   2.0000      -6.027545      -164.0178
  24   2.0000      -1.001999       -27.2658
  25   2.0000      -0.982194       -26.7269
  26   2.0000      -0.905512       -24.6402
  27   2.0000      -0.901819       -24.5398
  28   2.0000      -0.869666       -23.6648
  29   2.0000      -0.849227       -23.1087
  30   2.0000      -0.841649       -22.9024
  31   2.0000      -0.816029       -22.2053
  32   2.0000      -0.781179       -21.2570
  33   2.0000      -0.770770       -20.9737
  34   2.0000      -0.709384       -19.3033
  35   2.0000      -0.699541       -19.0355
  36   2.0000      -0.692055       -18.8318
  37   2.0000      -0.649312       -17.6687
  38   2.0000      -0.642995       -17.4968
  39   2.0000      -0.618400       -16.8275
  40   2.0000      -0.593946       -16.1621
  41   2.0000      -0.567099       -15.4316
  42   2.0000      -0.561579       -15.2814
  43   2.0000      -0.549695       -14.9580
  44   2.0000      -0.541156       -14.7256
  45   2.0000      -0.523995       -14.2586
  46   2.0000      -0.519912       -14.1475
  47   2.0000      -0.514540       -14.0013
  48   2.0000      -0.505594       -13.7579
  49   2.0000      -0.495765       -13.4904
  50   2.0000      -0.487619       -13.2688
  51   2.0000      -0.479735       -13.0543
  52   2.0000      -0.473448       -12.8832
  53   2.0000      -0.464763       -12.6468
  54   2.0000      -0.461739       -12.5645
  55   2.0000      -0.443584       -12.0705
  56   2.0000      -0.440736       -11.9930
  57   2.0000      -0.433267       -11.7898
  58   2.0000      -0.428133       -11.6501
  59   2.0000      -0.422784       -11.5045
  60   2.0000      -0.420079       -11.4309
  61   2.0000      -0.416590       -11.3360
  62   2.0000      -0.410190       -11.1618
  63   2.0000      -0.347317        -9.4510
  64   2.0000      -0.330247        -8.9865
  65   2.0000      -0.325054        -8.8452
  66   2.0000      -0.298674        -8.1273
  67   0.0000       0.026029         0.7083
  68   0.0000       0.064571         1.7571
  69   0.0000       0.113518         3.0890
  70   0.0000       0.125403         3.4124
  71   0.0000       0.128181         3.4880

MULLIKEN ATOMIC CHARGES
-----------------------
   0 S :    0.100445
   1 C :   -0.095480
   2 C :   -0.110980
   3 C :    0.030035
   4 C :   -0.176300
   5 H :    0.043905
   6 C :    0.071872
   7 H :    0.033817
   8 H :    0.005683
   9 C :   -0.064840
  10 H :    0.019216
  11 H :    0.029092
  12 C :   -0.067192
  13 H :    0.046707
  14 H :    0.035847
  15 H :    0.045020
  16 S :    0.101877
  17 C :   -0.126005
  18 C :   -0.054159
  19 C :   -0.028044
  20 C :   -0.156728
  21 H :    0.038860
  22 C :    0.098658
  23 H :    0.022440
  24 H :    0.035204
  25 C :   -0.125604
  26 H :    0.024777
  27 H :    0.032714
  28 C :   -0.026957
  29 H :    0.044806
  30 H :    0.031459
  31 H :    0.024857
  32 H :    0.038142
  33 H :    0.076855
Sum of atomic charges:    0.0000000

LOEWDIN ATOMIC CHARGES
----------------------
   0 S :    0.388178
   1 C :   -0.185688
   2 C :   -0.069889
   3 C :   -0.056603
   4 C :   -0.182241
   5 H :    0.040433
   6 C :   -0.026339
   7 H :    0.027872
   8 H :    0.024089
   9 C :   -0.031356
  10 H :    0.014133
  11 H :    0.021958
  12 C :   -0.067539
  13 H :    0.031220
  14 H :    0.025606
  15 H :    0.030284
  16 S :    0.390377
  17 C :   -0.188706
  18 C :   -0.081350
  19 C :   -0.056343
  20 C :   -0.192572
  21 H :    0.039013
  22 C :   -0.027990
  23 H :    0.028158
  24 H :    0.030618
  25 C :   -0.048795
  26 H :    0.017553
  27 H :    0.027549
  28 C :   -0.070729
  29 H :    0.026767
  30 H :    0.030614
  31 H :    0.031454
  32 H :    0.021460
  33 H :    0.038808

  Mayer bond orders larger than 0.100000
B(  0-S ,  1-C ) :   1.1435 B(  0-S ,  4-C ) :   1.1352 B(  1-C ,  2-C ) :   1.6250
B(  1-C , 32-H ) :   0.9662 B(  2-C ,  3-C ) :   1.2271 B(  2-C ,  6-C ) :   1.0276
B(  3-C ,  4-C ) :   1.5880 B(  3-C ,  5-H ) :   0.9765 B(  4-C , 20-C ) :   1.0331
B(  6-C ,  7-H ) :   0.9370 B(  6-C ,  8-H ) :   0.9433 B(  6-C ,  9-C ) :   1.0672
B(  9-C , 10-H ) :   0.9569 B(  9-C , 11-H ) :   0.9579 B(  9-C , 12-C ) :   1.0732
B( 12-C , 13-H ) :   0.9777 B( 12-C , 14-H ) :   0.9753 B( 12-C , 15-H ) :   0.9734
B( 16-S , 17-C ) :   1.1514 B( 16-S , 20-C ) :   1.1428 B( 17-C , 18-C ) :   1.6098
B( 17-C , 20-C ) :   0.1029 B( 17-C , 33-H ) :   0.9641 B( 18-C , 19-C ) :   1.2290
B( 18-C , 21-H ) :   0.9846 B( 19-C , 20-C ) :   1.6053 B( 19-C , 22-C ) :   1.0447
B( 22-C , 23-H ) :   0.9323 B( 22-C , 24-H ) :   0.9331 B( 22-C , 25-C ) :   1.0470
B( 25-C , 26-H ) :   0.9483 B( 25-C , 27-H ) :   0.9631 B( 25-C , 28-C ) :   1.0943
B( 28-C , 29-H ) :   0.9748 B( 28-C , 30-H ) :   0.9701 B( 28-C , 31-H ) :   0.9686

Dispersion correction           -0.013776525
FINAL SINGLE POINT ENERGY     -1339.881284812738

DIPOLE MOMENT
-------------
                                X             Y             Z
Electronic contribution:     15.52989      15.01044      -1.16219
Nuclear contribution   :    -15.99598     -15.37134       1.21670
                        -----------------------------------------
Total Dipole Moment    :     -0.46608      -0.36090       0.05451
                        -----------------------------------------
Magnitude (a.u.)       :      0.59199
Magnitude (Debye)      :      1.50473

Rotational constants in cm-1:     0.018241     0.007859     0.006670
Rotational constants in MHz :   546.853277   235.596630   199.968657

                             ****ORCA TERMINATED NORMALLY****
TOTAL RUN TIME: 0 days 0 hours 0 minutes 21 seconds 44 msec
