                         Program Version 4.2.1 -  RELEASE  -
|  1> ! wB97X-D3 SP def2-SVP
|  2> %pal
|  3> nprocs 24
|  4> end
|  5>
|  6> * xyz 0 1
|  7> S 	 -103.381 	 19.4981 	 -115.095
|  8> C 	 -102.874 	 18.0413 	 -115.951
|  9> C 	 -103.897 	 17.1385 	 -116.173
| 10> C 	 -105.142 	 17.7157 	 -115.778
| 11> C 	 -105.068 	 18.8933 	 -115.09
| 12> H 	 -106.127 	 17.2185 	 -115.818
| 13> C 	 -103.81 	 15.7264 	 -116.739
| 14> H 	 -103.118 	 15.6552 	 -117.589
| 15> H 	 -104.748 	 15.5493 	 -117.312
| 16> C 	 -103.555 	 14.6202 	 -115.616
| 17> H 	 -103.299 	 13.7438 	 -116.224
| 18> H 	 -102.878 	 14.855 	 -114.917
| 19> C 	 -104.845 	 14.2173 	 -114.846
| 20> H 	 -105.535 	 14.0556 	 -115.679
| 21> H 	 -104.708 	 13.3962 	 -114.226
| 22> H 	 -105.27 	 14.9885 	 -114.134
| 23> S 	 -106.306 	 19.6696 	 -112.769
| 24> C 	 -107.733 	 20.6707 	 -112.915
| 25> C 	 -108.088 	 20.9044 	 -114.278
| 26> C 	 -107.225 	 20.2257 	 -115.17
| 27> C 	 -106.138 	 19.6355 	 -114.507
| 28> H 	 -109.016 	 21.4555 	 -114.544
| 29> C 	 -107.47 	 20.2743 	 -116.638
| 30> H 	 -108.546 	 20.2968 	 -116.942
| 31> H 	 -106.995 	 19.414 	 -117.111
| 32> C 	 -106.835 	 21.4816 	 -117.329
| 33> H 	 -105.87 	 21.6406 	 -116.829
| 34> H 	 -107.442 	 22.3964 	 -117.18
| 35> C 	 -106.571 	 21.2724 	 -118.773
| 36> H 	 -107.519 	 20.9815 	 -119.303
| 37> H 	 -105.798 	 20.539 	 -118.927
| 38> H 	 -106.229 	 22.2536 	 -119.176
| 39> H 	 -101.933 	 17.904 	 -116.447
| 40> H 	 -108.43 	 20.9545 	 -112.127
| 41> *
| 42>
| 43>                          ****END OF INPUT****

CARTESIAN COORDINATES (ANGSTROEM)
---------------------------------
  S    -103.381000   19.498100  -115.095000
  C    -102.874000   18.041300  -115.951000
  C    -103.897000   17.138500  -116.173000
  C    -105.142000   17.715700  -115.778000
  C    -105.068000   18.893300  -115.090000
  H    -106.127000   17.218500  -115.818000
  C    -103.810000   15.726400  -116.739000
  H    -103.118000   15.655200  -117.589000
  H    -104.748000   15.549300  -117.312000
  C    -103.555000   14.620200  -115.616000
  H    -103.299000   13.743800  -116.224000
  H    -102.878000   14.855000  -114.917000
  C    -104.845000   14.217300  -114.846000
  H    -105.535000   14.055600  -115.679000
  H    -104.708000   13.396200  -114.226000
  H    -105.270000   14.988500  -114.134000
  S    -106.306000   19.669600  -112.769000
  C    -107.733000   20.670700  -112.915000
  C    -108.088000   20.904400  -114.278000
  C    -107.225000   20.225700  -115.170000
  C    -106.138000   19.635500  -114.507000
  H    -109.016000   21.455500  -114.544000
  C    -107.470000   20.274300  -116.638000
  H    -108.546000   20.296800  -116.942000
  H    -106.995000   19.414000  -117.111000
  C    -106.835000   21.481600  -117.329000
  H    -105.870000   21.640600  -116.829000
  H    -107.442000   22.396400  -117.180000
  C    -106.571000   21.272400  -118.773000
  H    -107.519000   20.981500  -119.303000
  H    -105.798000   20.539000  -118.927000
  H    -106.229000   22.253600  -119.176000
  H    -101.933000   17.904000  -116.447000
  H    -108.430000   20.954500  -112.127000

 Total Charge           Charge          ....    0
 Multiplicity           Mult            ....    1
 Number of Electrons    NEL             ....  134
 Basis Dimension        Dim             ....  322

ORBITAL ENERGIES
----------------

  NO   OCC          E(Eh)            E(eV)
   0   2.0000     -88.971840     -2421.0468
   1   2.0000     -88.966140     -2420.8917
   2   2.0000     -10.325569      -280.9730
   3   2.0000     -10.322446      -280.8880
   4   2.0000     -10.320636      -280.8388
   5   2.0000     -10.312889      -280.6280
   6   2.0000     -10.302606      -280.3482
   7   2.0000     -10.302127      -280.3351
   8   2.0000     -10.301502      -280.3181
   9   2.0000     -10.297890      -280.2198
  10   2.0000     -10.293160      -280.0911
  11   2.0000     -10.287088      -279.9259
  12   2.0000     -10.286244      -279.9029
  13   2.0000     -10.277148      -279.6554
  14   2.0000     -10.276072      -279.6261
  15   2.0000     -10.275532      -279.6114
  16   2.0000      -8.086084      -220.0335
  17   2.0000      -8.079951      -219.8666
  18   2.0000      -6.044487      -164.4789
  19   2.0000      -6.040635      -164.3740
  20   2.0000      -6.038503      -164.3160
  21   2.0000      -6.037023      -164.2757
  22   2.0000      -6.034660      -164.2114
  23   2.0000      -6.030655      -164.1025
  24   2.0000      -1.004355       -27.3299
  25   2.0000      -0.979627       -26.6570
  26   2.0000      -0.914066       -24.8730
  27   2.0000      -0.904857       -24.6224
  28   2.0000      -0.867965       -23.6185
  29   2.0000      -0.855308       -23.2741
  30   2.0000      -0.845267       -23.0009
  31   2.0000      -0.809294       -22.0220
  32   2.0000      -0.781880       -21.2760
  33   2.0000      -0.767377       -20.8814
  34   2.0000      -0.705963       -19.2102
  35   2.0000      -0.700978       -19.0746
  36   2.0000      -0.684516       -18.6266
  37   2.0000      -0.659490       -17.9456
  38   2.0000      -0.641892       -17.4668
  39   2.0000      -0.615102       -16.7378
  40   2.0000      -0.596873       -16.2417
  41   2.0000      -0.575585       -15.6625
  42   2.0000      -0.569141       -15.4871
  43   2.0000      -0.548484       -14.9250
  44   2.0000      -0.538481       -14.6528
  45   2.0000      -0.518057       -14.0970
  46   2.0000      -0.516591       -14.0572
  47   2.0000      -0.510687       -13.8965
  48   2.0000      -0.499404       -13.5895
  49   2.0000      -0.493408       -13.4263
  50   2.0000      -0.485953       -13.2235
  51   2.0000      -0.480070       -13.0634
  52   2.0000      -0.475299       -12.9335
  53   2.0000      -0.464277       -12.6336
  54   2.0000      -0.455451       -12.3935
  55   2.0000      -0.447840       -12.1864
  56   2.0000      -0.440953       -11.9989
  57   2.0000      -0.436677       -11.8826
  58   2.0000      -0.429588       -11.6897
  59   2.0000      -0.423907       -11.5351
  60   2.0000      -0.419430       -11.4133
  61   2.0000      -0.417378       -11.3574
  62   2.0000      -0.412679       -11.2296
  63   2.0000      -0.339592        -9.2408
  64   2.0000      -0.331080        -9.0091
  65   2.0000      -0.327832        -8.9208
  66   2.0000      -0.293052        -7.9743
  67   0.0000       0.036666         0.9977
  68   0.0000       0.052538         1.4296
  69   0.0000       0.110989         3.0202
  70   0.0000       0.114330         3.1111
  71   0.0000       0.127271         3.4632

MULLIKEN ATOMIC CHARGES
-----------------------
   0 S :    0.107173
   1 C :   -0.111646
   2 C :   -0.087714
   3 C :    0.045115
   4 C :   -0.189624
   5 H :    0.025101
   6 C :    0.023325
   7 H :    0.027104
   8 H :    0.025981
   9 C :   -0.010022
  10 H :    0.035526
  11 H :    0.015927
  12 C :   -0.067859
  13 H :    0.024907
  14 H :    0.026275
  15 H :    0.046554
  16 S :    0.137379
  17 C :   -0.103929
  18 C :   -0.057454
  19 C :   -0.007891
  20 C :   -0.182699
  21 H :    0.034333
  22 C :    0.076776
  23 H :    0.030721
  24 H :    0.007327
  25 C :   -0.088256
  26 H :    0.027502
  27 H :    0.026967
  28 C :   -0.048263
  29 H :    0.030746
  30 H :    0.039225
  31 H :    0.036937
  32 H :    0.042257
  33 H :    0.062198
Sum of atomic charges:    0.0000000

LOEWDIN ATOMIC CHARGES
----------------------
   0 S :    0.379946
   1 C :   -0.189760
   2 C :   -0.066831
   3 C :   -0.060892
   4 C :   -0.189402
   5 H :    0.036556
   6 C :   -0.035023
   7 H :    0.030061
   8 H :    0.033937
   9 C :   -0.016293
  10 H :    0.030082
  11 H :    0.007062
  12 C :   -0.064225
  13 H :    0.023817
  14 H :    0.015586
  15 H :    0.032298
  16 S :    0.425812
  17 C :   -0.195799
  18 C :   -0.071048
  19 C :   -0.048321
  20 C :   -0.216897
  21 H :    0.038173
  22 C :   -0.037334
  23 H :    0.034844
  24 H :    0.028312
  25 C :   -0.045307
  26 H :    0.025056
  27 H :    0.022229
  28 C :   -0.065858
  29 H :    0.026451
  30 H :    0.023689
  31 H :    0.031903
  32 H :    0.025724
  33 H :    0.031449

  Mayer bond orders larger than 0.100000
B(  0-S ,  1-C ) :   1.1352 B(  0-S ,  4-C ) :   1.1179 B(  1-C ,  2-C ) :   1.6336
B(  1-C , 32-H ) :   0.9648 B(  2-C ,  3-C ) :   1.2315 B(  2-C ,  6-C ) :   1.0162
B(  3-C ,  4-C ) :   1.6219 B(  3-C ,  5-H ) :   0.9793 B(  4-C , 20-C ) :   1.0425
B(  6-C ,  7-H ) :   0.9458 B(  6-C ,  8-H ) :   0.9440 B(  6-C ,  9-C ) :   1.0505
B(  9-C , 10-H ) :   0.9572 B(  9-C , 11-H ) :   0.9636 B(  9-C , 12-C ) :   1.0738
B( 12-C , 13-H ) :   0.9792 B( 12-C , 14-H ) :   0.9748 B( 12-C , 15-H ) :   0.9739
B( 16-S , 17-C ) :   1.1704 B( 16-S , 20-C ) :   1.1544 B( 17-C , 18-C ) :   1.5757
B( 17-C , 20-C ) :   0.1124 B( 17-C , 33-H ) :   0.9655 B( 18-C , 19-C ) :   1.2722
B( 18-C , 21-H ) :   0.9817 B( 19-C , 20-C ) :   1.5523 B( 19-C , 22-C ) :   1.0698
B( 22-C , 23-H ) :   0.9278 B( 22-C , 24-H ) :   0.9223 B( 22-C , 25-C ) :   1.0622
B( 25-C , 26-H ) :   0.9526 B( 25-C , 27-H ) :   0.9525 B( 25-C , 28-C ) :   1.0993
B( 28-C , 29-H ) :   0.9701 B( 28-C , 30-H ) :   0.9728 B( 28-C , 31-H ) :   0.9705

Dispersion correction           -0.014874165
FINAL SINGLE POINT ENERGY     -1339.869419292104

DIPOLE MOMENT
-------------
                                X             Y             Z
Electronic contribution:      4.63630      10.78291      17.64272
Nuclear contribution   :     -4.93299     -11.16338     -18.06366
                        -----------------------------------------
Total Dipole Moment    :     -0.29669      -0.38047      -0.42094
                        -----------------------------------------
Magnitude (a.u.)       :      0.64029
Magnitude (Debye)      :      1.62748

Rotational constants in cm-1:     0.017682     0.009065     0.007619
Rotational constants in MHz :   530.107154   271.754146   228.412685

                             ****ORCA TERMINATED NORMALLY****
TOTAL RUN TIME: 0 days 0 hours 0 minutes 20 seconds 813 msec
