                         Program Version 4.2.1 -  RELEASE  -
|  1> ! wB97X-D3 SP def2-SVP
|  2> %pal
|  3> nprocs 24
|  4> end
|  5>
|  6> * xyz 0 1
|  7> S 	 -106.354 	 60.0938 	 -92.3364
|  8> C 	 -104.917 	 61.1512 	 -92.328
|  9> C 	 -103.785 	 60.4792 	 -92.8037
| 10> C 	 -104.146 	 59.2026 	 -93.3679
| 11> C 	 -105.478 	 58.9351 	 -93.2228
| 12> H 	 -103.507 	 58.4831 	 -93.862
| 13> C 	 -102.371 	 60.885 	 -92.7191
| 14> H 	 -102.029 	 60.9276 	 -93.7306
| 15> H 	 -101.837 	 60.0307 	 -92.2339
| 16> C 	 -101.917 	 62.1632 	 -91.9958
| 17> H 	 -102.383 	 63.0972 	 -92.3863
| 18> H 	 -102.3 	 62.0954 	 -90.963
| 19> C 	 -100.389 	 62.3876 	 -91.9148
| 20> H 	 -99.8816 	 61.4946 	 -91.5201
| 21> H 	 -99.9804 	 62.8422 	 -92.8149
| 22> H 	 -100.233 	 63.083 	 -91.0905
| 23> S 	 -106.874 	 56.5224 	 -92.9086
| 24> C 	 -107.421 	 55.7327 	 -94.3583
| 25> C 	 -107.275 	 56.4731 	 -95.4802
| 26> C 	 -106.514 	 57.6578 	 -95.306
| 27> C 	 -106.288 	 57.9243 	 -93.9147
| 28> H 	 -107.67 	 56.0559 	 -96.3872
| 29> C 	 -106.185 	 58.5673 	 -96.4662
| 30> H 	 -105.413 	 59.2535 	 -96.1974
| 31> H 	 -107.141 	 59.1554 	 -96.5666
| 32> C 	 -105.845 	 57.8998 	 -97.8573
| 33> H 	 -106.816 	 57.4928 	 -98.222
| 34> H 	 -105.103 	 57.122 	 -97.7141
| 35> C 	 -105.384 	 59.0135 	 -98.805
| 36> H 	 -106.122 	 59.8309 	 -98.7308
| 37> H 	 -105.447 	 58.6017 	 -99.881
| 38> H 	 -104.287 	 59.4188 	 -98.6619
| 39> H 	 -104.834 	 62.1701 	 -91.9155
| 40> H 	 -107.862 	 54.7316 	 -94.3642
| 41> *
| 42>
| 43>                          ****END OF INPUT****

CARTESIAN COORDINATES (ANGSTROEM)
---------------------------------
  S    -106.354000   60.093800  -92.336400
  C    -104.917000   61.151200  -92.328000
  C    -103.785000   60.479200  -92.803700
  C    -104.146000   59.202600  -93.367900
  C    -105.478000   58.935100  -93.222800
  H    -103.507000   58.483100  -93.862000
  C    -102.371000   60.885000  -92.719100
  H    -102.029000   60.927600  -93.730600
  H    -101.837000   60.030700  -92.233900
  C    -101.917000   62.163200  -91.995800
  H    -102.383000   63.097200  -92.386300
  H    -102.300000   62.095400  -90.963000
  C    -100.389000   62.387600  -91.914800
  H    -99.881600   61.494600  -91.520100
  H    -99.980400   62.842200  -92.814900
  H    -100.233000   63.083000  -91.090500
  S    -106.874000   56.522400  -92.908600
  C    -107.421000   55.732700  -94.358300
  C    -107.275000   56.473100  -95.480200
  C    -106.514000   57.657800  -95.306000
  C    -106.288000   57.924300  -93.914700
  H    -107.670000   56.055900  -96.387200
  C    -106.185000   58.567300  -96.466200
  H    -105.413000   59.253500  -96.197400
  H    -107.141000   59.155400  -96.566600
  C    -105.845000   57.899800  -97.857300
  H    -106.816000   57.492800  -98.222000
  H    -105.103000   57.122000  -97.714100
  C    -105.384000   59.013500  -98.805000
  H    -106.122000   59.830900  -98.730800
  H    -105.447000   58.601700  -99.881000
  H    -104.287000   59.418800  -98.661900
  H    -104.834000   62.170100  -91.915500
  H    -107.862000   54.731600  -94.364200

 Total Charge           Charge          ....    0
 Multiplicity           Mult            ....    1
 Number of Electrons    NEL             ....  134
 Basis Dimension        Dim             ....  322

ORBITAL ENERGIES
----------------

  NO   OCC          E(Eh)            E(eV)
   0   2.0000     -88.962839     -2420.8019
   1   2.0000     -88.961541     -2420.7666
   2   2.0000     -10.329414      -281.0777
   3   2.0000     -10.321191      -280.8539
   4   2.0000     -10.314665      -280.6763
   5   2.0000     -10.313000      -280.6310
   6   2.0000     -10.309078      -280.5243
   7   2.0000     -10.302482      -280.3448
   8   2.0000     -10.296621      -280.1853
   9   2.0000     -10.295644      -280.1587
  10   2.0000     -10.293179      -280.0917
  11   2.0000     -10.292652      -280.0773
  12   2.0000     -10.291701      -280.0514
  13   2.0000     -10.291108      -280.0353
  14   2.0000     -10.286198      -279.9017
  15   2.0000     -10.283253      -279.8215
  16   2.0000      -8.078068      -219.8154
  17   2.0000      -8.075673      -219.7502
  18   2.0000      -6.036630      -164.2651
  19   2.0000      -6.034143      -164.1974
  20   2.0000      -6.032546      -164.1539
  21   2.0000      -6.030349      -164.0941
  22   2.0000      -6.028693      -164.0491
  23   2.0000      -6.026449      -163.9880
  24   2.0000      -1.002405       -27.2768
  25   2.0000      -0.978613       -26.6294
  26   2.0000      -0.913737       -24.8641
  27   2.0000      -0.904860       -24.6225
  28   2.0000      -0.865022       -23.5385
  29   2.0000      -0.849316       -23.1111
  30   2.0000      -0.846355       -23.0305
  31   2.0000      -0.811456       -22.0808
  32   2.0000      -0.783541       -21.3212
  33   2.0000      -0.762587       -20.7510
  34   2.0000      -0.709416       -19.3042
  35   2.0000      -0.698617       -19.0103
  36   2.0000      -0.689867       -18.7722
  37   2.0000      -0.646668       -17.5967
  38   2.0000      -0.635736       -17.2993
  39   2.0000      -0.610320       -16.6076
  40   2.0000      -0.594194       -16.1688
  41   2.0000      -0.574194       -15.6246
  42   2.0000      -0.570005       -15.5106
  43   2.0000      -0.564908       -15.3719
  44   2.0000      -0.520513       -14.1639
  45   2.0000      -0.518421       -14.1069
  46   2.0000      -0.516576       -14.0568
  47   2.0000      -0.513153       -13.9636
  48   2.0000      -0.502660       -13.6781
  49   2.0000      -0.496083       -13.4991
  50   2.0000      -0.486907       -13.2494
  51   2.0000      -0.477182       -12.9848
  52   2.0000      -0.470377       -12.7996
  53   2.0000      -0.458858       -12.4862
  54   2.0000      -0.454982       -12.3807
  55   2.0000      -0.449737       -12.2380
  56   2.0000      -0.445895       -12.1334
  57   2.0000      -0.435605       -11.8534
  58   2.0000      -0.433226       -11.7887
  59   2.0000      -0.428711       -11.6658
  60   2.0000      -0.425027       -11.5656
  61   2.0000      -0.418952       -11.4003
  62   2.0000      -0.410911       -11.1815
  63   2.0000      -0.333803        -9.0832
  64   2.0000      -0.328580        -8.9411
  65   2.0000      -0.322279        -8.7696
  66   2.0000      -0.294130        -8.0037
  67   0.0000       0.043645         1.1877
  68   0.0000       0.057527         1.5654
  69   0.0000       0.107206         2.9172
  70   0.0000       0.119434         3.2500
  71   0.0000       0.126177         3.4335

MULLIKEN ATOMIC CHARGES
-----------------------
   0 S :    0.118097
   1 C :   -0.136875
   2 C :   -0.087914
   3 C :    0.029375
   4 C :   -0.148295
   5 H :    0.011407
   6 C :    0.061049
   7 H :    0.027438
   8 H :    0.042331
   9 C :   -0.117563
  10 H :    0.033685
  11 H :    0.029082
  12 C :   -0.033102
  13 H :    0.031862
  14 H :    0.046703
  15 H :    0.026600
  16 S :    0.090596
  17 C :   -0.094559
  18 C :   -0.031709
  19 C :   -0.008745
  20 C :   -0.169280
  21 H :    0.011485
  22 C :    0.029293
  23 H :    0.023347
  24 H :    0.055070
  25 C :   -0.079657
  26 H :    0.040561
  27 H :    0.042408
  28 C :   -0.097236
  29 H :    0.037647
  30 H :    0.045504
  31 H :    0.060412
  32 H :    0.051388
  33 H :    0.059596
Sum of atomic charges:    0.0000000

LOEWDIN ATOMIC CHARGES
----------------------
   0 S :    0.413993
   1 C :   -0.203395
   2 C :   -0.058220
   3 C :   -0.060677
   4 C :   -0.210963
   5 H :    0.033855
   6 C :   -0.041837
   7 H :    0.031322
   8 H :    0.043378
   9 C :   -0.048800
  10 H :    0.025163
  11 H :    0.024358
  12 C :   -0.064461
  13 H :    0.028243
  14 H :    0.026818
  15 H :    0.029919
  16 S :    0.375186
  17 C :   -0.181162
  18 C :   -0.081464
  19 C :   -0.044176
  20 C :   -0.193928
  21 H :    0.030094
  22 C :   -0.036078
  23 H :    0.024417
  24 H :    0.045869
  25 C :   -0.040519
  26 H :    0.028372
  27 H :    0.024215
  28 C :   -0.080591
  29 H :    0.026294
  30 H :    0.033384
  31 H :    0.038615
  32 H :    0.030703
  33 H :    0.032073

  Mayer bond orders larger than 0.100000
B(  0-S ,  1-C ) :   1.1176 B(  0-S ,  4-C ) :   1.1646 B(  1-C ,  2-C ) :   1.6389
B(  1-C , 32-H ) :   0.9606 B(  2-C ,  3-C ) :   1.1982 B(  2-C ,  6-C ) :   1.0219
B(  3-C ,  4-C ) :   1.6113 B(  3-C ,  5-H ) :   1.0055 B(  4-C , 20-C ) :   0.9765
B(  6-C ,  7-H ) :   0.9267 B(  6-C ,  8-H ) :   0.9382 B(  6-C ,  9-C ) :   1.0743
B(  9-C , 10-H ) :   0.9511 B(  9-C , 11-H ) :   0.9540 B(  9-C , 12-C ) :   1.0907
B( 12-C , 13-H ) :   0.9718 B( 12-C , 14-H ) :   0.9764 B( 12-C , 15-H ) :   0.9723
B( 16-S , 17-C ) :   1.1595 B( 16-S , 20-C ) :   1.1250 B( 17-C , 18-C ) :   1.6376
B( 17-C , 20-C ) :   0.1017 B( 17-C , 33-H ) :   0.9595 B( 18-C , 19-C ) :   1.2171
B( 18-C , 21-H ) :   0.9893 B( 19-C , 20-C ) :   1.5978 B( 19-C , 22-C ) :   1.0455
B( 22-C , 23-H ) :   0.9408 B( 22-C , 24-H ) :   0.9290 B( 22-C , 25-C ) :   1.0549
B( 25-C , 26-H ) :   0.9460 B( 25-C , 27-H ) :   0.9636 B( 25-C , 28-C ) :   1.0828
B( 28-C , 29-H ) :   0.9695 B( 28-C , 30-H ) :   0.9739 B( 28-C , 31-H ) :   0.9722

Dispersion correction           -0.013426210
FINAL SINGLE POINT ENERGY     -1339.872443330051

DIPOLE MOMENT
-------------
                                X             Y             Z
Electronic contribution:    -19.80821     -12.97890      15.09446
Nuclear contribution   :     20.29687      13.11314     -15.61828
                        -----------------------------------------
Total Dipole Moment    :      0.48866       0.13425      -0.52382
                        -----------------------------------------
Magnitude (a.u.)       :      0.72883
Magnitude (Debye)      :      1.85255

Rotational constants in cm-1:     0.018426     0.007420     0.005904
Rotational constants in MHz :   552.388922   222.446186   177.009486

                             ****ORCA TERMINATED NORMALLY****
TOTAL RUN TIME: 0 days 0 hours 0 minutes 20 seconds 718 msec
