                         Program Version 4.2.1 -  RELEASE  -
|  1> ! wB97X-D3 SP def2-SVP
|  2> %pal
|  3> nprocs 24
|  4> end
|  5>
|  6> * xyz 0 1
|  7> S 	 -108.278 	 61.3223 	 -11.044
|  8> C 	 -109.803 	 62.2128 	 -10.8722
|  9> C 	 -110.399 	 62.3313 	 -12.1017
| 10> C 	 -109.676 	 61.6157 	 -13.1366
| 11> C 	 -108.545 	 60.9709 	 -12.702
| 12> H 	 -109.935 	 61.675 	 -14.1818
| 13> C 	 -111.614 	 63.1321 	 -12.4165
| 14> H 	 -111.531 	 63.5848 	 -13.3879
| 15> H 	 -111.783 	 63.9813 	 -11.7122
| 16> C 	 -112.882 	 62.3293 	 -12.2028
| 17> H 	 -113.644 	 62.8255 	 -12.775
| 18> H 	 -112.798 	 61.3394 	 -12.6177
| 19> C 	 -113.265 	 62.1313 	 -10.7137
| 20> H 	 -114.071 	 61.3937 	 -10.7182
| 21> H 	 -112.572 	 61.5496 	 -10.132
| 22> H 	 -113.586 	 63.0942 	 -10.1694
| 23> S 	 -105.95 	 60.1781 	 -12.8113
| 24> C 	 -105.366 	 59.1294 	 -14.1334
| 25> C 	 -106.325 	 59.0385 	 -15.1198
| 26> C 	 -107.491 	 59.7679 	 -14.7926
| 27> C 	 -107.508 	 60.3798 	 -13.5132
| 28> H 	 -106.261 	 58.6287 	 -16.1163
| 29> C 	 -108.682 	 59.5618 	 -15.7175
| 30> H 	 -109.645 	 59.9736 	 -15.3013
| 31> H 	 -108.846 	 58.4731 	 -15.7461
| 32> C 	 -108.408 	 60.2209 	 -17.041
| 33> H 	 -109.225 	 60.0111 	 -17.6405
| 34> H 	 -107.52 	 59.7318 	 -17.4189
| 35> C 	 -107.938 	 61.6723 	 -17.0794
| 36> H 	 -107.143 	 61.9281 	 -16.3237
| 37> H 	 -108.896 	 62.1841 	 -16.8651
| 38> H 	 -107.653 	 61.8455 	 -18.1377
| 39> H 	 -110.306 	 62.4714 	 -9.91787
| 40> H 	 -104.446 	 58.6062 	 -14.2747
| 41> *
| 42>
| 43>                          ****END OF INPUT****

CARTESIAN COORDINATES (ANGSTROEM)
---------------------------------
  S    -108.278000   61.322300  -11.044000
  C    -109.803000   62.212800  -10.872200
  C    -110.399000   62.331300  -12.101700
  C    -109.676000   61.615700  -13.136600
  C    -108.545000   60.970900  -12.702000
  H    -109.935000   61.675000  -14.181800
  C    -111.614000   63.132100  -12.416500
  H    -111.531000   63.584800  -13.387900
  H    -111.783000   63.981300  -11.712200
  C    -112.882000   62.329300  -12.202800
  H    -113.644000   62.825500  -12.775000
  H    -112.798000   61.339400  -12.617700
  C    -113.265000   62.131300  -10.713700
  H    -114.071000   61.393700  -10.718200
  H    -112.572000   61.549600  -10.132000
  H    -113.586000   63.094200  -10.169400
  S    -105.950000   60.178100  -12.811300
  C    -105.366000   59.129400  -14.133400
  C    -106.325000   59.038500  -15.119800
  C    -107.491000   59.767900  -14.792600
  C    -107.508000   60.379800  -13.513200
  H    -106.261000   58.628700  -16.116300
  C    -108.682000   59.561800  -15.717500
  H    -109.645000   59.973600  -15.301300
  H    -108.846000   58.473100  -15.746100
  C    -108.408000   60.220900  -17.041000
  H    -109.225000   60.011100  -17.640500
  H    -107.520000   59.731800  -17.418900
  C    -107.938000   61.672300  -17.079400
  H    -107.143000   61.928100  -16.323700
  H    -108.896000   62.184100  -16.865100
  H    -107.653000   61.845500  -18.137700
  H    -110.306000   62.471400   -9.917870
  H    -104.446000   58.606200  -14.274700

 Total Charge           Charge          ....    0
 Multiplicity           Mult            ....    1
 Number of Electrons    NEL             ....  134
 Basis Dimension        Dim             ....  322

ORBITAL ENERGIES
----------------

  NO   OCC          E(Eh)            E(eV)
   0   2.0000     -88.968663     -2420.9604
   1   2.0000     -88.963928     -2420.8315
   2   2.0000     -10.330025      -281.0943
   3   2.0000     -10.329466      -281.0791
   4   2.0000     -10.321442      -280.8607
   5   2.0000     -10.316002      -280.7127
   6   2.0000     -10.300442      -280.2893
   7   2.0000     -10.300178      -280.2821
   8   2.0000     -10.293200      -280.0922
   9   2.0000     -10.292190      -280.0647
  10   2.0000     -10.291484      -280.0455
  11   2.0000     -10.288951      -279.9766
  12   2.0000     -10.285349      -279.8786
  13   2.0000     -10.284494      -279.8553
  14   2.0000     -10.283637      -279.8320
  15   2.0000     -10.276311      -279.6327
  16   2.0000      -8.083140      -219.9534
  17   2.0000      -8.079132      -219.8444
  18   2.0000      -6.041838      -164.4068
  19   2.0000      -6.037851      -164.2983
  20   2.0000      -6.037569      -164.2906
  21   2.0000      -6.033808      -164.1883
  22   2.0000      -6.033549      -164.1812
  23   2.0000      -6.029647      -164.0750
  24   2.0000      -1.012084       -27.5402
  25   2.0000      -0.986085       -26.8327
  26   2.0000      -0.921329       -25.0706
  27   2.0000      -0.915733       -24.9184
  28   2.0000      -0.873379       -23.7658
  29   2.0000      -0.849262       -23.1096
  30   2.0000      -0.842060       -22.9136
  31   2.0000      -0.815547       -22.1922
  32   2.0000      -0.785325       -21.3698
  33   2.0000      -0.775141       -21.0926
  34   2.0000      -0.710557       -19.3352
  35   2.0000      -0.699601       -19.0371
  36   2.0000      -0.690585       -18.7918
  37   2.0000      -0.663309       -18.0495
  38   2.0000      -0.639547       -17.4030
  39   2.0000      -0.624132       -16.9835
  40   2.0000      -0.600971       -16.3533
  41   2.0000      -0.578221       -15.7342
  42   2.0000      -0.557294       -15.1647
  43   2.0000      -0.552198       -15.0261
  44   2.0000      -0.547466       -14.8973
  45   2.0000      -0.538855       -14.6630
  46   2.0000      -0.520839       -14.1727
  47   2.0000      -0.510948       -13.9036
  48   2.0000      -0.505327       -13.7507
  49   2.0000      -0.497794       -13.5457
  50   2.0000      -0.492911       -13.4128
  51   2.0000      -0.484697       -13.1893
  52   2.0000      -0.468577       -12.7506
  53   2.0000      -0.462952       -12.5976
  54   2.0000      -0.458918       -12.4878
  55   2.0000      -0.458587       -12.4788
  56   2.0000      -0.444772       -12.1029
  57   2.0000      -0.444224       -12.0879
  58   2.0000      -0.434192       -11.8150
  59   2.0000      -0.422381       -11.4936
  60   2.0000      -0.417142       -11.3510
  61   2.0000      -0.407982       -11.1017
  62   2.0000      -0.394832       -10.7439
  63   2.0000      -0.363775        -9.8988
  64   2.0000      -0.334887        -9.1127
  65   2.0000      -0.325092        -8.8462
  66   2.0000      -0.281862        -7.6699
  67   0.0000       0.017402         0.4735
  68   0.0000       0.082133         2.2350
  69   0.0000       0.097870         2.6632
  70   0.0000       0.117705         3.2029
  71   0.0000       0.136100         3.7035

MULLIKEN ATOMIC CHARGES
-----------------------
   0 S :    0.083615
   1 C :   -0.125599
   2 C :   -0.092269
   3 C :   -0.012537
   4 C :   -0.068730
   5 H :    0.002050
   6 C :    0.067210
   7 H :    0.023974
   8 H :    0.023897
   9 C :   -0.048903
  10 H :    0.024907
  11 H :    0.019896
  12 C :   -0.073065
  13 H :    0.026023
  14 H :    0.028750
  15 H :    0.051549
  16 S :    0.096095
  17 C :   -0.065378
  18 C :   -0.025270
  19 C :   -0.103789
  20 C :   -0.116344
  21 H :    0.025803
  22 C :    0.039602
  23 H :    0.016481
  24 H :    0.043980
  25 C :   -0.064663
  26 H :    0.016207
  27 H :    0.006357
  28 C :   -0.063541
  29 H :    0.072762
  30 H :    0.028967
  31 H :    0.045986
  32 H :    0.066388
  33 H :    0.049590
Sum of atomic charges:   -0.0000000

LOEWDIN ATOMIC CHARGES
----------------------
   0 S :    0.401071
   1 C :   -0.198053
   2 C :   -0.057931
   3 C :   -0.068964
   4 C :   -0.193389
   5 H :    0.023704
   6 C :   -0.036205
   7 H :    0.028723
   8 H :    0.035154
   9 C :   -0.035214
  10 H :    0.022399
  11 H :    0.021628
  12 C :   -0.074565
  13 H :    0.030085
  14 H :    0.022391
  15 H :    0.033716
  16 S :    0.407756
  17 C :   -0.172827
  18 C :   -0.068523
  19 C :   -0.063037
  20 C :   -0.205390
  21 H :    0.033173
  22 C :   -0.035476
  23 H :    0.026051
  24 H :    0.036892
  25 C :   -0.043339
  26 H :    0.014922
  27 H :    0.016013
  28 C :   -0.065307
  29 H :    0.039144
  30 H :    0.023777
  31 H :    0.033172
  32 H :    0.038341
  33 H :    0.030108

  Mayer bond orders larger than 0.100000
B(  0-S ,  1-C ) :   1.1138 B(  0-S ,  4-C ) :   1.1480 B(  1-C ,  2-C ) :   1.6222
B(  1-C , 32-H ) :   0.9602 B(  2-C ,  3-C ) :   1.2432 B(  2-C ,  6-C ) :   1.0351
B(  3-C ,  4-C ) :   1.5475 B(  3-C ,  5-H ) :   0.9904 B(  4-C , 20-C ) :   1.0924
B(  6-C ,  7-H ) :   0.9399 B(  6-C ,  8-H ) :   0.9428 B(  6-C ,  9-C ) :   1.0638
B(  9-C , 10-H ) :   0.9547 B(  9-C , 11-H ) :   0.9543 B(  9-C , 12-C ) :   1.0846
B( 12-C , 13-H ) :   0.9687 B( 12-C , 14-H ) :   0.9676 B( 12-C , 15-H ) :   0.9729
B( 16-S , 17-C ) :   1.1462 B( 16-S , 20-C ) :   1.1332 B( 17-C , 18-C ) :   1.5835
B( 17-C , 33-H ) :   0.9702 B( 18-C , 19-C ) :   1.2928 B( 18-C , 21-H ) :   0.9787
B( 19-C , 20-C ) :   1.5412 B( 19-C , 22-C ) :   1.0302 B( 22-C , 23-H ) :   0.9388
B( 22-C , 24-H ) :   0.9431 B( 22-C , 25-C ) :   1.0620 B( 25-C , 26-H ) :   0.9549
B( 25-C , 27-H ) :   0.9556 B( 25-C , 28-C ) :   1.0674 B( 28-C , 29-H ) :   0.9656
B( 28-C , 30-H ) :   0.9767 B( 28-C , 31-H ) :   0.9727

Dispersion correction           -0.014740693
FINAL SINGLE POINT ENERGY     -1339.861506792498

DIPOLE MOMENT
-------------
                                X             Y             Z
Electronic contribution:     21.70519      -5.35342      13.32671
Nuclear contribution   :    -22.24782       5.30291     -13.89851
                        -----------------------------------------
Total Dipole Moment    :     -0.54263      -0.05051      -0.57181
                        -----------------------------------------
Magnitude (a.u.)       :      0.78991
Magnitude (Debye)      :      2.00779

Rotational constants in cm-1:     0.021745     0.008609     0.006659
Rotational constants in MHz :   651.902269   258.080755   199.634315

                             ****ORCA TERMINATED NORMALLY****
TOTAL RUN TIME: 0 days 0 hours 0 minutes 22 seconds 302 msec
