                         Program Version 4.2.1 -  RELEASE  -
|  1> ! wB97X-D3 SP def2-SVP
|  2> %pal
|  3> nprocs 24
|  4> end
|  5>
|  6> * xyz 0 1
|  7> S 	 -40.5962 	 0.102215 	 -7.02228
|  8> C 	 -40.7302 	 1.24084 	 -5.62198
|  9> C 	 -40.8388 	 2.57806 	 -6.02727
| 10> C 	 -40.9506 	 2.66002 	 -7.46057
| 11> C 	 -40.9829 	 1.41011 	 -8.09328
| 12> H 	 -41.3262 	 3.53627 	 -8.02085
| 13> C 	 -41.1049 	 3.82949 	 -5.26584
| 14> H 	 -41.3644 	 4.56633 	 -5.99847
| 15> H 	 -40.2418 	 4.21562 	 -4.7515
| 16> C 	 -42.3847 	 3.74889 	 -4.43498
| 17> H 	 -43.1795 	 3.53638 	 -5.13289
| 18> H 	 -42.4017 	 2.94181 	 -3.68238
| 19> C 	 -42.5631 	 5.10157 	 -3.74905
| 20> H 	 -41.7564 	 5.29804 	 -3.06414
| 21> H 	 -42.7091 	 5.88091 	 -4.59272
| 22> H 	 -43.4506 	 4.93591 	 -3.10185
| 23> S 	 -39.751 	 1.39911 	 -10.509
| 24> C 	 -40.6695 	 1.27779 	 -11.9107
| 25> C 	 -42.0212 	 1.30816 	 -11.7239
| 26> C 	 -42.3185 	 1.20095 	 -10.3097
| 27> C 	 -41.1908 	 1.26875 	 -9.5062
| 28> H 	 -42.6307 	 1.27501 	 -12.6187
| 29> C 	 -43.7093 	 1.07394 	 -9.75661
| 30> H 	 -43.5494 	 0.548789 	 -8.81038
| 31> H 	 -44.3018 	 0.379845 	 -10.3404
| 32> C 	 -44.4796 	 2.32742 	 -9.27459
| 33> H 	 -44.7031 	 2.94544 	 -10.0896
| 34> H 	 -43.7788 	 2.89436 	 -8.6
| 35> C 	 -45.7759 	 1.96677 	 -8.59465
| 36> H 	 -45.4982 	 1.32022 	 -7.70396
| 37> H 	 -46.5566 	 1.49564 	 -9.1342
| 38> H 	 -46.2512 	 2.83663 	 -8.13397
| 39> H 	 -40.8053 	 0.931195 	 -4.62074
| 40> H 	 -40.276 	 1.46245 	 -12.8961
| 41> *
| 42>
| 43>                          ****END OF INPUT****

CARTESIAN COORDINATES (ANGSTROEM)
---------------------------------
  S    -40.596200    0.102215   -7.022280
  C    -40.730200    1.240840   -5.621980
  C    -40.838800    2.578060   -6.027270
  C    -40.950600    2.660020   -7.460570
  C    -40.982900    1.410110   -8.093280
  H    -41.326200    3.536270   -8.020850
  C    -41.104900    3.829490   -5.265840
  H    -41.364400    4.566330   -5.998470
  H    -40.241800    4.215620   -4.751500
  C    -42.384700    3.748890   -4.434980
  H    -43.179500    3.536380   -5.132890
  H    -42.401700    2.941810   -3.682380
  C    -42.563100    5.101570   -3.749050
  H    -41.756400    5.298040   -3.064140
  H    -42.709100    5.880910   -4.592720
  H    -43.450600    4.935910   -3.101850
  S    -39.751000    1.399110  -10.509000
  C    -40.669500    1.277790  -11.910700
  C    -42.021200    1.308160  -11.723900
  C    -42.318500    1.200950  -10.309700
  C    -41.190800    1.268750   -9.506200
  H    -42.630700    1.275010  -12.618700
  C    -43.709300    1.073940   -9.756610
  H    -43.549400    0.548789   -8.810380
  H    -44.301800    0.379845  -10.340400
  C    -44.479600    2.327420   -9.274590
  H    -44.703100    2.945440  -10.089600
  H    -43.778800    2.894360   -8.600000
  C    -45.775900    1.966770   -8.594650
  H    -45.498200    1.320220   -7.703960
  H    -46.556600    1.495640   -9.134200
  H    -46.251200    2.836630   -8.133970
  H    -40.805300    0.931195   -4.620740
  H    -40.276000    1.462450  -12.896100

 Total Charge           Charge          ....    0
 Multiplicity           Mult            ....    1
 Number of Electrons    NEL             ....  134
 Basis Dimension        Dim             ....  322

ORBITAL ENERGIES
----------------

  NO   OCC          E(Eh)            E(eV)
   0   2.0000     -88.970775     -2421.0179
   1   2.0000     -88.959930     -2420.7228
   2   2.0000     -10.326853      -281.0079
   3   2.0000     -10.319273      -280.8017
   4   2.0000     -10.317688      -280.7586
   5   2.0000     -10.306009      -280.4408
   6   2.0000     -10.304731      -280.4060
   7   2.0000     -10.303617      -280.3757
   8   2.0000     -10.295856      -280.1645
   9   2.0000     -10.289635      -279.9952
  10   2.0000     -10.287389      -279.9341
  11   2.0000     -10.287265      -279.9307
  12   2.0000     -10.287180      -279.9284
  13   2.0000     -10.284362      -279.8517
  14   2.0000     -10.284216      -279.8477
  15   2.0000     -10.276596      -279.6404
  16   2.0000      -8.084544      -219.9916
  17   2.0000      -8.076291      -219.7671
  18   2.0000      -6.043067      -164.4402
  19   2.0000      -6.039249      -164.3363
  20   2.0000      -6.035282      -164.2284
  21   2.0000      -6.034585      -164.2094
  22   2.0000      -6.030590      -164.1007
  23   2.0000      -6.027148      -164.0070
  24   2.0000      -1.007898       -27.4263
  25   2.0000      -0.982157       -26.7258
  26   2.0000      -0.921692       -25.0805
  27   2.0000      -0.909253       -24.7420
  28   2.0000      -0.870517       -23.6880
  29   2.0000      -0.852699       -23.2031
  30   2.0000      -0.850457       -23.1421
  31   2.0000      -0.809176       -22.0188
  32   2.0000      -0.781840       -21.2749
  33   2.0000      -0.770506       -20.9665
  34   2.0000      -0.710031       -19.3209
  35   2.0000      -0.700397       -19.0588
  36   2.0000      -0.692371       -18.8404
  37   2.0000      -0.656619       -17.8675
  38   2.0000      -0.643824       -17.5193
  39   2.0000      -0.615222       -16.7410
  40   2.0000      -0.594396       -16.1743
  41   2.0000      -0.579430       -15.7671
  42   2.0000      -0.569679       -15.5017
  43   2.0000      -0.561622       -15.2825
  44   2.0000      -0.523825       -14.2540
  45   2.0000      -0.521352       -14.1867
  46   2.0000      -0.516401       -14.0520
  47   2.0000      -0.510515       -13.8918
  48   2.0000      -0.505116       -13.7449
  49   2.0000      -0.504084       -13.7168
  50   2.0000      -0.495984       -13.4964
  51   2.0000      -0.474553       -12.9132
  52   2.0000      -0.470481       -12.8024
  53   2.0000      -0.464095       -12.6287
  54   2.0000      -0.456727       -12.4282
  55   2.0000      -0.452178       -12.3044
  56   2.0000      -0.446655       -12.1541
  57   2.0000      -0.436556       -11.8793
  58   2.0000      -0.430421       -11.7123
  59   2.0000      -0.425761       -11.5855
  60   2.0000      -0.424707       -11.5569
  61   2.0000      -0.414647       -11.2831
  62   2.0000      -0.412572       -11.2266
  63   2.0000      -0.335870        -9.1395
  64   2.0000      -0.326933        -8.8963
  65   2.0000      -0.316461        -8.6113
  66   2.0000      -0.310063        -8.4372
  67   0.0000       0.039525         1.0755
  68   0.0000       0.055363         1.5065
  69   0.0000       0.107068         2.9135
  70   0.0000       0.118016         3.2114
  71   0.0000       0.125433         3.4132

MULLIKEN ATOMIC CHARGES
-----------------------
   0 S :    0.124275
   1 C :   -0.115596
   2 C :   -0.062468
   3 C :    0.028473
   4 C :   -0.191772
   5 H :    0.039873
   6 C :    0.088160
   7 H :    0.001669
   8 H :    0.035594
   9 C :   -0.106922
  10 H :    0.031132
  11 H :    0.030602
  12 C :   -0.051181
  13 H :    0.035320
  14 H :    0.050656
  15 H :    0.037300
  16 S :    0.120706
  17 C :   -0.076995
  18 C :   -0.049438
  19 C :   -0.012107
  20 C :   -0.184603
  21 H :    0.020488
  22 C :    0.049281
  23 H :    0.013380
  24 H :    0.020897
  25 C :   -0.031821
  26 H :    0.013041
  27 H :    0.027816
  28 C :   -0.053322
  29 H :    0.030266
  30 H :    0.031688
  31 H :    0.027760
  32 H :    0.028151
  33 H :    0.049699
Sum of atomic charges:    0.0000000

LOEWDIN ATOMIC CHARGES
----------------------
   0 S :    0.398181
   1 C :   -0.174715
   2 C :   -0.053837
   3 C :   -0.063117
   4 C :   -0.210068
   5 H :    0.036039
   6 C :   -0.031147
   7 H :    0.027733
   8 H :    0.030016
   9 C :   -0.037416
  10 H :    0.024139
  11 H :    0.020015
  12 C :   -0.067972
  13 H :    0.022739
  14 H :    0.036993
  15 H :    0.030394
  16 S :    0.430932
  17 C :   -0.201990
  18 C :   -0.078722
  19 C :   -0.047276
  20 C :   -0.207305
  21 H :    0.034673
  22 C :   -0.038115
  23 H :    0.031995
  24 H :    0.027329
  25 C :   -0.034126
  26 H :    0.011878
  27 H :    0.030096
  28 C :   -0.068015
  29 H :    0.031646
  30 H :    0.020213
  31 H :    0.027608
  32 H :    0.014992
  33 H :    0.026214

  Mayer bond orders larger than 0.100000
B(  0-S ,  1-C ) :   1.1257 B(  0-S ,  4-C ) :   1.1528 B(  1-C ,  2-C ) :   1.6105
B(  1-C ,  4-C ) :   0.1013 B(  1-C , 32-H ) :   0.9787 B(  2-C ,  3-C ) :   1.2387
B(  2-C ,  6-C ) :   1.0232 B(  3-C ,  4-C ) :   1.5883 B(  3-C ,  5-H ) :   0.9723
B(  4-C , 20-C ) :   1.0267 B(  6-C ,  7-H ) :   0.9422 B(  6-C ,  8-H ) :   0.9308
B(  6-C ,  9-C ) :   1.0589 B(  9-C , 10-H ) :   0.9549 B(  9-C , 11-H ) :   0.9579
B(  9-C , 12-C ) :   1.0844 B( 12-C , 13-H ) :   0.9744 B( 12-C , 14-H ) :   0.9718
B( 12-C , 15-H ) :   0.9731 B( 16-S , 17-C ) :   1.1791 B( 16-S , 20-C ) :   1.1427
B( 17-C , 18-C ) :   1.6286 B( 17-C , 33-H ) :   0.9586 B( 18-C , 19-C ) :   1.2118
B( 18-C , 21-H ) :   0.9958 B( 19-C , 20-C ) :   1.6168 B( 19-C , 22-C ) :   1.0538
B( 22-C , 23-H ) :   0.9249 B( 22-C , 24-H ) :   0.9382 B( 22-C , 25-C ) :   1.0598
B( 25-C , 26-H ) :   0.9527 B( 25-C , 27-H ) :   0.9485 B( 25-C , 28-C ) :   1.0879
B( 28-C , 29-H ) :   0.9727 B( 28-C , 30-H ) :   0.9758 B( 28-C , 31-H ) :   0.9703

Dispersion correction           -0.014601289
FINAL SINGLE POINT ENERGY     -1339.865333909643

DIPOLE MOMENT
-------------
                                X             Y             Z
Electronic contribution:     22.38770     -15.63375     -14.01286
Nuclear contribution   :    -22.93508      16.09745      14.18584
                        -----------------------------------------
Total Dipole Moment    :     -0.54738       0.46369       0.17298
                        -----------------------------------------
Magnitude (a.u.)       :      0.73794
Magnitude (Debye)      :      1.87570

Rotational constants in cm-1:     0.018180     0.008918     0.007152
Rotational constants in MHz :   545.014671   267.350090   214.414096

                             ****ORCA TERMINATED NORMALLY****
TOTAL RUN TIME: 0 days 0 hours 0 minutes 22 seconds 279 msec
