                         Program Version 4.2.1 -  RELEASE  -
|  1> ! wB97X-D3 SP def2-SVP
|  2> %pal
|  3> nprocs 24
|  4> end
|  5>
|  6> * xyz 0 1
|  7> S 	 -94.5462 	 14.4956 	 -115.913
|  8> C 	 -92.8202 	 14.6289 	 -116.002
|  9> C 	 -92.2159 	 13.4515 	 -116.519
| 10> C 	 -93.2415 	 12.5915 	 -117.04
| 11> C 	 -94.4864 	 13.0994 	 -116.968
| 12> H 	 -93.1069 	 11.6049 	 -117.415
| 13> C 	 -90.7009 	 13.0907 	 -116.364
| 14> H 	 -90.0862 	 14.0176 	 -116.439
| 15> H 	 -90.4039 	 12.3757 	 -117.069
| 16> C 	 -90.3242 	 12.3711 	 -115.119
| 17> H 	 -89.2211 	 12.3845 	 -115.144
| 18> H 	 -90.3997 	 13.0033 	 -114.208
| 19> C 	 -91.0346 	 11.0191 	 -114.86
| 20> H 	 -90.6836 	 10.3604 	 -115.636
| 21> H 	 -90.6077 	 10.6281 	 -113.927
| 22> H 	 -92.1623 	 11.1015 	 -114.782
| 23> S 	 -97.1467 	 12.2175 	 -116.525
| 24> C 	 -97.9527 	 11.365 	 -117.803
| 25> C 	 -97.1188 	 11.0984 	 -118.875
| 26> C 	 -95.8436 	 11.7997 	 -118.806
| 27> C 	 -95.6551 	 12.4704 	 -117.557
| 28> H 	 -97.4812 	 10.492 	 -119.7
| 29> C 	 -94.7767 	 11.6742 	 -119.841
| 30> H 	 -94.8586 	 10.647 	 -120.163
| 31> H 	 -93.7389 	 11.6719 	 -119.477
| 32> C 	 -95.0386 	 12.6988 	 -120.936
| 33> H 	 -94.9047 	 13.7514 	 -120.671
| 34> H 	 -96.0642 	 12.7172 	 -121.254
| 35> C 	 -94.2184 	 12.4475 	 -122.218
| 36> H 	 -94.5835 	 11.5093 	 -122.739
| 37> H 	 -93.1702 	 12.5335 	 -122.004
| 38> H 	 -94.4087 	 13.2392 	 -122.926
| 39> H 	 -92.3255 	 15.3606 	 -115.321
| 40> H 	 -98.9788 	 10.9758 	 -117.716
| 41> *
| 42>
| 43>                          ****END OF INPUT****

CARTESIAN COORDINATES (ANGSTROEM)
---------------------------------
  S    -94.546200   14.495600  -115.913000
  C    -92.820200   14.628900  -116.002000
  C    -92.215900   13.451500  -116.519000
  C    -93.241500   12.591500  -117.040000
  C    -94.486400   13.099400  -116.968000
  H    -93.106900   11.604900  -117.415000
  C    -90.700900   13.090700  -116.364000
  H    -90.086200   14.017600  -116.439000
  H    -90.403900   12.375700  -117.069000
  C    -90.324200   12.371100  -115.119000
  H    -89.221100   12.384500  -115.144000
  H    -90.399700   13.003300  -114.208000
  C    -91.034600   11.019100  -114.860000
  H    -90.683600   10.360400  -115.636000
  H    -90.607700   10.628100  -113.927000
  H    -92.162300   11.101500  -114.782000
  S    -97.146700   12.217500  -116.525000
  C    -97.952700   11.365000  -117.803000
  C    -97.118800   11.098400  -118.875000
  C    -95.843600   11.799700  -118.806000
  C    -95.655100   12.470400  -117.557000
  H    -97.481200   10.492000  -119.700000
  C    -94.776700   11.674200  -119.841000
  H    -94.858600   10.647000  -120.163000
  H    -93.738900   11.671900  -119.477000
  C    -95.038600   12.698800  -120.936000
  H    -94.904700   13.751400  -120.671000
  H    -96.064200   12.717200  -121.254000
  C    -94.218400   12.447500  -122.218000
  H    -94.583500   11.509300  -122.739000
  H    -93.170200   12.533500  -122.004000
  H    -94.408700   13.239200  -122.926000
  H    -92.325500   15.360600  -115.321000
  H    -98.978800   10.975800  -117.716000

 Total Charge           Charge          ....    0
 Multiplicity           Mult            ....    1
 Number of Electrons    NEL             ....  134
 Basis Dimension        Dim             ....  322

ORBITAL ENERGIES
----------------

  NO   OCC          E(Eh)            E(eV)
   0   2.0000     -88.965955     -2420.8867
   1   2.0000     -88.963117     -2420.8095
   2   2.0000     -10.332606      -281.1645
   3   2.0000     -10.324747      -280.9506
   4   2.0000     -10.320330      -280.8305
   5   2.0000     -10.319104      -280.7971
   6   2.0000     -10.310639      -280.5668
   7   2.0000     -10.309842      -280.5451
   8   2.0000     -10.297997      -280.2227
   9   2.0000     -10.293482      -280.0999
  10   2.0000     -10.290358      -280.0149
  11   2.0000     -10.289778      -279.9991
  12   2.0000     -10.286498      -279.9098
  13   2.0000     -10.284611      -279.8585
  14   2.0000     -10.280899      -279.7575
  15   2.0000     -10.275707      -279.6162
  16   2.0000      -8.081165      -219.8997
  17   2.0000      -8.077090      -219.7888
  18   2.0000      -6.039564      -164.3449
  19   2.0000      -6.035856      -164.2440
  20   2.0000      -6.035654      -164.2385
  21   2.0000      -6.031768      -164.1328
  22   2.0000      -6.031750      -164.1323
  23   2.0000      -6.027812      -164.0251
  24   2.0000      -1.003813       -27.3151
  25   2.0000      -0.976675       -26.5767
  26   2.0000      -0.915157       -24.9027
  27   2.0000      -0.910488       -24.7756
  28   2.0000      -0.867736       -23.6123
  29   2.0000      -0.849164       -23.1069
  30   2.0000      -0.843094       -22.9417
  31   2.0000      -0.810988       -22.0681
  32   2.0000      -0.786835       -21.4109
  33   2.0000      -0.769165       -20.9301
  34   2.0000      -0.703031       -19.1304
  35   2.0000      -0.696746       -18.9594
  36   2.0000      -0.691059       -18.8047
  37   2.0000      -0.658043       -17.9063
  38   2.0000      -0.641050       -17.4439
  39   2.0000      -0.617888       -16.8136
  40   2.0000      -0.595723       -16.2104
  41   2.0000      -0.574276       -15.6268
  42   2.0000      -0.560053       -15.2398
  43   2.0000      -0.550530       -14.9807
  44   2.0000      -0.536510       -14.5992
  45   2.0000      -0.527979       -14.3670
  46   2.0000      -0.514286       -13.9944
  47   2.0000      -0.510010       -13.8781
  48   2.0000      -0.505911       -13.7665
  49   2.0000      -0.496939       -13.5224
  50   2.0000      -0.490965       -13.3598
  51   2.0000      -0.478869       -13.0307
  52   2.0000      -0.473392       -12.8817
  53   2.0000      -0.461291       -12.5524
  54   2.0000      -0.456901       -12.4329
  55   2.0000      -0.447352       -12.1731
  56   2.0000      -0.443091       -12.0571
  57   2.0000      -0.435667       -11.8551
  58   2.0000      -0.435435       -11.8488
  59   2.0000      -0.430097       -11.7035
  60   2.0000      -0.419968       -11.4279
  61   2.0000      -0.408047       -11.1035
  62   2.0000      -0.404787       -11.0148
  63   2.0000      -0.349156        -9.5010
  64   2.0000      -0.329511        -8.9665
  65   2.0000      -0.326876        -8.8948
  66   2.0000      -0.285224        -7.7613
  67   0.0000       0.021547         0.5863
  68   0.0000       0.067825         1.8456
  69   0.0000       0.099772         2.7149
  70   0.0000       0.122056         3.3213
  71   0.0000       0.126236         3.4350

MULLIKEN ATOMIC CHARGES
-----------------------
   0 S :    0.116079
   1 C :   -0.129950
   2 C :   -0.100002
   3 C :    0.007322
   4 C :   -0.134633
   5 H :    0.012770
   6 C :    0.105813
   7 H :    0.036667
   8 H :    0.003123
   9 C :   -0.105744
  10 H :    0.024901
  11 H :    0.013022
  12 C :   -0.053774
  13 H :    0.026430
  14 H :    0.036676
  15 H :    0.074744
  16 S :    0.082356
  17 C :   -0.096404
  18 C :   -0.035309
  19 C :   -0.056973
  20 C :   -0.140995
  21 H :    0.024589
  22 C :    0.089592
  23 H :    0.014885
  24 H :    0.024010
  25 C :   -0.076917
  26 H :    0.033305
  27 H :    0.018105
  28 C :   -0.045608
  29 H :    0.040107
  30 H :    0.031073
  31 H :    0.023039
  32 H :    0.067411
  33 H :    0.070293
Sum of atomic charges:   -0.0000000

LOEWDIN ATOMIC CHARGES
----------------------
   0 S :    0.410245
   1 C :   -0.207055
   2 C :   -0.056576
   3 C :   -0.060688
   4 C :   -0.196796
   5 H :    0.027311
   6 C :   -0.029347
   7 H :    0.039824
   8 H :    0.021380
   9 C :   -0.053601
  10 H :    0.027779
  11 H :    0.018235
  12 C :   -0.067111
  13 H :    0.021062
  14 H :    0.031222
  15 H :    0.041605
  16 S :    0.369171
  17 C :   -0.188257
  18 C :   -0.077191
  19 C :   -0.043884
  20 C :   -0.175978
  21 H :    0.032893
  22 C :   -0.035223
  23 H :    0.032135
  24 H :    0.031434
  25 C :   -0.039409
  26 H :    0.029758
  27 H :    0.022152
  28 C :   -0.068256
  29 H :    0.030554
  30 H :    0.021087
  31 H :    0.023205
  32 H :    0.032082
  33 H :    0.036239

  Mayer bond orders larger than 0.100000
B(  0-S ,  1-C ) :   1.1538 B(  0-S ,  4-C ) :   1.1441 B(  1-C ,  2-C ) :   1.5904
B(  1-C , 32-H ) :   0.9620 B(  2-C ,  3-C ) :   1.2403 B(  2-C ,  6-C ) :   1.0239
B(  3-C ,  4-C ) :   1.5698 B(  3-C ,  5-H ) :   0.9963 B(  4-C , 20-C ) :   1.0695
B(  6-C ,  7-H ) :   0.9370 B(  6-C ,  8-H ) :   0.9377 B(  6-C ,  9-C ) :   1.0796
B(  9-C , 10-H ) :   0.9521 B(  9-C , 11-H ) :   0.9505 B(  9-C , 12-C ) :   1.0661
B( 12-C , 13-H ) :   0.9758 B( 12-C , 14-H ) :   0.9716 B( 12-C , 15-H ) :   0.9696
B( 16-S , 17-C ) :   1.1569 B( 16-S , 20-C ) :   1.1141 B( 17-C , 18-C ) :   1.6164
B( 17-C , 33-H ) :   0.9620 B( 18-C , 19-C ) :   1.2321 B( 18-C , 21-H ) :   0.9861
B( 19-C , 20-C ) :   1.5889 B( 19-C , 22-C ) :   1.0424 B( 22-C , 23-H ) :   0.9328
B( 22-C , 24-H ) :   0.9356 B( 22-C , 25-C ) :   1.0474 B( 25-C , 26-H ) :   0.9539
B( 25-C , 27-H ) :   0.9583 B( 25-C , 28-C ) :   1.0894 B( 28-C , 29-H ) :   0.9765
B( 28-C , 30-H ) :   0.9732 B( 28-C , 31-H ) :   0.9728

Dispersion correction           -0.014321429
FINAL SINGLE POINT ENERGY     -1339.863539523704

DIPOLE MOMENT
-------------
                                X             Y             Z
Electronic contribution:    -20.00095       8.12780      12.30532
Nuclear contribution   :     20.49640      -8.54456     -12.52889
                        -----------------------------------------
Total Dipole Moment    :      0.49545      -0.41676      -0.22357
                        -----------------------------------------
Magnitude (a.u.)       :      0.68495
Magnitude (Debye)      :      1.74099

Rotational constants in cm-1:     0.017203     0.008845     0.007218
Rotational constants in MHz :   515.719961   265.175725   216.383289

                             ****ORCA TERMINATED NORMALLY****
TOTAL RUN TIME: 0 days 0 hours 0 minutes 21 seconds 648 msec
