                         Program Version 4.2.1 -  RELEASE  -
|  1> ! wB97X-D3 SP def2-SVP
|  2> %pal
|  3> nprocs 24
|  4> end
|  5>
|  6> * xyz 0 1
|  7> S 	 -89.1749 	 -46.2263 	 -83.9693
|  8> C 	 -90.7661 	 -45.8221 	 -83.5785
|  9> C 	 -90.9672 	 -46.1216 	 -82.2691
| 10> C 	 -90.1206 	 -47.0382 	 -81.6834
| 11> C 	 -89.0155 	 -47.2486 	 -82.504
| 12> H 	 -90.2868 	 -47.5998 	 -80.7294
| 13> C 	 -92.2935 	 -45.7595 	 -81.6013
| 14> H 	 -92.7261 	 -44.9498 	 -82.2031
| 15> H 	 -92.1496 	 -45.2657 	 -80.6641
| 16> C 	 -93.3407 	 -46.8974 	 -81.5168
| 17> H 	 -93.0285 	 -47.4859 	 -80.7216
| 18> H 	 -94.2505 	 -46.4635 	 -81.0864
| 19> C 	 -93.7247 	 -47.5694 	 -82.8571
| 20> H 	 -92.9738 	 -48.2762 	 -83.1321
| 21> H 	 -94.604 	 -48.2286 	 -82.8263
| 22> H 	 -93.8453 	 -46.7466 	 -83.5903
| 23> S 	 -87.4657 	 -49.2802 	 -83.6698
| 24> C 	 -86.3592 	 -50.1576 	 -82.7713
| 25> C 	 -86.3444 	 -49.7221 	 -81.4923
| 26> C 	 -87.3467 	 -48.7657 	 -81.1519
| 27> C 	 -88.0364 	 -48.306 	 -82.2911
| 28> H 	 -85.6758 	 -50.2052 	 -80.738
| 29> C 	 -87.4288 	 -48.1071 	 -79.7742
| 30> H 	 -87.6358 	 -48.8149 	 -79.0071
| 31> H 	 -88.1642 	 -47.264 	 -79.816
| 32> C 	 -86.0542 	 -47.4875 	 -79.4262
| 33> H 	 -85.8275 	 -46.7246 	 -80.1438
| 34> H 	 -85.3365 	 -48.276 	 -79.3978
| 35> C 	 -86.0732 	 -46.8475 	 -78.0223
| 36> H 	 -86.7748 	 -47.3843 	 -77.309
| 37> H 	 -86.3188 	 -45.7846 	 -77.936
| 38> H 	 -85.0716 	 -46.9909 	 -77.6392
| 39> H 	 -91.442 	 -45.2603 	 -84.161
| 40> H 	 -85.4795 	 -50.7293 	 -83.0811
| 41> *
| 42>
| 43>                          ****END OF INPUT****

CARTESIAN COORDINATES (ANGSTROEM)
---------------------------------
  S    -89.174900  -46.226300  -83.969300
  C    -90.766100  -45.822100  -83.578500
  C    -90.967200  -46.121600  -82.269100
  C    -90.120600  -47.038200  -81.683400
  C    -89.015500  -47.248600  -82.504000
  H    -90.286800  -47.599800  -80.729400
  C    -92.293500  -45.759500  -81.601300
  H    -92.726100  -44.949800  -82.203100
  H    -92.149600  -45.265700  -80.664100
  C    -93.340700  -46.897400  -81.516800
  H    -93.028500  -47.485900  -80.721600
  H    -94.250500  -46.463500  -81.086400
  C    -93.724700  -47.569400  -82.857100
  H    -92.973800  -48.276200  -83.132100
  H    -94.604000  -48.228600  -82.826300
  H    -93.845300  -46.746600  -83.590300
  S    -87.465700  -49.280200  -83.669800
  C    -86.359200  -50.157600  -82.771300
  C    -86.344400  -49.722100  -81.492300
  C    -87.346700  -48.765700  -81.151900
  C    -88.036400  -48.306000  -82.291100
  H    -85.675800  -50.205200  -80.738000
  C    -87.428800  -48.107100  -79.774200
  H    -87.635800  -48.814900  -79.007100
  H    -88.164200  -47.264000  -79.816000
  C    -86.054200  -47.487500  -79.426200
  H    -85.827500  -46.724600  -80.143800
  H    -85.336500  -48.276000  -79.397800
  C    -86.073200  -46.847500  -78.022300
  H    -86.774800  -47.384300  -77.309000
  H    -86.318800  -45.784600  -77.936000
  H    -85.071600  -46.990900  -77.639200
  H    -91.442000  -45.260300  -84.161000
  H    -85.479500  -50.729300  -83.081100

 Total Charge           Charge          ....    0
 Multiplicity           Mult            ....    1
 Number of Electrons    NEL             ....  134
 Basis Dimension        Dim             ....  322

ORBITAL ENERGIES
----------------

  NO   OCC          E(Eh)            E(eV)
   0   2.0000     -88.967741     -2420.9353
   1   2.0000     -88.961506     -2420.7657
   2   2.0000     -10.333822      -281.1976
   3   2.0000     -10.329854      -281.0896
   4   2.0000     -10.308548      -280.5099
   5   2.0000     -10.306939      -280.4661
   6   2.0000     -10.303566      -280.3743
   7   2.0000     -10.295705      -280.1604
   8   2.0000     -10.291157      -280.0366
   9   2.0000     -10.290860      -280.0285
  10   2.0000     -10.289946      -280.0037
  11   2.0000     -10.285827      -279.8916
  12   2.0000     -10.281422      -279.7717
  13   2.0000     -10.281189      -279.7654
  14   2.0000     -10.279357      -279.7155
  15   2.0000     -10.278781      -279.6999
  16   2.0000      -8.082866      -219.9460
  17   2.0000      -8.077200      -219.7918
  18   2.0000      -6.041311      -164.3924
  19   2.0000      -6.037330      -164.2841
  20   2.0000      -6.035652      -164.2385
  21   2.0000      -6.033622      -164.1832
  22   2.0000      -6.031387      -164.1224
  23   2.0000      -6.028115      -164.0333
  24   2.0000      -1.013330       -27.5741
  25   2.0000      -0.995423       -27.0868
  26   2.0000      -0.910596       -24.7786
  27   2.0000      -0.907135       -24.6844
  28   2.0000      -0.874714       -23.8022
  29   2.0000      -0.850495       -23.1431
  30   2.0000      -0.844612       -22.9831
  31   2.0000      -0.815617       -22.1941
  32   2.0000      -0.781283       -21.2598
  33   2.0000      -0.771447       -20.9921
  34   2.0000      -0.712996       -19.4016
  35   2.0000      -0.697959       -18.9924
  36   2.0000      -0.695848       -18.9350
  37   2.0000      -0.653035       -17.7700
  38   2.0000      -0.639079       -17.3902
  39   2.0000      -0.623730       -16.9726
  40   2.0000      -0.594648       -16.1812
  41   2.0000      -0.573492       -15.6055
  42   2.0000      -0.567787       -15.4503
  43   2.0000      -0.556882       -15.1535
  44   2.0000      -0.536469       -14.5981
  45   2.0000      -0.526004       -14.3133
  46   2.0000      -0.513644       -13.9770
  47   2.0000      -0.512080       -13.9344
  48   2.0000      -0.506714       -13.7884
  49   2.0000      -0.500455       -13.6181
  50   2.0000      -0.485620       -13.2144
  51   2.0000      -0.484027       -13.1711
  52   2.0000      -0.473111       -12.8740
  53   2.0000      -0.464730       -12.6459
  54   2.0000      -0.459904       -12.5146
  55   2.0000      -0.448065       -12.1925
  56   2.0000      -0.442483       -12.0406
  57   2.0000      -0.437990       -11.9183
  58   2.0000      -0.431808       -11.7501
  59   2.0000      -0.425223       -11.5709
  60   2.0000      -0.421033       -11.4569
  61   2.0000      -0.410075       -11.1587
  62   2.0000      -0.406822       -11.0702
  63   2.0000      -0.356621        -9.7041
  64   2.0000      -0.331320        -9.0157
  65   2.0000      -0.327651        -8.9158
  66   2.0000      -0.286723        -7.8021
  67   0.0000       0.018917         0.5148
  68   0.0000       0.083773         2.2796
  69   0.0000       0.111033         3.0214
  70   0.0000       0.121214         3.2984
  71   0.0000       0.140530         3.8240

MULLIKEN ATOMIC CHARGES
-----------------------
   0 S :    0.125582
   1 C :   -0.104107
   2 C :   -0.074583
   3 C :   -0.004630
   4 C :   -0.140695
   5 H :    0.050647
   6 C :    0.046939
   7 H :    0.002603
   8 H :    0.021428
   9 C :   -0.047075
  10 H :    0.006574
  11 H :    0.020025
  12 C :   -0.037049
  13 H :    0.037095
  14 H :    0.035796
  15 H :    0.034097
  16 S :    0.107624
  17 C :   -0.064692
  18 C :   -0.090864
  19 C :   -0.031348
  20 C :   -0.170984
  21 H :    0.033975
  22 C :    0.063321
  23 H :    0.020246
  24 H :    0.034415
  25 C :   -0.074299
  26 H :    0.038134
  27 H :    0.021950
  28 C :   -0.060936
  29 H :    0.027341
  30 H :    0.042580
  31 H :    0.027921
  32 H :    0.035671
  33 H :    0.067297
Sum of atomic charges:    0.0000000

LOEWDIN ATOMIC CHARGES
----------------------
   0 S :    0.416379
   1 C :   -0.201045
   2 C :   -0.074602
   3 C :   -0.060494
   4 C :   -0.181337
   5 H :    0.046281
   6 C :   -0.030803
   7 H :    0.022572
   8 H :    0.026747
   9 C :   -0.039015
  10 H :    0.010331
  11 H :    0.025534
  12 C :   -0.063531
  13 H :    0.025249
  14 H :    0.030205
  15 H :    0.028988
  16 S :    0.422918
  17 C :   -0.219179
  18 C :   -0.085609
  19 C :   -0.055924
  20 C :   -0.192758
  21 H :    0.035000
  22 C :   -0.029716
  23 H :    0.023630
  24 H :    0.033231
  25 C :   -0.029643
  26 H :    0.026871
  27 H :    0.016827
  28 C :   -0.072434
  29 H :    0.027555
  30 H :    0.025894
  31 H :    0.025190
  32 H :    0.023100
  33 H :    0.043589

  Mayer bond orders larger than 0.100000
B(  0-S ,  1-C ) :   1.1472 B(  0-S ,  4-C ) :   1.1508 B(  1-C ,  2-C ) :   1.5761
B(  1-C , 32-H ) :   0.9743 B(  2-C ,  3-C ) :   1.2641 B(  2-C ,  6-C ) :   1.0375
B(  3-C ,  4-C ) :   1.5305 B(  3-C ,  5-H ) :   0.9842 B(  4-C , 20-C ) :   1.0920
B(  6-C ,  7-H ) :   0.9398 B(  6-C ,  8-H ) :   0.9392 B(  6-C ,  9-C ) :   1.0749
B(  9-C , 10-H ) :   0.9569 B(  9-C , 11-H ) :   0.9521 B(  9-C , 12-C ) :   1.0627
B( 12-C , 13-H ) :   0.9739 B( 12-C , 14-H ) :   0.9748 B( 12-C , 15-H ) :   0.9754
B( 16-S , 17-C ) :   1.1690 B( 16-S , 20-C ) :   1.1395 B( 17-C , 18-C ) :   1.6112
B( 17-C , 33-H ) :   0.9542 B( 18-C , 19-C ) :   1.2677 B( 18-C , 21-H ) :   0.9741
B( 19-C , 20-C ) :   1.5543 B( 19-C , 22-C ) :   1.0519 B( 22-C , 23-H ) :   0.9233
B( 22-C , 24-H ) :   0.9392 B( 22-C , 25-C ) :   1.0819 B( 25-C , 26-H ) :   0.9573
B( 25-C , 27-H ) :   0.9576 B( 25-C , 28-C ) :   1.0734 B( 28-C , 29-H ) :   0.9739
B( 28-C , 30-H ) :   0.9776 B( 28-C , 31-H ) :   0.9768

Dispersion correction           -0.014162257
FINAL SINGLE POINT ENERGY     -1339.860706114907

DIPOLE MOMENT
-------------
                                X             Y             Z
Electronic contribution:      9.67862      -3.96042     -20.65575
Nuclear contribution   :     -9.80629       4.01175      21.23776
                        -----------------------------------------
Total Dipole Moment    :     -0.12767       0.05133       0.58201
                        -----------------------------------------
Magnitude (a.u.)       :      0.59805
Magnitude (Debye)      :      1.52013

Rotational constants in cm-1:     0.018518     0.008465     0.006965
Rotational constants in MHz :   555.168226   253.781257   208.794984

                             ****ORCA TERMINATED NORMALLY****
TOTAL RUN TIME: 0 days 0 hours 0 minutes 21 seconds 614 msec
