                         Program Version 4.2.1 -  RELEASE  -
|  1> ! wB97X-D3 SP def2-SVP
|  2> %pal
|  3> nprocs 24
|  4> end
|  5>
|  6> * xyz 0 1
|  7> S 	 -143.786 	 29.356 	 -13.4371
|  8> C 	 -144.207 	 29.1197 	 -15.1048
|  9> C 	 -144.852 	 30.2015 	 -15.6945
| 10> C 	 -145.24 	 31.2224 	 -14.7232
| 11> C 	 -144.479 	 30.992 	 -13.5621
| 12> H 	 -145.86 	 32.0855 	 -14.9427
| 13> C 	 -145.341 	 30.2912 	 -17.1347
| 14> H 	 -144.387 	 30.5547 	 -17.638
| 15> H 	 -146.072 	 31.1818 	 -17.3201
| 16> C 	 -146.074 	 29.1021 	 -17.6037
| 17> H 	 -145.454 	 28.2297 	 -17.5745
| 18> H 	 -146.975 	 28.9483 	 -16.9797
| 19> C 	 -146.46 	 29.3214 	 -19.1209
| 20> H 	 -147.104 	 28.4097 	 -19.2964
| 21> H 	 -147.057 	 30.1895 	 -19.4006
| 22> H 	 -145.561 	 29.3224 	 -19.7261
| 23> S 	 -145.024 	 31.431 	 -10.9002
| 24> C 	 -144.789 	 32.9709 	 -10.1468
| 25> C 	 -144.367 	 33.8392 	 -11.1454
| 26> C 	 -144.177 	 33.3471 	 -12.4603
| 27> C 	 -144.371 	 31.9405 	 -12.4719
| 28> H 	 -144.049 	 34.8373 	 -10.8623
| 29> C 	 -143.735 	 34.266 	 -13.6003
| 30> H 	 -144.487 	 35.0137 	 -13.7218
| 31> H 	 -143.5 	 33.5726 	 -14.4405
| 32> C 	 -142.469 	 35.0898 	 -13.2844
| 33> H 	 -141.851 	 35.0937 	 -14.1226
| 34> H 	 -142.094 	 34.5783 	 -12.3787
| 35> C 	 -142.776 	 36.5052 	 -12.8739
| 36> H 	 -141.867 	 36.9678 	 -12.4664
| 37> H 	 -143.59 	 36.6453 	 -12.168
| 38> H 	 -142.906 	 37.217 	 -13.7018
| 39> H 	 -143.972 	 28.1817 	 -15.5573
| 40> H 	 -144.896 	 33.3124 	 -9.07901
| 41> *
| 42>
| 43>                          ****END OF INPUT****

CARTESIAN COORDINATES (ANGSTROEM)
---------------------------------
  S    -143.786000   29.356000  -13.437100
  C    -144.207000   29.119700  -15.104800
  C    -144.852000   30.201500  -15.694500
  C    -145.240000   31.222400  -14.723200
  C    -144.479000   30.992000  -13.562100
  H    -145.860000   32.085500  -14.942700
  C    -145.341000   30.291200  -17.134700
  H    -144.387000   30.554700  -17.638000
  H    -146.072000   31.181800  -17.320100
  C    -146.074000   29.102100  -17.603700
  H    -145.454000   28.229700  -17.574500
  H    -146.975000   28.948300  -16.979700
  C    -146.460000   29.321400  -19.120900
  H    -147.104000   28.409700  -19.296400
  H    -147.057000   30.189500  -19.400600
  H    -145.561000   29.322400  -19.726100
  S    -145.024000   31.431000  -10.900200
  C    -144.789000   32.970900  -10.146800
  C    -144.367000   33.839200  -11.145400
  C    -144.177000   33.347100  -12.460300
  C    -144.371000   31.940500  -12.471900
  H    -144.049000   34.837300  -10.862300
  C    -143.735000   34.266000  -13.600300
  H    -144.487000   35.013700  -13.721800
  H    -143.500000   33.572600  -14.440500
  C    -142.469000   35.089800  -13.284400
  H    -141.851000   35.093700  -14.122600
  H    -142.094000   34.578300  -12.378700
  C    -142.776000   36.505200  -12.873900
  H    -141.867000   36.967800  -12.466400
  H    -143.590000   36.645300  -12.168000
  H    -142.906000   37.217000  -13.701800
  H    -143.972000   28.181700  -15.557300
  H    -144.896000   33.312400   -9.079010

 Total Charge           Charge          ....    0
 Multiplicity           Mult            ....    1
 Number of Electrons    NEL             ....  134
 Basis Dimension        Dim             ....  322

ORBITAL ENERGIES
----------------

  NO   OCC          E(Eh)            E(eV)
   0   2.0000     -88.968214     -2420.9482
   1   2.0000     -88.961956     -2420.7779
   2   2.0000     -10.331747      -281.1411
   3   2.0000     -10.326821      -281.0071
   4   2.0000     -10.320034      -280.8224
   5   2.0000     -10.311389      -280.5872
   6   2.0000     -10.304143      -280.3900
   7   2.0000     -10.303493      -280.3723
   8   2.0000     -10.301402      -280.3154
   9   2.0000     -10.296719      -280.1880
  10   2.0000     -10.289824      -280.0003
  11   2.0000     -10.288117      -279.9539
  12   2.0000     -10.287778      -279.9447
  13   2.0000     -10.283520      -279.8288
  14   2.0000     -10.279897      -279.7302
  15   2.0000     -10.277555      -279.6665
  16   2.0000      -8.082768      -219.9433
  17   2.0000      -8.076500      -219.7727
  18   2.0000      -6.041169      -164.3886
  19   2.0000      -6.037574      -164.2907
  20   2.0000      -6.035108      -164.2236
  21   2.0000      -6.033389      -164.1769
  22   2.0000      -6.030848      -164.1077
  23   2.0000      -6.027334      -164.0121
  24   2.0000      -1.001090       -27.2410
  25   2.0000      -0.979453       -26.6523
  26   2.0000      -0.915774       -24.9195
  27   2.0000      -0.913603       -24.8604
  28   2.0000      -0.865654       -23.5556
  29   2.0000      -0.851126       -23.1603
  30   2.0000      -0.844676       -22.9848
  31   2.0000      -0.806143       -21.9363
  32   2.0000      -0.781130       -21.2556
  33   2.0000      -0.766330       -20.8529
  34   2.0000      -0.705599       -19.2003
  35   2.0000      -0.701031       -19.0760
  36   2.0000      -0.689788       -18.7701
  37   2.0000      -0.657451       -17.8902
  38   2.0000      -0.639820       -17.4104
  39   2.0000      -0.611972       -16.6526
  40   2.0000      -0.595227       -16.1970
  41   2.0000      -0.577493       -15.7144
  42   2.0000      -0.563164       -15.3245
  43   2.0000      -0.556428       -15.1412
  44   2.0000      -0.542963       -14.7748
  45   2.0000      -0.528678       -14.3861
  46   2.0000      -0.512582       -13.9481
  47   2.0000      -0.508969       -13.8498
  48   2.0000      -0.506072       -13.7709
  49   2.0000      -0.500124       -13.6091
  50   2.0000      -0.486778       -13.2459
  51   2.0000      -0.476070       -12.9545
  52   2.0000      -0.469830       -12.7847
  53   2.0000      -0.464106       -12.6290
  54   2.0000      -0.456106       -12.4113
  55   2.0000      -0.454680       -12.3725
  56   2.0000      -0.443435       -12.0665
  57   2.0000      -0.438814       -11.9407
  58   2.0000      -0.436044       -11.8654
  59   2.0000      -0.426063       -11.5938
  60   2.0000      -0.416775       -11.3410
  61   2.0000      -0.404532       -11.0079
  62   2.0000      -0.401855       -10.9350
  63   2.0000      -0.340707        -9.2711
  64   2.0000      -0.327759        -8.9188
  65   2.0000      -0.325553        -8.8587
  66   2.0000      -0.288497        -7.8504
  67   0.0000       0.024081         0.6553
  68   0.0000       0.071475         1.9449
  69   0.0000       0.106709         2.9037
  70   0.0000       0.120267         3.2726
  71   0.0000       0.131467         3.5774

MULLIKEN ATOMIC CHARGES
-----------------------
   0 S :    0.118585
   1 C :   -0.121701
   2 C :   -0.084593
   3 C :    0.036150
   4 C :   -0.169541
   5 H :    0.033124
   6 C :    0.020294
   7 H :    0.046926
   8 H :    0.032813
   9 C :   -0.078074
  10 H :    0.028051
  11 H :    0.045840
  12 C :   -0.067091
  13 H :    0.041081
  14 H :    0.037013
  15 H :    0.034327
  16 S :    0.096265
  17 C :   -0.096820
  18 C :   -0.067637
  19 C :   -0.055877
  20 C :   -0.152385
  21 H :    0.010591
  22 C :    0.095540
  23 H :    0.027202
  24 H :    0.039599
  25 C :   -0.045519
  26 H :    0.022962
  27 H :    0.044864
  28 C :   -0.081663
  29 H :    0.026743
  30 H :    0.036956
  31 H :    0.025702
  32 H :    0.041554
  33 H :    0.078719
Sum of atomic charges:    0.0000000

LOEWDIN ATOMIC CHARGES
----------------------
   0 S :    0.400656
   1 C :   -0.204566
   2 C :   -0.058667
   3 C :   -0.046415
   4 C :   -0.188261
   5 H :    0.036806
   6 C :   -0.046837
   7 H :    0.038445
   8 H :    0.037347
   9 C :   -0.039406
  10 H :    0.020195
  11 H :    0.032337
  12 C :   -0.068002
  13 H :    0.033423
  14 H :    0.022432
  15 H :    0.023717
  16 S :    0.404360
  17 C :   -0.206252
  18 C :   -0.085146
  19 C :   -0.056375
  20 C :   -0.198770
  21 H :    0.023938
  22 C :   -0.027327
  23 H :    0.029361
  24 H :    0.038135
  25 C :   -0.035303
  26 H :    0.020211
  27 H :    0.032454
  28 C :   -0.076518
  29 H :    0.030209
  30 H :    0.020331
  31 H :    0.026113
  32 H :    0.017861
  33 H :    0.049513

  Mayer bond orders larger than 0.100000
B(  0-S ,  1-C ) :   1.1261 B(  0-S ,  4-C ) :   1.1554 B(  1-C ,  2-C ) :   1.6202
B(  1-C , 32-H ) :   0.9729 B(  2-C ,  3-C ) :   1.2226 B(  2-C ,  6-C ) :   0.9986
B(  3-C ,  4-C ) :   1.5555 B(  3-C ,  5-H ) :   0.9901 B(  4-C , 20-C ) :   1.0416
B(  6-C ,  7-H ) :   0.9298 B(  6-C ,  8-H ) :   0.9523 B(  6-C ,  9-C ) :   1.0814
B(  9-C , 10-H ) :   0.9491 B(  9-C , 11-H ) :   0.9573 B(  9-C , 12-C ) :   1.0721
B( 12-C , 13-H ) :   0.9772 B( 12-C , 14-H ) :   0.9777 B( 12-C , 15-H ) :   0.9765
B( 16-S , 17-C ) :   1.1560 B( 16-S , 20-C ) :   1.1518 B( 17-C , 18-C ) :   1.5929
B( 17-C , 20-C ) :   0.1072 B( 17-C , 33-H ) :   0.9606 B( 18-C , 19-C ) :   1.2615
B( 18-C , 21-H ) :   0.9803 B( 19-C , 20-C ) :   1.5602 B( 19-C , 22-C ) :   1.0538
B( 22-C , 23-H ) :   0.9328 B( 22-C , 24-H ) :   0.9310 B( 22-C , 25-C ) :   1.0521
B( 25-C , 26-H ) :   0.9536 B( 25-C , 27-H ) :   0.9657 B( 25-C , 28-C ) :   1.0871
B( 28-C , 29-H ) :   0.9684 B( 28-C , 30-H ) :   0.9736 B( 28-C , 31-H ) :   0.9672

Dispersion correction           -0.013567198
FINAL SINGLE POINT ENERGY     -1339.850179418552

DIPOLE MOMENT
-------------
                                X             Y             Z
Electronic contribution:      0.71970     -13.65863      21.95509
Nuclear contribution   :     -0.73648      14.10763     -22.50102
                        -----------------------------------------
Total Dipole Moment    :     -0.01678       0.44900      -0.54593
                        -----------------------------------------
Magnitude (a.u.)       :      0.70705
Magnitude (Debye)      :      1.79718

Rotational constants in cm-1:     0.020567     0.007231     0.005898
Rotational constants in MHz :   616.593701   216.789409   176.818754

                             ****ORCA TERMINATED NORMALLY****
TOTAL RUN TIME: 0 days 0 hours 0 minutes 20 seconds 996 msec
