                         Program Version 4.2.1 -  RELEASE  -
|  1> ! wB97X-D3 SP def2-SVP
|  2> %pal
|  3> nprocs 24
|  4> end
|  5>
|  6> * xyz 0 1
|  7> S 	 -58.7521 	 -1.3716 	 -30.5631
|  8> C 	 -58.8634 	 0.274266 	 -31.114
|  9> C 	 -59.8503 	 0.976347 	 -30.4801
| 10> C 	 -60.6143 	 0.179131 	 -29.5567
| 11> C 	 -60.0451 	 -1.07018 	 -29.3917
| 12> H 	 -61.5584 	 0.541305 	 -29.0382
| 13> C 	 -60.2864 	 2.39253 	 -30.6764
| 14> H 	 -59.4012 	 2.91786 	 -31.1359
| 15> H 	 -60.3991 	 2.77282 	 -29.6349
| 16> C 	 -61.5429 	 2.52938 	 -31.5535
| 17> H 	 -62.3336 	 1.74168 	 -31.1804
| 18> H 	 -61.8831 	 3.51398 	 -31.6194
| 19> C 	 -61.3479 	 2.09258 	 -32.9836
| 20> H 	 -62.2617 	 2.22893 	 -33.5251
| 21> H 	 -60.5843 	 2.57335 	 -33.5333
| 22> H 	 -61.011 	 0.992921 	 -33.0141
| 23> S 	 -61.9094 	 -2.96365 	 -28.7268
| 24> C 	 -61.7916 	 -3.78242 	 -27.1987
| 25> C 	 -60.5969 	 -3.50417 	 -26.5378
| 26> C 	 -59.8529 	 -2.50249 	 -27.2265
| 27> C 	 -60.3416 	 -2.17307 	 -28.4654
| 28> H 	 -60.2376 	 -4.03241 	 -25.6303
| 29> C 	 -58.5586 	 -2.01533 	 -26.5623
| 30> H 	 -58.7796 	 -1.39749 	 -25.7062
| 31> H 	 -58.2047 	 -1.27017 	 -27.2836
| 32> C 	 -57.5123 	 -3.04503 	 -26.1255
| 33> H 	 -57.2825 	 -3.68003 	 -26.9759
| 34> H 	 -58.0218 	 -3.69183 	 -25.3341
| 35> C 	 -56.2621 	 -2.44273 	 -25.4098
| 36> H 	 -56.1048 	 -1.37106 	 -25.5463
| 37> H 	 -55.4449 	 -3.07868 	 -25.8043
| 38> H 	 -56.246 	 -2.71319 	 -24.353
| 39> H 	 -58.2147 	 0.717031 	 -31.8182
| 40> H 	 -62.4498 	 -4.6395 	 -26.9212
| 41> *
| 42>
| 43>                          ****END OF INPUT****

CARTESIAN COORDINATES (ANGSTROEM)
---------------------------------
  S    -58.752100   -1.371600  -30.563100
  C    -58.863400    0.274266  -31.114000
  C    -59.850300    0.976347  -30.480100
  C    -60.614300    0.179131  -29.556700
  C    -60.045100   -1.070180  -29.391700
  H    -61.558400    0.541305  -29.038200
  C    -60.286400    2.392530  -30.676400
  H    -59.401200    2.917860  -31.135900
  H    -60.399100    2.772820  -29.634900
  C    -61.542900    2.529380  -31.553500
  H    -62.333600    1.741680  -31.180400
  H    -61.883100    3.513980  -31.619400
  C    -61.347900    2.092580  -32.983600
  H    -62.261700    2.228930  -33.525100
  H    -60.584300    2.573350  -33.533300
  H    -61.011000    0.992921  -33.014100
  S    -61.909400   -2.963650  -28.726800
  C    -61.791600   -3.782420  -27.198700
  C    -60.596900   -3.504170  -26.537800
  C    -59.852900   -2.502490  -27.226500
  C    -60.341600   -2.173070  -28.465400
  H    -60.237600   -4.032410  -25.630300
  C    -58.558600   -2.015330  -26.562300
  H    -58.779600   -1.397490  -25.706200
  H    -58.204700   -1.270170  -27.283600
  C    -57.512300   -3.045030  -26.125500
  H    -57.282500   -3.680030  -26.975900
  H    -58.021800   -3.691830  -25.334100
  C    -56.262100   -2.442730  -25.409800
  H    -56.104800   -1.371060  -25.546300
  H    -55.444900   -3.078680  -25.804300
  H    -56.246000   -2.713190  -24.353000
  H    -58.214700    0.717031  -31.818200
  H    -62.449800   -4.639500  -26.921200

 Total Charge           Charge          ....    0
 Multiplicity           Mult            ....    1
 Number of Electrons    NEL             ....  134
 Basis Dimension        Dim             ....  322

ORBITAL ENERGIES
----------------

  NO   OCC          E(Eh)            E(eV)
   0   2.0000     -88.964772     -2420.8545
   1   2.0000     -88.963611     -2420.8229
   2   2.0000     -10.332005      -281.1482
   3   2.0000     -10.325004      -280.9576
   4   2.0000     -10.321005      -280.8488
   5   2.0000     -10.308547      -280.5098
   6   2.0000     -10.302196      -280.3370
   7   2.0000     -10.301209      -280.3102
   8   2.0000     -10.296621      -280.1853
   9   2.0000     -10.296453      -280.1807
  10   2.0000     -10.294851      -280.1371
  11   2.0000     -10.292957      -280.0856
  12   2.0000     -10.291124      -280.0357
  13   2.0000     -10.286228      -279.9025
  14   2.0000     -10.282121      -279.7907
  15   2.0000     -10.271581      -279.5039
  16   2.0000      -8.079421      -219.8522
  17   2.0000      -8.078343      -219.8229
  18   2.0000      -6.037907      -164.2998
  19   2.0000      -6.036817      -164.2701
  20   2.0000      -6.034005      -164.1936
  21   2.0000      -6.032861      -164.1625
  22   2.0000      -6.030143      -164.0885
  23   2.0000      -6.029134      -164.0611
  24   2.0000      -1.004632       -27.3374
  25   2.0000      -0.983934       -26.7742
  26   2.0000      -0.914057       -24.8727
  27   2.0000      -0.903272       -24.5793
  28   2.0000      -0.866229       -23.5713
  29   2.0000      -0.849209       -23.1082
  30   2.0000      -0.847262       -23.0552
  31   2.0000      -0.810480       -22.0543
  32   2.0000      -0.781856       -21.2754
  33   2.0000      -0.771249       -20.9868
  34   2.0000      -0.703303       -19.1379
  35   2.0000      -0.695807       -18.9339
  36   2.0000      -0.690238       -18.7823
  37   2.0000      -0.658678       -17.9235
  38   2.0000      -0.636903       -17.3310
  39   2.0000      -0.617057       -16.7910
  40   2.0000      -0.594868       -16.1872
  41   2.0000      -0.569805       -15.5052
  42   2.0000      -0.557938       -15.1823
  43   2.0000      -0.552062       -15.0224
  44   2.0000      -0.538741       -14.6599
  45   2.0000      -0.528427       -14.3792
  46   2.0000      -0.517732       -14.0882
  47   2.0000      -0.512899       -13.9567
  48   2.0000      -0.503645       -13.7049
  49   2.0000      -0.495669       -13.4878
  50   2.0000      -0.488058       -13.2807
  51   2.0000      -0.474215       -12.9040
  52   2.0000      -0.462693       -12.5905
  53   2.0000      -0.459450       -12.5023
  54   2.0000      -0.457263       -12.4428
  55   2.0000      -0.446439       -12.1482
  56   2.0000      -0.442336       -12.0366
  57   2.0000      -0.438879       -11.9425
  58   2.0000      -0.436103       -11.8670
  59   2.0000      -0.423259       -11.5175
  60   2.0000      -0.418510       -11.3882
  61   2.0000      -0.413853       -11.2615
  62   2.0000      -0.401470       -10.9245
  63   2.0000      -0.337224        -9.1763
  64   2.0000      -0.327915        -8.9230
  65   2.0000      -0.324915        -8.8414
  66   2.0000      -0.307484        -8.3671
  67   0.0000       0.043281         1.1777
  68   0.0000       0.057204         1.5566
  69   0.0000       0.112037         3.0487
  70   0.0000       0.116369         3.1666
  71   0.0000       0.127630         3.4730

MULLIKEN ATOMIC CHARGES
-----------------------
   0 S :    0.110137
   1 C :   -0.091863
   2 C :   -0.132644
   3 C :    0.024984
   4 C :   -0.181333
   5 H :    0.048784
   6 C :    0.055739
   7 H :    0.025740
   8 H :    0.042623
   9 C :   -0.055760
  10 H :    0.046739
  11 H :    0.028045
  12 C :   -0.069394
  13 H :    0.034545
  14 H :    0.012579
  15 H :    0.045824
  16 S :    0.101639
  17 C :   -0.103091
  18 C :   -0.045988
  19 C :   -0.029655
  20 C :   -0.166480
  21 H :    0.037311
  22 C :    0.079365
  23 H :    0.023090
  24 H :    0.019565
  25 C :   -0.115109
  26 H :    0.043271
  27 H :    0.034749
  28 C :   -0.041208
  29 H :    0.049650
  30 H :    0.035322
  31 H :    0.032659
  32 H :    0.025601
  33 H :    0.074563
Sum of atomic charges:   -0.0000000

LOEWDIN ATOMIC CHARGES
----------------------
   0 S :    0.402343
   1 C :   -0.196654
   2 C :   -0.069649
   3 C :   -0.063447
   4 C :   -0.189058
   5 H :    0.047102
   6 C :   -0.038487
   7 H :    0.032717
   8 H :    0.037077
   9 C :   -0.039387
  10 H :    0.040690
  11 H :    0.017214
  12 C :   -0.069481
  13 H :    0.024704
  14 H :    0.012336
  15 H :    0.034945
  16 S :    0.402671
  17 C :   -0.190907
  18 C :   -0.077650
  19 C :   -0.050713
  20 C :   -0.209004
  21 H :    0.037491
  22 C :   -0.038134
  23 H :    0.029620
  24 H :    0.026995
  25 C :   -0.042546
  26 H :    0.023598
  27 H :    0.028302
  28 C :   -0.069944
  29 H :    0.028077
  30 H :    0.036173
  31 H :    0.027439
  32 H :    0.018650
  33 H :    0.036916

  Mayer bond orders larger than 0.100000
B(  0-S ,  1-C ) :   1.1255 B(  0-S ,  4-C ) :   1.1555 B(  1-C ,  2-C ) :   1.6412
B(  1-C , 32-H ) :   0.9711 B(  2-C ,  3-C ) :   1.2124 B(  2-C ,  6-C ) :   1.0182
B(  3-C ,  4-C ) :   1.6122 B(  3-C ,  5-H ) :   0.9823 B(  4-C , 20-C ) :   0.9716
B(  6-C ,  7-H ) :   0.9407 B(  6-C ,  8-H ) :   0.9401 B(  6-C ,  9-C ) :   1.0619
B(  9-C , 10-H ) :   0.9550 B(  9-C , 11-H ) :   0.9569 B(  9-C , 12-C ) :   1.0759
B( 12-C , 13-H ) :   0.9722 B( 12-C , 14-H ) :   0.9735 B( 12-C , 15-H ) :   0.9720
B( 16-S , 17-C ) :   1.1734 B( 16-S , 20-C ) :   1.1283 B( 17-C , 18-C ) :   1.5999
B( 17-C , 33-H ) :   0.9569 B( 18-C , 19-C ) :   1.2419 B( 18-C , 21-H ) :   0.9828
B( 19-C , 20-C ) :   1.6288 B( 19-C , 22-C ) :   1.0370 B( 22-C , 23-H ) :   0.9296
B( 22-C , 24-H ) :   0.9316 B( 22-C , 25-C ) :   1.0602 B( 25-C , 26-H ) :   0.9679
B( 25-C , 27-H ) :   0.9541 B( 25-C , 28-C ) :   1.0568 B( 28-C , 29-H ) :   0.9796
B( 28-C , 30-H ) :   0.9761 B( 28-C , 31-H ) :   0.9783

Dispersion correction           -0.014222879
FINAL SINGLE POINT ENERGY     -1339.871563891307

DIPOLE MOMENT
-------------
                                X             Y             Z
Electronic contribution:     -7.61650     -12.07578      -3.76734
Nuclear contribution   :      7.73902      12.37190       4.05696
                        -----------------------------------------
Total Dipole Moment    :      0.12252       0.29613       0.28963
                        -----------------------------------------
Magnitude (a.u.)       :      0.43196
Magnitude (Debye)      :      1.09795

Rotational constants in cm-1:     0.021310     0.007703     0.006402
Rotational constants in MHz :   638.855769   230.934044   191.926064

                             ****ORCA TERMINATED NORMALLY****
TOTAL RUN TIME: 0 days 0 hours 0 minutes 21 seconds 189 msec
