                         Program Version 4.2.1 -  RELEASE  -
|  1> ! wB97X-D3 SP def2-SVP
|  2> %pal
|  3> nprocs 24
|  4> end
|  5>
|  6> * xyz 0 1
|  7> S 	 -121.754 	 46.2729 	 -23.5854
|  8> C 	 -120.634 	 44.847 	 -23.723
|  9> C 	 -120.74 	 44.2001 	 -24.9336
| 10> C 	 -121.525 	 45.0202 	 -25.8287
| 11> C 	 -122.02 	 46.2461 	 -25.3307
| 12> H 	 -121.528 	 44.7927 	 -26.88
| 13> C 	 -120.165 	 42.8602 	 -25.3318
| 14> H 	 -119.218 	 42.8932 	 -25.8376
| 15> H 	 -120.821 	 42.4022 	 -26.0438
| 16> C 	 -120.111 	 41.8084 	 -24.2016
| 17> H 	 -119.359 	 42.0473 	 -23.4124
| 18> H 	 -121.101 	 41.6799 	 -23.6394
| 19> C 	 -119.649 	 40.4402 	 -24.6214
| 20> H 	 -119.446 	 39.805 	 -23.7541
| 21> H 	 -120.35 	 39.8498 	 -25.2191
| 22> H 	 -118.626 	 40.5223 	 -25.1076
| 23> S 	 -124.271 	 47.8262 	 -25.6068
| 24> C 	 -124.565 	 48.5404 	 -27.2117
| 25> C 	 -123.466 	 48.4917 	 -27.9754
| 26> C 	 -122.406 	 47.8137 	 -27.3353
| 27> C 	 -122.725 	 47.2629 	 -26.0857
| 28> H 	 -123.577 	 48.8433 	 -29.0272
| 29> C 	 -121.174 	 47.5478 	 -28.1041
| 30> H 	 -121.425 	 47.1462 	 -29.126
| 31> H 	 -120.512 	 46.8706 	 -27.594
| 32> C 	 -120.294 	 48.7541 	 -28.336
| 33> H 	 -119.836 	 48.9555 	 -27.3667
| 34> H 	 -120.88 	 49.6746 	 -28.5557
| 35> C 	 -119.185 	 48.5408 	 -29.4544
| 36> H 	 -118.457 	 47.7965 	 -29.1448
| 37> H 	 -118.641 	 49.5542 	 -29.5218
| 38> H 	 -119.608 	 48.2002 	 -30.427
| 39> H 	 -120.075 	 44.5355 	 -22.7614
| 40> H 	 -125.538 	 48.9867 	 -27.5572
| 41> *
| 42>
| 43>                          ****END OF INPUT****

CARTESIAN COORDINATES (ANGSTROEM)
---------------------------------
  S    -121.754000   46.272900  -23.585400
  C    -120.634000   44.847000  -23.723000
  C    -120.740000   44.200100  -24.933600
  C    -121.525000   45.020200  -25.828700
  C    -122.020000   46.246100  -25.330700
  H    -121.528000   44.792700  -26.880000
  C    -120.165000   42.860200  -25.331800
  H    -119.218000   42.893200  -25.837600
  H    -120.821000   42.402200  -26.043800
  C    -120.111000   41.808400  -24.201600
  H    -119.359000   42.047300  -23.412400
  H    -121.101000   41.679900  -23.639400
  C    -119.649000   40.440200  -24.621400
  H    -119.446000   39.805000  -23.754100
  H    -120.350000   39.849800  -25.219100
  H    -118.626000   40.522300  -25.107600
  S    -124.271000   47.826200  -25.606800
  C    -124.565000   48.540400  -27.211700
  C    -123.466000   48.491700  -27.975400
  C    -122.406000   47.813700  -27.335300
  C    -122.725000   47.262900  -26.085700
  H    -123.577000   48.843300  -29.027200
  C    -121.174000   47.547800  -28.104100
  H    -121.425000   47.146200  -29.126000
  H    -120.512000   46.870600  -27.594000
  C    -120.294000   48.754100  -28.336000
  H    -119.836000   48.955500  -27.366700
  H    -120.880000   49.674600  -28.555700
  C    -119.185000   48.540800  -29.454400
  H    -118.457000   47.796500  -29.144800
  H    -118.641000   49.554200  -29.521800
  H    -119.608000   48.200200  -30.427000
  H    -120.075000   44.535500  -22.761400
  H    -125.538000   48.986700  -27.557200

 Total Charge           Charge          ....    0
 Multiplicity           Mult            ....    1
 Number of Electrons    NEL             ....  134
 Basis Dimension        Dim             ....  322

ORBITAL ENERGIES
----------------

  NO   OCC          E(Eh)            E(eV)
   0   2.0000     -88.965474     -2420.8736
   1   2.0000     -88.963585     -2420.8222
   2   2.0000     -10.335972      -281.2561
   3   2.0000     -10.327378      -281.0222
   4   2.0000     -10.327058      -281.0135
   5   2.0000     -10.319598      -280.8105
   6   2.0000     -10.308402      -280.5059
   7   2.0000     -10.300517      -280.2913
   8   2.0000     -10.298193      -280.2281
   9   2.0000     -10.296910      -280.1932
  10   2.0000     -10.295445      -280.1533
  11   2.0000     -10.292692      -280.0784
  12   2.0000     -10.289169      -279.9825
  13   2.0000     -10.285021      -279.8697
  14   2.0000     -10.283600      -279.8310
  15   2.0000     -10.283294      -279.8226
  16   2.0000      -8.079208      -219.8464
  17   2.0000      -8.078846      -219.8366
  18   2.0000      -6.037851      -164.2983
  19   2.0000      -6.037379      -164.2854
  20   2.0000      -6.034026      -164.1942
  21   2.0000      -6.033303      -164.1745
  22   2.0000      -6.029718      -164.0770
  23   2.0000      -6.029512      -164.0714
  24   2.0000      -1.008380       -27.4394
  25   2.0000      -0.980634       -26.6844
  26   2.0000      -0.914875       -24.8950
  27   2.0000      -0.908896       -24.7323
  28   2.0000      -0.874377       -23.7930
  29   2.0000      -0.847987       -23.0749
  30   2.0000      -0.843677       -22.9576
  31   2.0000      -0.811046       -22.0697
  32   2.0000      -0.785727       -21.3807
  33   2.0000      -0.767077       -20.8732
  34   2.0000      -0.706952       -19.2372
  35   2.0000      -0.695083       -18.9142
  36   2.0000      -0.686996       -18.6941
  37   2.0000      -0.658368       -17.9151
  38   2.0000      -0.633370       -17.2349
  39   2.0000      -0.619723       -16.8635
  40   2.0000      -0.598584       -16.2883
  41   2.0000      -0.573091       -15.5946
  42   2.0000      -0.571772       -15.5587
  43   2.0000      -0.558975       -15.2105
  44   2.0000      -0.524625       -14.2758
  45   2.0000      -0.519169       -14.1273
  46   2.0000      -0.514312       -13.9951
  47   2.0000      -0.513256       -13.9664
  48   2.0000      -0.505892       -13.7660
  49   2.0000      -0.498578       -13.5670
  50   2.0000      -0.491689       -13.3795
  51   2.0000      -0.474952       -12.9241
  52   2.0000      -0.472689       -12.8625
  53   2.0000      -0.461567       -12.5599
  54   2.0000      -0.456946       -12.4341
  55   2.0000      -0.449256       -12.2249
  56   2.0000      -0.445294       -12.1171
  57   2.0000      -0.432299       -11.7635
  58   2.0000      -0.426943       -11.6177
  59   2.0000      -0.426510       -11.6059
  60   2.0000      -0.417352       -11.3567
  61   2.0000      -0.415354       -11.3024
  62   2.0000      -0.412202       -11.2166
  63   2.0000      -0.353413        -9.6169
  64   2.0000      -0.330500        -8.9934
  65   2.0000      -0.326913        -8.8957
  66   2.0000      -0.288767        -7.8577
  67   0.0000       0.026254         0.7144
  68   0.0000       0.065802         1.7906
  69   0.0000       0.097406         2.6506
  70   0.0000       0.120497         3.2789
  71   0.0000       0.131749         3.5851

MULLIKEN ATOMIC CHARGES
-----------------------
   0 S :    0.090724
   1 C :   -0.177250
   2 C :   -0.057416
   3 C :    0.036476
   4 C :   -0.159646
   5 H :    0.011828
   6 C :    0.114790
   7 H :    0.035467
   8 H :    0.020246
   9 C :   -0.134948
  10 H :    0.032110
  11 H :    0.048450
  12 C :   -0.069181
  13 H :    0.031484
  14 H :    0.037303
  15 H :    0.033085
  16 S :    0.098819
  17 C :   -0.118426
  18 C :   -0.036994
  19 C :   -0.024539
  20 C :   -0.121330
  21 H :    0.042314
  22 C :    0.055646
  23 H :    0.027263
  24 H :    0.018861
  25 C :   -0.103622
  26 H :    0.027680
  27 H :    0.030128
  28 C :   -0.072946
  29 H :    0.034287
  30 H :    0.052671
  31 H :    0.040823
  32 H :    0.084365
  33 H :    0.071479
Sum of atomic charges:   -0.0000000

LOEWDIN ATOMIC CHARGES
----------------------
   0 S :    0.364178
   1 C :   -0.178378
   2 C :   -0.064144
   3 C :   -0.055047
   4 C :   -0.187347
   5 H :    0.026019
   6 C :   -0.028763
   7 H :    0.033514
   8 H :    0.033051
   9 C :   -0.052439
  10 H :    0.025231
  11 H :    0.034372
  12 C :   -0.074810
  13 H :    0.028853
  14 H :    0.021602
  15 H :    0.030388
  16 S :    0.400653
  17 C :   -0.176659
  18 C :   -0.077265
  19 C :   -0.056188
  20 C :   -0.211034
  21 H :    0.046475
  22 C :   -0.041845
  23 H :    0.031080
  24 H :    0.026465
  25 C :   -0.042657
  26 H :    0.024913
  27 H :    0.020823
  28 C :   -0.072017
  29 H :    0.022167
  30 H :    0.038852
  31 H :    0.025899
  32 H :    0.042576
  33 H :    0.041480

  Mayer bond orders larger than 0.100000
B(  0-S ,  1-C ) :   1.1243 B(  0-S ,  4-C ) :   1.1306 B(  1-C ,  2-C ) :   1.6235
B(  1-C , 32-H ) :   0.9566 B(  2-C ,  3-C ) :   1.2376 B(  2-C ,  6-C ) :   1.0124
B(  3-C ,  4-C ) :   1.5730 B(  3-C ,  5-H ) :   0.9904 B(  4-C , 20-C ) :   1.0625
B(  6-C ,  7-H ) :   0.9287 B(  6-C ,  8-H ) :   0.9431 B(  6-C ,  9-C ) :   1.0627
B(  9-C , 10-H ) :   0.9506 B(  9-C , 11-H ) :   0.9578 B(  9-C , 12-C ) :   1.0944
B( 12-C , 13-H ) :   0.9720 B( 12-C , 14-H ) :   0.9744 B( 12-C , 15-H ) :   0.9691
B( 16-S , 17-C ) :   1.1431 B( 16-S , 20-C ) :   1.1323 B( 17-C , 18-C ) :   1.6423
B( 17-C , 33-H ) :   0.9584 B( 18-C , 19-C ) :   1.2168 B( 18-C , 21-H ) :   0.9850
B( 19-C , 20-C ) :   1.5806 B( 19-C , 22-C ) :   1.0693 B( 22-C , 23-H ) :   0.9378
B( 22-C , 24-H ) :   0.9279 B( 22-C , 25-C ) :   1.0503 B( 25-C , 26-H ) :   0.9526
B( 25-C , 27-H ) :   0.9645 B( 25-C , 28-C ) :   1.0680 B( 28-C , 29-H ) :   0.9762
B( 28-C , 30-H ) :   0.9754 B( 28-C , 31-H ) :   0.9760

Dispersion correction           -0.013373084
FINAL SINGLE POINT ENERGY     -1339.868140515757

DIPOLE MOMENT
-------------
                                X             Y             Z
Electronic contribution:    -20.04768      14.53162      13.27555
Nuclear contribution   :     20.38510     -14.97301     -13.81459
                        -----------------------------------------
Total Dipole Moment    :      0.33742      -0.44139      -0.53904
                        -----------------------------------------
Magnitude (a.u.)       :      0.77411
Magnitude (Debye)      :      1.96763

Rotational constants in cm-1:     0.018772     0.007408     0.006013
Rotational constants in MHz :   562.772743   222.091614   180.277507

                             ****ORCA TERMINATED NORMALLY****
TOTAL RUN TIME: 0 days 0 hours 0 minutes 20 seconds 842 msec
