                         Program Version 4.2.1 -  RELEASE  -
|  1> ! wB97X-D3 SP def2-SVP
|  2> %pal
|  3> nprocs 24
|  4> end
|  5>
|  6> * xyz 0 1
|  7> S 	 -107.705 	 58.7425 	 -99.9183
|  8> C 	 -109.248 	 58.1003 	 -99.3491
|  9> C 	 -110.134 	 59.0695 	 -99.0512
| 10> C 	 -109.578 	 60.3702 	 -99.1674
| 11> C 	 -108.282 	 60.4061 	 -99.5983
| 12> H 	 -110.136 	 61.27 	 -98.9881
| 13> C 	 -111.618 	 58.8095 	 -98.7677
| 14> H 	 -111.763 	 57.8317 	 -98.4761
| 15> H 	 -112.168 	 58.8497 	 -99.7129
| 16> C 	 -112.353 	 59.7834 	 -97.749
| 17> H 	 -112.364 	 60.8382 	 -98.1191
| 18> H 	 -113.33 	 59.463 	 -97.8494
| 19> C 	 -111.857 	 59.7391 	 -96.2928
| 20> H 	 -110.845 	 60.0925 	 -96.1847
| 21> H 	 -112.538 	 60.3262 	 -95.6846
| 22> H 	 -111.801 	 58.7233 	 -95.9388
| 23> S 	 -105.853 	 61.8152 	 -99.4784
| 24> C 	 -105.624 	 63.2296 	 -100.404
| 25> C 	 -106.804 	 63.5593 	 -101.046
| 26> C 	 -107.903 	 62.6779 	 -100.808
| 27> C 	 -107.487 	 61.6052 	 -99.9911
| 28> H 	 -106.844 	 64.3309 	 -101.813
| 29> C 	 -109.25 	 62.8396 	 -101.539
| 30> H 	 -109.816 	 61.8306 	 -101.364
| 31> H 	 -109.109 	 62.8347 	 -102.692
| 32> C 	 -110.056 	 64.0978 	 -101.146
| 33> H 	 -109.61 	 64.8825 	 -101.77
| 34> H 	 -109.876 	 64.4282 	 -100.072
| 35> C 	 -111.519 	 63.9781 	 -101.453
| 36> H 	 -112.074 	 63.1515 	 -100.95
| 37> H 	 -111.635 	 63.7609 	 -102.496
| 38> H 	 -111.977 	 65.0084 	 -101.245
| 39> H 	 -109.553 	 57.0786 	 -99.5487
| 40> H 	 -104.703 	 63.7824 	 -100.515
| 41> *
| 42>
| 43>                          ****END OF INPUT****

CARTESIAN COORDINATES (ANGSTROEM)
---------------------------------
  S    -107.705000   58.742500  -99.918300
  C    -109.248000   58.100300  -99.349100
  C    -110.134000   59.069500  -99.051200
  C    -109.578000   60.370200  -99.167400
  C    -108.282000   60.406100  -99.598300
  H    -110.136000   61.270000  -98.988100
  C    -111.618000   58.809500  -98.767700
  H    -111.763000   57.831700  -98.476100
  H    -112.168000   58.849700  -99.712900
  C    -112.353000   59.783400  -97.749000
  H    -112.364000   60.838200  -98.119100
  H    -113.330000   59.463000  -97.849400
  C    -111.857000   59.739100  -96.292800
  H    -110.845000   60.092500  -96.184700
  H    -112.538000   60.326200  -95.684600
  H    -111.801000   58.723300  -95.938800
  S    -105.853000   61.815200  -99.478400
  C    -105.624000   63.229600  -100.404000
  C    -106.804000   63.559300  -101.046000
  C    -107.903000   62.677900  -100.808000
  C    -107.487000   61.605200  -99.991100
  H    -106.844000   64.330900  -101.813000
  C    -109.250000   62.839600  -101.539000
  H    -109.816000   61.830600  -101.364000
  H    -109.109000   62.834700  -102.692000
  C    -110.056000   64.097800  -101.146000
  H    -109.610000   64.882500  -101.770000
  H    -109.876000   64.428200  -100.072000
  C    -111.519000   63.978100  -101.453000
  H    -112.074000   63.151500  -100.950000
  H    -111.635000   63.760900  -102.496000
  H    -111.977000   65.008400  -101.245000
  H    -109.553000   57.078600  -99.548700
  H    -104.703000   63.782400  -100.515000

 Total Charge           Charge          ....    0
 Multiplicity           Mult            ....    1
 Number of Electrons    NEL             ....  134
 Basis Dimension        Dim             ....  322

ORBITAL ENERGIES
----------------

  NO   OCC          E(Eh)            E(eV)
   0   2.0000     -88.967552     -2420.9302
   1   2.0000     -88.963427     -2420.8179
   2   2.0000     -10.333185      -281.1803
   3   2.0000     -10.329661      -281.0844
   4   2.0000     -10.314815      -280.6804
   5   2.0000     -10.309339      -280.5314
   6   2.0000     -10.306407      -280.4516
   7   2.0000     -10.305969      -280.4397
   8   2.0000     -10.296443      -280.1805
   9   2.0000     -10.292374      -280.0697
  10   2.0000     -10.292360      -280.0694
  11   2.0000     -10.291443      -280.0444
  12   2.0000     -10.290743      -280.0254
  13   2.0000     -10.289044      -279.9791
  14   2.0000     -10.284655      -279.8597
  15   2.0000     -10.274624      -279.5867
  16   2.0000      -8.083242      -219.9562
  17   2.0000      -8.077548      -219.8012
  18   2.0000      -6.041600      -164.4003
  19   2.0000      -6.037462      -164.2877
  20   2.0000      -6.036178      -164.2528
  21   2.0000      -6.034255      -164.2004
  22   2.0000      -6.032249      -164.1458
  23   2.0000      -6.028111      -164.0332
  24   2.0000      -1.006859       -27.3980
  25   2.0000      -0.986887       -26.8546
  26   2.0000      -0.907240       -24.6873
  27   2.0000      -0.904937       -24.6246
  28   2.0000      -0.867670       -23.6105
  29   2.0000      -0.853236       -23.2177
  30   2.0000      -0.842661       -22.9300
  31   2.0000      -0.816760       -22.2252
  32   2.0000      -0.783748       -21.3269
  33   2.0000      -0.770716       -20.9723
  34   2.0000      -0.709143       -19.2968
  35   2.0000      -0.693733       -18.8774
  36   2.0000      -0.692434       -18.8421
  37   2.0000      -0.654556       -17.8114
  38   2.0000      -0.639101       -17.3908
  39   2.0000      -0.626075       -17.0364
  40   2.0000      -0.595866       -16.2143
  41   2.0000      -0.564532       -15.3617
  42   2.0000      -0.558696       -15.2029
  43   2.0000      -0.547814       -14.9068
  44   2.0000      -0.535101       -14.5608
  45   2.0000      -0.527996       -14.3675
  46   2.0000      -0.517482       -14.0814
  47   2.0000      -0.512587       -13.9482
  48   2.0000      -0.505638       -13.7591
  49   2.0000      -0.495827       -13.4921
  50   2.0000      -0.486563       -13.2401
  51   2.0000      -0.484110       -13.1733
  52   2.0000      -0.475764       -12.9462
  53   2.0000      -0.468302       -12.7432
  54   2.0000      -0.460711       -12.5366
  55   2.0000      -0.445159       -12.1134
  56   2.0000      -0.439549       -11.9607
  57   2.0000      -0.436137       -11.8679
  58   2.0000      -0.433509       -11.7964
  59   2.0000      -0.429497       -11.6872
  60   2.0000      -0.420952       -11.4547
  61   2.0000      -0.415817       -11.3149
  62   2.0000      -0.409429       -11.1411
  63   2.0000      -0.347618        -9.4592
  64   2.0000      -0.332011        -9.0345
  65   2.0000      -0.330305        -8.9880
  66   2.0000      -0.294458        -8.0126
  67   0.0000       0.032387         0.8813
  68   0.0000       0.072991         1.9862
  69   0.0000       0.111978         3.0471
  70   0.0000       0.116652         3.1743
  71   0.0000       0.129038         3.5113

MULLIKEN ATOMIC CHARGES
-----------------------
   0 S :    0.092404
   1 C :   -0.122989
   2 C :   -0.086197
   3 C :    0.021884
   4 C :   -0.125734
   5 H :    0.005233
   6 C :    0.086084
   7 H :   -0.006275
   8 H :    0.037254
   9 C :   -0.077035
  10 H :    0.031690
  11 H :    0.011175
  12 C :   -0.022398
  13 H :    0.036135
  14 H :    0.037563
  15 H :    0.022756
  16 S :    0.127940
  17 C :   -0.094215
  18 C :   -0.035814
  19 C :   -0.010193
  20 C :   -0.176846
  21 H :    0.017895
  22 C :   -0.032925
  23 H :    0.046047
  24 H :    0.051808
  25 C :   -0.080208
  26 H :    0.031734
  27 H :    0.048058
  28 C :   -0.053838
  29 H :    0.040830
  30 H :    0.021848
  31 H :    0.048167
  32 H :    0.047931
  33 H :    0.060234
Sum of atomic charges:   -0.0000000

LOEWDIN ATOMIC CHARGES
----------------------
   0 S :    0.375491
   1 C :   -0.189969
   2 C :   -0.067650
   3 C :   -0.062367
   4 C :   -0.172466
   5 H :    0.029072
   6 C :   -0.021631
   7 H :    0.016368
   8 H :    0.036852
   9 C :   -0.035264
  10 H :    0.024904
  11 H :    0.015010
  12 C :   -0.060293
  13 H :    0.026799
  14 H :    0.028079
  15 H :    0.023812
  16 S :    0.441850
  17 C :   -0.203691
  18 C :   -0.074103
  19 C :   -0.057555
  20 C :   -0.213416
  21 H :    0.028935
  22 C :   -0.048262
  23 H :    0.037094
  24 H :    0.040058
  25 C :   -0.052604
  26 H :    0.027102
  27 H :    0.030954
  28 C :   -0.071095
  29 H :    0.027845
  30 H :    0.021101
  31 H :    0.037528
  32 H :    0.028606
  33 H :    0.032906

  Mayer bond orders larger than 0.100000
B(  0-S ,  1-C ) :   1.1203 B(  0-S ,  4-C ) :   1.1418 B(  1-C ,  2-C ) :   1.6583
B(  1-C , 32-H ) :   0.9616 B(  2-C ,  3-C ) :   1.2216 B(  2-C ,  6-C ) :   1.0156
B(  3-C ,  4-C ) :   1.5932 B(  3-C ,  5-H ) :   1.0031 B(  4-C , 20-C ) :   1.0177
B(  6-C ,  7-H ) :   0.9360 B(  6-C ,  8-H ) :   0.9350 B(  6-C ,  9-C ) :   1.0771
B(  9-C , 10-H ) :   0.9534 B(  9-C , 11-H ) :   0.9525 B(  9-C , 12-C ) :   1.0746
B( 12-C , 13-H ) :   0.9749 B( 12-C , 14-H ) :   0.9746 B( 12-C , 15-H ) :   0.9747
B( 16-S , 17-C ) :   1.1692 B( 16-S , 20-C ) :   1.1704 B( 17-C , 18-C ) :   1.5765
B( 17-C , 33-H ) :   0.9715 B( 18-C , 19-C ) :   1.2784 B( 18-C , 21-H ) :   0.9867
B( 19-C , 20-C ) :   1.5544 B( 19-C , 22-C ) :   1.0358 B( 22-C , 23-H ) :   0.9436
B( 22-C , 24-H ) :   0.9388 B( 22-C , 25-C ) :   1.0285 B( 25-C , 26-H ) :   0.9478
B( 25-C , 27-H ) :   0.9626 B( 25-C , 28-C ) :   1.0917 B( 28-C , 29-H ) :   0.9751
B( 28-C , 30-H ) :   0.9680 B( 28-C , 31-H ) :   0.9720

Dispersion correction           -0.014435925
FINAL SINGLE POINT ENERGY     -1339.885162346362

DIPOLE MOMENT
-------------
                                X             Y             Z
Electronic contribution:     28.88572      -8.57240      -1.77461
Nuclear contribution   :    -29.58350       8.83116       1.47456
                        -----------------------------------------
Total Dipole Moment    :     -0.69778       0.25876      -0.30005
                        -----------------------------------------
Magnitude (a.u.)       :      0.80242
Magnitude (Debye)      :      2.03959

Rotational constants in cm-1:     0.016259     0.009662     0.007056
Rotational constants in MHz :   487.439406   289.669801   211.547698

                             ****ORCA TERMINATED NORMALLY****
TOTAL RUN TIME: 0 days 0 hours 0 minutes 21 seconds 870 msec
