                         Program Version 4.2.1 -  RELEASE  -
|  1> ! wB97X-D3 SP def2-SVP
|  2> %pal
|  3> nprocs 24
|  4> end
|  5>
|  6> * xyz 0 1
|  7> S 	 -38.0466 	 19.0075 	 13.8636
|  8> C 	 -38.995 	 17.7805 	 14.7487
|  9> C 	 -38.9885 	 18.0184 	 16.1446
| 10> C 	 -38.5822 	 19.3951 	 16.3917
| 11> C 	 -38.1159 	 20.0527 	 15.2454
| 12> H 	 -38.5516 	 19.9499 	 17.3419
| 13> C 	 -39.5045 	 17.0868 	 17.2299
| 14> H 	 -40.4991 	 16.8728 	 17.23
| 15> H 	 -39.3316 	 17.58 	 18.1608
| 16> C 	 -38.6218 	 15.8196 	 17.4003
| 17> H 	 -37.971 	 15.649 	 16.4955
| 18> H 	 -37.8566 	 16.0353 	 18.1265
| 19> C 	 -39.4887 	 14.6065 	 17.896
| 20> H 	 -40.1142 	 14.1066 	 17.1315
| 21> H 	 -38.8282 	 13.7633 	 18.318
| 22> H 	 -40.0718 	 14.805 	 18.7651
| 23> S 	 -36.0672 	 21.8529 	 15.6549
| 24> C 	 -36.3669 	 23.5503 	 15.4327
| 25> C 	 -37.6673 	 23.6981 	 15.0081
| 26> C 	 -38.4203 	 22.5163 	 14.8323
| 27> C 	 -37.7127 	 21.4159 	 15.1943
| 28> H 	 -37.9923 	 24.7387 	 14.8295
| 29> C 	 -39.8502 	 22.599 	 14.3728
| 30> H 	 -40.4144 	 23.2743 	 14.9931
| 31> H 	 -40.3312 	 21.6299 	 14.4608
| 32> C 	 -40.1495 	 23.1492 	 12.9325
| 33> H 	 -39.8181 	 24.1883 	 12.922
| 34> H 	 -41.2201 	 23.0626 	 12.7809
| 35> C 	 -39.3547 	 22.4291 	 11.833
| 36> H 	 -39.322 	 21.3509 	 11.9577
| 37> H 	 -38.3632 	 22.7825 	 11.6789
| 38> H 	 -39.8872 	 22.5223 	 10.8731
| 39> H 	 -39.4804 	 16.8911 	 14.3567
| 40> H 	 -35.8036 	 24.4196 	 15.8828
| 41> *
| 42>
| 43>                          ****END OF INPUT****

CARTESIAN COORDINATES (ANGSTROEM)
---------------------------------
  S    -38.046600   19.007500   13.863600
  C    -38.995000   17.780500   14.748700
  C    -38.988500   18.018400   16.144600
  C    -38.582200   19.395100   16.391700
  C    -38.115900   20.052700   15.245400
  H    -38.551600   19.949900   17.341900
  C    -39.504500   17.086800   17.229900
  H    -40.499100   16.872800   17.230000
  H    -39.331600   17.580000   18.160800
  C    -38.621800   15.819600   17.400300
  H    -37.971000   15.649000   16.495500
  H    -37.856600   16.035300   18.126500
  C    -39.488700   14.606500   17.896000
  H    -40.114200   14.106600   17.131500
  H    -38.828200   13.763300   18.318000
  H    -40.071800   14.805000   18.765100
  S    -36.067200   21.852900   15.654900
  C    -36.366900   23.550300   15.432700
  C    -37.667300   23.698100   15.008100
  C    -38.420300   22.516300   14.832300
  C    -37.712700   21.415900   15.194300
  H    -37.992300   24.738700   14.829500
  C    -39.850200   22.599000   14.372800
  H    -40.414400   23.274300   14.993100
  H    -40.331200   21.629900   14.460800
  C    -40.149500   23.149200   12.932500
  H    -39.818100   24.188300   12.922000
  H    -41.220100   23.062600   12.780900
  C    -39.354700   22.429100   11.833000
  H    -39.322000   21.350900   11.957700
  H    -38.363200   22.782500   11.678900
  H    -39.887200   22.522300   10.873100
  H    -39.480400   16.891100   14.356700
  H    -35.803600   24.419600   15.882800

 Total Charge           Charge          ....    0
 Multiplicity           Mult            ....    1
 Number of Electrons    NEL             ....  134
 Basis Dimension        Dim             ....  322

ORBITAL ENERGIES
----------------

  NO   OCC          E(Eh)            E(eV)
   0   2.0000     -88.971041     -2421.0251
   1   2.0000     -88.961095     -2420.7545
   2   2.0000     -10.324049      -280.9317
   3   2.0000     -10.320356      -280.8312
   4   2.0000     -10.319917      -280.8192
   5   2.0000     -10.317670      -280.7581
   6   2.0000     -10.310210      -280.5551
   7   2.0000     -10.300764      -280.2980
   8   2.0000     -10.297945      -280.2213
   9   2.0000     -10.292137      -280.0633
  10   2.0000     -10.289944      -280.0036
  11   2.0000     -10.287678      -279.9419
  12   2.0000     -10.285878      -279.8930
  13   2.0000     -10.285216      -279.8750
  14   2.0000     -10.284973      -279.8683
  15   2.0000     -10.266100      -279.3548
  16   2.0000      -8.084868      -220.0005
  17   2.0000      -8.076086      -219.7615
  18   2.0000      -6.043388      -164.4489
  19   2.0000      -6.039547      -164.3444
  20   2.0000      -6.035611      -164.2373
  21   2.0000      -6.034628      -164.2106
  22   2.0000      -6.030478      -164.0976
  23   2.0000      -6.026854      -163.9990
  24   2.0000      -1.007885       -27.4260
  25   2.0000      -0.980683       -26.6857
  26   2.0000      -0.910387       -24.7729
  27   2.0000      -0.903181       -24.5768
  28   2.0000      -0.867739       -23.6124
  29   2.0000      -0.844928       -22.9917
  30   2.0000      -0.843705       -22.9584
  31   2.0000      -0.807170       -21.9642
  32   2.0000      -0.784381       -21.3441
  33   2.0000      -0.774430       -21.0733
  34   2.0000      -0.707489       -19.2518
  35   2.0000      -0.705024       -19.1847
  36   2.0000      -0.691108       -18.8060
  37   2.0000      -0.654635       -17.8135
  38   2.0000      -0.642059       -17.4713
  39   2.0000      -0.612493       -16.6668
  40   2.0000      -0.594458       -16.1760
  41   2.0000      -0.569224       -15.4894
  42   2.0000      -0.553374       -15.0581
  43   2.0000      -0.547448       -14.8968
  44   2.0000      -0.541428       -14.7330
  45   2.0000      -0.522691       -14.2231
  46   2.0000      -0.515730       -14.0337
  47   2.0000      -0.508065       -13.8251
  48   2.0000      -0.504117       -13.7177
  49   2.0000      -0.498997       -13.5784
  50   2.0000      -0.489671       -13.3246
  51   2.0000      -0.477280       -12.9874
  52   2.0000      -0.470534       -12.8039
  53   2.0000      -0.463430       -12.6106
  54   2.0000      -0.458452       -12.4751
  55   2.0000      -0.448904       -12.2153
  56   2.0000      -0.443452       -12.0669
  57   2.0000      -0.439982       -11.9725
  58   2.0000      -0.423572       -11.5260
  59   2.0000      -0.421736       -11.4760
  60   2.0000      -0.419095       -11.4042
  61   2.0000      -0.414531       -11.2800
  62   2.0000      -0.408877       -11.1261
  63   2.0000      -0.334676        -9.1070
  64   2.0000      -0.326726        -8.8907
  65   2.0000      -0.318366        -8.6632
  66   2.0000      -0.309780        -8.4295
  67   0.0000       0.033959         0.9241
  68   0.0000       0.056317         1.5325
  69   0.0000       0.101277         2.7559
  70   0.0000       0.125387         3.4120
  71   0.0000       0.128550         3.4980

MULLIKEN ATOMIC CHARGES
-----------------------
   0 S :    0.138931
   1 C :   -0.124575
   2 C :   -0.106035
   3 C :    0.042034
   4 C :   -0.194921
   5 H :    0.026267
   6 C :    0.127671
   7 H :    0.021420
   8 H :    0.009705
   9 C :   -0.087789
  10 H :    0.044218
  11 H :    0.024876
  12 C :   -0.086656
  13 H :    0.047875
  14 H :    0.033714
  15 H :    0.029717
  16 S :    0.106472
  17 C :   -0.113477
  18 C :   -0.073581
  19 C :    0.039277
  20 C :   -0.210291
  21 H :    0.025935
  22 C :    0.071425
  23 H :    0.023538
  24 H :    0.027140
  25 C :   -0.078768
  26 H :    0.028653
  27 H :    0.037532
  28 C :   -0.044083
  29 H :    0.018995
  30 H :    0.035049
  31 H :    0.024441
  32 H :    0.049828
  33 H :    0.085463
Sum of atomic charges:    0.0000000

LOEWDIN ATOMIC CHARGES
----------------------
   0 S :    0.411685
   1 C :   -0.188797
   2 C :   -0.053198
   3 C :   -0.054313
   4 C :   -0.210709
   5 H :    0.037392
   6 C :   -0.025932
   7 H :    0.018583
   8 H :    0.033198
   9 C :   -0.039874
  10 H :    0.029837
  11 H :    0.022791
  12 C :   -0.076890
  13 H :    0.028190
  14 H :    0.034332
  15 H :    0.020094
  16 S :    0.400361
  17 C :   -0.206223
  18 C :   -0.077360
  19 C :   -0.055726
  20 C :   -0.202137
  21 H :    0.032764
  22 C :   -0.028873
  23 H :    0.030415
  24 H :    0.028667
  25 C :   -0.032923
  26 H :    0.021745
  27 H :    0.026572
  28 C :   -0.071140
  29 H :    0.018284
  30 H :    0.022911
  31 H :    0.028207
  32 H :    0.028642
  33 H :    0.049423

  Mayer bond orders larger than 0.100000
B(  0-S ,  1-C ) :   1.1417 B(  0-S ,  4-C ) :   1.1443 B(  1-C ,  2-C ) :   1.5995
B(  1-C ,  4-C ) :   0.1014 B(  1-C , 32-H ) :   0.9699 B(  2-C ,  3-C ) :   1.2287
B(  2-C ,  6-C ) :   1.0247 B(  3-C ,  4-C ) :   1.5950 B(  3-C ,  5-H ) :   0.9843
B(  4-C , 20-C ) :   1.0395 B(  6-C ,  7-H ) :   0.9532 B(  6-C ,  8-H ) :   0.9339
B(  6-C ,  9-C ) :   1.0279 B(  9-C , 10-H ) :   0.9697 B(  9-C , 11-H ) :   0.9609
B(  9-C , 12-C ) :   1.0637 B( 12-C , 13-H ) :   0.9805 B( 12-C , 14-H ) :   0.9744
B( 12-C , 15-H ) :   0.9744 B( 16-S , 17-C ) :   1.1490 B( 16-S , 20-C ) :   1.1416
B( 17-C , 18-C ) :   1.6297 B( 17-C , 33-H ) :   0.9540 B( 18-C , 19-C ) :   1.2247
B( 18-C , 21-H ) :   0.9841 B( 19-C , 20-C ) :   1.6016 B( 19-C , 22-C ) :   1.0550
B( 22-C , 23-H ) :   0.9363 B( 22-C , 24-H ) :   0.9284 B( 22-C , 25-C ) :   1.0747
B( 25-C , 26-H ) :   0.9567 B( 25-C , 27-H ) :   0.9589 B( 25-C , 28-C ) :   1.0754
B( 28-C , 29-H ) :   0.9746 B( 28-C , 30-H ) :   0.9740 B( 28-C , 31-H ) :   0.9730

Dispersion correction           -0.014690697
FINAL SINGLE POINT ENERGY     -1339.862002884377

DIPOLE MOMENT
-------------
                                X             Y             Z
Electronic contribution:     14.70566       9.13552      -2.38792
Nuclear contribution   :    -15.21810      -9.13949       2.77589
                        -----------------------------------------
Total Dipole Moment    :     -0.51243      -0.00397       0.38797
                        -----------------------------------------
Magnitude (a.u.)       :      0.64275
Magnitude (Debye)      :      1.63374

Rotational constants in cm-1:     0.024331     0.007194     0.006320
Rotational constants in MHz :   729.431332   215.676454   189.478837

                             ****ORCA TERMINATED NORMALLY****
TOTAL RUN TIME: 0 days 0 hours 0 minutes 21 seconds 187 msec
