                         Program Version 4.2.1 -  RELEASE  -
|  1> ! wB97X-D3 SP def2-SVP
|  2> %pal
|  3> nprocs 24
|  4> end
|  5>
|  6> * xyz 0 1
|  7> S 	 -107.305 	 51.5686 	 -94.9383
|  8> C 	 -105.751 	 50.7804 	 -94.6685
|  9> C 	 -104.925 	 50.6745 	 -95.8123
| 10> C 	 -105.508 	 51.4066 	 -96.9272
| 11> C 	 -106.739 	 51.962 	 -96.583
| 12> H 	 -105.08 	 51.607 	 -97.8936
| 13> C 	 -103.531 	 50.0067 	 -95.8702
| 14> H 	 -103.423 	 49.3343 	 -96.6911
| 15> H 	 -103.302 	 49.4603 	 -94.8434
| 16> C 	 -102.341 	 50.9747 	 -95.7982
| 17> H 	 -101.45 	 50.3837 	 -95.9965
| 18> H 	 -102.348 	 51.5353 	 -96.7907
| 19> C 	 -102.369 	 51.8433 	 -94.5361
| 20> H 	 -101.772 	 52.7607 	 -94.5133
| 21> H 	 -103.446 	 52.1168 	 -94.2664
| 22> H 	 -102.065 	 51.358 	 -93.5993
| 23> S 	 -108.087 	 54.4279 	 -97.0883
| 24> C 	 -108.797 	 54.7367 	 -98.6691
| 25> C 	 -108.625 	 53.6196 	 -99.4699
| 26> C 	 -107.873 	 52.5704 	 -98.8922
| 27> C 	 -107.572 	 52.7629 	 -97.565
| 28> H 	 -108.937 	 53.6636 	 -100.473
| 29> C 	 -107.47 	 51.3729 	 -99.7186
| 30> H 	 -106.409 	 51.4117 	 -99.8133
| 31> H 	 -107.836 	 51.2984 	 -100.768
| 32> C 	 -107.887 	 49.9618 	 -99.0769
| 33> H 	 -108.964 	 49.8529 	 -99.0754
| 34> H 	 -107.456 	 49.9473 	 -98.0538
| 35> C 	 -107.306 	 48.7754 	 -99.7922
| 36> H 	 -106.219 	 48.9382 	 -99.8943
| 37> H 	 -107.714 	 48.4852 	 -100.731
| 38> H 	 -107.422 	 47.8244 	 -99.15
| 39> H 	 -105.478 	 50.375 	 -93.7356
| 40> H 	 -109.371 	 55.5555 	 -98.8816
| 41> *
| 42>
| 43>                          ****END OF INPUT****

CARTESIAN COORDINATES (ANGSTROEM)
---------------------------------
  S    -107.305000   51.568600  -94.938300
  C    -105.751000   50.780400  -94.668500
  C    -104.925000   50.674500  -95.812300
  C    -105.508000   51.406600  -96.927200
  C    -106.739000   51.962000  -96.583000
  H    -105.080000   51.607000  -97.893600
  C    -103.531000   50.006700  -95.870200
  H    -103.423000   49.334300  -96.691100
  H    -103.302000   49.460300  -94.843400
  C    -102.341000   50.974700  -95.798200
  H    -101.450000   50.383700  -95.996500
  H    -102.348000   51.535300  -96.790700
  C    -102.369000   51.843300  -94.536100
  H    -101.772000   52.760700  -94.513300
  H    -103.446000   52.116800  -94.266400
  H    -102.065000   51.358000  -93.599300
  S    -108.087000   54.427900  -97.088300
  C    -108.797000   54.736700  -98.669100
  C    -108.625000   53.619600  -99.469900
  C    -107.873000   52.570400  -98.892200
  C    -107.572000   52.762900  -97.565000
  H    -108.937000   53.663600  -100.473000
  C    -107.470000   51.372900  -99.718600
  H    -106.409000   51.411700  -99.813300
  H    -107.836000   51.298400  -100.768000
  C    -107.887000   49.961800  -99.076900
  H    -108.964000   49.852900  -99.075400
  H    -107.456000   49.947300  -98.053800
  C    -107.306000   48.775400  -99.792200
  H    -106.219000   48.938200  -99.894300
  H    -107.714000   48.485200  -100.731000
  H    -107.422000   47.824400  -99.150000
  H    -105.478000   50.375000  -93.735600
  H    -109.371000   55.555500  -98.881600

 Total Charge           Charge          ....    0
 Multiplicity           Mult            ....    1
 Number of Electrons    NEL             ....  134
 Basis Dimension        Dim             ....  322

ORBITAL ENERGIES
----------------

  NO   OCC          E(Eh)            E(eV)
   0   2.0000     -88.976031     -2421.1609
   1   2.0000     -88.962663     -2420.7971
   2   2.0000     -10.340018      -281.3662
   3   2.0000     -10.332184      -281.1530
   4   2.0000     -10.319683      -280.8128
   5   2.0000     -10.314609      -280.6748
   6   2.0000     -10.314489      -280.6715
   7   2.0000     -10.305308      -280.4217
   8   2.0000     -10.303288      -280.3667
   9   2.0000     -10.302920      -280.3567
  10   2.0000     -10.295018      -280.1417
  11   2.0000     -10.293967      -280.1131
  12   2.0000     -10.289459      -279.9904
  13   2.0000     -10.283170      -279.8193
  14   2.0000     -10.283046      -279.8159
  15   2.0000     -10.277339      -279.6606
  16   2.0000      -8.089589      -220.1289
  17   2.0000      -8.076539      -219.7738
  18   2.0000      -6.048033      -164.5754
  19   2.0000      -6.044453      -164.4779
  20   2.0000      -6.040286      -164.3645
  21   2.0000      -6.035099      -164.2234
  22   2.0000      -6.031096      -164.1145
  23   2.0000      -6.027367      -164.0130
  24   2.0000      -0.998320       -27.1657
  25   2.0000      -0.978772       -26.6337
  26   2.0000      -0.909626       -24.7522
  27   2.0000      -0.901819       -24.5397
  28   2.0000      -0.861503       -23.4427
  29   2.0000      -0.850500       -23.1433
  30   2.0000      -0.845973       -23.0201
  31   2.0000      -0.810204       -22.0468
  32   2.0000      -0.781594       -21.2682
  33   2.0000      -0.772345       -21.0166
  34   2.0000      -0.704781       -19.1781
  35   2.0000      -0.697662       -18.9843
  36   2.0000      -0.687241       -18.7008
  37   2.0000      -0.665874       -18.1193
  38   2.0000      -0.644716       -17.5436
  39   2.0000      -0.617330       -16.7984
  40   2.0000      -0.596707       -16.2372
  41   2.0000      -0.571438       -15.5496
  42   2.0000      -0.567825       -15.4513
  43   2.0000      -0.556128       -15.1330
  44   2.0000      -0.533691       -14.5225
  45   2.0000      -0.523577       -14.2473
  46   2.0000      -0.515477       -14.0268
  47   2.0000      -0.507125       -13.7996
  48   2.0000      -0.494568       -13.4579
  49   2.0000      -0.491234       -13.3671
  50   2.0000      -0.487269       -13.2593
  51   2.0000      -0.483129       -13.1466
  52   2.0000      -0.473023       -12.8716
  53   2.0000      -0.461008       -12.5447
  54   2.0000      -0.457334       -12.4447
  55   2.0000      -0.452173       -12.3042
  56   2.0000      -0.449183       -12.2229
  57   2.0000      -0.443013       -12.0550
  58   2.0000      -0.427740       -11.6394
  59   2.0000      -0.425527       -11.5792
  60   2.0000      -0.420810       -11.4508
  61   2.0000      -0.403415       -10.9775
  62   2.0000      -0.400273       -10.8920
  63   2.0000      -0.343932        -9.3589
  64   2.0000      -0.334177        -9.0934
  65   2.0000      -0.329708        -8.9718
  66   2.0000      -0.295690        -8.0461
  67   0.0000       0.025274         0.6877
  68   0.0000       0.064981         1.7682
  69   0.0000       0.101624         2.7653
  70   0.0000       0.115664         3.1474
  71   0.0000       0.129243         3.5169

MULLIKEN ATOMIC CHARGES
-----------------------
   0 S :    0.128564
   1 C :   -0.097534
   2 C :   -0.066202
   3 C :    0.019806
   4 C :   -0.155054
   5 H :    0.018298
   6 C :    0.009603
   7 H :    0.035344
   8 H :    0.036606
   9 C :   -0.054198
  10 H :    0.028765
  11 H :    0.024142
  12 C :   -0.076819
  13 H :    0.042329
  14 H :    0.051188
  15 H :    0.025033
  16 S :    0.083440
  17 C :   -0.060520
  18 C :   -0.020104
  19 C :    0.001861
  20 C :   -0.155787
  21 H :    0.001554
  22 C :    0.045403
  23 H :    0.014890
  24 H :    0.026497
  25 C :   -0.085926
  26 H :    0.035529
  27 H :    0.057207
  28 C :   -0.062959
  29 H :    0.021670
  30 H :    0.025772
  31 H :    0.040084
  32 H :    0.030775
  33 H :    0.030743
Sum of atomic charges:   -0.0000000

LOEWDIN ATOMIC CHARGES
----------------------
   0 S :    0.396897
   1 C :   -0.185033
   2 C :   -0.054664
   3 C :   -0.055081
   4 C :   -0.180329
   5 H :    0.031694
   6 C :   -0.034452
   7 H :    0.026888
   8 H :    0.041464
   9 C :   -0.050435
  10 H :    0.024292
  11 H :    0.024531
  12 C :   -0.082657
  13 H :    0.029744
  14 H :    0.039346
  15 H :    0.025900
  16 S :    0.376867
  17 C :   -0.160511
  18 C :   -0.064878
  19 C :   -0.057963
  20 C :   -0.183602
  21 H :    0.024313
  22 C :   -0.031689
  23 H :    0.021934
  24 H :    0.033214
  25 C :   -0.039916
  26 H :    0.023254
  27 H :    0.031516
  28 C :   -0.072841
  29 H :    0.023092
  30 H :    0.014919
  31 H :    0.037084
  32 H :    0.014835
  33 H :    0.012267

  Mayer bond orders larger than 0.100000
B(  0-S ,  1-C ) :   1.1337 B(  0-S ,  4-C ) :   1.1466 B(  1-C ,  2-C ) :   1.6200
B(  1-C , 32-H ) :   0.9685 B(  2-C ,  3-C ) :   1.2026 B(  2-C ,  6-C ) :   1.0246
B(  3-C ,  4-C ) :   1.5932 B(  3-C ,  5-H ) :   0.9942 B(  4-C , 20-C ) :   1.0137
B(  6-C ,  7-H ) :   0.9447 B(  6-C ,  8-H ) :   0.9503 B(  6-C ,  9-C ) :   1.0659
B(  9-C , 10-H ) :   0.9573 B(  9-C , 11-H ) :   0.9541 B(  9-C , 12-C ) :   1.0495
B( 12-C , 13-H ) :   0.9755 B( 12-C , 14-H ) :   0.9734 B( 12-C , 15-H ) :   0.9719
B( 16-S , 17-C ) :   1.1593 B( 16-S , 20-C ) :   1.1296 B( 17-C , 18-C ) :   1.5923
B( 17-C , 20-C ) :   0.1026 B( 17-C , 33-H ) :   0.9792 B( 18-C , 19-C ) :   1.2530
B( 18-C , 21-H ) :   0.9988 B( 19-C , 20-C ) :   1.5984 B( 19-C , 22-C ) :   1.0350
B( 22-C , 23-H ) :   0.9288 B( 22-C , 24-H ) :   0.9442 B( 22-C , 25-C ) :   1.0567
B( 25-C , 26-H ) :   0.9581 B( 25-C , 27-H ) :   0.9509 B( 25-C , 28-C ) :   1.0905
B( 28-C , 29-H ) :   0.9719 B( 28-C , 30-H ) :   0.9756 B( 28-C , 31-H ) :   0.9717

Dispersion correction           -0.015131982
FINAL SINGLE POINT ENERGY     -1339.864446506409

DIPOLE MOMENT
-------------
                                X             Y             Z
Electronic contribution:    -17.29395      16.25193       7.56862
Nuclear contribution   :     17.68313     -16.55909      -7.94889
                        -----------------------------------------
Total Dipole Moment    :      0.38918      -0.30717      -0.38027
                        -----------------------------------------
Magnitude (a.u.)       :      0.62484
Magnitude (Debye)      :      1.58822

Rotational constants in cm-1:     0.017977     0.009122     0.007433
Rotational constants in MHz :   538.949975   273.479426   222.840282

                             ****ORCA TERMINATED NORMALLY****
TOTAL RUN TIME: 0 days 0 hours 0 minutes 22 seconds 125 msec
