                         Program Version 4.2.1 -  RELEASE  -
|  1> ! wB97X-D3 SP def2-SVP
|  2> %pal
|  3> nprocs 24
|  4> end
|  5>
|  6> * xyz 0 1
|  7> S 	 -32.8844 	 -36.7308 	 -91.9851
|  8> C 	 -31.8009 	 -36.8939 	 -90.6428
|  9> C 	 -32.4837 	 -37.1681 	 -89.4596
| 10> C 	 -33.8967 	 -37.2141 	 -89.6473
| 11> C 	 -34.3188 	 -36.9584 	 -90.9019
| 12> H 	 -34.6006 	 -37.4528 	 -88.9101
| 13> C 	 -31.8061 	 -37.4282 	 -88.0947
| 14> H 	 -32.5721 	 -37.3124 	 -87.3189
| 15> H 	 -31.0383 	 -36.6135 	 -88.0453
| 16> C 	 -30.9742 	 -38.7053 	 -87.9697
| 17> H 	 -30.546 	 -38.7375 	 -88.8886
| 18> H 	 -30.1314 	 -38.5134 	 -87.2436
| 19> C 	 -31.787 	 -39.9904 	 -87.8443
| 20> H 	 -32.6306 	 -39.9871 	 -87.0743
| 21> H 	 -32.3316 	 -40.0998 	 -88.8181
| 22> H 	 -31.0039 	 -40.776 	 -87.822
| 23> S 	 -36.476 	 -38.6247 	 -90.7871
| 24> C 	 -37.7984 	 -38.3826 	 -91.8852
| 25> C 	 -37.4661 	 -37.5744 	 -92.9307
| 26> C 	 -36.0903 	 -37.017 	 -92.757
| 27> C 	 -35.5384 	 -37.35 	 -91.5517
| 28> H 	 -38.175 	 -37.1419 	 -93.6695
| 29> C 	 -35.562 	 -35.9498 	 -93.7278
| 30> H 	 -34.8226 	 -35.3113 	 -93.2815
| 31> H 	 -36.4153 	 -35.4698 	 -94.1004
| 32> C 	 -35.0995 	 -36.5592 	 -95.1024
| 33> H 	 -35.8785 	 -37.2725 	 -95.4196
| 34> H 	 -34.1451 	 -37.0572 	 -94.957
| 35> C 	 -35.0556 	 -35.5846 	 -96.1879
| 36> H 	 -34.8459 	 -36.1152 	 -97.0965
| 37> H 	 -34.2766 	 -34.7792 	 -96.0305
| 38> H 	 -36.0749 	 -35.1705 	 -96.3144
| 39> H 	 -30.6968 	 -36.9682 	 -90.6816
| 40> H 	 -38.7657 	 -38.8022 	 -91.7782
| 41> *
| 42>
| 43>                          ****END OF INPUT****

CARTESIAN COORDINATES (ANGSTROEM)
---------------------------------
  S    -32.884400  -36.730800  -91.985100
  C    -31.800900  -36.893900  -90.642800
  C    -32.483700  -37.168100  -89.459600
  C    -33.896700  -37.214100  -89.647300
  C    -34.318800  -36.958400  -90.901900
  H    -34.600600  -37.452800  -88.910100
  C    -31.806100  -37.428200  -88.094700
  H    -32.572100  -37.312400  -87.318900
  H    -31.038300  -36.613500  -88.045300
  C    -30.974200  -38.705300  -87.969700
  H    -30.546000  -38.737500  -88.888600
  H    -30.131400  -38.513400  -87.243600
  C    -31.787000  -39.990400  -87.844300
  H    -32.630600  -39.987100  -87.074300
  H    -32.331600  -40.099800  -88.818100
  H    -31.003900  -40.776000  -87.822000
  S    -36.476000  -38.624700  -90.787100
  C    -37.798400  -38.382600  -91.885200
  C    -37.466100  -37.574400  -92.930700
  C    -36.090300  -37.017000  -92.757000
  C    -35.538400  -37.350000  -91.551700
  H    -38.175000  -37.141900  -93.669500
  C    -35.562000  -35.949800  -93.727800
  H    -34.822600  -35.311300  -93.281500
  H    -36.415300  -35.469800  -94.100400
  C    -35.099500  -36.559200  -95.102400
  H    -35.878500  -37.272500  -95.419600
  H    -34.145100  -37.057200  -94.957000
  C    -35.055600  -35.584600  -96.187900
  H    -34.845900  -36.115200  -97.096500
  H    -34.276600  -34.779200  -96.030500
  H    -36.074900  -35.170500  -96.314400
  H    -30.696800  -36.968200  -90.681600
  H    -38.765700  -38.802200  -91.778200

 Total Charge           Charge          ....    0
 Multiplicity           Mult            ....    1
 Number of Electrons    NEL             ....  134
 Basis Dimension        Dim             ....  322

ORBITAL ENERGIES
----------------

  NO   OCC          E(Eh)            E(eV)
   0   2.0000     -88.967825     -2420.9376
   1   2.0000     -88.961787     -2420.7733
   2   2.0000     -10.330229      -281.0998
   3   2.0000     -10.324086      -280.9326
   4   2.0000     -10.319558      -280.8095
   5   2.0000     -10.314014      -280.6586
   6   2.0000     -10.304558      -280.4013
   7   2.0000     -10.304500      -280.3997
   8   2.0000     -10.300618      -280.2941
   9   2.0000     -10.295950      -280.1670
  10   2.0000     -10.292167      -280.0641
  11   2.0000     -10.287716      -279.9430
  12   2.0000     -10.285667      -279.8872
  13   2.0000     -10.282515      -279.8014
  14   2.0000     -10.279429      -279.7175
  15   2.0000     -10.275580      -279.6127
  16   2.0000      -8.081627      -219.9122
  17   2.0000      -8.077008      -219.7866
  18   2.0000      -6.040268      -164.3641
  19   2.0000      -6.036297      -164.2560
  20   2.0000      -6.035768      -164.2416
  21   2.0000      -6.032269      -164.1464
  22   2.0000      -6.031545      -164.1267
  23   2.0000      -6.027378      -164.0133
  24   2.0000      -1.009059       -27.4579
  25   2.0000      -0.983344       -26.7582
  26   2.0000      -0.914608       -24.8878
  27   2.0000      -0.913218       -24.8499
  28   2.0000      -0.874959       -23.8088
  29   2.0000      -0.856815       -23.3151
  30   2.0000      -0.845029       -22.9944
  31   2.0000      -0.816611       -22.2211
  32   2.0000      -0.782376       -21.2895
  33   2.0000      -0.769350       -20.9351
  34   2.0000      -0.704029       -19.1576
  35   2.0000      -0.699921       -19.0458
  36   2.0000      -0.684896       -18.6370
  37   2.0000      -0.667540       -18.1647
  38   2.0000      -0.639764       -17.4089
  39   2.0000      -0.613077       -16.6827
  40   2.0000      -0.596385       -16.2285
  41   2.0000      -0.579469       -15.7682
  42   2.0000      -0.572196       -15.5702
  43   2.0000      -0.549299       -14.9472
  44   2.0000      -0.539725       -14.6867
  45   2.0000      -0.526605       -14.3297
  46   2.0000      -0.520712       -14.1693
  47   2.0000      -0.518258       -14.1025
  48   2.0000      -0.513192       -13.9647
  49   2.0000      -0.494433       -13.4542
  50   2.0000      -0.489751       -13.3268
  51   2.0000      -0.482572       -13.1314
  52   2.0000      -0.471474       -12.8295
  53   2.0000      -0.461532       -12.5589
  54   2.0000      -0.458166       -12.4673
  55   2.0000      -0.455511       -12.3951
  56   2.0000      -0.437070       -11.8933
  57   2.0000      -0.433616       -11.7993
  58   2.0000      -0.428348       -11.6560
  59   2.0000      -0.424650       -11.5553
  60   2.0000      -0.418730       -11.3942
  61   2.0000      -0.414968       -11.2919
  62   2.0000      -0.410043       -11.1578
  63   2.0000      -0.361141        -9.8271
  64   2.0000      -0.334416        -9.0999
  65   2.0000      -0.324948        -8.8423
  66   2.0000      -0.285333        -7.7643
  67   0.0000       0.020209         0.5499
  68   0.0000       0.079479         2.1627
  69   0.0000       0.098529         2.6811
  70   0.0000       0.108552         2.9539
  71   0.0000       0.128684         3.5017

MULLIKEN ATOMIC CHARGES
-----------------------
   0 S :    0.076711
   1 C :   -0.107303
   2 C :   -0.120316
   3 C :   -0.004936
   4 C :   -0.088975
   5 H :   -0.000665
   6 C :    0.040150
   7 H :    0.026450
   8 H :    0.036141
   9 C :   -0.028960
  10 H :   -0.012488
  11 H :    0.040341
  12 C :   -0.074151
  13 H :    0.048753
  14 H :    0.041095
  15 H :    0.046872
  16 S :    0.087368
  17 C :   -0.072910
  18 C :   -0.027876
  19 C :   -0.072705
  20 C :   -0.112898
  21 H :    0.041325
  22 C :    0.088752
  23 H :    0.031144
  24 H :   -0.009774
  25 C :   -0.097607
  26 H :    0.026467
  27 H :    0.029222
  28 C :   -0.034399
  29 H :    0.030233
  30 H :    0.041565
  31 H :    0.025048
  32 H :    0.062768
  33 H :    0.045561
Sum of atomic charges:   -0.0000000

LOEWDIN ATOMIC CHARGES
----------------------
   0 S :    0.398570
   1 C :   -0.204322
   2 C :   -0.065691
   3 C :   -0.060542
   4 C :   -0.165148
   5 H :    0.022867
   6 C :   -0.030733
   7 H :    0.025745
   8 H :    0.039746
   9 C :   -0.044712
  10 H :    0.010408
  11 H :    0.029938
  12 C :   -0.073627
  13 H :    0.031648
  14 H :    0.033827
  15 H :    0.033423
  16 S :    0.393839
  17 C :   -0.179837
  18 C :   -0.071845
  19 C :   -0.054184
  20 C :   -0.195352
  21 H :    0.038384
  22 C :   -0.029177
  23 H :    0.017829
  24 H :    0.021671
  25 C :   -0.041213
  26 H :    0.026952
  27 H :    0.017015
  28 C :   -0.067045
  29 H :    0.025909
  30 H :    0.030220
  31 H :    0.025118
  32 H :    0.035859
  33 H :    0.024462

  Mayer bond orders larger than 0.100000
B(  0-S ,  1-C ) :   1.1469 B(  0-S ,  4-C ) :   1.1202 B(  1-C ,  2-C ) :   1.6161
B(  1-C , 32-H ) :   0.9563 B(  2-C ,  3-C ) :   1.2328 B(  2-C ,  6-C ) :   1.0130
B(  3-C ,  4-C ) :   1.5750 B(  3-C ,  5-H ) :   1.0055 B(  4-C , 20-C ) :   1.0945
B(  6-C ,  7-H ) :   0.9498 B(  6-C ,  8-H ) :   0.9379 B(  6-C ,  9-C ) :   1.0691
B(  9-C , 10-H ) :   0.9459 B(  9-C , 11-H ) :   0.9563 B(  9-C , 12-C ) :   1.0669
B( 12-C , 13-H ) :   0.9781 B( 12-C , 14-H ) :   0.9723 B( 12-C , 15-H ) :   0.9723
B( 16-S , 17-C ) :   1.1328 B( 16-S , 20-C ) :   1.0967 B( 17-C , 18-C ) :   1.6634
B( 17-C , 33-H ) :   0.9700 B( 18-C , 19-C ) :   1.1886 B( 18-C , 21-H ) :   0.9758
B( 19-C , 20-C ) :   1.6278 B( 19-C , 22-C ) :   1.0618 B( 22-C , 23-H ) :   0.9389
B( 22-C , 24-H ) :   0.9249 B( 22-C , 25-C ) :   1.0470 B( 25-C , 26-H ) :   0.9580
B( 25-C , 27-H ) :   0.9495 B( 25-C , 28-C ) :   1.1015 B( 28-C , 29-H ) :   0.9693
B( 28-C , 30-H ) :   0.9699 B( 28-C , 31-H ) :   0.9687

Dispersion correction           -0.014072851
FINAL SINGLE POINT ENERGY     -1339.858824760970

DIPOLE MOMENT
-------------
                                X             Y             Z
Electronic contribution:     -8.49411      -0.22967       2.71656
Nuclear contribution   :      8.59314       0.21662      -2.74332
                        -----------------------------------------
Total Dipole Moment    :      0.09903      -0.01305      -0.02676
                        -----------------------------------------
Magnitude (a.u.)       :      0.10341
Magnitude (Debye)      :      0.26285

Rotational constants in cm-1:     0.022459     0.008193     0.006382
Rotational constants in MHz :   673.297349   245.609873   191.331730

                             ****ORCA TERMINATED NORMALLY****
TOTAL RUN TIME: 0 days 0 hours 0 minutes 20 seconds 376 msec
