                         Program Version 4.2.1 -  RELEASE  -
|  1> ! wB97X-D3 SP def2-SVP
|  2> %pal
|  3> nprocs 24
|  4> end
|  5>
|  6> * xyz 0 1
|  7> S 	 20.5645 	 -24.61 	 -121.049
|  8> C 	 22.1337 	 -25.3698 	 -121.23
|  9> C 	 22.9806 	 -24.9811 	 -120.196
| 10> C 	 22.2997 	 -24.0726 	 -119.314
| 11> C 	 21.0949 	 -23.6504 	 -119.733
| 12> H 	 22.7733 	 -23.5414 	 -118.492
| 13> C 	 24.3502 	 -25.4961 	 -119.889
| 14> H 	 24.8631 	 -24.5564 	 -119.639
| 15> H 	 24.779 	 -25.8807 	 -120.796
| 16> C 	 24.5631 	 -26.4336 	 -118.737
| 17> H 	 24.1965 	 -26.025 	 -117.812
| 18> H 	 23.9908 	 -27.3332 	 -118.961
| 19> C 	 26.0379 	 -26.7927 	 -118.507
| 20> H 	 26.5833 	 -25.7867 	 -118.473
| 21> H 	 26.1185 	 -27.3155 	 -117.626
| 22> H 	 26.5071 	 -27.4188 	 -119.332
| 23> S 	 18.8514 	 -23.1374 	 -118.25
| 24> C 	 18.2225 	 -21.509 	 -118.071
| 25> C 	 18.9716 	 -20.6394 	 -118.808
| 26> C 	 20.0851 	 -21.2292 	 -119.459
| 27> C 	 20.1926 	 -22.6048 	 -119.244
| 28> H 	 18.6743 	 -19.5454 	 -118.817
| 29> C 	 20.9835 	 -20.4059 	 -120.339
| 30> H 	 22.0007 	 -20.4256 	 -119.943
| 31> H 	 20.6535 	 -19.3983 	 -120.258
| 32> C 	 20.9612 	 -20.8091 	 -121.842
| 33> H 	 19.9646 	 -20.6918 	 -122.245
| 34> H 	 21.2332 	 -21.8627 	 -121.929
| 35> C 	 22.2113 	 -20.103 	 -122.508
| 36> H 	 22.4891 	 -20.5341 	 -123.492
| 37> H 	 23.1607 	 -20.1948 	 -121.916
| 38> H 	 21.968 	 -19.0645 	 -122.849
| 39> H 	 22.3875 	 -26.0566 	 -121.973
| 40> H 	 17.3508 	 -21.1549 	 -117.61
| 41> *
| 42>
| 43>                          ****END OF INPUT****

CARTESIAN COORDINATES (ANGSTROEM)
---------------------------------
  S     20.564500  -24.610000  -121.049000
  C     22.133700  -25.369800  -121.230000
  C     22.980600  -24.981100  -120.196000
  C     22.299700  -24.072600  -119.314000
  C     21.094900  -23.650400  -119.733000
  H     22.773300  -23.541400  -118.492000
  C     24.350200  -25.496100  -119.889000
  H     24.863100  -24.556400  -119.639000
  H     24.779000  -25.880700  -120.796000
  C     24.563100  -26.433600  -118.737000
  H     24.196500  -26.025000  -117.812000
  H     23.990800  -27.333200  -118.961000
  C     26.037900  -26.792700  -118.507000
  H     26.583300  -25.786700  -118.473000
  H     26.118500  -27.315500  -117.626000
  H     26.507100  -27.418800  -119.332000
  S     18.851400  -23.137400  -118.250000
  C     18.222500  -21.509000  -118.071000
  C     18.971600  -20.639400  -118.808000
  C     20.085100  -21.229200  -119.459000
  C     20.192600  -22.604800  -119.244000
  H     18.674300  -19.545400  -118.817000
  C     20.983500  -20.405900  -120.339000
  H     22.000700  -20.425600  -119.943000
  H     20.653500  -19.398300  -120.258000
  C     20.961200  -20.809100  -121.842000
  H     19.964600  -20.691800  -122.245000
  H     21.233200  -21.862700  -121.929000
  C     22.211300  -20.103000  -122.508000
  H     22.489100  -20.534100  -123.492000
  H     23.160700  -20.194800  -121.916000
  H     21.968000  -19.064500  -122.849000
  H     22.387500  -26.056600  -121.973000
  H     17.350800  -21.154900  -117.610000

 Total Charge           Charge          ....    0
 Multiplicity           Mult            ....    1
 Number of Electrons    NEL             ....  134
 Basis Dimension        Dim             ....  322

ORBITAL ENERGIES
----------------

  NO   OCC          E(Eh)            E(eV)
   0   2.0000     -88.964730     -2420.8534
   1   2.0000     -88.963025     -2420.8070
   2   2.0000     -10.326186      -280.9898
   3   2.0000     -10.324447      -280.9425
   4   2.0000     -10.312287      -280.6116
   5   2.0000     -10.311488      -280.5899
   6   2.0000     -10.301998      -280.3316
   7   2.0000     -10.300990      -280.3042
   8   2.0000     -10.293118      -280.0900
   9   2.0000     -10.290662      -280.0231
  10   2.0000     -10.288830      -279.9733
  11   2.0000     -10.285310      -279.8775
  12   2.0000     -10.284948      -279.8677
  13   2.0000     -10.284192      -279.8471
  14   2.0000     -10.283777      -279.8358
  15   2.0000     -10.283575      -279.8303
  16   2.0000      -8.079199      -219.8462
  17   2.0000      -8.078311      -219.8220
  18   2.0000      -6.037736      -164.2951
  19   2.0000      -6.036795      -164.2695
  20   2.0000      -6.033609      -164.1829
  21   2.0000      -6.032669      -164.1573
  22   2.0000      -6.030069      -164.0865
  23   2.0000      -6.029096      -164.0600
  24   2.0000      -1.011515       -27.5247
  25   2.0000      -0.987491       -26.8710
  26   2.0000      -0.919808       -25.0293
  27   2.0000      -0.902201       -24.5501
  28   2.0000      -0.872660       -23.7463
  29   2.0000      -0.849147       -23.1065
  30   2.0000      -0.841382       -22.8952
  31   2.0000      -0.819845       -22.3091
  32   2.0000      -0.782352       -21.2889
  33   2.0000      -0.766395       -20.8547
  34   2.0000      -0.710568       -19.3355
  35   2.0000      -0.700126       -19.0514
  36   2.0000      -0.693614       -18.8742
  37   2.0000      -0.658747       -17.9254
  38   2.0000      -0.649240       -17.6667
  39   2.0000      -0.623425       -16.9643
  40   2.0000      -0.592565       -16.1245
  41   2.0000      -0.573696       -15.6111
  42   2.0000      -0.567459       -15.4414
  43   2.0000      -0.560624       -15.2553
  44   2.0000      -0.532569       -14.4920
  45   2.0000      -0.518474       -14.1084
  46   2.0000      -0.513591       -13.9755
  47   2.0000      -0.509409       -13.8617
  48   2.0000      -0.503014       -13.6877
  49   2.0000      -0.500029       -13.6065
  50   2.0000      -0.497021       -13.5246
  51   2.0000      -0.475944       -12.9511
  52   2.0000      -0.470325       -12.7982
  53   2.0000      -0.465572       -12.6689
  54   2.0000      -0.458335       -12.4719
  55   2.0000      -0.453653       -12.3445
  56   2.0000      -0.445082       -12.1113
  57   2.0000      -0.437042       -11.8925
  58   2.0000      -0.431574       -11.7437
  59   2.0000      -0.426781       -11.6133
  60   2.0000      -0.416368       -11.3300
  61   2.0000      -0.414631       -11.2827
  62   2.0000      -0.406629       -11.0649
  63   2.0000      -0.336858        -9.1664
  64   2.0000      -0.329063        -8.9543
  65   2.0000      -0.323055        -8.7908
  66   2.0000      -0.309854        -8.4316
  67   0.0000       0.047061         1.2806
  68   0.0000       0.052754         1.4355
  69   0.0000       0.122336         3.3289
  70   0.0000       0.124195         3.3795
  71   0.0000       0.127571         3.4714

MULLIKEN ATOMIC CHARGES
-----------------------
   0 S :    0.113834
   1 C :   -0.096635
   2 C :   -0.099420
   3 C :    0.054763
   4 C :   -0.181134
   5 H :    0.009403
   6 C :    0.074756
   7 H :    0.017848
   8 H :    0.011632
   9 C :   -0.049136
  10 H :    0.022727
  11 H :    0.025537
  12 C :   -0.047811
  13 H :    0.034286
  14 H :    0.026070
  15 H :    0.041474
  16 S :    0.111999
  17 C :   -0.055808
  18 C :   -0.083448
  19 C :   -0.013827
  20 C :   -0.177456
  21 H :    0.041012
  22 C :    0.104525
  23 H :    0.025635
  24 H :    0.000844
  25 C :   -0.069175
  26 H :    0.037506
  27 H :    0.042160
  28 C :   -0.085692
  29 H :    0.025998
  30 H :    0.046934
  31 H :    0.036221
  32 H :    0.022454
  33 H :    0.031923
Sum of atomic charges:    0.0000000

LOEWDIN ATOMIC CHARGES
----------------------
   0 S :    0.423619
   1 C :   -0.185854
   2 C :   -0.060576
   3 C :   -0.062275
   4 C :   -0.209337
   5 H :    0.032203
   6 C :   -0.035155
   7 H :    0.032520
   8 H :    0.027158
   9 C :   -0.037454
  10 H :    0.022893
  11 H :    0.024022
  12 C :   -0.060806
  13 H :    0.032706
  14 H :    0.014279
  15 H :    0.031201
  16 S :    0.410372
  17 C :   -0.179943
  18 C :   -0.082967
  19 C :   -0.055688
  20 C :   -0.207119
  21 H :    0.043045
  22 C :   -0.028988
  23 H :    0.031919
  24 H :    0.022413
  25 C :   -0.034127
  26 H :    0.026071
  27 H :    0.021603
  28 C :   -0.077820
  29 H :    0.024296
  30 H :    0.032789
  31 H :    0.026046
  32 H :    0.015762
  33 H :    0.023190

  Mayer bond orders larger than 0.100000
B(  0-S ,  1-C ) :   1.1367 B(  0-S ,  4-C ) :   1.1575 B(  1-C ,  2-C ) :   1.6089
B(  1-C , 32-H ) :   0.9797 B(  2-C ,  3-C ) :   1.2170 B(  2-C ,  6-C ) :   1.0322
B(  3-C ,  4-C ) :   1.6337 B(  3-C ,  5-H ) :   0.9911 B(  4-C , 20-C ) :   0.9783
B(  6-C ,  7-H ) :   0.9243 B(  6-C ,  8-H ) :   0.9388 B(  6-C ,  9-C ) :   1.0795
B(  9-C , 10-H ) :   0.9500 B(  9-C , 11-H ) :   0.9502 B(  9-C , 12-C ) :   1.0842
B( 12-C , 13-H ) :   0.9730 B( 12-C , 14-H ) :   0.9745 B( 12-C , 15-H ) :   0.9750
B( 16-S , 17-C ) :   1.1542 B( 16-S , 20-C ) :   1.1550 B( 17-C , 18-C ) :   1.6214
B( 17-C , 20-C ) :   0.1040 B( 17-C , 33-H ) :   0.9679 B( 18-C , 19-C ) :   1.2634
B( 18-C , 21-H ) :   0.9749 B( 19-C , 20-C ) :   1.5833 B( 19-C , 22-C ) :   1.0451
B( 22-C , 23-H ) :   0.9315 B( 22-C , 24-H ) :   0.9278 B( 22-C , 25-C ) :   1.0592
B( 25-C , 26-H ) :   0.9598 B( 25-C , 27-H ) :   0.9593 B( 25-C , 28-C ) :   1.0606
B( 28-C , 29-H ) :   0.9760 B( 28-C , 30-H ) :   0.9745 B( 28-C , 31-H ) :   0.9771

Dispersion correction           -0.014222637
FINAL SINGLE POINT ENERGY     -1339.875964297657

DIPOLE MOMENT
-------------
                                X             Y             Z
Electronic contribution:    -23.82724      -2.90888       5.09521
Nuclear contribution   :     24.27989       3.08258      -5.12708
                        -----------------------------------------
Total Dipole Moment    :      0.45265       0.17369      -0.03187
                        -----------------------------------------
Magnitude (a.u.)       :      0.48588
Magnitude (Debye)      :      1.23501

Rotational constants in cm-1:     0.019428     0.008026     0.006842
Rotational constants in MHz :   582.450727   240.609568   205.112722

                             ****ORCA TERMINATED NORMALLY****
TOTAL RUN TIME: 0 days 0 hours 0 minutes 21 seconds 619 msec
