                         Program Version 4.2.1 -  RELEASE  -
|  1> ! wB97X-D3 SP def2-SVP
|  2> %pal
|  3> nprocs 24
|  4> end
|  5>
|  6> * xyz 0 1
|  7> S 	 -147.552 	 4.02439 	 3.82684
|  8> C 	 -147.637 	 3.6187 	 5.514
|  9> C 	 -147.546 	 4.69419 	 6.36848
| 10> C 	 -147.248 	 5.93301 	 5.64809
| 11> C 	 -147.104 	 5.72795 	 4.32726
| 12> H 	 -147.204 	 6.96775 	 6.04703
| 13> C 	 -147.729 	 4.52518 	 7.85002
| 14> H 	 -147.547 	 5.45957 	 8.26153
| 15> H 	 -146.964 	 3.85552 	 8.30833
| 16> C 	 -149.047 	 3.95218 	 8.38049
| 17> H 	 -149.225 	 2.97674 	 7.878
| 18> H 	 -148.802 	 3.91194 	 9.43862
| 19> C 	 -150.283 	 4.79708 	 8.37346
| 20> H 	 -150.228 	 5.73339 	 8.97584
| 21> H 	 -150.587 	 4.92653 	 7.35875
| 22> H 	 -151.079 	 4.22286 	 8.80914
| 23> S 	 -147.947 	 6.77839 	 1.93433
| 24> C 	 -147.379 	 8.34731 	 1.377
| 25> C 	 -146.215 	 8.68445 	 2.06562
| 26> C 	 -145.929 	 7.90745 	 3.2546
| 27> C 	 -146.838 	 6.79772 	 3.32904
| 28> H 	 -145.646 	 9.54288 	 1.85737
| 29> C 	 -144.747 	 8.21147 	 4.15388
| 30> H 	 -145.18 	 8.40172 	 5.20068
| 31> H 	 -144.279 	 9.16922 	 3.84064
| 32> C 	 -143.679 	 7.1793 	 4.22348
| 33> H 	 -143.2 	 6.99863 	 3.28085
| 34> H 	 -144.168 	 6.24367 	 4.43136
| 35> C 	 -142.586 	 7.40808 	 5.31405
| 36> H 	 -142.294 	 8.49174 	 5.40445
| 37> H 	 -141.778 	 6.75862 	 4.90774
| 38> H 	 -142.837 	 7.0105 	 6.27954
| 39> H 	 -147.786 	 2.60263 	 5.89977
| 40> H 	 -147.661 	 8.69896 	 0.36749
| 41> *
| 42>
| 43>                          ****END OF INPUT****

CARTESIAN COORDINATES (ANGSTROEM)
---------------------------------
  S    -147.552000    4.024390    3.826840
  C    -147.637000    3.618700    5.514000
  C    -147.546000    4.694190    6.368480
  C    -147.248000    5.933010    5.648090
  C    -147.104000    5.727950    4.327260
  H    -147.204000    6.967750    6.047030
  C    -147.729000    4.525180    7.850020
  H    -147.547000    5.459570    8.261530
  H    -146.964000    3.855520    8.308330
  C    -149.047000    3.952180    8.380490
  H    -149.225000    2.976740    7.878000
  H    -148.802000    3.911940    9.438620
  C    -150.283000    4.797080    8.373460
  H    -150.228000    5.733390    8.975840
  H    -150.587000    4.926530    7.358750
  H    -151.079000    4.222860    8.809140
  S    -147.947000    6.778390    1.934330
  C    -147.379000    8.347310    1.377000
  C    -146.215000    8.684450    2.065620
  C    -145.929000    7.907450    3.254600
  C    -146.838000    6.797720    3.329040
  H    -145.646000    9.542880    1.857370
  C    -144.747000    8.211470    4.153880
  H    -145.180000    8.401720    5.200680
  H    -144.279000    9.169220    3.840640
  C    -143.679000    7.179300    4.223480
  H    -143.200000    6.998630    3.280850
  H    -144.168000    6.243670    4.431360
  C    -142.586000    7.408080    5.314050
  H    -142.294000    8.491740    5.404450
  H    -141.778000    6.758620    4.907740
  H    -142.837000    7.010500    6.279540
  H    -147.786000    2.602630    5.899770
  H    -147.661000    8.698960    0.367490

 Total Charge           Charge          ....    0
 Multiplicity           Mult            ....    1
 Number of Electrons    NEL             ....  134
 Basis Dimension        Dim             ....  322

ORBITAL ENERGIES
----------------

  NO   OCC          E(Eh)            E(eV)
   0   2.0000     -88.968167     -2420.9469
   1   2.0000     -88.964147     -2420.8375
   2   2.0000     -10.336551      -281.2719
   3   2.0000     -10.334544      -281.2172
   4   2.0000     -10.321084      -280.8510
   5   2.0000     -10.313683      -280.6496
   6   2.0000     -10.311890      -280.6008
   7   2.0000     -10.301732      -280.3244
   8   2.0000     -10.300225      -280.2834
   9   2.0000     -10.298778      -280.2440
  10   2.0000     -10.295825      -280.1637
  11   2.0000     -10.286545      -279.9111
  12   2.0000     -10.285925      -279.8942
  13   2.0000     -10.282481      -279.8005
  14   2.0000     -10.277682      -279.6699
  15   2.0000     -10.271264      -279.4953
  16   2.0000      -8.081994      -219.9222
  17   2.0000      -8.078364      -219.8235
  18   2.0000      -6.040677      -164.3752
  19   2.0000      -6.036939      -164.2735
  20   2.0000      -6.036886      -164.2720
  21   2.0000      -6.032902      -164.1636
  22   2.0000      -6.032314      -164.1476
  23   2.0000      -6.029193      -164.0627
  24   2.0000      -0.998468       -27.1697
  25   2.0000      -0.976747       -26.5786
  26   2.0000      -0.914592       -24.8873
  27   2.0000      -0.910412       -24.7736
  28   2.0000      -0.866944       -23.5907
  29   2.0000      -0.852282       -23.1918
  30   2.0000      -0.845295       -23.0016
  31   2.0000      -0.815614       -22.1940
  32   2.0000      -0.782735       -21.2993
  33   2.0000      -0.769977       -20.9521
  34   2.0000      -0.704214       -19.1626
  35   2.0000      -0.698242       -19.0001
  36   2.0000      -0.684214       -18.6184
  37   2.0000      -0.663896       -18.0655
  38   2.0000      -0.636805       -17.3284
  39   2.0000      -0.609891       -16.5960
  40   2.0000      -0.595550       -16.2057
  41   2.0000      -0.579693       -15.7743
  42   2.0000      -0.564840       -15.3701
  43   2.0000      -0.543851       -14.7989
  44   2.0000      -0.538561       -14.6550
  45   2.0000      -0.525100       -14.2887
  46   2.0000      -0.519596       -14.1389
  47   2.0000      -0.508125       -13.8268
  48   2.0000      -0.503393       -13.6980
  49   2.0000      -0.495584       -13.4855
  50   2.0000      -0.490658       -13.3515
  51   2.0000      -0.483731       -13.1630
  52   2.0000      -0.474087       -12.9006
  53   2.0000      -0.464976       -12.6526
  54   2.0000      -0.456296       -12.4164
  55   2.0000      -0.448912       -12.2155
  56   2.0000      -0.441581       -12.0160
  57   2.0000      -0.437149       -11.8954
  58   2.0000      -0.431156       -11.7323
  59   2.0000      -0.425002       -11.5649
  60   2.0000      -0.418858       -11.3977
  61   2.0000      -0.411625       -11.2009
  62   2.0000      -0.407463       -11.0876
  63   2.0000      -0.354047        -9.6341
  64   2.0000      -0.331376        -9.0172
  65   2.0000      -0.325130        -8.8472
  66   2.0000      -0.287496        -7.8232
  67   0.0000       0.023453         0.6382
  68   0.0000       0.062009         1.6874
  69   0.0000       0.099223         2.7000
  70   0.0000       0.116768         3.1774
  71   0.0000       0.128369         3.4931

MULLIKEN ATOMIC CHARGES
-----------------------
   0 S :    0.100402
   1 C :   -0.126737
   2 C :   -0.091511
   3 C :    0.006774
   4 C :   -0.115691
   5 H :    0.038010
   6 C :    0.098578
   7 H :   -0.017463
   8 H :    0.040879
   9 C :   -0.099132
  10 H :    0.033999
  11 H :    0.025871
  12 C :   -0.020570
  13 H :    0.035176
  14 H :    0.029066
  15 H :    0.023422
  16 S :    0.084058
  17 C :   -0.098673
  18 C :   -0.014179
  19 C :   -0.052081
  20 C :   -0.168765
  21 H :    0.004045
  22 C :    0.054133
  23 H :    0.037522
  24 H :    0.016569
  25 C :   -0.064738
  26 H :    0.023444
  27 H :    0.028432
  28 C :   -0.057298
  29 H :    0.041272
  30 H :    0.039581
  31 H :    0.034612
  32 H :    0.053834
  33 H :    0.077160
Sum of atomic charges:    0.0000000

LOEWDIN ATOMIC CHARGES
----------------------
   0 S :    0.366455
   1 C :   -0.195770
   2 C :   -0.065644
   3 C :   -0.062405
   4 C :   -0.169579
   5 H :    0.043540
   6 C :   -0.035202
   7 H :    0.016630
   8 H :    0.041607
   9 C :   -0.041668
  10 H :    0.026518
  11 H :    0.027338
  12 C :   -0.065794
  13 H :    0.030027
  14 H :    0.022208
  15 H :    0.026223
  16 S :    0.390057
  17 C :   -0.194090
  18 C :   -0.061600
  19 C :   -0.056479
  20 C :   -0.181691
  21 H :    0.021248
  22 C :   -0.040032
  23 H :    0.039079
  24 H :    0.029376
  25 C :   -0.044238
  26 H :    0.021953
  27 H :    0.026231
  28 C :   -0.065666
  29 H :    0.028840
  30 H :    0.035494
  31 H :    0.020957
  32 H :    0.030565
  33 H :    0.035511

  Mayer bond orders larger than 0.100000
B(  0-S ,  1-C ) :   1.1204 B(  0-S ,  4-C ) :   1.1062 B(  1-C ,  2-C ) :   1.6538
B(  1-C , 32-H ) :   0.9640 B(  2-C ,  3-C ) :   1.1838 B(  2-C ,  6-C ) :   1.0246
B(  3-C ,  4-C ) :   1.6415 B(  3-C ,  5-H ) :   0.9855 B(  4-C , 20-C ) :   1.0370
B(  6-C ,  7-H ) :   0.9265 B(  6-C ,  8-H ) :   0.9382 B(  6-C ,  9-C ) :   1.0759
B(  9-C , 10-H ) :   0.9528 B(  9-C , 11-H ) :   0.9537 B(  9-C , 12-C ) :   1.0976
B( 12-C , 13-H ) :   0.9705 B( 12-C , 14-H ) :   0.9729 B( 12-C , 15-H ) :   0.9675
B( 16-S , 17-C ) :   1.1526 B( 16-S , 20-C ) :   1.1555 B( 17-C , 18-C ) :   1.5871
B( 17-C , 20-C ) :   0.1075 B( 17-C , 33-H ) :   0.9617 B( 18-C , 19-C ) :   1.2726
B( 18-C , 21-H ) :   0.9856 B( 19-C , 20-C ) :   1.5531 B( 19-C , 22-C ) :   1.0423
B( 22-C , 23-H ) :   0.9303 B( 22-C , 24-H ) :   0.9277 B( 22-C , 25-C ) :   1.0743
B( 25-C , 26-H ) :   0.9589 B( 25-C , 27-H ) :   0.9501 B( 25-C , 28-C ) :   1.0708
B( 28-C , 29-H ) :   0.9764 B( 28-C , 30-H ) :   0.9773 B( 28-C , 31-H ) :   0.9773

Dispersion correction           -0.013893978
FINAL SINGLE POINT ENERGY     -1339.865541211245

DIPOLE MOMENT
-------------
                                X             Y             Z
Electronic contribution:     -8.07045      -2.85615     -22.97085
Nuclear contribution   :      8.31728       3.01780      23.51394
                        -----------------------------------------
Total Dipole Moment    :      0.24683       0.16166       0.54310
                        -----------------------------------------
Magnitude (a.u.)       :      0.61807
Magnitude (Debye)      :      1.57101

Rotational constants in cm-1:     0.018052     0.008350     0.006774
Rotational constants in MHz :   541.183592   250.312063   203.074107

                             ****ORCA TERMINATED NORMALLY****
TOTAL RUN TIME: 0 days 0 hours 0 minutes 21 seconds 246 msec
