                         Program Version 4.2.1 -  RELEASE  -
|  1> ! wB97X-D3 SP def2-SVP
|  2> %pal
|  3> nprocs 24
|  4> end
|  5>
|  6> * xyz 0 1
|  7> S 	 -50.8743 	 12.7623 	 21.7375
|  8> C 	 -50.137 	 11.1893 	 22.2842
|  9> C 	 -51.1084 	 10.3622 	 22.7383
| 10> C 	 -52.3682 	 10.9825 	 22.8286
| 11> C 	 -52.4014 	 12.3104 	 22.454
| 12> H 	 -53.3306 	 10.5959 	 23.1791
| 13> C 	 -50.9554 	 8.88564 	 23.1692
| 14> H 	 -51.968 	 8.4657 	 22.9022
| 15> H 	 -50.8316 	 8.88605 	 24.2511
| 16> C 	 -49.9056 	 8.0159 	 22.4247
| 17> H 	 -50.1994 	 7.96404 	 21.375
| 18> H 	 -48.8983 	 8.34939 	 22.3179
| 19> C 	 -49.7365 	 6.58185 	 23.0053
| 20> H 	 -48.978 	 5.97144 	 22.5341
| 21> H 	 -49.4233 	 6.69816 	 24.0835
| 22> H 	 -50.6822 	 6.0655 	 23.0349
| 23> S 	 -53.8866 	 13.8927 	 20.7131
| 24> C 	 -55.117 	 14.9322 	 21.3483
| 25> C 	 -55.4214 	 14.5848 	 22.6691
| 26> C 	 -54.5264 	 13.5553 	 23.194
| 27> C 	 -53.5696 	 13.113 	 22.2946
| 28> H 	 -56.2793 	 15.02 	 23.1131
| 29> C 	 -54.4717 	 13.1628 	 24.6794
| 30> H 	 -53.8422 	 12.2909 	 24.8952
| 31> H 	 -55.4701 	 12.8659 	 24.9869
| 32> C 	 -53.9087 	 14.2803 	 25.6404
| 33> H 	 -54.4653 	 15.1569 	 25.3577
| 34> H 	 -52.8248 	 14.4226 	 25.3936
| 35> C 	 -54.0691 	 13.9427 	 27.1
| 36> H 	 -53.56 	 14.5977 	 27.82
| 37> H 	 -53.6741 	 12.9373 	 27.2201
| 38> H 	 -55.1185 	 13.7603 	 27.3532
| 39> H 	 -49.1195 	 11.006 	 22.3191
| 40> H 	 -55.8113 	 15.5113 	 20.782
| 41> *
| 42>
| 43>                          ****END OF INPUT****

CARTESIAN COORDINATES (ANGSTROEM)
---------------------------------
  S    -50.874300   12.762300   21.737500
  C    -50.137000   11.189300   22.284200
  C    -51.108400   10.362200   22.738300
  C    -52.368200   10.982500   22.828600
  C    -52.401400   12.310400   22.454000
  H    -53.330600   10.595900   23.179100
  C    -50.955400    8.885640   23.169200
  H    -51.968000    8.465700   22.902200
  H    -50.831600    8.886050   24.251100
  C    -49.905600    8.015900   22.424700
  H    -50.199400    7.964040   21.375000
  H    -48.898300    8.349390   22.317900
  C    -49.736500    6.581850   23.005300
  H    -48.978000    5.971440   22.534100
  H    -49.423300    6.698160   24.083500
  H    -50.682200    6.065500   23.034900
  S    -53.886600   13.892700   20.713100
  C    -55.117000   14.932200   21.348300
  C    -55.421400   14.584800   22.669100
  C    -54.526400   13.555300   23.194000
  C    -53.569600   13.113000   22.294600
  H    -56.279300   15.020000   23.113100
  C    -54.471700   13.162800   24.679400
  H    -53.842200   12.290900   24.895200
  H    -55.470100   12.865900   24.986900
  C    -53.908700   14.280300   25.640400
  H    -54.465300   15.156900   25.357700
  H    -52.824800   14.422600   25.393600
  C    -54.069100   13.942700   27.100000
  H    -53.560000   14.597700   27.820000
  H    -53.674100   12.937300   27.220100
  H    -55.118500   13.760300   27.353200
  H    -49.119500   11.006000   22.319100
  H    -55.811300   15.511300   20.782000

 Total Charge           Charge          ....    0
 Multiplicity           Mult            ....    1
 Number of Electrons    NEL             ....  134
 Basis Dimension        Dim             ....  322

ORBITAL ENERGIES
----------------

  NO   OCC          E(Eh)            E(eV)
   0   2.0000     -88.965548     -2420.8756
   1   2.0000     -88.964637     -2420.8508
   2   2.0000     -10.329081      -281.0686
   3   2.0000     -10.328700      -281.0582
   4   2.0000     -10.318397      -280.7779
   5   2.0000     -10.313646      -280.6486
   6   2.0000     -10.310070      -280.5513
   7   2.0000     -10.304898      -280.4105
   8   2.0000     -10.303250      -280.3657
   9   2.0000     -10.298577      -280.2385
  10   2.0000     -10.293790      -280.1083
  11   2.0000     -10.292630      -280.0767
  12   2.0000     -10.289655      -279.9958
  13   2.0000     -10.284666      -279.8600
  14   2.0000     -10.282813      -279.8096
  15   2.0000     -10.276276      -279.6317
  16   2.0000      -8.079443      -219.8528
  17   2.0000      -8.079083      -219.8430
  18   2.0000      -6.038121      -164.3056
  19   2.0000      -6.037698      -164.2941
  20   2.0000      -6.034123      -164.1968
  21   2.0000      -6.033551      -164.1813
  22   2.0000      -6.029992      -164.0844
  23   2.0000      -6.029809      -164.0794
  24   2.0000      -1.006862       -27.3981
  25   2.0000      -0.981299       -26.7025
  26   2.0000      -0.908479       -24.7210
  27   2.0000      -0.904042       -24.6002
  28   2.0000      -0.873575       -23.7712
  29   2.0000      -0.851660       -23.1748
  30   2.0000      -0.842256       -22.9190
  31   2.0000      -0.814978       -22.1767
  32   2.0000      -0.782020       -21.2799
  33   2.0000      -0.771648       -20.9976
  34   2.0000      -0.715358       -19.4659
  35   2.0000      -0.703734       -19.1496
  36   2.0000      -0.693742       -18.8777
  37   2.0000      -0.660887       -17.9836
  38   2.0000      -0.646333       -17.5876
  39   2.0000      -0.613799       -16.7023
  40   2.0000      -0.593143       -16.1402
  41   2.0000      -0.572205       -15.5705
  42   2.0000      -0.566171       -15.4063
  43   2.0000      -0.559575       -15.2268
  44   2.0000      -0.527287       -14.3482
  45   2.0000      -0.524555       -14.2739
  46   2.0000      -0.520884       -14.1740
  47   2.0000      -0.517325       -14.0771
  48   2.0000      -0.507619       -13.8130
  49   2.0000      -0.502370       -13.6702
  50   2.0000      -0.496144       -13.5008
  51   2.0000      -0.477247       -12.9866
  52   2.0000      -0.468544       -12.7497
  53   2.0000      -0.458601       -12.4792
  54   2.0000      -0.456033       -12.4093
  55   2.0000      -0.451808       -12.2943
  56   2.0000      -0.442508       -12.0413
  57   2.0000      -0.441557       -12.0154
  58   2.0000      -0.428641       -11.6639
  59   2.0000      -0.424137       -11.5414
  60   2.0000      -0.420249       -11.4355
  61   2.0000      -0.414874       -11.2893
  62   2.0000      -0.410012       -11.1570
  63   2.0000      -0.352173        -9.5831
  64   2.0000      -0.334405        -9.0996
  65   2.0000      -0.327244        -8.9048
  66   2.0000      -0.292276        -7.9532
  67   0.0000       0.025076         0.6823
  68   0.0000       0.063413         1.7256
  69   0.0000       0.105967         2.8835
  70   0.0000       0.117010         3.1840
  71   0.0000       0.132830         3.6145

MULLIKEN ATOMIC CHARGES
-----------------------
   0 S :    0.095829
   1 C :   -0.113614
   2 C :   -0.043764
   3 C :    0.012352
   4 C :   -0.142236
   5 H :    0.021644
   6 C :    0.056722
   7 H :    0.043044
   8 H :    0.048057
   9 C :   -0.077104
  10 H :    0.030033
  11 H :    0.022506
  12 C :   -0.064235
  13 H :    0.040620
  14 H :    0.030896
  15 H :    0.029145
  16 S :    0.098353
  17 C :   -0.078371
  18 C :   -0.039511
  19 C :   -0.018685
  20 C :   -0.162053
  21 H :    0.013911
  22 C :    0.027601
  23 H :    0.017719
  24 H :    0.019412
  25 C :   -0.073264
  26 H :    0.022751
  27 H :    0.043373
  28 C :   -0.021021
  29 H :    0.048881
  30 H :    0.010761
  31 H :    0.020649
  32 H :    0.023095
  33 H :    0.056505
Sum of atomic charges:    0.0000000

LOEWDIN ATOMIC CHARGES
----------------------
   0 S :    0.379288
   1 C :   -0.160599
   2 C :   -0.063114
   3 C :   -0.064243
   4 C :   -0.190347
   5 H :    0.034299
   6 C :   -0.026337
   7 H :    0.041788
   8 H :    0.032987
   9 C :   -0.047014
  10 H :    0.026969
  11 H :    0.018538
  12 C :   -0.065553
  13 H :    0.026199
  14 H :    0.029434
  15 H :    0.020196
  16 S :    0.392652
  17 C :   -0.185382
  18 C :   -0.066795
  19 C :   -0.053373
  20 C :   -0.185953
  21 H :    0.026074
  22 C :   -0.033132
  23 H :    0.025335
  24 H :    0.024942
  25 C :   -0.037886
  26 H :    0.016363
  27 H :    0.032239
  28 C :   -0.070081
  29 H :    0.030935
  30 H :    0.023780
  31 H :    0.025104
  32 H :    0.014771
  33 H :    0.027917

  Mayer bond orders larger than 0.100000
B(  0-S ,  1-C ) :   1.1118 B(  0-S ,  4-C ) :   1.1378 B(  1-C ,  2-C ) :   1.6266
B(  1-C , 32-H ) :   0.9852 B(  2-C ,  3-C ) :   1.2316 B(  2-C ,  6-C ) :   0.9884
B(  3-C ,  4-C ) :   1.5796 B(  3-C ,  5-H ) :   0.9881 B(  4-C , 20-C ) :   1.0709
B(  6-C ,  7-H ) :   0.9484 B(  6-C ,  8-H ) :   0.9434 B(  6-C ,  9-C ) :   1.0537
B(  9-C , 10-H ) :   0.9567 B(  9-C , 11-H ) :   0.9591 B(  9-C , 12-C ) :   1.0806
B( 12-C , 13-H ) :   0.9757 B( 12-C , 14-H ) :   0.9755 B( 12-C , 15-H ) :   0.9776
B( 16-S , 17-C ) :   1.1545 B( 16-S , 20-C ) :   1.1199 B( 17-C , 18-C ) :   1.6193
B( 17-C , 33-H ) :   0.9654 B( 18-C , 19-C ) :   1.2197 B( 18-C , 21-H ) :   0.9950
B( 19-C , 20-C ) :   1.6065 B( 19-C , 22-C ) :   1.0532 B( 22-C , 23-H ) :   0.9357
B( 22-C , 24-H ) :   0.9352 B( 22-C , 25-C ) :   1.0538 B( 25-C , 26-H ) :   0.9593
B( 25-C , 27-H ) :   0.9551 B( 25-C , 28-C ) :   1.0822 B( 28-C , 29-H ) :   0.9730
B( 28-C , 30-H ) :   0.9686 B( 28-C , 31-H ) :   0.9708

Dispersion correction           -0.013498244
FINAL SINGLE POINT ENERGY     -1339.873778321726

DIPOLE MOMENT
-------------
                                X             Y             Z
Electronic contribution:     -2.28669      17.08699     -20.66399
Nuclear contribution   :      2.11011     -17.53635      21.12607
                        -----------------------------------------
Total Dipole Moment    :     -0.17658      -0.44937       0.46209
                        -----------------------------------------
Magnitude (a.u.)       :      0.66831
Magnitude (Debye)      :      1.69870

Rotational constants in cm-1:     0.019499     0.007402     0.006053
Rotational constants in MHz :   584.574935   221.900555   181.455045

                             ****ORCA TERMINATED NORMALLY****
TOTAL RUN TIME: 0 days 0 hours 0 minutes 20 seconds 856 msec
