                         Program Version 4.2.1 -  RELEASE  -
|  1> ! wB97X-D3 SP def2-SVP
|  2> %pal
|  3> nprocs 24
|  4> end
|  5>
|  6> * xyz 0 1
|  7> S 	 -82.7647 	 -36.716 	 -77.2255
|  8> C 	 -82.5039 	 -37.5335 	 -78.6874
|  9> C 	 -83.1177 	 -36.8861 	 -79.7232
| 10> C 	 -83.5166 	 -35.5577 	 -79.3911
| 11> C 	 -83.3533 	 -35.2821 	 -77.9981
| 12> H 	 -84.0677 	 -34.8855 	 -80.0552
| 13> C 	 -83.0671 	 -37.5081 	 -81.1233
| 14> H 	 -84.1489 	 -37.5808 	 -81.4385
| 15> H 	 -82.6723 	 -38.5633 	 -81.0936
| 16> C 	 -82.2167 	 -36.6904 	 -82.1166
| 17> H 	 -82.37 	 -37.2277 	 -83.0969
| 18> H 	 -82.5585 	 -35.6427 	 -82.1828
| 19> C 	 -80.7685 	 -36.7303 	 -81.7312
| 20> H 	 -80.2 	 -36.1932 	 -82.5165
| 21> H 	 -80.5273 	 -36.2812 	 -80.7459
| 22> H 	 -80.3642 	 -37.7265 	 -81.7547
| 23> S 	 -84.8125 	 -34.6411 	 -75.7856
| 24> C 	 -85.0912 	 -32.9537 	 -75.354
| 25> C 	 -84.6735 	 -32.114 	 -76.3905
| 26> C 	 -83.8967 	 -32.7475 	 -77.4363
| 27> C 	 -83.9608 	 -34.1432 	 -77.2606
| 28> H 	 -84.8058 	 -31.0987 	 -76.2946
| 29> C 	 -83.2382 	 -32.0746 	 -78.5643
| 30> H 	 -83.4113 	 -31.0081 	 -78.5015
| 31> H 	 -83.6602 	 -32.4247 	 -79.5098
| 32> C 	 -81.7954 	 -32.3057 	 -78.6954
| 33> H 	 -81.6849 	 -33.3742 	 -79.049
| 34> H 	 -81.2857 	 -32.2049 	 -77.7202
| 35> C 	 -81.1863 	 -31.3658 	 -79.6665
| 36> H 	 -81.5653 	 -31.3318 	 -80.6796
| 37> H 	 -80.1003 	 -31.6844 	 -79.7181
| 38> H 	 -81.2781 	 -30.372 	 -79.2821
| 39> H 	 -81.9619 	 -38.427 	 -78.8781
| 40> H 	 -85.6131 	 -32.6809 	 -74.4795
| 41> *
| 42>
| 43>                          ****END OF INPUT****

CARTESIAN COORDINATES (ANGSTROEM)
---------------------------------
  S    -82.764700  -36.716000  -77.225500
  C    -82.503900  -37.533500  -78.687400
  C    -83.117700  -36.886100  -79.723200
  C    -83.516600  -35.557700  -79.391100
  C    -83.353300  -35.282100  -77.998100
  H    -84.067700  -34.885500  -80.055200
  C    -83.067100  -37.508100  -81.123300
  H    -84.148900  -37.580800  -81.438500
  H    -82.672300  -38.563300  -81.093600
  C    -82.216700  -36.690400  -82.116600
  H    -82.370000  -37.227700  -83.096900
  H    -82.558500  -35.642700  -82.182800
  C    -80.768500  -36.730300  -81.731200
  H    -80.200000  -36.193200  -82.516500
  H    -80.527300  -36.281200  -80.745900
  H    -80.364200  -37.726500  -81.754700
  S    -84.812500  -34.641100  -75.785600
  C    -85.091200  -32.953700  -75.354000
  C    -84.673500  -32.114000  -76.390500
  C    -83.896700  -32.747500  -77.436300
  C    -83.960800  -34.143200  -77.260600
  H    -84.805800  -31.098700  -76.294600
  C    -83.238200  -32.074600  -78.564300
  H    -83.411300  -31.008100  -78.501500
  H    -83.660200  -32.424700  -79.509800
  C    -81.795400  -32.305700  -78.695400
  H    -81.684900  -33.374200  -79.049000
  H    -81.285700  -32.204900  -77.720200
  C    -81.186300  -31.365800  -79.666500
  H    -81.565300  -31.331800  -80.679600
  H    -80.100300  -31.684400  -79.718100
  H    -81.278100  -30.372000  -79.282100
  H    -81.961900  -38.427000  -78.878100
  H    -85.613100  -32.680900  -74.479500

 Total Charge           Charge          ....    0
 Multiplicity           Mult            ....    1
 Number of Electrons    NEL             ....  134
 Basis Dimension        Dim             ....  322

ORBITAL ENERGIES
----------------

  NO   OCC          E(Eh)            E(eV)
   0   2.0000     -88.968571     -2420.9579
   1   2.0000     -88.964935     -2420.8590
   2   2.0000     -10.335456      -281.2421
   3   2.0000     -10.331652      -281.1385
   4   2.0000     -10.316680      -280.7311
   5   2.0000     -10.305018      -280.4138
   6   2.0000     -10.304903      -280.4107
   7   2.0000     -10.300844      -280.3002
   8   2.0000     -10.299285      -280.2578
   9   2.0000     -10.297529      -280.2100
  10   2.0000     -10.293571      -280.1023
  11   2.0000     -10.291562      -280.0476
  12   2.0000     -10.283071      -279.8166
  13   2.0000     -10.277523      -279.6656
  14   2.0000     -10.275954      -279.6229
  15   2.0000     -10.274001      -279.5698
  16   2.0000      -8.084132      -219.9804
  17   2.0000      -8.079177      -219.8456
  18   2.0000      -6.042512      -164.4251
  19   2.0000      -6.038423      -164.3139
  20   2.0000      -6.037688      -164.2938
  21   2.0000      -6.035061      -164.2224
  22   2.0000      -6.033750      -164.1867
  23   2.0000      -6.029969      -164.0838
  24   2.0000      -1.008746       -27.4494
  25   2.0000      -0.982979       -26.7482
  26   2.0000      -0.925536       -25.1851
  27   2.0000      -0.912877       -24.8406
  28   2.0000      -0.866955       -23.5910
  29   2.0000      -0.855363       -23.2756
  30   2.0000      -0.845483       -23.0068
  31   2.0000      -0.813603       -22.1393
  32   2.0000      -0.782073       -21.2813
  33   2.0000      -0.771605       -20.9964
  34   2.0000      -0.708433       -19.2775
  35   2.0000      -0.691836       -18.8258
  36   2.0000      -0.683547       -18.6003
  37   2.0000      -0.666384       -18.1332
  38   2.0000      -0.638478       -17.3739
  39   2.0000      -0.620310       -16.8795
  40   2.0000      -0.602561       -16.3965
  41   2.0000      -0.578859       -15.7516
  42   2.0000      -0.570812       -15.5326
  43   2.0000      -0.548422       -14.9233
  44   2.0000      -0.542561       -14.7638
  45   2.0000      -0.527671       -14.3587
  46   2.0000      -0.521464       -14.1898
  47   2.0000      -0.515831       -14.0365
  48   2.0000      -0.503965       -13.7136
  49   2.0000      -0.497102       -13.5268
  50   2.0000      -0.490080       -13.3358
  51   2.0000      -0.484929       -13.1956
  52   2.0000      -0.466663       -12.6985
  53   2.0000      -0.465010       -12.6536
  54   2.0000      -0.458966       -12.4891
  55   2.0000      -0.448770       -12.2116
  56   2.0000      -0.443921       -12.0797
  57   2.0000      -0.433770       -11.8035
  58   2.0000      -0.430687       -11.7196
  59   2.0000      -0.427685       -11.6379
  60   2.0000      -0.423605       -11.5269
  61   2.0000      -0.412574       -11.2267
  62   2.0000      -0.408189       -11.1074
  63   2.0000      -0.348815        -9.4917
  64   2.0000      -0.329976        -8.9791
  65   2.0000      -0.329776        -8.9737
  66   2.0000      -0.285031        -7.7561
  67   0.0000       0.023890         0.6501
  68   0.0000       0.069827         1.9001
  69   0.0000       0.103410         2.8139
  70   0.0000       0.121407         3.3037
  71   0.0000       0.128911         3.5078

MULLIKEN ATOMIC CHARGES
-----------------------
   0 S :    0.129940
   1 C :   -0.099282
   2 C :   -0.102845
   3 C :    0.011313
   4 C :   -0.139303
   5 H :    0.024775
   6 C :    0.021167
   7 H :    0.044994
   8 H :    0.025763
   9 C :   -0.073444
  10 H :    0.038968
  11 H :    0.036774
  12 C :   -0.059145
  13 H :    0.033482
  14 H :    0.053829
  15 H :    0.017660
  16 S :    0.091712
  17 C :   -0.087289
  18 C :    0.009502
  19 C :   -0.035865
  20 C :   -0.154136
  21 H :   -0.012471
  22 C :    0.090027
  23 H :   -0.000877
  24 H :    0.024680
  25 C :   -0.115750
  26 H :    0.048484
  27 H :    0.034387
  28 C :   -0.025529
  29 H :    0.024306
  30 H :    0.042386
  31 H :    0.020108
  32 H :    0.034370
  33 H :    0.047309
Sum of atomic charges:    0.0000000

LOEWDIN ATOMIC CHARGES
----------------------
   0 S :    0.442528
   1 C :   -0.215345
   2 C :   -0.068191
   3 C :   -0.069340
   4 C :   -0.203856
   5 H :    0.031270
   6 C :   -0.037458
   7 H :    0.036078
   8 H :    0.031459
   9 C :   -0.045923
  10 H :    0.031719
  11 H :    0.024942
  12 C :   -0.070617
  13 H :    0.029777
  14 H :    0.031125
  15 H :    0.019858
  16 S :    0.388677
  17 C :   -0.175094
  18 C :   -0.055196
  19 C :   -0.053709
  20 C :   -0.181426
  21 H :    0.015771
  22 C :   -0.038458
  23 H :    0.025897
  24 H :    0.034375
  25 C :   -0.048917
  26 H :    0.030739
  27 H :    0.028629
  28 C :   -0.063935
  29 H :    0.021737
  30 H :    0.037122
  31 H :    0.019722
  32 H :    0.025817
  33 H :    0.020224

  Mayer bond orders larger than 0.100000
B(  0-S ,  1-C ) :   1.1543 B(  0-S ,  4-C ) :   1.1808 B(  1-C ,  2-C ) :   1.5705
B(  1-C , 32-H ) :   0.9717 B(  2-C ,  3-C ) :   1.2891 B(  2-C ,  6-C ) :   1.0238
B(  3-C ,  4-C ) :   1.4949 B(  3-C ,  5-H ) :   0.9876 B(  4-C , 20-C ) :   1.0501
B(  6-C ,  7-H ) :   0.9362 B(  6-C ,  8-H ) :   0.9475 B(  6-C ,  9-C ) :   1.0672
B(  9-C , 10-H ) :   0.9529 B(  9-C , 11-H ) :   0.9552 B(  9-C , 12-C ) :   1.0796
B( 12-C , 13-H ) :   0.9712 B( 12-C , 14-H ) :   0.9721 B( 12-C , 15-H ) :   0.9722
B( 16-S , 17-C ) :   1.1440 B( 16-S , 20-C ) :   1.1468 B( 17-C , 18-C ) :   1.6000
B( 17-C , 33-H ) :   0.9756 B( 18-C , 19-C ) :   1.2392 B( 18-C , 21-H ) :   0.9965
B( 19-C , 20-C ) :   1.5766 B( 19-C , 22-C ) :   1.0585 B( 22-C , 23-H ) :   0.9268
B( 22-C , 24-H ) :   0.9201 B( 22-C , 25-C ) :   1.0725 B( 25-C , 26-H ) :   0.9414
B( 25-C , 27-H ) :   0.9529 B( 25-C , 28-C ) :   1.0966 B( 28-C , 29-H ) :   0.9693
B( 28-C , 30-H ) :   0.9715 B( 28-C , 31-H ) :   0.9701

Dispersion correction           -0.014917752
FINAL SINGLE POINT ENERGY     -1339.878502455161

DIPOLE MOMENT
-------------
                                X             Y             Z
Electronic contribution:    -13.86835      -7.66670      24.89274
Nuclear contribution   :     13.96077       7.86277     -25.44958
                        -----------------------------------------
Total Dipole Moment    :      0.09242       0.19607      -0.55684
                        -----------------------------------------
Magnitude (a.u.)       :      0.59754
Magnitude (Debye)      :      1.51883

Rotational constants in cm-1:     0.018967     0.009777     0.007148
Rotational constants in MHz :   568.608032   293.102489   214.295558

                             ****ORCA TERMINATED NORMALLY****
TOTAL RUN TIME: 0 days 0 hours 0 minutes 22 seconds 485 msec
