                         Program Version 4.2.1 -  RELEASE  -
|  1> ! wB97X-D3 SP def2-SVP
|  2> %pal
|  3> nprocs 24
|  4> end
|  5>
|  6> * xyz 0 1
|  7> S 	 -114.116 	 21.9949 	 -109.861
|  8> C 	 -114.012 	 23.2254 	 -111.127
|  9> C 	 -114.183 	 22.6694 	 -112.396
| 10> C 	 -114.448 	 21.3064 	 -112.283
| 11> C 	 -114.376 	 20.7808 	 -110.998
| 12> H 	 -114.643 	 20.6461 	 -113.199
| 13> C 	 -114.288 	 23.4959 	 -113.781
| 14> H 	 -114.535 	 24.5457 	 -113.56
| 15> H 	 -115.101 	 23.005 	 -114.32
| 16> C 	 -113.07 	 23.3188 	 -114.716
| 17> H 	 -112.153 	 23.6097 	 -114.207
| 18> H 	 -112.91 	 22.2183 	 -114.87
| 19> C 	 -112.982 	 24.1318 	 -116.085
| 20> H 	 -112.943 	 25.2422 	 -115.86
| 21> H 	 -112.121 	 23.8813 	 -116.709
| 22> H 	 -113.833 	 23.92 	 -116.702
| 23> S 	 -115.57 	 19.1464 	 -109.091
| 24> C 	 -115.54 	 17.4349 	 -109.364
| 25> C 	 -114.791 	 17.0688 	 -110.499
| 26> C 	 -114.349 	 18.2669 	 -111.199
| 27> C 	 -114.625 	 19.4511 	 -110.539
| 28> H 	 -114.684 	 16.0506 	 -110.727
| 29> C 	 -113.548 	 18.2403 	 -112.506
| 30> H 	 -113.026 	 19.1673 	 -112.8
| 31> H 	 -114.285 	 18.1423 	 -113.237
| 32> C 	 -112.465 	 17.1602 	 -112.573
| 33> H 	 -111.992 	 17.2197 	 -113.588
| 34> H 	 -112.875 	 16.1334 	 -112.438
| 35> C 	 -111.356 	 17.1887 	 -111.482
| 36> H 	 -110.911 	 18.1781 	 -111.506
| 37> H 	 -110.584 	 16.38 	 -111.569
| 38> H 	 -111.759 	 17.0945 	 -110.47
| 39> H 	 -113.856 	 24.268 	 -110.981
| 40> H 	 -116.057 	 16.6988 	 -108.853
| 41> *
| 42>
| 43>                          ****END OF INPUT****

CARTESIAN COORDINATES (ANGSTROEM)
---------------------------------
  S    -114.116000   21.994900  -109.861000
  C    -114.012000   23.225400  -111.127000
  C    -114.183000   22.669400  -112.396000
  C    -114.448000   21.306400  -112.283000
  C    -114.376000   20.780800  -110.998000
  H    -114.643000   20.646100  -113.199000
  C    -114.288000   23.495900  -113.781000
  H    -114.535000   24.545700  -113.560000
  H    -115.101000   23.005000  -114.320000
  C    -113.070000   23.318800  -114.716000
  H    -112.153000   23.609700  -114.207000
  H    -112.910000   22.218300  -114.870000
  C    -112.982000   24.131800  -116.085000
  H    -112.943000   25.242200  -115.860000
  H    -112.121000   23.881300  -116.709000
  H    -113.833000   23.920000  -116.702000
  S    -115.570000   19.146400  -109.091000
  C    -115.540000   17.434900  -109.364000
  C    -114.791000   17.068800  -110.499000
  C    -114.349000   18.266900  -111.199000
  C    -114.625000   19.451100  -110.539000
  H    -114.684000   16.050600  -110.727000
  C    -113.548000   18.240300  -112.506000
  H    -113.026000   19.167300  -112.800000
  H    -114.285000   18.142300  -113.237000
  C    -112.465000   17.160200  -112.573000
  H    -111.992000   17.219700  -113.588000
  H    -112.875000   16.133400  -112.438000
  C    -111.356000   17.188700  -111.482000
  H    -110.911000   18.178100  -111.506000
  H    -110.584000   16.380000  -111.569000
  H    -111.759000   17.094500  -110.470000
  H    -113.856000   24.268000  -110.981000
  H    -116.057000   16.698800  -108.853000

 Total Charge           Charge          ....    0
 Multiplicity           Mult            ....    1
 Number of Electrons    NEL             ....  134
 Basis Dimension        Dim             ....  322

ORBITAL ENERGIES
----------------

  NO   OCC          E(Eh)            E(eV)
   0   2.0000     -88.969755     -2420.9901
   1   2.0000     -88.969301     -2420.9778
   2   2.0000     -10.325030      -280.9583
   3   2.0000     -10.323756      -280.9237
   4   2.0000     -10.316539      -280.7273
   5   2.0000     -10.313266      -280.6382
   6   2.0000     -10.307510      -280.4816
   7   2.0000     -10.307092      -280.4702
   8   2.0000     -10.306320      -280.4492
   9   2.0000     -10.298742      -280.2430
  10   2.0000     -10.296165      -280.1729
  11   2.0000     -10.294927      -280.1392
  12   2.0000     -10.291333      -280.0414
  13   2.0000     -10.288806      -279.9727
  14   2.0000     -10.288258      -279.9577
  15   2.0000     -10.276595      -279.6404
  16   2.0000      -8.084869      -220.0005
  17   2.0000      -8.084395      -219.9876
  18   2.0000      -6.043264      -164.4456
  19   2.0000      -6.042943      -164.4368
  20   2.0000      -6.039173      -164.3342
  21   2.0000      -6.038906      -164.3270
  22   2.0000      -6.035807      -164.2427
  23   2.0000      -6.035134      -164.2243
  24   2.0000      -1.014503       -27.6060
  25   2.0000      -0.985338       -26.8124
  26   2.0000      -0.906616       -24.6703
  27   2.0000      -0.902245       -24.5513
  28   2.0000      -0.870516       -23.6879
  29   2.0000      -0.849932       -23.1278
  30   2.0000      -0.839664       -22.8484
  31   2.0000      -0.810689       -22.0600
  32   2.0000      -0.788333       -21.4516
  33   2.0000      -0.777557       -21.1584
  34   2.0000      -0.707593       -19.2546
  35   2.0000      -0.697732       -18.9863
  36   2.0000      -0.692970       -18.8567
  37   2.0000      -0.658860       -17.9285
  38   2.0000      -0.638958       -17.3869
  39   2.0000      -0.622575       -16.9411
  40   2.0000      -0.598980       -16.2991
  41   2.0000      -0.568237       -15.4625
  42   2.0000      -0.559027       -15.2119
  43   2.0000      -0.556740       -15.1497
  44   2.0000      -0.533804       -14.5255
  45   2.0000      -0.523764       -14.2523
  46   2.0000      -0.517947       -14.0940
  47   2.0000      -0.505672       -13.7600
  48   2.0000      -0.500461       -13.6182
  49   2.0000      -0.497490       -13.5374
  50   2.0000      -0.487547       -13.2668
  51   2.0000      -0.478687       -13.0257
  52   2.0000      -0.474867       -12.9218
  53   2.0000      -0.469347       -12.7716
  54   2.0000      -0.463808       -12.6209
  55   2.0000      -0.454488       -12.3672
  56   2.0000      -0.443955       -12.0806
  57   2.0000      -0.440380       -11.9833
  58   2.0000      -0.434832       -11.8324
  59   2.0000      -0.426509       -11.6059
  60   2.0000      -0.415227       -11.2989
  61   2.0000      -0.412208       -11.2167
  62   2.0000      -0.405646       -11.0382
  63   2.0000      -0.355228        -9.6662
  64   2.0000      -0.337825        -9.1927
  65   2.0000      -0.332318        -9.0428
  66   2.0000      -0.284189        -7.7332
  67   0.0000       0.026059         0.7091
  68   0.0000       0.074507         2.0274
  69   0.0000       0.107392         2.9223
  70   0.0000       0.122932         3.3451
  71   0.0000       0.129780         3.5315

MULLIKEN ATOMIC CHARGES
-----------------------
   0 S :    0.114519
   1 C :   -0.124131
   2 C :   -0.078681
   3 C :   -0.019364
   4 C :   -0.150215
   5 H :    0.034264
   6 C :    0.079891
   7 H :    0.032598
   8 H :    0.032530
   9 C :   -0.106294
  10 H :    0.028113
  11 H :    0.030235
  12 C :   -0.060229
  13 H :    0.044099
  14 H :    0.042458
  15 H :    0.027658
  16 S :    0.118342
  17 C :   -0.063333
  18 C :   -0.026870
  19 C :   -0.067993
  20 C :   -0.112130
  21 H :    0.006510
  22 C :    0.078817
  23 H :    0.040772
  24 H :    0.025877
  25 C :   -0.103251
  26 H :    0.037460
  27 H :    0.027238
  28 C :   -0.061992
  29 H :    0.027301
  30 H :    0.045437
  31 H :    0.036183
  32 H :    0.033342
  33 H :    0.030839
Sum of atomic charges:   -0.0000000

LOEWDIN ATOMIC CHARGES
----------------------
   0 S :    0.435578
   1 C :   -0.194912
   2 C :   -0.059031
   3 C :   -0.081640
   4 C :   -0.210690
   5 H :    0.040502
   6 C :   -0.020298
   7 H :    0.030251
   8 H :    0.032193
   9 C :   -0.051914
  10 H :    0.021628
  11 H :    0.026104
  12 C :   -0.069733
  13 H :    0.032851
  14 H :    0.030244
  15 H :    0.018097
  16 S :    0.409822
  17 C :   -0.175484
  18 C :   -0.061275
  19 C :   -0.045753
  20 C :   -0.207324
  21 H :    0.024598
  22 C :   -0.034056
  23 H :    0.035408
  24 H :    0.025831
  25 C :   -0.046231
  26 H :    0.029295
  27 H :    0.019991
  28 C :   -0.071169
  29 H :    0.022067
  30 H :    0.032114
  31 H :    0.025785
  32 H :    0.020647
  33 H :    0.016503

  Mayer bond orders larger than 0.100000
B(  0-S ,  1-C ) :   1.1491 B(  0-S ,  4-C ) :   1.1744 B(  1-C ,  2-C ) :   1.5874
B(  1-C ,  4-C ) :   0.1076 B(  1-C , 32-H ) :   0.9730 B(  2-C ,  3-C ) :   1.2986
B(  2-C ,  6-C ) :   1.0014 B(  3-C ,  4-C ) :   1.5211 B(  3-C ,  5-H ) :   0.9748
B(  4-C , 20-C ) :   1.0715 B(  6-C ,  7-H ) :   0.9498 B(  6-C ,  8-H ) :   0.9455
B(  6-C ,  9-C ) :   1.0524 B(  9-C , 10-H ) :   0.9599 B(  9-C , 11-H ) :   0.9578
B(  9-C , 12-C ) :   1.0699 B( 12-C , 13-H ) :   0.9765 B( 12-C , 14-H ) :   0.9760
B( 12-C , 15-H ) :   0.9784 B( 16-S , 17-C ) :   1.1646 B( 16-S , 20-C ) :   1.1156
B( 17-C , 18-C ) :   1.6084 B( 17-C , 33-H ) :   0.9720 B( 18-C , 19-C ) :   1.2222
B( 18-C , 21-H ) :   1.0009 B( 19-C , 20-C ) :   1.6083 B( 19-C , 22-C ) :   1.0241
B( 22-C , 23-H ) :   0.9384 B( 22-C , 24-H ) :   0.9230 B( 22-C , 25-C ) :   1.0722
B( 25-C , 26-H ) :   0.9564 B( 25-C , 27-H ) :   0.9542 B( 25-C , 28-C ) :   1.0698
B( 28-C , 29-H ) :   0.9757 B( 28-C , 30-H ) :   0.9761 B( 28-C , 31-H ) :   0.9719

Dispersion correction           -0.014111923
FINAL SINGLE POINT ENERGY     -1339.873787409080

DIPOLE MOMENT
-------------
                                X             Y             Z
Electronic contribution:    -13.98040      -0.20067      26.20817
Nuclear contribution   :     14.04648       0.06115     -26.82996
                        -----------------------------------------
Total Dipole Moment    :      0.06608      -0.13952      -0.62180
                        -----------------------------------------
Magnitude (a.u.)       :      0.64067
Magnitude (Debye)      :      1.62846

Rotational constants in cm-1:     0.019328     0.008233     0.006410
Rotational constants in MHz :   579.444361   246.824536   192.162175

                             ****ORCA TERMINATED NORMALLY****
TOTAL RUN TIME: 0 days 0 hours 0 minutes 20 seconds 303 msec
