                         Program Version 4.2.1 -  RELEASE  -
|  1> ! wB97X-D3 SP def2-SVP
|  2> %pal
|  3> nprocs 24
|  4> end
|  5>
|  6> * xyz 0 1
|  7> S 	 -74.8083 	 1.07419 	 -61.0383
|  8> C 	 -76.1277 	 1.97268 	 -60.3378
|  9> C 	 -77.2651 	 1.22249 	 -60.3718
| 10> C 	 -77.0624 	 -0.0937456 	 -60.8426
| 11> C 	 -75.776 	 -0.336115 	 -61.2625
| 12> H 	 -77.7371 	 -0.898657 	 -60.8374
| 13> C 	 -78.6548 	 1.73473 	 -60.1042
| 14> H 	 -78.5745 	 2.33295 	 -59.2248
| 15> H 	 -79.4335 	 0.999159 	 -59.9161
| 16> C 	 -79.2294 	 2.67265 	 -61.1432
| 17> H 	 -78.5652 	 3.49883 	 -61.2774
| 18> H 	 -79.2515 	 2.20509 	 -62.1333
| 19> C 	 -80.6568 	 3.11559 	 -60.9929
| 20> H 	 -80.9563 	 3.83693 	 -61.7187
| 21> H 	 -81.4245 	 2.34188 	 -60.8896
| 22> H 	 -80.804 	 3.59509 	 -60.0339
| 23> S 	 -75.1837 	 -1.9036 	 -63.3741
| 24> C 	 -74.3021 	 -3.38846 	 -63.0862
| 25> C 	 -74.161 	 -3.67531 	 -61.7324
| 26> C 	 -74.6016 	 -2.57546 	 -60.9078
| 27> C 	 -75.1837 	 -1.57777 	 -61.6949
| 28> H 	 -73.5815 	 -4.61202 	 -61.4843
| 29> C 	 -74.5145 	 -2.51063 	 -59.3733
| 30> H 	 -74.3005 	 -3.40434 	 -58.9067
| 31> H 	 -75.5044 	 -2.21206 	 -59.1749
| 32> C 	 -73.5763 	 -1.39443 	 -58.6977
| 33> H 	 -73.513 	 -0.422359 	 -59.2225
| 34> H 	 -72.5374 	 -1.80875 	 -58.7199
| 35> C 	 -73.8664 	 -1.23922 	 -57.1987
| 36> H 	 -73.7491 	 -2.23347 	 -56.7076
| 37> H 	 -74.8868 	 -0.79389 	 -56.9767
| 38> H 	 -73.1791 	 -0.525166 	 -56.7871
| 39> H 	 -76.0198 	 2.96418 	 -59.9425
| 40> H 	 -74.0045 	 -4.02902 	 -63.8017
| 41> *
| 42>
| 43>                          ****END OF INPUT****

CARTESIAN COORDINATES (ANGSTROEM)
---------------------------------
  S    -74.808300    1.074190  -61.038300
  C    -76.127700    1.972680  -60.337800
  C    -77.265100    1.222490  -60.371800
  C    -77.062400   -0.093746  -60.842600
  C    -75.776000   -0.336115  -61.262500
  H    -77.737100   -0.898657  -60.837400
  C    -78.654800    1.734730  -60.104200
  H    -78.574500    2.332950  -59.224800
  H    -79.433500    0.999159  -59.916100
  C    -79.229400    2.672650  -61.143200
  H    -78.565200    3.498830  -61.277400
  H    -79.251500    2.205090  -62.133300
  C    -80.656800    3.115590  -60.992900
  H    -80.956300    3.836930  -61.718700
  H    -81.424500    2.341880  -60.889600
  H    -80.804000    3.595090  -60.033900
  S    -75.183700   -1.903600  -63.374100
  C    -74.302100   -3.388460  -63.086200
  C    -74.161000   -3.675310  -61.732400
  C    -74.601600   -2.575460  -60.907800
  C    -75.183700   -1.577770  -61.694900
  H    -73.581500   -4.612020  -61.484300
  C    -74.514500   -2.510630  -59.373300
  H    -74.300500   -3.404340  -58.906700
  H    -75.504400   -2.212060  -59.174900
  C    -73.576300   -1.394430  -58.697700
  H    -73.513000   -0.422359  -59.222500
  H    -72.537400   -1.808750  -58.719900
  C    -73.866400   -1.239220  -57.198700
  H    -73.749100   -2.233470  -56.707600
  H    -74.886800   -0.793890  -56.976700
  H    -73.179100   -0.525166  -56.787100
  H    -76.019800    2.964180  -59.942500
  H    -74.004500   -4.029020  -63.801700

 Total Charge           Charge          ....    0
 Multiplicity           Mult            ....    1
 Number of Electrons    NEL             ....  134
 Basis Dimension        Dim             ....  322

ORBITAL ENERGIES
----------------

  NO   OCC          E(Eh)            E(eV)
   0   2.0000     -88.966928     -2420.9132
   1   2.0000     -88.965130     -2420.8642
   2   2.0000     -10.321965      -280.8750
   3   2.0000     -10.318439      -280.7790
   4   2.0000     -10.312676      -280.6222
   5   2.0000     -10.308456      -280.5073
   6   2.0000     -10.308074      -280.4969
   7   2.0000     -10.299446      -280.2622
   8   2.0000     -10.298739      -280.2429
   9   2.0000     -10.287904      -279.9481
  10   2.0000     -10.286925      -279.9215
  11   2.0000     -10.286505      -279.9100
  12   2.0000     -10.285074      -279.8711
  13   2.0000     -10.279150      -279.7099
  14   2.0000     -10.278749      -279.6990
  15   2.0000     -10.273132      -279.5461
  16   2.0000      -8.082240      -219.9289
  17   2.0000      -8.080032      -219.8688
  18   2.0000      -6.040563      -164.3721
  19   2.0000      -6.038475      -164.3152
  20   2.0000      -6.036676      -164.2663
  21   2.0000      -6.034332      -164.2025
  22   2.0000      -6.033168      -164.1709
  23   2.0000      -6.031007      -164.1120
  24   2.0000      -1.012943       -27.5636
  25   2.0000      -0.987878       -26.8815
  26   2.0000      -0.917667       -24.9710
  27   2.0000      -0.897450       -24.4209
  28   2.0000      -0.873154       -23.7597
  29   2.0000      -0.852423       -23.1956
  30   2.0000      -0.848062       -23.0770
  31   2.0000      -0.818348       -22.2684
  32   2.0000      -0.786254       -21.3951
  33   2.0000      -0.770689       -20.9715
  34   2.0000      -0.704846       -19.1798
  35   2.0000      -0.702988       -19.1293
  36   2.0000      -0.688373       -18.7316
  37   2.0000      -0.661451       -17.9990
  38   2.0000      -0.653377       -17.7793
  39   2.0000      -0.619805       -16.8658
  40   2.0000      -0.592124       -16.1125
  41   2.0000      -0.578351       -15.7377
  42   2.0000      -0.564921       -15.3723
  43   2.0000      -0.556706       -15.1487
  44   2.0000      -0.526548       -14.3281
  45   2.0000      -0.524292       -14.2667
  46   2.0000      -0.518112       -14.0985
  47   2.0000      -0.515525       -14.0281
  48   2.0000      -0.507040       -13.7973
  49   2.0000      -0.495493       -13.4830
  50   2.0000      -0.492297       -13.3961
  51   2.0000      -0.487275       -13.2594
  52   2.0000      -0.475247       -12.9321
  53   2.0000      -0.464824       -12.6485
  54   2.0000      -0.460384       -12.5277
  55   2.0000      -0.449952       -12.2438
  56   2.0000      -0.443472       -12.0675
  57   2.0000      -0.438896       -11.9430
  58   2.0000      -0.428882       -11.6705
  59   2.0000      -0.423612       -11.5271
  60   2.0000      -0.423344       -11.5198
  61   2.0000      -0.413141       -11.2421
  62   2.0000      -0.403653       -10.9840
  63   2.0000      -0.335306        -9.1241
  64   2.0000      -0.331222        -9.0130
  65   2.0000      -0.319114        -8.6835
  66   2.0000      -0.309302        -8.4165
  67   0.0000       0.049699         1.3524
  68   0.0000       0.050842         1.3835
  69   0.0000       0.118847         3.2340
  70   0.0000       0.125625         3.4184
  71   0.0000       0.130946         3.5632

MULLIKEN ATOMIC CHARGES
-----------------------
   0 S :    0.118907
   1 C :   -0.134059
   2 C :   -0.051360
   3 C :    0.078000
   4 C :   -0.189973
   5 H :   -0.010118
   6 C :    0.091355
   7 H :    0.010169
   8 H :    0.015578
   9 C :   -0.058391
  10 H :    0.012668
  11 H :    0.021672
  12 C :   -0.029796
  13 H :    0.035187
  14 H :    0.024422
  15 H :    0.004904
  16 S :    0.133303
  17 C :   -0.055020
  18 C :   -0.067535
  19 C :   -0.010224
  20 C :   -0.201869
  21 H :    0.043193
  22 C :    0.149347
  23 H :   -0.002732
  24 H :    0.013064
  25 C :   -0.103023
  26 H :    0.040762
  27 H :    0.028585
  28 C :   -0.068867
  29 H :    0.036838
  30 H :    0.040293
  31 H :    0.031874
  32 H :    0.044621
  33 H :    0.008223
Sum of atomic charges:    0.0000000

LOEWDIN ATOMIC CHARGES
----------------------
   0 S :    0.438556
   1 C :   -0.193467
   2 C :   -0.062571
   3 C :   -0.051995
   4 C :   -0.205506
   5 H :    0.025525
   6 C :   -0.029480
   7 H :    0.026819
   8 H :    0.028870
   9 C :   -0.041471
  10 H :    0.018737
  11 H :    0.025342
  12 C :   -0.066786
  13 H :    0.027599
  14 H :    0.025936
  15 H :    0.019204
  16 S :    0.432100
  17 C :   -0.170936
  18 C :   -0.075504
  19 C :   -0.043675
  20 C :   -0.228821
  21 H :    0.044109
  22 C :   -0.019007
  23 H :    0.017678
  24 H :    0.027923
  25 C :   -0.043664
  26 H :    0.011563
  27 H :    0.024886
  28 C :   -0.070876
  29 H :    0.027379
  30 H :    0.028688
  31 H :    0.023602
  32 H :    0.026708
  33 H :    0.002535

  Mayer bond orders larger than 0.100000
B(  0-S ,  1-C ) :   1.1461 B(  0-S ,  4-C ) :   1.1725 B(  1-C ,  2-C ) :   1.5895
B(  1-C , 32-H ) :   0.9766 B(  2-C ,  3-C ) :   1.2401 B(  2-C ,  6-C ) :   1.0314
B(  3-C ,  4-C ) :   1.5833 B(  3-C ,  5-H ) :   1.0084 B(  4-C , 20-C ) :   0.9972
B(  6-C ,  7-H ) :   0.9255 B(  6-C ,  8-H ) :   0.9452 B(  6-C ,  9-C ) :   1.0705
B(  9-C , 10-H ) :   0.9495 B(  9-C , 11-H ) :   0.9524 B(  9-C , 12-C ) :   1.0916
B( 12-C , 13-H ) :   0.9718 B( 12-C , 14-H ) :   0.9704 B( 12-C , 15-H ) :   0.9689
B( 16-S , 17-C ) :   1.1585 B( 16-S , 20-C ) :   1.1696 B( 17-C , 18-C ) :   1.6201
B( 17-C , 20-C ) :   0.1022 B( 17-C , 33-H ) :   0.9788 B( 18-C , 19-C ) :   1.2354
B( 18-C , 21-H ) :   0.9797 B( 19-C , 20-C ) :   1.5873 B( 19-C , 22-C ) :   1.0283
B( 22-C , 23-H ) :   0.9387 B( 22-C , 24-H ) :   0.9299 B( 22-C , 25-C ) :   1.0450
B( 25-C , 26-H ) :   0.9535 B( 25-C , 27-H ) :   0.9549 B( 25-C , 28-C ) :   1.0818
B( 28-C , 29-H ) :   0.9743 B( 28-C , 30-H ) :   0.9753 B( 28-C , 31-H ) :   0.9731

Dispersion correction           -0.014618790
FINAL SINGLE POINT ENERGY     -1339.870526525968

DIPOLE MOMENT
-------------
                                X             Y             Z
Electronic contribution:     12.08614      -7.46917     -17.49308
Nuclear contribution   :    -12.31936       7.43942      17.84120
                        -----------------------------------------
Total Dipole Moment    :     -0.23322      -0.02976       0.34812
                        -----------------------------------------
Magnitude (a.u.)       :      0.42008
Magnitude (Debye)      :      1.06775

Rotational constants in cm-1:     0.019692     0.008377     0.006761
Rotational constants in MHz :   590.351699   251.150686   202.690985

                             ****ORCA TERMINATED NORMALLY****
TOTAL RUN TIME: 0 days 0 hours 0 minutes 21 seconds 760 msec
