                         Program Version 4.2.1 -  RELEASE  -
|  1> ! wB97X-D3 SP def2-SVP
|  2> %pal
|  3> nprocs 24
|  4> end
|  5>
|  6> * xyz 0 1
|  7> S 	 16.8228 	 -15.3398 	 -122.184
|  8> C 	 15.1699 	 -15.1467 	 -122.875
|  9> C 	 14.6769 	 -13.8581 	 -122.824
| 10> C 	 15.6919 	 -13.0311 	 -122.191
| 11> C 	 16.8845 	 -13.6334 	 -121.782
| 12> H 	 15.4921 	 -12.0461 	 -121.936
| 13> C 	 13.3299 	 -13.3316 	 -123.324
| 14> H 	 12.6501 	 -14.2316 	 -123.53
| 15> H 	 13.5392 	 -12.9023 	 -124.382
| 16> C 	 12.5192 	 -12.4195 	 -122.419
| 17> H 	 12.1707 	 -13.1073 	 -121.617
| 18> H 	 13.0677 	 -11.5533 	 -121.975
| 19> C 	 11.2079 	 -11.9013 	 -123.204
| 20> H 	 10.4917 	 -11.5465 	 -122.451
| 21> H 	 11.3363 	 -11.1084 	 -123.912
| 22> H 	 10.8506 	 -12.7555 	 -123.756
| 23> S 	 17.7342 	 -11.2713 	 -120.568
| 24> C 	 19.1827 	 -11.3972 	 -119.423
| 25> C 	 19.6701 	 -12.6593 	 -119.334
| 26> C 	 18.97 	 -13.6182 	 -120.187
| 27> C 	 17.9483 	 -13.0108 	 -120.962
| 28> H 	 20.342 	 -12.8579 	 -118.514
| 29> C 	 19.3064 	 -15.1408 	 -120.016
| 30> H 	 19.5343 	 -15.6463 	 -120.943
| 31> H 	 18.4653 	 -15.5563 	 -119.5
| 32> C 	 20.533 	 -15.5004 	 -119.151
| 33> H 	 20.416 	 -15.2615 	 -118.092
| 34> H 	 21.3676 	 -14.8518 	 -119.447
| 35> C 	 21.0836 	 -17.0124 	 -119.136
| 36> H 	 21.6229 	 -17.3493 	 -118.192
| 37> H 	 21.8155 	 -17.1509 	 -119.909
| 38> H 	 20.2379 	 -17.6468 	 -119.386
| 39> H 	 14.5223 	 -15.9044 	 -123.223
| 40> H 	 19.3631 	 -10.6371 	 -118.697
| 41> *
| 42>
| 43>                          ****END OF INPUT****

CARTESIAN COORDINATES (ANGSTROEM)
---------------------------------
  S     16.822800  -15.339800  -122.184000
  C     15.169900  -15.146700  -122.875000
  C     14.676900  -13.858100  -122.824000
  C     15.691900  -13.031100  -122.191000
  C     16.884500  -13.633400  -121.782000
  H     15.492100  -12.046100  -121.936000
  C     13.329900  -13.331600  -123.324000
  H     12.650100  -14.231600  -123.530000
  H     13.539200  -12.902300  -124.382000
  C     12.519200  -12.419500  -122.419000
  H     12.170700  -13.107300  -121.617000
  H     13.067700  -11.553300  -121.975000
  C     11.207900  -11.901300  -123.204000
  H     10.491700  -11.546500  -122.451000
  H     11.336300  -11.108400  -123.912000
  H     10.850600  -12.755500  -123.756000
  S     17.734200  -11.271300  -120.568000
  C     19.182700  -11.397200  -119.423000
  C     19.670100  -12.659300  -119.334000
  C     18.970000  -13.618200  -120.187000
  C     17.948300  -13.010800  -120.962000
  H     20.342000  -12.857900  -118.514000
  C     19.306400  -15.140800  -120.016000
  H     19.534300  -15.646300  -120.943000
  H     18.465300  -15.556300  -119.500000
  C     20.533000  -15.500400  -119.151000
  H     20.416000  -15.261500  -118.092000
  H     21.367600  -14.851800  -119.447000
  C     21.083600  -17.012400  -119.136000
  H     21.622900  -17.349300  -118.192000
  H     21.815500  -17.150900  -119.909000
  H     20.237900  -17.646800  -119.386000
  H     14.522300  -15.904400  -123.223000
  H     19.363100  -10.637100  -118.697000

 Total Charge           Charge          ....    0
 Multiplicity           Mult            ....    1
 Number of Electrons    NEL             ....  134
 Basis Dimension        Dim             ....  322

ORBITAL ENERGIES
----------------

  NO   OCC          E(Eh)            E(eV)
   0   2.0000     -88.970189     -2421.0019
   1   2.0000     -88.967393     -2420.9258
   2   2.0000     -10.342305      -281.4284
   3   2.0000     -10.335791      -281.2512
   4   2.0000     -10.322221      -280.8819
   5   2.0000     -10.318879      -280.7910
   6   2.0000     -10.314006      -280.6584
   7   2.0000     -10.310797      -280.5711
   8   2.0000     -10.305972      -280.4398
   9   2.0000     -10.301044      -280.3056
  10   2.0000     -10.299170      -280.2547
  11   2.0000     -10.299000      -280.2500
  12   2.0000     -10.292710      -280.0789
  13   2.0000     -10.289877      -280.0018
  14   2.0000     -10.287789      -279.9450
  15   2.0000     -10.283712      -279.8340
  16   2.0000      -8.083186      -219.9547
  17   2.0000      -8.079927      -219.8660
  18   2.0000      -6.041981      -164.4106
  19   2.0000      -6.038773      -164.3234
  20   2.0000      -6.038008      -164.3025
  21   2.0000      -6.035028      -164.2215
  22   2.0000      -6.033685      -164.1849
  23   2.0000      -6.030189      -164.0898
  24   2.0000      -0.994948       -27.0739
  25   2.0000      -0.970986       -26.4219
  26   2.0000      -0.907703       -24.6998
  27   2.0000      -0.899961       -24.4892
  28   2.0000      -0.868425       -23.6310
  29   2.0000      -0.846705       -23.0400
  30   2.0000      -0.833869       -22.6907
  31   2.0000      -0.812723       -22.1153
  32   2.0000      -0.783243       -21.3131
  33   2.0000      -0.773333       -21.0435
  34   2.0000      -0.709570       -19.3084
  35   2.0000      -0.702555       -19.1175
  36   2.0000      -0.691926       -18.8283
  37   2.0000      -0.659718       -17.9518
  38   2.0000      -0.628905       -17.1134
  39   2.0000      -0.618692       -16.8355
  40   2.0000      -0.598685       -16.2910
  41   2.0000      -0.570371       -15.5206
  42   2.0000      -0.566867       -15.4252
  43   2.0000      -0.560935       -15.2638
  44   2.0000      -0.525083       -14.2882
  45   2.0000      -0.521140       -14.1809
  46   2.0000      -0.515871       -14.0376
  47   2.0000      -0.509626       -13.8676
  48   2.0000      -0.500306       -13.6140
  49   2.0000      -0.495107       -13.4725
  50   2.0000      -0.483868       -13.1667
  51   2.0000      -0.478840       -13.0299
  52   2.0000      -0.467402       -12.7186
  53   2.0000      -0.462837       -12.5944
  54   2.0000      -0.455025       -12.3818
  55   2.0000      -0.453728       -12.3466
  56   2.0000      -0.448697       -12.2097
  57   2.0000      -0.439182       -11.9508
  58   2.0000      -0.428263       -11.6536
  59   2.0000      -0.425451       -11.5771
  60   2.0000      -0.421317       -11.4646
  61   2.0000      -0.415877       -11.3166
  62   2.0000      -0.409298       -11.1376
  63   2.0000      -0.362257        -9.8575
  64   2.0000      -0.333636        -9.0787
  65   2.0000      -0.329217        -8.9585
  66   2.0000      -0.281485        -7.6596
  67   0.0000       0.014693         0.3998
  68   0.0000       0.081984         2.2309
  69   0.0000       0.093108         2.5336
  70   0.0000       0.113461         3.0874
  71   0.0000       0.126068         3.4305

MULLIKEN ATOMIC CHARGES
-----------------------
   0 S :    0.092322
   1 C :   -0.098291
   2 C :   -0.063573
   3 C :   -0.001625
   4 C :   -0.102934
   5 H :   -0.019009
   6 C :   -0.000043
   7 H :    0.032510
   8 H :    0.063901
   9 C :   -0.106309
  10 H :    0.046665
  11 H :    0.055504
  12 C :   -0.048166
  13 H :    0.042182
  14 H :    0.036959
  15 H :    0.024943
  16 S :    0.054513
  17 C :   -0.072336
  18 C :   -0.020817
  19 C :   -0.101877
  20 C :   -0.087193
  21 H :    0.031388
  22 C :    0.084925
  23 H :    0.046778
  24 H :    0.046609
  25 C :   -0.144557
  26 H :    0.031228
  27 H :    0.034559
  28 C :   -0.053949
  29 H :    0.051514
  30 H :    0.030849
  31 H :    0.036382
  32 H :    0.022621
  33 H :    0.054328
Sum of atomic charges:   -0.0000000

LOEWDIN ATOMIC CHARGES
----------------------
   0 S :    0.391618
   1 C :   -0.179672
   2 C :   -0.058179
   3 C :   -0.066895
   4 C :   -0.184772
   5 H :    0.005617
   6 C :   -0.046784
   7 H :    0.036696
   8 H :    0.044157
   9 C :   -0.042998
  10 H :    0.033650
  11 H :    0.027543
  12 C :   -0.060501
  13 H :    0.029968
  14 H :    0.022129
  15 H :    0.022203
  16 S :    0.343778
  17 C :   -0.145749
  18 C :   -0.066408
  19 C :   -0.052639
  20 C :   -0.169484
  21 H :    0.037506
  22 C :   -0.036179
  23 H :    0.029871
  24 H :    0.033710
  25 C :   -0.049844
  26 H :    0.019472
  27 H :    0.022278
  28 C :   -0.068397
  29 H :    0.038492
  30 H :    0.021070
  31 H :    0.025251
  32 H :    0.018750
  33 H :    0.024742

  Mayer bond orders larger than 0.100000
B(  0-S ,  1-C ) :   1.1179 B(  0-S ,  4-C ) :   1.1228 B(  1-C ,  2-C ) :   1.6483
B(  1-C , 32-H ) :   0.9605 B(  2-C ,  3-C ) :   1.2397 B(  2-C ,  6-C ) :   1.0153
B(  3-C ,  4-C ) :   1.5774 B(  3-C ,  5-H ) :   0.9867 B(  4-C , 20-C ) :   1.0943
B(  6-C ,  7-H ) :   0.9408 B(  6-C ,  8-H ) :   0.9394 B(  6-C ,  9-C ) :   1.0515
B(  9-C , 10-H ) :   0.9571 B(  9-C , 11-H ) :   0.9588 B(  9-C , 12-C ) :   1.0665
B( 12-C , 13-H ) :   0.9774 B( 12-C , 14-H ) :   0.9801 B( 12-C , 15-H ) :   0.9748
B( 16-S , 17-C ) :   1.1059 B( 16-S , 20-C ) :   1.1188 B( 17-C , 18-C ) :   1.6766
B( 17-C , 33-H ) :   0.9606 B( 18-C , 19-C ) :   1.2125 B( 18-C , 21-H ) :   0.9787
B( 19-C , 20-C ) :   1.6184 B( 19-C , 22-C ) :   1.0120 B( 22-C , 23-H ) :   0.9426
B( 22-C , 24-H ) :   0.9241 B( 22-C , 25-C ) :   1.0888 B( 25-C , 26-H ) :   0.9531
B( 25-C , 27-H ) :   0.9564 B( 25-C , 28-C ) :   1.0574 B( 28-C , 29-H ) :   0.9779
B( 28-C , 30-H ) :   0.9786 B( 28-C , 31-H ) :   0.9784

Dispersion correction           -0.012987879
FINAL SINGLE POINT ENERGY     -1339.852188049154

DIPOLE MOMENT
-------------
                                X             Y             Z
Electronic contribution:      7.03786       6.49420      -2.26878
Nuclear contribution   :     -7.32810      -6.63392       2.65219
                        -----------------------------------------
Total Dipole Moment    :     -0.29024      -0.13972       0.38342
                        -----------------------------------------
Magnitude (a.u.)       :      0.50077
Magnitude (Debye)      :      1.27285

Rotational constants in cm-1:     0.023232     0.006853     0.005466
Rotational constants in MHz :   696.470967   205.438481   163.859931

                             ****ORCA TERMINATED NORMALLY****
TOTAL RUN TIME: 0 days 0 hours 0 minutes 20 seconds 118 msec
