                         Program Version 4.2.1 -  RELEASE  -
|  1> ! wB97X-D3 SP def2-SVP
|  2> %pal
|  3> nprocs 24
|  4> end
|  5>
|  6> * xyz 0 1
|  7> S 	 -72.2583 	 15.6894 	 -76.0413
|  8> C 	 -70.7487 	 14.8548 	 -76.0565
|  9> C 	 -69.6782 	 15.601 	 -76.4552
| 10> C 	 -70.0984 	 16.8883 	 -76.7673
| 11> C 	 -71.4057 	 17.1335 	 -76.6063
| 12> H 	 -69.5263 	 17.7204 	 -77.1292
| 13> C 	 -68.2521 	 15.0578 	 -76.5947
| 14> H 	 -68.3034 	 14.3053 	 -77.3708
| 15> H 	 -67.9047 	 14.6054 	 -75.6487
| 16> C 	 -67.1343 	 16.0159 	 -76.9376
| 17> H 	 -66.2404 	 15.5136 	 -77.2943
| 18> H 	 -67.4668 	 16.6576 	 -77.7266
| 19> C 	 -66.7528 	 16.9767 	 -75.7731
| 20> H 	 -67.6264 	 17.421 	 -75.3964
| 21> H 	 -66.1389 	 16.4679 	 -74.984
| 22> H 	 -66.1131 	 17.7919 	 -76.0881
| 23> S 	 -73.5929 	 17.9913 	 -77.9862
| 24> C 	 -73.8188 	 19.6376 	 -78.3433
| 25> C 	 -72.914 	 20.4918 	 -77.7478
| 26> C 	 -71.9131 	 19.7493 	 -77.0237
| 27> C 	 -72.1698 	 18.3815 	 -77.0251
| 28> H 	 -72.9697 	 21.6079 	 -77.9613
| 29> C 	 -70.7526 	 20.4657 	 -76.3848
| 30> H 	 -70.303 	 19.8037 	 -75.6172
| 31> H 	 -71.2133 	 21.2997 	 -75.8431
| 32> C 	 -69.6355 	 20.9647 	 -77.4136
| 33> H 	 -70.12 	 21.3557 	 -78.2835
| 34> H 	 -69.0849 	 20.0669 	 -77.7467
| 35> C 	 -68.6979 	 21.9413 	 -76.748
| 36> H 	 -68.0362 	 22.1278 	 -77.5988
| 37> H 	 -68.1063 	 21.597 	 -75.9214
| 38> H 	 -69.2512 	 22.8019 	 -76.4126
| 39> H 	 -70.7194 	 13.7932 	 -75.7716
| 40> H 	 -74.4442 	 20.0459 	 -79.1264
| 41> *
| 42>
| 43>                          ****END OF INPUT****

CARTESIAN COORDINATES (ANGSTROEM)
---------------------------------
  S    -72.258300   15.689400  -76.041300
  C    -70.748700   14.854800  -76.056500
  C    -69.678200   15.601000  -76.455200
  C    -70.098400   16.888300  -76.767300
  C    -71.405700   17.133500  -76.606300
  H    -69.526300   17.720400  -77.129200
  C    -68.252100   15.057800  -76.594700
  H    -68.303400   14.305300  -77.370800
  H    -67.904700   14.605400  -75.648700
  C    -67.134300   16.015900  -76.937600
  H    -66.240400   15.513600  -77.294300
  H    -67.466800   16.657600  -77.726600
  C    -66.752800   16.976700  -75.773100
  H    -67.626400   17.421000  -75.396400
  H    -66.138900   16.467900  -74.984000
  H    -66.113100   17.791900  -76.088100
  S    -73.592900   17.991300  -77.986200
  C    -73.818800   19.637600  -78.343300
  C    -72.914000   20.491800  -77.747800
  C    -71.913100   19.749300  -77.023700
  C    -72.169800   18.381500  -77.025100
  H    -72.969700   21.607900  -77.961300
  C    -70.752600   20.465700  -76.384800
  H    -70.303000   19.803700  -75.617200
  H    -71.213300   21.299700  -75.843100
  C    -69.635500   20.964700  -77.413600
  H    -70.120000   21.355700  -78.283500
  H    -69.084900   20.066900  -77.746700
  C    -68.697900   21.941300  -76.748000
  H    -68.036200   22.127800  -77.598800
  H    -68.106300   21.597000  -75.921400
  H    -69.251200   22.801900  -76.412600
  H    -70.719400   13.793200  -75.771600
  H    -74.444200   20.045900  -79.126400

 Total Charge           Charge          ....    0
 Multiplicity           Mult            ....    1
 Number of Electrons    NEL             ....  134
 Basis Dimension        Dim             ....  322

ORBITAL ENERGIES
----------------

  NO   OCC          E(Eh)            E(eV)
   0   2.0000     -88.965672     -2420.8790
   1   2.0000     -88.964364     -2420.8434
   2   2.0000     -10.329039      -281.0674
   3   2.0000     -10.328087      -281.0415
   4   2.0000     -10.310813      -280.5715
   5   2.0000     -10.309589      -280.5382
   6   2.0000     -10.304634      -280.4033
   7   2.0000     -10.298025      -280.2235
   8   2.0000     -10.297074      -280.1976
   9   2.0000     -10.293572      -280.1023
  10   2.0000     -10.293501      -280.1004
  11   2.0000     -10.291714      -280.0518
  12   2.0000     -10.284788      -279.8633
  13   2.0000     -10.284692      -279.8607
  14   2.0000     -10.276843      -279.6471
  15   2.0000     -10.276226      -279.6303
  16   2.0000      -8.080758      -219.8886
  17   2.0000      -8.079953      -219.8667
  18   2.0000      -6.039129      -164.3330
  19   2.0000      -6.038298      -164.3104
  20   2.0000      -6.035404      -164.2317
  21   2.0000      -6.034400      -164.2044
  22   2.0000      -6.031469      -164.1246
  23   2.0000      -6.030763      -164.1054
  24   2.0000      -1.010237       -27.4900
  25   2.0000      -0.989918       -26.9371
  26   2.0000      -0.913147       -24.8480
  27   2.0000      -0.907932       -24.7061
  28   2.0000      -0.864813       -23.5327
  29   2.0000      -0.858240       -23.3539
  30   2.0000      -0.848639       -23.0926
  31   2.0000      -0.817384       -22.2421
  32   2.0000      -0.783976       -21.3331
  33   2.0000      -0.771015       -20.9804
  34   2.0000      -0.706769       -19.2322
  35   2.0000      -0.699887       -19.0449
  36   2.0000      -0.686002       -18.6671
  37   2.0000      -0.658566       -17.9205
  38   2.0000      -0.642970       -17.4961
  39   2.0000      -0.627679       -17.0800
  40   2.0000      -0.591926       -16.1071
  41   2.0000      -0.567559       -15.4441
  42   2.0000      -0.563706       -15.3392
  43   2.0000      -0.556847       -15.1526
  44   2.0000      -0.540781       -14.7154
  45   2.0000      -0.532526       -14.4908
  46   2.0000      -0.517177       -14.0731
  47   2.0000      -0.505171       -13.7464
  48   2.0000      -0.500304       -13.6140
  49   2.0000      -0.493721       -13.4348
  50   2.0000      -0.488600       -13.2955
  51   2.0000      -0.486043       -13.2259
  52   2.0000      -0.474924       -12.9233
  53   2.0000      -0.467678       -12.7262
  54   2.0000      -0.459908       -12.5147
  55   2.0000      -0.452883       -12.3236
  56   2.0000      -0.444258       -12.0889
  57   2.0000      -0.440297       -11.9811
  58   2.0000      -0.433028       -11.7833
  59   2.0000      -0.428197       -11.6518
  60   2.0000      -0.427159       -11.6236
  61   2.0000      -0.417415       -11.3584
  62   2.0000      -0.412068       -11.2129
  63   2.0000      -0.352290        -9.5863
  64   2.0000      -0.334906        -9.1133
  65   2.0000      -0.329062        -8.9542
  66   2.0000      -0.288165        -7.8414
  67   0.0000       0.036997         1.0067
  68   0.0000       0.070647         1.9224
  69   0.0000       0.110536         3.0078
  70   0.0000       0.119652         3.2559
  71   0.0000       0.127254         3.4628

MULLIKEN ATOMIC CHARGES
-----------------------
   0 S :    0.108738
   1 C :   -0.151625
   2 C :   -0.044922
   3 C :    0.012959
   4 C :   -0.131675
   5 H :   -0.020613
   6 C :    0.083892
   7 H :    0.040781
   8 H :    0.035166
   9 C :   -0.068277
  10 H :    0.030891
  11 H :    0.016822
  12 C :   -0.063559
  13 H :    0.026354
  14 H :    0.036876
  15 H :    0.027887
  16 S :    0.107018
  17 C :   -0.080355
  18 C :   -0.074337
  19 C :   -0.052478
  20 C :   -0.138905
  21 H :    0.045590
  22 C :    0.026446
  23 H :    0.031353
  24 H :    0.028642
  25 C :   -0.080081
  26 H :    0.026785
  27 H :    0.031339
  28 C :   -0.017528
  29 H :    0.036862
  30 H :    0.033537
  31 H :    0.031225
  32 H :    0.051012
  33 H :    0.054181
Sum of atomic charges:   -0.0000000

LOEWDIN ATOMIC CHARGES
----------------------
   0 S :    0.400289
   1 C :   -0.197678
   2 C :   -0.066873
   3 C :   -0.072828
   4 C :   -0.181888
   5 H :    0.028210
   6 C :   -0.028706
   7 H :    0.035377
   8 H :    0.035610
   9 C :   -0.041010
  10 H :    0.027491
  11 H :    0.017689
  12 C :   -0.065182
  13 H :    0.016210
  14 H :    0.029109
  15 H :    0.024768
  16 S :    0.419819
  17 C :   -0.202339
  18 C :   -0.084016
  19 C :   -0.061945
  20 C :   -0.193417
  21 H :    0.044560
  22 C :   -0.037835
  23 H :    0.030891
  24 H :    0.031148
  25 C :   -0.031546
  26 H :    0.020781
  27 H :    0.023863
  28 C :   -0.061732
  29 H :    0.033385
  30 H :    0.024404
  31 H :    0.023991
  32 H :    0.029133
  33 H :    0.030266

  Mayer bond orders larger than 0.100000
B(  0-S ,  1-C ) :   1.1487 B(  0-S ,  4-C ) :   1.1460 B(  1-C ,  2-C ) :   1.6261
B(  1-C , 32-H ) :   0.9676 B(  2-C ,  3-C ) :   1.2355 B(  2-C ,  6-C ) :   0.9883
B(  3-C ,  4-C ) :   1.6159 B(  3-C ,  5-H ) :   0.9938 B(  4-C , 20-C ) :   0.9825
B(  6-C ,  7-H ) :   0.9360 B(  6-C ,  8-H ) :   0.9428 B(  6-C ,  9-C ) :   1.0952
B(  9-C , 10-H ) :   0.9532 B(  9-C , 11-H ) :   0.9474 B(  9-C , 12-C ) :   1.0785
B( 12-C , 13-H ) :   0.9778 B( 12-C , 14-H ) :   0.9743 B( 12-C , 15-H ) :   0.9753
B( 16-S , 17-C ) :   1.1688 B( 16-S , 20-C ) :   1.1391 B( 17-C , 18-C ) :   1.6267
B( 17-C , 33-H ) :   0.9612 B( 18-C , 19-C ) :   1.2256 B( 18-C , 21-H ) :   0.9790
B( 19-C , 20-C ) :   1.6286 B( 19-C , 22-C ) :   1.0448 B( 22-C , 23-H ) :   0.9381
B( 22-C , 24-H ) :   0.9400 B( 22-C , 25-C ) :   1.0504 B( 25-C , 26-H ) :   0.9590
B( 25-C , 27-H ) :   0.9517 B( 25-C , 28-C ) :   1.0780 B( 28-C , 29-H ) :   0.9729
B( 28-C , 30-H ) :   0.9747 B( 28-C , 31-H ) :   0.9753

Dispersion correction           -0.014486284
FINAL SINGLE POINT ENERGY     -1339.881819445742

DIPOLE MOMENT
-------------
                                X             Y             Z
Electronic contribution:    -29.61606     -12.55663      -2.13383
Nuclear contribution   :     30.28519      12.88061       1.89713
                        -----------------------------------------
Total Dipole Moment    :      0.66913       0.32398      -0.23670
                        -----------------------------------------
Magnitude (a.u.)       :      0.78021
Magnitude (Debye)      :      1.98313

Rotational constants in cm-1:     0.015504     0.010888     0.006832
Rotational constants in MHz :   464.793311   326.418249   204.807654

                             ****ORCA TERMINATED NORMALLY****
TOTAL RUN TIME: 0 days 0 hours 0 minutes 22 seconds 161 msec
