                         Program Version 4.2.1 -  RELEASE  -
|  1> ! wB97X-D3 SP def2-SVP
|  2> %pal
|  3> nprocs 24
|  4> end
|  5>
|  6> * xyz 0 1
|  7> S 	 -18.9651 	 -34.2753 	 -94.875
|  8> C 	 -17.8081 	 -35.6288 	 -94.6137
|  9> C 	 -16.4927 	 -35.3478 	 -95.0454
| 10> C 	 -16.4709 	 -34.0944 	 -95.6555
| 11> C 	 -17.6102 	 -33.3403 	 -95.589
| 12> H 	 -15.5373 	 -33.7376 	 -96.1371
| 13> C 	 -15.1957 	 -36.1764 	 -94.887
| 14> H 	 -15.4666 	 -36.9586 	 -94.2671
| 15> H 	 -14.4768 	 -35.6399 	 -94.2682
| 16> C 	 -14.5271 	 -36.6713 	 -96.1488
| 17> H 	 -15.1206 	 -37.3036 	 -96.7591
| 18> H 	 -14.4287 	 -35.7832 	 -96.8116
| 19> C 	 -13.1334 	 -37.2934 	 -95.8739
| 20> H 	 -13.1802 	 -38.1596 	 -95.238
| 21> H 	 -12.7898 	 -37.6903 	 -96.8221
| 22> H 	 -12.4652 	 -36.5819 	 -95.4071
| 23> S 	 -18.3856 	 -31.6196 	 -97.629
| 24> C 	 -18.0593 	 -29.9314 	 -97.4933
| 25> C 	 -17.3973 	 -29.6446 	 -96.3339
| 26> C 	 -17.1018 	 -30.8013 	 -95.4676
| 27> C 	 -17.6708 	 -31.9342 	 -96.0141
| 28> H 	 -16.9776 	 -28.7006 	 -96.035
| 29> C 	 -16.3241 	 -30.7709 	 -94.1757
| 30> H 	 -16.5496 	 -31.6208 	 -93.5178
| 31> H 	 -16.6846 	 -29.8473 	 -93.6899
| 32> C 	 -14.8106 	 -30.4778 	 -94.2764
| 33> H 	 -14.5473 	 -29.7474 	 -95.0903
| 34> H 	 -14.2351 	 -31.3785 	 -94.547
| 35> C 	 -14.249 	 -29.9485 	 -92.9397
| 36> H 	 -14.3389 	 -30.719 	 -92.1736
| 37> H 	 -14.7022 	 -29.085 	 -92.4796
| 38> H 	 -13.2326 	 -29.6584 	 -92.9901
| 39> H 	 -18.0696 	 -36.4489 	 -93.9842
| 40> H 	 -18.138 	 -29.29 	 -98.3405
| 41> *
| 42>
| 43>                          ****END OF INPUT****

CARTESIAN COORDINATES (ANGSTROEM)
---------------------------------
  S    -18.965100  -34.275300  -94.875000
  C    -17.808100  -35.628800  -94.613700
  C    -16.492700  -35.347800  -95.045400
  C    -16.470900  -34.094400  -95.655500
  C    -17.610200  -33.340300  -95.589000
  H    -15.537300  -33.737600  -96.137100
  C    -15.195700  -36.176400  -94.887000
  H    -15.466600  -36.958600  -94.267100
  H    -14.476800  -35.639900  -94.268200
  C    -14.527100  -36.671300  -96.148800
  H    -15.120600  -37.303600  -96.759100
  H    -14.428700  -35.783200  -96.811600
  C    -13.133400  -37.293400  -95.873900
  H    -13.180200  -38.159600  -95.238000
  H    -12.789800  -37.690300  -96.822100
  H    -12.465200  -36.581900  -95.407100
  S    -18.385600  -31.619600  -97.629000
  C    -18.059300  -29.931400  -97.493300
  C    -17.397300  -29.644600  -96.333900
  C    -17.101800  -30.801300  -95.467600
  C    -17.670800  -31.934200  -96.014100
  H    -16.977600  -28.700600  -96.035000
  C    -16.324100  -30.770900  -94.175700
  H    -16.549600  -31.620800  -93.517800
  H    -16.684600  -29.847300  -93.689900
  C    -14.810600  -30.477800  -94.276400
  H    -14.547300  -29.747400  -95.090300
  H    -14.235100  -31.378500  -94.547000
  C    -14.249000  -29.948500  -92.939700
  H    -14.338900  -30.719000  -92.173600
  H    -14.702200  -29.085000  -92.479600
  H    -13.232600  -29.658400  -92.990100
  H    -18.069600  -36.448900  -93.984200
  H    -18.138000  -29.290000  -98.340500

 Total Charge           Charge          ....    0
 Multiplicity           Mult            ....    1
 Number of Electrons    NEL             ....  134
 Basis Dimension        Dim             ....  322

ORBITAL ENERGIES
----------------

  NO   OCC          E(Eh)            E(eV)
   0   2.0000     -88.969950     -2420.9954
   1   2.0000     -88.958688     -2420.6890
   2   2.0000     -10.328540      -281.0539
   3   2.0000     -10.324783      -280.9516
   4   2.0000     -10.320225      -280.8276
   5   2.0000     -10.314563      -280.6735
   6   2.0000     -10.306035      -280.4415
   7   2.0000     -10.302875      -280.3555
   8   2.0000     -10.295914      -280.1661
   9   2.0000     -10.295471      -280.1540
  10   2.0000     -10.295138      -280.1449
  11   2.0000     -10.290493      -280.0186
  12   2.0000     -10.290303      -280.0134
  13   2.0000     -10.287939      -279.9490
  14   2.0000     -10.280198      -279.7384
  15   2.0000     -10.274577      -279.5854
  16   2.0000      -8.083025      -219.9503
  17   2.0000      -8.073787      -219.6989
  18   2.0000      -6.041586      -164.3999
  19   2.0000      -6.037902      -164.2997
  20   2.0000      -6.033692      -164.1851
  21   2.0000      -6.032334      -164.1482
  22   2.0000      -6.028306      -164.0386
  23   2.0000      -6.024420      -163.9328
  24   2.0000      -0.998304       -27.1652
  25   2.0000      -0.977499       -26.5991
  26   2.0000      -0.912732       -24.8367
  27   2.0000      -0.907961       -24.7069
  28   2.0000      -0.865704       -23.5570
  29   2.0000      -0.850399       -23.1405
  30   2.0000      -0.845657       -23.0115
  31   2.0000      -0.809724       -22.0337
  32   2.0000      -0.785631       -21.3781
  33   2.0000      -0.773365       -21.0443
  34   2.0000      -0.710530       -19.3345
  35   2.0000      -0.704029       -19.1576
  36   2.0000      -0.694486       -18.8979
  37   2.0000      -0.661080       -17.9889
  38   2.0000      -0.638973       -17.3873
  39   2.0000      -0.621584       -16.9142
  40   2.0000      -0.601323       -16.3628
  41   2.0000      -0.571843       -15.5606
  42   2.0000      -0.560905       -15.2630
  43   2.0000      -0.551148       -14.9975
  44   2.0000      -0.530339       -14.4312
  45   2.0000      -0.526258       -14.3202
  46   2.0000      -0.516990       -14.0680
  47   2.0000      -0.505997       -13.7689
  48   2.0000      -0.503977       -13.7139
  49   2.0000      -0.498043       -13.5525
  50   2.0000      -0.486493       -13.2382
  51   2.0000      -0.475623       -12.9424
  52   2.0000      -0.471464       -12.8292
  53   2.0000      -0.462571       -12.5872
  54   2.0000      -0.461393       -12.5551
  55   2.0000      -0.450109       -12.2481
  56   2.0000      -0.447481       -12.1766
  57   2.0000      -0.443435       -12.0665
  58   2.0000      -0.439699       -11.9648
  59   2.0000      -0.425781       -11.5861
  60   2.0000      -0.420263       -11.4359
  61   2.0000      -0.418553       -11.3894
  62   2.0000      -0.415394       -11.3034
  63   2.0000      -0.338290        -9.2053
  64   2.0000      -0.326885        -8.8950
  65   2.0000      -0.323464        -8.8019
  66   2.0000      -0.304274        -8.2797
  67   0.0000       0.040932         1.1138
  68   0.0000       0.054753         1.4899
  69   0.0000       0.108131         2.9424
  70   0.0000       0.120736         3.2854
  71   0.0000       0.124181         3.3791

MULLIKEN ATOMIC CHARGES
-----------------------
   0 S :    0.109112
   1 C :   -0.125467
   2 C :   -0.090898
   3 C :    0.028759
   4 C :   -0.166306
   5 H :    0.025914
   6 C :    0.120337
   7 H :   -0.011429
   8 H :    0.026166
   9 C :   -0.078351
  10 H :    0.021984
  11 H :    0.023804
  12 C :   -0.028500
  13 H :    0.025514
  14 H :    0.033281
  15 H :    0.035390
  16 S :    0.091328
  17 C :   -0.067467
  18 C :   -0.013494
  19 C :   -0.023861
  20 C :   -0.193592
  21 H :    0.005890
  22 C :    0.071431
  23 H :    0.047949
  24 H :    0.021957
  25 C :   -0.086573
  26 H :    0.036260
  27 H :    0.031866
  28 C :   -0.041894
  29 H :    0.025476
  30 H :    0.022779
  31 H :    0.023277
  32 H :    0.041841
  33 H :    0.057515
Sum of atomic charges:   -0.0000000

LOEWDIN ATOMIC CHARGES
----------------------
   0 S :    0.373118
   1 C :   -0.176361
   2 C :   -0.060237
   3 C :   -0.060753
   4 C :   -0.191429
   5 H :    0.035975
   6 C :   -0.024990
   7 H :    0.018236
   8 H :    0.033672
   9 C :   -0.037545
  10 H :    0.020846
  11 H :    0.025589
  12 C :   -0.057932
  13 H :    0.022516
  14 H :    0.029115
  15 H :    0.024943
  16 S :    0.388915
  17 C :   -0.184645
  18 C :   -0.069299
  19 C :   -0.048015
  20 C :   -0.187571
  21 H :    0.024583
  22 C :   -0.033353
  23 H :    0.038315
  24 H :    0.036555
  25 C :   -0.040616
  26 H :    0.028366
  27 H :    0.024623
  28 C :   -0.068200
  29 H :    0.025630
  30 H :    0.022145
  31 H :    0.021990
  32 H :    0.018697
  33 H :    0.027119

  Mayer bond orders larger than 0.100000
B(  0-S ,  1-C ) :   1.1401 B(  0-S ,  4-C ) :   1.1268 B(  1-C ,  2-C ) :   1.6125
B(  1-C ,  4-C ) :   0.1028 B(  1-C , 32-H ) :   0.9650 B(  2-C ,  3-C ) :   1.2514
B(  2-C ,  6-C ) :   1.0137 B(  3-C ,  4-C ) :   1.5995 B(  3-C ,  5-H ) :   0.9827
B(  4-C , 20-C ) :   1.0146 B(  6-C ,  7-H ) :   0.9267 B(  6-C ,  8-H ) :   0.9415
B(  6-C ,  9-C ) :   1.0586 B(  9-C , 10-H ) :   0.9539 B(  9-C , 11-H ) :   0.9558
B(  9-C , 12-C ) :   1.0813 B( 12-C , 13-H ) :   0.9759 B( 12-C , 14-H ) :   0.9733
B( 12-C , 15-H ) :   0.9756 B( 16-S , 17-C ) :   1.1483 B( 16-S , 20-C ) :   1.1318
B( 17-C , 18-C ) :   1.6163 B( 17-C , 33-H ) :   0.9707 B( 18-C , 19-C ) :   1.2181
B( 18-C , 21-H ) :   0.9861 B( 19-C , 20-C ) :   1.6394 B( 19-C , 22-C ) :   1.0497
B( 22-C , 23-H ) :   0.9346 B( 22-C , 24-H ) :   0.9338 B( 22-C , 25-C ) :   1.0485
B( 25-C , 26-H ) :   0.9603 B( 25-C , 27-H ) :   0.9509 B( 25-C , 28-C ) :   1.0786
B( 28-C , 29-H ) :   0.9744 B( 28-C , 30-H ) :   0.9754 B( 28-C , 31-H ) :   0.9732

Dispersion correction           -0.013895546
FINAL SINGLE POINT ENERGY     -1339.878684534642

DIPOLE MOMENT
-------------
                                X             Y             Z
Electronic contribution:    -27.97644       3.95363     -10.08174
Nuclear contribution   :     28.83374      -3.96708      10.36616
                        -----------------------------------------
Total Dipole Moment    :      0.85730      -0.01345       0.28441
                        -----------------------------------------
Magnitude (a.u.)       :      0.90335
Magnitude (Debye)      :      2.29613

Rotational constants in cm-1:     0.015487     0.008557     0.006903
Rotational constants in MHz :   464.278300   256.522486   206.944343

                             ****ORCA TERMINATED NORMALLY****
TOTAL RUN TIME: 0 days 0 hours 0 minutes 21 seconds 176 msec
