                         Program Version 4.2.1 -  RELEASE  -
|  1> ! wB97X-D3 SP def2-SVP
|  2> %pal
|  3> nprocs 24
|  4> end
|  5>
|  6> * xyz 0 1
|  7> S 	 -90.8428 	 -2.0065 	 -120.154
|  8> C 	 -90.6014 	 -2.18891 	 -121.866
|  9> C 	 -91.443 	 -3.12717 	 -122.449
| 10> C 	 -92.3277 	 -3.65572 	 -121.451
| 11> C 	 -92.1487 	 -3.16243 	 -120.156
| 12> H 	 -93.0067 	 -4.45477 	 -121.654
| 13> C 	 -91.4014 	 -3.4695 	 -123.933
| 14> H 	 -91.7395 	 -2.53621 	 -124.373
| 15> H 	 -92.1581 	 -4.24936 	 -124.035
| 16> C 	 -90.0557 	 -3.83721 	 -124.477
| 17> H 	 -89.3583 	 -2.98912 	 -124.406
| 18> H 	 -89.6287 	 -4.62492 	 -123.904
| 19> C 	 -90.1592 	 -4.18876 	 -125.96
| 20> H 	 -90.779 	 -5.00764 	 -126.185
| 21> H 	 -90.4991 	 -3.40764 	 -126.756
| 22> H 	 -89.1904 	 -4.51305 	 -126.164
| 23> S 	 -93.4408 	 -2.39641 	 -117.844
| 24> C 	 -93.7994 	 -3.58383 	 -116.695
| 25> C 	 -93.529 	 -4.85545 	 -117.147
| 26> C 	 -92.8269 	 -4.87777 	 -118.376
| 27> C 	 -92.6916 	 -3.58804 	 -118.885
| 28> H 	 -93.7581 	 -5.66179 	 -116.452
| 29> C 	 -92.4646 	 -6.17749 	 -119.061
| 30> H 	 -91.4479 	 -5.99455 	 -119.398
| 31> H 	 -93.2495 	 -6.27507 	 -119.897
| 32> C 	 -92.4406 	 -7.48617 	 -118.211
| 33> H 	 -93.4985 	 -7.75997 	 -117.941
| 34> H 	 -91.775 	 -7.32101 	 -117.365
| 35> C 	 -91.8494 	 -8.75227 	 -118.892
| 36> H 	 -91.9419 	 -9.57518 	 -118.262
| 37> H 	 -90.7917 	 -8.63592 	 -119.177
| 38> H 	 -92.4153 	 -9.08834 	 -119.747
| 39> H 	 -90.0019 	 -1.50688 	 -122.515
| 40> H 	 -94.3201 	 -3.43222 	 -115.793
| 41> *
| 42>
| 43>                          ****END OF INPUT****

CARTESIAN COORDINATES (ANGSTROEM)
---------------------------------
  S    -90.842800   -2.006500  -120.154000
  C    -90.601400   -2.188910  -121.866000
  C    -91.443000   -3.127170  -122.449000
  C    -92.327700   -3.655720  -121.451000
  C    -92.148700   -3.162430  -120.156000
  H    -93.006700   -4.454770  -121.654000
  C    -91.401400   -3.469500  -123.933000
  H    -91.739500   -2.536210  -124.373000
  H    -92.158100   -4.249360  -124.035000
  C    -90.055700   -3.837210  -124.477000
  H    -89.358300   -2.989120  -124.406000
  H    -89.628700   -4.624920  -123.904000
  C    -90.159200   -4.188760  -125.960000
  H    -90.779000   -5.007640  -126.185000
  H    -90.499100   -3.407640  -126.756000
  H    -89.190400   -4.513050  -126.164000
  S    -93.440800   -2.396410  -117.844000
  C    -93.799400   -3.583830  -116.695000
  C    -93.529000   -4.855450  -117.147000
  C    -92.826900   -4.877770  -118.376000
  C    -92.691600   -3.588040  -118.885000
  H    -93.758100   -5.661790  -116.452000
  C    -92.464600   -6.177490  -119.061000
  H    -91.447900   -5.994550  -119.398000
  H    -93.249500   -6.275070  -119.897000
  C    -92.440600   -7.486170  -118.211000
  H    -93.498500   -7.759970  -117.941000
  H    -91.775000   -7.321010  -117.365000
  C    -91.849400   -8.752270  -118.892000
  H    -91.941900   -9.575180  -118.262000
  H    -90.791700   -8.635920  -119.177000
  H    -92.415300   -9.088340  -119.747000
  H    -90.001900   -1.506880  -122.515000
  H    -94.320100   -3.432220  -115.793000

 Total Charge           Charge          ....    0
 Multiplicity           Mult            ....    1
 Number of Electrons    NEL             ....  134
 Basis Dimension        Dim             ....  322

ORBITAL ENERGIES
----------------

  NO   OCC          E(Eh)            E(eV)
   0   2.0000     -88.965040     -2420.8618
   1   2.0000     -88.962363     -2420.7890
   2   2.0000     -10.325148      -280.9616
   3   2.0000     -10.321065      -280.8504
   4   2.0000     -10.309860      -280.5456
   5   2.0000     -10.306530      -280.4550
   6   2.0000     -10.302075      -280.3337
   7   2.0000     -10.298946      -280.2486
   8   2.0000     -10.296820      -280.1907
   9   2.0000     -10.295767      -280.1621
  10   2.0000     -10.292575      -280.0752
  11   2.0000     -10.289687      -279.9966
  12   2.0000     -10.286722      -279.9159
  13   2.0000     -10.286533      -279.9108
  14   2.0000     -10.276025      -279.6249
  15   2.0000     -10.275550      -279.6119
  16   2.0000      -8.080865      -219.8915
  17   2.0000      -8.077319      -219.7950
  18   2.0000      -6.039142      -164.3334
  19   2.0000      -6.035750      -164.2411
  20   2.0000      -6.035209      -164.2264
  21   2.0000      -6.031823      -164.1343
  22   2.0000      -6.031671      -164.1301
  23   2.0000      -6.028287      -164.0380
  24   2.0000      -1.008630       -27.4462
  25   2.0000      -0.984584       -26.7919
  26   2.0000      -0.918484       -24.9932
  27   2.0000      -0.905930       -24.6516
  28   2.0000      -0.869487       -23.6600
  29   2.0000      -0.855220       -23.2717
  30   2.0000      -0.845105       -22.9965
  31   2.0000      -0.812303       -22.1039
  32   2.0000      -0.786751       -21.4086
  33   2.0000      -0.771415       -20.9913
  34   2.0000      -0.708098       -19.2683
  35   2.0000      -0.703637       -19.1469
  36   2.0000      -0.696002       -18.9392
  37   2.0000      -0.649656       -17.6780
  38   2.0000      -0.633031       -17.2257
  39   2.0000      -0.617796       -16.8111
  40   2.0000      -0.592247       -16.1159
  41   2.0000      -0.576836       -15.6965
  42   2.0000      -0.573260       -15.5992
  43   2.0000      -0.562866       -15.3164
  44   2.0000      -0.531716       -14.4687
  45   2.0000      -0.524435       -14.2706
  46   2.0000      -0.517110       -14.0713
  47   2.0000      -0.513771       -13.9804
  48   2.0000      -0.504374       -13.7247
  49   2.0000      -0.493305       -13.4235
  50   2.0000      -0.490122       -13.3369
  51   2.0000      -0.478406       -13.0181
  52   2.0000      -0.473314       -12.8795
  53   2.0000      -0.464098       -12.6288
  54   2.0000      -0.455755       -12.4017
  55   2.0000      -0.451525       -12.2866
  56   2.0000      -0.448609       -12.2073
  57   2.0000      -0.437979       -11.9180
  58   2.0000      -0.435729       -11.8568
  59   2.0000      -0.426777       -11.6132
  60   2.0000      -0.425280       -11.5725
  61   2.0000      -0.416237       -11.3264
  62   2.0000      -0.408825       -11.1247
  63   2.0000      -0.337720        -9.1898
  64   2.0000      -0.331408        -9.0181
  65   2.0000      -0.327926        -8.9233
  66   2.0000      -0.290758        -7.9119
  67   0.0000       0.032636         0.8881
  68   0.0000       0.072868         1.9828
  69   0.0000       0.121917         3.3175
  70   0.0000       0.125010         3.4017
  71   0.0000       0.131342         3.5740

MULLIKEN ATOMIC CHARGES
-----------------------
   0 S :    0.117297
   1 C :   -0.142646
   2 C :   -0.129074
   3 C :    0.043123
   4 C :   -0.163333
   5 H :   -0.007446
   6 C :    0.100467
   7 H :    0.036297
   8 H :    0.015334
   9 C :   -0.068839
  10 H :    0.029142
  11 H :    0.029191
  12 C :   -0.028028
  13 H :    0.013351
  14 H :    0.045393
  15 H :    0.015136
  16 S :    0.131815
  17 C :   -0.062910
  18 C :   -0.069648
  19 C :   -0.021146
  20 C :   -0.180160
  21 H :    0.022912
  22 C :    0.058711
  23 H :    0.037648
  24 H :    0.059613
  25 C :   -0.117939
  26 H :    0.041126
  27 H :    0.039270
  28 C :   -0.009707
  29 H :    0.016438
  30 H :    0.035566
  31 H :    0.018799
  32 H :    0.058504
  33 H :    0.035740
Sum of atomic charges:    0.0000000

LOEWDIN ATOMIC CHARGES
----------------------
   0 S :    0.416596
   1 C :   -0.215650
   2 C :   -0.065938
   3 C :   -0.063115
   4 C :   -0.200843
   5 H :    0.022930
   6 C :   -0.029970
   7 H :    0.037028
   8 H :    0.028583
   9 C :   -0.033521
  10 H :    0.027685
  11 H :    0.025410
  12 C :   -0.065787
  13 H :    0.015756
  14 H :    0.038856
  15 H :    0.019441
  16 S :    0.436858
  17 C :   -0.195876
  18 C :   -0.079476
  19 C :   -0.052425
  20 C :   -0.217066
  21 H :    0.032801
  22 C :   -0.036797
  23 H :    0.035607
  24 H :    0.043857
  25 C :   -0.042721
  26 H :    0.029137
  27 H :    0.026872
  28 C :   -0.060795
  29 H :    0.019265
  30 H :    0.027566
  31 H :    0.022114
  32 H :    0.032755
  33 H :    0.020863

  Mayer bond orders larger than 0.100000
B(  0-S ,  1-C ) :   1.1533 B(  0-S ,  4-C ) :   1.1663 B(  1-C ,  2-C ) :   1.5925
B(  1-C ,  4-C ) :   0.1035 B(  1-C , 32-H ) :   0.9595 B(  2-C ,  3-C ) :   1.2766
B(  2-C ,  6-C ) :   1.0011 B(  3-C ,  4-C ) :   1.5465 B(  3-C ,  5-H ) :   1.0004
B(  4-C , 20-C ) :   1.0337 B(  6-C ,  7-H ) :   0.9302 B(  6-C ,  8-H ) :   0.9430
B(  6-C ,  9-C ) :   1.0839 B(  9-C , 10-H ) :   0.9470 B(  9-C , 11-H ) :   0.9553
B(  9-C , 12-C ) :   1.0838 B( 12-C , 13-H ) :   0.9728 B( 12-C , 14-H ) :   0.9736
B( 12-C , 15-H ) :   0.9717 B( 16-S , 17-C ) :   1.1759 B( 16-S , 20-C ) :   1.1594
B( 17-C , 18-C ) :   1.5944 B( 17-C , 33-H ) :   0.9662 B( 18-C , 19-C ) :   1.2572
B( 18-C , 21-H ) :   0.9863 B( 19-C , 20-C ) :   1.5726 B( 19-C , 22-C ) :   1.0279
B( 22-C , 23-H ) :   0.9271 B( 22-C , 24-H ) :   0.9313 B( 22-C , 25-C ) :   1.0862
B( 25-C , 26-H ) :   0.9453 B( 25-C , 27-H ) :   0.9569 B( 25-C , 28-C ) :   1.0923
B( 28-C , 29-H ) :   0.9713 B( 28-C , 30-H ) :   0.9739 B( 28-C , 31-H ) :   0.9719

Dispersion correction           -0.013380355
FINAL SINGLE POINT ENERGY     -1339.874608528950

DIPOLE MOMENT
-------------
                                X             Y             Z
Electronic contribution:     -6.05591      23.35119      18.85501
Nuclear contribution   :      6.01411     -24.03390     -19.18115
                        -----------------------------------------
Total Dipole Moment    :     -0.04180      -0.68271      -0.32613
                        -----------------------------------------
Magnitude (a.u.)       :      0.75776
Magnitude (Debye)      :      1.92609

Rotational constants in cm-1:     0.017838     0.007921     0.005856
Rotational constants in MHz :   534.777617   237.465709   175.568764

                             ****ORCA TERMINATED NORMALLY****
TOTAL RUN TIME: 0 days 0 hours 0 minutes 20 seconds 770 msec
