                         Program Version 4.2.1 -  RELEASE  -
|  1> ! wB97X-D3 SP def2-SVP
|  2> %pal
|  3> nprocs 24
|  4> end
|  5>
|  6> * xyz 0 1
|  7> S 	 -121.695 	 49.0766 	 -35.9261
|  8> C 	 -123.05 	 48.0135 	 -36.2054
|  9> C 	 -123.986 	 48.0534 	 -35.1764
| 10> C 	 -123.717 	 49.0867 	 -34.2771
| 11> C 	 -122.496 	 49.6991 	 -34.447
| 12> H 	 -124.411 	 49.4412 	 -33.5566
| 13> C 	 -125.044 	 47.0349 	 -34.87
| 14> H 	 -125.02 	 46.4184 	 -35.7509
| 15> H 	 -125.932 	 47.6117 	 -34.8931
| 16> C 	 -124.814 	 46.1805 	 -33.5616
| 17> H 	 -125.043 	 46.8091 	 -32.6429
| 18> H 	 -125.52 	 45.3732 	 -33.6778
| 19> C 	 -123.418 	 45.571 	 -33.4555
| 20> H 	 -123.281 	 44.9784 	 -32.5832
| 21> H 	 -123.102 	 45.1209 	 -34.348
| 22> H 	 -122.763 	 46.4076 	 -33.3249
| 23> S 	 -121.609 	 52.2446 	 -34.1598
| 24> C 	 -120.856 	 52.7454 	 -32.6535
| 25> C 	 -120.806 	 51.7271 	 -31.7587
| 26> C 	 -121.473 	 50.5742 	 -32.2557
| 27> C 	 -121.819 	 50.5835 	 -33.5449
| 28> H 	 -120.338 	 51.9199 	 -30.809
| 29> C 	 -121.766 	 49.3838 	 -31.3606
| 30> H 	 -120.836 	 48.8007 	 -31.1952
| 31> H 	 -122.461 	 48.7812 	 -31.9498
| 32> C 	 -122.356 	 49.6305 	 -29.9887
| 33> H 	 -121.764 	 50.3064 	 -29.4424
| 34> H 	 -122.421 	 48.732 	 -29.4216
| 35> C 	 -123.727 	 50.2293 	 -30.1478
| 36> H 	 -124.367 	 49.4602 	 -30.7004
| 37> H 	 -123.688 	 51.1603 	 -30.7084
| 38> H 	 -124.286 	 50.468 	 -29.2257
| 39> H 	 -122.902 	 47.1732 	 -36.8508
| 40> H 	 -120.424 	 53.6681 	 -32.4147
| 41> *
| 42>
| 43>                          ****END OF INPUT****

CARTESIAN COORDINATES (ANGSTROEM)
---------------------------------
  S    -121.695000   49.076600  -35.926100
  C    -123.050000   48.013500  -36.205400
  C    -123.986000   48.053400  -35.176400
  C    -123.717000   49.086700  -34.277100
  C    -122.496000   49.699100  -34.447000
  H    -124.411000   49.441200  -33.556600
  C    -125.044000   47.034900  -34.870000
  H    -125.020000   46.418400  -35.750900
  H    -125.932000   47.611700  -34.893100
  C    -124.814000   46.180500  -33.561600
  H    -125.043000   46.809100  -32.642900
  H    -125.520000   45.373200  -33.677800
  C    -123.418000   45.571000  -33.455500
  H    -123.281000   44.978400  -32.583200
  H    -123.102000   45.120900  -34.348000
  H    -122.763000   46.407600  -33.324900
  S    -121.609000   52.244600  -34.159800
  C    -120.856000   52.745400  -32.653500
  C    -120.806000   51.727100  -31.758700
  C    -121.473000   50.574200  -32.255700
  C    -121.819000   50.583500  -33.544900
  H    -120.338000   51.919900  -30.809000
  C    -121.766000   49.383800  -31.360600
  H    -120.836000   48.800700  -31.195200
  H    -122.461000   48.781200  -31.949800
  C    -122.356000   49.630500  -29.988700
  H    -121.764000   50.306400  -29.442400
  H    -122.421000   48.732000  -29.421600
  C    -123.727000   50.229300  -30.147800
  H    -124.367000   49.460200  -30.700400
  H    -123.688000   51.160300  -30.708400
  H    -124.286000   50.468000  -29.225700
  H    -122.902000   47.173200  -36.850800
  H    -120.424000   53.668100  -32.414700

 Total Charge           Charge          ....    0
 Multiplicity           Mult            ....    1
 Number of Electrons    NEL             ....  134
 Basis Dimension        Dim             ....  322

ORBITAL ENERGIES
----------------

  NO   OCC          E(Eh)            E(eV)
   0   2.0000     -88.966109     -2420.8909
   1   2.0000     -88.958740     -2420.6904
   2   2.0000     -10.330945      -281.1193
   3   2.0000     -10.320818      -280.8437
   4   2.0000     -10.313300      -280.6391
   5   2.0000     -10.311755      -280.5971
   6   2.0000     -10.300042      -280.2784
   7   2.0000     -10.296772      -280.1894
   8   2.0000     -10.296504      -280.1821
   9   2.0000     -10.290200      -280.0106
  10   2.0000     -10.290108      -280.0081
  11   2.0000     -10.289587      -279.9939
  12   2.0000     -10.286801      -279.9181
  13   2.0000     -10.278707      -279.6978
  14   2.0000     -10.277740      -279.6715
  15   2.0000     -10.268444      -279.4186
  16   2.0000      -8.080450      -219.8802
  17   2.0000      -8.073490      -219.6908
  18   2.0000      -6.038835      -164.3251
  19   2.0000      -6.035108      -164.2236
  20   2.0000      -6.032133      -164.1427
  21   2.0000      -6.031245      -164.1185
  22   2.0000      -6.028077      -164.0323
  23   2.0000      -6.024003      -163.9214
  24   2.0000      -1.010094       -27.4861
  25   2.0000      -0.987411       -26.8688
  26   2.0000      -0.915823       -24.9208
  27   2.0000      -0.912528       -24.8312
  28   2.0000      -0.875847       -23.8330
  29   2.0000      -0.853465       -23.2240
  30   2.0000      -0.845741       -23.0138
  31   2.0000      -0.821126       -22.3440
  32   2.0000      -0.784603       -21.3501
  33   2.0000      -0.771696       -20.9989
  34   2.0000      -0.714962       -19.4551
  35   2.0000      -0.701014       -19.0756
  36   2.0000      -0.699420       -19.0322
  37   2.0000      -0.661729       -18.0066
  38   2.0000      -0.644515       -17.5382
  39   2.0000      -0.625289       -17.0150
  40   2.0000      -0.597729       -16.2650
  41   2.0000      -0.567874       -15.4526
  42   2.0000      -0.560316       -15.2470
  43   2.0000      -0.557515       -15.1708
  44   2.0000      -0.553741       -15.0681
  45   2.0000      -0.543604       -14.7922
  46   2.0000      -0.525554       -14.3011
  47   2.0000      -0.518992       -14.1225
  48   2.0000      -0.504424       -13.7261
  49   2.0000      -0.492601       -13.4044
  50   2.0000      -0.488701       -13.2982
  51   2.0000      -0.481508       -13.1025
  52   2.0000      -0.470578       -12.8051
  53   2.0000      -0.459170       -12.4947
  54   2.0000      -0.456264       -12.4156
  55   2.0000      -0.444789       -12.1033
  56   2.0000      -0.443870       -12.0783
  57   2.0000      -0.443583       -12.0705
  58   2.0000      -0.432764       -11.7761
  59   2.0000      -0.430657       -11.7188
  60   2.0000      -0.424280       -11.5452
  61   2.0000      -0.415794       -11.3143
  62   2.0000      -0.413592       -11.2544
  63   2.0000      -0.343323        -9.3423
  64   2.0000      -0.329738        -8.9726
  65   2.0000      -0.327010        -8.8984
  66   2.0000      -0.300116        -8.1666
  67   0.0000       0.032819         0.8930
  68   0.0000       0.059465         1.6181
  69   0.0000       0.112781         3.0689
  70   0.0000       0.117042         3.1849
  71   0.0000       0.124398         3.3851

MULLIKEN ATOMIC CHARGES
-----------------------
   0 S :    0.107634
   1 C :   -0.104219
   2 C :   -0.155639
   3 C :    0.051941
   4 C :   -0.162530
   5 H :    0.006465
   6 C :    0.105824
   7 H :    0.006828
   8 H :    0.030409
   9 C :   -0.089554
  10 H :    0.042507
  11 H :    0.034694
  12 C :   -0.003154
  13 H :    0.033596
  14 H :    0.016978
  15 H :    0.028380
  16 S :    0.085063
  17 C :   -0.051156
  18 C :   -0.041736
  19 C :   -0.042511
  20 C :   -0.143057
  21 H :    0.018380
  22 C :    0.062487
  23 H :    0.039972
  24 H :    0.006730
  25 C :   -0.012214
  26 H :    0.012355
  27 H :    0.023512
  28 C :   -0.092690
  29 H :    0.027138
  30 H :    0.044691
  31 H :    0.034598
  32 H :    0.047643
  33 H :    0.030637
Sum of atomic charges:    0.0000000

LOEWDIN ATOMIC CHARGES
----------------------
   0 S :    0.395043
   1 C :   -0.201742
   2 C :   -0.066354
   3 C :   -0.054010
   4 C :   -0.180220
   5 H :    0.028795
   6 C :   -0.026232
   7 H :    0.026712
   8 H :    0.030571
   9 C :   -0.032979
  10 H :    0.029648
  11 H :    0.022875
  12 C :   -0.057442
  13 H :    0.025708
  14 H :    0.019150
  15 H :    0.026315
  16 S :    0.379711
  17 C :   -0.160007
  18 C :   -0.074831
  19 C :   -0.054908
  20 C :   -0.190689
  21 H :    0.033379
  22 C :   -0.028879
  23 H :    0.036023
  24 H :    0.024609
  25 C :   -0.037245
  26 H :    0.014624
  27 H :    0.024443
  28 C :   -0.069814
  29 H :    0.026414
  30 H :    0.025970
  31 H :    0.024600
  32 H :    0.020596
  33 H :    0.020166

  Mayer bond orders larger than 0.100000
B(  0-S ,  1-C ) :   1.1410 B(  0-S ,  4-C ) :   1.1507 B(  1-C ,  2-C ) :   1.6159
B(  1-C ,  4-C ) :   0.1013 B(  1-C , 32-H ) :   0.9594 B(  2-C ,  3-C ) :   1.2413
B(  2-C ,  6-C ) :   1.0168 B(  3-C ,  4-C ) :   1.5759 B(  3-C ,  5-H ) :   1.0013
B(  4-C , 20-C ) :   1.0166 B(  6-C ,  7-H ) :   0.9357 B(  6-C ,  8-H ) :   0.9352
B(  6-C ,  9-C ) :   1.0605 B(  9-C , 10-H ) :   0.9540 B(  9-C , 11-H ) :   0.9581
B(  9-C , 12-C ) :   1.0802 B( 12-C , 13-H ) :   0.9718 B( 12-C , 14-H ) :   0.9732
B( 12-C , 15-H ) :   0.9655 B( 16-S , 17-C ) :   1.1473 B( 16-S , 20-C ) :   1.1062
B( 17-C , 18-C ) :   1.6535 B( 17-C , 33-H ) :   0.9679 B( 18-C , 19-C ) :   1.1786
B( 18-C , 21-H ) :   0.9975 B( 19-C , 20-C ) :   1.6737 B( 19-C , 22-C ) :   1.0358
B( 22-C , 23-H ) :   0.9283 B( 22-C , 24-H ) :   0.9358 B( 22-C , 25-C ) :   1.0825
B( 25-C , 26-H ) :   0.9479 B( 25-C , 27-H ) :   0.9505 B( 25-C , 28-C ) :   1.0782
B( 28-C , 29-H ) :   0.9717 B( 28-C , 30-H ) :   0.9745 B( 28-C , 31-H ) :   0.9729

Dispersion correction           -0.016582318
FINAL SINGLE POINT ENERGY     -1339.871194832073

DIPOLE MOMENT
-------------
                                X             Y             Z
Electronic contribution:     11.83331      17.02234     -18.74373
Nuclear contribution   :    -12.01194     -17.43589      19.43983
                        -----------------------------------------
Total Dipole Moment    :     -0.17863      -0.41355       0.69611
                        -----------------------------------------
Magnitude (a.u.)       :      0.82915
Magnitude (Debye)      :      2.10754

Rotational constants in cm-1:     0.018845     0.010774     0.007726
Rotational constants in MHz :   564.956904   323.009847   231.623659

                             ****ORCA TERMINATED NORMALLY****
TOTAL RUN TIME: 0 days 0 hours 0 minutes 23 seconds 660 msec
