                         Program Version 4.2.1 -  RELEASE  -
|  1> ! wB97X-D3 SP def2-SVP
|  2> %pal
|  3> nprocs 24
|  4> end
|  5>
|  6> * xyz 0 1
|  7> S 	 -91.3916 	 -33.8457 	 -59.8076
|  8> C 	 -90.9303 	 -35.0226 	 -58.5207
|  9> C 	 -89.926 	 -34.4884 	 -57.7712
| 10> C 	 -89.7906 	 -33.073 	 -57.9472
| 11> C 	 -90.5986 	 -32.5541 	 -58.9084
| 12> H 	 -89.1025 	 -32.5178 	 -57.315
| 13> C 	 -88.9421 	 -35.2976 	 -56.9396
| 14> H 	 -88.0127 	 -34.8517 	 -57.122
| 15> H 	 -88.8977 	 -36.3534 	 -57.3561
| 16> C 	 -89.3587 	 -35.461 	 -55.4817
| 17> H 	 -89.5718 	 -34.4793 	 -55.2147
| 18> H 	 -90.3766 	 -35.9553 	 -55.3116
| 19> C 	 -88.2811 	 -36.1587 	 -54.5605
| 20> H 	 -87.3006 	 -35.7311 	 -54.8076
| 21> H 	 -88.4519 	 -35.8561 	 -53.5081
| 22> H 	 -88.2145 	 -37.2471 	 -54.664
| 23> S 	 -89.9932 	 -30.9498 	 -61.1748
| 24> C 	 -90.3446 	 -29.268 	 -61.0512
| 25> C 	 -90.8025 	 -28.921 	 -59.8201
| 26> C 	 -91.0007 	 -30.0548 	 -58.9604
| 27> C 	 -90.5136 	 -31.2461 	 -59.468
| 28> H 	 -90.9 	 -27.8641 	 -59.7535
| 29> C 	 -91.5267 	 -29.826 	 -57.5795
| 30> H 	 -91.2968 	 -30.8134 	 -57.082
| 31> H 	 -92.5821 	 -29.7061 	 -57.5616
| 32> C 	 -90.679 	 -28.8807 	 -56.7121
| 33> H 	 -90.7766 	 -27.8654 	 -57.0299
| 34> H 	 -89.6252 	 -29.1187 	 -56.7405
| 35> C 	 -91.24 	 -28.9955 	 -55.2694
| 36> H 	 -90.6114 	 -28.4103 	 -54.6523
| 37> H 	 -91.299 	 -29.995 	 -54.8992
| 38> H 	 -92.2349 	 -28.6671 	 -55.0416
| 39> H 	 -90.9948 	 -36.0559 	 -58.5283
| 40> H 	 -90.0452 	 -28.5757 	 -61.8033
| 41> *
| 42>
| 43>                          ****END OF INPUT****

CARTESIAN COORDINATES (ANGSTROEM)
---------------------------------
  S    -91.391600  -33.845700  -59.807600
  C    -90.930300  -35.022600  -58.520700
  C    -89.926000  -34.488400  -57.771200
  C    -89.790600  -33.073000  -57.947200
  C    -90.598600  -32.554100  -58.908400
  H    -89.102500  -32.517800  -57.315000
  C    -88.942100  -35.297600  -56.939600
  H    -88.012700  -34.851700  -57.122000
  H    -88.897700  -36.353400  -57.356100
  C    -89.358700  -35.461000  -55.481700
  H    -89.571800  -34.479300  -55.214700
  H    -90.376600  -35.955300  -55.311600
  C    -88.281100  -36.158700  -54.560500
  H    -87.300600  -35.731100  -54.807600
  H    -88.451900  -35.856100  -53.508100
  H    -88.214500  -37.247100  -54.664000
  S    -89.993200  -30.949800  -61.174800
  C    -90.344600  -29.268000  -61.051200
  C    -90.802500  -28.921000  -59.820100
  C    -91.000700  -30.054800  -58.960400
  C    -90.513600  -31.246100  -59.468000
  H    -90.900000  -27.864100  -59.753500
  C    -91.526700  -29.826000  -57.579500
  H    -91.296800  -30.813400  -57.082000
  H    -92.582100  -29.706100  -57.561600
  C    -90.679000  -28.880700  -56.712100
  H    -90.776600  -27.865400  -57.029900
  H    -89.625200  -29.118700  -56.740500
  C    -91.240000  -28.995500  -55.269400
  H    -90.611400  -28.410300  -54.652300
  H    -91.299000  -29.995000  -54.899200
  H    -92.234900  -28.667100  -55.041600
  H    -90.994800  -36.055900  -58.528300
  H    -90.045200  -28.575700  -61.803300

 Total Charge           Charge          ....    0
 Multiplicity           Mult            ....    1
 Number of Electrons    NEL             ....  134
 Basis Dimension        Dim             ....  322

ORBITAL ENERGIES
----------------

  NO   OCC          E(Eh)            E(eV)
   0   2.0000     -88.965308     -2420.8691
   1   2.0000     -88.961152     -2420.7560
   2   2.0000     -10.328482      -281.0523
   3   2.0000     -10.325682      -280.9761
   4   2.0000     -10.310774      -280.5704
   5   2.0000     -10.308838      -280.5178
   6   2.0000     -10.302057      -280.3332
   7   2.0000     -10.297579      -280.2114
   8   2.0000     -10.295211      -280.1469
   9   2.0000     -10.294080      -280.1162
  10   2.0000     -10.290205      -280.0107
  11   2.0000     -10.287244      -279.9301
  12   2.0000     -10.287061      -279.9252
  13   2.0000     -10.286787      -279.9177
  14   2.0000     -10.285271      -279.8765
  15   2.0000     -10.269168      -279.4383
  16   2.0000      -8.079149      -219.8448
  17   2.0000      -8.075857      -219.7553
  18   2.0000      -6.037932      -164.3005
  19   2.0000      -6.034420      -164.2049
  20   2.0000      -6.034082      -164.1957
  21   2.0000      -6.030404      -164.0956
  22   2.0000      -6.029335      -164.0665
  23   2.0000      -6.026520      -163.9899
  24   2.0000      -1.006910       -27.3994
  25   2.0000      -0.983816       -26.7710
  26   2.0000      -0.913035       -24.8449
  27   2.0000      -0.910725       -24.7821
  28   2.0000      -0.873523       -23.7698
  29   2.0000      -0.849454       -23.1148
  30   2.0000      -0.841186       -22.8898
  31   2.0000      -0.818898       -22.2833
  32   2.0000      -0.783564       -21.3219
  33   2.0000      -0.772588       -21.0232
  34   2.0000      -0.715648       -19.4738
  35   2.0000      -0.706836       -19.2340
  36   2.0000      -0.705684       -19.2026
  37   2.0000      -0.654139       -17.8000
  38   2.0000      -0.639687       -17.4068
  39   2.0000      -0.624520       -16.9940
  40   2.0000      -0.596729       -16.2378
  41   2.0000      -0.573494       -15.6056
  42   2.0000      -0.565687       -15.3931
  43   2.0000      -0.558249       -15.1907
  44   2.0000      -0.532299       -14.4846
  45   2.0000      -0.524668       -14.2769
  46   2.0000      -0.520957       -14.1760
  47   2.0000      -0.508926       -13.8486
  48   2.0000      -0.506490       -13.7823
  49   2.0000      -0.500277       -13.6132
  50   2.0000      -0.496174       -13.5016
  51   2.0000      -0.478887       -13.0312
  52   2.0000      -0.471559       -12.8318
  53   2.0000      -0.466214       -12.6863
  54   2.0000      -0.462465       -12.5843
  55   2.0000      -0.446369       -12.1463
  56   2.0000      -0.440854       -11.9963
  57   2.0000      -0.439858       -11.9691
  58   2.0000      -0.437728       -11.9112
  59   2.0000      -0.423470       -11.5232
  60   2.0000      -0.414540       -11.2802
  61   2.0000      -0.413138       -11.2421
  62   2.0000      -0.411476       -11.1968
  63   2.0000      -0.344023        -9.3614
  64   2.0000      -0.330181        -8.9847
  65   2.0000      -0.326237        -8.8774
  66   2.0000      -0.298861        -8.1324
  67   0.0000       0.031279         0.8511
  68   0.0000       0.058901         1.6028
  69   0.0000       0.100235         2.7275
  70   0.0000       0.124176         3.3790
  71   0.0000       0.133729         3.6390

MULLIKEN ATOMIC CHARGES
-----------------------
   0 S :    0.094641
   1 C :   -0.054938
   2 C :   -0.145142
   3 C :    0.045462
   4 C :   -0.140497
   5 H :    0.013314
   6 C :    0.067710
   7 H :    0.019415
   8 H :    0.026837
   9 C :   -0.065347
  10 H :    0.001742
  11 H :    0.039136
  12 C :   -0.048259
  13 H :    0.023781
  14 H :    0.041998
  15 H :    0.047262
  16 S :    0.090322
  17 C :   -0.094168
  18 C :   -0.015206
  19 C :   -0.033541
  20 C :   -0.145448
  21 H :    0.008890
  22 C :    0.055446
  23 H :    0.020635
  24 H :    0.037313
  25 C :   -0.054326
  26 H :    0.026756
  27 H :    0.033610
  28 C :   -0.019131
  29 H :    0.018316
  30 H :    0.015552
  31 H :    0.018637
  32 H :    0.017739
  33 H :    0.051489
Sum of atomic charges:    0.0000000

LOEWDIN ATOMIC CHARGES
----------------------
   0 S :    0.380866
   1 C :   -0.170434
   2 C :   -0.058953
   3 C :   -0.056250
   4 C :   -0.184931
   5 H :    0.031143
   6 C :   -0.027529
   7 H :    0.024208
   8 H :    0.034001
   9 C :   -0.043494
  10 H :    0.011118
  11 H :    0.034427
  12 C :   -0.068829
  13 H :    0.024134
  14 H :    0.031955
  15 H :    0.027476
  16 S :    0.380730
  17 C :   -0.178107
  18 C :   -0.076710
  19 C :   -0.048954
  20 C :   -0.189991
  21 H :    0.031012
  22 C :   -0.034790
  23 H :    0.035668
  24 H :    0.029598
  25 C :   -0.025225
  26 H :    0.017428
  27 H :    0.027545
  28 C :   -0.061389
  29 H :    0.019731
  30 H :    0.020769
  31 H :    0.024230
  32 H :    0.014469
  33 H :    0.025078

  Mayer bond orders larger than 0.100000
B(  0-S ,  1-C ) :   1.1087 B(  0-S ,  4-C ) :   1.1307 B(  1-C ,  2-C ) :   1.6667
B(  1-C , 32-H ) :   0.9649 B(  2-C ,  3-C ) :   1.2259 B(  2-C ,  6-C ) :   1.0189
B(  3-C ,  4-C ) :   1.5765 B(  3-C ,  5-H ) :   0.9941 B(  4-C , 20-C ) :   1.0648
B(  6-C ,  7-H ) :   0.9412 B(  6-C ,  8-H ) :   0.9417 B(  6-C ,  9-C ) :   1.0565
B(  9-C , 10-H ) :   0.9567 B(  9-C , 11-H ) :   0.9553 B(  9-C , 12-C ) :   1.0681
B( 12-C , 13-H ) :   0.9756 B( 12-C , 14-H ) :   0.9763 B( 12-C , 15-H ) :   0.9782
B( 16-S , 17-C ) :   1.1566 B( 16-S , 20-C ) :   1.1076 B( 17-C , 18-C ) :   1.6476
B( 17-C , 33-H ) :   0.9636 B( 18-C , 19-C ) :   1.1821 B( 18-C , 21-H ) :   1.0010
B( 19-C , 20-C ) :   1.6257 B( 19-C , 22-C ) :   1.0452 B( 22-C , 23-H ) :   0.9372
B( 22-C , 24-H ) :   0.9337 B( 22-C , 25-C ) :   1.0613 B( 25-C , 26-H ) :   0.9521
B( 25-C , 27-H ) :   0.9559 B( 25-C , 28-C ) :   1.0814 B( 28-C , 29-H ) :   0.9731
B( 28-C , 30-H ) :   0.9749 B( 28-C , 31-H ) :   0.9732

Dispersion correction           -0.013674992
FINAL SINGLE POINT ENERGY     -1339.849948654685

DIPOLE MOMENT
-------------
                                X             Y             Z
Electronic contribution:     -5.57895       1.00009     -30.14410
Nuclear contribution   :      5.94350      -0.79303      30.74026
                        -----------------------------------------
Total Dipole Moment    :      0.36455       0.20706       0.59616
                        -----------------------------------------
Magnitude (a.u.)       :      0.72882
Magnitude (Debye)      :      1.85252

Rotational constants in cm-1:     0.017546     0.008387     0.006280
Rotational constants in MHz :   526.027097   251.424153   188.271985

                             ****ORCA TERMINATED NORMALLY****
TOTAL RUN TIME: 0 days 0 hours 0 minutes 21 seconds 246 msec
