                         Program Version 4.2.1 -  RELEASE  -
|  1> ! wB97X-D3 SP def2-SVP
|  2> %pal
|  3> nprocs 24
|  4> end
|  5>
|  6> * xyz 0 1
|  7> S 	 14.353 	 -9.53934 	 -122.543
|  8> C 	 12.736 	 -9.03044 	 -122.983
|  9> C 	 12.2299 	 -9.68795 	 -124.113
| 10> C 	 13.0791 	 -10.7061 	 -124.584
| 11> C 	 14.2569 	 -10.7543 	 -123.832
| 12> H 	 12.9742 	 -11.3382 	 -125.364
| 13> C 	 11.0331 	 -9.17097 	 -124.826
| 14> H 	 11.3482 	 -9.07694 	 -125.857
| 15> H 	 10.7329 	 -8.15527 	 -124.537
| 16> C 	 9.88998 	 -10.1739 	 -124.623
| 17> H 	 9.06618 	 -9.86967 	 -125.183
| 18> H 	 10.2009 	 -11.0593 	 -125.209
| 19> C 	 9.4384 	 -10.5389 	 -123.235
| 20> H 	 10.2114 	 -11.0437 	 -122.725
| 21> H 	 9.20154 	 -9.70006 	 -122.627
| 22> H 	 8.5618 	 -11.0292 	 -123.184
| 23> S 	 16.7848 	 -10.8586 	 -124.707
| 24> C 	 17.4686 	 -12.3851 	 -125.218
| 25> C 	 16.518 	 -13.3818 	 -125.033
| 26> C 	 15.3902 	 -13.0066 	 -124.279
| 27> C 	 15.3709 	 -11.6274 	 -124.091
| 28> H 	 16.7813 	 -14.3257 	 -125.412
| 29> C 	 14.3461 	 -13.9768 	 -123.899
| 30> H 	 13.4602 	 -13.5854 	 -124.325
| 31> H 	 14.3087 	 -13.9373 	 -122.802
| 32> C 	 14.476 	 -15.5216 	 -124.276
| 33> H 	 13.7306 	 -15.9842 	 -123.557
| 34> H 	 15.4518 	 -15.9115 	 -123.979
| 35> C 	 14.0152 	 -15.9526 	 -125.648
| 36> H 	 12.9755 	 -15.8176 	 -125.705
| 37> H 	 14.2327 	 -16.9374 	 -125.776
| 38> H 	 14.5455 	 -15.3805 	 -126.404
| 39> H 	 12.1214 	 -8.28296 	 -122.426
| 40> H 	 18.4712 	 -12.5891 	 -125.592
| 41> *
| 42>
| 43>                          ****END OF INPUT****

CARTESIAN COORDINATES (ANGSTROEM)
---------------------------------
  S     14.353000   -9.539340  -122.543000
  C     12.736000   -9.030440  -122.983000
  C     12.229900   -9.687950  -124.113000
  C     13.079100  -10.706100  -124.584000
  C     14.256900  -10.754300  -123.832000
  H     12.974200  -11.338200  -125.364000
  C     11.033100   -9.170970  -124.826000
  H     11.348200   -9.076940  -125.857000
  H     10.732900   -8.155270  -124.537000
  C      9.889980  -10.173900  -124.623000
  H      9.066180   -9.869670  -125.183000
  H     10.200900  -11.059300  -125.209000
  C      9.438400  -10.538900  -123.235000
  H     10.211400  -11.043700  -122.725000
  H      9.201540   -9.700060  -122.627000
  H      8.561800  -11.029200  -123.184000
  S     16.784800  -10.858600  -124.707000
  C     17.468600  -12.385100  -125.218000
  C     16.518000  -13.381800  -125.033000
  C     15.390200  -13.006600  -124.279000
  C     15.370900  -11.627400  -124.091000
  H     16.781300  -14.325700  -125.412000
  C     14.346100  -13.976800  -123.899000
  H     13.460200  -13.585400  -124.325000
  H     14.308700  -13.937300  -122.802000
  C     14.476000  -15.521600  -124.276000
  H     13.730600  -15.984200  -123.557000
  H     15.451800  -15.911500  -123.979000
  C     14.015200  -15.952600  -125.648000
  H     12.975500  -15.817600  -125.705000
  H     14.232700  -16.937400  -125.776000
  H     14.545500  -15.380500  -126.404000
  H     12.121400   -8.282960  -122.426000
  H     18.471200  -12.589100  -125.592000

 Total Charge           Charge          ....    0
 Multiplicity           Mult            ....    1
 Number of Electrons    NEL             ....  134
 Basis Dimension        Dim             ....  322

ORBITAL ENERGIES
----------------

  NO   OCC          E(Eh)            E(eV)
   0   2.0000     -88.967706     -2420.9344
   1   2.0000     -88.961917     -2420.7768
   2   2.0000     -10.327423      -281.0235
   3   2.0000     -10.315642      -280.7029
   4   2.0000     -10.313892      -280.6553
   5   2.0000     -10.313673      -280.6493
   6   2.0000     -10.297097      -280.1983
   7   2.0000     -10.296922      -280.1935
   8   2.0000     -10.293597      -280.1030
   9   2.0000     -10.289007      -279.9781
  10   2.0000     -10.288655      -279.9685
  11   2.0000     -10.287783      -279.9448
  12   2.0000     -10.284840      -279.8647
  13   2.0000     -10.278688      -279.6973
  14   2.0000     -10.267487      -279.3925
  15   2.0000     -10.259408      -279.1727
  16   2.0000      -8.081895      -219.9195
  17   2.0000      -8.077140      -219.7902
  18   2.0000      -6.040184      -164.3618
  19   2.0000      -6.036544      -164.2627
  20   2.0000      -6.035532      -164.2352
  21   2.0000      -6.032874      -164.1628
  22   2.0000      -6.031484      -164.1250
  23   2.0000      -6.028084      -164.0325
  24   2.0000      -1.007949       -27.4277
  25   2.0000      -0.982525       -26.7359
  26   2.0000      -0.916695       -24.9445
  27   2.0000      -0.908524       -24.7222
  28   2.0000      -0.867943       -23.6179
  29   2.0000      -0.858968       -23.3737
  30   2.0000      -0.852408       -23.1952
  31   2.0000      -0.817556       -22.2468
  32   2.0000      -0.789606       -21.4863
  33   2.0000      -0.773675       -21.0528
  34   2.0000      -0.712940       -19.4001
  35   2.0000      -0.700456       -19.0604
  36   2.0000      -0.693377       -18.8677
  37   2.0000      -0.656677       -17.8691
  38   2.0000      -0.644506       -17.5379
  39   2.0000      -0.622560       -16.9407
  40   2.0000      -0.595445       -16.2029
  41   2.0000      -0.573594       -15.6083
  42   2.0000      -0.557839       -15.1796
  43   2.0000      -0.548817       -14.9341
  44   2.0000      -0.546466       -14.8701
  45   2.0000      -0.540010       -14.6944
  46   2.0000      -0.527824       -14.3628
  47   2.0000      -0.511757       -13.9256
  48   2.0000      -0.508320       -13.8321
  49   2.0000      -0.498723       -13.5709
  50   2.0000      -0.490437       -13.3455
  51   2.0000      -0.482387       -13.1264
  52   2.0000      -0.473228       -12.8772
  53   2.0000      -0.470748       -12.8097
  54   2.0000      -0.464927       -12.6513
  55   2.0000      -0.453569       -12.3422
  56   2.0000      -0.447666       -12.1816
  57   2.0000      -0.440417       -11.9844
  58   2.0000      -0.435117       -11.8401
  59   2.0000      -0.419106       -11.4045
  60   2.0000      -0.416177       -11.3247
  61   2.0000      -0.413038       -11.2393
  62   2.0000      -0.412651       -11.2288
  63   2.0000      -0.340733        -9.2718
  64   2.0000      -0.330557        -8.9949
  65   2.0000      -0.322645        -8.7796
  66   2.0000      -0.287156        -7.8139
  67   0.0000       0.031993         0.8706
  68   0.0000       0.064480         1.7546
  69   0.0000       0.111016         3.0209
  70   0.0000       0.127266         3.4631
  71   0.0000       0.132192         3.5971

MULLIKEN ATOMIC CHARGES
-----------------------
   0 S :    0.121402
   1 C :   -0.130667
   2 C :   -0.097296
   3 C :    0.093771
   4 C :   -0.195155
   5 H :   -0.027991
   6 C :    0.083984
   7 H :    0.031294
   8 H :    0.019128
   9 C :   -0.077869
  10 H :    0.003129
  11 H :    0.017146
  12 C :    0.043684
  13 H :    0.030581
  14 H :    0.002912
  15 H :    0.003931
  16 S :    0.115650
  17 C :   -0.096574
  18 C :   -0.050448
  19 C :   -0.035434
  20 C :   -0.149438
  21 H :   -0.001701
  22 C :    0.096367
  23 H :    0.007126
  24 H :    0.044846
  25 C :   -0.129214
  26 H :    0.033201
  27 H :    0.030961
  28 C :    0.036902
  29 H :    0.021100
  30 H :    0.014270
  31 H :    0.025010
  32 H :    0.058328
  33 H :    0.057062
Sum of atomic charges:    0.0000000

LOEWDIN ATOMIC CHARGES
----------------------
   0 S :    0.399348
   1 C :   -0.208721
   2 C :   -0.060234
   3 C :   -0.040929
   4 C :   -0.183047
   5 H :    0.014471
   6 C :   -0.025798
   7 H :    0.035450
   8 H :    0.027522
   9 C :   -0.038785
  10 H :    0.012427
  11 H :    0.024674
  12 C :   -0.051338
  13 H :    0.024492
  14 H :    0.024193
  15 H :    0.015592
  16 S :    0.423868
  17 C :   -0.192723
  18 C :   -0.070939
  19 C :   -0.058473
  20 C :   -0.221923
  21 H :    0.020117
  22 C :   -0.030577
  23 H :    0.025504
  24 H :    0.043916
  25 C :   -0.040442
  26 H :    0.033478
  27 H :    0.020151
  28 C :   -0.051186
  29 H :    0.022078
  30 H :    0.016810
  31 H :    0.024805
  32 H :    0.033534
  33 H :    0.032683

  Mayer bond orders larger than 0.100000
B(  0-S ,  1-C ) :   1.1378 B(  0-S ,  4-C ) :   1.1576 B(  1-C ,  2-C ) :   1.5981
B(  1-C ,  4-C ) :   0.1021 B(  1-C , 32-H ) :   0.9616 B(  2-C ,  3-C ) :   1.2350
B(  2-C ,  6-C ) :   1.0211 B(  3-C ,  4-C ) :   1.5653 B(  3-C ,  5-H ) :   1.0075
B(  4-C , 20-C ) :   1.0252 B(  6-C ,  7-H ) :   0.9412 B(  6-C ,  8-H ) :   0.9463
B(  6-C ,  9-C ) :   1.0671 B(  9-C , 10-H ) :   0.9537 B(  9-C , 11-H ) :   0.9550
B(  9-C , 12-C ) :   1.0814 B( 12-C , 13-H ) :   0.9687 B( 12-C , 14-H ) :   0.9643
B( 12-C , 15-H ) :   0.9657 B( 16-S , 17-C ) :   1.1647 B( 16-S , 20-C ) :   1.1653
B( 17-C , 18-C ) :   1.5797 B( 17-C , 20-C ) :   0.1069 B( 17-C , 33-H ) :   0.9661
B( 18-C , 19-C ) :   1.2715 B( 18-C , 21-H ) :   0.9924 B( 19-C , 20-C ) :   1.5482
B( 19-C , 22-C ) :   1.0291 B( 22-C , 23-H ) :   0.9209 B( 22-C , 24-H ) :   0.9262
B( 22-C , 25-C ) :   1.0858 B( 25-C , 26-H ) :   0.9557 B( 25-C , 27-H ) :   0.9539
B( 25-C , 28-C ) :   1.0808 B( 28-C , 29-H ) :   0.9705 B( 28-C , 30-H ) :   0.9687
B( 28-C , 31-H ) :   0.9759

Dispersion correction           -0.014609885
FINAL SINGLE POINT ENERGY     -1339.850049861883

DIPOLE MOMENT
-------------
                                X             Y             Z
Electronic contribution:     22.25239      16.09089       5.13031
Nuclear contribution   :    -22.77192     -16.53302      -5.43370
                        -----------------------------------------
Total Dipole Moment    :     -0.51953      -0.44213      -0.30339
                        -----------------------------------------
Magnitude (a.u.)       :      0.74662
Magnitude (Debye)      :      1.89775

Rotational constants in cm-1:     0.017935     0.009178     0.006804
Rotational constants in MHz :   537.682490   275.137536   203.991005

                             ****ORCA TERMINATED NORMALLY****
TOTAL RUN TIME: 0 days 0 hours 0 minutes 21 seconds 893 msec
