                         Program Version 4.2.1 -  RELEASE  -
|  1> ! wB97X-D3 SP def2-SVP
|  2> %pal
|  3> nprocs 24
|  4> end
|  5>
|  6> * xyz 0 1
|  7> S 	 -49.5354 	 10.7263 	 -15.483
|  8> C 	 -48.8247 	 9.68353 	 -14.2385
|  9> C 	 -48.6107 	 8.4102 	 -14.788
| 10> C 	 -48.8517 	 8.31529 	 -16.2085
| 11> C 	 -49.4231 	 9.47706 	 -16.6929
| 12> H 	 -48.6801 	 7.55396 	 -16.9498
| 13> C 	 -48.0997 	 7.36798 	 -13.8615
| 14> H 	 -48.9349 	 7.24392 	 -13.0911
| 15> H 	 -47.31 	 7.78287 	 -13.2604
| 16> C 	 -47.5965 	 6.07837 	 -14.3995
| 17> H 	 -47.3208 	 5.483 	 -13.4881
| 18> H 	 -48.4527 	 5.4685 	 -14.8299
| 19> C 	 -46.3946 	 6.21173 	 -15.347
| 20> H 	 -45.9435 	 5.20041 	 -15.562
| 21> H 	 -46.7487 	 6.52884 	 -16.317
| 22> H 	 -45.6069 	 6.86699 	 -14.9428
| 23> S 	 -48.9924 	 9.0791 	 -19.4196
| 24> C 	 -50.165 	 9.50394 	 -20.6584
| 25> C 	 -51.2558 	 10.0496 	 -20.017
| 26> C 	 -51.1288 	 10.1829 	 -18.5921
| 27> C 	 -49.9552 	 9.64101 	 -18.0496
| 28> H 	 -52.1036 	 10.2516 	 -20.6012
| 29> C 	 -52.4064 	 10.5907 	 -17.8734
| 30> H 	 -52.5106 	 9.69905 	 -17.1985
| 31> H 	 -53.2787 	 10.4448 	 -18.6008
| 32> C 	 -52.3711 	 11.9173 	 -17.0879
| 33> H 	 -52.1762 	 12.6815 	 -17.7841
| 34> H 	 -51.5978 	 11.9048 	 -16.3936
| 35> C 	 -53.7088 	 12.0722 	 -16.3679
| 36> H 	 -54.5593 	 11.9626 	 -17.0689
| 37> H 	 -53.5508 	 13.0326 	 -16.0046
| 38> H 	 -53.8813 	 11.3885 	 -15.5796
| 39> H 	 -48.4399 	 10.0598 	 -13.2675
| 40> H 	 -50.1951 	 9.2885 	 -21.7326
| 41> *
| 42>
| 43>                          ****END OF INPUT****

CARTESIAN COORDINATES (ANGSTROEM)
---------------------------------
  S    -49.535400   10.726300  -15.483000
  C    -48.824700    9.683530  -14.238500
  C    -48.610700    8.410200  -14.788000
  C    -48.851700    8.315290  -16.208500
  C    -49.423100    9.477060  -16.692900
  H    -48.680100    7.553960  -16.949800
  C    -48.099700    7.367980  -13.861500
  H    -48.934900    7.243920  -13.091100
  H    -47.310000    7.782870  -13.260400
  C    -47.596500    6.078370  -14.399500
  H    -47.320800    5.483000  -13.488100
  H    -48.452700    5.468500  -14.829900
  C    -46.394600    6.211730  -15.347000
  H    -45.943500    5.200410  -15.562000
  H    -46.748700    6.528840  -16.317000
  H    -45.606900    6.866990  -14.942800
  S    -48.992400    9.079100  -19.419600
  C    -50.165000    9.503940  -20.658400
  C    -51.255800   10.049600  -20.017000
  C    -51.128800   10.182900  -18.592100
  C    -49.955200    9.641010  -18.049600
  H    -52.103600   10.251600  -20.601200
  C    -52.406400   10.590700  -17.873400
  H    -52.510600    9.699050  -17.198500
  H    -53.278700   10.444800  -18.600800
  C    -52.371100   11.917300  -17.087900
  H    -52.176200   12.681500  -17.784100
  H    -51.597800   11.904800  -16.393600
  C    -53.708800   12.072200  -16.367900
  H    -54.559300   11.962600  -17.068900
  H    -53.550800   13.032600  -16.004600
  H    -53.881300   11.388500  -15.579600
  H    -48.439900   10.059800  -13.267500
  H    -50.195100    9.288500  -21.732600

 Total Charge           Charge          ....    0
 Multiplicity           Mult            ....    1
 Number of Electrons    NEL             ....  134
 Basis Dimension        Dim             ....  322

ORBITAL ENERGIES
----------------

  NO   OCC          E(Eh)            E(eV)
   0   2.0000     -88.970240     -2421.0033
   1   2.0000     -88.963891     -2420.8305
   2   2.0000     -10.335055      -281.2312
   3   2.0000     -10.331743      -281.1410
   4   2.0000     -10.319228      -280.8005
   5   2.0000     -10.317592      -280.7560
   6   2.0000     -10.308964      -280.5212
   7   2.0000     -10.301262      -280.3116
   8   2.0000     -10.300685      -280.2959
   9   2.0000     -10.291963      -280.0586
  10   2.0000     -10.291734      -280.0523
  11   2.0000     -10.290071      -280.0071
  12   2.0000     -10.286657      -279.9142
  13   2.0000     -10.283368      -279.8247
  14   2.0000     -10.271920      -279.5132
  15   2.0000     -10.265466      -279.3375
  16   2.0000      -8.083956      -219.9756
  17   2.0000      -8.077895      -219.8107
  18   2.0000      -6.042491      -164.4245
  19   2.0000      -6.038451      -164.3146
  20   2.0000      -6.036680      -164.2664
  21   2.0000      -6.034910      -164.2182
  22   2.0000      -6.032294      -164.1471
  23   2.0000      -6.028610      -164.0468
  24   2.0000      -1.004720       -27.3398
  25   2.0000      -0.982156       -26.7258
  26   2.0000      -0.918610       -24.9967
  27   2.0000      -0.906436       -24.6654
  28   2.0000      -0.871428       -23.7128
  29   2.0000      -0.850109       -23.1326
  30   2.0000      -0.843873       -22.9630
  31   2.0000      -0.820670       -22.3316
  32   2.0000      -0.782013       -21.2797
  33   2.0000      -0.765010       -20.8170
  34   2.0000      -0.712834       -19.3972
  35   2.0000      -0.696798       -18.9608
  36   2.0000      -0.687550       -18.7092
  37   2.0000      -0.665112       -18.0986
  38   2.0000      -0.638127       -17.3643
  39   2.0000      -0.619427       -16.8555
  40   2.0000      -0.586821       -15.9682
  41   2.0000      -0.572367       -15.5749
  42   2.0000      -0.565619       -15.3913
  43   2.0000      -0.555817       -15.1245
  44   2.0000      -0.534042       -14.5320
  45   2.0000      -0.531164       -14.4537
  46   2.0000      -0.519047       -14.1240
  47   2.0000      -0.511662       -13.9230
  48   2.0000      -0.508728       -13.8432
  49   2.0000      -0.502465       -13.6728
  50   2.0000      -0.491949       -13.3866
  51   2.0000      -0.485357       -13.2072
  52   2.0000      -0.473321       -12.8797
  53   2.0000      -0.468795       -12.7565
  54   2.0000      -0.460288       -12.5251
  55   2.0000      -0.449988       -12.2448
  56   2.0000      -0.440244       -11.9796
  57   2.0000      -0.436304       -11.8724
  58   2.0000      -0.428122       -11.6498
  59   2.0000      -0.422020       -11.4837
  60   2.0000      -0.415932       -11.3181
  61   2.0000      -0.406884       -11.0719
  62   2.0000      -0.398305       -10.8384
  63   2.0000      -0.352371        -9.5885
  64   2.0000      -0.330690        -8.9985
  65   2.0000      -0.324174        -8.8212
  66   2.0000      -0.287298        -7.8178
  67   0.0000       0.022726         0.6184
  68   0.0000       0.071973         1.9585
  69   0.0000       0.106840         2.9073
  70   0.0000       0.117776         3.2049
  71   0.0000       0.133150         3.6232

MULLIKEN ATOMIC CHARGES
-----------------------
   0 S :    0.108676
   1 C :   -0.147211
   2 C :   -0.058136
   3 C :    0.008226
   4 C :   -0.111699
   5 H :    0.019381
   6 C :    0.018150
   7 H :    0.051969
   8 H :    0.021553
   9 C :   -0.081129
  10 H :    0.032025
  11 H :    0.037430
  12 C :   -0.049992
  13 H :    0.039054
  14 H :    0.028888
  15 H :    0.043996
  16 S :    0.082811
  17 C :   -0.090165
  18 C :   -0.043089
  19 C :   -0.025269
  20 C :   -0.150706
  21 H :    0.001926
  22 C :   -0.029655
  23 H :    0.039146
  24 H :    0.031037
  25 C :   -0.019866
  26 H :    0.019263
  27 H :    0.011160
  28 C :    0.002504
  29 H :    0.027799
  30 H :    0.019205
  31 H :    0.025107
  32 H :    0.071309
  33 H :    0.066300
Sum of atomic charges:    0.0000000

LOEWDIN ATOMIC CHARGES
----------------------
   0 S :    0.425805
   1 C :   -0.205302
   2 C :   -0.053320
   3 C :   -0.067565
   4 C :   -0.188160
   5 H :    0.030126
   6 C :   -0.049792
   7 H :    0.046551
   8 H :    0.029473
   9 C :   -0.055838
  10 H :    0.031371
  11 H :    0.029736
  12 C :   -0.066260
  13 H :    0.034074
  14 H :    0.022129
  15 H :    0.030246
  16 S :    0.396471
  17 C :   -0.191473
  18 C :   -0.072255
  19 C :   -0.065947
  20 C :   -0.195916
  21 H :    0.022057
  22 C :   -0.041985
  23 H :    0.036626
  24 H :    0.034143
  25 C :   -0.028313
  26 H :    0.019504
  27 H :   -0.002620
  28 C :   -0.051071
  29 H :    0.026792
  30 H :    0.020180
  31 H :    0.020553
  32 H :    0.039166
  33 H :    0.040811

  Mayer bond orders larger than 0.100000
B(  0-S ,  1-C ) :   1.1293 B(  0-S ,  4-C ) :   1.1629 B(  1-C ,  2-C ) :   1.5895
B(  1-C , 32-H ) :   0.9711 B(  2-C ,  3-C ) :   1.2292 B(  2-C ,  6-C ) :   1.0141
B(  3-C ,  4-C ) :   1.5549 B(  3-C ,  5-H ) :   0.9903 B(  4-C , 20-C ) :   1.0363
B(  6-C ,  7-H ) :   0.9336 B(  6-C ,  8-H ) :   0.9382 B(  6-C ,  9-C ) :   1.0951
B(  9-C , 10-H ) :   0.9490 B(  9-C , 11-H ) :   0.9477 B(  9-C , 12-C ) :   1.0686
B( 12-C , 13-H ) :   0.9719 B( 12-C , 14-H ) :   0.9749 B( 12-C , 15-H ) :   0.9741
B( 16-S , 17-C ) :   1.1477 B( 16-S , 20-C ) :   1.1296 B( 17-C , 18-C ) :   1.6065
B( 17-C , 20-C ) :   0.1010 B( 17-C , 33-H ) :   0.9635 B( 18-C , 19-C ) :   1.2525
B( 18-C , 21-H ) :   0.9960 B( 19-C , 20-C ) :   1.5710 B( 19-C , 22-C ) :   1.0179
B( 22-C , 23-H ) :   0.9407 B( 22-C , 24-H ) :   0.9501 B( 22-C , 25-C ) :   1.0561
B( 25-C , 26-H ) :   0.9539 B( 25-C , 27-H ) :   0.9432 B( 25-C , 28-C ) :   1.0816
B( 28-C , 29-H ) :   0.9749 B( 28-C , 30-H ) :   0.9741 B( 28-C , 31-H ) :   0.9756

Dispersion correction           -0.014327070
FINAL SINGLE POINT ENERGY     -1339.859215557660

DIPOLE MOMENT
-------------
                                X             Y             Z
Electronic contribution:      5.16366       5.76117     -10.23045
Nuclear contribution   :     -5.31325      -6.03568      10.48985
                        -----------------------------------------
Total Dipole Moment    :     -0.14959      -0.27452       0.25940
                        -----------------------------------------
Magnitude (a.u.)       :      0.40623
Magnitude (Debye)      :      1.03256

Rotational constants in cm-1:     0.019213     0.009094     0.006693
Rotational constants in MHz :   575.996167   272.639033   200.662344

                             ****ORCA TERMINATED NORMALLY****
TOTAL RUN TIME: 0 days 0 hours 0 minutes 20 seconds 433 msec
