                         Program Version 4.2.1 -  RELEASE  -
|  1> ! wB97X-D3 SP def2-SVP
|  2> %pal
|  3> nprocs 24
|  4> end
|  5>
|  6> * xyz 0 1
|  7> S 	 -104.465 	 19.8516 	 -118.665
|  8> C 	 -102.714 	 19.4736 	 -118.485
|  9> C 	 -102.181 	 18.9215 	 -119.685
| 10> C 	 -103.22 	 18.812 	 -120.637
| 11> C 	 -104.519 	 19.1502 	 -120.24
| 12> H 	 -103.094 	 18.2395 	 -121.476
| 13> C 	 -100.776 	 18.5715 	 -119.911
| 14> H 	 -100.115 	 18.7503 	 -119.109
| 15> H 	 -100.394 	 19.3358 	 -120.521
| 16> C 	 -100.605 	 17.2793 	 -120.675
| 17> H 	 -100.838 	 17.2952 	 -121.72
| 18> H 	 -99.5669 	 16.9321 	 -120.609
| 19> C 	 -101.291 	 16.0334 	 -120.091
| 20> H 	 -101.205 	 15.1838 	 -120.751
| 21> H 	 -100.936 	 15.8932 	 -119.054
| 22> H 	 -102.366 	 16.1621 	 -119.891
| 23> S 	 -107.061 	 20.3716 	 -120.879
| 24> C 	 -107.903 	 19.7673 	 -122.267
| 25> C 	 -107.298 	 18.7063 	 -122.839
| 26> C 	 -106.156 	 18.2664 	 -122.107
| 27> C 	 -105.746 	 19.0578 	 -121.031
| 28> H 	 -107.743 	 18.2164 	 -123.639
| 29> C 	 -105.598 	 16.8794 	 -122.462
| 30> H 	 -104.837 	 17.0264 	 -123.225
| 31> H 	 -106.368 	 16.3189 	 -122.901
| 32> C 	 -105.145 	 16.0007 	 -121.253
| 33> H 	 -105.802 	 15.9969 	 -120.404
| 34> H 	 -104.36 	 16.4268 	 -120.669
| 35> C 	 -104.771 	 14.5725 	 -121.737
| 36> H 	 -105.665 	 14.0671 	 -122.181
| 37> H 	 -104.563 	 14.0203 	 -120.817
| 38> H 	 -103.864 	 14.569 	 -122.404
| 39> H 	 -102.114 	 19.7151 	 -117.641
| 40> H 	 -108.789 	 20.2486 	 -122.667
| 41> *
| 42>
| 43>                          ****END OF INPUT****

CARTESIAN COORDINATES (ANGSTROEM)
---------------------------------
  S    -104.465000   19.851600  -118.665000
  C    -102.714000   19.473600  -118.485000
  C    -102.181000   18.921500  -119.685000
  C    -103.220000   18.812000  -120.637000
  C    -104.519000   19.150200  -120.240000
  H    -103.094000   18.239500  -121.476000
  C    -100.776000   18.571500  -119.911000
  H    -100.115000   18.750300  -119.109000
  H    -100.394000   19.335800  -120.521000
  C    -100.605000   17.279300  -120.675000
  H    -100.838000   17.295200  -121.720000
  H    -99.566900   16.932100  -120.609000
  C    -101.291000   16.033400  -120.091000
  H    -101.205000   15.183800  -120.751000
  H    -100.936000   15.893200  -119.054000
  H    -102.366000   16.162100  -119.891000
  S    -107.061000   20.371600  -120.879000
  C    -107.903000   19.767300  -122.267000
  C    -107.298000   18.706300  -122.839000
  C    -106.156000   18.266400  -122.107000
  C    -105.746000   19.057800  -121.031000
  H    -107.743000   18.216400  -123.639000
  C    -105.598000   16.879400  -122.462000
  H    -104.837000   17.026400  -123.225000
  H    -106.368000   16.318900  -122.901000
  C    -105.145000   16.000700  -121.253000
  H    -105.802000   15.996900  -120.404000
  H    -104.360000   16.426800  -120.669000
  C    -104.771000   14.572500  -121.737000
  H    -105.665000   14.067100  -122.181000
  H    -104.563000   14.020300  -120.817000
  H    -103.864000   14.569000  -122.404000
  H    -102.114000   19.715100  -117.641000
  H    -108.789000   20.248600  -122.667000

 Total Charge           Charge          ....    0
 Multiplicity           Mult            ....    1
 Number of Electrons    NEL             ....  134
 Basis Dimension        Dim             ....  322

ORBITAL ENERGIES
----------------

  NO   OCC          E(Eh)            E(eV)
   0   2.0000     -88.968588     -2420.9584
   1   2.0000     -88.961287     -2420.7597
   2   2.0000     -10.337482      -281.2972
   3   2.0000     -10.334886      -281.2266
   4   2.0000     -10.317603      -280.7563
   5   2.0000     -10.317026      -280.7406
   6   2.0000     -10.307139      -280.4715
   7   2.0000     -10.304356      -280.3958
   8   2.0000     -10.290438      -280.0170
   9   2.0000     -10.287359      -279.9333
  10   2.0000     -10.286855      -279.9196
  11   2.0000     -10.286411      -279.9075
  12   2.0000     -10.286020      -279.8968
  13   2.0000     -10.285486      -279.8823
  14   2.0000     -10.279582      -279.7216
  15   2.0000     -10.276058      -279.6257
  16   2.0000      -8.082687      -219.9411
  17   2.0000      -8.075237      -219.7384
  18   2.0000      -6.041210      -164.3897
  19   2.0000      -6.037266      -164.2824
  20   2.0000      -6.033953      -164.1922
  21   2.0000      -6.033484      -164.1794
  22   2.0000      -6.029851      -164.0806
  23   2.0000      -6.025823      -163.9710
  24   2.0000      -1.000769       -27.2323
  25   2.0000      -0.981069       -26.6962
  26   2.0000      -0.924560       -25.1585
  27   2.0000      -0.903123       -24.5752
  28   2.0000      -0.867379       -23.6026
  29   2.0000      -0.849062       -23.1041
  30   2.0000      -0.843405       -22.9502
  31   2.0000      -0.817829       -22.2543
  32   2.0000      -0.790376       -21.5072
  33   2.0000      -0.771895       -21.0043
  34   2.0000      -0.716002       -19.4834
  35   2.0000      -0.704704       -19.1760
  36   2.0000      -0.693852       -18.8807
  37   2.0000      -0.659883       -17.9563
  38   2.0000      -0.644735       -17.5441
  39   2.0000      -0.629464       -17.1286
  40   2.0000      -0.596885       -16.2421
  41   2.0000      -0.573854       -15.6154
  42   2.0000      -0.566954       -15.4276
  43   2.0000      -0.560089       -15.2408
  44   2.0000      -0.542448       -14.7608
  45   2.0000      -0.526521       -14.3274
  46   2.0000      -0.514525       -14.0009
  47   2.0000      -0.513577       -13.9751
  48   2.0000      -0.506465       -13.7816
  49   2.0000      -0.503459       -13.6998
  50   2.0000      -0.488699       -13.2982
  51   2.0000      -0.482930       -13.1412
  52   2.0000      -0.475976       -12.9520
  53   2.0000      -0.461061       -12.5461
  54   2.0000      -0.458425       -12.4744
  55   2.0000      -0.455474       -12.3941
  56   2.0000      -0.447959       -12.1896
  57   2.0000      -0.441879       -12.0241
  58   2.0000      -0.427917       -11.6442
  59   2.0000      -0.423558       -11.5256
  60   2.0000      -0.415387       -11.3032
  61   2.0000      -0.407841       -11.0979
  62   2.0000      -0.403577       -10.9819
  63   2.0000      -0.353949        -9.6314
  64   2.0000      -0.331666        -9.0251
  65   2.0000      -0.328477        -8.9383
  66   2.0000      -0.281617        -7.6632
  67   0.0000       0.017224         0.4687
  68   0.0000       0.076323         2.0768
  69   0.0000       0.101391         2.7590
  70   0.0000       0.120925         3.2905
  71   0.0000       0.125862         3.4249

MULLIKEN ATOMIC CHARGES
-----------------------
   0 S :    0.105666
   1 C :   -0.116747
   2 C :   -0.128201
   3 C :    0.067887
   4 C :   -0.147233
   5 H :   -0.029407
   6 C :    0.183158
   7 H :   -0.002210
   8 H :    0.024425
   9 C :   -0.110470
  10 H :    0.033492
  11 H :    0.031532
  12 C :   -0.060170
  13 H :    0.038796
  14 H :    0.025837
  15 H :    0.030203
  16 S :    0.069145
  17 C :   -0.074396
  18 C :    0.000009
  19 C :   -0.065908
  20 C :   -0.109832
  21 H :   -0.005820
  22 C :    0.087113
  23 H :    0.037299
  24 H :    0.007854
  25 C :   -0.060337
  26 H :    0.019905
  27 H :   -0.001448
  28 C :   -0.065999
  29 H :    0.040751
  30 H :    0.033256
  31 H :    0.046173
  32 H :    0.034649
  33 H :    0.061031
Sum of atomic charges:    0.0000000

LOEWDIN ATOMIC CHARGES
----------------------
   0 S :    0.403231
   1 C :   -0.186580
   2 C :   -0.048764
   3 C :   -0.057989
   4 C :   -0.194841
   5 H :    0.011077
   6 C :   -0.033022
   7 H :    0.030991
   8 H :    0.041912
   9 C :   -0.043063
  10 H :    0.021023
  11 H :    0.032354
  12 C :   -0.068688
  13 H :    0.025335
  14 H :    0.028025
  15 H :    0.020862
  16 S :    0.354347
  17 C :   -0.169622
  18 C :   -0.073412
  19 C :   -0.047242
  20 C :   -0.168169
  21 H :    0.023465
  22 C :   -0.023642
  23 H :    0.032185
  24 H :    0.023133
  25 C :   -0.047566
  26 H :    0.028005
  27 H :    0.016763
  28 C :   -0.067833
  29 H :    0.028050
  30 H :    0.027802
  31 H :    0.029849
  32 H :    0.019420
  33 H :    0.032603

  Mayer bond orders larger than 0.100000
B(  0-S ,  1-C ) :   1.1364 B(  0-S ,  4-C ) :   1.1610 B(  1-C ,  2-C ) :   1.5651
B(  1-C ,  4-C ) :   0.1057 B(  1-C , 32-H ) :   0.9728 B(  2-C ,  3-C ) :   1.2837
B(  2-C ,  6-C ) :   1.0362 B(  3-C ,  4-C ) :   1.5299 B(  3-C ,  5-H ) :   0.9903
B(  4-C , 20-C ) :   1.0835 B(  6-C ,  7-H ) :   0.9272 B(  6-C ,  8-H ) :   0.9123
B(  6-C ,  9-C ) :   1.0673 B(  9-C , 10-H ) :   0.9531 B(  9-C , 11-H ) :   0.9530
B(  9-C , 12-C ) :   1.0787 B( 12-C , 13-H ) :   0.9744 B( 12-C , 14-H ) :   0.9673
B( 12-C , 15-H ) :   0.9665 B( 16-S , 17-C ) :   1.1590 B( 16-S , 20-C ) :   1.0833
B( 17-C , 18-C ) :   1.6213 B( 17-C , 33-H ) :   0.9613 B( 18-C , 19-C ) :   1.2353
B( 18-C , 21-H ) :   1.0031 B( 19-C , 20-C ) :   1.6100 B( 19-C , 22-C ) :   1.0222
B( 22-C , 23-H ) :   0.9256 B( 22-C , 24-H ) :   0.9483 B( 22-C , 25-C ) :   1.0566
B( 25-C , 26-H ) :   0.9407 B( 25-C , 27-H ) :   0.9424 B( 25-C , 28-C ) :   1.0889
B( 28-C , 29-H ) :   0.9751 B( 28-C , 30-H ) :   0.9721 B( 28-C , 31-H ) :   0.9747

Dispersion correction           -0.016237508
FINAL SINGLE POINT ENERGY     -1339.853011575703

DIPOLE MOMENT
-------------
                                X             Y             Z
Electronic contribution:    -16.97804      25.37857       6.88649
Nuclear contribution   :     17.41613     -25.87404      -7.29239
                        -----------------------------------------
Total Dipole Moment    :      0.43809      -0.49548      -0.40590
                        -----------------------------------------
Magnitude (a.u.)       :      0.77600
Magnitude (Debye)      :      1.97243

Rotational constants in cm-1:     0.018484     0.010536     0.007439
Rotational constants in MHz :   554.143957   315.855674   223.026341

                             ****ORCA TERMINATED NORMALLY****
TOTAL RUN TIME: 0 days 0 hours 0 minutes 23 seconds 528 msec
