                         Program Version 4.2.1 -  RELEASE  -
|  1> ! wB97X-D3 SP def2-SVP
|  2> %pal
|  3> nprocs 24
|  4> end
|  5>
|  6> * xyz 0 1
|  7> S 	 -40.0559 	 17.4212 	 29.1825
|  8> C 	 -40.7102 	 18.8955 	 28.5361
|  9> C 	 -42.0626 	 19.0123 	 28.7522
| 10> C 	 -42.5643 	 17.955 	 29.5766
| 11> C 	 -41.5821 	 17.0173 	 29.9928
| 12> H 	 -43.6097 	 17.7811 	 29.9421
| 13> C 	 -42.9026 	 20.1631 	 28.2409
| 14> H 	 -43.9006 	 19.9076 	 28.1331
| 15> H 	 -42.6501 	 20.3486 	 27.1725
| 16> C 	 -42.9854 	 21.5134 	 28.9883
| 17> H 	 -42.0024 	 21.9401 	 29.099
| 18> H 	 -43.3865 	 22.3204 	 28.3941
| 19> C 	 -43.7347 	 21.3366 	 30.3305
| 20> H 	 -44.0296 	 22.3208 	 30.7725
| 21> H 	 -44.6131 	 20.7869 	 30.3387
| 22> H 	 -43.0634 	 20.8214 	 30.9711
| 23> S 	 -41.4207 	 14.2625 	 30.2581
| 24> C 	 -41.7841 	 13.5794 	 31.8233
| 25> C 	 -42.1942 	 14.552 	 32.6524
| 26> C 	 -42.2805 	 15.8237 	 32.0582
| 27> C 	 -41.6488 	 15.8496 	 30.849
| 28> H 	 -42.3946 	 14.3047 	 33.6854
| 29> C 	 -42.7255 	 16.9944 	 32.8966
| 30> H 	 -42.2426 	 17.9266 	 32.5318
| 31> H 	 -42.3085 	 16.7573 	 33.8323
| 32> C 	 -44.3054 	 17.2148 	 32.9918
| 33> H 	 -44.8784 	 16.3028 	 32.9408
| 34> H 	 -44.7196 	 17.8405 	 32.1554
| 35> C 	 -44.5606 	 17.9131 	 34.3765
| 36> H 	 -45.5998 	 18.3101 	 34.4231
| 37> H 	 -43.9872 	 18.7902 	 34.4218
| 38> H 	 -44.2908 	 17.2165 	 35.2182
| 39> H 	 -40.1711 	 19.529 	 27.8828
| 40> H 	 -41.7271 	 12.4981 	 32.0554
| 41> *
| 42>
| 43>                          ****END OF INPUT****

CARTESIAN COORDINATES (ANGSTROEM)
---------------------------------
  S    -40.055900   17.421200   29.182500
  C    -40.710200   18.895500   28.536100
  C    -42.062600   19.012300   28.752200
  C    -42.564300   17.955000   29.576600
  C    -41.582100   17.017300   29.992800
  H    -43.609700   17.781100   29.942100
  C    -42.902600   20.163100   28.240900
  H    -43.900600   19.907600   28.133100
  H    -42.650100   20.348600   27.172500
  C    -42.985400   21.513400   28.988300
  H    -42.002400   21.940100   29.099000
  H    -43.386500   22.320400   28.394100
  C    -43.734700   21.336600   30.330500
  H    -44.029600   22.320800   30.772500
  H    -44.613100   20.786900   30.338700
  H    -43.063400   20.821400   30.971100
  S    -41.420700   14.262500   30.258100
  C    -41.784100   13.579400   31.823300
  C    -42.194200   14.552000   32.652400
  C    -42.280500   15.823700   32.058200
  C    -41.648800   15.849600   30.849000
  H    -42.394600   14.304700   33.685400
  C    -42.725500   16.994400   32.896600
  H    -42.242600   17.926600   32.531800
  H    -42.308500   16.757300   33.832300
  C    -44.305400   17.214800   32.991800
  H    -44.878400   16.302800   32.940800
  H    -44.719600   17.840500   32.155400
  C    -44.560600   17.913100   34.376500
  H    -45.599800   18.310100   34.423100
  H    -43.987200   18.790200   34.421800
  H    -44.290800   17.216500   35.218200
  H    -40.171100   19.529000   27.882800
  H    -41.727100   12.498100   32.055400

 Total Charge           Charge          ....    0
 Multiplicity           Mult            ....    1
 Number of Electrons    NEL             ....  134
 Basis Dimension        Dim             ....  322

ORBITAL ENERGIES
----------------

  NO   OCC          E(Eh)            E(eV)
   0   2.0000     -88.964489     -2420.8468
   1   2.0000     -88.962738     -2420.7992
   2   2.0000     -10.332249      -281.1548
   3   2.0000     -10.318897      -280.7915
   4   2.0000     -10.315071      -280.6874
   5   2.0000     -10.311141      -280.5804
   6   2.0000     -10.303690      -280.3777
   7   2.0000     -10.303439      -280.3708
   8   2.0000     -10.296092      -280.1709
   9   2.0000     -10.294672      -280.1323
  10   2.0000     -10.291079      -280.0345
  11   2.0000     -10.288138      -279.9545
  12   2.0000     -10.286435      -279.9081
  13   2.0000     -10.286133      -279.8999
  14   2.0000     -10.282357      -279.7972
  15   2.0000     -10.272230      -279.5216
  16   2.0000      -8.079161      -219.8452
  17   2.0000      -8.078605      -219.8300
  18   2.0000      -6.037533      -164.2896
  19   2.0000      -6.037133      -164.2787
  20   2.0000      -6.033597      -164.1825
  21   2.0000      -6.033030      -164.1671
  22   2.0000      -6.030159      -164.0890
  23   2.0000      -6.029192      -164.0627
  24   2.0000      -1.014773       -27.6134
  25   2.0000      -0.986674       -26.8488
  26   2.0000      -0.910027       -24.7631
  27   2.0000      -0.903105       -24.5747
  28   2.0000      -0.873349       -23.7650
  29   2.0000      -0.851120       -23.1602
  30   2.0000      -0.843940       -22.9648
  31   2.0000      -0.815075       -22.1793
  32   2.0000      -0.784191       -21.3389
  33   2.0000      -0.769807       -20.9475
  34   2.0000      -0.712251       -19.3813
  35   2.0000      -0.707558       -19.2536
  36   2.0000      -0.698676       -19.0119
  37   2.0000      -0.663535       -18.0557
  38   2.0000      -0.642240       -17.4762
  39   2.0000      -0.611945       -16.6519
  40   2.0000      -0.595656       -16.2086
  41   2.0000      -0.575177       -15.6514
  42   2.0000      -0.558928       -15.2092
  43   2.0000      -0.551105       -14.9963
  44   2.0000      -0.537635       -14.6298
  45   2.0000      -0.522083       -14.2066
  46   2.0000      -0.518601       -14.1119
  47   2.0000      -0.511099       -13.9077
  48   2.0000      -0.507825       -13.8186
  49   2.0000      -0.497115       -13.5272
  50   2.0000      -0.489488       -13.3196
  51   2.0000      -0.484328       -13.1792
  52   2.0000      -0.472640       -12.8612
  53   2.0000      -0.466647       -12.6981
  54   2.0000      -0.459305       -12.4983
  55   2.0000      -0.446880       -12.1602
  56   2.0000      -0.442751       -12.0479
  57   2.0000      -0.439258       -11.9528
  58   2.0000      -0.434547       -11.8246
  59   2.0000      -0.428040       -11.6476
  60   2.0000      -0.424216       -11.5435
  61   2.0000      -0.413682       -11.2569
  62   2.0000      -0.411293       -11.1919
  63   2.0000      -0.348495        -9.4830
  64   2.0000      -0.331483        -9.0201
  65   2.0000      -0.327281        -8.9058
  66   2.0000      -0.295613        -8.0440
  67   0.0000       0.030934         0.8417
  68   0.0000       0.069606         1.8941
  69   0.0000       0.117477         3.1967
  70   0.0000       0.122433         3.3316
  71   0.0000       0.126500         3.4422

MULLIKEN ATOMIC CHARGES
-----------------------
   0 S :    0.105332
   1 C :   -0.091317
   2 C :   -0.081392
   3 C :    0.032633
   4 C :   -0.207656
   5 H :    0.025369
   6 C :    0.065919
   7 H :   -0.000986
   8 H :    0.025441
   9 C :   -0.033936
  10 H :    0.013729
  11 H :    0.017801
  12 C :   -0.038669
  13 H :    0.034508
  14 H :    0.010913
  15 H :    0.032890
  16 S :    0.109691
  17 C :   -0.101432
  18 C :   -0.027375
  19 C :   -0.034270
  20 C :   -0.115710
  21 H :    0.015007
  22 C :    0.046037
  23 H :    0.046175
  24 H :    0.016076
  25 C :   -0.080198
  26 H :    0.033355
  27 H :    0.038071
  28 C :   -0.064268
  29 H :    0.035213
  30 H :    0.022829
  31 H :    0.049990
  32 H :    0.032956
  33 H :    0.067273
Sum of atomic charges:   -0.0000000

LOEWDIN ATOMIC CHARGES
----------------------
   0 S :    0.404584
   1 C :   -0.186526
   2 C :   -0.068176
   3 C :   -0.063873
   4 C :   -0.185765
   5 H :    0.037750
   6 C :   -0.033545
   7 H :    0.020181
   8 H :    0.036239
   9 C :   -0.035689
  10 H :    0.020654
  11 H :    0.022752
  12 C :   -0.061012
  13 H :    0.031940
  14 H :    0.012757
  15 H :    0.024272
  16 S :    0.418550
  17 C :   -0.184827
  18 C :   -0.074302
  19 C :   -0.058011
  20 C :   -0.223329
  21 H :    0.031789
  22 C :   -0.025097
  23 H :    0.037172
  24 H :    0.024154
  25 C :   -0.036564
  26 H :    0.019596
  27 H :    0.025967
  28 C :   -0.066820
  29 H :    0.028410
  30 H :    0.016096
  31 H :    0.031918
  32 H :    0.020424
  33 H :    0.038331

  Mayer bond orders larger than 0.100000
B(  0-S ,  1-C ) :   1.1527 B(  0-S ,  4-C ) :   1.1573 B(  1-C ,  2-C ) :   1.6005
B(  1-C ,  4-C ) :   0.1053 B(  1-C , 32-H ) :   0.9737 B(  2-C ,  3-C ) :   1.2437
B(  2-C ,  6-C ) :   1.0286 B(  3-C ,  4-C ) :   1.5606 B(  3-C ,  5-H ) :   0.9865
B(  4-C , 20-C ) :   1.0280 B(  6-C ,  7-H ) :   0.9400 B(  6-C ,  8-H ) :   0.9353
B(  6-C ,  9-C ) :   1.0720 B(  9-C , 10-H ) :   0.9548 B(  9-C , 11-H ) :   0.9545
B(  9-C , 12-C ) :   1.0650 B( 12-C , 13-H ) :   0.9735 B( 12-C , 14-H ) :   0.9783
B( 12-C , 15-H ) :   0.9783 B( 16-S , 17-C ) :   1.1478 B( 16-S , 20-C ) :   1.1486
B( 17-C , 18-C ) :   1.6173 B( 17-C , 33-H ) :   0.9651 B( 18-C , 19-C ) :   1.2283
B( 18-C , 21-H ) :   0.9945 B( 19-C , 20-C ) :   1.5903 B( 19-C , 22-C ) :   1.0423
B( 22-C , 23-H ) :   0.9328 B( 22-C , 24-H ) :   0.9516 B( 22-C , 25-C ) :   1.0337
B( 25-C , 26-H ) :   0.9665 B( 25-C , 27-H ) :   0.9518 B( 25-C , 28-C ) :   1.0733
B( 28-C , 29-H ) :   0.9737 B( 28-C , 30-H ) :   0.9753 B( 28-C , 31-H ) :   0.9783

Dispersion correction           -0.014936142
FINAL SINGLE POINT ENERGY     -1339.870186334083

DIPOLE MOMENT
-------------
                                X             Y             Z
Electronic contribution:     19.04694     -22.64888     -12.04572
Nuclear contribution   :    -19.53983      22.98513      12.34688
                        -----------------------------------------
Total Dipole Moment    :     -0.49289       0.33625       0.30115
                        -----------------------------------------
Magnitude (a.u.)       :      0.66836
Magnitude (Debye)      :      1.69883

Rotational constants in cm-1:     0.017061     0.010140     0.006810
Rotational constants in MHz :   511.489710   303.990083   204.161007

                             ****ORCA TERMINATED NORMALLY****
TOTAL RUN TIME: 0 days 0 hours 0 minutes 22 seconds 268 msec
