                         Program Version 4.2.1 -  RELEASE  -
|  1> ! wB97X-D3 SP def2-SVP
|  2> %pal
|  3> nprocs 24
|  4> end
|  5>
|  6> * xyz 0 1
|  7> S 	 -96.1658 	 -29.0484 	 -61.4177
|  8> C 	 -97.3779 	 -27.734 	 -61.3553
|  9> C 	 -96.8623 	 -26.5415 	 -60.8429
| 10> C 	 -95.4839 	 -26.6011 	 -60.5974
| 11> C 	 -95.0047 	 -27.8778 	 -60.7461
| 12> H 	 -94.7671 	 -25.8102 	 -60.3573
| 13> C 	 -97.7614 	 -25.3251 	 -60.6134
| 14> H 	 -97.6212 	 -24.6717 	 -61.399
| 15> H 	 -97.277 	 -24.7584 	 -59.7861
| 16> C 	 -99.218 	 -25.4046 	 -60.1587
| 17> H 	 -99.6517 	 -24.3862 	 -59.9929
| 18> H 	 -99.8819 	 -25.8428 	 -60.8853
| 19> C 	 -99.271 	 -26.1127 	 -58.8425
| 20> H 	 -98.5697 	 -25.6455 	 -58.0563
| 21> H 	 -100.212 	 -26.0529 	 -58.3706
| 22> H 	 -98.9083 	 -27.1659 	 -58.9953
| 23> S 	 -92.6725 	 -28.5497 	 -62.0945
| 24> C 	 -91.1961 	 -28.8241 	 -61.2216
| 25> C 	 -91.3616 	 -28.6149 	 -59.9066
| 26> C 	 -92.7289 	 -28.3045 	 -59.5045
| 27> C 	 -93.5848 	 -28.2038 	 -60.607
| 28> H 	 -90.5673 	 -28.7949 	 -59.1941
| 29> C 	 -93.2138 	 -28.2217 	 -58.1165
| 30> H 	 -93.1737 	 -29.2266 	 -57.6171
| 31> H 	 -94.2591 	 -27.8412 	 -58.0556
| 32> C 	 -92.3151 	 -27.3181 	 -57.2591
| 33> H 	 -92.3383 	 -26.4208 	 -57.6449
| 34> H 	 -91.2791 	 -27.5704 	 -57.2989
| 35> C 	 -92.6921 	 -27.1774 	 -55.7616
| 36> H 	 -93.5658 	 -26.5974 	 -55.5363
| 37> H 	 -91.9095 	 -26.4782 	 -55.1672
| 38> H 	 -92.8482 	 -28.1545 	 -55.3005
| 39> H 	 -98.4822 	 -27.702 	 -61.5146
| 40> H 	 -90.2673 	 -29.1014 	 -61.7498
| 41> *
| 42>
| 43>                          ****END OF INPUT****

CARTESIAN COORDINATES (ANGSTROEM)
---------------------------------
  S    -96.165800  -29.048400  -61.417700
  C    -97.377900  -27.734000  -61.355300
  C    -96.862300  -26.541500  -60.842900
  C    -95.483900  -26.601100  -60.597400
  C    -95.004700  -27.877800  -60.746100
  H    -94.767100  -25.810200  -60.357300
  C    -97.761400  -25.325100  -60.613400
  H    -97.621200  -24.671700  -61.399000
  H    -97.277000  -24.758400  -59.786100
  C    -99.218000  -25.404600  -60.158700
  H    -99.651700  -24.386200  -59.992900
  H    -99.881900  -25.842800  -60.885300
  C    -99.271000  -26.112700  -58.842500
  H    -98.569700  -25.645500  -58.056300
  H    -100.212000  -26.052900  -58.370600
  H    -98.908300  -27.165900  -58.995300
  S    -92.672500  -28.549700  -62.094500
  C    -91.196100  -28.824100  -61.221600
  C    -91.361600  -28.614900  -59.906600
  C    -92.728900  -28.304500  -59.504500
  C    -93.584800  -28.203800  -60.607000
  H    -90.567300  -28.794900  -59.194100
  C    -93.213800  -28.221700  -58.116500
  H    -93.173700  -29.226600  -57.617100
  H    -94.259100  -27.841200  -58.055600
  C    -92.315100  -27.318100  -57.259100
  H    -92.338300  -26.420800  -57.644900
  H    -91.279100  -27.570400  -57.298900
  C    -92.692100  -27.177400  -55.761600
  H    -93.565800  -26.597400  -55.536300
  H    -91.909500  -26.478200  -55.167200
  H    -92.848200  -28.154500  -55.300500
  H    -98.482200  -27.702000  -61.514600
  H    -90.267300  -29.101400  -61.749800

 Total Charge           Charge          ....    0
 Multiplicity           Mult            ....    1
 Number of Electrons    NEL             ....  134
 Basis Dimension        Dim             ....  322

ORBITAL ENERGIES
----------------

  NO   OCC          E(Eh)            E(eV)
   0   2.0000     -88.974657     -2421.1235
   1   2.0000     -88.958615     -2420.6870
   2   2.0000     -10.330621      -281.1105
   3   2.0000     -10.325788      -280.9790
   4   2.0000     -10.318283      -280.7747
   5   2.0000     -10.316806      -280.7346
   6   2.0000     -10.305181      -280.4182
   7   2.0000     -10.303290      -280.3668
   8   2.0000     -10.296464      -280.1810
   9   2.0000     -10.293158      -280.0911
  10   2.0000     -10.292948      -280.0854
  11   2.0000     -10.291068      -280.0342
  12   2.0000     -10.289127      -279.9814
  13   2.0000     -10.286701      -279.9154
  14   2.0000     -10.278505      -279.6924
  15   2.0000     -10.271897      -279.5125
  16   2.0000      -8.087689      -220.0772
  17   2.0000      -8.073701      -219.6966
  18   2.0000      -6.046307      -164.5284
  19   2.0000      -6.042595      -164.4274
  20   2.0000      -6.038265      -164.3095
  21   2.0000      -6.032270      -164.1464
  22   2.0000      -6.028123      -164.0336
  23   2.0000      -6.024415      -163.9327
  24   2.0000      -1.003786       -27.3144
  25   2.0000      -0.982240       -26.7281
  26   2.0000      -0.917135       -24.9565
  27   2.0000      -0.912070       -24.8187
  28   2.0000      -0.868749       -23.6399
  29   2.0000      -0.854257       -23.2455
  30   2.0000      -0.844752       -22.9869
  31   2.0000      -0.814461       -22.1626
  32   2.0000      -0.782568       -21.2947
  33   2.0000      -0.768215       -20.9042
  34   2.0000      -0.709952       -19.3188
  35   2.0000      -0.705557       -19.1992
  36   2.0000      -0.697330       -18.9753
  37   2.0000      -0.654909       -17.8210
  38   2.0000      -0.634116       -17.2552
  39   2.0000      -0.612470       -16.6661
  40   2.0000      -0.599664       -16.3177
  41   2.0000      -0.576002       -15.6738
  42   2.0000      -0.568958       -15.4821
  43   2.0000      -0.566410       -15.4128
  44   2.0000      -0.539970       -14.6933
  45   2.0000      -0.521638       -14.1945
  46   2.0000      -0.514142       -13.9905
  47   2.0000      -0.506740       -13.7891
  48   2.0000      -0.502940       -13.6857
  49   2.0000      -0.490587       -13.3495
  50   2.0000      -0.484526       -13.1846
  51   2.0000      -0.475056       -12.9269
  52   2.0000      -0.470460       -12.8019
  53   2.0000      -0.465187       -12.6584
  54   2.0000      -0.458091       -12.4653
  55   2.0000      -0.449425       -12.2295
  56   2.0000      -0.444641       -12.0993
  57   2.0000      -0.439369       -11.9558
  58   2.0000      -0.436015       -11.8646
  59   2.0000      -0.433758       -11.8032
  60   2.0000      -0.421887       -11.4801
  61   2.0000      -0.413545       -11.2531
  62   2.0000      -0.410517       -11.1707
  63   2.0000      -0.343680        -9.3520
  64   2.0000      -0.329576        -8.9682
  65   2.0000      -0.324424        -8.8280
  66   2.0000      -0.300691        -8.1822
  67   0.0000       0.035529         0.9668
  68   0.0000       0.061500         1.6735
  69   0.0000       0.105709         2.8765
  70   0.0000       0.122958         3.3459
  71   0.0000       0.130068         3.5393

MULLIKEN ATOMIC CHARGES
-----------------------
   0 S :    0.128391
   1 C :   -0.114096
   2 C :   -0.102048
   3 C :    0.035318
   4 C :   -0.175379
   5 H :    0.029866
   6 C :    0.084273
   7 H :    0.020683
   8 H :    0.015849
   9 C :   -0.068353
  10 H :    0.033274
  11 H :    0.030259
  12 C :   -0.068769
  13 H :    0.029586
  14 H :    0.027728
  15 H :    0.047328
  16 S :    0.090281
  17 C :   -0.096756
  18 C :   -0.016613
  19 C :   -0.027774
  20 C :   -0.182530
  21 H :    0.019865
  22 C :    0.064404
  23 H :    0.041269
  24 H :    0.038465
  25 C :   -0.031287
  26 H :   -0.016473
  27 H :    0.020107
  28 C :   -0.083373
  29 H :    0.024202
  30 H :    0.042795
  31 H :    0.034642
  32 H :    0.053588
  33 H :    0.071276
Sum of atomic charges:   -0.0000000

LOEWDIN ATOMIC CHARGES
----------------------
   0 S :    0.388884
   1 C :   -0.201282
   2 C :   -0.060363
   3 C :   -0.054413
   4 C :   -0.185446
   5 H :    0.041661
   6 C :   -0.032170
   7 H :    0.022290
   8 H :    0.035706
   9 C :   -0.045853
  10 H :    0.034681
  11 H :    0.018487
  12 C :   -0.070281
  13 H :    0.031770
  14 H :    0.016554
  15 H :    0.031446
  16 S :    0.387222
  17 C :   -0.183194
  18 C :   -0.077121
  19 C :   -0.053652
  20 C :   -0.194571
  21 H :    0.030733
  22 C :   -0.031850
  23 H :    0.038322
  24 H :    0.037433
  25 C :   -0.032870
  26 H :    0.002335
  27 H :    0.021760
  28 C :   -0.073533
  29 H :    0.017779
  30 H :    0.041587
  31 H :    0.022595
  32 H :    0.037495
  33 H :    0.037857

  Mayer bond orders larger than 0.100000
B(  0-S ,  1-C ) :   1.1139 B(  0-S ,  4-C ) :   1.1385 B(  1-C ,  2-C ) :   1.6444
B(  1-C , 32-H ) :   0.9532 B(  2-C ,  3-C ) :   1.2280 B(  2-C ,  6-C ) :   0.9950
B(  3-C ,  4-C ) :   1.5996 B(  3-C ,  5-H ) :   0.9896 B(  4-C , 20-C ) :   1.0239
B(  6-C ,  7-H ) :   0.9299 B(  6-C ,  8-H ) :   0.9423 B(  6-C ,  9-C ) :   1.0789
B(  9-C , 10-H ) :   0.9478 B(  9-C , 11-H ) :   0.9496 B(  9-C , 12-C ) :   1.0832
B( 12-C , 13-H ) :   0.9712 B( 12-C , 14-H ) :   0.9739 B( 12-C , 15-H ) :   0.9711
B( 16-S , 17-C ) :   1.1491 B( 16-S , 20-C ) :   1.1313 B( 17-C , 18-C ) :   1.6302
B( 17-C , 33-H ) :   0.9631 B( 18-C , 19-C ) :   1.2088 B( 18-C , 21-H ) :   0.9888
B( 19-C , 20-C ) :   1.6125 B( 19-C , 22-C ) :   1.0734 B( 22-C , 23-H ) :   0.9262
B( 22-C , 24-H ) :   0.9330 B( 22-C , 25-C ) :   1.0493 B( 25-C , 26-H ) :   0.9502
B( 25-C , 27-H ) :   0.9541 B( 25-C , 28-C ) :   1.0815 B( 28-C , 29-H ) :   0.9754
B( 28-C , 30-H ) :   0.9733 B( 28-C , 31-H ) :   0.9750

Dispersion correction           -0.014013651
FINAL SINGLE POINT ENERGY     -1339.856664469110

DIPOLE MOMENT
-------------
                                X             Y             Z
Electronic contribution:      8.88347     -14.11039     -23.71832
Nuclear contribution   :     -8.94971      14.58565      24.15147
                        -----------------------------------------
Total Dipole Moment    :     -0.06624       0.47526       0.43315
                        -----------------------------------------
Magnitude (a.u.)       :      0.64643
Magnitude (Debye)      :      1.64310

Rotational constants in cm-1:     0.018068     0.008558     0.006400
Rotational constants in MHz :   541.672409   256.554174   191.879757

                             ****ORCA TERMINATED NORMALLY****
TOTAL RUN TIME: 0 days 0 hours 0 minutes 21 seconds 330 msec
