                         Program Version 4.2.1 -  RELEASE  -
|  1> ! wB97X-D3 SP def2-SVP
|  2> %pal
|  3> nprocs 24
|  4> end
|  5>
|  6> * xyz 0 1
|  7> S 	 -28.3652 	 -36.3961 	 -93.7929
|  8> C 	 -27.9848 	 -34.7431 	 -94.1087
|  9> C 	 -29.1568 	 -34.1102 	 -94.4319
| 10> C 	 -30.3022 	 -34.9366 	 -94.4198
| 11> C 	 -30.0566 	 -36.2651 	 -94.1588
| 12> H 	 -31.2997 	 -34.717 	 -94.6504
| 13> C 	 -29.2863 	 -32.6462 	 -94.8697
| 14> H 	 -29.2243 	 -32.6947 	 -95.9396
| 15> H 	 -28.3462 	 -32.0693 	 -94.5963
| 16> C 	 -30.5399 	 -31.8934 	 -94.4416
| 17> H 	 -30.4087 	 -30.8864 	 -94.8503
| 18> H 	 -31.2442 	 -32.4485 	 -95.0028
| 19> C 	 -30.9331 	 -32.0415 	 -93.007
| 20> H 	 -31.9764 	 -31.7261 	 -92.8391
| 21> H 	 -30.6036 	 -32.9323 	 -92.5186
| 22> H 	 -30.3226 	 -31.3199 	 -92.36
| 23> S 	 -30.9468 	 -38.2561 	 -92.5028
| 24> C 	 -32.4713 	 -39.1193 	 -92.7578
| 25> C 	 -32.8249 	 -38.916 	 -94.0791
| 26> C 	 -31.9836 	 -37.9376 	 -94.7494
| 27> C 	 -30.9765 	 -37.3999 	 -93.9688
| 28> H 	 -33.6688 	 -39.4197 	 -94.4499
| 29> C 	 -32.2454 	 -37.4444 	 -96.1695
| 30> H 	 -32.3185 	 -36.3382 	 -96.019
| 31> H 	 -33.2086 	 -37.6974 	 -96.5492
| 32> C 	 -31.1935 	 -37.823 	 -97.2362
| 33> H 	 -30.2347 	 -37.9781 	 -96.7129
| 34> H 	 -31.1052 	 -37.0092 	 -97.9492
| 35> C 	 -31.5506 	 -39.0762 	 -97.998
| 36> H 	 -31.8147 	 -39.9513 	 -97.3541
| 37> H 	 -30.9811 	 -39.4167 	 -98.8784
| 38> H 	 -32.5614 	 -38.9568 	 -98.4747
| 39> H 	 -27.0654 	 -34.144 	 -94.1248
| 40> H 	 -32.9677 	 -39.7592 	 -92.0738
| 41> *
| 42>
| 43>                          ****END OF INPUT****

CARTESIAN COORDINATES (ANGSTROEM)
---------------------------------
  S    -28.365200  -36.396100  -93.792900
  C    -27.984800  -34.743100  -94.108700
  C    -29.156800  -34.110200  -94.431900
  C    -30.302200  -34.936600  -94.419800
  C    -30.056600  -36.265100  -94.158800
  H    -31.299700  -34.717000  -94.650400
  C    -29.286300  -32.646200  -94.869700
  H    -29.224300  -32.694700  -95.939600
  H    -28.346200  -32.069300  -94.596300
  C    -30.539900  -31.893400  -94.441600
  H    -30.408700  -30.886400  -94.850300
  H    -31.244200  -32.448500  -95.002800
  C    -30.933100  -32.041500  -93.007000
  H    -31.976400  -31.726100  -92.839100
  H    -30.603600  -32.932300  -92.518600
  H    -30.322600  -31.319900  -92.360000
  S    -30.946800  -38.256100  -92.502800
  C    -32.471300  -39.119300  -92.757800
  C    -32.824900  -38.916000  -94.079100
  C    -31.983600  -37.937600  -94.749400
  C    -30.976500  -37.399900  -93.968800
  H    -33.668800  -39.419700  -94.449900
  C    -32.245400  -37.444400  -96.169500
  H    -32.318500  -36.338200  -96.019000
  H    -33.208600  -37.697400  -96.549200
  C    -31.193500  -37.823000  -97.236200
  H    -30.234700  -37.978100  -96.712900
  H    -31.105200  -37.009200  -97.949200
  C    -31.550600  -39.076200  -97.998000
  H    -31.814700  -39.951300  -97.354100
  H    -30.981100  -39.416700  -98.878400
  H    -32.561400  -38.956800  -98.474700
  H    -27.065400  -34.144000  -94.124800
  H    -32.967700  -39.759200  -92.073800

 Total Charge           Charge          ....    0
 Multiplicity           Mult            ....    1
 Number of Electrons    NEL             ....  134
 Basis Dimension        Dim             ....  322

ORBITAL ENERGIES
----------------

  NO   OCC          E(Eh)            E(eV)
   0   2.0000     -88.966160     -2420.8923
   1   2.0000     -88.962827     -2420.8016
   2   2.0000     -10.333758      -281.1959
   3   2.0000     -10.328534      -281.0537
   4   2.0000     -10.320491      -280.8348
   5   2.0000     -10.314499      -280.6718
   6   2.0000     -10.307604      -280.4842
   7   2.0000     -10.298975      -280.2494
   8   2.0000     -10.296719      -280.1880
   9   2.0000     -10.292459      -280.0720
  10   2.0000     -10.291204      -280.0379
  11   2.0000     -10.289958      -280.0040
  12   2.0000     -10.285278      -279.8766
  13   2.0000     -10.282730      -279.8073
  14   2.0000     -10.279758      -279.7264
  15   2.0000     -10.277640      -279.6688
  16   2.0000      -8.081340      -219.9044
  17   2.0000      -8.078426      -219.8251
  18   2.0000      -6.039916      -164.3545
  19   2.0000      -6.036926      -164.2731
  20   2.0000      -6.035560      -164.2359
  21   2.0000      -6.032694      -164.1580
  22   2.0000      -6.032181      -164.1440
  23   2.0000      -6.029199      -164.0629
  24   2.0000      -1.015633       -27.6368
  25   2.0000      -0.993048       -27.0222
  26   2.0000      -0.917568       -24.9683
  27   2.0000      -0.907055       -24.6822
  28   2.0000      -0.877032       -23.8653
  29   2.0000      -0.848040       -23.0763
  30   2.0000      -0.841983       -22.9115
  31   2.0000      -0.826528       -22.4910
  32   2.0000      -0.784372       -21.3438
  33   2.0000      -0.771402       -20.9909
  34   2.0000      -0.714396       -19.4397
  35   2.0000      -0.696563       -18.9544
  36   2.0000      -0.692354       -18.8399
  37   2.0000      -0.668102       -18.1800
  38   2.0000      -0.644007       -17.5243
  39   2.0000      -0.627421       -17.0730
  40   2.0000      -0.593900       -16.1608
  41   2.0000      -0.576442       -15.6858
  42   2.0000      -0.557375       -15.1669
  43   2.0000      -0.552632       -15.0379
  44   2.0000      -0.544160       -14.8074
  45   2.0000      -0.541366       -14.7313
  46   2.0000      -0.522020       -14.2049
  47   2.0000      -0.516189       -14.0462
  48   2.0000      -0.514496       -14.0001
  49   2.0000      -0.497696       -13.5430
  50   2.0000      -0.489056       -13.3079
  51   2.0000      -0.485473       -13.2104
  52   2.0000      -0.478599       -13.0233
  53   2.0000      -0.464980       -12.6528
  54   2.0000      -0.458874       -12.4866
  55   2.0000      -0.448904       -12.2153
  56   2.0000      -0.442115       -12.0306
  57   2.0000      -0.438158       -11.9229
  58   2.0000      -0.421050       -11.4574
  59   2.0000      -0.419288       -11.4094
  60   2.0000      -0.411164       -11.1884
  61   2.0000      -0.408957       -11.1283
  62   2.0000      -0.403934       -10.9916
  63   2.0000      -0.353826        -9.6281
  64   2.0000      -0.331017        -9.0074
  65   2.0000      -0.325134        -8.8473
  66   2.0000      -0.299063        -8.1379
  67   0.0000       0.031453         0.8559
  68   0.0000       0.065872         1.7925
  69   0.0000       0.116275         3.1640
  70   0.0000       0.122906         3.3444
  71   0.0000       0.139492         3.7958

MULLIKEN ATOMIC CHARGES
-----------------------
   0 S :    0.111541
   1 C :   -0.101121
   2 C :   -0.117124
   3 C :    0.047782
   4 C :   -0.159805
   5 H :   -0.010911
   6 C :    0.043732
   7 H :    0.037719
   8 H :    0.015517
   9 C :   -0.043668
  10 H :    0.040706
  11 H :    0.015638
  12 C :   -0.054962
  13 H :    0.045007
  14 H :    0.048395
  15 H :    0.018079
  16 S :    0.101685
  17 C :   -0.088241
  18 C :   -0.006705
  19 C :   -0.069976
  20 C :   -0.123847
  21 H :    0.003912
  22 C :    0.064929
  23 H :    0.027585
  24 H :   -0.001083
  25 C :   -0.018537
  26 H :    0.044541
  27 H :    0.028977
  28 C :   -0.088560
  29 H :    0.031203
  30 H :    0.045672
  31 H :    0.009806
  32 H :    0.050848
  33 H :    0.051267
Sum of atomic charges:    0.0000000

LOEWDIN ATOMIC CHARGES
----------------------
   0 S :    0.425180
   1 C :   -0.212931
   2 C :   -0.070371
   3 C :   -0.064176
   4 C :   -0.191336
   5 H :    0.020837
   6 C :   -0.032447
   7 H :    0.031561
   8 H :    0.025543
   9 C :   -0.044846
  10 H :    0.032718
  11 H :    0.017685
  12 C :   -0.073063
  13 H :    0.031626
  14 H :    0.028807
  15 H :    0.031485
  16 S :    0.421846
  17 C :   -0.170966
  18 C :   -0.065202
  19 C :   -0.058987
  20 C :   -0.218468
  21 H :    0.024193
  22 C :   -0.031908
  23 H :    0.037351
  24 H :    0.020189
  25 C :   -0.038020
  26 H :    0.029757
  27 H :    0.026253
  28 C :   -0.083488
  29 H :    0.028108
  30 H :    0.029439
  31 H :    0.023734
  32 H :    0.043007
  33 H :    0.026892

  Mayer bond orders larger than 0.100000
B(  0-S ,  1-C ) :   1.1381 B(  0-S ,  4-C ) :   1.1655 B(  1-C ,  2-C ) :   1.6091
B(  1-C ,  4-C ) :   0.1020 B(  1-C , 32-H ) :   0.9652 B(  2-C ,  3-C ) :   1.2382
B(  2-C ,  6-C ) :   1.0062 B(  3-C ,  4-C ) :   1.5786 B(  3-C ,  5-H ) :   1.0010
B(  4-C , 20-C ) :   1.0075 B(  6-C ,  7-H ) :   0.9409 B(  6-C ,  8-H ) :   0.9399
B(  6-C ,  9-C ) :   1.0722 B(  9-C , 10-H ) :   0.9520 B(  9-C , 11-H ) :   0.9472
B(  9-C , 12-C ) :   1.0860 B( 12-C , 13-H ) :   0.9738 B( 12-C , 14-H ) :   0.9682
B( 12-C , 15-H ) :   0.9681 B( 16-S , 17-C ) :   1.1613 B( 16-S , 20-C ) :   1.1499
B( 17-C , 18-C ) :   1.5834 B( 17-C , 33-H ) :   0.9770 B( 18-C , 19-C ) :   1.2468
B( 18-C , 21-H ) :   1.0040 B( 19-C , 20-C ) :   1.5803 B( 19-C , 22-C ) :   1.0429
B( 22-C , 23-H ) :   0.9364 B( 22-C , 24-H ) :   0.9370 B( 22-C , 25-C ) :   1.0472
B( 25-C , 26-H ) :   0.9611 B( 25-C , 27-H ) :   0.9537 B( 25-C , 28-C ) :   1.0756
B( 28-C , 29-H ) :   0.9746 B( 28-C , 30-H ) :   0.9755 B( 28-C , 31-H ) :   0.9686

Dispersion correction           -0.014672372
FINAL SINGLE POINT ENERGY     -1339.860173464777

DIPOLE MOMENT
-------------
                                X             Y             Z
Electronic contribution:      8.61030     -13.14515      15.24676
Nuclear contribution   :     -9.05954      13.50503     -15.64817
                        -----------------------------------------
Total Dipole Moment    :     -0.44925       0.35988      -0.40141
                        -----------------------------------------
Magnitude (a.u.)       :      0.70176
Magnitude (Debye)      :      1.78374

Rotational constants in cm-1:     0.018679     0.008699     0.007822
Rotational constants in MHz :   559.982573   260.797033   234.489197

                             ****ORCA TERMINATED NORMALLY****
TOTAL RUN TIME: 0 days 0 hours 0 minutes 22 seconds 210 msec
