                         Program Version 4.2.1 -  RELEASE  -
|  1> ! wB97X-D3 SP def2-SVP
|  2> %pal
|  3> nprocs 24
|  4> end
|  5>
|  6> * xyz 0 1
|  7> S 	 -137.261 	 4.96243 	 1.40365
|  8> C 	 -137.73 	 5.60525 	 -0.197132
|  9> C 	 -136.745 	 6.41892 	 -0.630476
| 10> C 	 -135.559 	 6.49455 	 0.148895
| 11> C 	 -135.596 	 5.65966 	 1.24234
| 12> H 	 -134.667 	 7.11544 	 0.032416
| 13> C 	 -136.799 	 7.17798 	 -1.92941
| 14> H 	 -137.165 	 6.58449 	 -2.76603
| 15> H 	 -135.773 	 7.38811 	 -2.19071
| 16> C 	 -137.58 	 8.45487 	 -1.73353
| 17> H 	 -137.758 	 8.95932 	 -2.69423
| 18> H 	 -138.53 	 8.23939 	 -1.29548
| 19> C 	 -136.837 	 9.34754 	 -0.739131
| 20> H 	 -137.464 	 10.2749 	 -0.461582
| 21> H 	 -136.596 	 8.7989 	 0.137363
| 22> H 	 -135.86 	 9.65572 	 -1.10172
| 23> S 	 -133.379 	 6.73765 	 2.58347
| 24> C 	 -132.792 	 5.81432 	 4.02239
| 25> C 	 -133.334 	 4.54861 	 4.06921
| 26> C 	 -134.287 	 4.32056 	 3.05524
| 27> C 	 -134.487 	 5.39202 	 2.18742
| 28> H 	 -133.102 	 3.8809 	 4.91003
| 29> C 	 -134.877 	 2.91625 	 3.01318
| 30> H 	 -135.639 	 2.78768 	 2.27086
| 31> H 	 -135.449 	 2.75191 	 3.92398
| 32> C 	 -133.819 	 1.78082 	 2.84371
| 33> H 	 -134.142 	 0.767627 	 2.78962
| 34> H 	 -133.162 	 1.84029 	 3.76164
| 35> C 	 -132.8 	 2.10537 	 1.74714
| 36> H 	 -133.195 	 2.44647 	 0.791078
| 37> H 	 -132.134 	 1.2564 	 1.65993
| 38> H 	 -132.14 	 2.97933 	 2.00695
| 39> H 	 -138.697 	 5.59484 	 -0.682274
| 40> H 	 -132.091 	 6.30516 	 4.73137
| 41> *
| 42>
| 43>                          ****END OF INPUT****

CARTESIAN COORDINATES (ANGSTROEM)
---------------------------------
  S    -137.261000    4.962430    1.403650
  C    -137.730000    5.605250   -0.197132
  C    -136.745000    6.418920   -0.630476
  C    -135.559000    6.494550    0.148895
  C    -135.596000    5.659660    1.242340
  H    -134.667000    7.115440    0.032416
  C    -136.799000    7.177980   -1.929410
  H    -137.165000    6.584490   -2.766030
  H    -135.773000    7.388110   -2.190710
  C    -137.580000    8.454870   -1.733530
  H    -137.758000    8.959320   -2.694230
  H    -138.530000    8.239390   -1.295480
  C    -136.837000    9.347540   -0.739131
  H    -137.464000   10.274900   -0.461582
  H    -136.596000    8.798900    0.137363
  H    -135.860000    9.655720   -1.101720
  S    -133.379000    6.737650    2.583470
  C    -132.792000    5.814320    4.022390
  C    -133.334000    4.548610    4.069210
  C    -134.287000    4.320560    3.055240
  C    -134.487000    5.392020    2.187420
  H    -133.102000    3.880900    4.910030
  C    -134.877000    2.916250    3.013180
  H    -135.639000    2.787680    2.270860
  H    -135.449000    2.751910    3.923980
  C    -133.819000    1.780820    2.843710
  H    -134.142000    0.767627    2.789620
  H    -133.162000    1.840290    3.761640
  C    -132.800000    2.105370    1.747140
  H    -133.195000    2.446470    0.791078
  H    -132.134000    1.256400    1.659930
  H    -132.140000    2.979330    2.006950
  H    -138.697000    5.594840   -0.682274
  H    -132.091000    6.305160    4.731370

 Total Charge           Charge          ....    0
 Multiplicity           Mult            ....    1
 Number of Electrons    NEL             ....  134
 Basis Dimension        Dim             ....  322

ORBITAL ENERGIES
----------------

  NO   OCC          E(Eh)            E(eV)
   0   2.0000     -88.969708     -2420.9888
   1   2.0000     -88.967160     -2420.9195
   2   2.0000     -10.338698      -281.3303
   3   2.0000     -10.336967      -281.2832
   4   2.0000     -10.331350      -281.1303
   5   2.0000     -10.312983      -280.6305
   6   2.0000     -10.308593      -280.5111
   7   2.0000     -10.300125      -280.2807
   8   2.0000     -10.296010      -280.1687
   9   2.0000     -10.294158      -280.1183
  10   2.0000     -10.290043      -280.0063
  11   2.0000     -10.289108      -279.9809
  12   2.0000     -10.283490      -279.8280
  13   2.0000     -10.280946      -279.7588
  14   2.0000     -10.273915      -279.5674
  15   2.0000     -10.271664      -279.5062
  16   2.0000      -8.083197      -219.9550
  17   2.0000      -8.079919      -219.8658
  18   2.0000      -6.041826      -164.4064
  19   2.0000      -6.038766      -164.3232
  20   2.0000      -6.038064      -164.3041
  21   2.0000      -6.034805      -164.2154
  22   2.0000      -6.033733      -164.1862
  23   2.0000      -6.030308      -164.0930
  24   2.0000      -1.002086       -27.2681
  25   2.0000      -0.983022       -26.7494
  26   2.0000      -0.916850       -24.9488
  27   2.0000      -0.905371       -24.6364
  28   2.0000      -0.869658       -23.6646
  29   2.0000      -0.846427       -23.0324
  30   2.0000      -0.837545       -22.7908
  31   2.0000      -0.816839       -22.2273
  32   2.0000      -0.781929       -21.2774
  33   2.0000      -0.770606       -20.9693
  34   2.0000      -0.710716       -19.3396
  35   2.0000      -0.700000       -19.0480
  36   2.0000      -0.691938       -18.8286
  37   2.0000      -0.666726       -18.1425
  38   2.0000      -0.634646       -17.2696
  39   2.0000      -0.613008       -16.6808
  40   2.0000      -0.599662       -16.3176
  41   2.0000      -0.577285       -15.7087
  42   2.0000      -0.553761       -15.0686
  43   2.0000      -0.548229       -14.9181
  44   2.0000      -0.537968       -14.6388
  45   2.0000      -0.537396       -14.6233
  46   2.0000      -0.518410       -14.1066
  47   2.0000      -0.514830       -14.0092
  48   2.0000      -0.504159       -13.7189
  49   2.0000      -0.494111       -13.4455
  50   2.0000      -0.488190       -13.2843
  51   2.0000      -0.479872       -13.0580
  52   2.0000      -0.465920       -12.6783
  53   2.0000      -0.463820       -12.6212
  54   2.0000      -0.457666       -12.4537
  55   2.0000      -0.446227       -12.1425
  56   2.0000      -0.438878       -11.9425
  57   2.0000      -0.433845       -11.8055
  58   2.0000      -0.429825       -11.6961
  59   2.0000      -0.424587       -11.5536
  60   2.0000      -0.423208       -11.5161
  61   2.0000      -0.411706       -11.2031
  62   2.0000      -0.401869       -10.9354
  63   2.0000      -0.360306        -9.8044
  64   2.0000      -0.335421        -9.1273
  65   2.0000      -0.329654        -8.9703
  66   2.0000      -0.287392        -7.8203
  67   0.0000       0.015595         0.4244
  68   0.0000       0.073180         1.9913
  69   0.0000       0.096554         2.6274
  70   0.0000       0.106529         2.8988
  71   0.0000       0.129658         3.5282

MULLIKEN ATOMIC CHARGES
-----------------------
   0 S :    0.092013
   1 C :   -0.110169
   2 C :   -0.104688
   3 C :   -0.010644
   4 C :   -0.097854
   5 H :    0.025412
   6 C :    0.070669
   7 H :    0.029103
   8 H :    0.011617
   9 C :   -0.027133
  10 H :    0.031184
  11 H :    0.017397
  12 C :   -0.075657
  13 H :    0.046580
  14 H :    0.038500
  15 H :    0.017240
  16 S :    0.069872
  17 C :   -0.109500
  18 C :   -0.027070
  19 C :   -0.083338
  20 C :   -0.124504
  21 H :    0.041516
  22 C :    0.093272
  23 H :    0.015732
  24 H :    0.031085
  25 C :   -0.087255
  26 H :    0.035317
  27 H :    0.021205
  28 C :   -0.054285
  29 H :    0.030985
  30 H :    0.031435
  31 H :    0.036997
  32 H :    0.047318
  33 H :    0.077647
Sum of atomic charges:    0.0000000

LOEWDIN ATOMIC CHARGES
----------------------
   0 S :    0.368785
   1 C :   -0.187698
   2 C :   -0.063701
   3 C :   -0.077169
   4 C :   -0.155522
   5 H :    0.032170
   6 C :   -0.029692
   7 H :    0.029903
   8 H :    0.025274
   9 C :   -0.035518
  10 H :    0.023420
  11 H :    0.018717
  12 C :   -0.065941
  13 H :    0.035252
  14 H :    0.021519
  15 H :    0.019418
  16 S :    0.362155
  17 C :   -0.157585
  18 C :   -0.069515
  19 C :   -0.054779
  20 C :   -0.183058
  21 H :    0.041370
  22 C :   -0.033472
  23 H :    0.016041
  24 H :    0.032985
  25 C :   -0.038706
  26 H :    0.022181
  27 H :    0.025700
  28 C :   -0.072138
  29 H :    0.022435
  30 H :    0.023708
  31 H :    0.032188
  32 H :    0.034565
  33 H :    0.036711

  Mayer bond orders larger than 0.100000
B(  0-S ,  1-C ) :   1.1002 B(  0-S ,  4-C ) :   1.1288 B(  1-C ,  2-C ) :   1.6621
B(  1-C , 32-H ) :   0.9633 B(  2-C ,  3-C ) :   1.2093 B(  2-C ,  6-C ) :   1.0123
B(  3-C ,  4-C ) :   1.5772 B(  3-C ,  5-H ) :   0.9900 B(  4-C , 20-C ) :   1.0791
B(  6-C ,  7-H ) :   0.9447 B(  6-C ,  8-H ) :   0.9449 B(  6-C ,  9-C ) :   1.0673
B(  9-C , 10-H ) :   0.9562 B(  9-C , 11-H ) :   0.9568 B(  9-C , 12-C ) :   1.0707
B( 12-C , 13-H ) :   0.9712 B( 12-C , 14-H ) :   0.9719 B( 12-C , 15-H ) :   0.9738
B( 16-S , 17-C ) :   1.1392 B( 16-S , 20-C ) :   1.1142 B( 17-C , 18-C ) :   1.6123
B( 17-C , 33-H ) :   0.9637 B( 18-C , 19-C ) :   1.2249 B( 18-C , 21-H ) :   0.9880
B( 19-C , 20-C ) :   1.5968 B( 19-C , 22-C ) :   1.0327 B( 22-C , 23-H ) :   0.9363
B( 22-C , 24-H ) :   0.9367 B( 22-C , 25-C ) :   1.0567 B( 25-C , 26-H ) :   0.9650
B( 25-C , 27-H ) :   0.9526 B( 25-C , 28-C ) :   1.0741 B( 28-C , 29-H ) :   0.9782
B( 28-C , 30-H ) :   0.9740 B( 28-C , 31-H ) :   0.9653

Dispersion correction           -0.015204367
FINAL SINGLE POINT ENERGY     -1339.873595494023

DIPOLE MOMENT
-------------
                                X             Y             Z
Electronic contribution:     -0.80815       1.87075       8.76753
Nuclear contribution   :      0.91216      -1.94631      -8.73588
                        -----------------------------------------
Total Dipole Moment    :      0.10401      -0.07556       0.03166
                        -----------------------------------------
Magnitude (a.u.)       :      0.13240
Magnitude (Debye)      :      0.33652

Rotational constants in cm-1:     0.024146     0.008193     0.006936
Rotational constants in MHz :   723.892004   245.634369   207.950127

                             ****ORCA TERMINATED NORMALLY****
TOTAL RUN TIME: 0 days 0 hours 0 minutes 22 seconds 123 msec
