                         Program Version 4.2.1 -  RELEASE  -
|  1> ! wB97X-D3 SP def2-SVP
|  2> %pal
|  3> nprocs 24
|  4> end
|  5>
|  6> * xyz 0 1
|  7> S 	 -33.0382 	 -36.6572 	 -95.0978
|  8> C 	 -31.6089 	 -37.2138 	 -94.1714
|  9> C 	 -31.7998 	 -36.9226 	 -92.8241
| 10> C 	 -33.177 	 -36.5694 	 -92.5564
| 11> C 	 -33.9771 	 -36.4755 	 -93.6505
| 12> H 	 -33.5897 	 -36.4463 	 -91.5678
| 13> C 	 -30.6906 	 -36.8955 	 -91.8126
| 14> H 	 -31.1691 	 -36.6304 	 -90.9028
| 15> H 	 -29.9962 	 -36.1099 	 -92.1779
| 16> C 	 -29.9179 	 -38.2415 	 -91.8001
| 17> H 	 -29.3358 	 -38.3102 	 -92.743
| 18> H 	 -29.2999 	 -38.2827 	 -90.9081
| 19> C 	 -30.7491 	 -39.5567 	 -91.5546
| 20> H 	 -30.2861 	 -40.4787 	 -92.0054
| 21> H 	 -30.8598 	 -39.7342 	 -90.495
| 22> H 	 -31.685 	 -39.5244 	 -92.0434
| 23> S 	 -36.4737 	 -37.3272 	 -94.4528
| 24> C 	 -37.9211 	 -36.4118 	 -94.0311
| 25> C 	 -37.5312 	 -35.2311 	 -93.4741
| 26> C 	 -36.1298 	 -35.0363 	 -93.1984
| 27> C 	 -35.399 	 -36.1005 	 -93.7454
| 28> H 	 -38.3561 	 -34.5656 	 -93.2166
| 29> C 	 -35.5748 	 -33.768 	 -92.5738
| 30> H 	 -34.6068 	 -33.9158 	 -92.0927
| 31> H 	 -36.2466 	 -33.4625 	 -91.7472
| 32> C 	 -35.539 	 -32.5989 	 -93.5935
| 33> H 	 -36.5926 	 -32.2103 	 -93.5889
| 34> H 	 -35.343 	 -32.9055 	 -94.5886
| 35> C 	 -34.5677 	 -31.4547 	 -93.2999
| 36> H 	 -34.5634 	 -30.63 	 -94.0092
| 37> H 	 -33.5493 	 -31.8935 	 -93.189
| 38> H 	 -35.0024 	 -30.9902 	 -92.3781
| 39> H 	 -30.7585 	 -37.752 	 -94.62
| 40> H 	 -38.8741 	 -36.7845 	 -94.3376
| 41> *
| 42>
| 43>                          ****END OF INPUT****

CARTESIAN COORDINATES (ANGSTROEM)
---------------------------------
  S    -33.038200  -36.657200  -95.097800
  C    -31.608900  -37.213800  -94.171400
  C    -31.799800  -36.922600  -92.824100
  C    -33.177000  -36.569400  -92.556400
  C    -33.977100  -36.475500  -93.650500
  H    -33.589700  -36.446300  -91.567800
  C    -30.690600  -36.895500  -91.812600
  H    -31.169100  -36.630400  -90.902800
  H    -29.996200  -36.109900  -92.177900
  C    -29.917900  -38.241500  -91.800100
  H    -29.335800  -38.310200  -92.743000
  H    -29.299900  -38.282700  -90.908100
  C    -30.749100  -39.556700  -91.554600
  H    -30.286100  -40.478700  -92.005400
  H    -30.859800  -39.734200  -90.495000
  H    -31.685000  -39.524400  -92.043400
  S    -36.473700  -37.327200  -94.452800
  C    -37.921100  -36.411800  -94.031100
  C    -37.531200  -35.231100  -93.474100
  C    -36.129800  -35.036300  -93.198400
  C    -35.399000  -36.100500  -93.745400
  H    -38.356100  -34.565600  -93.216600
  C    -35.574800  -33.768000  -92.573800
  H    -34.606800  -33.915800  -92.092700
  H    -36.246600  -33.462500  -91.747200
  C    -35.539000  -32.598900  -93.593500
  H    -36.592600  -32.210300  -93.588900
  H    -35.343000  -32.905500  -94.588600
  C    -34.567700  -31.454700  -93.299900
  H    -34.563400  -30.630000  -94.009200
  H    -33.549300  -31.893500  -93.189000
  H    -35.002400  -30.990200  -92.378100
  H    -30.758500  -37.752000  -94.620000
  H    -38.874100  -36.784500  -94.337600

 Total Charge           Charge          ....    0
 Multiplicity           Mult            ....    1
 Number of Electrons    NEL             ....  134
 Basis Dimension        Dim             ....  322

ORBITAL ENERGIES
----------------

  NO   OCC          E(Eh)            E(eV)
   0   2.0000     -88.960651     -2420.7424
   1   2.0000     -88.960546     -2420.7395
   2   2.0000     -10.331365      -281.1307
   3   2.0000     -10.326232      -280.9911
   4   2.0000     -10.318377      -280.7773
   5   2.0000     -10.315729      -280.7053
   6   2.0000     -10.312097      -280.6064
   7   2.0000     -10.301967      -280.3308
   8   2.0000     -10.298046      -280.2241
   9   2.0000     -10.296410      -280.1796
  10   2.0000     -10.293897      -280.1112
  11   2.0000     -10.293250      -280.0936
  12   2.0000     -10.291992      -280.0593
  13   2.0000     -10.284230      -279.8481
  14   2.0000     -10.282428      -279.7991
  15   2.0000     -10.274623      -279.5867
  16   2.0000      -8.075296      -219.7400
  17   2.0000      -8.075105      -219.7348
  18   2.0000      -6.033888      -164.1905
  19   2.0000      -6.033647      -164.1839
  20   2.0000      -6.029886      -164.0815
  21   2.0000      -6.029540      -164.0721
  22   2.0000      -6.025927      -163.9738
  23   2.0000      -6.025894      -163.9729
  24   2.0000      -1.002743       -27.2860
  25   2.0000      -0.980852       -26.6903
  26   2.0000      -0.911072       -24.7915
  27   2.0000      -0.906942       -24.6791
  28   2.0000      -0.862896       -23.4806
  29   2.0000      -0.848148       -23.0793
  30   2.0000      -0.839697       -22.8493
  31   2.0000      -0.814329       -22.1590
  32   2.0000      -0.783432       -21.3183
  33   2.0000      -0.772757       -21.0278
  34   2.0000      -0.704589       -19.1728
  35   2.0000      -0.698523       -19.0078
  36   2.0000      -0.691774       -18.8241
  37   2.0000      -0.658663       -17.9231
  38   2.0000      -0.636321       -17.3152
  39   2.0000      -0.614102       -16.7106
  40   2.0000      -0.598023       -16.2730
  41   2.0000      -0.576768       -15.6946
  42   2.0000      -0.567181       -15.4338
  43   2.0000      -0.550209       -14.9720
  44   2.0000      -0.537719       -14.6321
  45   2.0000      -0.525945       -14.3117
  46   2.0000      -0.518473       -14.1084
  47   2.0000      -0.515022       -14.0144
  48   2.0000      -0.505952       -13.7677
  49   2.0000      -0.497826       -13.5465
  50   2.0000      -0.485275       -13.2050
  51   2.0000      -0.481087       -13.0910
  52   2.0000      -0.472403       -12.8547
  53   2.0000      -0.461862       -12.5679
  54   2.0000      -0.454524       -12.3682
  55   2.0000      -0.446833       -12.1589
  56   2.0000      -0.440520       -11.9872
  57   2.0000      -0.437019       -11.8919
  58   2.0000      -0.425633       -11.5821
  59   2.0000      -0.422547       -11.4981
  60   2.0000      -0.420670       -11.4470
  61   2.0000      -0.411913       -11.2087
  62   2.0000      -0.410538       -11.1713
  63   2.0000      -0.338982        -9.2242
  64   2.0000      -0.327180        -8.9030
  65   2.0000      -0.323980        -8.8159
  66   2.0000      -0.300421        -8.1749
  67   0.0000       0.030627         0.8334
  68   0.0000       0.065322         1.7775
  69   0.0000       0.105584         2.8731
  70   0.0000       0.120849         3.2885
  71   0.0000       0.131327         3.5736

MULLIKEN ATOMIC CHARGES
-----------------------
   0 S :    0.098248
   1 C :   -0.155115
   2 C :   -0.137986
   3 C :    0.038510
   4 C :   -0.139787
   5 H :    0.008316
   6 C :    0.133555
   7 H :    0.005566
   8 H :    0.057281
   9 C :   -0.110848
  10 H :    0.042177
  11 H :    0.035243
  12 C :   -0.060781
  13 H :    0.035765
  14 H :    0.032786
  15 H :    0.032729
  16 S :    0.087942
  17 C :   -0.089128
  18 C :   -0.039414
  19 C :   -0.013857
  20 C :   -0.169043
  21 H :    0.023176
  22 C :    0.080874
  23 H :    0.019123
  24 H :    0.029103
  25 C :   -0.082005
  26 H :    0.027727
  27 H :    0.030794
  28 C :   -0.062636
  29 H :    0.038369
  30 H :    0.050794
  31 H :    0.028655
  32 H :    0.066733
  33 H :    0.057134
Sum of atomic charges:   -0.0000000

LOEWDIN ATOMIC CHARGES
----------------------
   0 S :    0.390367
   1 C :   -0.194874
   2 C :   -0.059908
   3 C :   -0.070449
   4 C :   -0.198423
   5 H :    0.029592
   6 C :   -0.026638
   7 H :    0.022533
   8 H :    0.046416
   9 C :   -0.041174
  10 H :    0.025943
  11 H :    0.026502
  12 C :   -0.068577
  13 H :    0.034262
  14 H :    0.022777
  15 H :    0.017293
  16 S :    0.387124
  17 C :   -0.170403
  18 C :   -0.074767
  19 C :   -0.048163
  20 C :   -0.192142
  21 H :    0.032286
  22 C :   -0.030106
  23 H :    0.027220
  24 H :    0.035225
  25 C :   -0.041369
  26 H :    0.026399
  27 H :    0.017308
  28 C :   -0.069632
  29 H :    0.026232
  30 H :    0.031473
  31 H :    0.028437
  32 H :    0.032598
  33 H :    0.026639

  Mayer bond orders larger than 0.100000
B(  0-S ,  1-C ) :   1.1253 B(  0-S ,  4-C ) :   1.1586 B(  1-C ,  2-C ) :   1.5986
B(  1-C , 32-H ) :   0.9724 B(  2-C ,  3-C ) :   1.2244 B(  2-C ,  6-C ) :   1.0087
B(  3-C ,  4-C ) :   1.6027 B(  3-C ,  5-H ) :   0.9977 B(  4-C , 20-C ) :   0.9979
B(  6-C ,  7-H ) :   0.9378 B(  6-C ,  8-H ) :   0.9376 B(  6-C ,  9-C ) :   1.0666
B(  9-C , 10-H ) :   0.9592 B(  9-C , 11-H ) :   0.9649 B(  9-C , 12-C ) :   1.0633
B( 12-C , 13-H ) :   0.9751 B( 12-C , 14-H ) :   0.9823 B( 12-C , 15-H ) :   0.9750
B( 16-S , 17-C ) :   1.1459 B( 16-S , 20-C ) :   1.1524 B( 17-C , 18-C ) :   1.6165
B( 17-C , 20-C ) :   0.1019 B( 17-C , 33-H ) :   0.9758 B( 18-C , 19-C ) :   1.2106
B( 18-C , 21-H ) :   0.9875 B( 19-C , 20-C ) :   1.5954 B( 19-C , 22-C ) :   1.0591
B( 22-C , 23-H ) :   0.9388 B( 22-C , 24-H ) :   0.9302 B( 22-C , 25-C ) :   1.0398
B( 25-C , 26-H ) :   0.9553 B( 25-C , 27-H ) :   0.9651 B( 25-C , 28-C ) :   1.0842
B( 28-C , 29-H ) :   0.9744 B( 28-C , 30-H ) :   0.9755 B( 28-C , 31-H ) :   0.9751

Dispersion correction           -0.014181887
FINAL SINGLE POINT ENERGY     -1339.873706861799

DIPOLE MOMENT
-------------
                                X             Y             Z
Electronic contribution:    -12.43776      -9.18738     -13.92091
Nuclear contribution   :     12.50312       9.52105      14.41501
                        -----------------------------------------
Total Dipole Moment    :      0.06536       0.33367       0.49410
                        -----------------------------------------
Magnitude (a.u.)       :      0.59978
Magnitude (Debye)      :      1.52453

Rotational constants in cm-1:     0.019425     0.008129     0.006728
Rotational constants in MHz :   582.348829   243.714035   201.692071

                             ****ORCA TERMINATED NORMALLY****
TOTAL RUN TIME: 0 days 0 hours 0 minutes 21 seconds 327 msec
