                         Program Version 4.2.1 -  RELEASE  -
|  1> ! wB97X-D3 SP def2-SVP
|  2> %pal
|  3> nprocs 24
|  4> end
|  5>
|  6> * xyz 0 1
|  7> S 	 -70.7504 	 2.75426 	 -105.972
|  8> C 	 -71.3576 	 3.34997 	 -104.405
|  9> C 	 -70.4856 	 4.18984 	 -103.775
| 10> C 	 -69.2767 	 4.37644 	 -104.506
| 11> C 	 -69.2073 	 3.61084 	 -105.655
| 12> H 	 -68.5598 	 5.13617 	 -104.283
| 13> C 	 -70.947 	 5.05891 	 -102.636
| 14> H 	 -70.1951 	 5.63338 	 -102.185
| 15> H 	 -71.5666 	 4.43471 	 -101.964
| 16> C 	 -71.781 	 6.34288 	 -102.995
| 17> H 	 -71.1225 	 7.10425 	 -103.435
| 18> H 	 -72.5632 	 6.10992 	 -103.731
| 19> C 	 -72.4646 	 7.0367 	 -101.779
| 20> H 	 -71.7683 	 7.23779 	 -100.93
| 21> H 	 -72.9698 	 7.98133 	 -101.982
| 22> H 	 -73.2719 	 6.51912 	 -101.257
| 23> S 	 -68.8315 	 3.21695 	 -108.305
| 24> C 	 -67.2741 	 3.5197 	 -109.002
| 25> C 	 -66.3128 	 3.80758 	 -108.06
| 26> C 	 -66.8645 	 3.78962 	 -106.731
| 27> C 	 -68.2131 	 3.42413 	 -106.702
| 28> H 	 -65.3013 	 4.02584 	 -108.314
| 29> C 	 -66.0245 	 4.31559 	 -105.598
| 30> H 	 -66.3827 	 5.32523 	 -105.334
| 31> H 	 -64.9536 	 4.38587 	 -106.021
| 32> C 	 -65.9026 	 3.45535 	 -104.415
| 33> H 	 -65.4526 	 2.458 	 -104.575
| 34> H 	 -66.8871 	 3.37953 	 -104.029
| 35> C 	 -65.0378 	 4.0417 	 -103.249
| 36> H 	 -65.5846 	 4.86733 	 -102.785
| 37> H 	 -64.0546 	 4.32381 	 -103.585
| 38> H 	 -64.9989 	 3.28597 	 -102.393
| 39> H 	 -72.413 	 3.16285 	 -104.039
| 40> H 	 -67.0971 	 3.46252 	 -110.051
| 41> *
| 42>
| 43>                          ****END OF INPUT****

CARTESIAN COORDINATES (ANGSTROEM)
---------------------------------
  S    -70.750400    2.754260  -105.972000
  C    -71.357600    3.349970  -104.405000
  C    -70.485600    4.189840  -103.775000
  C    -69.276700    4.376440  -104.506000
  C    -69.207300    3.610840  -105.655000
  H    -68.559800    5.136170  -104.283000
  C    -70.947000    5.058910  -102.636000
  H    -70.195100    5.633380  -102.185000
  H    -71.566600    4.434710  -101.964000
  C    -71.781000    6.342880  -102.995000
  H    -71.122500    7.104250  -103.435000
  H    -72.563200    6.109920  -103.731000
  C    -72.464600    7.036700  -101.779000
  H    -71.768300    7.237790  -100.930000
  H    -72.969800    7.981330  -101.982000
  H    -73.271900    6.519120  -101.257000
  S    -68.831500    3.216950  -108.305000
  C    -67.274100    3.519700  -109.002000
  C    -66.312800    3.807580  -108.060000
  C    -66.864500    3.789620  -106.731000
  C    -68.213100    3.424130  -106.702000
  H    -65.301300    4.025840  -108.314000
  C    -66.024500    4.315590  -105.598000
  H    -66.382700    5.325230  -105.334000
  H    -64.953600    4.385870  -106.021000
  C    -65.902600    3.455350  -104.415000
  H    -65.452600    2.458000  -104.575000
  H    -66.887100    3.379530  -104.029000
  C    -65.037800    4.041700  -103.249000
  H    -65.584600    4.867330  -102.785000
  H    -64.054600    4.323810  -103.585000
  H    -64.998900    3.285970  -102.393000
  H    -72.413000    3.162850  -104.039000
  H    -67.097100    3.462520  -110.051000

 Total Charge           Charge          ....    0
 Multiplicity           Mult            ....    1
 Number of Electrons    NEL             ....  134
 Basis Dimension        Dim             ....  322

ORBITAL ENERGIES
----------------

  NO   OCC          E(Eh)            E(eV)
   0   2.0000     -88.968539     -2420.9570
   1   2.0000     -88.965896     -2420.8851
   2   2.0000     -10.336854      -281.2801
   3   2.0000     -10.326359      -280.9945
   4   2.0000     -10.318615      -280.7838
   5   2.0000     -10.317773      -280.7609
   6   2.0000     -10.305313      -280.4218
   7   2.0000     -10.300972      -280.3037
   8   2.0000     -10.297128      -280.1991
   9   2.0000     -10.296435      -280.1802
  10   2.0000     -10.295115      -280.1443
  11   2.0000     -10.294495      -280.1274
  12   2.0000     -10.293363      -280.0966
  13   2.0000     -10.283603      -279.8311
  14   2.0000     -10.281478      -279.7732
  15   2.0000     -10.276864      -279.6477
  16   2.0000      -8.084038      -219.9779
  17   2.0000      -8.079849      -219.8639
  18   2.0000      -6.042592      -164.4273
  19   2.0000      -6.038469      -164.3151
  20   2.0000      -6.038422      -164.3138
  21   2.0000      -6.034724      -164.2132
  22   2.0000      -6.034679      -164.2120
  23   2.0000      -6.030338      -164.0938
  24   2.0000      -1.011105       -27.5136
  25   2.0000      -0.983873       -26.7725
  26   2.0000      -0.916957       -24.9517
  27   2.0000      -0.909761       -24.7559
  28   2.0000      -0.870899       -23.6984
  29   2.0000      -0.852717       -23.2036
  30   2.0000      -0.844172       -22.9711
  31   2.0000      -0.817860       -22.2551
  32   2.0000      -0.783334       -21.3156
  33   2.0000      -0.771662       -20.9980
  34   2.0000      -0.709313       -19.3014
  35   2.0000      -0.700970       -19.0744
  36   2.0000      -0.686185       -18.6720
  37   2.0000      -0.671233       -18.2652
  38   2.0000      -0.636426       -17.3180
  39   2.0000      -0.624267       -16.9872
  40   2.0000      -0.598927       -16.2976
  41   2.0000      -0.582030       -15.8378
  42   2.0000      -0.575404       -15.6575
  43   2.0000      -0.553284       -15.0556
  44   2.0000      -0.525714       -14.3054
  45   2.0000      -0.520871       -14.1736
  46   2.0000      -0.512560       -13.9475
  47   2.0000      -0.508324       -13.8322
  48   2.0000      -0.508071       -13.8253
  49   2.0000      -0.500862       -13.6292
  50   2.0000      -0.490763       -13.3544
  51   2.0000      -0.488568       -13.2946
  52   2.0000      -0.481638       -13.1060
  53   2.0000      -0.460891       -12.5415
  54   2.0000      -0.460009       -12.5175
  55   2.0000      -0.453112       -12.3298
  56   2.0000      -0.443821       -12.0770
  57   2.0000      -0.433958       -11.8086
  58   2.0000      -0.431599       -11.7444
  59   2.0000      -0.426565       -11.6074
  60   2.0000      -0.415384       -11.3032
  61   2.0000      -0.414655       -11.2833
  62   2.0000      -0.410144       -11.1606
  63   2.0000      -0.359224        -9.7750
  64   2.0000      -0.338282        -9.2051
  65   2.0000      -0.328526        -8.9396
  66   2.0000      -0.283433        -7.7126
  67   0.0000       0.017043         0.4638
  68   0.0000       0.071942         1.9576
  69   0.0000       0.091156         2.4805
  70   0.0000       0.117306         3.1921
  71   0.0000       0.132258         3.5989

MULLIKEN ATOMIC CHARGES
-----------------------
   0 S :    0.073827
   1 C :   -0.136484
   2 C :   -0.054653
   3 C :    0.015688
   4 C :   -0.125876
   5 H :    0.004952
   6 C :    0.059579
   7 H :    0.009067
   8 H :    0.039178
   9 C :   -0.069320
  10 H :    0.033947
  11 H :    0.029873
  12 C :   -0.079220
  13 H :    0.026810
  14 H :    0.035386
  15 H :    0.024550
  16 S :    0.096158
  17 C :   -0.073822
  18 C :   -0.013492
  19 C :   -0.077931
  20 C :   -0.068386
  21 H :    0.011094
  22 C :    0.036263
  23 H :    0.043813
  24 H :    0.021052
  25 C :   -0.076140
  26 H :    0.037467
  27 H :    0.021802
  28 C :   -0.058035
  29 H :    0.020487
  30 H :    0.031864
  31 H :    0.041976
  32 H :    0.068305
  33 H :    0.050221
Sum of atomic charges:   -0.0000000

LOEWDIN ATOMIC CHARGES
----------------------
   0 S :    0.364274
   1 C :   -0.187982
   2 C :   -0.067373
   3 C :   -0.068597
   4 C :   -0.156332
   5 H :    0.028148
   6 C :   -0.029872
   7 H :    0.023933
   8 H :    0.036410
   9 C :   -0.034452
  10 H :    0.025480
  11 H :    0.020558
  12 C :   -0.080640
  13 H :    0.026089
  14 H :    0.029062
  15 H :    0.023251
  16 S :    0.421657
  17 C :   -0.176788
  18 C :   -0.065001
  19 C :   -0.050729
  20 C :   -0.213962
  21 H :    0.028849
  22 C :   -0.038271
  23 H :    0.033567
  24 H :    0.036114
  25 C :   -0.047099
  26 H :    0.030244
  27 H :    0.017850
  28 C :   -0.064504
  29 H :    0.020049
  30 H :    0.017662
  31 H :    0.034907
  32 H :    0.039479
  33 H :    0.024019

  Mayer bond orders larger than 0.100000
B(  0-S ,  1-C ) :   1.1184 B(  0-S ,  4-C ) :   1.1343 B(  1-C ,  2-C ) :   1.6347
B(  1-C , 32-H ) :   0.9592 B(  2-C ,  3-C ) :   1.2267 B(  2-C ,  6-C ) :   1.0478
B(  3-C ,  4-C ) :   1.5841 B(  3-C ,  5-H ) :   0.9875 B(  4-C , 20-C ) :   1.0479
B(  6-C ,  7-H ) :   0.9435 B(  6-C ,  8-H ) :   0.9427 B(  6-C ,  9-C ) :   1.0356
B(  9-C , 10-H ) :   0.9619 B(  9-C , 11-H ) :   0.9576 B(  9-C , 12-C ) :   1.0705
B( 12-C , 13-H ) :   0.9745 B( 12-C , 14-H ) :   0.9747 B( 12-C , 15-H ) :   0.9759
B( 16-S , 17-C ) :   1.1726 B( 16-S , 20-C ) :   1.1308 B( 17-C , 18-C ) :   1.5871
B( 17-C , 33-H ) :   0.9695 B( 18-C , 19-C ) :   1.2639 B( 18-C , 21-H ) :   0.9979
B( 19-C , 20-C ) :   1.5778 B( 19-C , 22-C ) :   1.0434 B( 22-C , 23-H ) :   0.9253
B( 22-C , 24-H ) :   0.9308 B( 22-C , 25-C ) :   1.0811 B( 25-C , 26-H ) :   0.9539
B( 25-C , 27-H ) :   0.9465 B( 25-C , 28-C ) :   1.0869 B( 28-C , 29-H ) :   0.9744
B( 28-C , 30-H ) :   0.9760 B( 28-C , 31-H ) :   0.9755

Dispersion correction           -0.013941817
FINAL SINGLE POINT ENERGY     -1339.868074567989

DIPOLE MOMENT
-------------
                                X             Y             Z
Electronic contribution:     -5.28763     -15.03192     -25.35262
Nuclear contribution   :      5.50741      15.59600      25.57321
                        -----------------------------------------
Total Dipole Moment    :      0.21978       0.56409       0.22059
                        -----------------------------------------
Magnitude (a.u.)       :      0.64433
Magnitude (Debye)      :      1.63775

Rotational constants in cm-1:     0.018282     0.008548     0.006534
Rotational constants in MHz :   548.086673   256.248936   195.869979

                             ****ORCA TERMINATED NORMALLY****
TOTAL RUN TIME: 0 days 0 hours 0 minutes 21 seconds 378 msec
