                         Program Version 4.2.1 -  RELEASE  -
|  1> ! wB97X-D3 SP def2-SVP
|  2> %pal
|  3> nprocs 24
|  4> end
|  5>
|  6> * xyz 0 1
|  7> S 	 48.038 	 -34.4381 	 -119.394
|  8> C 	 48.587 	 -33.3015 	 -120.574
|  9> C 	 48.8055 	 -32.1163 	 -119.949
| 10> C 	 48.3509 	 -32.0514 	 -118.596
| 11> C 	 47.8019 	 -33.2551 	 -118.193
| 12> H 	 48.2849 	 -31.1841 	 -117.889
| 13> C 	 49.1838 	 -30.8965 	 -120.707
| 14> H 	 48.6519 	 -30.0755 	 -120.327
| 15> H 	 48.8432 	 -30.9051 	 -121.755
| 16> C 	 50.6983 	 -30.6652 	 -120.715
| 17> H 	 51.3172 	 -30.8698 	 -119.906
| 18> H 	 51.0816 	 -31.3155 	 -121.568
| 19> C 	 51.0213 	 -29.1897 	 -121.035
| 20> H 	 50.9522 	 -28.5622 	 -120.185
| 21> H 	 52.0412 	 -29.034 	 -121.402
| 22> H 	 50.2785 	 -28.7362 	 -121.713
| 23> S 	 47.9168 	 -33.9088 	 -115.549
| 24> C 	 46.442 	 -34.1273 	 -114.608
| 25> C 	 45.3728 	 -33.8877 	 -115.445
| 26> C 	 45.7199 	 -33.5267 	 -116.801
| 27> C 	 47.0644 	 -33.5208 	 -116.979
| 28> H 	 44.3665 	 -33.996 	 -115.065
| 29> C 	 44.6517 	 -33.3378 	 -117.889
| 30> H 	 44.7615 	 -34.1303 	 -118.631
| 31> H 	 44.8916 	 -32.279 	 -118.235
| 32> C 	 43.2031 	 -33.2857 	 -117.486
| 33> H 	 42.8957 	 -32.4113 	 -116.933
| 34> H 	 42.8163 	 -34.2135 	 -116.963
| 35> C 	 42.2937 	 -33.2245 	 -118.737
| 36> H 	 42.5503 	 -34.0012 	 -119.461
| 37> H 	 42.2853 	 -32.198 	 -119.151
| 38> H 	 41.3087 	 -33.4347 	 -118.375
| 39> H 	 48.7908 	 -33.4128 	 -121.574
| 40> H 	 46.3589 	 -34.2693 	 -113.525
| 41> *
| 42>
| 43>                          ****END OF INPUT****

CARTESIAN COORDINATES (ANGSTROEM)
---------------------------------
  S     48.038000  -34.438100  -119.394000
  C     48.587000  -33.301500  -120.574000
  C     48.805500  -32.116300  -119.949000
  C     48.350900  -32.051400  -118.596000
  C     47.801900  -33.255100  -118.193000
  H     48.284900  -31.184100  -117.889000
  C     49.183800  -30.896500  -120.707000
  H     48.651900  -30.075500  -120.327000
  H     48.843200  -30.905100  -121.755000
  C     50.698300  -30.665200  -120.715000
  H     51.317200  -30.869800  -119.906000
  H     51.081600  -31.315500  -121.568000
  C     51.021300  -29.189700  -121.035000
  H     50.952200  -28.562200  -120.185000
  H     52.041200  -29.034000  -121.402000
  H     50.278500  -28.736200  -121.713000
  S     47.916800  -33.908800  -115.549000
  C     46.442000  -34.127300  -114.608000
  C     45.372800  -33.887700  -115.445000
  C     45.719900  -33.526700  -116.801000
  C     47.064400  -33.520800  -116.979000
  H     44.366500  -33.996000  -115.065000
  C     44.651700  -33.337800  -117.889000
  H     44.761500  -34.130300  -118.631000
  H     44.891600  -32.279000  -118.235000
  C     43.203100  -33.285700  -117.486000
  H     42.895700  -32.411300  -116.933000
  H     42.816300  -34.213500  -116.963000
  C     42.293700  -33.224500  -118.737000
  H     42.550300  -34.001200  -119.461000
  H     42.285300  -32.198000  -119.151000
  H     41.308700  -33.434700  -118.375000
  H     48.790800  -33.412800  -121.574000
  H     46.358900  -34.269300  -113.525000

 Total Charge           Charge          ....    0
 Multiplicity           Mult            ....    1
 Number of Electrons    NEL             ....  134
 Basis Dimension        Dim             ....  322

ORBITAL ENERGIES
----------------

  NO   OCC          E(Eh)            E(eV)
   0   2.0000     -88.962571     -2420.7946
   1   2.0000     -88.962032     -2420.7799
   2   2.0000     -10.322230      -280.8822
   3   2.0000     -10.317497      -280.7534
   4   2.0000     -10.316742      -280.7328
   5   2.0000     -10.302711      -280.3510
   6   2.0000     -10.299354      -280.2597
   7   2.0000     -10.296101      -280.1711
   8   2.0000     -10.296013      -280.1688
   9   2.0000     -10.293666      -280.1049
  10   2.0000     -10.291110      -280.0353
  11   2.0000     -10.287759      -279.9442
  12   2.0000     -10.285155      -279.8733
  13   2.0000     -10.284104      -279.8447
  14   2.0000     -10.276737      -279.6442
  15   2.0000     -10.273193      -279.5478
  16   2.0000      -8.078463      -219.8262
  17   2.0000      -8.077323      -219.7951
  18   2.0000      -6.036921      -164.2730
  19   2.0000      -6.035885      -164.2448
  20   2.0000      -6.032644      -164.1566
  21   2.0000      -6.031630      -164.1290
  22   2.0000      -6.029359      -164.0672
  23   2.0000      -6.028108      -164.0332
  24   2.0000      -1.015338       -27.6287
  25   2.0000      -0.990807       -26.9612
  26   2.0000      -0.915317       -24.9070
  27   2.0000      -0.910685       -24.7810
  28   2.0000      -0.873342       -23.7648
  29   2.0000      -0.848440       -23.0872
  30   2.0000      -0.847650       -23.0657
  31   2.0000      -0.818331       -22.2679
  32   2.0000      -0.780675       -21.2433
  33   2.0000      -0.771172       -20.9846
  34   2.0000      -0.705232       -19.1903
  35   2.0000      -0.704365       -19.1668
  36   2.0000      -0.694253       -18.8916
  37   2.0000      -0.654149       -17.8003
  38   2.0000      -0.645871       -17.5750
  39   2.0000      -0.616265       -16.7694
  40   2.0000      -0.595971       -16.2172
  41   2.0000      -0.580286       -15.7904
  42   2.0000      -0.574771       -15.6403
  43   2.0000      -0.553888       -15.0720
  44   2.0000      -0.531102       -14.4520
  45   2.0000      -0.528691       -14.3864
  46   2.0000      -0.522328       -14.2133
  47   2.0000      -0.510581       -13.8936
  48   2.0000      -0.508446       -13.8355
  49   2.0000      -0.506463       -13.7815
  50   2.0000      -0.493871       -13.4389
  51   2.0000      -0.476478       -12.9656
  52   2.0000      -0.471008       -12.8168
  53   2.0000      -0.459534       -12.5046
  54   2.0000      -0.457283       -12.4433
  55   2.0000      -0.448425       -12.2023
  56   2.0000      -0.445222       -12.1151
  57   2.0000      -0.443817       -12.0769
  58   2.0000      -0.435838       -11.8597
  59   2.0000      -0.423322       -11.5192
  60   2.0000      -0.412431       -11.2228
  61   2.0000      -0.409836       -11.1522
  62   2.0000      -0.404731       -11.0133
  63   2.0000      -0.332091        -9.0366
  64   2.0000      -0.329141        -8.9564
  65   2.0000      -0.319848        -8.7035
  66   2.0000      -0.316027        -8.5995
  67   0.0000       0.045739         1.2446
  68   0.0000       0.063908         1.7390
  69   0.0000       0.124127         3.3777
  70   0.0000       0.132165         3.5964
  71   0.0000       0.135922         3.6986

MULLIKEN ATOMIC CHARGES
-----------------------
   0 S :    0.125216
   1 C :   -0.078193
   2 C :   -0.065470
   3 C :    0.033810
   4 C :   -0.190817
   5 H :    0.031644
   6 C :    0.056478
   7 H :    0.008092
   8 H :    0.026422
   9 C :   -0.059410
  10 H :    0.026172
  11 H :    0.031171
  12 C :   -0.056594
  13 H :    0.020429
  14 H :    0.033532
  15 H :    0.022881
  16 S :    0.115111
  17 C :   -0.094996
  18 C :   -0.046251
  19 C :   -0.023258
  20 C :   -0.190814
  21 H :    0.018221
  22 C :    0.106637
  23 H :    0.039857
  24 H :    0.044033
  25 C :   -0.135644
  26 H :    0.032784
  27 H :    0.038229
  28 C :   -0.035971
  29 H :    0.033947
  30 H :    0.037440
  31 H :    0.021439
  32 H :    0.008752
  33 H :    0.065119
Sum of atomic charges:   -0.0000000

LOEWDIN ATOMIC CHARGES
----------------------
   0 S :    0.434965
   1 C :   -0.191571
   2 C :   -0.063330
   3 C :   -0.064377
   4 C :   -0.210139
   5 H :    0.042281
   6 C :   -0.029466
   7 H :    0.019927
   8 H :    0.035322
   9 C :   -0.035107
  10 H :    0.016650
  11 H :    0.030121
  12 C :   -0.067672
  13 H :    0.017927
  14 H :    0.026440
  15 H :    0.022944
  16 S :    0.418707
  17 C :   -0.189315
  18 C :   -0.072827
  19 C :   -0.058535
  20 C :   -0.224340
  21 H :    0.028536
  22 C :   -0.034385
  23 H :    0.034091
  24 H :    0.048578
  25 C :   -0.050982
  26 H :    0.023458
  27 H :    0.026889
  28 C :   -0.058583
  29 H :    0.023671
  30 H :    0.026254
  31 H :    0.021594
  32 H :    0.015339
  33 H :    0.036936

  Mayer bond orders larger than 0.100000
B(  0-S ,  1-C ) :   1.1344 B(  0-S ,  4-C ) :   1.1756 B(  1-C ,  2-C ) :   1.6111
B(  1-C , 32-H ) :   0.9807 B(  2-C ,  3-C ) :   1.2272 B(  2-C ,  6-C ) :   1.0310
B(  3-C ,  4-C ) :   1.5859 B(  3-C ,  5-H ) :   0.9906 B(  4-C , 20-C ) :   0.9980
B(  6-C ,  7-H ) :   0.9518 B(  6-C ,  8-H ) :   0.9417 B(  6-C ,  9-C ) :   1.0384
B(  9-C , 10-H ) :   0.9692 B(  9-C , 11-H ) :   0.9579 B(  9-C , 12-C ) :   1.0732
B( 12-C , 13-H ) :   0.9769 B( 12-C , 14-H ) :   0.9739 B( 12-C , 15-H ) :   0.9735
B( 16-S , 17-C ) :   1.1475 B( 16-S , 20-C ) :   1.1595 B( 17-C , 18-C ) :   1.6067
B( 17-C , 33-H ) :   0.9644 B( 18-C , 19-C ) :   1.2504 B( 18-C , 21-H ) :   0.9850
B( 19-C , 20-C ) :   1.6226 B( 19-C , 22-C ) :   1.0166 B( 22-C , 23-H ) :   0.9339
B( 22-C , 24-H ) :   0.9235 B( 22-C , 25-C ) :   1.0993 B( 25-C , 26-H ) :   0.9519
B( 25-C , 27-H ) :   0.9481 B( 25-C , 28-C ) :   1.0838 B( 28-C , 29-H ) :   0.9743
B( 28-C , 30-H ) :   0.9764 B( 28-C , 31-H ) :   0.9749

Dispersion correction           -0.013580256
FINAL SINGLE POINT ENERGY     -1339.867925596763

DIPOLE MOMENT
-------------
                                X             Y             Z
Electronic contribution:      7.88414     -16.64781      13.77395
Nuclear contribution   :     -8.30117      17.10654     -13.93623
                        -----------------------------------------
Total Dipole Moment    :     -0.41702       0.45872      -0.16229
                        -----------------------------------------
Magnitude (a.u.)       :      0.64084
Magnitude (Debye)      :      1.62888

Rotational constants in cm-1:     0.019481     0.007424     0.006328
Rotational constants in MHz :   584.023046   222.563363   189.709024

                             ****ORCA TERMINATED NORMALLY****
TOTAL RUN TIME: 0 days 0 hours 0 minutes 20 seconds 945 msec
