                         Program Version 4.2.1 -  RELEASE  -
|  1> ! wB97X-D3 SP def2-SVP
|  2> %pal
|  3> nprocs 24
|  4> end
|  5>
|  6> * xyz 0 1
|  7> S 	 -53.1018 	 11.7398 	 23.5804
|  8> C 	 -53.8867 	 10.6683 	 22.4586
|  9> C 	 -53.5685 	 9.38178 	 22.7515
| 10> C 	 -52.6993 	 9.20967 	 23.8873
| 11> C 	 -52.3198 	 10.4072 	 24.4713
| 12> H 	 -52.3183 	 8.28582 	 24.235
| 13> C 	 -54.2294 	 8.17497 	 22.1742
| 14> H 	 -53.3722 	 7.49884 	 22.0087
| 15> H 	 -54.631 	 8.4557 	 21.2314
| 16> C 	 -55.3031 	 7.45404 	 22.9945
| 17> H 	 -54.8323 	 6.98006 	 23.8476
| 18> H 	 -56.0396 	 8.23668 	 23.3012
| 19> C 	 -56.2092 	 6.46666 	 22.3047
| 20> H 	 -56.8623 	 6.85622 	 21.5158
| 21> H 	 -55.665 	 5.57807 	 22.0146
| 22> H 	 -56.9539 	 6.06971 	 23.0703
| 23> S 	 -51.8536 	 12.1266 	 26.6046
| 24> C 	 -50.7914 	 11.5879 	 27.958
| 25> C 	 -49.9817 	 10.6128 	 27.5162
| 26> C 	 -50.4422 	 10.0129 	 26.2979
| 27> C 	 -51.5292 	 10.6508 	 25.6546
| 28> H 	 -49.2557 	 10.3259 	 28.2255
| 29> C 	 -49.667 	 8.96 	 25.5265
| 30> H 	 -49.9278 	 9.08122 	 24.4906
| 31> H 	 -50.0874 	 7.95499 	 25.7623
| 32> C 	 -48.0876 	 9.0388 	 25.5381
| 33> H 	 -47.6643 	 8.15288 	 25.1013
| 34> H 	 -47.9016 	 9.2444 	 26.5807
| 35> C 	 -47.5582 	 10.2517 	 24.7687
| 36> H 	 -47.961 	 11.1052 	 25.2675
| 37> H 	 -47.93 	 10.3454 	 23.7324
| 38> H 	 -46.5451 	 10.5481 	 24.7557
| 39> H 	 -54.6024 	 10.953 	 21.6689
| 40> H 	 -50.6253 	 12.1754 	 28.8352
| 41> *
| 42>
| 43>                          ****END OF INPUT****

CARTESIAN COORDINATES (ANGSTROEM)
---------------------------------
  S    -53.101800   11.739800   23.580400
  C    -53.886700   10.668300   22.458600
  C    -53.568500    9.381780   22.751500
  C    -52.699300    9.209670   23.887300
  C    -52.319800   10.407200   24.471300
  H    -52.318300    8.285820   24.235000
  C    -54.229400    8.174970   22.174200
  H    -53.372200    7.498840   22.008700
  H    -54.631000    8.455700   21.231400
  C    -55.303100    7.454040   22.994500
  H    -54.832300    6.980060   23.847600
  H    -56.039600    8.236680   23.301200
  C    -56.209200    6.466660   22.304700
  H    -56.862300    6.856220   21.515800
  H    -55.665000    5.578070   22.014600
  H    -56.953900    6.069710   23.070300
  S    -51.853600   12.126600   26.604600
  C    -50.791400   11.587900   27.958000
  C    -49.981700   10.612800   27.516200
  C    -50.442200   10.012900   26.297900
  C    -51.529200   10.650800   25.654600
  H    -49.255700   10.325900   28.225500
  C    -49.667000    8.960000   25.526500
  H    -49.927800    9.081220   24.490600
  H    -50.087400    7.954990   25.762300
  C    -48.087600    9.038800   25.538100
  H    -47.664300    8.152880   25.101300
  H    -47.901600    9.244400   26.580700
  C    -47.558200   10.251700   24.768700
  H    -47.961000   11.105200   25.267500
  H    -47.930000   10.345400   23.732400
  H    -46.545100   10.548100   24.755700
  H    -54.602400   10.953000   21.668900
  H    -50.625300   12.175400   28.835200

 Total Charge           Charge          ....    0
 Multiplicity           Mult            ....    1
 Number of Electrons    NEL             ....  134
 Basis Dimension        Dim             ....  322

ORBITAL ENERGIES
----------------

  NO   OCC          E(Eh)            E(eV)
   0   2.0000     -88.966110     -2420.8909
   1   2.0000     -88.960579     -2420.7404
   2   2.0000     -10.338106      -281.3142
   3   2.0000     -10.335989      -281.2566
   4   2.0000     -10.320086      -280.8238
   5   2.0000     -10.316018      -280.7131
   6   2.0000     -10.311560      -280.5918
   7   2.0000     -10.297521      -280.2098
   8   2.0000     -10.295562      -280.1565
   9   2.0000     -10.295223      -280.1473
  10   2.0000     -10.291360      -280.0421
  11   2.0000     -10.289700      -279.9970
  12   2.0000     -10.287790      -279.9450
  13   2.0000     -10.286682      -279.9148
  14   2.0000     -10.282532      -279.8019
  15   2.0000     -10.267177      -279.3841
  16   2.0000      -8.080597      -219.8842
  17   2.0000      -8.074577      -219.7204
  18   2.0000      -6.039320      -164.3383
  19   2.0000      -6.035128      -164.2242
  20   2.0000      -6.033268      -164.1736
  21   2.0000      -6.031142      -164.1157
  22   2.0000      -6.029388      -164.0680
  23   2.0000      -6.024968      -163.9477
  24   2.0000      -1.006129       -27.3782
  25   2.0000      -0.984754       -26.7965
  26   2.0000      -0.914695       -24.8901
  27   2.0000      -0.904266       -24.6063
  28   2.0000      -0.879656       -23.9367
  29   2.0000      -0.852873       -23.2079
  30   2.0000      -0.840965       -22.8838
  31   2.0000      -0.825971       -22.4758
  32   2.0000      -0.781157       -21.2564
  33   2.0000      -0.770564       -20.9681
  34   2.0000      -0.716135       -19.4870
  35   2.0000      -0.702877       -19.1263
  36   2.0000      -0.694496       -18.8982
  37   2.0000      -0.656626       -17.8677
  38   2.0000      -0.641023       -17.4431
  39   2.0000      -0.627301       -17.0697
  40   2.0000      -0.600789       -16.3483
  41   2.0000      -0.574722       -15.6390
  42   2.0000      -0.570225       -15.5166
  43   2.0000      -0.550348       -14.9757
  44   2.0000      -0.544896       -14.8274
  45   2.0000      -0.525996       -14.3131
  46   2.0000      -0.520010       -14.1502
  47   2.0000      -0.514562       -14.0019
  48   2.0000      -0.512589       -13.9483
  49   2.0000      -0.506580       -13.7848
  50   2.0000      -0.484495       -13.1838
  51   2.0000      -0.479347       -13.0437
  52   2.0000      -0.474549       -12.9131
  53   2.0000      -0.466756       -12.7011
  54   2.0000      -0.458195       -12.4681
  55   2.0000      -0.448758       -12.2113
  56   2.0000      -0.446997       -12.1634
  57   2.0000      -0.435059       -11.8385
  58   2.0000      -0.431027       -11.7288
  59   2.0000      -0.424753       -11.5581
  60   2.0000      -0.415009       -11.2930
  61   2.0000      -0.407528       -11.0894
  62   2.0000      -0.401410       -10.9229
  63   2.0000      -0.366115        -9.9625
  64   2.0000      -0.332655        -9.0520
  65   2.0000      -0.323211        -8.7950
  66   2.0000      -0.286596        -7.7987
  67   0.0000       0.014075         0.3830
  68   0.0000       0.071330         1.9410
  69   0.0000       0.104388         2.8405
  70   0.0000       0.124245         3.3809
  71   0.0000       0.131584         3.5806

MULLIKEN ATOMIC CHARGES
-----------------------
   0 S :    0.096128
   1 C :   -0.119588
   2 C :   -0.089915
   3 C :    0.023329
   4 C :   -0.111202
   5 H :   -0.004450
   6 C :    0.086621
   7 H :    0.023837
   8 H :   -0.003344
   9 C :   -0.062330
  10 H :    0.028547
  11 H :    0.031832
  12 C :   -0.065268
  13 H :    0.039097
  14 H :    0.028150
  15 H :    0.037358
  16 S :    0.063748
  17 C :   -0.088445
  18 C :   -0.018212
  19 C :   -0.045307
  20 C :   -0.119245
  21 H :    0.020962
  22 C :    0.008589
  23 H :    0.021227
  24 H :    0.042706
  25 C :   -0.022715
  26 H :    0.036922
  27 H :    0.026606
  28 C :   -0.052914
  29 H :    0.013970
  30 H :    0.031083
  31 H :    0.025878
  32 H :    0.060105
  33 H :    0.056238
Sum of atomic charges:   -0.0000000

LOEWDIN ATOMIC CHARGES
----------------------
   0 S :    0.391741
   1 C :   -0.199693
   2 C :   -0.068728
   3 C :   -0.055334
   4 C :   -0.173785
   5 H :    0.023932
   6 C :   -0.034194
   7 H :    0.032270
   8 H :    0.020875
   9 C :   -0.043255
  10 H :    0.024038
  11 H :    0.031932
  12 C :   -0.071093
  13 H :    0.025999
  14 H :    0.019861
  15 H :    0.037197
  16 S :    0.357429
  17 C :   -0.149661
  18 C :   -0.074085
  19 C :   -0.056475
  20 C :   -0.178552
  21 H :    0.031735
  22 C :   -0.037127
  23 H :    0.024221
  24 H :    0.032108
  25 C :   -0.026894
  26 H :    0.024559
  27 H :    0.021848
  28 C :   -0.073634
  29 H :    0.024978
  30 H :    0.027993
  31 H :    0.021937
  32 H :    0.040193
  33 H :    0.027668

  Mayer bond orders larger than 0.100000
B(  0-S ,  1-C ) :   1.1222 B(  0-S ,  4-C ) :   1.1325 B(  1-C ,  2-C ) :   1.6301
B(  1-C , 32-H ) :   0.9637 B(  2-C ,  3-C ) :   1.2158 B(  2-C ,  6-C ) :   1.0451
B(  3-C ,  4-C ) :   1.5613 B(  3-C ,  5-H ) :   1.0035 B(  4-C , 20-C ) :   1.1005
B(  6-C ,  7-H ) :   0.9274 B(  6-C ,  8-H ) :   0.9346 B(  6-C ,  9-C ) :   1.0675
B(  9-C , 10-H ) :   0.9499 B(  9-C , 11-H ) :   0.9543 B(  9-C , 12-C ) :   1.0980
B( 12-C , 13-H ) :   0.9732 B( 12-C , 14-H ) :   0.9734 B( 12-C , 15-H ) :   0.9708
B( 16-S , 17-C ) :   1.1388 B( 16-S , 20-C ) :   1.1165 B( 17-C , 18-C ) :   1.6449
B( 17-C , 33-H ) :   0.9659 B( 18-C , 19-C ) :   1.2085 B( 18-C , 21-H ) :   0.9921
B( 19-C , 20-C ) :   1.5748 B( 19-C , 22-C ) :   1.0345 B( 22-C , 23-H ) :   0.9456
B( 22-C , 24-H ) :   0.9320 B( 22-C , 25-C ) :   1.0567 B( 25-C , 26-H ) :   0.9575
B( 25-C , 27-H ) :   0.9583 B( 25-C , 28-C ) :   1.0715 B( 28-C , 29-H ) :   0.9711
B( 28-C , 30-H ) :   0.9737 B( 28-C , 31-H ) :   0.9759

Dispersion correction           -0.013912284
FINAL SINGLE POINT ENERGY     -1339.856963497370

DIPOLE MOMENT
-------------
                                X             Y             Z
Electronic contribution:     -3.02044      21.41999       8.28687
Nuclear contribution   :      3.15116     -21.97539      -8.29997
                        -----------------------------------------
Total Dipole Moment    :      0.13073      -0.55540      -0.01311
                        -----------------------------------------
Magnitude (a.u.)       :      0.57073
Magnitude (Debye)      :      1.45067

Rotational constants in cm-1:     0.020711     0.007449     0.006553
Rotational constants in MHz :   620.912933   223.307357   196.451188

                             ****ORCA TERMINATED NORMALLY****
TOTAL RUN TIME: 0 days 0 hours 0 minutes 21 seconds 347 msec
