                         Program Version 4.2.1 -  RELEASE  -
|  1> ! wB97X-D3 SP def2-SVP
|  2> %pal
|  3> nprocs 24
|  4> end
|  5>
|  6> * xyz 0 1
|  7> S 	 20.3602 	 -5.01069 	 -115.833
|  8> C 	 22.0875 	 -4.93216 	 -115.462
|  9> C 	 22.852 	 -5.83289 	 -116.202
| 10> C 	 22.0724 	 -6.59778 	 -117.065
| 11> C 	 20.7759 	 -6.0983 	 -117.21
| 12> H 	 22.3365 	 -7.41219 	 -117.755
| 13> C 	 24.3212 	 -6.13234 	 -115.985
| 14> H 	 24.4928 	 -7.03581 	 -115.482
| 15> H 	 24.6312 	 -5.32286 	 -115.296
| 16> C 	 25.306 	 -5.93831 	 -117.216
| 17> H 	 25.0631 	 -5.03693 	 -117.764
| 18> H 	 26.2673 	 -5.92759 	 -116.852
| 19> C 	 25.2408 	 -7.07825 	 -118.232
| 20> H 	 24.4501 	 -6.72356 	 -118.909
| 21> H 	 26.0693 	 -7.28547 	 -118.878
| 22> H 	 25.0058 	 -7.99547 	 -117.639
| 23> S 	 19.2954 	 -8.21648 	 -118.152
| 24> C 	 18.2067 	 -8.05672 	 -119.454
| 25> C 	 18.284 	 -6.76732 	 -119.875
| 26> C 	 19.2556 	 -5.86726 	 -119.287
| 27> C 	 19.8756 	 -6.57232 	 -118.238
| 28> H 	 17.7133 	 -6.48116 	 -120.757
| 29> C 	 19.5994 	 -4.5227 	 -119.756
| 30> H 	 19.6595 	 -4.57288 	 -120.873
| 31> H 	 20.5629 	 -4.246 	 -119.454
| 32> C 	 18.6662 	 -3.46039 	 -119.075
| 33> H 	 18.7192 	 -3.64413 	 -118.06
| 34> H 	 17.584 	 -3.54103 	 -119.293
| 35> C 	 19.0485 	 -1.9687 	 -119.501
| 36> H 	 18.775 	 -1.74846 	 -120.539
| 37> H 	 20.0848 	 -1.72773 	 -119.352
| 38> H 	 18.562 	 -1.19236 	 -118.942
| 39> H 	 22.5021 	 -4.26957 	 -114.745
| 40> H 	 17.4977 	 -8.79014 	 -119.83
| 41> *
| 42>
| 43>                          ****END OF INPUT****

CARTESIAN COORDINATES (ANGSTROEM)
---------------------------------
  S     20.360200   -5.010690  -115.833000
  C     22.087500   -4.932160  -115.462000
  C     22.852000   -5.832890  -116.202000
  C     22.072400   -6.597780  -117.065000
  C     20.775900   -6.098300  -117.210000
  H     22.336500   -7.412190  -117.755000
  C     24.321200   -6.132340  -115.985000
  H     24.492800   -7.035810  -115.482000
  H     24.631200   -5.322860  -115.296000
  C     25.306000   -5.938310  -117.216000
  H     25.063100   -5.036930  -117.764000
  H     26.267300   -5.927590  -116.852000
  C     25.240800   -7.078250  -118.232000
  H     24.450100   -6.723560  -118.909000
  H     26.069300   -7.285470  -118.878000
  H     25.005800   -7.995470  -117.639000
  S     19.295400   -8.216480  -118.152000
  C     18.206700   -8.056720  -119.454000
  C     18.284000   -6.767320  -119.875000
  C     19.255600   -5.867260  -119.287000
  C     19.875600   -6.572320  -118.238000
  H     17.713300   -6.481160  -120.757000
  C     19.599400   -4.522700  -119.756000
  H     19.659500   -4.572880  -120.873000
  H     20.562900   -4.246000  -119.454000
  C     18.666200   -3.460390  -119.075000
  H     18.719200   -3.644130  -118.060000
  H     17.584000   -3.541030  -119.293000
  C     19.048500   -1.968700  -119.501000
  H     18.775000   -1.748460  -120.539000
  H     20.084800   -1.727730  -119.352000
  H     18.562000   -1.192360  -118.942000
  H     22.502100   -4.269570  -114.745000
  H     17.497700   -8.790140  -119.830000

 Total Charge           Charge          ....    0
 Multiplicity           Mult            ....    1
 Number of Electrons    NEL             ....  134
 Basis Dimension        Dim             ....  322

ORBITAL ENERGIES
----------------

  NO   OCC          E(Eh)            E(eV)
   0   2.0000     -88.973023     -2421.0790
   1   2.0000     -88.960809     -2420.7467
   2   2.0000     -10.329728      -281.0862
   3   2.0000     -10.322045      -280.8771
   4   2.0000     -10.316357      -280.7224
   5   2.0000     -10.312084      -280.6061
   6   2.0000     -10.301949      -280.3303
   7   2.0000     -10.300976      -280.3038
   8   2.0000     -10.293241      -280.0933
   9   2.0000     -10.292772      -280.0806
  10   2.0000     -10.289809      -279.9999
  11   2.0000     -10.288700      -279.9698
  12   2.0000     -10.287165      -279.9280
  13   2.0000     -10.281484      -279.7734
  14   2.0000     -10.275216      -279.6028
  15   2.0000     -10.274620      -279.5866
  16   2.0000      -8.085937      -220.0295
  17   2.0000      -8.076426      -219.7707
  18   2.0000      -6.044388      -164.4762
  19   2.0000      -6.040941      -164.3824
  20   2.0000      -6.036621      -164.2648
  21   2.0000      -6.034841      -164.2164
  22   2.0000      -6.030638      -164.1020
  23   2.0000      -6.027389      -164.0136
  24   2.0000      -1.006327       -27.3835
  25   2.0000      -0.984228       -26.7822
  26   2.0000      -0.909657       -24.7530
  27   2.0000      -0.906658       -24.6714
  28   2.0000      -0.869973       -23.6732
  29   2.0000      -0.850467       -23.1424
  30   2.0000      -0.842892       -22.9362
  31   2.0000      -0.812738       -22.1157
  32   2.0000      -0.783420       -21.3179
  33   2.0000      -0.769766       -20.9464
  34   2.0000      -0.711729       -19.3671
  35   2.0000      -0.701087       -19.0775
  36   2.0000      -0.699285       -19.0285
  37   2.0000      -0.659257       -17.9393
  38   2.0000      -0.637459       -17.3461
  39   2.0000      -0.615936       -16.7605
  40   2.0000      -0.600614       -16.3435
  41   2.0000      -0.578122       -15.7315
  42   2.0000      -0.556099       -15.1322
  43   2.0000      -0.545039       -14.8313
  44   2.0000      -0.543036       -14.7768
  45   2.0000      -0.521422       -14.1886
  46   2.0000      -0.518213       -14.1013
  47   2.0000      -0.510929       -13.9031
  48   2.0000      -0.509130       -13.8541
  49   2.0000      -0.500343       -13.6150
  50   2.0000      -0.494468       -13.4552
  51   2.0000      -0.482124       -13.1193
  52   2.0000      -0.467765       -12.7285
  53   2.0000      -0.460731       -12.5371
  54   2.0000      -0.454021       -12.3546
  55   2.0000      -0.446794       -12.1579
  56   2.0000      -0.441988       -12.0271
  57   2.0000      -0.438639       -11.9360
  58   2.0000      -0.434073       -11.8117
  59   2.0000      -0.426075       -11.5941
  60   2.0000      -0.421055       -11.4575
  61   2.0000      -0.414872       -11.2892
  62   2.0000      -0.409821       -11.1518
  63   2.0000      -0.339021        -9.2252
  64   2.0000      -0.331344        -9.0163
  65   2.0000      -0.321847        -8.7579
  66   2.0000      -0.297060        -8.0834
  67   0.0000       0.030000         0.8163
  68   0.0000       0.058110         1.5812
  69   0.0000       0.104576         2.8456
  70   0.0000       0.117582         3.1996
  71   0.0000       0.138485         3.7684

MULLIKEN ATOMIC CHARGES
-----------------------
   0 S :    0.122649
   1 C :   -0.111158
   2 C :   -0.062601
   3 C :    0.010057
   4 C :   -0.151061
   5 H :    0.032580
   6 C :    0.054909
   7 H :    0.036983
   8 H :    0.014643
   9 C :   -0.037512
  10 H :    0.028976
  11 H :    0.015770
  12 C :   -0.079010
  13 H :    0.039848
  14 H :    0.033090
  15 H :    0.036287
  16 S :    0.112012
  17 C :   -0.085958
  18 C :   -0.044137
  19 C :   -0.043564
  20 C :   -0.205850
  21 H :    0.011018
  22 C :    0.109909
  23 H :    0.037785
  24 H :    0.007354
  25 C :   -0.061290
  26 H :    0.006043
  27 H :    0.033168
  28 C :   -0.036907
  29 H :    0.031029
  30 H :    0.022754
  31 H :    0.023229
  32 H :    0.034938
  33 H :    0.064018
Sum of atomic charges:   -0.0000000

LOEWDIN ATOMIC CHARGES
----------------------
   0 S :    0.386794
   1 C :   -0.183168
   2 C :   -0.066707
   3 C :   -0.054926
   4 C :   -0.182853
   5 H :    0.038068
   6 C :   -0.022761
   7 H :    0.025369
   8 H :    0.034358
   9 C :   -0.027701
  10 H :    0.025346
  11 H :    0.011982
  12 C :   -0.074299
  13 H :    0.029240
  14 H :    0.021345
  15 H :    0.027109
  16 S :    0.424557
  17 C :   -0.206516
  18 C :   -0.076820
  19 C :   -0.052209
  20 C :   -0.208962
  21 H :    0.025577
  22 C :   -0.028057
  23 H :    0.039718
  24 H :    0.026262
  25 C :   -0.023983
  26 H :    0.006814
  27 H :    0.027342
  28 C :   -0.068851
  29 H :    0.026420
  30 H :    0.020057
  31 H :    0.023142
  32 H :    0.019380
  33 H :    0.038932

  Mayer bond orders larger than 0.100000
B(  0-S ,  1-C ) :   1.1383 B(  0-S ,  4-C ) :   1.1270 B(  1-C ,  2-C ) :   1.6062
B(  1-C ,  4-C ) :   0.1035 B(  1-C , 32-H ) :   0.9674 B(  2-C ,  3-C ) :   1.2434
B(  2-C ,  6-C ) :   1.0208 B(  3-C ,  4-C ) :   1.5670 B(  3-C ,  5-H ) :   0.9861
B(  4-C , 20-C ) :   1.0607 B(  6-C ,  7-H ) :   0.9449 B(  6-C ,  8-H ) :   0.9340
B(  6-C ,  9-C ) :   1.0747 B(  9-C , 10-H ) :   0.9625 B(  9-C , 11-H ) :   0.9583
B(  9-C , 12-C ) :   1.0663 B( 12-C , 13-H ) :   0.9787 B( 12-C , 14-H ) :   0.9738
B( 12-C , 15-H ) :   0.9751 B( 16-S , 17-C ) :   1.1495 B( 16-S , 20-C ) :   1.1601
B( 17-C , 18-C ) :   1.6037 B( 17-C , 33-H ) :   0.9692 B( 18-C , 19-C ) :   1.2500
B( 18-C , 21-H ) :   0.9815 B( 19-C , 20-C ) :   1.5489 B( 19-C , 22-C ) :   1.0687
B( 22-C , 23-H ) :   0.9351 B( 22-C , 24-H ) :   0.9205 B( 22-C , 25-C ) :   1.0384
B( 25-C , 26-H ) :   0.9529 B( 25-C , 27-H ) :   0.9627 B( 25-C , 28-C ) :   1.0714
B( 28-C , 29-H ) :   0.9778 B( 28-C , 30-H ) :   0.9767 B( 28-C , 31-H ) :   0.9754

Dispersion correction           -0.014696405
FINAL SINGLE POINT ENERGY     -1339.853762294945

DIPOLE MOMENT
-------------
                                X             Y             Z
Electronic contribution:    -13.89454     -12.21720       9.30449
Nuclear contribution   :     14.25902      12.40700      -9.53759
                        -----------------------------------------
Total Dipole Moment    :      0.36448       0.18980      -0.23310
                        -----------------------------------------
Magnitude (a.u.)       :      0.47245
Magnitude (Debye)      :      1.20087

Rotational constants in cm-1:     0.016695     0.009107     0.007686
Rotational constants in MHz :   500.496970   273.019093   230.427836

                             ****ORCA TERMINATED NORMALLY****
TOTAL RUN TIME: 0 days 0 hours 0 minutes 20 seconds 608 msec
