                         Program Version 4.2.1 -  RELEASE  -
|  1> ! wB97X-D3 SP def2-SVP
|  2> %pal
|  3> nprocs 24
|  4> end
|  5>
|  6> * xyz 0 1
|  7> S 	 -145.202 	 26.164 	 -19.7736
|  8> C 	 -145.068 	 24.7899 	 -20.7906
|  9> C 	 -143.837 	 24.3027 	 -20.893
| 10> C 	 -142.999 	 24.9719 	 -19.9341
| 11> C 	 -143.57 	 25.9343 	 -19.0989
| 12> H 	 -141.893 	 24.7961 	 -19.7923
| 13> C 	 -143.377 	 23.2207 	 -21.8001
| 14> H 	 -144.176 	 22.9288 	 -22.4923
| 15> H 	 -143.247 	 22.3106 	 -21.2111
| 16> C 	 -142.087 	 23.6093 	 -22.5152
| 17> H 	 -142.273 	 24.504 	 -23.0349
| 18> H 	 -141.211 	 23.7413 	 -21.9253
| 19> C 	 -141.606 	 22.5244 	 -23.6065
| 20> H 	 -142.307 	 22.4724 	 -24.476
| 21> H 	 -140.674 	 22.7958 	 -24.0052
| 22> H 	 -141.536 	 21.4949 	 -23.1783
| 23> S 	 -143.573 	 28.521 	 -18.4605
| 24> C 	 -142.534 	 29.0827 	 -17.1543
| 25> C 	 -141.742 	 28.0978 	 -16.7098
| 26> C 	 -141.98 	 26.821 	 -17.3465
| 27> C 	 -142.942 	 26.889 	 -18.2767
| 28> H 	 -140.997 	 28.195 	 -15.9651
| 29> C 	 -141.135 	 25.6413 	 -17.0217
| 30> H 	 -141.79 	 24.795 	 -17.1411
| 31> H 	 -140.87 	 25.6506 	 -16.0085
| 32> C 	 -139.83 	 25.442 	 -17.8544
| 33> H 	 -139.36 	 26.4223 	 -17.7374
| 34> H 	 -140.075 	 25.2834 	 -18.9197
| 35> C 	 -138.949 	 24.3338 	 -17.2818
| 36> H 	 -139.518 	 23.4655 	 -17.1269
| 37> H 	 -138.435 	 24.594 	 -16.3587
| 38> H 	 -138.146 	 23.9934 	 -17.9971
| 39> H 	 -145.896 	 24.4284 	 -21.4747
| 40> H 	 -142.372 	 30.0847 	 -16.7557
| 41> *
| 42>
| 43>                          ****END OF INPUT****

CARTESIAN COORDINATES (ANGSTROEM)
---------------------------------
  S    -145.202000   26.164000  -19.773600
  C    -145.068000   24.789900  -20.790600
  C    -143.837000   24.302700  -20.893000
  C    -142.999000   24.971900  -19.934100
  C    -143.570000   25.934300  -19.098900
  H    -141.893000   24.796100  -19.792300
  C    -143.377000   23.220700  -21.800100
  H    -144.176000   22.928800  -22.492300
  H    -143.247000   22.310600  -21.211100
  C    -142.087000   23.609300  -22.515200
  H    -142.273000   24.504000  -23.034900
  H    -141.211000   23.741300  -21.925300
  C    -141.606000   22.524400  -23.606500
  H    -142.307000   22.472400  -24.476000
  H    -140.674000   22.795800  -24.005200
  H    -141.536000   21.494900  -23.178300
  S    -143.573000   28.521000  -18.460500
  C    -142.534000   29.082700  -17.154300
  C    -141.742000   28.097800  -16.709800
  C    -141.980000   26.821000  -17.346500
  C    -142.942000   26.889000  -18.276700
  H    -140.997000   28.195000  -15.965100
  C    -141.135000   25.641300  -17.021700
  H    -141.790000   24.795000  -17.141100
  H    -140.870000   25.650600  -16.008500
  C    -139.830000   25.442000  -17.854400
  H    -139.360000   26.422300  -17.737400
  H    -140.075000   25.283400  -18.919700
  C    -138.949000   24.333800  -17.281800
  H    -139.518000   23.465500  -17.126900
  H    -138.435000   24.594000  -16.358700
  H    -138.146000   23.993400  -17.997100
  H    -145.896000   24.428400  -21.474700
  H    -142.372000   30.084700  -16.755700

 Total Charge           Charge          ....    0
 Multiplicity           Mult            ....    1
 Number of Electrons    NEL             ....  134
 Basis Dimension        Dim             ....  322

ORBITAL ENERGIES
----------------

  NO   OCC          E(Eh)            E(eV)
   0   2.0000     -88.962956     -2420.8051
   1   2.0000     -88.961754     -2420.7724
   2   2.0000     -10.328590      -281.0552
   3   2.0000     -10.320730      -280.8413
   4   2.0000     -10.313516      -280.6450
   5   2.0000     -10.311838      -280.5994
   6   2.0000     -10.300092      -280.2798
   7   2.0000     -10.295313      -280.1497
   8   2.0000     -10.294836      -280.1367
   9   2.0000     -10.293769      -280.1077
  10   2.0000     -10.292378      -280.0698
  11   2.0000     -10.287688      -279.9422
  12   2.0000     -10.286182      -279.9013
  13   2.0000     -10.284208      -279.8475
  14   2.0000     -10.283020      -279.8152
  15   2.0000     -10.280486      -279.7463
  16   2.0000      -8.077759      -219.8070
  17   2.0000      -8.076966      -219.7854
  18   2.0000      -6.036603      -164.2643
  19   2.0000      -6.035545      -164.2355
  20   2.0000      -6.032360      -164.1489
  21   2.0000      -6.031547      -164.1267
  22   2.0000      -6.028027      -164.0309
  23   2.0000      -6.027449      -164.0152
  24   2.0000      -1.014929       -27.6176
  25   2.0000      -0.990793       -26.9608
  26   2.0000      -0.915734       -24.9184
  27   2.0000      -0.911410       -24.8007
  28   2.0000      -0.879379       -23.9291
  29   2.0000      -0.854062       -23.2402
  30   2.0000      -0.840976       -22.8841
  31   2.0000      -0.818205       -22.2645
  32   2.0000      -0.783270       -21.3139
  33   2.0000      -0.776168       -21.1206
  34   2.0000      -0.718540       -19.5525
  35   2.0000      -0.705056       -19.1855
  36   2.0000      -0.696220       -18.9451
  37   2.0000      -0.672140       -18.2899
  38   2.0000      -0.638562       -17.3762
  39   2.0000      -0.617612       -16.8061
  40   2.0000      -0.595836       -16.2135
  41   2.0000      -0.572554       -15.5800
  42   2.0000      -0.570876       -15.5343
  43   2.0000      -0.563224       -15.3261
  44   2.0000      -0.528495       -14.3811
  45   2.0000      -0.523806       -14.2535
  46   2.0000      -0.519080       -14.1249
  47   2.0000      -0.512248       -13.9390
  48   2.0000      -0.508715       -13.8428
  49   2.0000      -0.503539       -13.7020
  50   2.0000      -0.498786       -13.5727
  51   2.0000      -0.477655       -12.9976
  52   2.0000      -0.472800       -12.8655
  53   2.0000      -0.464122       -12.6294
  54   2.0000      -0.460495       -12.5307
  55   2.0000      -0.454319       -12.3626
  56   2.0000      -0.445872       -12.1328
  57   2.0000      -0.437396       -11.9022
  58   2.0000      -0.431300       -11.7363
  59   2.0000      -0.430516       -11.7149
  60   2.0000      -0.425385       -11.5753
  61   2.0000      -0.421647       -11.4736
  62   2.0000      -0.410422       -11.1681
  63   2.0000      -0.364257        -9.9119
  64   2.0000      -0.330543        -8.9945
  65   2.0000      -0.325906        -8.8684
  66   2.0000      -0.289558        -7.8793
  67   0.0000       0.026178         0.7123
  68   0.0000       0.076594         2.0842
  69   0.0000       0.105474         2.8701
  70   0.0000       0.128386         3.4936
  71   0.0000       0.133150         3.6232

MULLIKEN ATOMIC CHARGES
-----------------------
   0 S :    0.086867
   1 C :   -0.142086
   2 C :   -0.059006
   3 C :   -0.018980
   4 C :   -0.120521
   5 H :    0.007122
   6 C :    0.109986
   7 H :    0.013174
   8 H :    0.034793
   9 C :   -0.090128
  10 H :    0.029626
  11 H :    0.036258
  12 C :   -0.062208
  13 H :    0.033675
  14 H :    0.024571
  15 H :    0.036455
  16 S :    0.092209
  17 C :   -0.065636
  18 C :   -0.010590
  19 C :   -0.072121
  20 C :   -0.130179
  21 H :   -0.002798
  22 C :    0.076504
  23 H :    0.018017
  24 H :   -0.000900
  25 C :   -0.065493
  26 H :    0.025833
  27 H :    0.038373
  28 C :   -0.033729
  29 H :    0.018869
  30 H :    0.036371
  31 H :    0.038183
  32 H :    0.063045
  33 H :    0.054445
Sum of atomic charges:    0.0000000

LOEWDIN ATOMIC CHARGES
----------------------
   0 S :    0.394720
   1 C :   -0.203233
   2 C :   -0.078229
   3 C :   -0.059997
   4 C :   -0.188163
   5 H :    0.030497
   6 C :   -0.028730
   7 H :    0.032139
   8 H :    0.034549
   9 C :   -0.028747
  10 H :    0.021799
  11 H :    0.021533
  12 C :   -0.064941
  13 H :    0.025975
  14 H :    0.016163
  15 H :    0.027416
  16 S :    0.387147
  17 C :   -0.180304
  18 C :   -0.063167
  19 C :   -0.060555
  20 C :   -0.183774
  21 H :    0.023527
  22 C :   -0.029929
  23 H :    0.027037
  24 H :    0.021825
  25 C :   -0.034720
  26 H :    0.025237
  27 H :    0.022305
  28 C :   -0.066275
  29 H :    0.017974
  30 H :    0.027111
  31 H :    0.034716
  32 H :    0.042341
  33 H :    0.036754

  Mayer bond orders larger than 0.100000
B(  0-S ,  1-C ) :   1.1430 B(  0-S ,  4-C ) :   1.1155 B(  1-C ,  2-C ) :   1.6339
B(  1-C , 32-H ) :   0.9501 B(  2-C ,  3-C ) :   1.2311 B(  2-C ,  6-C ) :   1.0336
B(  3-C ,  4-C ) :   1.5680 B(  3-C ,  5-H ) :   0.9790 B(  4-C , 20-C ) :   1.0990
B(  6-C ,  7-H ) :   0.9382 B(  6-C ,  8-H ) :   0.9275 B(  6-C ,  9-C ) :   1.0564
B(  9-C , 10-H ) :   0.9611 B(  9-C , 11-H ) :   0.9564 B(  9-C , 12-C ) :   1.0810
B( 12-C , 13-H ) :   0.9781 B( 12-C , 14-H ) :   0.9780 B( 12-C , 15-H ) :   0.9767
B( 16-S , 17-C ) :   1.1151 B( 16-S , 20-C ) :   1.1028 B( 17-C , 18-C ) :   1.6583
B( 17-C , 33-H ) :   0.9624 B( 18-C , 19-C ) :   1.2053 B( 18-C , 21-H ) :   0.9925
B( 19-C , 20-C ) :   1.6519 B( 19-C , 22-C ) :   1.0737 B( 22-C , 23-H ) :   0.9152
B( 22-C , 24-H ) :   0.9267 B( 22-C , 25-C ) :   1.0565 B( 25-C , 26-H ) :   0.9535
B( 25-C , 27-H ) :   0.9506 B( 25-C , 28-C ) :   1.0804 B( 28-C , 29-H ) :   0.9735
B( 28-C , 30-H ) :   0.9742 B( 28-C , 31-H ) :   0.9730

Dispersion correction           -0.013983032
FINAL SINGLE POINT ENERGY     -1339.874418598615

DIPOLE MOMENT
-------------
                                X             Y             Z
Electronic contribution:    -22.47568      21.35747       7.73837
Nuclear contribution   :     23.14723     -21.80083      -7.86929
                        -----------------------------------------
Total Dipole Moment    :      0.67155      -0.44335      -0.13092
                        -----------------------------------------
Magnitude (a.u.)       :      0.81528
Magnitude (Debye)      :      2.07228

Rotational constants in cm-1:     0.016698     0.009540     0.006618
Rotational constants in MHz :   500.584289   285.988284   198.416251

                             ****ORCA TERMINATED NORMALLY****
TOTAL RUN TIME: 0 days 0 hours 0 minutes 21 seconds 819 msec
