                         Program Version 4.2.1 -  RELEASE  -
|  1> ! wB97X-D3 SP def2-SVP
|  2> %pal
|  3> nprocs 24
|  4> end
|  5>
|  6> * xyz 0 1
|  7> S 	 -139.753 	 7.84062 	 5.62345
|  8> C 	 -140.738 	 6.8789 	 4.55249
|  9> C 	 -141.912 	 7.59319 	 4.2535
| 10> C 	 -142.014 	 8.79455 	 5.01897
| 11> C 	 -140.86 	 9.1723 	 5.73407
| 12> H 	 -142.815 	 9.57034 	 4.92464
| 13> C 	 -142.99 	 7.20143 	 3.2615
| 14> H 	 -142.882 	 6.1367 	 3.09673
| 15> H 	 -142.577 	 7.54847 	 2.32378
| 16> C 	 -144.457 	 7.66654 	 3.41224
| 17> H 	 -144.898 	 7.09495 	 4.19745
| 18> H 	 -144.606 	 8.68366 	 3.81623
| 19> C 	 -145.335 	 7.56607 	 2.16763
| 20> H 	 -144.889 	 8.33802 	 1.42965
| 21> H 	 -145.313 	 6.6107 	 1.67688
| 22> H 	 -146.35 	 7.92477 	 2.30853
| 23> S 	 -140.466 	 11.9481 	 5.74025
| 24> C 	 -139.989 	 12.6842 	 7.32272
| 25> C 	 -140.074 	 11.7952 	 8.34197
| 26> C 	 -140.472 	 10.5009 	 7.91838
| 27> C 	 -140.701 	 10.3457 	 6.5757
| 28> H 	 -139.796 	 12.1686 	 9.33845
| 29> C 	 -140.851 	 9.51166 	 9.05053
| 30> H 	 -141.421 	 8.74956 	 8.50987
| 31> H 	 -141.507 	 9.90227 	 9.74736
| 32> C 	 -139.711 	 8.88638 	 9.78787
| 33> H 	 -139.181 	 9.64095 	 10.3718
| 34> H 	 -139.129 	 8.47567 	 8.9895
| 35> C 	 -140.111 	 7.86053 	 10.7982
| 36> H 	 -140.373 	 6.98223 	 10.2239
| 37> H 	 -140.961 	 8.21469 	 11.4106
| 38> H 	 -139.273 	 7.62913 	 11.4805
| 39> H 	 -140.58 	 5.84713 	 4.22338
| 40> H 	 -139.66 	 13.7023 	 7.29945
| 41> *
| 42>
| 43>                          ****END OF INPUT****

CARTESIAN COORDINATES (ANGSTROEM)
---------------------------------
  S    -139.753000    7.840620    5.623450
  C    -140.738000    6.878900    4.552490
  C    -141.912000    7.593190    4.253500
  C    -142.014000    8.794550    5.018970
  C    -140.860000    9.172300    5.734070
  H    -142.815000    9.570340    4.924640
  C    -142.990000    7.201430    3.261500
  H    -142.882000    6.136700    3.096730
  H    -142.577000    7.548470    2.323780
  C    -144.457000    7.666540    3.412240
  H    -144.898000    7.094950    4.197450
  H    -144.606000    8.683660    3.816230
  C    -145.335000    7.566070    2.167630
  H    -144.889000    8.338020    1.429650
  H    -145.313000    6.610700    1.676880
  H    -146.350000    7.924770    2.308530
  S    -140.466000   11.948100    5.740250
  C    -139.989000   12.684200    7.322720
  C    -140.074000   11.795200    8.341970
  C    -140.472000   10.500900    7.918380
  C    -140.701000   10.345700    6.575700
  H    -139.796000   12.168600    9.338450
  C    -140.851000    9.511660    9.050530
  H    -141.421000    8.749560    8.509870
  H    -141.507000    9.902270    9.747360
  C    -139.711000    8.886380    9.787870
  H    -139.181000    9.640950   10.371800
  H    -139.129000    8.475670    8.989500
  C    -140.111000    7.860530   10.798200
  H    -140.373000    6.982230   10.223900
  H    -140.961000    8.214690   11.410600
  H    -139.273000    7.629130   11.480500
  H    -140.580000    5.847130    4.223380
  H    -139.660000   13.702300    7.299450

 Total Charge           Charge          ....    0
 Multiplicity           Mult            ....    1
 Number of Electrons    NEL             ....  134
 Basis Dimension        Dim             ....  322

ORBITAL ENERGIES
----------------

  NO   OCC          E(Eh)            E(eV)
   0   2.0000     -88.969560     -2420.9848
   1   2.0000     -88.960919     -2420.7497
   2   2.0000     -10.332915      -281.1729
   3   2.0000     -10.331299      -281.1290
   4   2.0000     -10.321550      -280.8637
   5   2.0000     -10.319573      -280.8098
   6   2.0000     -10.306727      -280.4603
   7   2.0000     -10.306062      -280.4422
   8   2.0000     -10.296600      -280.1847
   9   2.0000     -10.295248      -280.1479
  10   2.0000     -10.294503      -280.1277
  11   2.0000     -10.289976      -280.0045
  12   2.0000     -10.285352      -279.8787
  13   2.0000     -10.280384      -279.7435
  14   2.0000     -10.274527      -279.5841
  15   2.0000     -10.272959      -279.5414
  16   2.0000      -8.083822      -219.9720
  17   2.0000      -8.074401      -219.7156
  18   2.0000      -6.042322      -164.4199
  19   2.0000      -6.038076      -164.3044
  20   2.0000      -6.034921      -164.2185
  21   2.0000      -6.033036      -164.1673
  22   2.0000      -6.029214      -164.0632
  23   2.0000      -6.024972      -163.9478
  24   2.0000      -1.002520       -27.2800
  25   2.0000      -0.980881       -26.6911
  26   2.0000      -0.914329       -24.8801
  27   2.0000      -0.910546       -24.7772
  28   2.0000      -0.872377       -23.7386
  29   2.0000      -0.848584       -23.0911
  30   2.0000      -0.846288       -23.0287
  31   2.0000      -0.814171       -22.1547
  32   2.0000      -0.783681       -21.3250
  33   2.0000      -0.771985       -21.0068
  34   2.0000      -0.713974       -19.4282
  35   2.0000      -0.697345       -18.9757
  36   2.0000      -0.689127       -18.7521
  37   2.0000      -0.665188       -18.1007
  38   2.0000      -0.634750       -17.2724
  39   2.0000      -0.615797       -16.7567
  40   2.0000      -0.598874       -16.2962
  41   2.0000      -0.581229       -15.8160
  42   2.0000      -0.570807       -15.5324
  43   2.0000      -0.559159       -15.2155
  44   2.0000      -0.534895       -14.5552
  45   2.0000      -0.527881       -14.3644
  46   2.0000      -0.520827       -14.1724
  47   2.0000      -0.508024       -13.8240
  48   2.0000      -0.502550       -13.6751
  49   2.0000      -0.497608       -13.5406
  50   2.0000      -0.489528       -13.3207
  51   2.0000      -0.480583       -13.0773
  52   2.0000      -0.472062       -12.8455
  53   2.0000      -0.466464       -12.6931
  54   2.0000      -0.458042       -12.4640
  55   2.0000      -0.449860       -12.2413
  56   2.0000      -0.443915       -12.0795
  57   2.0000      -0.436529       -11.8786
  58   2.0000      -0.424152       -11.5418
  59   2.0000      -0.423732       -11.5303
  60   2.0000      -0.420212       -11.4346
  61   2.0000      -0.412512       -11.2250
  62   2.0000      -0.404621       -11.0103
  63   2.0000      -0.338970        -9.2238
  64   2.0000      -0.333169        -9.0660
  65   2.0000      -0.323416        -8.8006
  66   2.0000      -0.302700        -8.2369
  67   0.0000       0.029670         0.8073
  68   0.0000       0.057507         1.5648
  69   0.0000       0.101359         2.7581
  70   0.0000       0.122399         3.3307
  71   0.0000       0.131914         3.5896

MULLIKEN ATOMIC CHARGES
-----------------------
   0 S :    0.128194
   1 C :   -0.138031
   2 C :   -0.089983
   3 C :   -0.001126
   4 C :   -0.154160
   5 H :    0.029806
   6 C :    0.093366
   7 H :    0.007897
   8 H :    0.029063
   9 C :   -0.056407
  10 H :    0.024210
  11 H :    0.031381
  12 C :   -0.073781
  13 H :    0.034696
  14 H :    0.037462
  15 H :    0.040262
  16 S :    0.068087
  17 C :   -0.099894
  18 C :   -0.010862
  19 C :   -0.013782
  20 C :   -0.167323
  21 H :    0.033742
  22 C :    0.074879
  23 H :    0.017227
  24 H :    0.005209
  25 C :   -0.073491
  26 H :    0.019893
  27 H :    0.021557
  28 C :   -0.034160
  29 H :    0.031288
  30 H :    0.029145
  31 H :    0.039410
  32 H :    0.057940
  33 H :    0.058286
Sum of atomic charges:    0.0000000

LOEWDIN ATOMIC CHARGES
----------------------
   0 S :    0.429443
   1 C :   -0.213812
   2 C :   -0.060237
   3 C :   -0.071922
   4 C :   -0.211457
   5 H :    0.035226
   6 C :   -0.034652
   7 H :    0.029784
   8 H :    0.035858
   9 C :   -0.044785
  10 H :    0.021115
  11 H :    0.028837
  12 C :   -0.065846
  13 H :    0.033755
  14 H :    0.021053
  15 H :    0.028385
  16 S :    0.342138
  17 C :   -0.145463
  18 C :   -0.072825
  19 C :   -0.046982
  20 C :   -0.178204
  21 H :    0.040594
  22 C :   -0.021768
  23 H :    0.029396
  24 H :    0.017251
  25 C :   -0.044348
  26 H :    0.019926
  27 H :    0.020860
  28 C :   -0.062692
  29 H :    0.025261
  30 H :    0.026061
  31 H :    0.029849
  32 H :    0.036119
  33 H :    0.024082

  Mayer bond orders larger than 0.100000
B(  0-S ,  1-C ) :   1.1559 B(  0-S ,  4-C ) :   1.1618 B(  1-C ,  2-C ) :   1.5579
B(  1-C ,  4-C ) :   0.1069 B(  1-C , 32-H ) :   0.9681 B(  2-C ,  3-C ) :   1.2894
B(  2-C ,  6-C ) :   1.0170 B(  3-C ,  4-C ) :   1.5383 B(  3-C ,  5-H ) :   0.9794
B(  4-C , 20-C ) :   1.0362 B(  6-C ,  7-H ) :   0.9324 B(  6-C ,  8-H ) :   0.9325
B(  6-C ,  9-C ) :   1.0469 B(  9-C , 10-H ) :   0.9532 B(  9-C , 11-H ) :   0.9520
B(  9-C , 12-C ) :   1.0878 B( 12-C , 13-H ) :   0.9747 B( 12-C , 14-H ) :   0.9779
B( 12-C , 15-H ) :   0.9730 B( 16-S , 17-C ) :   1.1404 B( 16-S , 20-C ) :   1.1034
B( 17-C , 18-C ) :   1.6368 B( 17-C , 33-H ) :   0.9702 B( 18-C , 19-C ) :   1.1912
B( 18-C , 21-H ) :   0.9914 B( 19-C , 20-C ) :   1.6486 B( 19-C , 22-C ) :   1.0275
B( 22-C , 23-H ) :   0.9369 B( 22-C , 24-H ) :   0.9422 B( 22-C , 25-C ) :   1.0668
B( 25-C , 26-H ) :   0.9540 B( 25-C , 27-H ) :   0.9520 B( 25-C , 28-C ) :   1.0937
B( 28-C , 29-H ) :   0.9747 B( 28-C , 30-H ) :   0.9694 B( 28-C , 31-H ) :   0.9738

Dispersion correction           -0.013735192
FINAL SINGLE POINT ENERGY     -1339.865884270575

DIPOLE MOMENT
-------------
                                X             Y             Z
Electronic contribution:     14.36848      11.79526      -4.24754
Nuclear contribution   :    -14.72362     -11.91735       4.41654
                        -----------------------------------------
Total Dipole Moment    :     -0.35515      -0.12209       0.16900
                        -----------------------------------------
Magnitude (a.u.)       :      0.41182
Magnitude (Debye)      :      1.04677

Rotational constants in cm-1:     0.018611     0.007586     0.006395
Rotational constants in MHz :   557.949771   227.428374   191.727508

                             ****ORCA TERMINATED NORMALLY****
TOTAL RUN TIME: 0 days 0 hours 0 minutes 20 seconds 775 msec
