                         Program Version 4.2.1 -  RELEASE  -
|  1> ! wB97X-D3 SP def2-SVP
|  2> %pal
|  3> nprocs 24
|  4> end
|  5>
|  6> * xyz 0 1
|  7> S 	 -122.959 	 62.8016 	 -61.2452
|  8> C 	 -124.399 	 62.6449 	 -62.2834
|  9> C 	 -125.435 	 62.0767 	 -61.5537
| 10> C 	 -125.062 	 61.8418 	 -60.2228
| 11> C 	 -123.737 	 62.0662 	 -59.9085
| 12> H 	 -125.74 	 61.4533 	 -59.4834
| 13> C 	 -126.908 	 61.7908 	 -61.978
| 14> H 	 -127.129 	 60.7293 	 -61.8207
| 15> H 	 -126.903 	 61.931 	 -63.0793
| 16> C 	 -128.052 	 62.6694 	 -61.2953
| 17> H 	 -129.053 	 62.3093 	 -61.5573
| 18> H 	 -128.081 	 62.4144 	 -60.1945
| 19> C 	 -127.934 	 64.136 	 -61.4813
| 20> H 	 -127.633 	 64.4428 	 -62.5044
| 21> H 	 -128.923 	 64.5731 	 -61.246
| 22> H 	 -127.199 	 64.5389 	 -60.7254
| 23> S 	 -122.415 	 63.7245 	 -58.2256
| 24> C 	 -121.83 	 63.2073 	 -56.7026
| 25> C 	 -122.397 	 61.9778 	 -56.3548
| 26> C 	 -123.087 	 61.3773 	 -57.4672
| 27> C 	 -123.142 	 62.1861 	 -58.5687
| 28> H 	 -122.166 	 61.4957 	 -55.4301
| 29> C 	 -123.736 	 59.9732 	 -57.3542
| 30> H 	 -124.756 	 59.9975 	 -57.7208
| 31> H 	 -123.823 	 59.7565 	 -56.3098
| 32> C 	 -123.031 	 58.8232 	 -58.1414
| 33> H 	 -122.887 	 59.1749 	 -59.136
| 34> H 	 -123.716 	 57.9931 	 -58.3067
| 35> C 	 -121.816 	 58.2386 	 -57.4061
| 36> H 	 -121.981 	 57.9347 	 -56.3262
| 37> H 	 -121.008 	 58.9301 	 -57.4814
| 38> H 	 -121.577 	 57.3869 	 -58.0453
| 39> H 	 -124.529 	 62.9427 	 -63.3489
| 40> H 	 -121.186 	 63.7124 	 -56.0837
| 41> *
| 42>
| 43>                          ****END OF INPUT****

CARTESIAN COORDINATES (ANGSTROEM)
---------------------------------
  S    -122.959000   62.801600  -61.245200
  C    -124.399000   62.644900  -62.283400
  C    -125.435000   62.076700  -61.553700
  C    -125.062000   61.841800  -60.222800
  C    -123.737000   62.066200  -59.908500
  H    -125.740000   61.453300  -59.483400
  C    -126.908000   61.790800  -61.978000
  H    -127.129000   60.729300  -61.820700
  H    -126.903000   61.931000  -63.079300
  C    -128.052000   62.669400  -61.295300
  H    -129.053000   62.309300  -61.557300
  H    -128.081000   62.414400  -60.194500
  C    -127.934000   64.136000  -61.481300
  H    -127.633000   64.442800  -62.504400
  H    -128.923000   64.573100  -61.246000
  H    -127.199000   64.538900  -60.725400
  S    -122.415000   63.724500  -58.225600
  C    -121.830000   63.207300  -56.702600
  C    -122.397000   61.977800  -56.354800
  C    -123.087000   61.377300  -57.467200
  C    -123.142000   62.186100  -58.568700
  H    -122.166000   61.495700  -55.430100
  C    -123.736000   59.973200  -57.354200
  H    -124.756000   59.997500  -57.720800
  H    -123.823000   59.756500  -56.309800
  C    -123.031000   58.823200  -58.141400
  H    -122.887000   59.174900  -59.136000
  H    -123.716000   57.993100  -58.306700
  C    -121.816000   58.238600  -57.406100
  H    -121.981000   57.934700  -56.326200
  H    -121.008000   58.930100  -57.481400
  H    -121.577000   57.386900  -58.045300
  H    -124.529000   62.942700  -63.348900
  H    -121.186000   63.712400  -56.083700

 Total Charge           Charge          ....    0
 Multiplicity           Mult            ....    1
 Number of Electrons    NEL             ....  134
 Basis Dimension        Dim             ....  322

ORBITAL ENERGIES
----------------

  NO   OCC          E(Eh)            E(eV)
   0   2.0000     -88.969626     -2420.9866
   1   2.0000     -88.963652     -2420.8241
   2   2.0000     -10.328103      -281.0420
   3   2.0000     -10.323400      -280.9140
   4   2.0000     -10.322856      -280.8992
   5   2.0000     -10.309958      -280.5482
   6   2.0000     -10.303513      -280.3728
   7   2.0000     -10.302931      -280.3570
   8   2.0000     -10.301666      -280.3226
   9   2.0000     -10.294587      -280.1300
  10   2.0000     -10.293141      -280.0906
  11   2.0000     -10.288937      -279.9762
  12   2.0000     -10.288084      -279.9530
  13   2.0000     -10.281514      -279.7742
  14   2.0000     -10.280889      -279.7572
  15   2.0000     -10.276180      -279.6291
  16   2.0000      -8.084226      -219.9830
  17   2.0000      -8.079341      -219.8500
  18   2.0000      -6.042742      -164.4314
  19   2.0000      -6.038653      -164.3201
  20   2.0000      -6.037754      -164.2956
  21   2.0000      -6.035040      -164.2218
  22   2.0000      -6.033595      -164.1825
  23   2.0000      -6.030245      -164.0913
  24   2.0000      -1.012968       -27.5643
  25   2.0000      -0.987864       -26.8812
  26   2.0000      -0.906175       -24.6583
  27   2.0000      -0.902293       -24.5526
  28   2.0000      -0.870127       -23.6773
  29   2.0000      -0.850837       -23.1524
  30   2.0000      -0.843627       -22.9563
  31   2.0000      -0.812865       -22.1192
  32   2.0000      -0.782126       -21.2827
  33   2.0000      -0.775175       -21.0936
  34   2.0000      -0.707791       -19.2600
  35   2.0000      -0.695197       -18.9173
  36   2.0000      -0.689965       -18.7749
  37   2.0000      -0.667293       -18.1580
  38   2.0000      -0.637014       -17.3340
  39   2.0000      -0.622383       -16.9359
  40   2.0000      -0.591056       -16.0834
  41   2.0000      -0.564191       -15.3524
  42   2.0000      -0.550639       -14.9837
  43   2.0000      -0.546041       -14.8585
  44   2.0000      -0.542127       -14.7520
  45   2.0000      -0.539205       -14.6725
  46   2.0000      -0.518569       -14.1110
  47   2.0000      -0.511829       -13.9276
  48   2.0000      -0.506831       -13.7916
  49   2.0000      -0.493577       -13.4309
  50   2.0000      -0.489417       -13.3177
  51   2.0000      -0.477834       -13.0025
  52   2.0000      -0.476663       -12.9707
  53   2.0000      -0.468670       -12.7532
  54   2.0000      -0.456539       -12.4231
  55   2.0000      -0.448217       -12.1966
  56   2.0000      -0.444139       -12.0856
  57   2.0000      -0.436250       -11.8710
  58   2.0000      -0.432660       -11.7733
  59   2.0000      -0.424165       -11.5421
  60   2.0000      -0.418660       -11.3923
  61   2.0000      -0.409264       -11.1366
  62   2.0000      -0.407163       -11.0795
  63   2.0000      -0.346488        -9.4284
  64   2.0000      -0.334969        -9.1150
  65   2.0000      -0.328175        -8.9301
  66   2.0000      -0.293743        -7.9932
  67   0.0000       0.028016         0.7624
  68   0.0000       0.072625         1.9762
  69   0.0000       0.112161         3.0521
  70   0.0000       0.116720         3.1761
  71   0.0000       0.133656         3.6370

MULLIKEN ATOMIC CHARGES
-----------------------
   0 S :    0.105970
   1 C :   -0.145439
   2 C :   -0.080262
   3 C :    0.018504
   4 C :   -0.122950
   5 H :    0.006830
   6 C :    0.054197
   7 H :    0.040445
   8 H :    0.021111
   9 C :   -0.089350
  10 H :    0.025885
  11 H :    0.027959
  12 C :   -0.053591
  13 H :    0.036549
  14 H :    0.036785
  15 H :    0.053734
  16 S :    0.114519
  17 C :   -0.061123
  18 C :   -0.030032
  19 C :   -0.056028
  20 C :   -0.151817
  21 H :    0.011691
  22 C :    0.083417
  23 H :    0.018523
  24 H :    0.004102
  25 C :   -0.067565
  26 H :    0.027269
  27 H :    0.018236
  28 C :   -0.043442
  29 H :    0.044143
  30 H :    0.032305
  31 H :    0.032819
  32 H :    0.062294
  33 H :    0.024311
Sum of atomic charges:    0.0000000

LOEWDIN ATOMIC CHARGES
----------------------
   0 S :    0.418144
   1 C :   -0.198467
   2 C :   -0.069327
   3 C :   -0.061630
   4 C :   -0.209829
   5 H :    0.026345
   6 C :   -0.029632
   7 H :    0.033278
   8 H :    0.027544
   9 C :   -0.050170
  10 H :    0.023436
  11 H :    0.027917
  12 C :   -0.072976
  13 H :    0.026536
  14 H :    0.031283
  15 H :    0.037118
  16 S :    0.428716
  17 C :   -0.183694
  18 C :   -0.066459
  19 C :   -0.060494
  20 C :   -0.203504
  21 H :    0.026462
  22 C :   -0.026829
  23 H :    0.027395
  24 H :    0.022023
  25 C :   -0.036795
  26 H :    0.023308
  27 H :    0.021518
  28 C :   -0.065618
  29 H :    0.032627
  30 H :    0.020581
  31 H :    0.029032
  32 H :    0.039761
  33 H :    0.012402

  Mayer bond orders larger than 0.100000
B(  0-S ,  1-C ) :   1.1443 B(  0-S ,  4-C ) :   1.1580 B(  1-C ,  2-C ) :   1.5890
B(  1-C , 32-H ) :   0.9604 B(  2-C ,  3-C ) :   1.2767 B(  2-C ,  6-C ) :   1.0107
B(  3-C ,  4-C ) :   1.5478 B(  3-C ,  5-H ) :   0.9927 B(  4-C , 20-C ) :   1.0175
B(  6-C ,  7-H ) :   0.9457 B(  6-C ,  8-H ) :   0.9454 B(  6-C ,  9-C ) :   1.0620
B(  9-C , 10-H ) :   0.9590 B(  9-C , 11-H ) :   0.9519 B(  9-C , 12-C ) :   1.0748
B( 12-C , 13-H ) :   0.9773 B( 12-C , 14-H ) :   0.9709 B( 12-C , 15-H ) :   0.9719
B( 16-S , 17-C ) :   1.1709 B( 16-S , 20-C ) :   1.1488 B( 17-C , 18-C ) :   1.5828
B( 17-C , 33-H ) :   0.9805 B( 18-C , 19-C ) :   1.2558 B( 18-C , 21-H ) :   0.9922
B( 19-C , 20-C ) :   1.6169 B( 19-C , 22-C ) :   1.0343 B( 22-C , 23-H ) :   0.9360
B( 22-C , 24-H ) :   0.9381 B( 22-C , 25-C ) :   1.0709 B( 25-C , 26-H ) :   0.9556
B( 25-C , 27-H ) :   0.9588 B( 25-C , 28-C ) :   1.0690 B( 28-C , 29-H ) :   0.9745
B( 28-C , 30-H ) :   0.9789 B( 28-C , 31-H ) :   0.9745

Dispersion correction           -0.014540196
FINAL SINGLE POINT ENERGY     -1339.877872247470

DIPOLE MOMENT
-------------
                                X             Y             Z
Electronic contribution:     15.70126      13.62769      -0.98453
Nuclear contribution   :    -16.22767     -13.92011       1.10103
                        -----------------------------------------
Total Dipole Moment    :     -0.52641      -0.29242       0.11650
                        -----------------------------------------
Magnitude (a.u.)       :      0.61334
Magnitude (Debye)      :      1.55899

Rotational constants in cm-1:     0.019751     0.008335     0.007336
Rotational constants in MHz :   592.114478   249.864996   219.915230

                             ****ORCA TERMINATED NORMALLY****
TOTAL RUN TIME: 0 days 0 hours 0 minutes 21 seconds 538 msec
