                         Program Version 4.2.1 -  RELEASE  -
|  1> ! wB97X-D3 SP def2-SVP
|  2> %pal
|  3> nprocs 24
|  4> end
|  5>
|  6> * xyz 0 1
|  7> S 	 -146.49 	 7.6437 	 8.95616
|  8> C 	 -145.942 	 5.99783 	 8.65624
|  9> C 	 -146.848 	 5.26378 	 7.87195
| 10> C 	 -148.036 	 5.98926 	 7.68416
| 11> C 	 -147.911 	 7.34993 	 8.03629
| 12> H 	 -149.026 	 5.7953 	 7.18686
| 13> C 	 -146.609 	 3.83055 	 7.40643
| 14> H 	 -145.827 	 3.44224 	 8.02457
| 15> H 	 -146.378 	 3.88935 	 6.29966
| 16> C 	 -147.814 	 2.90033 	 7.68474
| 17> H 	 -148.099 	 3.0999 	 8.67297
| 18> H 	 -148.666 	 3.19156 	 7.05383
| 19> C 	 -147.472 	 1.46883 	 7.33188
| 20> H 	 -147.118 	 1.37768 	 6.26655
| 21> H 	 -146.816 	 0.944549 	 7.99476
| 22> H 	 -148.404 	 1.00319 	 7.30878
| 23> S 	 -149.25 	 9.34967 	 9.43104
| 24> C 	 -150.626 	 10.1636 	 8.6226
| 25> C 	 -150.743 	 9.70631 	 7.32534
| 26> C 	 -149.895 	 8.60012 	 6.99829
| 27> C 	 -148.99 	 8.32922 	 8.02659
| 28> H 	 -151.485 	 10.0423 	 6.62552
| 29> C 	 -149.85 	 8.08072 	 5.56825
| 30> H 	 -150.874 	 8.27353 	 5.16623
| 31> H 	 -149.691 	 7.01085 	 5.74676
| 32> C 	 -148.65 	 8.82803 	 4.78035
| 33> H 	 -147.917 	 9.10911 	 5.49668
| 34> H 	 -148.927 	 9.74573 	 4.30012
| 35> C 	 -148.01 	 7.91834 	 3.73686
| 36> H 	 -147.498 	 7.07612 	 4.12101
| 37> H 	 -147.332 	 8.49528 	 3.15206
| 38> H 	 -148.845 	 7.51483 	 3.10455
| 39> H 	 -145.005 	 5.59067 	 8.92303
| 40> H 	 -150.98 	 11.0878 	 9.0488
| 41> *
| 42>
| 43>                          ****END OF INPUT****

CARTESIAN COORDINATES (ANGSTROEM)
---------------------------------
  S    -146.490000    7.643700    8.956160
  C    -145.942000    5.997830    8.656240
  C    -146.848000    5.263780    7.871950
  C    -148.036000    5.989260    7.684160
  C    -147.911000    7.349930    8.036290
  H    -149.026000    5.795300    7.186860
  C    -146.609000    3.830550    7.406430
  H    -145.827000    3.442240    8.024570
  H    -146.378000    3.889350    6.299660
  C    -147.814000    2.900330    7.684740
  H    -148.099000    3.099900    8.672970
  H    -148.666000    3.191560    7.053830
  C    -147.472000    1.468830    7.331880
  H    -147.118000    1.377680    6.266550
  H    -146.816000    0.944549    7.994760
  H    -148.404000    1.003190    7.308780
  S    -149.250000    9.349670    9.431040
  C    -150.626000   10.163600    8.622600
  C    -150.743000    9.706310    7.325340
  C    -149.895000    8.600120    6.998290
  C    -148.990000    8.329220    8.026590
  H    -151.485000   10.042300    6.625520
  C    -149.850000    8.080720    5.568250
  H    -150.874000    8.273530    5.166230
  H    -149.691000    7.010850    5.746760
  C    -148.650000    8.828030    4.780350
  H    -147.917000    9.109110    5.496680
  H    -148.927000    9.745730    4.300120
  C    -148.010000    7.918340    3.736860
  H    -147.498000    7.076120    4.121010
  H    -147.332000    8.495280    3.152060
  H    -148.845000    7.514830    3.104550
  H    -145.005000    5.590670    8.923030
  H    -150.980000   11.087800    9.048800

 Total Charge           Charge          ....    0
 Multiplicity           Mult            ....    1
 Number of Electrons    NEL             ....  134
 Basis Dimension        Dim             ....  322

ORBITAL ENERGIES
----------------

  NO   OCC          E(Eh)            E(eV)
   0   2.0000     -88.970797     -2421.0185
   1   2.0000     -88.963942     -2420.8319
   2   2.0000     -10.326754      -281.0053
   3   2.0000     -10.325501      -280.9712
   4   2.0000     -10.318131      -280.7706
   5   2.0000     -10.312387      -280.6143
   6   2.0000     -10.303887      -280.3830
   7   2.0000     -10.300506      -280.2910
   8   2.0000     -10.298460      -280.2353
   9   2.0000     -10.298074      -280.2248
  10   2.0000     -10.294745      -280.1342
  11   2.0000     -10.293819      -280.1091
  12   2.0000     -10.284710      -279.8612
  13   2.0000     -10.283363      -279.8245
  14   2.0000     -10.275076      -279.5990
  15   2.0000     -10.270888      -279.4851
  16   2.0000      -8.085491      -220.0174
  17   2.0000      -8.078070      -219.8155
  18   2.0000      -6.043841      -164.4613
  19   2.0000      -6.039973      -164.3560
  20   2.0000      -6.036636      -164.2652
  21   2.0000      -6.036475      -164.2608
  22   2.0000      -6.032673      -164.1574
  23   2.0000      -6.028802      -164.0520
  24   2.0000      -1.006446       -27.3868
  25   2.0000      -0.979972       -26.6664
  26   2.0000      -0.915914       -24.9233
  27   2.0000      -0.900747       -24.5106
  28   2.0000      -0.869931       -23.6720
  29   2.0000      -0.853137       -23.2150
  30   2.0000      -0.846889       -23.0450
  31   2.0000      -0.811975       -22.0950
  32   2.0000      -0.781822       -21.2745
  33   2.0000      -0.767098       -20.8738
  34   2.0000      -0.709585       -19.3088
  35   2.0000      -0.701598       -19.0915
  36   2.0000      -0.693067       -18.8593
  37   2.0000      -0.663433       -18.0529
  38   2.0000      -0.641716       -17.4620
  39   2.0000      -0.612851       -16.6765
  40   2.0000      -0.589173       -16.0322
  41   2.0000      -0.577872       -15.7247
  42   2.0000      -0.561800       -15.2874
  43   2.0000      -0.558632       -15.2011
  44   2.0000      -0.530505       -14.4358
  45   2.0000      -0.526961       -14.3393
  46   2.0000      -0.513511       -13.9734
  47   2.0000      -0.507976       -13.8227
  48   2.0000      -0.502887       -13.6842
  49   2.0000      -0.496024       -13.4975
  50   2.0000      -0.490888       -13.3578
  51   2.0000      -0.481535       -13.1032
  52   2.0000      -0.479877       -13.0581
  53   2.0000      -0.468482       -12.7480
  54   2.0000      -0.454750       -12.3744
  55   2.0000      -0.449908       -12.2426
  56   2.0000      -0.441124       -12.0036
  57   2.0000      -0.436390       -11.8748
  58   2.0000      -0.432815       -11.7775
  59   2.0000      -0.429322       -11.6824
  60   2.0000      -0.423106       -11.5133
  61   2.0000      -0.417625       -11.3642
  62   2.0000      -0.413385       -11.2488
  63   2.0000      -0.348603        -9.4860
  64   2.0000      -0.334844        -9.1116
  65   2.0000      -0.328634        -8.9426
  66   2.0000      -0.282579        -7.6894
  67   0.0000       0.020760         0.5649
  68   0.0000       0.074346         2.0230
  69   0.0000       0.103278         2.8103
  70   0.0000       0.117468         3.1965
  71   0.0000       0.137399         3.7388

MULLIKEN ATOMIC CHARGES
-----------------------
   0 S :    0.115822
   1 C :   -0.105667
   2 C :   -0.088211
   3 C :   -0.021331
   4 C :   -0.159559
   5 H :    0.044337
   6 C :    0.086373
   7 H :    0.011822
   8 H :    0.053465
   9 C :   -0.105310
  10 H :    0.025616
  11 H :    0.030494
  12 C :   -0.001857
  13 H :    0.030240
  14 H :    0.035936
  15 H :    0.015812
  16 S :    0.087174
  17 C :   -0.093608
  18 C :   -0.009052
  19 C :   -0.115690
  20 C :   -0.140127
  21 H :    0.014546
  22 C :    0.076975
  23 H :    0.035632
  24 H :    0.013368
  25 C :   -0.035166
  26 H :    0.033653
  27 H :    0.026296
  28 C :   -0.041312
  29 H :    0.029967
  30 H :    0.025948
  31 H :    0.030813
  32 H :    0.027845
  33 H :    0.064756
Sum of atomic charges:   -0.0000000

LOEWDIN ATOMIC CHARGES
----------------------
   0 S :    0.422127
   1 C :   -0.196236
   2 C :   -0.061087
   3 C :   -0.073796
   4 C :   -0.204204
   5 H :    0.040036
   6 C :   -0.027659
   7 H :    0.025553
   8 H :    0.040703
   9 C :   -0.035886
  10 H :    0.019488
  11 H :    0.024877
  12 C :   -0.060183
  13 H :    0.034179
  14 H :    0.021872
  15 H :    0.021300
  16 S :    0.380545
  17 C :   -0.175953
  18 C :   -0.063469
  19 C :   -0.066824
  20 C :   -0.200533
  21 H :    0.028479
  22 C :   -0.029209
  23 H :    0.034583
  24 H :    0.027399
  25 C :   -0.025284
  26 H :    0.022942
  27 H :    0.023726
  28 C :   -0.060376
  29 H :    0.018529
  30 H :    0.021290
  31 H :    0.029130
  32 H :    0.017261
  33 H :    0.026682

  Mayer bond orders larger than 0.100000
B(  0-S ,  1-C ) :   1.1445 B(  0-S ,  4-C ) :   1.1673 B(  1-C ,  2-C ) :   1.5857
B(  1-C ,  4-C ) :   0.1043 B(  1-C , 32-H ) :   0.9712 B(  2-C ,  3-C ) :   1.2522
B(  2-C ,  6-C ) :   1.0194 B(  3-C ,  4-C ) :   1.5456 B(  3-C ,  5-H ) :   0.9728
B(  4-C , 20-C ) :   1.0549 B(  6-C ,  7-H ) :   0.9421 B(  6-C ,  8-H ) :   0.9296
B(  6-C ,  9-C ) :   1.0766 B(  9-C , 10-H ) :   0.9596 B(  9-C , 11-H ) :   0.9483
B(  9-C , 12-C ) :   1.0904 B( 12-C , 13-H ) :   0.9682 B( 12-C , 14-H ) :   0.9755
B( 12-C , 15-H ) :   0.9699 B( 16-S , 17-C ) :   1.1360 B( 16-S , 20-C ) :   1.1419
B( 17-C , 18-C ) :   1.5993 B( 17-C , 33-H ) :   0.9684 B( 18-C , 19-C ) :   1.2628
B( 18-C , 21-H ) :   0.9851 B( 19-C , 20-C ) :   1.5787 B( 19-C , 22-C ) :   1.0437
B( 22-C , 23-H ) :   0.9316 B( 22-C , 24-H ) :   0.9360 B( 22-C , 25-C ) :   1.0309
B( 25-C , 26-H ) :   0.9647 B( 25-C , 27-H ) :   0.9565 B( 25-C , 28-C ) :   1.0857
B( 28-C , 29-H ) :   0.9785 B( 28-C , 30-H ) :   0.9732 B( 28-C , 31-H ) :   0.9747

Dispersion correction           -0.014411509
FINAL SINGLE POINT ENERGY     -1339.867416805050

DIPOLE MOMENT
-------------
                                X             Y             Z
Electronic contribution:      0.38767      20.11522      20.46744
Nuclear contribution   :     -0.46677     -20.45998     -20.99233
                        -----------------------------------------
Total Dipole Moment    :     -0.07910      -0.34476      -0.52490
                        -----------------------------------------
Magnitude (a.u.)       :      0.63295
Magnitude (Debye)      :      1.60884

Rotational constants in cm-1:     0.018564     0.008555     0.007178
Rotational constants in MHz :   556.539091   256.464705   215.178622

                             ****ORCA TERMINATED NORMALLY****
TOTAL RUN TIME: 0 days 0 hours 0 minutes 20 seconds 934 msec
