                         Program Version 4.2.1 -  RELEASE  -
|  1> ! wB97X-D3 SP def2-SVP
|  2> %pal
|  3> nprocs 24
|  4> end
|  5>
|  6> * xyz 0 1
|  7> S 	 -104.999 	 58.0382 	 -5.10145
|  8> C 	 -103.818 	 59.2988 	 -5.11565
|  9> C 	 -104.564 	 60.4466 	 -5.09217
| 10> C 	 -105.94 	 60.309 	 -5.03814
| 11> C 	 -106.389 	 59.0493 	 -5.12075
| 12> H 	 -106.65 	 61.1774 	 -5.06455
| 13> C 	 -103.877 	 61.7811 	 -4.88809
| 14> H 	 -102.822 	 61.5581 	 -5.18228
| 15> H 	 -103.928 	 61.9619 	 -3.82145
| 16> C 	 -104.356 	 62.9549 	 -5.75484
| 17> H 	 -104.174 	 62.7519 	 -6.79279
| 18> H 	 -105.421 	 63.0738 	 -5.63181
| 19> C 	 -103.902 	 64.2668 	 -5.16257
| 20> H 	 -104.344 	 65.1552 	 -5.66418
| 21> H 	 -104.086 	 64.183 	 -4.14586
| 22> H 	 -102.765 	 64.2929 	 -5.31434
| 23> S 	 -107.755 	 57.1377 	 -6.45605
| 24> C 	 -109.43 	 57.0662 	 -6.38796
| 25> C 	 -109.974 	 57.934 	 -5.46944
| 26> C 	 -108.996 	 58.7972 	 -4.901
| 27> C 	 -107.709 	 58.4379 	 -5.29645
| 28> H 	 -110.989 	 57.8821 	 -5.2037
| 29> C 	 -109.389 	 59.8688 	 -3.85752
| 30> H 	 -108.476 	 60.3797 	 -3.34141
| 31> H 	 -109.643 	 59.323 	 -3.00541
| 32> C 	 -110.539 	 60.8453 	 -4.10948
| 33> H 	 -111.211 	 60.3798 	 -4.78602
| 34> H 	 -110.083 	 61.5375 	 -4.81757
| 35> C 	 -111.173 	 61.4352 	 -2.81089
| 36> H 	 -110.487 	 62.1118 	 -2.38189
| 37> H 	 -111.416 	 60.5891 	 -2.18294
| 38> H 	 -112.152 	 62.0032 	 -2.88778
| 39> H 	 -102.707 	 59.1519 	 -4.98575
| 40> H 	 -109.879 	 56.3466 	 -6.94298
| 41> *
| 42>
| 43>                          ****END OF INPUT****

CARTESIAN COORDINATES (ANGSTROEM)
---------------------------------
  S    -104.999000   58.038200   -5.101450
  C    -103.818000   59.298800   -5.115650
  C    -104.564000   60.446600   -5.092170
  C    -105.940000   60.309000   -5.038140
  C    -106.389000   59.049300   -5.120750
  H    -106.650000   61.177400   -5.064550
  C    -103.877000   61.781100   -4.888090
  H    -102.822000   61.558100   -5.182280
  H    -103.928000   61.961900   -3.821450
  C    -104.356000   62.954900   -5.754840
  H    -104.174000   62.751900   -6.792790
  H    -105.421000   63.073800   -5.631810
  C    -103.902000   64.266800   -5.162570
  H    -104.344000   65.155200   -5.664180
  H    -104.086000   64.183000   -4.145860
  H    -102.765000   64.292900   -5.314340
  S    -107.755000   57.137700   -6.456050
  C    -109.430000   57.066200   -6.387960
  C    -109.974000   57.934000   -5.469440
  C    -108.996000   58.797200   -4.901000
  C    -107.709000   58.437900   -5.296450
  H    -110.989000   57.882100   -5.203700
  C    -109.389000   59.868800   -3.857520
  H    -108.476000   60.379700   -3.341410
  H    -109.643000   59.323000   -3.005410
  C    -110.539000   60.845300   -4.109480
  H    -111.211000   60.379800   -4.786020
  H    -110.083000   61.537500   -4.817570
  C    -111.173000   61.435200   -2.810890
  H    -110.487000   62.111800   -2.381890
  H    -111.416000   60.589100   -2.182940
  H    -112.152000   62.003200   -2.887780
  H    -102.707000   59.151900   -4.985750
  H    -109.879000   56.346600   -6.942980

 Total Charge           Charge          ....    0
 Multiplicity           Mult            ....    1
 Number of Electrons    NEL             ....  134
 Basis Dimension        Dim             ....  322

ORBITAL ENERGIES
----------------

  NO   OCC          E(Eh)            E(eV)
   0   2.0000     -88.965030     -2420.8616
   1   2.0000     -88.956198     -2420.6212
   2   2.0000     -10.328092      -281.0417
   3   2.0000     -10.324610      -280.9469
   4   2.0000     -10.312944      -280.6295
   5   2.0000     -10.311121      -280.5799
   6   2.0000     -10.307587      -280.4837
   7   2.0000     -10.295584      -280.1571
   8   2.0000     -10.291890      -280.0566
   9   2.0000     -10.290492      -280.0185
  10   2.0000     -10.288196      -279.9560
  11   2.0000     -10.287928      -279.9488
  12   2.0000     -10.287723      -279.9432
  13   2.0000     -10.284705      -279.8611
  14   2.0000     -10.278738      -279.6987
  15   2.0000     -10.278144      -279.6825
  16   2.0000      -8.081580      -219.9110
  17   2.0000      -8.072366      -219.6603
  18   2.0000      -6.039820      -164.3518
  19   2.0000      -6.035715      -164.2402
  20   2.0000      -6.032617      -164.1559
  21   2.0000      -6.030808      -164.1066
  22   2.0000      -6.026465      -163.9884
  23   2.0000      -6.023299      -163.9023
  24   2.0000      -1.020200       -27.7611
  25   2.0000      -0.998520       -27.1711
  26   2.0000      -0.915396       -24.9092
  27   2.0000      -0.910851       -24.7855
  28   2.0000      -0.876196       -23.8425
  29   2.0000      -0.856894       -23.3173
  30   2.0000      -0.844741       -22.9866
  31   2.0000      -0.822082       -22.3700
  32   2.0000      -0.786719       -21.4077
  33   2.0000      -0.767272       -20.8785
  34   2.0000      -0.715497       -19.4697
  35   2.0000      -0.706079       -19.2134
  36   2.0000      -0.691117       -18.8063
  37   2.0000      -0.666168       -18.1274
  38   2.0000      -0.640563       -17.4306
  39   2.0000      -0.624295       -16.9879
  40   2.0000      -0.610197       -16.6043
  41   2.0000      -0.573922       -15.6172
  42   2.0000      -0.565022       -15.3750
  43   2.0000      -0.559988       -15.2380
  44   2.0000      -0.533044       -14.5049
  45   2.0000      -0.526024       -14.3138
  46   2.0000      -0.522855       -14.2276
  47   2.0000      -0.513932       -13.9848
  48   2.0000      -0.508306       -13.8317
  49   2.0000      -0.500544       -13.6205
  50   2.0000      -0.494703       -13.4616
  51   2.0000      -0.480125       -13.0649
  52   2.0000      -0.471469       -12.8293
  53   2.0000      -0.469360       -12.7719
  54   2.0000      -0.461220       -12.5504
  55   2.0000      -0.458610       -12.4794
  56   2.0000      -0.446443       -12.1483
  57   2.0000      -0.442730       -12.0473
  58   2.0000      -0.435642       -11.8544
  59   2.0000      -0.429111       -11.6767
  60   2.0000      -0.412020       -11.2116
  61   2.0000      -0.407234       -11.0814
  62   2.0000      -0.397103       -10.8057
  63   2.0000      -0.358888        -9.7658
  64   2.0000      -0.333107        -9.0643
  65   2.0000      -0.327095        -8.9007
  66   2.0000      -0.289699        -7.8831
  67   0.0000       0.031833         0.8662
  68   0.0000       0.078458         2.1349
  69   0.0000       0.119748         3.2585
  70   0.0000       0.122689         3.3385
  71   0.0000       0.132387         3.6024

MULLIKEN ATOMIC CHARGES
-----------------------
   0 S :    0.074577
   1 C :   -0.141713
   2 C :   -0.100509
   3 C :   -0.000145
   4 C :   -0.110335
   5 H :    0.023463
   6 C :    0.031635
   7 H :    0.020316
   8 H :    0.040290
   9 C :   -0.070698
  10 H :    0.033501
  11 H :    0.017650
  12 C :   -0.035877
  13 H :    0.046696
  14 H :    0.016992
  15 H :    0.028305
  16 S :    0.119201
  17 C :   -0.049095
  18 C :   -0.016803
  19 C :   -0.015092
  20 C :   -0.138945
  21 H :    0.006515
  22 C :    0.020889
  23 H :    0.028890
  24 H :    0.009596
  25 C :   -0.041733
  26 H :    0.011230
  27 H :    0.022778
  28 C :   -0.052839
  29 H :    0.037148
  30 H :    0.035551
  31 H :    0.047809
  32 H :    0.080404
  33 H :    0.020349
Sum of atomic charges:   -0.0000000

LOEWDIN ATOMIC CHARGES
----------------------
   0 S :    0.416253
   1 C :   -0.217528
   2 C :   -0.076774
   3 C :   -0.086365
   4 C :   -0.192197
   5 H :    0.037587
   6 C :   -0.029596
   7 H :    0.031269
   8 H :    0.030744
   9 C :   -0.043651
  10 H :    0.023559
  11 H :    0.018493
  12 C :   -0.059116
  13 H :    0.030194
  14 H :    0.014630
  15 H :    0.028328
  16 S :    0.449138
  17 C :   -0.181689
  18 C :   -0.066388
  19 C :   -0.047106
  20 C :   -0.203613
  21 H :    0.025116
  22 C :   -0.043082
  23 H :    0.039202
  24 H :    0.022252
  25 C :   -0.044135
  26 H :    0.017743
  27 H :    0.025979
  28 C :   -0.061208
  29 H :    0.022525
  30 H :    0.026825
  31 H :    0.037953
  32 H :    0.048732
  33 H :    0.005928

  Mayer bond orders larger than 0.100000
B(  0-S ,  1-C ) :   1.1349 B(  0-S ,  4-C ) :   1.1764 B(  1-C ,  2-C ) :   1.5702
B(  1-C ,  4-C ) :   0.1041 B(  1-C , 32-H ) :   0.9695 B(  2-C ,  3-C ) :   1.2809
B(  2-C ,  6-C ) :   1.0140 B(  3-C ,  4-C ) :   1.5640 B(  3-C ,  5-H ) :   0.9876
B(  4-C , 20-C ) :   1.0069 B(  6-C ,  7-H ) :   0.9414 B(  6-C ,  8-H ) :   0.9445
B(  6-C ,  9-C ) :   1.0641 B(  9-C , 10-H ) :   0.9586 B(  9-C , 11-H ) :   0.9555
B(  9-C , 12-C ) :   1.0697 B( 12-C , 13-H ) :   0.9738 B( 12-C , 14-H ) :   0.9752
B( 12-C , 15-H ) :   0.9748 B( 16-S , 17-C ) :   1.1968 B( 16-S , 20-C ) :   1.1600
B( 17-C , 18-C ) :   1.5541 B( 17-C , 20-C ) :   0.1007 B( 17-C , 33-H ) :   0.9840
B( 18-C , 19-C ) :   1.2523 B( 18-C , 21-H ) :   1.0023 B( 19-C , 20-C ) :   1.5884
B( 19-C , 22-C ) :   1.0252 B( 22-C , 23-H ) :   0.9371 B( 22-C , 24-H ) :   0.9339
B( 22-C , 25-C ) :   1.0420 B( 25-C , 26-H ) :   0.9591 B( 25-C , 27-H ) :   0.9534
B( 25-C , 28-C ) :   1.0564 B( 28-C , 29-H ) :   0.9803 B( 28-C , 30-H ) :   0.9771
B( 28-C , 31-H ) :   0.9765

Dispersion correction           -0.013147260
FINAL SINGLE POINT ENERGY     -1339.851432467179

DIPOLE MOMENT
-------------
                                X             Y             Z
Electronic contribution:      5.23981     -28.85369      -9.19629
Nuclear contribution   :     -5.61607      29.29038       9.42820
                        -----------------------------------------
Total Dipole Moment    :     -0.37626       0.43669       0.23192
                        -----------------------------------------
Magnitude (a.u.)       :      0.62133
Magnitude (Debye)      :      1.57930

Rotational constants in cm-1:     0.015884     0.008889     0.006182
Rotational constants in MHz :   476.204862   266.499069   185.340207

                             ****ORCA TERMINATED NORMALLY****
TOTAL RUN TIME: 0 days 0 hours 0 minutes 22 seconds 229 msec
