                         Program Version 4.2.1 -  RELEASE  -
|  1> ! wB97X-D3 SP def2-SVP
|  2> %pal
|  3> nprocs 24
|  4> end
|  5>
|  6> * xyz 0 1
|  7> S 	 -53.3135 	 -54.1128 	 -81.4701
|  8> C 	 -54.7823 	 -53.4969 	 -80.728
|  9> C 	 -55.9274 	 -54.0017 	 -81.3803
| 10> C 	 -55.6092 	 -54.9857 	 -82.3941
| 11> C 	 -54.2302 	 -55.2496 	 -82.4711
| 12> H 	 -56.3884 	 -55.5141 	 -82.9633
| 13> C 	 -57.3968 	 -53.808 	 -80.9477
| 14> H 	 -57.4106 	 -53.4881 	 -79.8771
| 15> H 	 -57.9377 	 -54.7693 	 -81.0425
| 16> C 	 -58.1936 	 -52.824 	 -81.839
| 17> H 	 -57.6249 	 -51.8554 	 -81.7999
| 18> H 	 -58.2068 	 -53.1449 	 -82.8801
| 19> C 	 -59.5983 	 -52.5493 	 -81.3016
| 20> H 	 -59.508 	 -52.2846 	 -80.2345
| 21> H 	 -59.9477 	 -51.7232 	 -81.8978
| 22> H 	 -60.3039 	 -53.3767 	 -81.5356
| 23> S 	 -51.9392 	 -56.6985 	 -82.7839
| 24> C 	 -51.7325 	 -57.7278 	 -84.2023
| 25> C 	 -52.6917 	 -57.4133 	 -85.1006
| 26> C 	 -53.7524 	 -56.5086 	 -84.7099
| 27> C 	 -53.5174 	 -56.1396 	 -83.3582
| 28> H 	 -52.6364 	 -57.8011 	 -86.1122
| 29> C 	 -55.0009 	 -56.2495 	 -85.5617
| 30> H 	 -55.6635 	 -55.5718 	 -85.0344
| 31> H 	 -55.6133 	 -57.1951 	 -85.5621
| 32> C 	 -54.8348 	 -55.6149 	 -86.8682
| 33> H 	 -55.6883 	 -55.203 	 -87.294
| 34> H 	 -54.5634 	 -56.4897 	 -87.5114
| 35> C 	 -53.7764 	 -54.5171 	 -86.8611
| 36> H 	 -52.7673 	 -55.0315 	 -86.7602
| 37> H 	 -54.0237 	 -53.7414 	 -86.1131
| 38> H 	 -53.7267 	 -54.0105 	 -87.8483
| 39> H 	 -54.8617 	 -52.7216 	 -80.0015
| 40> H 	 -50.8467 	 -58.1931 	 -84.4543
| 41> *
| 42>
| 43>                          ****END OF INPUT****

CARTESIAN COORDINATES (ANGSTROEM)
---------------------------------
  S    -53.313500  -54.112800  -81.470100
  C    -54.782300  -53.496900  -80.728000
  C    -55.927400  -54.001700  -81.380300
  C    -55.609200  -54.985700  -82.394100
  C    -54.230200  -55.249600  -82.471100
  H    -56.388400  -55.514100  -82.963300
  C    -57.396800  -53.808000  -80.947700
  H    -57.410600  -53.488100  -79.877100
  H    -57.937700  -54.769300  -81.042500
  C    -58.193600  -52.824000  -81.839000
  H    -57.624900  -51.855400  -81.799900
  H    -58.206800  -53.144900  -82.880100
  C    -59.598300  -52.549300  -81.301600
  H    -59.508000  -52.284600  -80.234500
  H    -59.947700  -51.723200  -81.897800
  H    -60.303900  -53.376700  -81.535600
  S    -51.939200  -56.698500  -82.783900
  C    -51.732500  -57.727800  -84.202300
  C    -52.691700  -57.413300  -85.100600
  C    -53.752400  -56.508600  -84.709900
  C    -53.517400  -56.139600  -83.358200
  H    -52.636400  -57.801100  -86.112200
  C    -55.000900  -56.249500  -85.561700
  H    -55.663500  -55.571800  -85.034400
  H    -55.613300  -57.195100  -85.562100
  C    -54.834800  -55.614900  -86.868200
  H    -55.688300  -55.203000  -87.294000
  H    -54.563400  -56.489700  -87.511400
  C    -53.776400  -54.517100  -86.861100
  H    -52.767300  -55.031500  -86.760200
  H    -54.023700  -53.741400  -86.113100
  H    -53.726700  -54.010500  -87.848300
  H    -54.861700  -52.721600  -80.001500
  H    -50.846700  -58.193100  -84.454300

 Total Charge           Charge          ....    0
 Multiplicity           Mult            ....    1
 Number of Electrons    NEL             ....  134
 Basis Dimension        Dim             ....  322

ORBITAL ENERGIES
----------------

  NO   OCC          E(Eh)            E(eV)
   0   2.0000     -88.969338     -2420.9788
   1   2.0000     -88.963939     -2420.8318
   2   2.0000     -10.334548      -281.2173
   3   2.0000     -10.333597      -281.1915
   4   2.0000     -10.316129      -280.7161
   5   2.0000     -10.311828      -280.5991
   6   2.0000     -10.310891      -280.5736
   7   2.0000     -10.306257      -280.4475
   8   2.0000     -10.300408      -280.2883
   9   2.0000     -10.298501      -280.2364
  10   2.0000     -10.293896      -280.1111
  11   2.0000     -10.293670      -280.1050
  12   2.0000     -10.289244      -279.9846
  13   2.0000     -10.282014      -279.7878
  14   2.0000     -10.281880      -279.7842
  15   2.0000     -10.279155      -279.7100
  16   2.0000      -8.083328      -219.9585
  17   2.0000      -8.078345      -219.8229
  18   2.0000      -6.041992      -164.4110
  19   2.0000      -6.037925      -164.3003
  20   2.0000      -6.036963      -164.2741
  21   2.0000      -6.033982      -164.1930
  22   2.0000      -6.032997      -164.1662
  23   2.0000      -6.028899      -164.0547
  24   2.0000      -1.002567       -27.2812
  25   2.0000      -0.977455       -26.5979
  26   2.0000      -0.921107       -25.0646
  27   2.0000      -0.908098       -24.7106
  28   2.0000      -0.870756       -23.6945
  29   2.0000      -0.849973       -23.1289
  30   2.0000      -0.840022       -22.8581
  31   2.0000      -0.812087       -22.0980
  32   2.0000      -0.783485       -21.3197
  33   2.0000      -0.771468       -20.9927
  34   2.0000      -0.709686       -19.3115
  35   2.0000      -0.694612       -18.9014
  36   2.0000      -0.690464       -18.7885
  37   2.0000      -0.656439       -17.8626
  38   2.0000      -0.635924       -17.3044
  39   2.0000      -0.621087       -16.9006
  40   2.0000      -0.601436       -16.3659
  41   2.0000      -0.568360       -15.4659
  42   2.0000      -0.560616       -15.2551
  43   2.0000      -0.558882       -15.2079
  44   2.0000      -0.555684       -15.1209
  45   2.0000      -0.522787       -14.2258
  46   2.0000      -0.514811       -14.0087
  47   2.0000      -0.509940       -13.8762
  48   2.0000      -0.502048       -13.6614
  49   2.0000      -0.499394       -13.5892
  50   2.0000      -0.491246       -13.3675
  51   2.0000      -0.479424       -13.0458
  52   2.0000      -0.471291       -12.8245
  53   2.0000      -0.463375       -12.6091
  54   2.0000      -0.461030       -12.5453
  55   2.0000      -0.446080       -12.1385
  56   2.0000      -0.442823       -12.0498
  57   2.0000      -0.441268       -12.0075
  58   2.0000      -0.433896       -11.8069
  59   2.0000      -0.421612       -11.4726
  60   2.0000      -0.416339       -11.3292
  61   2.0000      -0.414670       -11.2837
  62   2.0000      -0.401108       -10.9147
  63   2.0000      -0.356732        -9.7072
  64   2.0000      -0.331071        -9.0089
  65   2.0000      -0.326878        -8.8948
  66   2.0000      -0.284442        -7.7400
  67   0.0000       0.017383         0.4730
  68   0.0000       0.072941         1.9848
  69   0.0000       0.101953         2.7743
  70   0.0000       0.116837         3.1793
  71   0.0000       0.127870         3.4795

MULLIKEN ATOMIC CHARGES
-----------------------
   0 S :    0.105506
   1 C :   -0.097599
   2 C :   -0.083311
   3 C :    0.000598
   4 C :   -0.116097
   5 H :    0.029962
   6 C :    0.022491
   7 H :    0.030830
   8 H :    0.033367
   9 C :   -0.114321
  10 H :    0.031584
  11 H :    0.028462
  12 C :   -0.030187
  13 H :    0.040434
  14 H :    0.032176
  15 H :    0.039441
  16 S :    0.080743
  17 C :   -0.039055
  18 C :   -0.044231
  19 C :   -0.041975
  20 C :   -0.158385
  21 H :    0.016548
  22 C :    0.059969
  23 H :    0.003463
  24 H :    0.052821
  25 C :   -0.061163
  26 H :    0.016977
  27 H :    0.023468
  28 C :   -0.069032
  29 H :    0.050693
  30 H :    0.049945
  31 H :    0.033905
  32 H :    0.037134
  33 H :    0.034841
Sum of atomic charges:   -0.0000000

LOEWDIN ATOMIC CHARGES
----------------------
   0 S :    0.397684
   1 C :   -0.198247
   2 C :   -0.058410
   3 C :   -0.068190
   4 C :   -0.182458
   5 H :    0.033182
   6 C :   -0.036328
   7 H :    0.032095
   8 H :    0.031470
   9 C :   -0.047160
  10 H :    0.026263
  11 H :    0.020950
  12 C :   -0.066641
  13 H :    0.029516
  14 H :    0.026756
  15 H :    0.028518
  16 S :    0.384617
  17 C :   -0.172854
  18 C :   -0.066216
  19 C :   -0.049605
  20 C :   -0.184073
  21 H :    0.028087
  22 C :   -0.039987
  23 H :    0.025882
  24 H :    0.041730
  25 C :   -0.047775
  26 H :    0.017353
  27 H :    0.025162
  28 C :   -0.067557
  29 H :    0.036270
  30 H :    0.032204
  31 H :    0.026996
  32 H :    0.023141
  33 H :    0.017626

  Mayer bond orders larger than 0.100000
B(  0-S ,  1-C ) :   1.1266 B(  0-S ,  4-C ) :   1.1447 B(  1-C ,  2-C ) :   1.6104
B(  1-C , 32-H ) :   0.9703 B(  2-C ,  3-C ) :   1.2467 B(  2-C ,  6-C ) :   1.0223
B(  3-C ,  4-C ) :   1.5589 B(  3-C ,  5-H ) :   0.9831 B(  4-C , 20-C ) :   1.0865
B(  6-C ,  7-H ) :   0.9475 B(  6-C ,  8-H ) :   0.9487 B(  6-C ,  9-C ) :   1.0542
B(  9-C , 10-H ) :   0.9577 B(  9-C , 11-H ) :   0.9556 B(  9-C , 12-C ) :   1.0845
B( 12-C , 13-H ) :   0.9725 B( 12-C , 14-H ) :   0.9736 B( 12-C , 15-H ) :   0.9734
B( 16-S , 17-C ) :   1.1188 B( 16-S , 20-C ) :   1.1475 B( 17-C , 18-C ) :   1.6403
B( 17-C , 33-H ) :   0.9753 B( 18-C , 19-C ) :   1.2257 B( 18-C , 21-H ) :   0.9805
B( 19-C , 20-C ) :   1.5570 B( 19-C , 22-C ) :   1.0363 B( 22-C , 23-H ) :   0.9224
B( 22-C , 24-H ) :   0.9423 B( 22-C , 25-C ) :   1.0667 B( 25-C , 26-H ) :   0.9562
B( 25-C , 27-H ) :   0.9511 B( 25-C , 28-C ) :   1.0889 B( 28-C , 29-H ) :   0.9635
B( 28-C , 30-H ) :   0.9740 B( 28-C , 31-H ) :   0.9728

Dispersion correction           -0.014104052
FINAL SINGLE POINT ENERGY     -1339.870776575509

DIPOLE MOMENT
-------------
                                X             Y             Z
Electronic contribution:     24.33290      -9.36037      11.68723
Nuclear contribution   :    -24.94648       9.51140     -12.18110
                        -----------------------------------------
Total Dipole Moment    :     -0.61357       0.15103      -0.49386
                        -----------------------------------------
Magnitude (a.u.)       :      0.80199
Magnitude (Debye)      :      2.03849

Rotational constants in cm-1:     0.020026     0.008190     0.006437
Rotational constants in MHz :   600.351700   245.531279   192.969018

                             ****ORCA TERMINATED NORMALLY****
TOTAL RUN TIME: 0 days 0 hours 0 minutes 20 seconds 271 msec
