                         Program Version 4.2.1 -  RELEASE  -
|  1> ! wB97X-D3 SP def2-SVP
|  2> %pal
|  3> nprocs 24
|  4> end
|  5>
|  6> * xyz 0 1
|  7> S 	 43.7895 	 -20.0168 	 -108.849
|  8> C 	 44.9963 	 -20.0534 	 -110.117
|  9> C 	 46.0582 	 -20.9097 	 -109.746
| 10> C 	 45.9236 	 -21.3555 	 -108.388
| 11> C 	 44.8001 	 -20.8767 	 -107.765
| 12> H 	 46.6497 	 -21.9126 	 -107.882
| 13> C 	 47.2879 	 -21.1688 	 -110.577
| 14> H 	 47.641 	 -22.2731 	 -110.368
| 15> H 	 48.0368 	 -20.4438 	 -110.184
| 16> C 	 47.2253 	 -20.9185 	 -112.116
| 17> H 	 46.9804 	 -19.8679 	 -112.264
| 18> H 	 48.1949 	 -21.1468 	 -112.617
| 19> C 	 46.1383 	 -21.7157 	 -113
| 20> H 	 46.245 	 -22.7897 	 -112.935
| 21> H 	 45.15 	 -21.3515 	 -112.805
| 22> H 	 46.2248 	 -21.4867 	 -114.082
| 23> S 	 43.6905 	 -19.6794 	 -105.588
| 24> C 	 43.1857 	 -20.6689 	 -104.244
| 25> C 	 43.5513 	 -21.9903 	 -104.405
| 26> C 	 44.2386 	 -22.2638 	 -105.603
| 27> C 	 44.3178 	 -21.0931 	 -106.424
| 28> H 	 43.3508 	 -22.7288 	 -103.602
| 29> C 	 44.7454 	 -23.6289 	 -105.94
| 30> H 	 45.4191 	 -23.9926 	 -105.131
| 31> H 	 45.3347 	 -23.5982 	 -106.846
| 32> C 	 43.6314 	 -24.7434 	 -106.092
| 33> H 	 43.0538 	 -24.8316 	 -105.191
| 34> H 	 43.9826 	 -25.7847 	 -106.176
| 35> C 	 42.702 	 -24.5429 	 -107.215
| 36> H 	 43.1869 	 -24.3696 	 -108.154
| 37> H 	 42.1674 	 -23.6824 	 -107.051
| 38> H 	 41.9829 	 -25.3845 	 -107.289
| 39> H 	 44.8503 	 -19.6561 	 -111.129
| 40> H 	 42.7905 	 -20.1418 	 -103.404
| 41> *
| 42>
| 43>                          ****END OF INPUT****

CARTESIAN COORDINATES (ANGSTROEM)
---------------------------------
  S     43.789500  -20.016800  -108.849000
  C     44.996300  -20.053400  -110.117000
  C     46.058200  -20.909700  -109.746000
  C     45.923600  -21.355500  -108.388000
  C     44.800100  -20.876700  -107.765000
  H     46.649700  -21.912600  -107.882000
  C     47.287900  -21.168800  -110.577000
  H     47.641000  -22.273100  -110.368000
  H     48.036800  -20.443800  -110.184000
  C     47.225300  -20.918500  -112.116000
  H     46.980400  -19.867900  -112.264000
  H     48.194900  -21.146800  -112.617000
  C     46.138300  -21.715700  -113.000000
  H     46.245000  -22.789700  -112.935000
  H     45.150000  -21.351500  -112.805000
  H     46.224800  -21.486700  -114.082000
  S     43.690500  -19.679400  -105.588000
  C     43.185700  -20.668900  -104.244000
  C     43.551300  -21.990300  -104.405000
  C     44.238600  -22.263800  -105.603000
  C     44.317800  -21.093100  -106.424000
  H     43.350800  -22.728800  -103.602000
  C     44.745400  -23.628900  -105.940000
  H     45.419100  -23.992600  -105.131000
  H     45.334700  -23.598200  -106.846000
  C     43.631400  -24.743400  -106.092000
  H     43.053800  -24.831600  -105.191000
  H     43.982600  -25.784700  -106.176000
  C     42.702000  -24.542900  -107.215000
  H     43.186900  -24.369600  -108.154000
  H     42.167400  -23.682400  -107.051000
  H     41.982900  -25.384500  -107.289000
  H     44.850300  -19.656100  -111.129000
  H     42.790500  -20.141800  -103.404000

 Total Charge           Charge          ....    0
 Multiplicity           Mult            ....    1
 Number of Electrons    NEL             ....  134
 Basis Dimension        Dim             ....  322

ORBITAL ENERGIES
----------------

  NO   OCC          E(Eh)            E(eV)
   0   2.0000     -88.966784     -2420.9093
   1   2.0000     -88.964726     -2420.8533
   2   2.0000     -10.329907      -281.0911
   3   2.0000     -10.325375      -280.9677
   4   2.0000     -10.317003      -280.7399
   5   2.0000     -10.314776      -280.6793
   6   2.0000     -10.308127      -280.4984
   7   2.0000     -10.307570      -280.4832
   8   2.0000     -10.305430      -280.4250
   9   2.0000     -10.298989      -280.2497
  10   2.0000     -10.297849      -280.2187
  11   2.0000     -10.296240      -280.1749
  12   2.0000     -10.288848      -279.9738
  13   2.0000     -10.281201      -279.7657
  14   2.0000     -10.280754      -279.7535
  15   2.0000     -10.258705      -279.1535
  16   2.0000      -8.081714      -219.9146
  17   2.0000      -8.080079      -219.8701
  18   2.0000      -6.040040      -164.3578
  19   2.0000      -6.038558      -164.3175
  20   2.0000      -6.036126      -164.2513
  21   2.0000      -6.034391      -164.2041
  22   2.0000      -6.032721      -164.1587
  23   2.0000      -6.030938      -164.1102
  24   2.0000      -1.009923       -27.4814
  25   2.0000      -0.984187       -26.7811
  26   2.0000      -0.911050       -24.7909
  27   2.0000      -0.904369       -24.6091
  28   2.0000      -0.863789       -23.5049
  29   2.0000      -0.857333       -23.3292
  30   2.0000      -0.846262       -23.0280
  31   2.0000      -0.811117       -22.0716
  32   2.0000      -0.785532       -21.3754
  33   2.0000      -0.771246       -20.9867
  34   2.0000      -0.705923       -19.2091
  35   2.0000      -0.703638       -19.1470
  36   2.0000      -0.694392       -18.8954
  37   2.0000      -0.658464       -17.9177
  38   2.0000      -0.638431       -17.3726
  39   2.0000      -0.615478       -16.7480
  40   2.0000      -0.599176       -16.3044
  41   2.0000      -0.571140       -15.5415
  42   2.0000      -0.552980       -15.0474
  43   2.0000      -0.548787       -14.9332
  44   2.0000      -0.543695       -14.7947
  45   2.0000      -0.531512       -14.4632
  46   2.0000      -0.519352       -14.1323
  47   2.0000      -0.513192       -13.9647
  48   2.0000      -0.498888       -13.5754
  49   2.0000      -0.497766       -13.5449
  50   2.0000      -0.491845       -13.3838
  51   2.0000      -0.479366       -13.0442
  52   2.0000      -0.468695       -12.7538
  53   2.0000      -0.467808       -12.7297
  54   2.0000      -0.460731       -12.5371
  55   2.0000      -0.447755       -12.1840
  56   2.0000      -0.443577       -12.0703
  57   2.0000      -0.435759       -11.8576
  58   2.0000      -0.435599       -11.8533
  59   2.0000      -0.427098       -11.6219
  60   2.0000      -0.418106       -11.3772
  61   2.0000      -0.416460       -11.3324
  62   2.0000      -0.410556       -11.1718
  63   2.0000      -0.349196        -9.5021
  64   2.0000      -0.333712        -9.0808
  65   2.0000      -0.327406        -8.9092
  66   2.0000      -0.286229        -7.7887
  67   0.0000       0.026177         0.7123
  68   0.0000       0.072097         1.9619
  69   0.0000       0.109967         2.9924
  70   0.0000       0.112126         3.0511
  71   0.0000       0.132382         3.6023

MULLIKEN ATOMIC CHARGES
-----------------------
   0 S :    0.117938
   1 C :   -0.140596
   2 C :   -0.085603
   3 C :    0.036577
   4 C :   -0.129791
   5 H :   -0.008122
   6 C :    0.016005
   7 H :    0.049277
   8 H :    0.063153
   9 C :   -0.100273
  10 H :    0.031436
  11 H :    0.044242
  12 C :   -0.061702
  13 H :    0.039188
  14 H :    0.024262
  15 H :    0.030268
  16 S :    0.108434
  17 C :   -0.094417
  18 C :   -0.041197
  19 C :   -0.015040
  20 C :   -0.176047
  21 H :    0.034453
  22 C :    0.076759
  23 H :    0.041835
  24 H :    0.013278
  25 C :   -0.081062
  26 H :    0.011345
  27 H :    0.021247
  28 C :   -0.005559
  29 H :    0.021038
  30 H :    0.012355
  31 H :    0.031965
  32 H :    0.058373
  33 H :    0.055981
Sum of atomic charges:    0.0000000

LOEWDIN ATOMIC CHARGES
----------------------
   0 S :    0.424431
   1 C :   -0.214358
   2 C :   -0.059638
   3 C :   -0.064579
   4 C :   -0.201441
   5 H :    0.021207
   6 C :   -0.044291
   7 H :    0.041712
   8 H :    0.046340
   9 C :   -0.044456
  10 H :    0.021880
  11 H :    0.031998
  12 C :   -0.070455
  13 H :    0.023189
  14 H :    0.017363
  15 H :    0.030183
  16 S :    0.412959
  17 C :   -0.181624
  18 C :   -0.072174
  19 C :   -0.054547
  20 C :   -0.200775
  21 H :    0.039184
  22 C :   -0.029504
  23 H :    0.040619
  24 H :    0.026552
  25 C :   -0.042767
  26 H :    0.017563
  27 H :    0.024930
  28 C :   -0.059269
  29 H :    0.022980
  30 H :    0.014497
  31 H :    0.031330
  32 H :    0.028594
  33 H :    0.022368

  Mayer bond orders larger than 0.100000
B(  0-S ,  1-C ) :   1.1334 B(  0-S ,  4-C ) :   1.1730 B(  1-C ,  2-C ) :   1.5864
B(  1-C , 32-H ) :   0.9625 B(  2-C ,  3-C ) :   1.2492 B(  2-C ,  6-C ) :   1.0128
B(  3-C ,  4-C ) :   1.5579 B(  3-C ,  5-H ) :   1.0072 B(  4-C , 20-C ) :   1.0463
B(  6-C ,  7-H ) :   0.9430 B(  6-C ,  8-H ) :   0.9383 B(  6-C ,  9-C ) :   1.0740
B(  9-C , 10-H ) :   0.9511 B(  9-C , 11-H ) :   0.9601 B(  9-C , 12-C ) :   1.0710
B( 12-C , 13-H ) :   0.9790 B( 12-C , 14-H ) :   0.9760 B( 12-C , 15-H ) :   0.9752
B( 16-S , 17-C ) :   1.1639 B( 16-S , 20-C ) :   1.1689 B( 17-C , 18-C ) :   1.5662
B( 17-C , 20-C ) :   0.1114 B( 17-C , 33-H ) :   0.9755 B( 18-C , 19-C ) :   1.2672
B( 18-C , 21-H ) :   0.9862 B( 19-C , 20-C ) :   1.5242 B( 19-C , 22-C ) :   1.0544
B( 22-C , 23-H ) :   0.9305 B( 22-C , 24-H ) :   0.9356 B( 22-C , 25-C ) :   1.0624
B( 25-C , 26-H ) :   0.9537 B( 25-C , 27-H ) :   0.9570 B( 25-C , 28-C ) :   1.0856
B( 28-C , 29-H ) :   0.9720 B( 28-C , 30-H ) :   0.9706 B( 28-C , 31-H ) :   0.9693

Dispersion correction           -0.014590787
FINAL SINGLE POINT ENERGY     -1339.882188578112

DIPOLE MOMENT
-------------
                                X             Y             Z
Electronic contribution:     -7.23819      18.87806      15.10265
Nuclear contribution   :      7.55034     -19.28770     -15.12130
                        -----------------------------------------
Total Dipole Moment    :      0.31215      -0.40964      -0.01865
                        -----------------------------------------
Magnitude (a.u.)       :      0.51535
Magnitude (Debye)      :      1.30992

Rotational constants in cm-1:     0.022353     0.008016     0.006714
Rotational constants in MHz :   670.136933   240.321720   201.295030

                             ****ORCA TERMINATED NORMALLY****
TOTAL RUN TIME: 0 days 0 hours 0 minutes 21 seconds 608 msec
