                         Program Version 4.2.1 -  RELEASE  -
|  1> ! wB97X-D3 SP def2-SVP
|  2> %pal
|  3> nprocs 24
|  4> end
|  5>
|  6> * xyz 0 1
|  7> S 	 -112.891 	 49.1847 	 -120.76
|  8> C 	 -112.694 	 47.5254 	 -121.222
|  9> C 	 -112.342 	 46.7529 	 -120.097
| 10> C 	 -112.25 	 47.4983 	 -118.913
| 11> C 	 -112.557 	 48.8302 	 -119.09
| 12> H 	 -112.004 	 47.0819 	 -117.932
| 13> C 	 -112.238 	 45.2406 	 -120.115
| 14> H 	 -112.887 	 44.9644 	 -120.874
| 15> H 	 -112.679 	 44.9347 	 -119.235
| 16> C 	 -110.895 	 44.6208 	 -120.397
| 17> H 	 -110.213 	 44.8296 	 -119.516
| 18> H 	 -110.925 	 43.5141 	 -120.262
| 19> C 	 -110.168 	 45.1468 	 -121.646
| 20> H 	 -109.845 	 46.1987 	 -121.364
| 21> H 	 -109.292 	 44.5225 	 -121.807
| 22> H 	 -110.831 	 45.2228 	 -122.577
| 23> S 	 -111.884 	 51.3721 	 -118.351
| 24> C 	 -112.311 	 52.0105 	 -116.709
| 25> C 	 -112.867 	 50.9633 	 -116.017
| 26> C 	 -113.191 	 49.747 	 -116.766
| 27> C 	 -112.653 	 49.8212 	 -118.037
| 28> H 	 -113.174 	 51.1703 	 -115.003
| 29> C 	 -113.961 	 48.5561 	 -116.187
| 30> H 	 -114.295 	 48.8522 	 -115.171
| 31> H 	 -113.306 	 47.7508 	 -115.889
| 32> C 	 -115.147 	 48.0522 	 -117.074
| 33> H 	 -115.598 	 47.0356 	 -116.742
| 34> H 	 -114.977 	 47.8675 	 -118.093
| 35> C 	 -116.207 	 49.1183 	 -117.093
| 36> H 	 -115.852 	 50.0573 	 -117.707
| 37> H 	 -116.59 	 49.3193 	 -116.112
| 38> H 	 -117.022 	 48.6709 	 -117.738
| 39> H 	 -112.975 	 47.0973 	 -122.226
| 40> H 	 -112.265 	 53.0186 	 -116.237
| 41> *
| 42>
| 43>                          ****END OF INPUT****

CARTESIAN COORDINATES (ANGSTROEM)
---------------------------------
  S    -112.891000   49.184700  -120.760000
  C    -112.694000   47.525400  -121.222000
  C    -112.342000   46.752900  -120.097000
  C    -112.250000   47.498300  -118.913000
  C    -112.557000   48.830200  -119.090000
  H    -112.004000   47.081900  -117.932000
  C    -112.238000   45.240600  -120.115000
  H    -112.887000   44.964400  -120.874000
  H    -112.679000   44.934700  -119.235000
  C    -110.895000   44.620800  -120.397000
  H    -110.213000   44.829600  -119.516000
  H    -110.925000   43.514100  -120.262000
  C    -110.168000   45.146800  -121.646000
  H    -109.845000   46.198700  -121.364000
  H    -109.292000   44.522500  -121.807000
  H    -110.831000   45.222800  -122.577000
  S    -111.884000   51.372100  -118.351000
  C    -112.311000   52.010500  -116.709000
  C    -112.867000   50.963300  -116.017000
  C    -113.191000   49.747000  -116.766000
  C    -112.653000   49.821200  -118.037000
  H    -113.174000   51.170300  -115.003000
  C    -113.961000   48.556100  -116.187000
  H    -114.295000   48.852200  -115.171000
  H    -113.306000   47.750800  -115.889000
  C    -115.147000   48.052200  -117.074000
  H    -115.598000   47.035600  -116.742000
  H    -114.977000   47.867500  -118.093000
  C    -116.207000   49.118300  -117.093000
  H    -115.852000   50.057300  -117.707000
  H    -116.590000   49.319300  -116.112000
  H    -117.022000   48.670900  -117.738000
  H    -112.975000   47.097300  -122.226000
  H    -112.265000   53.018600  -116.237000

 Total Charge           Charge          ....    0
 Multiplicity           Mult            ....    1
 Number of Electrons    NEL             ....  134
 Basis Dimension        Dim             ....  322

ORBITAL ENERGIES
----------------

  NO   OCC          E(Eh)            E(eV)
   0   2.0000     -88.971111     -2421.0270
   1   2.0000     -88.963731     -2420.8262
   2   2.0000     -10.328564      -281.0545
   3   2.0000     -10.328128      -281.0427
   4   2.0000     -10.323759      -280.9238
   5   2.0000     -10.321270      -280.8560
   6   2.0000     -10.308288      -280.5028
   7   2.0000     -10.300919      -280.3023
   8   2.0000     -10.298955      -280.2488
   9   2.0000     -10.296417      -280.1798
  10   2.0000     -10.293806      -280.1087
  11   2.0000     -10.291268      -280.0397
  12   2.0000     -10.287691      -279.9423
  13   2.0000     -10.286542      -279.9110
  14   2.0000     -10.278681      -279.6971
  15   2.0000     -10.278670      -279.6968
  16   2.0000      -8.085986      -220.0309
  17   2.0000      -8.077408      -219.7974
  18   2.0000      -6.044416      -164.4769
  19   2.0000      -6.040325      -164.3656
  20   2.0000      -6.036967      -164.2742
  21   2.0000      -6.036284      -164.2556
  22   2.0000      -6.032005      -164.1392
  23   2.0000      -6.027882      -164.0270
  24   2.0000      -1.009076       -27.4583
  25   2.0000      -0.980543       -26.6819
  26   2.0000      -0.916071       -24.9276
  27   2.0000      -0.905240       -24.6328
  28   2.0000      -0.868576       -23.6352
  29   2.0000      -0.852508       -23.1979
  30   2.0000      -0.841064       -22.8865
  31   2.0000      -0.815053       -22.1787
  32   2.0000      -0.783741       -21.3267
  33   2.0000      -0.770011       -20.9531
  34   2.0000      -0.708042       -19.2668
  35   2.0000      -0.695075       -18.9140
  36   2.0000      -0.685030       -18.6406
  37   2.0000      -0.658333       -17.9141
  38   2.0000      -0.638028       -17.3616
  39   2.0000      -0.623273       -16.9601
  40   2.0000      -0.589379       -16.0378
  41   2.0000      -0.567341       -15.4381
  42   2.0000      -0.553936       -15.0734
  43   2.0000      -0.551321       -15.0022
  44   2.0000      -0.542328       -14.7575
  45   2.0000      -0.538111       -14.6427
  46   2.0000      -0.520418       -14.1613
  47   2.0000      -0.507562       -13.8115
  48   2.0000      -0.504348       -13.7240
  49   2.0000      -0.494489       -13.4557
  50   2.0000      -0.487476       -13.2649
  51   2.0000      -0.474627       -12.9153
  52   2.0000      -0.468914       -12.7598
  53   2.0000      -0.465392       -12.6640
  54   2.0000      -0.455654       -12.3990
  55   2.0000      -0.450809       -12.2671
  56   2.0000      -0.445305       -12.1174
  57   2.0000      -0.433166       -11.7870
  58   2.0000      -0.427771       -11.6402
  59   2.0000      -0.426193       -11.5973
  60   2.0000      -0.419285       -11.4093
  61   2.0000      -0.407107       -11.0779
  62   2.0000      -0.402126       -10.9424
  63   2.0000      -0.350142        -9.5278
  64   2.0000      -0.336180        -9.1479
  65   2.0000      -0.326700        -8.8899
  66   2.0000      -0.290930        -7.9166
  67   0.0000       0.023798         0.6476
  68   0.0000       0.072830         1.9818
  69   0.0000       0.105402         2.8681
  70   0.0000       0.114958         3.1282
  71   0.0000       0.135127         3.6770

MULLIKEN ATOMIC CHARGES
-----------------------
   0 S :    0.128379
   1 C :   -0.143748
   2 C :   -0.140021
   3 C :    0.029214
   4 C :   -0.156059
   5 H :    0.015641
   6 C :    0.165070
   7 H :   -0.003296
   8 H :   -0.002120
   9 C :   -0.094708
  10 H :    0.020743
  11 H :    0.031634
  12 C :   -0.074259
  13 H :    0.058652
  14 H :    0.043132
  15 H :    0.041351
  16 S :    0.087492
  17 C :   -0.103064
  18 C :   -0.040095
  19 C :   -0.050357
  20 C :   -0.140191
  21 H :    0.016187
  22 C :    0.084457
  23 H :    0.011250
  24 H :    0.030561
  25 C :   -0.074229
  26 H :    0.031431
  27 H :    0.037286
  28 C :   -0.085335
  29 H :    0.066126
  30 H :    0.028703
  31 H :    0.031841
  32 H :    0.073250
  33 H :    0.075084
Sum of atomic charges:    0.0000000

LOEWDIN ATOMIC CHARGES
----------------------
   0 S :    0.427001
   1 C :   -0.216420
   2 C :   -0.061261
   3 C :   -0.058337
   4 C :   -0.202290
   5 H :    0.036336
   6 C :   -0.023654
   7 H :    0.022164
   8 H :    0.022032
   9 C :   -0.051625
  10 H :    0.026783
  11 H :    0.025232
  12 C :   -0.072280
  13 H :    0.038073
  14 H :    0.027710
  15 H :    0.028180
  16 S :    0.370634
  17 C :   -0.183549
  18 C :   -0.068768
  19 C :   -0.060958
  20 C :   -0.186845
  21 H :    0.027005
  22 C :   -0.033599
  23 H :    0.032865
  24 H :    0.026447
  25 C :   -0.046930
  26 H :    0.031840
  27 H :    0.020230
  28 C :   -0.071460
  29 H :    0.042061
  30 H :    0.015041
  31 H :    0.029238
  32 H :    0.041075
  33 H :    0.048028

  Mayer bond orders larger than 0.100000
B(  0-S ,  1-C ) :   1.1544 B(  0-S ,  4-C ) :   1.1677 B(  1-C ,  2-C ) :   1.5633
B(  1-C ,  4-C ) :   0.1051 B(  1-C , 32-H ) :   0.9609 B(  2-C ,  3-C ) :   1.2822
B(  2-C ,  6-C ) :   1.0082 B(  3-C ,  4-C ) :   1.5315 B(  3-C ,  5-H ) :   0.9979
B(  4-C , 20-C ) :   1.0463 B(  6-C ,  7-H ) :   0.9305 B(  6-C ,  8-H ) :   0.9340
B(  6-C ,  9-C ) :   1.0776 B(  9-C , 10-H ) :   0.9514 B(  9-C , 11-H ) :   0.9563
B(  9-C , 12-C ) :   1.0647 B( 12-C , 13-H ) :   0.9689 B( 12-C , 14-H ) :   0.9721
B( 12-C , 15-H ) :   0.9769 B( 16-S , 17-C ) :   1.1071 B( 16-S , 20-C ) :   1.1323
B( 17-C , 18-C ) :   1.6714 B( 17-C , 33-H ) :   0.9608 B( 18-C , 19-C ) :   1.2081
B( 18-C , 21-H ) :   0.9768 B( 19-C , 20-C ) :   1.6090 B( 19-C , 22-C ) :   1.0317
B( 22-C , 23-H ) :   0.9352 B( 22-C , 24-H ) :   0.9343 B( 22-C , 25-C ) :   1.0495
B( 25-C , 26-H ) :   0.9554 B( 25-C , 27-H ) :   0.9592 B( 25-C , 28-C ) :   1.0774
B( 28-C , 29-H ) :   0.9698 B( 28-C , 30-H ) :   0.9774 B( 28-C , 31-H ) :   0.9724

Dispersion correction           -0.015684799
FINAL SINGLE POINT ENERGY     -1339.865921894008

DIPOLE MOMENT
-------------
                                X             Y             Z
Electronic contribution:      5.10781      21.20108      -3.25306
Nuclear contribution   :     -5.34357     -21.82113       3.60986
                        -----------------------------------------
Total Dipole Moment    :     -0.23576      -0.62004       0.35679
                        -----------------------------------------
Magnitude (a.u.)       :      0.75322
Magnitude (Debye)      :      1.91452

Rotational constants in cm-1:     0.021919     0.008579     0.007451
Rotational constants in MHz :   657.123951   257.179756   223.360649

                             ****ORCA TERMINATED NORMALLY****
TOTAL RUN TIME: 0 days 0 hours 0 minutes 22 seconds 471 msec
