                         Program Version 4.2.1 -  RELEASE  -
|  1> ! wB97X-D3 SP def2-SVP
|  2> %pal
|  3> nprocs 24
|  4> end
|  5>
|  6> * xyz 0 1
|  7> S 	 -45.8337 	 -0.381312 	 14.1635
|  8> C 	 -46.6607 	 1.03547 	 14.8095
|  9> C 	 -47.6223 	 0.647283 	 15.6865
| 10> C 	 -47.5301 	 -0.770387 	 15.9946
| 11> C 	 -46.6778 	 -1.43344 	 15.2058
| 12> H 	 -48.0161 	 -1.3517 	 16.7945
| 13> C 	 -48.577 	 1.56002 	 16.5025
| 14> H 	 -49.5707 	 1.27895 	 16.4198
| 15> H 	 -48.5912 	 2.49801 	 15.9841
| 16> C 	 -48.2499 	 1.56398 	 18.0311
| 17> H 	 -48.525 	 0.621257 	 18.5601
| 18> H 	 -47.1861 	 1.59949 	 18.2894
| 19> C 	 -48.9561 	 2.77049 	 18.6635
| 20> H 	 -48.5732 	 3.67136 	 18.1865
| 21> H 	 -50.068 	 2.63061 	 18.6005
| 22> H 	 -48.7015 	 2.93429 	 19.7271
| 23> S 	 -44.7966 	 -3.40946 	 15.6381
| 24> C 	 -45.3326 	 -5.15423 	 15.8018
| 25> C 	 -46.7193 	 -5.19192 	 15.6519
| 26> C 	 -47.3126 	 -3.89723 	 15.2933
| 27> C 	 -46.3808 	 -2.84209 	 15.2531
| 28> H 	 -47.2272 	 -6.12208 	 15.8434
| 29> C 	 -48.7847 	 -3.73888 	 14.8823
| 30> H 	 -48.7779 	 -2.83495 	 14.2616
| 31> H 	 -49.4932 	 -3.60906 	 15.7384
| 32> C 	 -49.4402 	 -4.92547 	 14.0275
| 33> H 	 -49.3477 	 -5.94254 	 14.5249
| 34> H 	 -48.9244 	 -4.89644 	 13.0794
| 35> C 	 -50.9229 	 -4.71764 	 13.6168
| 36> H 	 -51.7301 	 -5.04431 	 14.2867
| 37> H 	 -51.1697 	 -5.32217 	 12.7882
| 38> H 	 -51.0469 	 -3.66977 	 13.2629
| 39> H 	 -46.532 	 2.05922 	 14.4991
| 40> H 	 -44.6925 	 -5.95381 	 15.8981
| 41> *
| 42>
| 43>                          ****END OF INPUT****

CARTESIAN COORDINATES (ANGSTROEM)
---------------------------------
  S    -45.833700   -0.381312   14.163500
  C    -46.660700    1.035470   14.809500
  C    -47.622300    0.647283   15.686500
  C    -47.530100   -0.770387   15.994600
  C    -46.677800   -1.433440   15.205800
  H    -48.016100   -1.351700   16.794500
  C    -48.577000    1.560020   16.502500
  H    -49.570700    1.278950   16.419800
  H    -48.591200    2.498010   15.984100
  C    -48.249900    1.563980   18.031100
  H    -48.525000    0.621257   18.560100
  H    -47.186100    1.599490   18.289400
  C    -48.956100    2.770490   18.663500
  H    -48.573200    3.671360   18.186500
  H    -50.068000    2.630610   18.600500
  H    -48.701500    2.934290   19.727100
  S    -44.796600   -3.409460   15.638100
  C    -45.332600   -5.154230   15.801800
  C    -46.719300   -5.191920   15.651900
  C    -47.312600   -3.897230   15.293300
  C    -46.380800   -2.842090   15.253100
  H    -47.227200   -6.122080   15.843400
  C    -48.784700   -3.738880   14.882300
  H    -48.777900   -2.834950   14.261600
  H    -49.493200   -3.609060   15.738400
  C    -49.440200   -4.925470   14.027500
  H    -49.347700   -5.942540   14.524900
  H    -48.924400   -4.896440   13.079400
  C    -50.922900   -4.717640   13.616800
  H    -51.730100   -5.044310   14.286700
  H    -51.169700   -5.322170   12.788200
  H    -51.046900   -3.669770   13.262900
  H    -46.532000    2.059220   14.499100
  H    -44.692500   -5.953810   15.898100

 Total Charge           Charge          ....    0
 Multiplicity           Mult            ....    1
 Number of Electrons    NEL             ....  134
 Basis Dimension        Dim             ....  322

ORBITAL ENERGIES
----------------

  NO   OCC          E(Eh)            E(eV)
   0   2.0000     -88.963747     -2420.8266
   1   2.0000     -88.961969     -2420.7783
   2   2.0000     -10.326800      -281.0065
   3   2.0000     -10.322349      -280.8854
   4   2.0000     -10.320055      -280.8230
   5   2.0000     -10.313912      -280.6558
   6   2.0000     -10.310476      -280.5623
   7   2.0000     -10.303377      -280.3691
   8   2.0000     -10.302131      -280.3352
   9   2.0000     -10.298348      -280.2323
  10   2.0000     -10.294972      -280.1404
  11   2.0000     -10.292579      -280.0753
  12   2.0000     -10.291604      -280.0488
  13   2.0000     -10.290681      -280.0237
  14   2.0000     -10.283351      -279.8242
  15   2.0000     -10.277929      -279.6767
  16   2.0000      -8.077757      -219.8069
  17   2.0000      -8.077735      -219.8063
  18   2.0000      -6.036421      -164.2594
  19   2.0000      -6.036363      -164.2578
  20   2.0000      -6.032258      -164.1461
  21   2.0000      -6.032084      -164.1413
  22   2.0000      -6.028457      -164.0427
  23   2.0000      -6.028338      -164.0394
  24   2.0000      -1.011870       -27.5344
  25   2.0000      -0.978102       -26.6155
  26   2.0000      -0.909357       -24.7449
  27   2.0000      -0.893792       -24.3213
  28   2.0000      -0.874126       -23.7862
  29   2.0000      -0.847463       -23.0606
  30   2.0000      -0.840406       -22.8686
  31   2.0000      -0.819965       -22.3124
  32   2.0000      -0.781103       -21.2549
  33   2.0000      -0.768214       -20.9042
  34   2.0000      -0.709158       -19.2972
  35   2.0000      -0.698659       -19.0115
  36   2.0000      -0.696867       -18.9627
  37   2.0000      -0.656077       -17.8528
  38   2.0000      -0.648326       -17.6418
  39   2.0000      -0.615239       -16.7415
  40   2.0000      -0.591066       -16.0837
  41   2.0000      -0.574031       -15.6202
  42   2.0000      -0.563033       -15.3209
  43   2.0000      -0.556858       -15.1529
  44   2.0000      -0.531462       -14.4618
  45   2.0000      -0.525495       -14.2994
  46   2.0000      -0.516121       -14.0444
  47   2.0000      -0.509818       -13.8728
  48   2.0000      -0.505933       -13.7671
  49   2.0000      -0.503447       -13.6995
  50   2.0000      -0.492508       -13.4018
  51   2.0000      -0.472896       -12.8682
  52   2.0000      -0.466570       -12.6960
  53   2.0000      -0.461918       -12.5694
  54   2.0000      -0.459045       -12.4912
  55   2.0000      -0.450211       -12.2509
  56   2.0000      -0.444322       -12.0906
  57   2.0000      -0.437272       -11.8988
  58   2.0000      -0.428894       -11.6708
  59   2.0000      -0.420332       -11.4378
  60   2.0000      -0.418765       -11.3952
  61   2.0000      -0.415389       -11.3033
  62   2.0000      -0.411176       -11.1887
  63   2.0000      -0.347590        -9.4584
  64   2.0000      -0.328537        -8.9400
  65   2.0000      -0.324832        -8.8391
  66   2.0000      -0.300163        -8.1678
  67   0.0000       0.031332         0.8526
  68   0.0000       0.075958         2.0669
  69   0.0000       0.114268         3.1094
  70   0.0000       0.117707         3.2030
  71   0.0000       0.133187         3.6242

MULLIKEN ATOMIC CHARGES
-----------------------
   0 S :    0.102020
   1 C :   -0.113371
   2 C :   -0.089015
   3 C :    0.012841
   4 C :   -0.164747
   5 H :    0.026134
   6 C :    0.121578
   7 H :    0.010042
   8 H :    0.006294
   9 C :   -0.094125
  10 H :    0.036340
  11 H :    0.034853
  12 C :   -0.066966
  13 H :    0.033394
  14 H :    0.042679
  15 H :    0.033856
  16 S :    0.091508
  17 C :   -0.078356
  18 C :   -0.019247
  19 C :   -0.046084
  20 C :   -0.119030
  21 H :    0.025758
  22 C :    0.037891
  23 H :    0.042974
  24 H :    0.043380
  25 C :   -0.104913
  26 H :    0.044949
  27 H :    0.036907
  28 C :   -0.052518
  29 H :    0.034072
  30 H :    0.017713
  31 H :    0.034183
  32 H :    0.042871
  33 H :    0.036134
Sum of atomic charges:    0.0000000

LOEWDIN ATOMIC CHARGES
----------------------
   0 S :    0.408371
   1 C :   -0.188882
   2 C :   -0.057450
   3 C :   -0.061291
   4 C :   -0.210994
   5 H :    0.038539
   6 C :   -0.021415
   7 H :    0.023698
   8 H :    0.026497
   9 C :   -0.043056
  10 H :    0.027364
  11 H :    0.025221
  12 C :   -0.070623
  13 H :    0.024937
  14 H :    0.029741
  15 H :    0.026666
  16 S :    0.383947
  17 C :   -0.148690
  18 C :   -0.060708
  19 C :   -0.058117
  20 C :   -0.210155
  21 H :    0.031274
  22 C :   -0.038653
  23 H :    0.034197
  24 H :    0.032051
  25 C :   -0.042928
  26 H :    0.027673
  27 H :    0.025699
  28 C :   -0.074316
  29 H :    0.025908
  30 H :    0.021950
  31 H :    0.030486
  32 H :    0.029136
  33 H :    0.013924

  Mayer bond orders larger than 0.100000
B(  0-S ,  1-C ) :   1.1183 B(  0-S ,  4-C ) :   1.1395 B(  1-C ,  2-C ) :   1.6598
B(  1-C , 32-H ) :   0.9695 B(  2-C ,  3-C ) :   1.1808 B(  2-C ,  6-C ) :   1.0280
B(  3-C ,  4-C ) :   1.6366 B(  3-C ,  5-H ) :   0.9907 B(  4-C , 20-C ) :   1.0153
B(  6-C ,  7-H ) :   0.9317 B(  6-C ,  8-H ) :   0.9470 B(  6-C ,  9-C ) :   1.0376
B(  9-C , 10-H ) :   0.9527 B(  9-C , 11-H ) :   0.9629 B(  9-C , 12-C ) :   1.0837
B( 12-C , 13-H ) :   0.9774 B( 12-C , 14-H ) :   0.9748 B( 12-C , 15-H ) :   0.9737
B( 16-S , 17-C ) :   1.1328 B( 16-S , 20-C ) :   1.1459 B( 17-C , 18-C ) :   1.6142
B( 17-C , 33-H ) :   0.9817 B( 18-C , 19-C ) :   1.2267 B( 18-C , 21-H ) :   0.9892
B( 19-C , 20-C ) :   1.5862 B( 19-C , 22-C ) :   1.0417 B( 22-C , 23-H ) :   0.9395
B( 22-C , 24-H ) :   0.9367 B( 22-C , 25-C ) :   1.0581 B( 25-C , 26-H ) :   0.9543
B( 25-C , 27-H ) :   0.9593 B( 25-C , 28-C ) :   1.0837 B( 28-C , 29-H ) :   0.9745
B( 28-C , 30-H ) :   0.9726 B( 28-C , 31-H ) :   0.9732

Dispersion correction           -0.013557183
FINAL SINGLE POINT ENERGY     -1339.865964747901

DIPOLE MOMENT
-------------
                                X             Y             Z
Electronic contribution:     25.69554      -4.66105      -7.14054
Nuclear contribution   :    -26.34872       4.63651       7.40442
                        -----------------------------------------
Total Dipole Moment    :     -0.65317      -0.02454       0.26388
                        -----------------------------------------
Magnitude (a.u.)       :      0.70489
Magnitude (Debye)      :      1.79168

Rotational constants in cm-1:     0.016717     0.007931     0.006568
Rotational constants in MHz :   501.177178   237.768126   196.893807

                             ****ORCA TERMINATED NORMALLY****
TOTAL RUN TIME: 0 days 0 hours 0 minutes 21 seconds 54 msec
