                         Program Version 4.2.1 -  RELEASE  -
|  1> ! wB97X-D3 SP def2-SVP
|  2> %pal
|  3> nprocs 24
|  4> end
|  5>
|  6> * xyz 0 1
|  7> S 	 9.12252 	 -16.4622 	 -115
|  8> C 	 7.98651 	 -16.5457 	 -116.349
|  9> C 	 7.51872 	 -17.8588 	 -116.493
| 10> C 	 7.87705 	 -18.7453 	 -115.428
| 11> C 	 8.63162 	 -18.1116 	 -114.487
| 12> H 	 7.62076 	 -19.772 	 -115.218
| 13> C 	 6.70678 	 -18.3995 	 -117.658
| 14> H 	 6.04646 	 -17.5662 	 -117.966
| 15> H 	 6.02679 	 -19.1941 	 -117.264
| 16> C 	 7.46456 	 -19.0502 	 -118.827
| 17> H 	 8.1652 	 -18.3075 	 -119.317
| 18> H 	 8.12482 	 -19.7915 	 -118.387
| 19> C 	 6.52778 	 -19.818 	 -119.845
| 20> H 	 6.99196 	 -20.2342 	 -120.728
| 21> H 	 6.07767 	 -20.7306 	 -119.338
| 22> H 	 5.65069 	 -19.3178 	 -120.205
| 23> S 	 9.9111 	 -20.2205 	 -113.468
| 24> C 	 10.2869 	 -20.3025 	 -111.759
| 25> C 	 9.94183 	 -19.1406 	 -111.112
| 26> C 	 9.23586 	 -18.1672 	 -111.966
| 27> C 	 9.14253 	 -18.6645 	 -113.262
| 28> H 	 10.1573 	 -19.0631 	 -110.038
| 29> C 	 8.73193 	 -16.8641 	 -111.485
| 30> H 	 9.05266 	 -16.1039 	 -112.208
| 31> H 	 9.1206 	 -16.5579 	 -110.486
| 32> C 	 7.18244 	 -16.7658 	 -111.2
| 33> H 	 6.90633 	 -15.8205 	 -110.662
| 34> H 	 7.03992 	 -17.588 	 -110.523
| 35> C 	 6.23248 	 -16.8375 	 -112.427
| 36> H 	 6.47327 	 -17.6731 	 -113.067
| 37> H 	 6.24674 	 -15.9165 	 -113.039
| 38> H 	 5.25659 	 -16.9704 	 -111.97
| 39> H 	 7.62134 	 -15.7599 	 -117.039
| 40> H 	 10.6828 	 -21.1608 	 -111.215
| 41> *
| 42>
| 43>                          ****END OF INPUT****

CARTESIAN COORDINATES (ANGSTROEM)
---------------------------------
  S      9.122520  -16.462200  -115.000000
  C      7.986510  -16.545700  -116.349000
  C      7.518720  -17.858800  -116.493000
  C      7.877050  -18.745300  -115.428000
  C      8.631620  -18.111600  -114.487000
  H      7.620760  -19.772000  -115.218000
  C      6.706780  -18.399500  -117.658000
  H      6.046460  -17.566200  -117.966000
  H      6.026790  -19.194100  -117.264000
  C      7.464560  -19.050200  -118.827000
  H      8.165200  -18.307500  -119.317000
  H      8.124820  -19.791500  -118.387000
  C      6.527780  -19.818000  -119.845000
  H      6.991960  -20.234200  -120.728000
  H      6.077670  -20.730600  -119.338000
  H      5.650690  -19.317800  -120.205000
  S      9.911100  -20.220500  -113.468000
  C     10.286900  -20.302500  -111.759000
  C      9.941830  -19.140600  -111.112000
  C      9.235860  -18.167200  -111.966000
  C      9.142530  -18.664500  -113.262000
  H     10.157300  -19.063100  -110.038000
  C      8.731930  -16.864100  -111.485000
  H      9.052660  -16.103900  -112.208000
  H      9.120600  -16.557900  -110.486000
  C      7.182440  -16.765800  -111.200000
  H      6.906330  -15.820500  -110.662000
  H      7.039920  -17.588000  -110.523000
  C      6.232480  -16.837500  -112.427000
  H      6.473270  -17.673100  -113.067000
  H      6.246740  -15.916500  -113.039000
  H      5.256590  -16.970400  -111.970000
  H      7.621340  -15.759900  -117.039000
  H     10.682800  -21.160800  -111.215000

 Total Charge           Charge          ....    0
 Multiplicity           Mult            ....    1
 Number of Electrons    NEL             ....  134
 Basis Dimension        Dim             ....  322

ORBITAL ENERGIES
----------------

  NO   OCC          E(Eh)            E(eV)
   0   2.0000     -88.969429     -2420.9813
   1   2.0000     -88.967074     -2420.9172
   2   2.0000     -10.329880      -281.0903
   3   2.0000     -10.325601      -280.9739
   4   2.0000     -10.321365      -280.8586
   5   2.0000     -10.318573      -280.7826
   6   2.0000     -10.309895      -280.5465
   7   2.0000     -10.305454      -280.4256
   8   2.0000     -10.299816      -280.2722
   9   2.0000     -10.296873      -280.1922
  10   2.0000     -10.295775      -280.1623
  11   2.0000     -10.294155      -280.1182
  12   2.0000     -10.291098      -280.0350
  13   2.0000     -10.286686      -279.9150
  14   2.0000     -10.284255      -279.8488
  15   2.0000     -10.268292      -279.4144
  16   2.0000      -8.082726      -219.9422
  17   2.0000      -8.081795      -219.9168
  18   2.0000      -6.041406      -164.3950
  19   2.0000      -6.040367      -164.3667
  20   2.0000      -6.037539      -164.2898
  21   2.0000      -6.036332      -164.2569
  22   2.0000      -6.033279      -164.1739
  23   2.0000      -6.032461      -164.1516
  24   2.0000      -1.007150       -27.4059
  25   2.0000      -0.980233       -26.6735
  26   2.0000      -0.904948       -24.6249
  27   2.0000      -0.901863       -24.5409
  28   2.0000      -0.871509       -23.7150
  29   2.0000      -0.848068       -23.0771
  30   2.0000      -0.841323       -22.8936
  31   2.0000      -0.814621       -22.1670
  32   2.0000      -0.781896       -21.2765
  33   2.0000      -0.768113       -20.9014
  34   2.0000      -0.707077       -19.2406
  35   2.0000      -0.702031       -19.1032
  36   2.0000      -0.687147       -18.6982
  37   2.0000      -0.663876       -18.0650
  38   2.0000      -0.637188       -17.3388
  39   2.0000      -0.614695       -16.7267
  40   2.0000      -0.590708       -16.0740
  41   2.0000      -0.565848       -15.3975
  42   2.0000      -0.551936       -15.0189
  43   2.0000      -0.546295       -14.8654
  44   2.0000      -0.538833       -14.6624
  45   2.0000      -0.518986       -14.1223
  46   2.0000      -0.513887       -13.9836
  47   2.0000      -0.511144       -13.9089
  48   2.0000      -0.505985       -13.7685
  49   2.0000      -0.496161       -13.5012
  50   2.0000      -0.491272       -13.3682
  51   2.0000      -0.479037       -13.0353
  52   2.0000      -0.471393       -12.8273
  53   2.0000      -0.463489       -12.6122
  54   2.0000      -0.459376       -12.5002
  55   2.0000      -0.446303       -12.1445
  56   2.0000      -0.442118       -12.0306
  57   2.0000      -0.437556       -11.9065
  58   2.0000      -0.427404       -11.6302
  59   2.0000      -0.422788       -11.5046
  60   2.0000      -0.421183       -11.4610
  61   2.0000      -0.415561       -11.3080
  62   2.0000      -0.406744       -11.0681
  63   2.0000      -0.346288        -9.4230
  64   2.0000      -0.332573        -9.0498
  65   2.0000      -0.327962        -8.9243
  66   2.0000      -0.293104        -7.9758
  67   0.0000       0.021723         0.5911
  68   0.0000       0.075163         2.0453
  69   0.0000       0.098345         2.6761
  70   0.0000       0.113800         3.0967
  71   0.0000       0.121104         3.2954

MULLIKEN ATOMIC CHARGES
-----------------------
   0 S :    0.112553
   1 C :   -0.121560
   2 C :   -0.085130
   3 C :    0.025888
   4 C :   -0.146187
   5 H :    0.017730
   6 C :    0.032956
   7 H :    0.026131
   8 H :    0.024192
   9 C :   -0.049490
  10 H :    0.039512
  11 H :    0.028258
  12 C :   -0.063185
  13 H :    0.036066
  14 H :    0.028842
  15 H :    0.027285
  16 S :    0.108498
  17 C :   -0.092191
  18 C :   -0.047340
  19 C :   -0.022613
  20 C :   -0.172720
  21 H :    0.028543
  22 C :    0.056094
  23 H :    0.030555
  24 H :    0.024430
  25 C :   -0.092857
  26 H :    0.036999
  27 H :    0.021433
  28 C :   -0.040875
  29 H :    0.040652
  30 H :    0.037877
  31 H :    0.029840
  32 H :    0.059025
  33 H :    0.060790
Sum of atomic charges:    0.0000000

LOEWDIN ATOMIC CHARGES
----------------------
   0 S :    0.388346
   1 C :   -0.202360
   2 C :   -0.059539
   3 C :   -0.066490
   4 C :   -0.174198
   5 H :    0.032512
   6 C :   -0.039964
   7 H :    0.029525
   8 H :    0.032153
   9 C :   -0.040210
  10 H :    0.029186
  11 H :    0.025445
  12 C :   -0.073873
  13 H :    0.026349
  14 H :    0.031909
  15 H :    0.020469
  16 S :    0.410149
  17 C :   -0.189358
  18 C :   -0.069421
  19 C :   -0.052646
  20 C :   -0.202297
  21 H :    0.035272
  22 C :   -0.044526
  23 H :    0.022809
  24 H :    0.036894
  25 C :   -0.035659
  26 H :    0.028039
  27 H :    0.018591
  28 C :   -0.067963
  29 H :    0.023370
  30 H :    0.027569
  31 H :    0.026101
  32 H :    0.039538
  33 H :    0.034278

  Mayer bond orders larger than 0.100000
B(  0-S ,  1-C ) :   1.1158 B(  0-S ,  4-C ) :   1.1261 B(  1-C ,  2-C ) :   1.6326
B(  1-C , 32-H ) :   0.9631 B(  2-C ,  3-C ) :   1.1975 B(  2-C ,  6-C ) :   1.0330
B(  3-C ,  4-C ) :   1.5908 B(  3-C ,  5-H ) :   0.9958 B(  4-C , 20-C ) :   1.0645
B(  6-C ,  7-H ) :   0.9373 B(  6-C ,  8-H ) :   0.9435 B(  6-C ,  9-C ) :   1.0562
B(  9-C , 10-H ) :   0.9572 B(  9-C , 11-H ) :   0.9556 B(  9-C , 12-C ) :   1.0621
B( 12-C , 13-H ) :   0.9779 B( 12-C , 14-H ) :   0.9739 B( 12-C , 15-H ) :   0.9804
B( 16-S , 17-C ) :   1.1351 B( 16-S , 20-C ) :   1.1389 B( 17-C , 18-C ) :   1.6474
B( 17-C , 33-H ) :   0.9642 B( 18-C , 19-C ) :   1.2092 B( 18-C , 21-H ) :   0.9837
B( 19-C , 20-C ) :   1.5777 B( 19-C , 22-C ) :   1.0579 B( 22-C , 23-H ) :   0.9286
B( 22-C , 24-H ) :   0.9331 B( 22-C , 25-C ) :   1.0566 B( 25-C , 26-H ) :   0.9589
B( 25-C , 27-H ) :   0.9556 B( 25-C , 28-C ) :   1.0802 B( 28-C , 29-H ) :   0.9719
B( 28-C , 30-H ) :   0.9759 B( 28-C , 31-H ) :   0.9720

Dispersion correction           -0.015371532
FINAL SINGLE POINT ENERGY     -1339.883368598603

DIPOLE MOMENT
-------------
                                X             Y             Z
Electronic contribution:     16.85657      -1.17997       8.48070
Nuclear contribution   :    -17.15497       1.06039      -8.40452
                        -----------------------------------------
Total Dipole Moment    :     -0.29839      -0.11959       0.07618
                        -----------------------------------------
Magnitude (a.u.)       :      0.33037
Magnitude (Debye)      :      0.83972

Rotational constants in cm-1:     0.021728     0.008336     0.006984
Rotational constants in MHz :   651.397420   249.902375   209.377316

                             ****ORCA TERMINATED NORMALLY****
TOTAL RUN TIME: 0 days 0 hours 0 minutes 23 seconds 77 msec
