                         Program Version 4.2.1 -  RELEASE  -
|  1> ! wB97X-D3 SP def2-SVP
|  2> %pal
|  3> nprocs 24
|  4> end
|  5>
|  6> * xyz 0 1
|  7> S 	 -45.7984 	 11.3062 	 31.9545
|  8> C 	 -47.125 	 10.8308 	 30.8543
|  9> C 	 -47.6175 	 11.9265 	 30.2127
| 10> C 	 -47.0121 	 13.1499 	 30.5895
| 11> C 	 -46.0292 	 13.0264 	 31.5339
| 12> H 	 -47.2528 	 14.1069 	 30.1629
| 13> C 	 -48.5834 	 11.8345 	 29.0925
| 14> H 	 -48.4449 	 10.8568 	 28.743
| 15> H 	 -48.2806 	 12.3705 	 28.1399
| 16> C 	 -50.0092 	 12.1128 	 29.4232
| 17> H 	 -50.535 	 11.9593 	 28.4673
| 18> H 	 -50.3154 	 11.3559 	 30.1794
| 19> C 	 -50.2467 	 13.5308 	 29.91
| 20> H 	 -49.9393 	 13.7389 	 30.9551
| 21> H 	 -49.6313 	 14.2218 	 29.3235
| 22> H 	 -51.3318 	 13.7584 	 29.82
| 23> S 	 -43.4152 	 13.6825 	 31.5572
| 24> C 	 -42.9452 	 15.2714 	 32.0391
| 25> C 	 -43.9555 	 16.0167 	 32.5337
| 26> C 	 -45.2004 	 15.3158 	 32.4494
| 27> C 	 -45.053 	 14.0386 	 31.8596
| 28> H 	 -43.8056 	 17.0439 	 32.8989
| 29> C 	 -46.5284 	 15.9657 	 32.7795
| 30> H 	 -46.4475 	 16.0297 	 33.8506
| 31> H 	 -47.3186 	 15.278 	 32.5978
| 32> C 	 -46.8437 	 17.3127 	 32.1136
| 33> H 	 -46.1796 	 18.0626 	 32.5366
| 34> H 	 -47.7976 	 17.6124 	 32.4939
| 35> C 	 -47.0857 	 17.2541 	 30.6125
| 36> H 	 -46.1047 	 17.0954 	 30.1645
| 37> H 	 -47.4752 	 18.2252 	 30.2763
| 38> H 	 -47.6961 	 16.4032 	 30.2459
| 39> H 	 -47.544 	 9.82518 	 30.7952
| 40> H 	 -41.9068 	 15.5947 	 32.0302
| 41> *
| 42>
| 43>                          ****END OF INPUT****

CARTESIAN COORDINATES (ANGSTROEM)
---------------------------------
  S    -45.798400   11.306200   31.954500
  C    -47.125000   10.830800   30.854300
  C    -47.617500   11.926500   30.212700
  C    -47.012100   13.149900   30.589500
  C    -46.029200   13.026400   31.533900
  H    -47.252800   14.106900   30.162900
  C    -48.583400   11.834500   29.092500
  H    -48.444900   10.856800   28.743000
  H    -48.280600   12.370500   28.139900
  C    -50.009200   12.112800   29.423200
  H    -50.535000   11.959300   28.467300
  H    -50.315400   11.355900   30.179400
  C    -50.246700   13.530800   29.910000
  H    -49.939300   13.738900   30.955100
  H    -49.631300   14.221800   29.323500
  H    -51.331800   13.758400   29.820000
  S    -43.415200   13.682500   31.557200
  C    -42.945200   15.271400   32.039100
  C    -43.955500   16.016700   32.533700
  C    -45.200400   15.315800   32.449400
  C    -45.053000   14.038600   31.859600
  H    -43.805600   17.043900   32.898900
  C    -46.528400   15.965700   32.779500
  H    -46.447500   16.029700   33.850600
  H    -47.318600   15.278000   32.597800
  C    -46.843700   17.312700   32.113600
  H    -46.179600   18.062600   32.536600
  H    -47.797600   17.612400   32.493900
  C    -47.085700   17.254100   30.612500
  H    -46.104700   17.095400   30.164500
  H    -47.475200   18.225200   30.276300
  H    -47.696100   16.403200   30.245900
  H    -47.544000    9.825180   30.795200
  H    -41.906800   15.594700   32.030200

 Total Charge           Charge          ....    0
 Multiplicity           Mult            ....    1
 Number of Electrons    NEL             ....  134
 Basis Dimension        Dim             ....  322

ORBITAL ENERGIES
----------------

  NO   OCC          E(Eh)            E(eV)
   0   2.0000     -88.964870     -2420.8572
   1   2.0000     -88.963196     -2420.8116
   2   2.0000     -10.328797      -281.0609
   3   2.0000     -10.320434      -280.8333
   4   2.0000     -10.316496      -280.7261
   5   2.0000     -10.310970      -280.5758
   6   2.0000     -10.301417      -280.3158
   7   2.0000     -10.294627      -280.1310
   8   2.0000     -10.291808      -280.0543
   9   2.0000     -10.289831      -280.0005
  10   2.0000     -10.286345      -279.9057
  11   2.0000     -10.284519      -279.8560
  12   2.0000     -10.283404      -279.8257
  13   2.0000     -10.282543      -279.8022
  14   2.0000     -10.281808      -279.7822
  15   2.0000     -10.281760      -279.7809
  16   2.0000      -8.079386      -219.8513
  17   2.0000      -8.078610      -219.8302
  18   2.0000      -6.037741      -164.2953
  19   2.0000      -6.037305      -164.2834
  20   2.0000      -6.033690      -164.1851
  21   2.0000      -6.033284      -164.1740
  22   2.0000      -6.030226      -164.0908
  23   2.0000      -6.029208      -164.0631
  24   2.0000      -1.010765       -27.5043
  25   2.0000      -0.986508       -26.8442
  26   2.0000      -0.920606       -25.0510
  27   2.0000      -0.911597       -24.8058
  28   2.0000      -0.873679       -23.7740
  29   2.0000      -0.851134       -23.1605
  30   2.0000      -0.842855       -22.9353
  31   2.0000      -0.820827       -22.3358
  32   2.0000      -0.786268       -21.3954
  33   2.0000      -0.772415       -21.0185
  34   2.0000      -0.709723       -19.3125
  35   2.0000      -0.698607       -19.0101
  36   2.0000      -0.695662       -18.9299
  37   2.0000      -0.655609       -17.8400
  38   2.0000      -0.640126       -17.4187
  39   2.0000      -0.620680       -16.8896
  40   2.0000      -0.597337       -16.2544
  41   2.0000      -0.579742       -15.7756
  42   2.0000      -0.556900       -15.1540
  43   2.0000      -0.550801       -14.9881
  44   2.0000      -0.547248       -14.8914
  45   2.0000      -0.538293       -14.6477
  46   2.0000      -0.515413       -14.0251
  47   2.0000      -0.512038       -13.9333
  48   2.0000      -0.508362       -13.8332
  49   2.0000      -0.496375       -13.5071
  50   2.0000      -0.492507       -13.4018
  51   2.0000      -0.479286       -13.0420
  52   2.0000      -0.468929       -12.7602
  53   2.0000      -0.466385       -12.6910
  54   2.0000      -0.463924       -12.6240
  55   2.0000      -0.447179       -12.1684
  56   2.0000      -0.446065       -12.1381
  57   2.0000      -0.439608       -11.9623
  58   2.0000      -0.436639       -11.8816
  59   2.0000      -0.424947       -11.5634
  60   2.0000      -0.418257       -11.3814
  61   2.0000      -0.413602       -11.2547
  62   2.0000      -0.404624       -11.0104
  63   2.0000      -0.350723        -9.5437
  64   2.0000      -0.330790        -9.0013
  65   2.0000      -0.328203        -8.9309
  66   2.0000      -0.290887        -7.9154
  67   0.0000       0.034740         0.9453
  68   0.0000       0.068236         1.8568
  69   0.0000       0.112987         3.0745
  70   0.0000       0.124507         3.3880
  71   0.0000       0.127661         3.4738

MULLIKEN ATOMIC CHARGES
-----------------------
   0 S :    0.089590
   1 C :   -0.132992
   2 C :   -0.071475
   3 C :    0.056465
   4 C :   -0.138720
   5 H :   -0.018925
   6 C :    0.043807
   7 H :   -0.006969
   8 H :    0.035502
   9 C :   -0.041704
  10 H :    0.032993
  11 H :    0.031470
  12 C :   -0.069737
  13 H :    0.045463
  14 H :    0.022647
  15 H :    0.045138
  16 S :    0.120738
  17 C :   -0.093414
  18 C :   -0.036302
  19 C :   -0.063554
  20 C :   -0.167309
  21 H :    0.026918
  22 C :    0.086501
  23 H :    0.028372
  24 H :    0.005585
  25 C :   -0.045673
  26 H :    0.024428
  27 H :    0.013844
  28 C :   -0.052844
  29 H :    0.036311
  30 H :    0.040867
  31 H :    0.042450
  32 H :    0.056299
  33 H :    0.054229
Sum of atomic charges:    0.0000000

LOEWDIN ATOMIC CHARGES
----------------------
   0 S :    0.368323
   1 C :   -0.181434
   2 C :   -0.066300
   3 C :   -0.054659
   4 C :   -0.178830
   5 H :    0.025520
   6 C :   -0.042859
   7 H :    0.022512
   8 H :    0.037822
   9 C :   -0.041908
  10 H :    0.028705
  11 H :    0.028201
  12 C :   -0.071286
  13 H :    0.028951
  14 H :    0.020527
  15 H :    0.032256
  16 S :    0.435174
  17 C :   -0.190104
  18 C :   -0.077025
  19 C :   -0.054667
  20 C :   -0.221378
  21 H :    0.037709
  22 C :   -0.031028
  23 H :    0.035231
  24 H :    0.022797
  25 C :   -0.039954
  26 H :    0.023461
  27 H :    0.021981
  28 C :   -0.065181
  29 H :    0.026753
  30 H :    0.030509
  31 H :    0.028211
  32 H :    0.033225
  33 H :    0.028744

  Mayer bond orders larger than 0.100000
B(  0-S ,  1-C ) :   1.1177 B(  0-S ,  4-C ) :   1.1360 B(  1-C ,  2-C ) :   1.6333
B(  1-C , 32-H ) :   0.9632 B(  2-C ,  3-C ) :   1.2343 B(  2-C ,  6-C ) :   1.0145
B(  3-C ,  4-C ) :   1.5766 B(  3-C ,  5-H ) :   0.9959 B(  4-C , 20-C ) :   1.0395
B(  6-C ,  7-H ) :   0.9292 B(  6-C ,  8-H ) :   0.9392 B(  6-C ,  9-C ) :   1.0898
B(  9-C , 10-H ) :   0.9502 B(  9-C , 11-H ) :   0.9482 B(  9-C , 12-C ) :   1.0869
B( 12-C , 13-H ) :   0.9687 B( 12-C , 14-H ) :   0.9710 B( 12-C , 15-H ) :   0.9724
B( 16-S , 17-C ) :   1.1650 B( 16-S , 20-C ) :   1.1571 B( 17-C , 18-C ) :   1.6086
B( 17-C , 33-H ) :   0.9654 B( 18-C , 19-C ) :   1.2421 B( 18-C , 21-H ) :   0.9905
B( 19-C , 20-C ) :   1.5711 B( 19-C , 22-C ) :   1.0403 B( 22-C , 23-H ) :   0.9220
B( 22-C , 24-H ) :   0.9320 B( 22-C , 25-C ) :   1.0887 B( 25-C , 26-H ) :   0.9519
B( 25-C , 27-H ) :   0.9496 B( 25-C , 28-C ) :   1.0656 B( 28-C , 29-H ) :   0.9768
B( 28-C , 30-H ) :   0.9711 B( 28-C , 31-H ) :   0.9675

Dispersion correction           -0.015666765
FINAL SINGLE POINT ENERGY     -1339.885441571836

DIPOLE MOMENT
-------------
                                X             Y             Z
Electronic contribution:     23.51581     -14.91238       8.43874
Nuclear contribution   :    -23.94148      15.33824      -8.67747
                        -----------------------------------------
Total Dipole Moment    :     -0.42567       0.42587      -0.23873
                        -----------------------------------------
Magnitude (a.u.)       :      0.64773
Magnitude (Debye)      :      1.64639

Rotational constants in cm-1:     0.018416     0.010378     0.007278
Rotational constants in MHz :   552.109774   311.134474   218.175310

                             ****ORCA TERMINATED NORMALLY****
TOTAL RUN TIME: 0 days 0 hours 0 minutes 22 seconds 997 msec
