                         Program Version 4.2.1 -  RELEASE  -
|  1> ! wB97X-D3 SP def2-SVP
|  2> %pal
|  3> nprocs 24
|  4> end
|  5>
|  6> * xyz 0 1
|  7> S 	 -87.7619 	 -33.6273 	 -68.205
|  8> C 	 -87.4135 	 -34.1035 	 -69.8085
|  9> C 	 -88.5082 	 -33.9716 	 -70.6288
| 10> C 	 -89.6568 	 -33.5153 	 -69.9312
| 11> C 	 -89.3873 	 -33.1254 	 -68.5916
| 12> H 	 -90.6244 	 -33.288 	 -70.4388
| 13> C 	 -88.4528 	 -34.1706 	 -72.1306
| 14> H 	 -89.2358 	 -33.5273 	 -72.47
| 15> H 	 -88.6958 	 -35.2053 	 -72.4347
| 16> C 	 -87.1417 	 -33.6745 	 -72.9378
| 17> H 	 -87.0541 	 -32.6342 	 -72.8974
| 18> H 	 -86.3068 	 -34.1722 	 -72.4278
| 19> C 	 -87.2299 	 -34.018 	 -74.5088
| 20> H 	 -87.8712 	 -33.3063 	 -75.0128
| 21> H 	 -86.2703 	 -33.8517 	 -74.9723
| 22> H 	 -87.4847 	 -35.0125 	 -74.7085
| 23> S 	 -90.8357 	 -33.7153 	 -66.4225
| 24> C 	 -91.8639 	 -32.5053 	 -65.6756
| 25> C 	 -91.7746 	 -31.2754 	 -66.3458
| 26> C 	 -91.0854 	 -31.4442 	 -67.6142
| 27> C 	 -90.3234 	 -32.6275 	 -67.6661
| 28> H 	 -92.3708 	 -30.4167 	 -66.0624
| 29> C 	 -91.113 	 -30.3911 	 -68.7397
| 30> H 	 -92.2247 	 -30.2428 	 -68.9348
| 31> H 	 -90.8731 	 -31.0258 	 -69.5997
| 32> C 	 -90.3758 	 -29.0726 	 -68.7101
| 33> H 	 -90.689 	 -28.5783 	 -67.861
| 34> H 	 -90.6383 	 -28.5692 	 -69.6129
| 35> C 	 -88.8581 	 -29.1925 	 -68.7105
| 36> H 	 -88.57 	 -29.755 	 -69.6324
| 37> H 	 -88.6824 	 -29.7866 	 -67.8236
| 38> H 	 -88.4002 	 -28.2207 	 -68.6742
| 39> H 	 -86.4547 	 -34.4513 	 -70.1285
| 40> H 	 -92.4332 	 -32.5133 	 -64.779
| 41> *
| 42>
| 43>                          ****END OF INPUT****

CARTESIAN COORDINATES (ANGSTROEM)
---------------------------------
  S    -87.761900  -33.627300  -68.205000
  C    -87.413500  -34.103500  -69.808500
  C    -88.508200  -33.971600  -70.628800
  C    -89.656800  -33.515300  -69.931200
  C    -89.387300  -33.125400  -68.591600
  H    -90.624400  -33.288000  -70.438800
  C    -88.452800  -34.170600  -72.130600
  H    -89.235800  -33.527300  -72.470000
  H    -88.695800  -35.205300  -72.434700
  C    -87.141700  -33.674500  -72.937800
  H    -87.054100  -32.634200  -72.897400
  H    -86.306800  -34.172200  -72.427800
  C    -87.229900  -34.018000  -74.508800
  H    -87.871200  -33.306300  -75.012800
  H    -86.270300  -33.851700  -74.972300
  H    -87.484700  -35.012500  -74.708500
  S    -90.835700  -33.715300  -66.422500
  C    -91.863900  -32.505300  -65.675600
  C    -91.774600  -31.275400  -66.345800
  C    -91.085400  -31.444200  -67.614200
  C    -90.323400  -32.627500  -67.666100
  H    -92.370800  -30.416700  -66.062400
  C    -91.113000  -30.391100  -68.739700
  H    -92.224700  -30.242800  -68.934800
  H    -90.873100  -31.025800  -69.599700
  C    -90.375800  -29.072600  -68.710100
  H    -90.689000  -28.578300  -67.861000
  H    -90.638300  -28.569200  -69.612900
  C    -88.858100  -29.192500  -68.710500
  H    -88.570000  -29.755000  -69.632400
  H    -88.682400  -29.786600  -67.823600
  H    -88.400200  -28.220700  -68.674200
  H    -86.454700  -34.451300  -70.128500
  H    -92.433200  -32.513300  -64.779000

 Total Charge           Charge          ....    0
 Multiplicity           Mult            ....    1
 Number of Electrons    NEL             ....  134
 Basis Dimension        Dim             ....  322

ORBITAL ENERGIES
----------------

  NO   OCC          E(Eh)            E(eV)
   0   2.0000     -88.967976     -2420.9417
   1   2.0000     -88.966513     -2420.9019
   2   2.0000     -10.328788      -281.0606
   3   2.0000     -10.322151      -280.8800
   4   2.0000     -10.317036      -280.7408
   5   2.0000     -10.309139      -280.5259
   6   2.0000     -10.308295      -280.5030
   7   2.0000     -10.300043      -280.2784
   8   2.0000     -10.298297      -280.2309
   9   2.0000     -10.296676      -280.1868
  10   2.0000     -10.295958      -280.1673
  11   2.0000     -10.294366      -280.1239
  12   2.0000     -10.291392      -280.0430
  13   2.0000     -10.279500      -279.7194
  14   2.0000     -10.273556      -279.5577
  15   2.0000     -10.269777      -279.4548
  16   2.0000      -8.083272      -219.9570
  17   2.0000      -8.081285      -219.9029
  18   2.0000      -6.041607      -164.4005
  19   2.0000      -6.039879      -164.3535
  20   2.0000      -6.037507      -164.2889
  21   2.0000      -6.035680      -164.2392
  22   2.0000      -6.034368      -164.2035
  23   2.0000      -6.032033      -164.1400
  24   2.0000      -1.010049       -27.4848
  25   2.0000      -0.984285       -26.7838
  26   2.0000      -0.909301       -24.7433
  27   2.0000      -0.901757       -24.5381
  28   2.0000      -0.871599       -23.7174
  29   2.0000      -0.850578       -23.1454
  30   2.0000      -0.845931       -23.0190
  31   2.0000      -0.811456       -22.0808
  32   2.0000      -0.781744       -21.2723
  33   2.0000      -0.769216       -20.9314
  34   2.0000      -0.713779       -19.4229
  35   2.0000      -0.707440       -19.2504
  36   2.0000      -0.693231       -18.8638
  37   2.0000      -0.657697       -17.8968
  38   2.0000      -0.641305       -17.4508
  39   2.0000      -0.611598       -16.6424
  40   2.0000      -0.591267       -16.0892
  41   2.0000      -0.570842       -15.5334
  42   2.0000      -0.565670       -15.3927
  43   2.0000      -0.552690       -15.0394
  44   2.0000      -0.546982       -14.8842
  45   2.0000      -0.520243       -14.1565
  46   2.0000      -0.517134       -14.0719
  47   2.0000      -0.509281       -13.8582
  48   2.0000      -0.506231       -13.7753
  49   2.0000      -0.503154       -13.6915
  50   2.0000      -0.491300       -13.3690
  51   2.0000      -0.478089       -13.0095
  52   2.0000      -0.469248       -12.7689
  53   2.0000      -0.467073       -12.7097
  54   2.0000      -0.458214       -12.4686
  55   2.0000      -0.447921       -12.1886
  56   2.0000      -0.444350       -12.0914
  57   2.0000      -0.441151       -12.0043
  58   2.0000      -0.436803       -11.8860
  59   2.0000      -0.426296       -11.6001
  60   2.0000      -0.417364       -11.3571
  61   2.0000      -0.411770       -11.2048
  62   2.0000      -0.406376       -11.0581
  63   2.0000      -0.341286        -9.2869
  64   2.0000      -0.328297        -8.9334
  65   2.0000      -0.326277        -8.8784
  66   2.0000      -0.294812        -8.0222
  67   0.0000       0.033484         0.9111
  68   0.0000       0.059650         1.6231
  69   0.0000       0.110229         2.9995
  70   0.0000       0.125572         3.4170
  71   0.0000       0.129192         3.5155

MULLIKEN ATOMIC CHARGES
-----------------------
   0 S :    0.135539
   1 C :   -0.121295
   2 C :   -0.078896
   3 C :    0.029432
   4 C :   -0.192053
   5 H :    0.037754
   6 C :    0.057005
   7 H :    0.012006
   8 H :    0.046212
   9 C :   -0.087781
  10 H :    0.029771
  11 H :    0.036722
  12 C :   -0.037187
  13 H :    0.033425
  14 H :    0.027372
  15 H :    0.025544
  16 S :    0.126838
  17 C :   -0.076465
  18 C :   -0.036997
  19 C :   -0.085507
  20 C :   -0.157534
  21 H :    0.025593
  22 C :    0.035455
  23 H :    0.034161
  24 H :   -0.005131
  25 C :    0.011600
  26 H :    0.007967
  27 H :    0.020464
  28 C :   -0.047863
  29 H :    0.036165
  30 H :    0.034438
  31 H :    0.036685
  32 H :    0.040415
  33 H :    0.046147
Sum of atomic charges:    0.0000000

LOEWDIN ATOMIC CHARGES
----------------------
   0 S :    0.438534
   1 C :   -0.205086
   2 C :   -0.073647
   3 C :   -0.061047
   4 C :   -0.212026
   5 H :    0.036946
   6 C :   -0.032461
   7 H :    0.024243
   8 H :    0.033772
   9 C :   -0.023854
  10 H :    0.017275
  11 H :    0.019951
  12 C :   -0.057512
  13 H :    0.026367
  14 H :    0.027110
  15 H :    0.015896
  16 S :    0.423331
  17 C :   -0.185493
  18 C :   -0.070869
  19 C :   -0.051558
  20 C :   -0.219302
  21 H :    0.031452
  22 C :   -0.042152
  23 H :    0.040377
  24 H :    0.025918
  25 C :   -0.032380
  26 H :    0.012752
  27 H :    0.023424
  28 C :   -0.058208
  29 H :    0.030553
  30 H :    0.025572
  31 H :    0.023101
  32 H :    0.023158
  33 H :    0.025864

  Mayer bond orders larger than 0.100000
B(  0-S ,  1-C ) :   1.1619 B(  0-S ,  4-C ) :   1.1700 B(  1-C ,  2-C ) :   1.5711
B(  1-C ,  4-C ) :   0.1048 B(  1-C , 32-H ) :   0.9725 B(  2-C ,  3-C ) :   1.3014
B(  2-C ,  6-C ) :   1.0069 B(  3-C ,  4-C ) :   1.5188 B(  3-C ,  5-H ) :   0.9753
B(  4-C , 20-C ) :   1.0719 B(  6-C ,  7-H ) :   0.9472 B(  6-C ,  8-H ) :   0.9390
B(  6-C ,  9-C ) :   1.0580 B(  9-C , 10-H ) :   0.9638 B(  9-C , 11-H ) :   0.9607
B(  9-C , 12-C ) :   1.0748 B( 12-C , 13-H ) :   0.9789 B( 12-C , 14-H ) :   0.9752
B( 12-C , 15-H ) :   0.9801 B( 16-S , 17-C ) :   1.1543 B( 16-S , 20-C ) :   1.1479
B( 17-C , 18-C ) :   1.6156 B( 17-C , 20-C ) :   0.1049 B( 17-C , 33-H ) :   0.9684
B( 18-C , 19-C ) :   1.2412 B( 18-C , 21-H ) :   0.9822 B( 19-C , 20-C ) :   1.5707
B( 19-C , 22-C ) :   1.0382 B( 22-C , 23-H ) :   0.9295 B( 22-C , 24-H ) :   0.9248
B( 22-C , 25-C ) :   1.0736 B( 25-C , 26-H ) :   0.9532 B( 25-C , 27-H ) :   0.9453
B( 25-C , 28-C ) :   1.0807 B( 28-C , 29-H ) :   0.9754 B( 28-C , 30-H ) :   0.9781
B( 28-C , 31-H ) :   0.9738

Dispersion correction           -0.014467460
FINAL SINGLE POINT ENERGY     -1339.859010028623

DIPOLE MOMENT
-------------
                                X             Y             Z
Electronic contribution:     -4.73359     -12.31772      24.97377
Nuclear contribution   :      4.59768      12.66115     -25.56244
                        -----------------------------------------
Total Dipole Moment    :     -0.13590       0.34344      -0.58867
                        -----------------------------------------
Magnitude (a.u.)       :      0.69495
Magnitude (Debye)      :      1.76642

Rotational constants in cm-1:     0.021317     0.007822     0.006606
Rotational constants in MHz :   639.067708   234.507117   198.030730

                             ****ORCA TERMINATED NORMALLY****
TOTAL RUN TIME: 0 days 0 hours 0 minutes 21 seconds 566 msec
