                         Program Version 4.2.1 -  RELEASE  -
|  1> ! wB97X-D3 SP def2-SVP
|  2> %pal
|  3> nprocs 24
|  4> end
|  5>
|  6> * xyz 0 1
|  7> S 	 -42.5564 	 -1.91001 	 -8.24267
|  8> C 	 -42.1329 	 -1.36298 	 -6.5642
|  9> C 	 -43.0421 	 -0.469902 	 -6.10647
| 10> C 	 -44.0487 	 -0.176252 	 -7.07632
| 11> C 	 -43.9745 	 -0.882913 	 -8.23925
| 12> H 	 -44.8806 	 0.458224 	 -6.87317
| 13> C 	 -43.0406 	 0.256467 	 -4.8285
| 14> H 	 -42.8709 	 -0.522118 	 -4.05555
| 15> H 	 -44.0426 	 0.655604 	 -4.63796
| 16> C 	 -41.992 	 1.4032 	 -4.761
| 17> H 	 -41.0392 	 0.92696 	 -4.98808
| 18> H 	 -42.04 	 2.24436 	 -5.49925
| 19> C 	 -41.7577 	 1.83541 	 -3.31215
| 20> H 	 -41.3964 	 1.02224 	 -2.6065
| 21> H 	 -41.1952 	 2.73448 	 -3.31855
| 22> H 	 -42.7126 	 2.09171 	 -2.85473
| 23> S 	 -44.1245 	 -0.761315 	 -10.9478
| 24> C 	 -45.6659 	 -0.585775 	 -11.7921
| 25> C 	 -46.6622 	 -0.399822 	 -10.897
| 26> C 	 -46.193 	 -0.455082 	 -9.49724
| 27> C 	 -44.8499 	 -0.709755 	 -9.38322
| 28> H 	 -47.6894 	 -0.228162 	 -11.2385
| 29> C 	 -47.2717 	 -0.409434 	 -8.38999
| 30> H 	 -46.7744 	 -0.758266 	 -7.48841
| 31> H 	 -48.0619 	 -1.0846 	 -8.69677
| 32> C 	 -47.8839 	 0.927147 	 -8.08947
| 33> H 	 -48.2028 	 1.40787 	 -8.93669
| 34> H 	 -47.2075 	 1.60757 	 -7.53283
| 35> C 	 -49.0949 	 0.814681 	 -7.26082
| 36> H 	 -49.2113 	 -0.189233 	 -6.79648
| 37> H 	 -50.0511 	 0.975452 	 -7.78466
| 38> H 	 -49.1816 	 1.55227 	 -6.46625
| 39> H 	 -41.3405 	 -1.86091 	 -6.01768
| 40> H 	 -45.7325 	 -0.812657 	 -12.8411
| 41> *
| 42>
| 43>                          ****END OF INPUT****

CARTESIAN COORDINATES (ANGSTROEM)
---------------------------------
  S    -42.556400   -1.910010   -8.242670
  C    -42.132900   -1.362980   -6.564200
  C    -43.042100   -0.469902   -6.106470
  C    -44.048700   -0.176252   -7.076320
  C    -43.974500   -0.882913   -8.239250
  H    -44.880600    0.458224   -6.873170
  C    -43.040600    0.256467   -4.828500
  H    -42.870900   -0.522118   -4.055550
  H    -44.042600    0.655604   -4.637960
  C    -41.992000    1.403200   -4.761000
  H    -41.039200    0.926960   -4.988080
  H    -42.040000    2.244360   -5.499250
  C    -41.757700    1.835410   -3.312150
  H    -41.396400    1.022240   -2.606500
  H    -41.195200    2.734480   -3.318550
  H    -42.712600    2.091710   -2.854730
  S    -44.124500   -0.761315  -10.947800
  C    -45.665900   -0.585775  -11.792100
  C    -46.662200   -0.399822  -10.897000
  C    -46.193000   -0.455082   -9.497240
  C    -44.849900   -0.709755   -9.383220
  H    -47.689400   -0.228162  -11.238500
  C    -47.271700   -0.409434   -8.389990
  H    -46.774400   -0.758266   -7.488410
  H    -48.061900   -1.084600   -8.696770
  C    -47.883900    0.927147   -8.089470
  H    -48.202800    1.407870   -8.936690
  H    -47.207500    1.607570   -7.532830
  C    -49.094900    0.814681   -7.260820
  H    -49.211300   -0.189233   -6.796480
  H    -50.051100    0.975452   -7.784660
  H    -49.181600    1.552270   -6.466250
  H    -41.340500   -1.860910   -6.017680
  H    -45.732500   -0.812657  -12.841100

 Total Charge           Charge          ....    0
 Multiplicity           Mult            ....    1
 Number of Electrons    NEL             ....  134
 Basis Dimension        Dim             ....  322

ORBITAL ENERGIES
----------------

  NO   OCC          E(Eh)            E(eV)
   0   2.0000     -88.965471     -2420.8735
   1   2.0000     -88.957726     -2420.6628
   2   2.0000     -10.329006      -281.0666
   3   2.0000     -10.325679      -280.9760
   4   2.0000     -10.317189      -280.7450
   5   2.0000     -10.315360      -280.6952
   6   2.0000     -10.304845      -280.4091
   7   2.0000     -10.297217      -280.2015
   8   2.0000     -10.297072      -280.1976
   9   2.0000     -10.295443      -280.1532
  10   2.0000     -10.292019      -280.0601
  11   2.0000     -10.290826      -280.0276
  12   2.0000     -10.288145      -279.9547
  13   2.0000     -10.279816      -279.7280
  14   2.0000     -10.275671      -279.6152
  15   2.0000     -10.274330      -279.5787
  16   2.0000      -8.079380      -219.8511
  17   2.0000      -8.073433      -219.6893
  18   2.0000      -6.038065      -164.3041
  19   2.0000      -6.034052      -164.1949
  20   2.0000      -6.032130      -164.1426
  21   2.0000      -6.029945      -164.0831
  22   2.0000      -6.027794      -164.0246
  23   2.0000      -6.023928      -163.9194
  24   2.0000      -1.008411       -27.4403
  25   2.0000      -0.984292       -26.7839
  26   2.0000      -0.920220       -25.0405
  27   2.0000      -0.915547       -24.9133
  28   2.0000      -0.873749       -23.7759
  29   2.0000      -0.853901       -23.2358
  30   2.0000      -0.845059       -22.9952
  31   2.0000      -0.818856       -22.2822
  32   2.0000      -0.780160       -21.2292
  33   2.0000      -0.773236       -21.0408
  34   2.0000      -0.707354       -19.2481
  35   2.0000      -0.703813       -19.1517
  36   2.0000      -0.696512       -18.9531
  37   2.0000      -0.666317       -18.1314
  38   2.0000      -0.640952       -17.4412
  39   2.0000      -0.623093       -16.9552
  40   2.0000      -0.599718       -16.3192
  41   2.0000      -0.575143       -15.6504
  42   2.0000      -0.569859       -15.5066
  43   2.0000      -0.557217       -15.1627
  44   2.0000      -0.533392       -14.5143
  45   2.0000      -0.528963       -14.3938
  46   2.0000      -0.524246       -14.2655
  47   2.0000      -0.513555       -13.9745
  48   2.0000      -0.510609       -13.8944
  49   2.0000      -0.503756       -13.7079
  50   2.0000      -0.497274       -13.5315
  51   2.0000      -0.474015       -12.8986
  52   2.0000      -0.472574       -12.8594
  53   2.0000      -0.466021       -12.6811
  54   2.0000      -0.457595       -12.4518
  55   2.0000      -0.452819       -12.3218
  56   2.0000      -0.443492       -12.0680
  57   2.0000      -0.439779       -11.9670
  58   2.0000      -0.433867       -11.8061
  59   2.0000      -0.421226       -11.4621
  60   2.0000      -0.415899       -11.3172
  61   2.0000      -0.411614       -11.2006
  62   2.0000      -0.408405       -11.1133
  63   2.0000      -0.357158        -9.7188
  64   2.0000      -0.331510        -9.0208
  65   2.0000      -0.326150        -8.8750
  66   2.0000      -0.293587        -7.9889
  67   0.0000       0.027238         0.7412
  68   0.0000       0.081813         2.2262
  69   0.0000       0.102551         2.7906
  70   0.0000       0.119920         3.2632
  71   0.0000       0.128987         3.5099

MULLIKEN ATOMIC CHARGES
-----------------------
   0 S :    0.092795
   1 C :   -0.151182
   2 C :   -0.043804
   3 C :    0.012997
   4 C :   -0.115414
   5 H :   -0.010163
   6 C :    0.059522
   7 H :    0.032483
   8 H :    0.020012
   9 C :   -0.074806
  10 H :    0.022193
  11 H :    0.048459
  12 C :   -0.041283
  13 H :    0.044172
  14 H :    0.031518
  15 H :    0.013244
  16 S :    0.075723
  17 C :   -0.090561
  18 C :   -0.026605
  19 C :   -0.063534
  20 C :   -0.117875
  21 H :    0.029038
  22 C :    0.051742
  23 H :    0.021927
  24 H :    0.030747
  25 C :   -0.008211
  26 H :    0.002659
  27 H :    0.031507
  28 C :   -0.072286
  29 H :    0.029025
  30 H :    0.025857
  31 H :    0.024826
  32 H :    0.052101
  33 H :    0.063174
Sum of atomic charges:    0.0000000

LOEWDIN ATOMIC CHARGES
----------------------
   0 S :    0.374098
   1 C :   -0.171766
   2 C :   -0.064179
   3 C :   -0.060203
   4 C :   -0.185226
   5 H :    0.024544
   6 C :   -0.032218
   7 H :    0.038373
   8 H :    0.027966
   9 C :   -0.041831
  10 H :    0.024534
  11 H :    0.034844
  12 C :   -0.069187
  13 H :    0.034366
  14 H :    0.022500
  15 H :    0.018572
  16 S :    0.392426
  17 C :   -0.174247
  18 C :   -0.069536
  19 C :   -0.059299
  20 C :   -0.197990
  21 H :    0.034969
  22 C :   -0.025925
  23 H :    0.028284
  24 H :    0.032201
  25 C :   -0.043566
  26 H :    0.014371
  27 H :    0.028708
  28 C :   -0.070740
  29 H :    0.026933
  30 H :    0.026200
  31 H :    0.024757
  32 H :    0.028021
  33 H :    0.029245

  Mayer bond orders larger than 0.100000
B(  0-S ,  1-C ) :   1.1092 B(  0-S ,  4-C ) :   1.1386 B(  1-C ,  2-C ) :   1.6210
B(  1-C , 32-H ) :   0.9733 B(  2-C ,  3-C ) :   1.2311 B(  2-C ,  6-C ) :   1.0282
B(  3-C ,  4-C ) :   1.5829 B(  3-C ,  5-H ) :   0.9961 B(  4-C , 20-C ) :   1.0452
B(  6-C ,  7-H ) :   0.9376 B(  6-C ,  8-H ) :   0.9356 B(  6-C ,  9-C ) :   1.0535
B(  9-C , 10-H ) :   0.9566 B(  9-C , 11-H ) :   0.9579 B(  9-C , 12-C ) :   1.0755
B( 12-C , 13-H ) :   0.9749 B( 12-C , 14-H ) :   0.9725 B( 12-C , 15-H ) :   0.9728
B( 16-S , 17-C ) :   1.1332 B( 16-S , 20-C ) :   1.1282 B( 17-C , 18-C ) :   1.6411
B( 17-C , 33-H ) :   0.9705 B( 18-C , 19-C ) :   1.1992 B( 18-C , 21-H ) :   0.9889
B( 19-C , 20-C ) :   1.6368 B( 19-C , 22-C ) :   1.0399 B( 22-C , 23-H ) :   0.9263
B( 22-C , 24-H ) :   0.9410 B( 22-C , 25-C ) :   1.0886 B( 25-C , 26-H ) :   0.9506
B( 25-C , 27-H ) :   0.9522 B( 25-C , 28-C ) :   1.0732 B( 28-C , 29-H ) :   0.9730
B( 28-C , 30-H ) :   0.9745 B( 28-C , 31-H ) :   0.9757

Dispersion correction           -0.013465809
FINAL SINGLE POINT ENERGY     -1339.874786538773

DIPOLE MOMENT
-------------
                                X             Y             Z
Electronic contribution:     11.88325     -14.61365     -23.87688
Nuclear contribution   :    -12.33667      14.90301      24.36309
                        -----------------------------------------
Total Dipole Moment    :     -0.45342       0.28936       0.48620
                        -----------------------------------------
Magnitude (a.u.)       :      0.72506
Magnitude (Debye)      :      1.84296

Rotational constants in cm-1:     0.017277     0.008528     0.006198
Rotational constants in MHz :   517.963398   255.651364   185.810529

                             ****ORCA TERMINATED NORMALLY****
TOTAL RUN TIME: 0 days 0 hours 0 minutes 21 seconds 311 msec
