                         Program Version 4.2.1 -  RELEASE  -
|  1> ! wB97X-D3 SP def2-SVP
|  2> %pal
|  3> nprocs 24
|  4> end
|  5>
|  6> * xyz 0 1
|  7> S 	 -100.298 	 49.1269 	 -99.5231
|  8> C 	 -100.636 	 50.8108 	 -99.1076
|  9> C 	 -99.5198 	 51.5775 	 -99.383
| 10> C 	 -98.3316 	 50.826 	 -99.8032
| 11> C 	 -98.596 	 49.5089 	 -100.043
| 12> H 	 -97.4042 	 51.1693 	 -100.015
| 13> C 	 -99.2713 	 53.081 	 -99.2901
| 14> H 	 -98.7024 	 53.5422 	 -100.146
| 15> H 	 -98.6495 	 53.2345 	 -98.4024
| 16> C 	 -100.54 	 53.9207 	 -99.021
| 17> H 	 -100.984 	 53.5386 	 -98.0822
| 18> H 	 -100.34 	 54.9469 	 -98.8033
| 19> C 	 -101.594 	 53.9113 	 -100.156
| 20> H 	 -101.198 	 54.0863 	 -101.2
| 21> H 	 -102.15 	 52.9468 	 -100.242
| 22> H 	 -102.261 	 54.7135 	 -99.9994
| 23> S 	 -97.8226 	 46.8553 	 -100.113
| 24> C 	 -96.594 	 46.3411 	 -101.274
| 25> C 	 -96.3576 	 47.3409 	 -102.195
| 26> C 	 -96.9976 	 48.5818 	 -101.903
| 27> C 	 -97.8088 	 48.4996 	 -100.724
| 28> H 	 -95.7818 	 47.1508 	 -103.068
| 29> C 	 -96.8299 	 49.7408 	 -102.859
| 30> H 	 -96.068 	 49.4124 	 -103.513
| 31> H 	 -96.4391 	 50.5915 	 -102.399
| 32> C 	 -98.1244 	 50.2265 	 -103.615
| 33> H 	 -97.8417 	 50.9481 	 -104.422
| 34> H 	 -98.7411 	 50.7579 	 -102.851
| 35> C 	 -98.9005 	 49.0992 	 -104.25
| 36> H 	 -99.7039 	 49.4773 	 -104.885
| 37> H 	 -99.2564 	 48.4659 	 -103.436
| 38> H 	 -98.3603 	 48.3562 	 -104.802
| 39> H 	 -101.573 	 51.1344 	 -98.6964
| 40> H 	 -96.2382 	 45.3728 	 -101.419
| 41> *
| 42>
| 43>                          ****END OF INPUT****

CARTESIAN COORDINATES (ANGSTROEM)
---------------------------------
  S    -100.298000   49.126900  -99.523100
  C    -100.636000   50.810800  -99.107600
  C    -99.519800   51.577500  -99.383000
  C    -98.331600   50.826000  -99.803200
  C    -98.596000   49.508900  -100.043000
  H    -97.404200   51.169300  -100.015000
  C    -99.271300   53.081000  -99.290100
  H    -98.702400   53.542200  -100.146000
  H    -98.649500   53.234500  -98.402400
  C    -100.540000   53.920700  -99.021000
  H    -100.984000   53.538600  -98.082200
  H    -100.340000   54.946900  -98.803300
  C    -101.594000   53.911300  -100.156000
  H    -101.198000   54.086300  -101.200000
  H    -102.150000   52.946800  -100.242000
  H    -102.261000   54.713500  -99.999400
  S    -97.822600   46.855300  -100.113000
  C    -96.594000   46.341100  -101.274000
  C    -96.357600   47.340900  -102.195000
  C    -96.997600   48.581800  -101.903000
  C    -97.808800   48.499600  -100.724000
  H    -95.781800   47.150800  -103.068000
  C    -96.829900   49.740800  -102.859000
  H    -96.068000   49.412400  -103.513000
  H    -96.439100   50.591500  -102.399000
  C    -98.124400   50.226500  -103.615000
  H    -97.841700   50.948100  -104.422000
  H    -98.741100   50.757900  -102.851000
  C    -98.900500   49.099200  -104.250000
  H    -99.703900   49.477300  -104.885000
  H    -99.256400   48.465900  -103.436000
  H    -98.360300   48.356200  -104.802000
  H    -101.573000   51.134400  -98.696400
  H    -96.238200   45.372800  -101.419000

 Total Charge           Charge          ....    0
 Multiplicity           Mult            ....    1
 Number of Electrons    NEL             ....  134
 Basis Dimension        Dim             ....  322

ORBITAL ENERGIES
----------------

  NO   OCC          E(Eh)            E(eV)
   0   2.0000     -88.970504     -2421.0105
   1   2.0000     -88.961502     -2420.7655
   2   2.0000     -10.335306      -281.2380
   3   2.0000     -10.333859      -281.1986
   4   2.0000     -10.320452      -280.8338
   5   2.0000     -10.317876      -280.7637
   6   2.0000     -10.310322      -280.5581
   7   2.0000     -10.309872      -280.5459
   8   2.0000     -10.298438      -280.2348
   9   2.0000     -10.294293      -280.1220
  10   2.0000     -10.290167      -280.0097
  11   2.0000     -10.289918      -280.0029
  12   2.0000     -10.287840      -279.9463
  13   2.0000     -10.285411      -279.8803
  14   2.0000     -10.278975      -279.7051
  15   2.0000     -10.266441      -279.3641
  16   2.0000      -8.084679      -219.9953
  17   2.0000      -8.075394      -219.7427
  18   2.0000      -6.043254      -164.4453
  19   2.0000      -6.039172      -164.3342
  20   2.0000      -6.035489      -164.2340
  21   2.0000      -6.034201      -164.1990
  22   2.0000      -6.030097      -164.0873
  23   2.0000      -6.025798      -163.9703
  24   2.0000      -1.001725       -27.2583
  25   2.0000      -0.978672       -26.6310
  26   2.0000      -0.907418       -24.6921
  27   2.0000      -0.906025       -24.6542
  28   2.0000      -0.870512       -23.6878
  29   2.0000      -0.850784       -23.1510
  30   2.0000      -0.843091       -22.9417
  31   2.0000      -0.815785       -22.1986
  32   2.0000      -0.783886       -21.3306
  33   2.0000      -0.774020       -21.0622
  34   2.0000      -0.712730       -19.3944
  35   2.0000      -0.701725       -19.0949
  36   2.0000      -0.687712       -18.7136
  37   2.0000      -0.667793       -18.1716
  38   2.0000      -0.649280       -17.6678
  39   2.0000      -0.611365       -16.6361
  40   2.0000      -0.592173       -16.1138
  41   2.0000      -0.574752       -15.6398
  42   2.0000      -0.556023       -15.1302
  43   2.0000      -0.549533       -14.9536
  44   2.0000      -0.546644       -14.8749
  45   2.0000      -0.536902       -14.6098
  46   2.0000      -0.522965       -14.2306
  47   2.0000      -0.512019       -13.9328
  48   2.0000      -0.501812       -13.6550
  49   2.0000      -0.494807       -13.4644
  50   2.0000      -0.487799       -13.2737
  51   2.0000      -0.483036       -13.1441
  52   2.0000      -0.481378       -13.0990
  53   2.0000      -0.464449       -12.6383
  54   2.0000      -0.461453       -12.5568
  55   2.0000      -0.442224       -12.0335
  56   2.0000      -0.439602       -11.9622
  57   2.0000      -0.433890       -11.8067
  58   2.0000      -0.430492       -11.7143
  59   2.0000      -0.425637       -11.5822
  60   2.0000      -0.419539       -11.4162
  61   2.0000      -0.413286       -11.2461
  62   2.0000      -0.407769       -11.0959
  63   2.0000      -0.354267        -9.6401
  64   2.0000      -0.334076        -9.0907
  65   2.0000      -0.324023        -8.8171
  66   2.0000      -0.289651        -7.8818
  67   0.0000       0.018342         0.4991
  68   0.0000       0.070988         1.9317
  69   0.0000       0.100073         2.7231
  70   0.0000       0.119138         3.2419
  71   0.0000       0.128277         3.4906

MULLIKEN ATOMIC CHARGES
-----------------------
   0 S :    0.074299
   1 C :   -0.118846
   2 C :   -0.073585
   3 C :    0.053273
   4 C :   -0.107044
   5 H :   -0.031795
   6 C :    0.033194
   7 H :    0.046458
   8 H :    0.043087
   9 C :   -0.071844
  10 H :    0.023878
  11 H :    0.020359
  12 C :   -0.063262
  13 H :    0.031714
  14 H :    0.038128
  15 H :    0.025484
  16 S :    0.111924
  17 C :   -0.055480
  18 C :   -0.038514
  19 C :   -0.068764
  20 C :   -0.160395
  21 H :    0.013291
  22 C :    0.132227
  23 H :   -0.001602
  24 H :    0.012153
  25 C :   -0.096433
  26 H :    0.036528
  27 H :    0.050093
  28 C :   -0.039712
  29 H :    0.039776
  30 H :    0.037504
  31 H :    0.012976
  32 H :    0.054079
  33 H :    0.036852
Sum of atomic charges:    0.0000000

LOEWDIN ATOMIC CHARGES
----------------------
   0 S :    0.354064
   1 C :   -0.189181
   2 C :   -0.054726
   3 C :   -0.047743
   4 C :   -0.158186
   5 H :    0.014373
   6 C :   -0.038051
   7 H :    0.036204
   8 H :    0.038165
   9 C :   -0.045803
  10 H :    0.025068
  11 H :    0.021222
  12 C :   -0.072267
  13 H :    0.030256
  14 H :    0.026556
  15 H :    0.018717
  16 S :    0.409787
  17 C :   -0.169710
  18 C :   -0.067040
  19 C :   -0.048750
  20 C :   -0.204550
  21 H :    0.027833
  22 C :   -0.026297
  23 H :    0.024173
  24 H :    0.022891
  25 C :   -0.037551
  26 H :    0.026737
  27 H :    0.031463
  28 C :   -0.073190
  29 H :    0.028216
  30 H :    0.030448
  31 H :    0.019298
  32 H :    0.028095
  33 H :    0.019479

  Mayer bond orders larger than 0.100000
B(  0-S ,  1-C ) :   1.1044 B(  0-S ,  4-C ) :   1.1135 B(  1-C ,  2-C ) :   1.6532
B(  1-C , 32-H ) :   0.9703 B(  2-C ,  3-C ) :   1.1719 B(  2-C ,  6-C ) :   1.0066
B(  3-C ,  4-C ) :   1.6237 B(  3-C ,  5-H ) :   1.0208 B(  4-C , 20-C ) :   1.0686
B(  6-C ,  7-H ) :   0.9501 B(  6-C ,  8-H ) :   0.9367 B(  6-C ,  9-C ) :   1.0861
B(  9-C , 10-H ) :   0.9486 B(  9-C , 11-H ) :   0.9567 B(  9-C , 12-C ) :   1.0733
B( 12-C , 13-H ) :   0.9749 B( 12-C , 14-H ) :   0.9755 B( 12-C , 15-H ) :   0.9768
B( 16-S , 17-C ) :   1.1536 B( 16-S , 20-C ) :   1.1502 B( 17-C , 18-C ) :   1.5925
B( 17-C , 20-C ) :   0.1077 B( 17-C , 33-H ) :   0.9732 B( 18-C , 19-C ) :   1.2750
B( 18-C , 21-H ) :   0.9876 B( 19-C , 20-C ) :   1.5228 B( 19-C , 22-C ) :   1.0431
B( 22-C , 23-H ) :   0.9249 B( 22-C , 24-H ) :   0.9295 B( 22-C , 25-C ) :   1.0640
B( 25-C , 26-H ) :   0.9585 B( 25-C , 27-H ) :   0.9532 B( 25-C , 28-C ) :   1.0800
B( 28-C , 29-H ) :   0.9737 B( 28-C , 30-H ) :   0.9654 B( 28-C , 31-H ) :   0.9760

Dispersion correction           -0.015526918
FINAL SINGLE POINT ENERGY     -1339.873424694876

DIPOLE MOMENT
-------------
                                X             Y             Z
Electronic contribution:      4.51216     -22.71727      12.38568
Nuclear contribution   :     -4.23034      23.24929     -12.76096
                        -----------------------------------------
Total Dipole Moment    :      0.28182       0.53202      -0.37528
                        -----------------------------------------
Magnitude (a.u.)       :      0.70944
Magnitude (Debye)      :      1.80325

Rotational constants in cm-1:     0.022963     0.008442     0.007142
Rotational constants in MHz :   688.425260   253.092737   214.115803

                             ****ORCA TERMINATED NORMALLY****
TOTAL RUN TIME: 0 days 0 hours 0 minutes 22 seconds 284 msec
