                         Program Version 4.2.1 -  RELEASE  -
|  1> ! wB97X-D3 SP def2-SVP
|  2> %pal
|  3> nprocs 24
|  4> end
|  5>
|  6> * xyz 0 1
|  7> S 	 -103.478 	 21.5485 	 -110.8
|  8> C 	 -104.322 	 20.3468 	 -109.862
|  9> C 	 -104.813 	 20.9066 	 -108.698
| 10> C 	 -104.627 	 22.3292 	 -108.641
| 11> C 	 -104.023 	 22.8052 	 -109.778
| 12> H 	 -104.896 	 22.9997 	 -107.84
| 13> C 	 -105.415 	 20.035 	 -107.589
| 14> H 	 -105.982 	 19.2845 	 -108.146
| 15> H 	 -106.219 	 20.5757 	 -106.979
| 16> C 	 -104.399 	 19.4044 	 -106.638
| 17> H 	 -103.621 	 18.9639 	 -107.272
| 18> H 	 -103.948 	 20.1771 	 -106.025
| 19> C 	 -104.908 	 18.3826 	 -105.616
| 20> H 	 -104.17 	 18.1455 	 -104.868
| 21> H 	 -105.854 	 18.5566 	 -105.162
| 22> H 	 -104.947 	 17.41 	 -106.084
| 23> S 	 -102.06 	 24.6181 	 -110.475
| 24> C 	 -102.483 	 26.2873 	 -110.611
| 25> C 	 -103.811 	 26.5134 	 -110.372
| 26> C 	 -104.56 	 25.3382 	 -110
| 27> C 	 -103.775 	 24.176 	 -110.089
| 28> H 	 -104.185 	 27.5126 	 -110.471
| 29> C 	 -106.031 	 25.4219 	 -109.643
| 30> H 	 -106.375 	 24.4038 	 -109.498
| 31> H 	 -106.561 	 25.7809 	 -110.465
| 32> C 	 -106.374 	 26.2241 	 -108.443
| 33> H 	 -106.052 	 27.268 	 -108.541
| 34> H 	 -105.84 	 25.8361 	 -107.632
| 35> C 	 -107.87 	 26.0629 	 -108.174
| 36> H 	 -108.511 	 25.8636 	 -109.131
| 37> H 	 -108.278 	 26.9677 	 -107.634
| 38> H 	 -108.037 	 25.1864 	 -107.589
| 39> H 	 -104.402 	 19.3547 	 -110.133
| 40> H 	 -101.831 	 27.126 	 -110.821
| 41> *
| 42>
| 43>                          ****END OF INPUT****

CARTESIAN COORDINATES (ANGSTROEM)
---------------------------------
  S    -103.478000   21.548500  -110.800000
  C    -104.322000   20.346800  -109.862000
  C    -104.813000   20.906600  -108.698000
  C    -104.627000   22.329200  -108.641000
  C    -104.023000   22.805200  -109.778000
  H    -104.896000   22.999700  -107.840000
  C    -105.415000   20.035000  -107.589000
  H    -105.982000   19.284500  -108.146000
  H    -106.219000   20.575700  -106.979000
  C    -104.399000   19.404400  -106.638000
  H    -103.621000   18.963900  -107.272000
  H    -103.948000   20.177100  -106.025000
  C    -104.908000   18.382600  -105.616000
  H    -104.170000   18.145500  -104.868000
  H    -105.854000   18.556600  -105.162000
  H    -104.947000   17.410000  -106.084000
  S    -102.060000   24.618100  -110.475000
  C    -102.483000   26.287300  -110.611000
  C    -103.811000   26.513400  -110.372000
  C    -104.560000   25.338200  -110.000000
  C    -103.775000   24.176000  -110.089000
  H    -104.185000   27.512600  -110.471000
  C    -106.031000   25.421900  -109.643000
  H    -106.375000   24.403800  -109.498000
  H    -106.561000   25.780900  -110.465000
  C    -106.374000   26.224100  -108.443000
  H    -106.052000   27.268000  -108.541000
  H    -105.840000   25.836100  -107.632000
  C    -107.870000   26.062900  -108.174000
  H    -108.511000   25.863600  -109.131000
  H    -108.278000   26.967700  -107.634000
  H    -108.037000   25.186400  -107.589000
  H    -104.402000   19.354700  -110.133000
  H    -101.831000   27.126000  -110.821000

 Total Charge           Charge          ....    0
 Multiplicity           Mult            ....    1
 Number of Electrons    NEL             ....  134
 Basis Dimension        Dim             ....  322

ORBITAL ENERGIES
----------------

  NO   OCC          E(Eh)            E(eV)
   0   2.0000     -88.965759     -2420.8814
   1   2.0000     -88.963681     -2420.8248
   2   2.0000     -10.328763      -281.0599
   3   2.0000     -10.323444      -280.9152
   4   2.0000     -10.314031      -280.6591
   5   2.0000     -10.308776      -280.5161
   6   2.0000     -10.306077      -280.4426
   7   2.0000     -10.303702      -280.3780
   8   2.0000     -10.297876      -280.2194
   9   2.0000     -10.293115      -280.0899
  10   2.0000     -10.289554      -279.9930
  11   2.0000     -10.287001      -279.9235
  12   2.0000     -10.285942      -279.8947
  13   2.0000     -10.280983      -279.7598
  14   2.0000     -10.279731      -279.7257
  15   2.0000     -10.272719      -279.5349
  16   2.0000      -8.081578      -219.9109
  17   2.0000      -8.078048      -219.8149
  18   2.0000      -6.040054      -164.3582
  19   2.0000      -6.036643      -164.2654
  20   2.0000      -6.035924      -164.2458
  21   2.0000      -6.032674      -164.1574
  22   2.0000      -6.032316      -164.1477
  23   2.0000      -6.028666      -164.0483
  24   2.0000      -1.010607       -27.5000
  25   2.0000      -0.982628       -26.7387
  26   2.0000      -0.920232       -25.0408
  27   2.0000      -0.910271       -24.7697
  28   2.0000      -0.873187       -23.7606
  29   2.0000      -0.853164       -23.2158
  30   2.0000      -0.844999       -22.9936
  31   2.0000      -0.816222       -22.2105
  32   2.0000      -0.784235       -21.3401
  33   2.0000      -0.771302       -20.9882
  34   2.0000      -0.709565       -19.3082
  35   2.0000      -0.700945       -19.0737
  36   2.0000      -0.699746       -19.0410
  37   2.0000      -0.659556       -17.9474
  38   2.0000      -0.645912       -17.5762
  39   2.0000      -0.618560       -16.8319
  40   2.0000      -0.597496       -16.2587
  41   2.0000      -0.575648       -15.6642
  42   2.0000      -0.572504       -15.5786
  43   2.0000      -0.556134       -15.1332
  44   2.0000      -0.528002       -14.3677
  45   2.0000      -0.522956       -14.2303
  46   2.0000      -0.518514       -14.1095
  47   2.0000      -0.512720       -13.9518
  48   2.0000      -0.511126       -13.9085
  49   2.0000      -0.503737       -13.7074
  50   2.0000      -0.498476       -13.5642
  51   2.0000      -0.479345       -13.0436
  52   2.0000      -0.472446       -12.8559
  53   2.0000      -0.464154       -12.6303
  54   2.0000      -0.458322       -12.4716
  55   2.0000      -0.450144       -12.2490
  56   2.0000      -0.443041       -12.0558
  57   2.0000      -0.441094       -12.0028
  58   2.0000      -0.435508       -11.8508
  59   2.0000      -0.424483       -11.5508
  60   2.0000      -0.421209       -11.4617
  61   2.0000      -0.417500       -11.3607
  62   2.0000      -0.409636       -11.1468
  63   2.0000      -0.349492        -9.5102
  64   2.0000      -0.332383        -9.0446
  65   2.0000      -0.329731        -8.9724
  66   2.0000      -0.289216        -7.8700
  67   0.0000       0.030461         0.8289
  68   0.0000       0.068447         1.8625
  69   0.0000       0.113006         3.0750
  70   0.0000       0.125522         3.4156
  71   0.0000       0.128599         3.4994

MULLIKEN ATOMIC CHARGES
-----------------------
   0 S :    0.120511
   1 C :   -0.093107
   2 C :   -0.084481
   3 C :    0.035617
   4 C :   -0.160374
   5 H :    0.009385
   6 C :    0.040131
   7 H :    0.022063
   8 H :    0.028593
   9 C :   -0.062246
  10 H :    0.027127
  11 H :    0.028295
  12 C :   -0.018691
  13 H :    0.025735
  14 H :    0.029497
  15 H :    0.014257
  16 S :    0.093909
  17 C :   -0.076960
  18 C :   -0.041041
  19 C :   -0.027192
  20 C :   -0.148404
  21 H :    0.010770
  22 C :    0.081274
  23 H :    0.012847
  24 H :    0.016197
  25 C :   -0.041462
  26 H :    0.029386
  27 H :    0.012461
  28 C :   -0.077927
  29 H :    0.041361
  30 H :    0.047620
  31 H :    0.030945
  32 H :    0.018821
  33 H :    0.055085
Sum of atomic charges:   -0.0000000

LOEWDIN ATOMIC CHARGES
----------------------
   0 S :    0.428668
   1 C :   -0.188063
   2 C :   -0.056377
   3 C :   -0.062828
   4 C :   -0.207904
   5 H :    0.031916
   6 C :   -0.037452
   7 H :    0.028657
   8 H :    0.032147
   9 C :   -0.041098
  10 H :    0.026331
  11 H :    0.024259
  12 C :   -0.066461
  13 H :    0.028449
  14 H :    0.021130
  15 H :    0.024170
  16 S :    0.382782
  17 C :   -0.188661
  18 C :   -0.074216
  19 C :   -0.045465
  20 C :   -0.181071
  21 H :    0.027805
  22 C :   -0.028129
  23 H :    0.028966
  24 H :    0.024121
  25 C :   -0.037304
  26 H :    0.023415
  27 H :    0.017869
  28 C :   -0.069839
  29 H :    0.034907
  30 H :    0.032783
  31 H :    0.021108
  32 H :    0.012490
  33 H :    0.032895

  Mayer bond orders larger than 0.100000
B(  0-S ,  1-C ) :   1.1345 B(  0-S ,  4-C ) :   1.1696 B(  1-C ,  2-C ) :   1.5975
B(  1-C , 32-H ) :   0.9846 B(  2-C ,  3-C ) :   1.2384 B(  2-C ,  6-C ) :   1.0188
B(  3-C ,  4-C ) :   1.5495 B(  3-C ,  5-H ) :   1.0038 B(  4-C , 20-C ) :   1.0463
B(  6-C ,  7-H ) :   0.9415 B(  6-C ,  8-H ) :   0.9423 B(  6-C ,  9-C ) :   1.0634
B(  9-C , 10-H ) :   0.9562 B(  9-C , 11-H ) :   0.9578 B(  9-C , 12-C ) :   1.0817
B( 12-C , 13-H ) :   0.9721 B( 12-C , 14-H ) :   0.9756 B( 12-C , 15-H ) :   0.9719
B( 16-S , 17-C ) :   1.1455 B( 16-S , 20-C ) :   1.1186 B( 17-C , 18-C ) :   1.6410
B( 17-C , 33-H ) :   0.9628 B( 18-C , 19-C ) :   1.2094 B( 18-C , 21-H ) :   0.9920
B( 19-C , 20-C ) :   1.6108 B( 19-C , 22-C ) :   1.0428 B( 22-C , 23-H ) :   0.9325
B( 22-C , 24-H ) :   0.9248 B( 22-C , 25-C ) :   1.0732 B( 25-C , 26-H ) :   0.9554
B( 25-C , 27-H ) :   0.9510 B( 25-C , 28-C ) :   1.0713 B( 28-C , 29-H ) :   0.9728
B( 28-C , 30-H ) :   0.9747 B( 28-C , 31-H ) :   0.9753

Dispersion correction           -0.013626063
FINAL SINGLE POINT ENERGY     -1339.881233102401

DIPOLE MOMENT
-------------
                                X             Y             Z
Electronic contribution:     19.84867       4.47958     -20.61496
Nuclear contribution   :    -20.28380      -4.41872      21.07550
                        -----------------------------------------
Total Dipole Moment    :     -0.43513       0.06087       0.46054
                        -----------------------------------------
Magnitude (a.u.)       :      0.63651
Magnitude (Debye)      :      1.61787

Rotational constants in cm-1:     0.017875     0.008139     0.006227
Rotational constants in MHz :   535.871789   244.013300   186.670168

                             ****ORCA TERMINATED NORMALLY****
TOTAL RUN TIME: 0 days 0 hours 0 minutes 21 seconds 169 msec
