                         Program Version 4.2.1 -  RELEASE  -
|  1> ! wB97X-D3 SP def2-SVP
|  2> %pal
|  3> nprocs 24
|  4> end
|  5>
|  6> * xyz 0 1
|  7> S 	 43.9206 	 -22.1422 	 -113.235
|  8> C 	 44.9984 	 -21.1566 	 -114.143
|  9> C 	 46.3228 	 -21.478 	 -113.94
| 10> C 	 46.4096 	 -22.4142 	 -112.842
| 11> C 	 45.1973 	 -22.7095 	 -112.208
| 12> H 	 47.2935 	 -22.9323 	 -112.478
| 13> C 	 47.4863 	 -20.9081 	 -114.755
| 14> H 	 48.3664 	 -20.9883 	 -114.123
| 15> H 	 47.192 	 -19.8376 	 -114.96
| 16> C 	 47.7129 	 -21.6595 	 -116.089
| 17> H 	 47.9084 	 -22.6478 	 -116.045
| 18> H 	 46.7165 	 -21.636 	 -116.565
| 19> C 	 48.7235 	 -20.9053 	 -116.97
| 20> H 	 48.3076 	 -19.9854 	 -117.342
| 21> H 	 49.629 	 -20.5776 	 -116.476
| 22> H 	 48.9563 	 -21.5944 	 -117.844
| 23> S 	 45.436 	 -22.8402 	 -109.51
| 24> C 	 44.6457 	 -24.171 	 -108.667
| 25> C 	 43.8311 	 -24.9139 	 -109.469
| 26> C 	 44.0696 	 -24.6055 	 -110.808
| 27> C 	 44.963 	 -23.5538 	 -111.041
| 28> H 	 43.1543 	 -25.6959 	 -109.152
| 29> C 	 43.3598 	 -25.3359 	 -111.866
| 30> H 	 42.921 	 -24.668 	 -112.625
| 31> H 	 42.4047 	 -25.7 	 -111.537
| 32> C 	 44.1109 	 -26.4735 	 -112.635
| 33> H 	 44.1195 	 -27.3555 	 -112.021
| 34> H 	 45.1539 	 -26.2211 	 -112.772
| 35> C 	 43.5298 	 -26.7567 	 -114.066
| 36> H 	 44.0685 	 -27.5086 	 -114.678
| 37> H 	 43.5181 	 -25.8278 	 -114.609
| 38> H 	 42.496 	 -27.1527 	 -114.081
| 39> H 	 44.6635 	 -20.5552 	 -114.96
| 40> H 	 44.5208 	 -24.199 	 -107.584
| 41> *
| 42>
| 43>                          ****END OF INPUT****

CARTESIAN COORDINATES (ANGSTROEM)
---------------------------------
  S     43.920600  -22.142200  -113.235000
  C     44.998400  -21.156600  -114.143000
  C     46.322800  -21.478000  -113.940000
  C     46.409600  -22.414200  -112.842000
  C     45.197300  -22.709500  -112.208000
  H     47.293500  -22.932300  -112.478000
  C     47.486300  -20.908100  -114.755000
  H     48.366400  -20.988300  -114.123000
  H     47.192000  -19.837600  -114.960000
  C     47.712900  -21.659500  -116.089000
  H     47.908400  -22.647800  -116.045000
  H     46.716500  -21.636000  -116.565000
  C     48.723500  -20.905300  -116.970000
  H     48.307600  -19.985400  -117.342000
  H     49.629000  -20.577600  -116.476000
  H     48.956300  -21.594400  -117.844000
  S     45.436000  -22.840200  -109.510000
  C     44.645700  -24.171000  -108.667000
  C     43.831100  -24.913900  -109.469000
  C     44.069600  -24.605500  -110.808000
  C     44.963000  -23.553800  -111.041000
  H     43.154300  -25.695900  -109.152000
  C     43.359800  -25.335900  -111.866000
  H     42.921000  -24.668000  -112.625000
  H     42.404700  -25.700000  -111.537000
  C     44.110900  -26.473500  -112.635000
  H     44.119500  -27.355500  -112.021000
  H     45.153900  -26.221100  -112.772000
  C     43.529800  -26.756700  -114.066000
  H     44.068500  -27.508600  -114.678000
  H     43.518100  -25.827800  -114.609000
  H     42.496000  -27.152700  -114.081000
  H     44.663500  -20.555200  -114.960000
  H     44.520800  -24.199000  -107.584000

 Total Charge           Charge          ....    0
 Multiplicity           Mult            ....    1
 Number of Electrons    NEL             ....  134
 Basis Dimension        Dim             ....  322

ORBITAL ENERGIES
----------------

  NO   OCC          E(Eh)            E(eV)
   0   2.0000     -88.967660     -2420.9331
   1   2.0000     -88.963572     -2420.8219
   2   2.0000     -10.327342      -281.0213
   3   2.0000     -10.325437      -280.9694
   4   2.0000     -10.316477      -280.7256
   5   2.0000     -10.308971      -280.5214
   6   2.0000     -10.301874      -280.3282
   7   2.0000     -10.299595      -280.2662
   8   2.0000     -10.297685      -280.2143
   9   2.0000     -10.296281      -280.1760
  10   2.0000     -10.290322      -280.0139
  11   2.0000     -10.285314      -279.8776
  12   2.0000     -10.284174      -279.8466
  13   2.0000     -10.281888      -279.7844
  14   2.0000     -10.281213      -279.7660
  15   2.0000     -10.279166      -279.7103
  16   2.0000      -8.082097      -219.9250
  17   2.0000      -8.078862      -219.8370
  18   2.0000      -6.040524      -164.3710
  19   2.0000      -6.037212      -164.2809
  20   2.0000      -6.036723      -164.2676
  21   2.0000      -6.033411      -164.1775
  22   2.0000      -6.032860      -164.1625
  23   2.0000      -6.029646      -164.0750
  24   2.0000      -1.009417       -27.4676
  25   2.0000      -0.988467       -26.8976
  26   2.0000      -0.911525       -24.8039
  27   2.0000      -0.903528       -24.5863
  28   2.0000      -0.872324       -23.7371
  29   2.0000      -0.850654       -23.1475
  30   2.0000      -0.843656       -22.9570
  31   2.0000      -0.814648       -22.1677
  32   2.0000      -0.780100       -21.2276
  33   2.0000      -0.766767       -20.8648
  34   2.0000      -0.709568       -19.3083
  35   2.0000      -0.707483       -19.2516
  36   2.0000      -0.692719       -18.8498
  37   2.0000      -0.668894       -18.2015
  38   2.0000      -0.642554       -17.4848
  39   2.0000      -0.614720       -16.7274
  40   2.0000      -0.600470       -16.3396
  41   2.0000      -0.571555       -15.5528
  42   2.0000      -0.562718       -15.3123
  43   2.0000      -0.553009       -15.0481
  44   2.0000      -0.525801       -14.3078
  45   2.0000      -0.518626       -14.1125
  46   2.0000      -0.516284       -14.0488
  47   2.0000      -0.506519       -13.7831
  48   2.0000      -0.503235       -13.6937
  49   2.0000      -0.500970       -13.6321
  50   2.0000      -0.491241       -13.3673
  51   2.0000      -0.478137       -13.0108
  52   2.0000      -0.468333       -12.7440
  53   2.0000      -0.464155       -12.6303
  54   2.0000      -0.463119       -12.6021
  55   2.0000      -0.449197       -12.2233
  56   2.0000      -0.445274       -12.1165
  57   2.0000      -0.441815       -12.0224
  58   2.0000      -0.432708       -11.7746
  59   2.0000      -0.427911       -11.6440
  60   2.0000      -0.421305       -11.4643
  61   2.0000      -0.418955       -11.4003
  62   2.0000      -0.408614       -11.1190
  63   2.0000      -0.344624        -9.3777
  64   2.0000      -0.330479        -8.9928
  65   2.0000      -0.324801        -8.8383
  66   2.0000      -0.293526        -7.9872
  67   0.0000       0.028408         0.7730
  68   0.0000       0.059799         1.6272
  69   0.0000       0.107223         2.9177
  70   0.0000       0.111206         3.0261
  71   0.0000       0.131619         3.5815

MULLIKEN ATOMIC CHARGES
-----------------------
   0 S :    0.113416
   1 C :   -0.110996
   2 C :   -0.085936
   3 C :    0.018003
   4 C :   -0.161480
   5 H :    0.012513
   6 C :    0.052921
   7 H :    0.028142
   8 H :    0.041696
   9 C :   -0.036359
  10 H :    0.006767
  11 H :    0.019574
  12 C :   -0.042096
  13 H :    0.022716
  14 H :    0.029761
  15 H :    0.044341
  16 S :    0.114419
  17 C :   -0.083436
  18 C :   -0.022970
  19 C :   -0.049637
  20 C :   -0.133197
  21 H :    0.021737
  22 C :    0.046906
  23 H :    0.008224
  24 H :    0.001797
  25 C :   -0.028427
  26 H :    0.022051
  27 H :    0.030188
  28 C :   -0.081371
  29 H :    0.037421
  30 H :    0.035216
  31 H :    0.030220
  32 H :    0.039641
  33 H :    0.058236
Sum of atomic charges:   -0.0000000

LOEWDIN ATOMIC CHARGES
----------------------
   0 S :    0.428093
   1 C :   -0.200648
   2 C :   -0.066139
   3 C :   -0.061960
   4 C :   -0.209925
   5 H :    0.030010
   6 C :   -0.026947
   7 H :    0.027936
   8 H :    0.040824
   9 C :   -0.033026
  10 H :    0.008574
  11 H :    0.028159
  12 C :   -0.065421
  13 H :    0.021342
  14 H :    0.022550
  15 H :    0.035629
  16 S :    0.415927
  17 C :   -0.179240
  18 C :   -0.064315
  19 C :   -0.061232
  20 C :   -0.200917
  21 H :    0.036674
  22 C :   -0.044053
  23 H :    0.022806
  24 H :    0.026984
  25 C :   -0.029894
  26 H :    0.018845
  27 H :    0.024839
  28 C :   -0.072126
  29 H :    0.029045
  30 H :    0.022964
  31 H :    0.024548
  32 H :    0.021251
  33 H :    0.028844

  Mayer bond orders larger than 0.100000
B(  0-S ,  1-C ) :   1.1604 B(  0-S ,  4-C ) :   1.1510 B(  1-C ,  2-C ) :   1.5932
B(  1-C , 32-H ) :   0.9687 B(  2-C ,  3-C ) :   1.2503 B(  2-C ,  6-C ) :   1.0156
B(  3-C ,  4-C ) :   1.5554 B(  3-C ,  5-H ) :   0.9962 B(  4-C , 20-C ) :   1.0447
B(  6-C ,  7-H ) :   0.9398 B(  6-C ,  8-H ) :   0.9462 B(  6-C ,  9-C ) :   1.0589
B(  9-C , 10-H ) :   0.9603 B(  9-C , 11-H ) :   0.9543 B(  9-C , 12-C ) :   1.0763
B( 12-C , 13-H ) :   0.9754 B( 12-C , 14-H ) :   0.9753 B( 12-C , 15-H ) :   0.9749
B( 16-S , 17-C ) :   1.1683 B( 16-S , 20-C ) :   1.1505 B( 17-C , 18-C ) :   1.5819
B( 17-C , 20-C ) :   0.1002 B( 17-C , 33-H ) :   0.9606 B( 18-C , 19-C ) :   1.2847
B( 18-C , 21-H ) :   0.9927 B( 19-C , 20-C ) :   1.5542 B( 19-C , 22-C ) :   1.0642
B( 22-C , 23-H ) :   0.9312 B( 22-C , 24-H ) :   0.9235 B( 22-C , 25-C ) :   1.0401
B( 25-C , 26-H ) :   0.9572 B( 25-C , 27-H ) :   0.9625 B( 25-C , 28-C ) :   1.0721
B( 28-C , 29-H ) :   0.9762 B( 28-C , 30-H ) :   0.9761 B( 28-C , 31-H ) :   0.9776

Dispersion correction           -0.014080656
FINAL SINGLE POINT ENERGY     -1339.868410124246

DIPOLE MOMENT
-------------
                                X             Y             Z
Electronic contribution:     -6.98646       7.60119      22.58623
Nuclear contribution   :      6.99199      -7.79968     -22.92432
                        -----------------------------------------
Total Dipole Moment    :      0.00553      -0.19848      -0.33809
                        -----------------------------------------
Magnitude (a.u.)       :      0.39208
Magnitude (Debye)      :      0.99660

Rotational constants in cm-1:     0.020218     0.007803     0.006480
Rotational constants in MHz :   606.134395   233.916500   194.251880

                             ****ORCA TERMINATED NORMALLY****
TOTAL RUN TIME: 0 days 0 hours 0 minutes 21 seconds 243 msec
