                         Program Version 4.2.1 -  RELEASE  -
|  1> ! wB97X-D3 SP def2-SVP
|  2> %pal
|  3> nprocs 24
|  4> end
|  5>
|  6> * xyz 0 1
|  7> S 	 -107.771 	 54.6258 	 -95.0188
|  8> C 	 -108.243 	 55.2619 	 -96.5352
|  9> C 	 -109.531 	 55.7456 	 -96.5606
| 10> C 	 -110.268 	 55.287 	 -95.4177
| 11> C 	 -109.497 	 54.5751 	 -94.5497
| 12> H 	 -111.331 	 55.4406 	 -95.3181
| 13> C 	 -110.205 	 56.4879 	 -97.7101
| 14> H 	 -111.146 	 56.9289 	 -97.2668
| 15> H 	 -110.33 	 55.8173 	 -98.5637
| 16> C 	 -109.398 	 57.6552 	 -98.2712
| 17> H 	 -109.153 	 58.4168 	 -97.5127
| 18> H 	 -108.443 	 57.2675 	 -98.5881
| 19> C 	 -110.009 	 58.4191 	 -99.5042
| 20> H 	 -110.355 	 57.6594 	 -100.245
| 21> H 	 -110.905 	 58.9271 	 -99.2428
| 22> H 	 -109.218 	 59.1097 	 -99.9938
| 23> S 	 -108.886 	 55.2539 	 -91.9285
| 24> C 	 -109.478 	 54.3268 	 -90.5789
| 25> C 	 -110.511 	 53.5719 	 -91.0715
| 26> C 	 -110.716 	 53.4796 	 -92.4897
| 27> C 	 -109.743 	 54.2198 	 -93.1608
| 28> H 	 -111.121 	 53.0117 	 -90.3344
| 29> C 	 -111.672 	 52.5433 	 -93.1246
| 30> H 	 -112.002 	 53.1067 	 -94.026
| 31> H 	 -112.563 	 52.5476 	 -92.55
| 32> C 	 -111.322 	 51.1279 	 -93.4099
| 33> H 	 -112.263 	 50.5108 	 -93.6772
| 34> H 	 -111.123 	 50.6655 	 -92.4097
| 35> C 	 -110.05 	 50.8965 	 -94.3123
| 36> H 	 -109.32 	 51.6719 	 -94.1486
| 37> H 	 -110.272 	 50.8089 	 -95.3394
| 38> H 	 -109.503 	 49.9752 	 -94.0527
| 39> H 	 -107.568 	 55.3888 	 -97.4345
| 40> H 	 -109.345 	 54.4874 	 -89.4821
| 41> *
| 42>
| 43>                          ****END OF INPUT****

CARTESIAN COORDINATES (ANGSTROEM)
---------------------------------
  S    -107.771000   54.625800  -95.018800
  C    -108.243000   55.261900  -96.535200
  C    -109.531000   55.745600  -96.560600
  C    -110.268000   55.287000  -95.417700
  C    -109.497000   54.575100  -94.549700
  H    -111.331000   55.440600  -95.318100
  C    -110.205000   56.487900  -97.710100
  H    -111.146000   56.928900  -97.266800
  H    -110.330000   55.817300  -98.563700
  C    -109.398000   57.655200  -98.271200
  H    -109.153000   58.416800  -97.512700
  H    -108.443000   57.267500  -98.588100
  C    -110.009000   58.419100  -99.504200
  H    -110.355000   57.659400  -100.245000
  H    -110.905000   58.927100  -99.242800
  H    -109.218000   59.109700  -99.993800
  S    -108.886000   55.253900  -91.928500
  C    -109.478000   54.326800  -90.578900
  C    -110.511000   53.571900  -91.071500
  C    -110.716000   53.479600  -92.489700
  C    -109.743000   54.219800  -93.160800
  H    -111.121000   53.011700  -90.334400
  C    -111.672000   52.543300  -93.124600
  H    -112.002000   53.106700  -94.026000
  H    -112.563000   52.547600  -92.550000
  C    -111.322000   51.127900  -93.409900
  H    -112.263000   50.510800  -93.677200
  H    -111.123000   50.665500  -92.409700
  C    -110.050000   50.896500  -94.312300
  H    -109.320000   51.671900  -94.148600
  H    -110.272000   50.808900  -95.339400
  H    -109.503000   49.975200  -94.052700
  H    -107.568000   55.388800  -97.434500
  H    -109.345000   54.487400  -89.482100

 Total Charge           Charge          ....    0
 Multiplicity           Mult            ....    1
 Number of Electrons    NEL             ....  134
 Basis Dimension        Dim             ....  322

ORBITAL ENERGIES
----------------

  NO   OCC          E(Eh)            E(eV)
   0   2.0000     -88.968863     -2420.9658
   1   2.0000     -88.959344     -2420.7068
   2   2.0000     -10.331567      -281.1362
   3   2.0000     -10.331240      -281.1273
   4   2.0000     -10.317425      -280.7514
   5   2.0000     -10.316225      -280.7187
   6   2.0000     -10.302614      -280.3484
   7   2.0000     -10.301789      -280.3259
   8   2.0000     -10.300804      -280.2991
   9   2.0000     -10.299414      -280.2613
  10   2.0000     -10.294062      -280.1157
  11   2.0000     -10.291490      -280.0457
  12   2.0000     -10.288920      -279.9757
  13   2.0000     -10.287990      -279.9504
  14   2.0000     -10.284995      -279.8689
  15   2.0000     -10.269257      -279.4407
  16   2.0000      -8.083597      -219.9658
  17   2.0000      -8.073315      -219.6861
  18   2.0000      -6.042065      -164.4130
  19   2.0000      -6.038252      -164.3092
  20   2.0000      -6.034221      -164.1995
  21   2.0000      -6.032053      -164.1405
  22   2.0000      -6.027986      -164.0298
  23   2.0000      -6.023771      -163.9151
  24   2.0000      -1.008189       -27.4342
  25   2.0000      -0.983276       -26.7563
  26   2.0000      -0.910762       -24.7831
  27   2.0000      -0.909949       -24.7610
  28   2.0000      -0.867793       -23.6138
  29   2.0000      -0.853351       -23.2209
  30   2.0000      -0.838505       -22.8169
  31   2.0000      -0.810588       -22.0572
  32   2.0000      -0.784963       -21.3599
  33   2.0000      -0.771733       -20.9999
  34   2.0000      -0.707607       -19.2550
  35   2.0000      -0.700948       -19.0738
  36   2.0000      -0.691377       -18.8133
  37   2.0000      -0.654835       -17.8190
  38   2.0000      -0.637459       -17.3461
  39   2.0000      -0.620870       -16.8947
  40   2.0000      -0.588865       -16.0238
  41   2.0000      -0.572380       -15.5753
  42   2.0000      -0.559165       -15.2157
  43   2.0000      -0.551412       -15.0047
  44   2.0000      -0.535493       -14.5715
  45   2.0000      -0.518074       -14.0975
  46   2.0000      -0.516150       -14.0452
  47   2.0000      -0.512018       -13.9327
  48   2.0000      -0.504423       -13.7260
  49   2.0000      -0.494532       -13.4569
  50   2.0000      -0.491292       -13.3687
  51   2.0000      -0.479068       -13.0361
  52   2.0000      -0.476332       -12.9616
  53   2.0000      -0.461875       -12.5683
  54   2.0000      -0.458754       -12.4833
  55   2.0000      -0.448294       -12.1987
  56   2.0000      -0.441137       -12.0040
  57   2.0000      -0.435058       -11.8385
  58   2.0000      -0.429822       -11.6960
  59   2.0000      -0.423297       -11.5185
  60   2.0000      -0.420399       -11.4396
  61   2.0000      -0.410273       -11.1641
  62   2.0000      -0.400921       -10.9096
  63   2.0000      -0.349955        -9.5228
  64   2.0000      -0.332642        -9.0516
  65   2.0000      -0.321327        -8.7438
  66   2.0000      -0.294827        -8.0226
  67   0.0000       0.028144         0.7659
  68   0.0000       0.054208         1.4751
  69   0.0000       0.106938         2.9099
  70   0.0000       0.113701         3.0940
  71   0.0000       0.123605         3.3635

MULLIKEN ATOMIC CHARGES
-----------------------
   0 S :    0.118321
   1 C :   -0.124594
   2 C :   -0.103120
   3 C :    0.056578
   4 C :   -0.168122
   5 H :    0.018052
   6 C :    0.067849
   7 H :    0.035065
   8 H :    0.045664
   9 C :   -0.110895
  10 H :    0.035519
  11 H :    0.014816
  12 C :   -0.064201
  13 H :    0.025806
  14 H :    0.030023
  15 H :    0.059181
  16 S :    0.081008
  17 C :   -0.089864
  18 C :   -0.067377
  19 C :   -0.036918
  20 C :   -0.155873
  21 H :    0.020349
  22 C :    0.099687
  23 H :    0.014701
  24 H :    0.005105
  25 C :   -0.077419
  26 H :    0.040727
  27 H :    0.020584
  28 C :   -0.024654
  29 H :    0.032704
  30 H :    0.029865
  31 H :    0.026835
  32 H :    0.068014
  33 H :    0.076582
Sum of atomic charges:    0.0000000

LOEWDIN ATOMIC CHARGES
----------------------
   0 S :    0.413496
   1 C :   -0.206862
   2 C :   -0.070298
   3 C :   -0.044154
   4 C :   -0.188003
   5 H :    0.033714
   6 C :   -0.033522
   7 H :    0.036830
   8 H :    0.036696
   9 C :   -0.046833
  10 H :    0.025738
  11 H :    0.015043
  12 C :   -0.071235
  13 H :    0.025185
  14 H :    0.017385
  15 H :    0.041281
  16 S :    0.372570
  17 C :   -0.202425
  18 C :   -0.078800
  19 C :   -0.063354
  20 C :   -0.174273
  21 H :    0.029405
  22 C :   -0.042947
  23 H :    0.032620
  24 H :    0.030151
  25 C :   -0.046724
  26 H :    0.035851
  27 H :    0.026166
  28 C :   -0.063822
  29 H :    0.025741
  30 H :    0.019784
  31 H :    0.030085
  32 H :    0.038753
  33 H :    0.046758

  Mayer bond orders larger than 0.100000
B(  0-S ,  1-C ) :   1.1496 B(  0-S ,  4-C ) :   1.1345 B(  1-C ,  2-C ) :   1.6183
B(  1-C , 32-H ) :   0.9565 B(  2-C ,  3-C ) :   1.2456 B(  2-C ,  6-C ) :   1.0173
B(  3-C ,  4-C ) :   1.5806 B(  3-C ,  5-H ) :   0.9955 B(  4-C , 20-C ) :   1.0286
B(  6-C ,  7-H ) :   0.9442 B(  6-C ,  8-H ) :   0.9353 B(  6-C ,  9-C ) :   1.0651
B(  9-C , 10-H ) :   0.9588 B(  9-C , 11-H ) :   0.9541 B(  9-C , 12-C ) :   1.0773
B( 12-C , 13-H ) :   0.9728 B( 12-C , 14-H ) :   0.9770 B( 12-C , 15-H ) :   0.9746
B( 16-S , 17-C ) :   1.1277 B( 16-S , 20-C ) :   1.1345 B( 17-C , 18-C ) :   1.6306
B( 17-C , 20-C ) :   0.1010 B( 17-C , 33-H ) :   0.9608 B( 18-C , 19-C ) :   1.2267
B( 18-C , 21-H ) :   0.9786 B( 19-C , 20-C ) :   1.5907 B( 19-C , 22-C ) :   1.0586
B( 22-C , 23-H ) :   0.9201 B( 22-C , 24-H ) :   0.9143 B( 22-C , 25-C ) :   1.0870
B( 25-C , 26-H ) :   0.9518 B( 25-C , 27-H ) :   0.9516 B( 25-C , 28-C ) :   1.0592
B( 28-C , 29-H ) :   0.9738 B( 28-C , 30-H ) :   0.9785 B( 28-C , 31-H ) :   0.9750

Dispersion correction           -0.014358964
FINAL SINGLE POINT ENERGY     -1339.860623242035

DIPOLE MOMENT
-------------
                                X             Y             Z
Electronic contribution:     11.45170       1.79947      17.87459
Nuclear contribution   :    -11.96918      -1.75755     -18.19822
                        -----------------------------------------
Total Dipole Moment    :     -0.51748       0.04192      -0.32363
                        -----------------------------------------
Magnitude (a.u.)       :      0.61178
Magnitude (Debye)      :      1.55503

Rotational constants in cm-1:     0.022988     0.007323     0.006576
Rotational constants in MHz :   689.162613   219.546057   197.129148

                             ****ORCA TERMINATED NORMALLY****
TOTAL RUN TIME: 0 days 0 hours 0 minutes 20 seconds 270 msec
