                         Program Version 4.2.1 -  RELEASE  -
|  1> ! wB97X-D3 SP def2-SVP
|  2> %pal
|  3> nprocs 24
|  4> end
|  5>
|  6> * xyz 0 1
|  7> S 	 -60.9528 	 -58.6729 	 -80.1653
|  8> C 	 -60.1948 	 -58.523 	 -78.5811
|  9> C 	 -58.9804 	 -57.8666 	 -78.707
| 10> C 	 -58.8063 	 -57.2641 	 -79.9846
| 11> C 	 -59.8574 	 -57.5024 	 -80.8474
| 12> H 	 -57.9707 	 -56.7621 	 -80.4793
| 13> C 	 -57.901 	 -57.6691 	 -77.6446
| 14> H 	 -57.0133 	 -57.8289 	 -78.2388
| 15> H 	 -58.01 	 -58.3843 	 -76.9291
| 16> C 	 -57.8966 	 -56.3282 	 -76.9675
| 17> H 	 -57.8447 	 -55.5499 	 -77.6705
| 18> H 	 -58.8908 	 -56.3311 	 -76.4659
| 19> C 	 -56.779 	 -56.1954 	 -75.9449
| 20> H 	 -55.8914 	 -56.0188 	 -76.5209
| 21> H 	 -57.0239 	 -55.322 	 -75.3605
| 22> H 	 -56.6426 	 -57.0508 	 -75.3071
| 23> S 	 -60.5953 	 -58.309 	 -83.3737
| 24> C 	 -60.3922 	 -57.2057 	 -84.6808
| 25> C 	 -59.9443 	 -55.9745 	 -84.2687
| 26> C 	 -59.7276 	 -55.8747 	 -82.8744
| 27> C 	 -60.0272 	 -57.0878 	 -82.2515
| 28> H 	 -59.7579 	 -55.2907 	 -85.0058
| 29> C 	 -59.153 	 -54.6762 	 -82.1478
| 30> H 	 -59.5269 	 -54.9233 	 -81.1134
| 31> H 	 -59.5822 	 -53.7643 	 -82.5441
| 32> C 	 -57.5658 	 -54.5275 	 -82.2904
| 33> H 	 -57.2588 	 -54.1302 	 -83.2531
| 34> H 	 -57.1077 	 -55.5238 	 -82.2353
| 35> C 	 -56.843 	 -53.6374 	 -81.2612
| 36> H 	 -55.7888 	 -53.7821 	 -81.4988
| 37> H 	 -56.9355 	 -53.8713 	 -80.1787
| 38> H 	 -57.0523 	 -52.6047 	 -81.5339
| 39> H 	 -60.5542 	 -58.9305 	 -77.6841
| 40> H 	 -60.5512 	 -57.6082 	 -85.6448
| 41> *
| 42>
| 43>                          ****END OF INPUT****

CARTESIAN COORDINATES (ANGSTROEM)
---------------------------------
  S    -60.952800  -58.672900  -80.165300
  C    -60.194800  -58.523000  -78.581100
  C    -58.980400  -57.866600  -78.707000
  C    -58.806300  -57.264100  -79.984600
  C    -59.857400  -57.502400  -80.847400
  H    -57.970700  -56.762100  -80.479300
  C    -57.901000  -57.669100  -77.644600
  H    -57.013300  -57.828900  -78.238800
  H    -58.010000  -58.384300  -76.929100
  C    -57.896600  -56.328200  -76.967500
  H    -57.844700  -55.549900  -77.670500
  H    -58.890800  -56.331100  -76.465900
  C    -56.779000  -56.195400  -75.944900
  H    -55.891400  -56.018800  -76.520900
  H    -57.023900  -55.322000  -75.360500
  H    -56.642600  -57.050800  -75.307100
  S    -60.595300  -58.309000  -83.373700
  C    -60.392200  -57.205700  -84.680800
  C    -59.944300  -55.974500  -84.268700
  C    -59.727600  -55.874700  -82.874400
  C    -60.027200  -57.087800  -82.251500
  H    -59.757900  -55.290700  -85.005800
  C    -59.153000  -54.676200  -82.147800
  H    -59.526900  -54.923300  -81.113400
  H    -59.582200  -53.764300  -82.544100
  C    -57.565800  -54.527500  -82.290400
  H    -57.258800  -54.130200  -83.253100
  H    -57.107700  -55.523800  -82.235300
  C    -56.843000  -53.637400  -81.261200
  H    -55.788800  -53.782100  -81.498800
  H    -56.935500  -53.871300  -80.178700
  H    -57.052300  -52.604700  -81.533900
  H    -60.554200  -58.930500  -77.684100
  H    -60.551200  -57.608200  -85.644800

 Total Charge           Charge          ....    0
 Multiplicity           Mult            ....    1
 Number of Electrons    NEL             ....  134
 Basis Dimension        Dim             ....  322

ORBITAL ENERGIES
----------------

  NO   OCC          E(Eh)            E(eV)
   0   2.0000     -88.964019     -2420.8340
   1   2.0000     -88.963008     -2420.8065
   2   2.0000     -10.327886      -281.0361
   3   2.0000     -10.326147      -280.9887
   4   2.0000     -10.311693      -280.5954
   5   2.0000     -10.310818      -280.5716
   6   2.0000     -10.303188      -280.3640
   7   2.0000     -10.301399      -280.3153
   8   2.0000     -10.298590      -280.2389
   9   2.0000     -10.295015      -280.1416
  10   2.0000     -10.291672      -280.0506
  11   2.0000     -10.286730      -279.9162
  12   2.0000     -10.283368      -279.8247
  13   2.0000     -10.279800      -279.7276
  14   2.0000     -10.279405      -279.7168
  15   2.0000     -10.273644      -279.5601
  16   2.0000      -8.079646      -219.8583
  17   2.0000      -8.077850      -219.8095
  18   2.0000      -6.038007      -164.3025
  19   2.0000      -6.036410      -164.2591
  20   2.0000      -6.034046      -164.1947
  21   2.0000      -6.032476      -164.1520
  22   2.0000      -6.030512      -164.0986
  23   2.0000      -6.028428      -164.0419
  24   2.0000      -1.008960       -27.4552
  25   2.0000      -0.986045       -26.8317
  26   2.0000      -0.919754       -25.0278
  27   2.0000      -0.903838       -24.5947
  28   2.0000      -0.870325       -23.6827
  29   2.0000      -0.858201       -23.3528
  30   2.0000      -0.846676       -23.0392
  31   2.0000      -0.817119       -22.2349
  32   2.0000      -0.786136       -21.3919
  33   2.0000      -0.773375       -21.0446
  34   2.0000      -0.703883       -19.1536
  35   2.0000      -0.699944       -19.0465
  36   2.0000      -0.697223       -18.9724
  37   2.0000      -0.667055       -18.1515
  38   2.0000      -0.645782       -17.5726
  39   2.0000      -0.621406       -16.9093
  40   2.0000      -0.595762       -16.2115
  41   2.0000      -0.576748       -15.6941
  42   2.0000      -0.569011       -15.4836
  43   2.0000      -0.561146       -15.2695
  44   2.0000      -0.531071       -14.4512
  45   2.0000      -0.530550       -14.4370
  46   2.0000      -0.518259       -14.1026
  47   2.0000      -0.514859       -14.0100
  48   2.0000      -0.506215       -13.7748
  49   2.0000      -0.498273       -13.5587
  50   2.0000      -0.494343       -13.4518
  51   2.0000      -0.484432       -13.1821
  52   2.0000      -0.471812       -12.8387
  53   2.0000      -0.469303       -12.7704
  54   2.0000      -0.462118       -12.5749
  55   2.0000      -0.449118       -12.2211
  56   2.0000      -0.443318       -12.0633
  57   2.0000      -0.439148       -11.9498
  58   2.0000      -0.432815       -11.7775
  59   2.0000      -0.426948       -11.6178
  60   2.0000      -0.424232       -11.5439
  61   2.0000      -0.422138       -11.4870
  62   2.0000      -0.410561       -11.1719
  63   2.0000      -0.352404        -9.5894
  64   2.0000      -0.333382        -9.0718
  65   2.0000      -0.327721        -8.9178
  66   2.0000      -0.284541        -7.7428
  67   0.0000       0.027116         0.7379
  68   0.0000       0.073055         1.9879
  69   0.0000       0.102569         2.7910
  70   0.0000       0.122099         3.3225
  71   0.0000       0.129753         3.5308

MULLIKEN ATOMIC CHARGES
-----------------------
   0 S :    0.094052
   1 C :   -0.097070
   2 C :   -0.092279
   3 C :    0.007089
   4 C :   -0.145472
   5 H :    0.003945
   6 C :    0.126269
   7 H :    0.017982
   8 H :   -0.014509
   9 C :   -0.075654
  10 H :    0.015561
  11 H :    0.024108
  12 C :   -0.004811
  13 H :    0.023603
  14 H :    0.035393
  15 H :    0.028245
  16 S :    0.099833
  17 C :   -0.084304
  18 C :    0.006995
  19 C :   -0.038832
  20 C :   -0.152129
  21 H :   -0.019831
  22 C :    0.071638
  23 H :    0.052591
  24 H :    0.025812
  25 C :   -0.095242
  26 H :    0.025547
  27 H :    0.033095
  28 C :   -0.053650
  29 H :    0.029302
  30 H :    0.048510
  31 H :    0.034773
  32 H :    0.024177
  33 H :    0.045262
Sum of atomic charges:   -0.0000000

LOEWDIN ATOMIC CHARGES
----------------------
   0 S :    0.395161
   1 C :   -0.188874
   2 C :   -0.053308
   3 C :   -0.077256
   4 C :   -0.186086
   5 H :    0.034898
   6 C :   -0.020835
   7 H :    0.029740
   8 H :    0.012861
   9 C :   -0.033593
  10 H :    0.014707
  11 H :    0.026919
  12 C :   -0.056004
  13 H :    0.023878
  14 H :    0.028593
  15 H :    0.022630
  16 S :    0.410504
  17 C :   -0.177582
  18 C :   -0.061303
  19 C :   -0.057041
  20 C :   -0.198106
  21 H :    0.017629
  22 C :   -0.033387
  23 H :    0.042682
  24 H :    0.029037
  25 C :   -0.040142
  26 H :    0.025724
  27 H :    0.019478
  28 C :   -0.069839
  29 H :    0.029459
  30 H :    0.027551
  31 H :    0.025334
  32 H :    0.018178
  33 H :    0.018392

  Mayer bond orders larger than 0.100000
B(  0-S ,  1-C ) :   1.1249 B(  0-S ,  4-C ) :   1.1526 B(  1-C ,  2-C ) :   1.6120
B(  1-C , 32-H ) :   0.9806 B(  2-C ,  3-C ) :   1.2115 B(  2-C ,  6-C ) :   1.0216
B(  3-C ,  4-C ) :   1.5763 B(  3-C ,  5-H ) :   0.9903 B(  4-C , 20-C ) :   1.0335
B(  6-C ,  7-H ) :   0.9330 B(  6-C ,  8-H ) :   0.9315 B(  6-C ,  9-C ) :   1.0757
B(  9-C , 10-H ) :   0.9559 B(  9-C , 11-H ) :   0.9524 B(  9-C , 12-C ) :   1.0850
B( 12-C , 13-H ) :   0.9742 B( 12-C , 14-H ) :   0.9733 B( 12-C , 15-H ) :   0.9744
B( 16-S , 17-C ) :   1.1640 B( 16-S , 20-C ) :   1.1540 B( 17-C , 18-C ) :   1.5841
B( 17-C , 33-H ) :   0.9777 B( 18-C , 19-C ) :   1.2263 B( 18-C , 21-H ) :   1.0158
B( 19-C , 20-C ) :   1.5835 B( 19-C , 22-C ) :   1.0468 B( 22-C , 23-H ) :   0.9359
B( 22-C , 24-H ) :   0.9305 B( 22-C , 25-C ) :   1.0403 B( 25-C , 26-H ) :   0.9516
B( 25-C , 27-H ) :   0.9617 B( 25-C , 28-C ) :   1.0837 B( 28-C , 29-H ) :   0.9717
B( 28-C , 30-H ) :   0.9759 B( 28-C , 31-H ) :   0.9755

Dispersion correction           -0.014390669
FINAL SINGLE POINT ENERGY     -1339.870937274387

DIPOLE MOMENT
-------------
                                X             Y             Z
Electronic contribution:    -21.76356     -19.34463     -16.52377
Nuclear contribution   :     22.37592      19.75268      16.58311
                        -----------------------------------------
Total Dipole Moment    :      0.61236       0.40805       0.05934
                        -----------------------------------------
Magnitude (a.u.)       :      0.73825
Magnitude (Debye)      :      1.87649

Rotational constants in cm-1:     0.018270     0.009485     0.006501
Rotational constants in MHz :   547.707447   284.342828   194.889796

                             ****ORCA TERMINATED NORMALLY****
TOTAL RUN TIME: 0 days 0 hours 0 minutes 20 seconds 977 msec
