                         Program Version 4.2.1 -  RELEASE  -
|  1> ! wB97X-D3 SP def2-SVP
|  2> %pal
|  3> nprocs 24
|  4> end
|  5>
|  6> * xyz 0 1
|  7> S 	 -107.259 	 55.3385 	 -85.9396
|  8> C 	 -109 	 55.4663 	 -85.6161
|  9> C 	 -109.565 	 56.5759 	 -86.2862
| 10> C 	 -108.505 	 57.3401 	 -86.9264
| 11> C 	 -107.269 	 56.8486 	 -86.745
| 12> H 	 -108.765 	 58.1399 	 -87.5651
| 13> C 	 -111.049 	 56.9725 	 -86.3611
| 14> H 	 -111.758 	 56.1208 	 -86.337
| 15> H 	 -111.188 	 57.2959 	 -87.4046
| 16> C 	 -111.471 	 57.9923 	 -85.3397
| 17> H 	 -110.705 	 58.7731 	 -85.3562
| 18> H 	 -112.405 	 58.4275 	 -85.5534
| 19> C 	 -111.579 	 57.6181 	 -83.8831
| 20> H 	 -112.557 	 57.1226 	 -83.6509
| 21> H 	 -110.72 	 56.9759 	 -83.7271
| 22> H 	 -111.483 	 58.6064 	 -83.241
| 23> S 	 -104.898 	 56.3177 	 -87.917
| 24> C 	 -103.863 	 57.6988 	 -88.2352
| 25> C 	 -104.277 	 58.8426 	 -87.5269
| 26> C 	 -105.56 	 58.6837 	 -87.0021
| 27> C 	 -106.077 	 57.4098 	 -87.2093
| 28> H 	 -103.686 	 59.7474 	 -87.4977
| 29> C 	 -106.352 	 59.823 	 -86.4059
| 30> H 	 -107.115 	 60.0499 	 -87.0013
| 31> H 	 -105.804 	 60.7311 	 -86.4748
| 32> C 	 -106.902 	 59.6106 	 -84.8976
| 33> H 	 -106.071 	 59.458 	 -84.1761
| 34> H 	 -107.5 	 58.7499 	 -84.8955
| 35> C 	 -107.739 	 60.8348 	 -84.3759
| 36> H 	 -107.305 	 61.8692 	 -84.3733
| 37> H 	 -108.146 	 60.5655 	 -83.3389
| 38> H 	 -108.618 	 61.0279 	 -85.0624
| 39> H 	 -109.621 	 54.8118 	 -84.9812
| 40> H 	 -102.882 	 57.6238 	 -88.6535
| 41> *
| 42>
| 43>                          ****END OF INPUT****

CARTESIAN COORDINATES (ANGSTROEM)
---------------------------------
  S    -107.259000   55.338500  -85.939600
  C    -109.000000   55.466300  -85.616100
  C    -109.565000   56.575900  -86.286200
  C    -108.505000   57.340100  -86.926400
  C    -107.269000   56.848600  -86.745000
  H    -108.765000   58.139900  -87.565100
  C    -111.049000   56.972500  -86.361100
  H    -111.758000   56.120800  -86.337000
  H    -111.188000   57.295900  -87.404600
  C    -111.471000   57.992300  -85.339700
  H    -110.705000   58.773100  -85.356200
  H    -112.405000   58.427500  -85.553400
  C    -111.579000   57.618100  -83.883100
  H    -112.557000   57.122600  -83.650900
  H    -110.720000   56.975900  -83.727100
  H    -111.483000   58.606400  -83.241000
  S    -104.898000   56.317700  -87.917000
  C    -103.863000   57.698800  -88.235200
  C    -104.277000   58.842600  -87.526900
  C    -105.560000   58.683700  -87.002100
  C    -106.077000   57.409800  -87.209300
  H    -103.686000   59.747400  -87.497700
  C    -106.352000   59.823000  -86.405900
  H    -107.115000   60.049900  -87.001300
  H    -105.804000   60.731100  -86.474800
  C    -106.902000   59.610600  -84.897600
  H    -106.071000   59.458000  -84.176100
  H    -107.500000   58.749900  -84.895500
  C    -107.739000   60.834800  -84.375900
  H    -107.305000   61.869200  -84.373300
  H    -108.146000   60.565500  -83.338900
  H    -108.618000   61.027900  -85.062400
  H    -109.621000   54.811800  -84.981200
  H    -102.882000   57.623800  -88.653500

 Total Charge           Charge          ....    0
 Multiplicity           Mult            ....    1
 Number of Electrons    NEL             ....  134
 Basis Dimension        Dim             ....  322

ORBITAL ENERGIES
----------------

  NO   OCC          E(Eh)            E(eV)
   0   2.0000     -88.969594     -2420.9857
   1   2.0000     -88.968503     -2420.9560
   2   2.0000     -10.320885      -280.8456
   3   2.0000     -10.320096      -280.8241
   4   2.0000     -10.319515      -280.8083
   5   2.0000     -10.318220      -280.7730
   6   2.0000     -10.308526      -280.5092
   7   2.0000     -10.300846      -280.3003
   8   2.0000     -10.298750      -280.2432
   9   2.0000     -10.295388      -280.1518
  10   2.0000     -10.291874      -280.0561
  11   2.0000     -10.289485      -279.9911
  12   2.0000     -10.287835      -279.9462
  13   2.0000     -10.285601      -279.8854
  14   2.0000     -10.282485      -279.8006
  15   2.0000     -10.278245      -279.6853
  16   2.0000      -8.084175      -219.9816
  17   2.0000      -8.083654      -219.9674
  18   2.0000      -6.042523      -164.4254
  19   2.0000      -6.042253      -164.4181
  20   2.0000      -6.038872      -164.3261
  21   2.0000      -6.038227      -164.3085
  22   2.0000      -6.034954      -164.2194
  23   2.0000      -6.034147      -164.1975
  24   2.0000      -1.015619       -27.6364
  25   2.0000      -0.983721       -26.7684
  26   2.0000      -0.917810       -24.9749
  27   2.0000      -0.900244       -24.4969
  28   2.0000      -0.873530       -23.7700
  29   2.0000      -0.851263       -23.1641
  30   2.0000      -0.846435       -23.0327
  31   2.0000      -0.811918       -22.0934
  32   2.0000      -0.785598       -21.3772
  33   2.0000      -0.772197       -21.0126
  34   2.0000      -0.709792       -19.3144
  35   2.0000      -0.697621       -18.9832
  36   2.0000      -0.690597       -18.7921
  37   2.0000      -0.666653       -18.1406
  38   2.0000      -0.639654       -17.4059
  39   2.0000      -0.627261       -17.0686
  40   2.0000      -0.599261       -16.3067
  41   2.0000      -0.576987       -15.7006
  42   2.0000      -0.558762       -15.2047
  43   2.0000      -0.546169       -14.8620
  44   2.0000      -0.541436       -14.7332
  45   2.0000      -0.525564       -14.3013
  46   2.0000      -0.513067       -13.9613
  47   2.0000      -0.507233       -13.8025
  48   2.0000      -0.501373       -13.6431
  49   2.0000      -0.497557       -13.5392
  50   2.0000      -0.494402       -13.4534
  51   2.0000      -0.480658       -13.0794
  52   2.0000      -0.469167       -12.7667
  53   2.0000      -0.468754       -12.7555
  54   2.0000      -0.459348       -12.4995
  55   2.0000      -0.453847       -12.3498
  56   2.0000      -0.448821       -12.2130
  57   2.0000      -0.439740       -11.9659
  58   2.0000      -0.430961       -11.7271
  59   2.0000      -0.423591       -11.5265
  60   2.0000      -0.417835       -11.3699
  61   2.0000      -0.415648       -11.3103
  62   2.0000      -0.405506       -11.0344
  63   2.0000      -0.350156        -9.5282
  64   2.0000      -0.336283        -9.1507
  65   2.0000      -0.332688        -9.0529
  66   2.0000      -0.284509        -7.7419
  67   0.0000       0.023708         0.6451
  68   0.0000       0.062560         1.7023
  69   0.0000       0.099427         2.7055
  70   0.0000       0.119641         3.2556
  71   0.0000       0.120929         3.2907

MULLIKEN ATOMIC CHARGES
-----------------------
   0 S :    0.115609
   1 C :   -0.127264
   2 C :   -0.115304
   3 C :    0.002626
   4 C :   -0.118065
   5 H :   -0.001025
   6 C :    0.066918
   7 H :    0.023542
   8 H :    0.030577
   9 C :   -0.042066
  10 H :    0.018818
  11 H :    0.016951
  12 C :   -0.087337
  13 H :    0.041365
  14 H :    0.028144
  15 H :    0.053186
  16 S :    0.109740
  17 C :   -0.080054
  18 C :   -0.046321
  19 C :   -0.014255
  20 C :   -0.152726
  21 H :    0.018972
  22 C :    0.132377
  23 H :   -0.011069
  24 H :   -0.007144
  25 C :   -0.060152
  26 H :    0.040516
  27 H :    0.044829
  28 C :   -0.110631
  29 H :    0.041492
  30 H :    0.052146
  31 H :    0.028879
  32 H :    0.056272
  33 H :    0.050452
Sum of atomic charges:   -0.0000000

LOEWDIN ATOMIC CHARGES
----------------------
   0 S :    0.409290
   1 C :   -0.201327
   2 C :   -0.054458
   3 C :   -0.064509
   4 C :   -0.203334
   5 H :    0.025044
   6 C :   -0.035974
   7 H :    0.031092
   8 H :    0.038042
   9 C :   -0.048352
  10 H :    0.024442
  11 H :    0.017339
  12 C :   -0.070860
  13 H :    0.025596
  14 H :    0.020268
  15 H :    0.042487
  16 S :    0.406129
  17 C :   -0.181211
  18 C :   -0.062810
  19 C :   -0.049303
  20 C :   -0.195853
  21 H :    0.033057
  22 C :   -0.019472
  23 H :    0.011961
  24 H :    0.026034
  25 C :   -0.025839
  26 H :    0.028638
  27 H :    0.017651
  28 C :   -0.085623
  29 H :    0.027608
  30 H :    0.035781
  31 H :    0.023855
  32 H :    0.032220
  33 H :    0.022387

  Mayer bond orders larger than 0.100000
B(  0-S ,  1-C ) :   1.1237 B(  0-S ,  4-C ) :   1.1327 B(  1-C ,  2-C ) :   1.6219
B(  1-C , 32-H ) :   0.9640 B(  2-C ,  3-C ) :   1.2212 B(  2-C ,  6-C ) :   1.0177
B(  3-C ,  4-C ) :   1.5719 B(  3-C ,  5-H ) :   1.0097 B(  4-C , 20-C ) :   1.0886
B(  6-C ,  7-H ) :   0.9439 B(  6-C ,  8-H ) :   0.9368 B(  6-C ,  9-C ) :   1.0708
B(  9-C , 10-H ) :   0.9548 B(  9-C , 11-H ) :   0.9529 B(  9-C , 12-C ) :   1.0763
B( 12-C , 13-H ) :   0.9752 B( 12-C , 14-H ) :   0.9735 B( 12-C , 15-H ) :   0.9735
B( 16-S , 17-C ) :   1.1613 B( 16-S , 20-C ) :   1.1351 B( 17-C , 18-C ) :   1.5777
B( 17-C , 20-C ) :   0.1143 B( 17-C , 33-H ) :   0.9687 B( 18-C , 19-C ) :   1.2796
B( 18-C , 21-H ) :   0.9897 B( 19-C , 20-C ) :   1.5528 B( 19-C , 22-C ) :   1.0412
B( 22-C , 23-H ) :   0.9267 B( 22-C , 24-H ) :   0.9251 B( 22-C , 25-C ) :   1.0399
B( 25-C , 26-H ) :   0.9602 B( 25-C , 27-H ) :   0.9571 B( 25-C , 28-C ) :   1.0730
B( 28-C , 29-H ) :   0.9757 B( 28-C , 30-H ) :   0.9740 B( 28-C , 31-H ) :   0.9729

Dispersion correction           -0.015750033
FINAL SINGLE POINT ENERGY     -1339.855046776172

DIPOLE MOMENT
-------------
                                X             Y             Z
Electronic contribution:     21.04865     -19.70421     -13.88772
Nuclear contribution   :    -21.37659      20.24248      13.90405
                        -----------------------------------------
Total Dipole Moment    :     -0.32794       0.53827       0.01633
                        -----------------------------------------
Magnitude (a.u.)       :      0.63051
Magnitude (Debye)      :      1.60262

Rotational constants in cm-1:     0.020830     0.009726     0.007356
Rotational constants in MHz :   624.478884   291.585352   220.536518

                             ****ORCA TERMINATED NORMALLY****
TOTAL RUN TIME: 0 days 0 hours 0 minutes 23 seconds 115 msec
