                         Program Version 4.2.1 -  RELEASE  -
|  1> ! wB97X-D3 SP def2-SVP
|  2> %pal
|  3> nprocs 24
|  4> end
|  5>
|  6> * xyz 0 1
|  7> S 	 -59.9927 	 13.079 	 -96.8189
|  8> C 	 -59.5319 	 14.737 	 -96.5667
|  9> C 	 -59.2298 	 15.3133 	 -97.8168
| 10> C 	 -59.2161 	 14.309 	 -98.8598
| 11> C 	 -59.5287 	 13.0245 	 -98.5205
| 12> H 	 -58.9772 	 14.5175 	 -99.9178
| 13> C 	 -58.8466 	 16.762 	 -97.9844
| 14> H 	 -58.5428 	 17.1255 	 -97.0116
| 15> H 	 -59.7295 	 17.3775 	 -98.1167
| 16> C 	 -57.6913 	 17.1425 	 -98.9884
| 17> H 	 -57.9716 	 16.9955 	 -100.084
| 18> H 	 -57.4905 	 18.1464 	 -98.936
| 19> C 	 -56.3599 	 16.4161 	 -98.8679
| 20> H 	 -55.9974 	 16.2786 	 -97.8528
| 21> H 	 -56.4135 	 15.4211 	 -99.3675
| 22> H 	 -55.5897 	 17.0472 	 -99.3263
| 23> S 	 -59.9685 	 10.3247 	 -98.6044
| 24> C 	 -60.3883 	 9.45248 	 -100.042
| 25> C 	 -60.025 	 10.2611 	 -101.115
| 26> C 	 -59.7805 	 11.6119 	 -100.768
| 27> C 	 -59.6745 	 11.8775 	 -99.3715
| 28> H 	 -59.9201 	 9.83223 	 -102.131
| 29> C 	 -59.759 	 12.6658 	 -101.832
| 30> H 	 -59.3021 	 12.3397 	 -102.775
| 31> H 	 -59.038 	 13.3855 	 -101.473
| 32> C 	 -61.0358 	 13.4994 	 -101.893
| 33> H 	 -61.2779 	 13.8248 	 -100.854
| 34> H 	 -61.7973 	 12.8378 	 -102.278
| 35> C 	 -60.8573 	 14.6149 	 -102.986
| 36> H 	 -60.1402 	 15.3872 	 -102.736
| 37> H 	 -61.8014 	 15.1382 	 -103.221
| 38> H 	 -60.5735 	 14.1062 	 -103.873
| 39> H 	 -59.6784 	 15.3201 	 -95.6438
| 40> H 	 -60.2798 	 8.37484 	 -100.172
| 41> *
| 42>
| 43>                          ****END OF INPUT****

CARTESIAN COORDINATES (ANGSTROEM)
---------------------------------
  S    -59.992700   13.079000  -96.818900
  C    -59.531900   14.737000  -96.566700
  C    -59.229800   15.313300  -97.816800
  C    -59.216100   14.309000  -98.859800
  C    -59.528700   13.024500  -98.520500
  H    -58.977200   14.517500  -99.917800
  C    -58.846600   16.762000  -97.984400
  H    -58.542800   17.125500  -97.011600
  H    -59.729500   17.377500  -98.116700
  C    -57.691300   17.142500  -98.988400
  H    -57.971600   16.995500  -100.084000
  H    -57.490500   18.146400  -98.936000
  C    -56.359900   16.416100  -98.867900
  H    -55.997400   16.278600  -97.852800
  H    -56.413500   15.421100  -99.367500
  H    -55.589700   17.047200  -99.326300
  S    -59.968500   10.324700  -98.604400
  C    -60.388300    9.452480  -100.042000
  C    -60.025000   10.261100  -101.115000
  C    -59.780500   11.611900  -100.768000
  C    -59.674500   11.877500  -99.371500
  H    -59.920100    9.832230  -102.131000
  C    -59.759000   12.665800  -101.832000
  H    -59.302100   12.339700  -102.775000
  H    -59.038000   13.385500  -101.473000
  C    -61.035800   13.499400  -101.893000
  H    -61.277900   13.824800  -100.854000
  H    -61.797300   12.837800  -102.278000
  C    -60.857300   14.614900  -102.986000
  H    -60.140200   15.387200  -102.736000
  H    -61.801400   15.138200  -103.221000
  H    -60.573500   14.106200  -103.873000
  H    -59.678400   15.320100  -95.643800
  H    -60.279800    8.374840  -100.172000

 Total Charge           Charge          ....    0
 Multiplicity           Mult            ....    1
 Number of Electrons    NEL             ....  134
 Basis Dimension        Dim             ....  322

ORBITAL ENERGIES
----------------

  NO   OCC          E(Eh)            E(eV)
   0   2.0000     -88.967031     -2420.9160
   1   2.0000     -88.965391     -2420.8714
   2   2.0000     -10.337913      -281.3089
   3   2.0000     -10.335793      -281.2512
   4   2.0000     -10.321490      -280.8620
   5   2.0000     -10.317061      -280.7415
   6   2.0000     -10.309618      -280.5390
   7   2.0000     -10.307559      -280.4829
   8   2.0000     -10.298584      -280.2387
   9   2.0000     -10.298242      -280.2294
  10   2.0000     -10.296950      -280.1943
  11   2.0000     -10.289678      -279.9964
  12   2.0000     -10.289263      -279.9851
  13   2.0000     -10.287061      -279.9252
  14   2.0000     -10.278879      -279.7025
  15   2.0000     -10.277566      -279.6668
  16   2.0000      -8.081509      -219.9091
  17   2.0000      -8.080131      -219.8715
  18   2.0000      -6.040155      -164.3610
  19   2.0000      -6.038699      -164.3214
  20   2.0000      -6.036000      -164.2479
  21   2.0000      -6.034436      -164.2053
  22   2.0000      -6.032125      -164.1425
  23   2.0000      -6.030998      -164.1118
  24   2.0000      -1.010961       -27.5097
  25   2.0000      -0.987434       -26.8694
  26   2.0000      -0.913351       -24.8535
  27   2.0000      -0.909356       -24.7448
  28   2.0000      -0.876918       -23.8621
  29   2.0000      -0.849511       -23.1164
  30   2.0000      -0.842773       -22.9330
  31   2.0000      -0.822288       -22.3756
  32   2.0000      -0.782647       -21.2969
  33   2.0000      -0.771632       -20.9972
  34   2.0000      -0.714240       -19.4355
  35   2.0000      -0.700039       -19.0490
  36   2.0000      -0.695402       -18.9229
  37   2.0000      -0.662854       -18.0372
  38   2.0000      -0.641068       -17.4443
  39   2.0000      -0.625090       -17.0096
  40   2.0000      -0.593108       -16.1393
  41   2.0000      -0.571307       -15.5460
  42   2.0000      -0.566495       -15.4151
  43   2.0000      -0.548941       -14.9374
  44   2.0000      -0.543259       -14.7828
  45   2.0000      -0.525996       -14.3131
  46   2.0000      -0.518155       -14.0997
  47   2.0000      -0.516875       -14.0649
  48   2.0000      -0.509239       -13.8571
  49   2.0000      -0.500972       -13.6321
  50   2.0000      -0.493411       -13.4264
  51   2.0000      -0.487474       -13.2648
  52   2.0000      -0.469706       -12.7813
  53   2.0000      -0.465641       -12.6707
  54   2.0000      -0.459202       -12.4955
  55   2.0000      -0.447151       -12.1676
  56   2.0000      -0.441754       -12.0207
  57   2.0000      -0.439041       -11.9469
  58   2.0000      -0.437588       -11.9074
  59   2.0000      -0.422087       -11.4856
  60   2.0000      -0.417401       -11.3581
  61   2.0000      -0.412708       -11.2304
  62   2.0000      -0.404525       -11.0077
  63   2.0000      -0.368312       -10.0223
  64   2.0000      -0.330444        -8.9918
  65   2.0000      -0.324632        -8.8337
  66   2.0000      -0.284879        -7.7520
  67   0.0000       0.009158         0.2492
  68   0.0000       0.081227         2.2103
  69   0.0000       0.105904         2.8818
  70   0.0000       0.110978         3.0199
  71   0.0000       0.121487         3.3058

MULLIKEN ATOMIC CHARGES
-----------------------
   0 S :    0.108428
   1 C :   -0.121785
   2 C :   -0.104390
   3 C :   -0.032530
   4 C :   -0.072049
   5 H :    0.009435
   6 C :    0.097598
   7 H :    0.006151
   8 H :    0.037505
   9 C :   -0.072282
  10 H :    0.031424
  11 H :    0.010470
  12 C :   -0.061447
  13 H :    0.029298
  14 H :    0.044689
  15 H :    0.031806
  16 S :    0.084125
  17 C :   -0.074817
  18 C :   -0.069679
  19 C :   -0.067991
  20 C :   -0.120588
  21 H :    0.036535
  22 C :    0.037140
  23 H :    0.021670
  24 H :   -0.002213
  25 C :   -0.062288
  26 H :    0.051371
  27 H :    0.025716
  28 C :   -0.031519
  29 H :    0.029262
  30 H :    0.036655
  31 H :    0.021055
  32 H :    0.067681
  33 H :    0.075566
Sum of atomic charges:    0.0000000

LOEWDIN ATOMIC CHARGES
----------------------
   0 S :    0.407065
   1 C :   -0.202664
   2 C :   -0.062381
   3 C :   -0.073857
   4 C :   -0.191124
   5 H :    0.029635
   6 C :   -0.034350
   7 H :    0.029938
   8 H :    0.036200
   9 C :   -0.041623
  10 H :    0.029593
  11 H :    0.013561
  12 C :   -0.068712
  13 H :    0.022798
  14 H :    0.029812
  15 H :    0.029535
  16 S :    0.418357
  17 C :   -0.207314
  18 C :   -0.072683
  19 C :   -0.060408
  20 C :   -0.187598
  21 H :    0.037471
  22 C :   -0.042146
  23 H :    0.029902
  24 H :    0.020953
  25 C :   -0.032013
  26 H :    0.031728
  27 H :    0.022904
  28 C :   -0.061414
  29 H :    0.021112
  30 H :    0.029126
  31 H :    0.021066
  32 H :    0.039262
  33 H :    0.038266

  Mayer bond orders larger than 0.100000
B(  0-S ,  1-C ) :   1.1451 B(  0-S ,  4-C ) :   1.1325 B(  1-C ,  2-C ) :   1.5818
B(  1-C , 32-H ) :   0.9641 B(  2-C ,  3-C ) :   1.2607 B(  2-C ,  6-C ) :   1.0293
B(  3-C ,  4-C ) :   1.5580 B(  3-C ,  5-H ) :   0.9870 B(  4-C , 20-C ) :   1.1155
B(  6-C ,  7-H ) :   0.9356 B(  6-C ,  8-H ) :   0.9301 B(  6-C ,  9-C ) :   1.0681
B(  9-C , 10-H ) :   0.9532 B(  9-C , 11-H ) :   0.9570 B(  9-C , 12-C ) :   1.0801
B( 12-C , 13-H ) :   0.9761 B( 12-C , 14-H ) :   0.9743 B( 12-C , 15-H ) :   0.9734
B( 16-S , 17-C ) :   1.1737 B( 16-S , 20-C ) :   1.1495 B( 17-C , 18-C ) :   1.5630
B( 17-C , 20-C ) :   0.1108 B( 17-C , 33-H ) :   0.9546 B( 18-C , 19-C ) :   1.3097
B( 18-C , 21-H ) :   0.9800 B( 19-C , 20-C ) :   1.5013 B( 19-C , 22-C ) :   1.0490
B( 22-C , 23-H ) :   0.9326 B( 22-C , 24-H ) :   0.9322 B( 22-C , 25-C ) :   1.0526
B( 25-C , 26-H ) :   0.9532 B( 25-C , 27-H ) :   0.9548 B( 25-C , 28-C ) :   1.0707
B( 28-C , 29-H ) :   0.9782 B( 28-C , 30-H ) :   0.9759 B( 28-C , 31-H ) :   0.9729

Dispersion correction           -0.014691001
FINAL SINGLE POINT ENERGY     -1339.862691888286

DIPOLE MOMENT
-------------
                                X             Y             Z
Electronic contribution:     -6.67267     -22.89646      18.01877
Nuclear contribution   :      6.87046      23.48880     -18.55732
                        -----------------------------------------
Total Dipole Moment    :      0.19779       0.59234      -0.53855
                        -----------------------------------------
Magnitude (a.u.)       :      0.82464
Magnitude (Debye)      :      2.09606

Rotational constants in cm-1:     0.017569     0.009864     0.007225
Rotational constants in MHz :   526.715405   295.729890   216.592273

                             ****ORCA TERMINATED NORMALLY****
TOTAL RUN TIME: 0 days 0 hours 0 minutes 21 seconds 258 msec
