                         Program Version 4.2.1 -  RELEASE  -
|  1> ! wB97X-D3 SP def2-SVP
|  2> %pal
|  3> nprocs 24
|  4> end
|  5>
|  6> * xyz 0 1
|  7> S 	 33.2474 	 -31.3516 	 -131.346
|  8> C 	 34.051 	 -30.3126 	 -130.203
|  9> C 	 34.8631 	 -31.0904 	 -129.459
| 10> C 	 34.929 	 -32.4573 	 -129.826
| 11> C 	 33.9931 	 -32.746 	 -130.801
| 12> H 	 35.5327 	 -33.2415 	 -129.363
| 13> C 	 35.8362 	 -30.5492 	 -128.388
| 14> H 	 35.6546 	 -31.2885 	 -127.568
| 15> H 	 35.4503 	 -29.6071 	 -128.023
| 16> C 	 37.2984 	 -30.5867 	 -128.846
| 17> H 	 37.9627 	 -30.2156 	 -128.125
| 18> H 	 37.5191 	 -31.6309 	 -129.05
| 19> C 	 37.5345 	 -29.7787 	 -130.086
| 20> H 	 38.6647 	 -29.7757 	 -130.152
| 21> H 	 37.2048 	 -30.217 	 -130.983
| 22> H 	 37.2051 	 -28.7446 	 -130.014
| 23> S 	 34.229 	 -34.7346 	 -132.689
| 24> C 	 33.4063 	 -36.2248 	 -132.42
| 25> C 	 32.7367 	 -36.2396 	 -131.229
| 26> C 	 32.8533 	 -35.0152 	 -130.51
| 27> C 	 33.5329 	 -34.0156 	 -131.22
| 28> H 	 32.1749 	 -37.1308 	 -130.868
| 29> C 	 32.3455 	 -34.9292 	 -129.079
| 30> H 	 31.521 	 -35.5802 	 -128.811
| 31> H 	 31.9501 	 -33.9462 	 -129.02
| 32> C 	 33.3276 	 -35.0972 	 -127.974
| 33> H 	 32.7295 	 -35.2412 	 -127.094
| 34> H 	 33.7737 	 -34.1427 	 -127.949
| 35> C 	 34.2632 	 -36.2255 	 -128.003
| 36> H 	 35.0825 	 -36.0473 	 -127.33
| 37> H 	 34.862 	 -36.3922 	 -128.948
| 38> H 	 33.7751 	 -37.179 	 -127.801
| 39> H 	 33.9873 	 -29.2712 	 -130.175
| 40> H 	 33.5119 	 -37.1177 	 -133.093
| 41> *
| 42>
| 43>                          ****END OF INPUT****

CARTESIAN COORDINATES (ANGSTROEM)
---------------------------------
  S     33.247400  -31.351600  -131.346000
  C     34.051000  -30.312600  -130.203000
  C     34.863100  -31.090400  -129.459000
  C     34.929000  -32.457300  -129.826000
  C     33.993100  -32.746000  -130.801000
  H     35.532700  -33.241500  -129.363000
  C     35.836200  -30.549200  -128.388000
  H     35.654600  -31.288500  -127.568000
  H     35.450300  -29.607100  -128.023000
  C     37.298400  -30.586700  -128.846000
  H     37.962700  -30.215600  -128.125000
  H     37.519100  -31.630900  -129.050000
  C     37.534500  -29.778700  -130.086000
  H     38.664700  -29.775700  -130.152000
  H     37.204800  -30.217000  -130.983000
  H     37.205100  -28.744600  -130.014000
  S     34.229000  -34.734600  -132.689000
  C     33.406300  -36.224800  -132.420000
  C     32.736700  -36.239600  -131.229000
  C     32.853300  -35.015200  -130.510000
  C     33.532900  -34.015600  -131.220000
  H     32.174900  -37.130800  -130.868000
  C     32.345500  -34.929200  -129.079000
  H     31.521000  -35.580200  -128.811000
  H     31.950100  -33.946200  -129.020000
  C     33.327600  -35.097200  -127.974000
  H     32.729500  -35.241200  -127.094000
  H     33.773700  -34.142700  -127.949000
  C     34.263200  -36.225500  -128.003000
  H     35.082500  -36.047300  -127.330000
  H     34.862000  -36.392200  -128.948000
  H     33.775100  -37.179000  -127.801000
  H     33.987300  -29.271200  -130.175000
  H     33.511900  -37.117700  -133.093000

 Total Charge           Charge          ....    0
 Multiplicity           Mult            ....    1
 Number of Electrons    NEL             ....  134
 Basis Dimension        Dim             ....  322

ORBITAL ENERGIES
----------------

  NO   OCC          E(Eh)            E(eV)
   0   2.0000     -88.963907     -2420.8310
   1   2.0000     -88.961324     -2420.7607
   2   2.0000     -10.322912      -280.9007
   3   2.0000     -10.320262      -280.8286
   4   2.0000     -10.318443      -280.7791
   5   2.0000     -10.305971      -280.4397
   6   2.0000     -10.304116      -280.3893
   7   2.0000     -10.295475      -280.1541
   8   2.0000     -10.292322      -280.0683
   9   2.0000     -10.292019      -280.0601
  10   2.0000     -10.290693      -280.0240
  11   2.0000     -10.280737      -279.7531
  12   2.0000     -10.279250      -279.7126
  13   2.0000     -10.272966      -279.5416
  14   2.0000     -10.271427      -279.4997
  15   2.0000     -10.270139      -279.4647
  16   2.0000      -8.078864      -219.8371
  17   2.0000      -8.078001      -219.8136
  18   2.0000      -6.037345      -164.2845
  19   2.0000      -6.036318      -164.2566
  20   2.0000      -6.033304      -164.1745
  21   2.0000      -6.032003      -164.1391
  22   2.0000      -6.029674      -164.0758
  23   2.0000      -6.029045      -164.0587
  24   2.0000      -1.018200       -27.7066
  25   2.0000      -0.989486       -26.9253
  26   2.0000      -0.920749       -25.0549
  27   2.0000      -0.916658       -24.9435
  28   2.0000      -0.876740       -23.8573
  29   2.0000      -0.850405       -23.1407
  30   2.0000      -0.847979       -23.0747
  31   2.0000      -0.814690       -22.1688
  32   2.0000      -0.789890       -21.4940
  33   2.0000      -0.778022       -21.1711
  34   2.0000      -0.713654       -19.4195
  35   2.0000      -0.697173       -18.9710
  36   2.0000      -0.685548       -18.6547
  37   2.0000      -0.657195       -17.8832
  38   2.0000      -0.647057       -17.6073
  39   2.0000      -0.620238       -16.8775
  40   2.0000      -0.594247       -16.1703
  41   2.0000      -0.576842       -15.6967
  42   2.0000      -0.567010       -15.4291
  43   2.0000      -0.555365       -15.1122
  44   2.0000      -0.546442       -14.8694
  45   2.0000      -0.544779       -14.8242
  46   2.0000      -0.522116       -14.2075
  47   2.0000      -0.513835       -13.9822
  48   2.0000      -0.510129       -13.8813
  49   2.0000      -0.493740       -13.4354
  50   2.0000      -0.492843       -13.4109
  51   2.0000      -0.489712       -13.3258
  52   2.0000      -0.474988       -12.9251
  53   2.0000      -0.464645       -12.6436
  54   2.0000      -0.463617       -12.6156
  55   2.0000      -0.446343       -12.1456
  56   2.0000      -0.440097       -11.9757
  57   2.0000      -0.433273       -11.7900
  58   2.0000      -0.429453       -11.6860
  59   2.0000      -0.423489       -11.5237
  60   2.0000      -0.413099       -11.2410
  61   2.0000      -0.409415       -11.1408
  62   2.0000      -0.408265       -11.1094
  63   2.0000      -0.335258        -9.1228
  64   2.0000      -0.331321        -9.0157
  65   2.0000      -0.321328        -8.7438
  66   2.0000      -0.311554        -8.4778
  67   0.0000       0.043255         1.1770
  68   0.0000       0.057449         1.5633
  69   0.0000       0.121199         3.2980
  70   0.0000       0.123614         3.3637
  71   0.0000       0.129863         3.5338

MULLIKEN ATOMIC CHARGES
-----------------------
   0 S :    0.120153
   1 C :   -0.096774
   2 C :   -0.118464
   3 C :    0.038011
   4 C :   -0.178072
   5 H :    0.024130
   6 C :    0.066160
   7 H :    0.029150
   8 H :    0.012506
   9 C :   -0.030084
  10 H :    0.023919
  11 H :    0.024596
  12 C :   -0.050145
  13 H :    0.028318
  14 H :    0.035496
  15 H :    0.028695
  16 S :    0.107181
  17 C :   -0.102956
  18 C :   -0.046058
  19 C :   -0.032485
  20 C :   -0.174570
  21 H :    0.031468
  22 C :    0.099010
  23 H :    0.010080
  24 H :    0.016817
  25 C :   -0.029210
  26 H :    0.018462
  27 H :    0.009201
  28 C :   -0.049096
  29 H :    0.024668
  30 H :    0.034328
  31 H :    0.027905
  32 H :    0.022188
  33 H :    0.075471
Sum of atomic charges:   -0.0000000

LOEWDIN ATOMIC CHARGES
----------------------
   0 S :    0.449225
   1 C :   -0.194831
   2 C :   -0.065756
   3 C :   -0.066942
   4 C :   -0.225268
   5 H :    0.034447
   6 C :   -0.030302
   7 H :    0.032969
   8 H :    0.021148
   9 C :   -0.036212
  10 H :    0.019443
  11 H :    0.026577
  12 C :   -0.060760
  13 H :    0.033467
  14 H :    0.018905
  15 H :    0.022866
  16 S :    0.408288
  17 C :   -0.196221
  18 C :   -0.083025
  19 C :   -0.040260
  20 C :   -0.210194
  21 H :    0.038871
  22 C :   -0.029098
  23 H :    0.026695
  24 H :    0.031395
  25 C :   -0.041927
  26 H :    0.028278
  27 H :    0.016579
  28 C :   -0.070896
  29 H :    0.026698
  30 H :    0.030669
  31 H :    0.025114
  32 H :    0.019241
  33 H :    0.040816

  Mayer bond orders larger than 0.100000
B(  0-S ,  1-C ) :   1.1348 B(  0-S ,  4-C ) :   1.2032 B(  1-C ,  2-C ) :   1.5991
B(  1-C , 32-H ) :   0.9864 B(  2-C ,  3-C ) :   1.2451 B(  2-C ,  6-C ) :   1.0072
B(  3-C ,  4-C ) :   1.5442 B(  3-C ,  5-H ) :   0.9947 B(  4-C , 20-C ) :   1.0062
B(  6-C ,  7-H ) :   0.9405 B(  6-C ,  8-H ) :   0.9461 B(  6-C ,  9-C ) :   1.0726
B(  9-C , 10-H ) :   0.9589 B(  9-C , 11-H ) :   0.9485 B(  9-C , 12-C ) :   1.0835
B( 12-C , 13-H ) :   0.9734 B( 12-C , 14-H ) :   0.9730 B( 12-C , 15-H ) :   0.9757
B( 16-S , 17-C ) :   1.1712 B( 16-S , 20-C ) :   1.1372 B( 17-C , 18-C ) :   1.5933
B( 17-C , 20-C ) :   0.1014 B( 17-C , 33-H ) :   0.9586 B( 18-C , 19-C ) :   1.2544
B( 18-C , 21-H ) :   0.9872 B( 19-C , 20-C ) :   1.5883 B( 19-C , 22-C ) :   1.0404
B( 22-C , 23-H ) :   0.9404 B( 22-C , 24-H ) :   0.9217 B( 22-C , 25-C ) :   1.0842
B( 25-C , 26-H ) :   0.9458 B( 25-C , 27-H ) :   0.9505 B( 25-C , 28-C ) :   1.0961
B( 28-C , 29-H ) :   0.9687 B( 28-C , 30-H ) :   0.9665 B( 28-C , 31-H ) :   0.9720

Dispersion correction           -0.016203047
FINAL SINGLE POINT ENERGY     -1339.871456688046

DIPOLE MOMENT
-------------
                                X             Y             Z
Electronic contribution:    -11.30579      -0.57016     -20.23408
Nuclear contribution   :     11.54702       0.41556      20.83918
                        -----------------------------------------
Total Dipole Moment    :      0.24122      -0.15460       0.60510
                        -----------------------------------------
Magnitude (a.u.)       :      0.66950
Magnitude (Debye)      :      1.70175

Rotational constants in cm-1:     0.020658     0.009225     0.007929
Rotational constants in MHz :   619.306140   276.549725   237.703659

                             ****ORCA TERMINATED NORMALLY****
TOTAL RUN TIME: 0 days 0 hours 0 minutes 23 seconds 31 msec
