                         Program Version 4.2.1 -  RELEASE  -
|  1> ! wB97X-D3 SP def2-SVP
|  2> %pal
|  3> nprocs 24
|  4> end
|  5>
|  6> * xyz 0 1
|  7> S 	 -105.733 	 49.3747 	 -100.319
|  8> C 	 -106.442 	 50.989 	 -100.487
|  9> C 	 -105.491 	 51.9189 	 -100.711
| 10> C 	 -104.173 	 51.3281 	 -100.626
| 11> C 	 -104.12 	 50.0111 	 -100.225
| 12> H 	 -103.278 	 51.8591 	 -100.763
| 13> C 	 -105.749 	 53.4649 	 -100.944
| 14> H 	 -106.804 	 53.5695 	 -101.387
| 15> H 	 -105.066 	 53.8613 	 -101.709
| 16> C 	 -105.516 	 54.3803 	 -99.707
| 17> H 	 -104.52 	 54.1192 	 -99.281
| 18> H 	 -105.557 	 55.4857 	 -99.923
| 19> C 	 -106.509 	 54.0571 	 -98.5599
| 20> H 	 -107.401 	 53.4495 	 -98.8617
| 21> H 	 -105.953 	 53.3685 	 -97.8496
| 22> H 	 -106.882 	 54.8929 	 -97.9559
| 23> S 	 -102.766 	 47.6185 	 -100.794
| 24> C 	 -101.172 	 47.3567 	 -100.127
| 25> C 	 -100.8 	 48.4228 	 -99.3147
| 26> C 	 -101.841 	 49.4161 	 -99.1202
| 27> C 	 -102.94 	 49.1736 	 -99.9259
| 28> H 	 -99.8119 	 48.4488 	 -98.84
| 29> C 	 -101.607 	 50.6107 	 -98.1297
| 30> H 	 -102.644 	 51.072 	 -98.0804
| 31> H 	 -100.957 	 51.4502 	 -98.3769
| 32> C 	 -101.18 	 50.2251 	 -96.6865
| 33> H 	 -101.394 	 51.0817 	 -96.0458
| 34> H 	 -100.118 	 49.9922 	 -96.6146
| 35> C 	 -102.047 	 49.1304 	 -96.0057
| 36> H 	 -101.576 	 48.96 	 -95.0432
| 37> H 	 -102.196 	 48.1772 	 -96.5153
| 38> H 	 -103.019 	 49.5437 	 -95.8066
| 39> H 	 -107.492 	 51.2802 	 -100.518
| 40> H 	 -100.516 	 46.6131 	 -100.534
| 41> *
| 42>
| 43>                          ****END OF INPUT****

CARTESIAN COORDINATES (ANGSTROEM)
---------------------------------
  S    -105.733000   49.374700  -100.319000
  C    -106.442000   50.989000  -100.487000
  C    -105.491000   51.918900  -100.711000
  C    -104.173000   51.328100  -100.626000
  C    -104.120000   50.011100  -100.225000
  H    -103.278000   51.859100  -100.763000
  C    -105.749000   53.464900  -100.944000
  H    -106.804000   53.569500  -101.387000
  H    -105.066000   53.861300  -101.709000
  C    -105.516000   54.380300  -99.707000
  H    -104.520000   54.119200  -99.281000
  H    -105.557000   55.485700  -99.923000
  C    -106.509000   54.057100  -98.559900
  H    -107.401000   53.449500  -98.861700
  H    -105.953000   53.368500  -97.849600
  H    -106.882000   54.892900  -97.955900
  S    -102.766000   47.618500  -100.794000
  C    -101.172000   47.356700  -100.127000
  C    -100.800000   48.422800  -99.314700
  C    -101.841000   49.416100  -99.120200
  C    -102.940000   49.173600  -99.925900
  H    -99.811900   48.448800  -98.840000
  C    -101.607000   50.610700  -98.129700
  H    -102.644000   51.072000  -98.080400
  H    -100.957000   51.450200  -98.376900
  C    -101.180000   50.225100  -96.686500
  H    -101.394000   51.081700  -96.045800
  H    -100.118000   49.992200  -96.614600
  C    -102.047000   49.130400  -96.005700
  H    -101.576000   48.960000  -95.043200
  H    -102.196000   48.177200  -96.515300
  H    -103.019000   49.543700  -95.806600
  H    -107.492000   51.280200  -100.518000
  H    -100.516000   46.613100  -100.534000

 Total Charge           Charge          ....    0
 Multiplicity           Mult            ....    1
 Number of Electrons    NEL             ....  134
 Basis Dimension        Dim             ....  322

ORBITAL ENERGIES
----------------

  NO   OCC          E(Eh)            E(eV)
   0   2.0000     -88.966713     -2420.9073
   1   2.0000     -88.965036     -2420.8617
   2   2.0000     -10.336839      -281.2797
   3   2.0000     -10.332817      -281.1702
   4   2.0000     -10.321086      -280.8510
   5   2.0000     -10.315331      -280.6944
   6   2.0000     -10.314097      -280.6608
   7   2.0000     -10.309510      -280.5360
   8   2.0000     -10.305039      -280.4144
   9   2.0000     -10.301611      -280.3211
  10   2.0000     -10.300372      -280.2874
  11   2.0000     -10.298873      -280.2466
  12   2.0000     -10.293054      -280.0882
  13   2.0000     -10.288976      -279.9773
  14   2.0000     -10.282498      -279.8010
  15   2.0000     -10.270305      -279.4692
  16   2.0000      -8.081175      -219.8999
  17   2.0000      -8.079879      -219.8647
  18   2.0000      -6.039768      -164.3504
  19   2.0000      -6.038601      -164.3187
  20   2.0000      -6.035731      -164.2406
  21   2.0000      -6.034472      -164.2063
  22   2.0000      -6.031838      -164.1347
  23   2.0000      -6.030280      -164.0923
  24   2.0000      -1.005706       -27.3667
  25   2.0000      -0.983016       -26.7492
  26   2.0000      -0.903249       -24.5787
  27   2.0000      -0.901146       -24.5214
  28   2.0000      -0.868031       -23.6203
  29   2.0000      -0.846139       -23.0246
  30   2.0000      -0.836929       -22.7740
  31   2.0000      -0.813283       -22.1306
  32   2.0000      -0.782403       -21.2903
  33   2.0000      -0.776107       -21.1190
  34   2.0000      -0.706840       -19.2341
  35   2.0000      -0.691917       -18.8280
  36   2.0000      -0.688788       -18.7429
  37   2.0000      -0.657523       -17.8921
  38   2.0000      -0.640307       -17.4236
  39   2.0000      -0.618431       -16.8284
  40   2.0000      -0.595933       -16.2162
  41   2.0000      -0.567887       -15.4530
  42   2.0000      -0.551838       -15.0163
  43   2.0000      -0.545576       -14.8459
  44   2.0000      -0.538891       -14.6640
  45   2.0000      -0.536513       -14.5993
  46   2.0000      -0.519217       -14.1286
  47   2.0000      -0.510087       -13.8802
  48   2.0000      -0.504722       -13.7342
  49   2.0000      -0.498041       -13.5524
  50   2.0000      -0.483206       -13.1487
  51   2.0000      -0.476529       -12.9670
  52   2.0000      -0.469089       -12.7646
  53   2.0000      -0.459610       -12.5066
  54   2.0000      -0.458007       -12.4630
  55   2.0000      -0.444448       -12.0941
  56   2.0000      -0.440580       -11.9888
  57   2.0000      -0.428938       -11.6720
  58   2.0000      -0.428056       -11.6480
  59   2.0000      -0.425731       -11.5847
  60   2.0000      -0.422815       -11.5054
  61   2.0000      -0.412838       -11.2339
  62   2.0000      -0.410544       -11.1715
  63   2.0000      -0.351562        -9.5665
  64   2.0000      -0.332609        -9.0507
  65   2.0000      -0.330262        -8.9869
  66   2.0000      -0.298323        -8.1178
  67   0.0000       0.028490         0.7752
  68   0.0000       0.066629         1.8131
  69   0.0000       0.103813         2.8249
  70   0.0000       0.121540         3.3073
  71   0.0000       0.124958         3.4003

MULLIKEN ATOMIC CHARGES
-----------------------
   0 S :    0.101177
   1 C :   -0.113484
   2 C :   -0.086193
   3 C :    0.047427
   4 C :   -0.150941
   5 H :   -0.010257
   6 C :    0.032186
   7 H :    0.042393
   8 H :    0.036950
   9 C :   -0.080878
  10 H :    0.039558
  11 H :    0.051486
  12 C :   -0.096045
  13 H :    0.030440
  14 H :    0.040044
  15 H :    0.041457
  16 S :    0.095712
  17 C :   -0.087119
  18 C :   -0.040521
  19 C :   -0.029614
  20 C :   -0.147387
  21 H :    0.031473
  22 C :    0.051389
  23 H :    0.029666
  24 H :    0.046010
  25 C :   -0.108167
  26 H :    0.033350
  27 H :    0.036242
  28 C :   -0.047392
  29 H :    0.026518
  30 H :    0.049263
  31 H :    0.023430
  32 H :    0.047845
  33 H :    0.063985
Sum of atomic charges:    0.0000000

LOEWDIN ATOMIC CHARGES
----------------------
   0 S :    0.394827
   1 C :   -0.185946
   2 C :   -0.067248
   3 C :   -0.056318
   4 C :   -0.194269
   5 H :    0.020389
   6 C :   -0.031212
   7 H :    0.035585
   8 H :    0.032491
   9 C :   -0.049697
  10 H :    0.029341
  11 H :    0.031658
  12 C :   -0.083302
  13 H :    0.024113
  14 H :    0.033315
  15 H :    0.025356
  16 S :    0.387712
  17 C :   -0.181233
  18 C :   -0.069375
  19 C :   -0.054172
  20 C :   -0.184210
  21 H :    0.034755
  22 C :   -0.038788
  23 H :    0.035970
  24 H :    0.032496
  25 C :   -0.043575
  26 H :    0.031089
  27 H :    0.018949
  28 C :   -0.064573
  29 H :    0.025938
  30 H :    0.026006
  31 H :    0.022465
  32 H :    0.032901
  33 H :    0.028562

  Mayer bond orders larger than 0.100000
B(  0-S ,  1-C ) :   1.1245 B(  0-S ,  4-C ) :   1.1367 B(  1-C ,  2-C ) :   1.6607
B(  1-C , 32-H ) :   0.9612 B(  2-C ,  3-C ) :   1.2155 B(  2-C ,  6-C ) :   1.0068
B(  3-C ,  4-C ) :   1.5904 B(  3-C ,  5-H ) :   1.0069 B(  4-C , 20-C ) :   1.0277
B(  6-C ,  7-H ) :   0.9500 B(  6-C ,  8-H ) :   0.9459 B(  6-C ,  9-C ) :   1.0642
B(  9-C , 10-H ) :   0.9644 B(  9-C , 11-H ) :   0.9629 B(  9-C , 12-C ) :   1.0438
B( 12-C , 13-H ) :   0.9810 B( 12-C , 14-H ) :   0.9801 B( 12-C , 15-H ) :   0.9786
B( 16-S , 17-C ) :   1.1468 B( 16-S , 20-C ) :   1.1338 B( 17-C , 18-C ) :   1.6221
B( 17-C , 33-H ) :   0.9687 B( 18-C , 19-C ) :   1.2152 B( 18-C , 21-H ) :   0.9865
B( 19-C , 20-C ) :   1.6320 B( 19-C , 22-C ) :   1.0222 B( 22-C , 23-H ) :   0.9321
B( 22-C , 24-H ) :   0.9477 B( 22-C , 25-C ) :   1.0735 B( 25-C , 26-H ) :   0.9562
B( 25-C , 27-H ) :   0.9590 B( 25-C , 28-C ) :   1.0739 B( 28-C , 29-H ) :   0.9738
B( 28-C , 30-H ) :   0.9750 B( 28-C , 31-H ) :   0.9777

Dispersion correction           -0.014666339
FINAL SINGLE POINT ENERGY     -1339.875180107318

DIPOLE MOMENT
-------------
                                X             Y             Z
Electronic contribution:     -1.47672     -21.15293     -17.13690
Nuclear contribution   :      1.84513      21.79955      17.35798
                        -----------------------------------------
Total Dipole Moment    :      0.36841       0.64662       0.22108
                        -----------------------------------------
Magnitude (a.u.)       :      0.77635
Magnitude (Debye)      :      1.97332

Rotational constants in cm-1:     0.019257     0.008711     0.006900
Rotational constants in MHz :   577.299115   261.144033   206.861337

                             ****ORCA TERMINATED NORMALLY****
TOTAL RUN TIME: 0 days 0 hours 0 minutes 21 seconds 751 msec
