                         Program Version 4.2.1 -  RELEASE  -
|  1> ! wB97X-D3 SP def2-SVP
|  2> %pal
|  3> nprocs 24
|  4> end
|  5>
|  6> * xyz 0 1
|  7> S 	 -101.02 	 21.4096 	 -122.519
|  8> C 	 -101.751 	 22.6799 	 -121.465
|  9> C 	 -102.3 	 22.0047 	 -120.351
| 10> C 	 -102.062 	 20.559 	 -120.367
| 11> C 	 -101.351 	 20.1156 	 -121.475
| 12> H 	 -102.504 	 19.8146 	 -119.65
| 13> C 	 -102.928 	 22.8616 	 -119.232
| 14> H 	 -102.354 	 23.8449 	 -119.084
| 15> H 	 -102.765 	 22.3942 	 -118.239
| 16> C 	 -104.473 	 22.9917 	 -119.267
| 17> H 	 -104.785 	 23.3331 	 -120.217
| 18> H 	 -104.933 	 21.9709 	 -119.103
| 19> C 	 -105.053 	 23.955 	 -118.184
| 20> H 	 -104.778 	 25.0006 	 -118.279
| 21> H 	 -106.129 	 23.9015 	 -118.311
| 22> H 	 -104.94 	 23.6443 	 -117.132
| 23> S 	 -99.4652 	 18.1038 	 -121.856
| 24> C 	 -100.016 	 16.5157 	 -122.455
| 25> C 	 -101.408 	 16.4142 	 -122.503
| 26> C 	 -101.984 	 17.7385 	 -122.319
| 27> C 	 -101.122 	 18.6877 	 -121.865
| 28> H 	 -101.926 	 15.5331 	 -122.76
| 29> C 	 -103.456 	 18.0952 	 -122.532
| 30> H 	 -103.792 	 17.4089 	 -123.315
| 31> H 	 -103.465 	 19.1028 	 -122.906
| 32> C 	 -104.359 	 17.7504 	 -121.397
| 33> H 	 -104.106 	 18.399 	 -120.6
| 34> H 	 -104.244 	 16.6975 	 -121.139
| 35> C 	 -105.803 	 17.883 	 -121.776
| 36> H 	 -106.094 	 16.9388 	 -122.39
| 37> H 	 -106.134 	 18.7565 	 -122.282
| 38> H 	 -106.429 	 17.9267 	 -120.869
| 39> H 	 -101.878 	 23.6978 	 -121.642
| 40> H 	 -99.3512 	 15.7101 	 -122.767
| 41> *
| 42>
| 43>                          ****END OF INPUT****

CARTESIAN COORDINATES (ANGSTROEM)
---------------------------------
  S    -101.020000   21.409600  -122.519000
  C    -101.751000   22.679900  -121.465000
  C    -102.300000   22.004700  -120.351000
  C    -102.062000   20.559000  -120.367000
  C    -101.351000   20.115600  -121.475000
  H    -102.504000   19.814600  -119.650000
  C    -102.928000   22.861600  -119.232000
  H    -102.354000   23.844900  -119.084000
  H    -102.765000   22.394200  -118.239000
  C    -104.473000   22.991700  -119.267000
  H    -104.785000   23.333100  -120.217000
  H    -104.933000   21.970900  -119.103000
  C    -105.053000   23.955000  -118.184000
  H    -104.778000   25.000600  -118.279000
  H    -106.129000   23.901500  -118.311000
  H    -104.940000   23.644300  -117.132000
  S    -99.465200   18.103800  -121.856000
  C    -100.016000   16.515700  -122.455000
  C    -101.408000   16.414200  -122.503000
  C    -101.984000   17.738500  -122.319000
  C    -101.122000   18.687700  -121.865000
  H    -101.926000   15.533100  -122.760000
  C    -103.456000   18.095200  -122.532000
  H    -103.792000   17.408900  -123.315000
  H    -103.465000   19.102800  -122.906000
  C    -104.359000   17.750400  -121.397000
  H    -104.106000   18.399000  -120.600000
  H    -104.244000   16.697500  -121.139000
  C    -105.803000   17.883000  -121.776000
  H    -106.094000   16.938800  -122.390000
  H    -106.134000   18.756500  -122.282000
  H    -106.429000   17.926700  -120.869000
  H    -101.878000   23.697800  -121.642000
  H    -99.351200   15.710100  -122.767000

 Total Charge           Charge          ....    0
 Multiplicity           Mult            ....    1
 Number of Electrons    NEL             ....  134
 Basis Dimension        Dim             ....  322

ORBITAL ENERGIES
----------------

  NO   OCC          E(Eh)            E(eV)
   0   2.0000     -88.967669     -2420.9334
   1   2.0000     -88.964188     -2420.8386
   2   2.0000     -10.332346      -281.1574
   3   2.0000     -10.325287      -280.9653
   4   2.0000     -10.324844      -280.9533
   5   2.0000     -10.319951      -280.8201
   6   2.0000     -10.312954      -280.6297
   7   2.0000     -10.304501      -280.3997
   8   2.0000     -10.302388      -280.3422
   9   2.0000     -10.301878      -280.3283
  10   2.0000     -10.299329      -280.2590
  11   2.0000     -10.293869      -280.1104
  12   2.0000     -10.283192      -279.8199
  13   2.0000     -10.281888      -279.7844
  14   2.0000     -10.279509      -279.7197
  15   2.0000     -10.278135      -279.6823
  16   2.0000      -8.082156      -219.9266
  17   2.0000      -8.078438      -219.8255
  18   2.0000      -6.040761      -164.3775
  19   2.0000      -6.037052      -164.2765
  20   2.0000      -6.036393      -164.2586
  21   2.0000      -6.033086      -164.1686
  22   2.0000      -6.033069      -164.1681
  23   2.0000      -6.029061      -164.0591
  24   2.0000      -1.003384       -27.3035
  25   2.0000      -0.979431       -26.6517
  26   2.0000      -0.917357       -24.9626
  27   2.0000      -0.904725       -24.6188
  28   2.0000      -0.865504       -23.5516
  29   2.0000      -0.849310       -23.1109
  30   2.0000      -0.840255       -22.8645
  31   2.0000      -0.816686       -22.2232
  32   2.0000      -0.780298       -21.2330
  33   2.0000      -0.770441       -20.9648
  34   2.0000      -0.702282       -19.1101
  35   2.0000      -0.698976       -19.0201
  36   2.0000      -0.692592       -18.8464
  37   2.0000      -0.667314       -18.1585
  38   2.0000      -0.642705       -17.4889
  39   2.0000      -0.610877       -16.6228
  40   2.0000      -0.591105       -16.0848
  41   2.0000      -0.582349       -15.8465
  42   2.0000      -0.572527       -15.5792
  43   2.0000      -0.557465       -15.1694
  44   2.0000      -0.529746       -14.4151
  45   2.0000      -0.521156       -14.1814
  46   2.0000      -0.518495       -14.1090
  47   2.0000      -0.516136       -14.0448
  48   2.0000      -0.501844       -13.6559
  49   2.0000      -0.499485       -13.5917
  50   2.0000      -0.490323       -13.3424
  51   2.0000      -0.476446       -12.9648
  52   2.0000      -0.468487       -12.7482
  53   2.0000      -0.463262       -12.6060
  54   2.0000      -0.460264       -12.5244
  55   2.0000      -0.448815       -12.2129
  56   2.0000      -0.445289       -12.1169
  57   2.0000      -0.437376       -11.9016
  58   2.0000      -0.434153       -11.8139
  59   2.0000      -0.420212       -11.4345
  60   2.0000      -0.419550       -11.4165
  61   2.0000      -0.411711       -11.2032
  62   2.0000      -0.410514       -11.1706
  63   2.0000      -0.333384        -9.0718
  64   2.0000      -0.331076        -9.0090
  65   2.0000      -0.324409        -8.8276
  66   2.0000      -0.311061        -8.4644
  67   0.0000       0.039413         1.0725
  68   0.0000       0.058112         1.5813
  69   0.0000       0.113218         3.0808
  70   0.0000       0.119555         3.2533
  71   0.0000       0.120705         3.2846

MULLIKEN ATOMIC CHARGES
-----------------------
   0 S :    0.116996
   1 C :   -0.095100
   2 C :   -0.085865
   3 C :    0.033282
   4 C :   -0.151321
   5 H :    0.041387
   6 C :   -0.000764
   7 H :    0.045992
   8 H :    0.024254
   9 C :   -0.062095
  10 H :    0.018376
  11 H :    0.037431
  12 C :   -0.059481
  13 H :    0.037468
  14 H :    0.028575
  15 H :    0.033866
  16 S :    0.101621
  17 C :   -0.100750
  18 C :    0.000283
  19 C :   -0.063403
  20 C :   -0.176575
  21 H :    0.009170
  22 C :    0.087111
  23 H :    0.001808
  24 H :    0.035275
  25 C :   -0.022459
  26 H :    0.004581
  27 H :    0.026828
  28 C :   -0.061056
  29 H :    0.041382
  30 H :    0.025070
  31 H :    0.028852
  32 H :    0.033964
  33 H :    0.065296
Sum of atomic charges:    0.0000000

LOEWDIN ATOMIC CHARGES
----------------------
   0 S :    0.417309
   1 C :   -0.176688
   2 C :   -0.057654
   3 C :   -0.073554
   4 C :   -0.216950
   5 H :    0.039457
   6 C :   -0.047762
   7 H :    0.039063
   8 H :    0.031492
   9 C :   -0.035960
  10 H :    0.014006
  11 H :    0.032121
  12 C :   -0.071029
  13 H :    0.024090
  14 H :    0.028091
  15 H :    0.026562
  16 S :    0.385820
  17 C :   -0.165964
  18 C :   -0.062968
  19 C :   -0.048744
  20 C :   -0.206140
  21 H :    0.025898
  22 C :   -0.027044
  23 H :    0.027864
  24 H :    0.030607
  25 C :   -0.038271
  26 H :    0.013629
  27 H :    0.029908
  28 C :   -0.069145
  29 H :    0.034760
  30 H :    0.018043
  31 H :    0.028313
  32 H :    0.019655
  33 H :    0.031187

  Mayer bond orders larger than 0.100000
B(  0-S ,  1-C ) :   1.1303 B(  0-S ,  4-C ) :   1.1802 B(  1-C ,  2-C ) :   1.5895
B(  1-C , 32-H ) :   0.9831 B(  2-C ,  3-C ) :   1.2460 B(  2-C ,  6-C ) :   1.0182
B(  3-C ,  4-C ) :   1.5675 B(  3-C ,  5-H ) :   0.9807 B(  4-C , 20-C ) :   0.9829
B(  6-C ,  7-H ) :   0.9556 B(  6-C ,  8-H ) :   0.9449 B(  6-C ,  9-C ) :   1.0482
B(  9-C , 10-H ) :   0.9601 B(  9-C , 11-H ) :   0.9565 B(  9-C , 12-C ) :   1.0792
B( 12-C , 13-H ) :   0.9767 B( 12-C , 14-H ) :   0.9734 B( 12-C , 15-H ) :   0.9755
B( 16-S , 17-C ) :   1.1554 B( 16-S , 20-C ) :   1.1165 B( 17-C , 18-C ) :   1.6228
B( 17-C , 33-H ) :   0.9660 B( 18-C , 19-C ) :   1.2085 B( 18-C , 21-H ) :   0.9943
B( 19-C , 20-C ) :   1.6623 B( 19-C , 22-C ) :   1.0441 B( 22-C , 23-H ) :   0.9258
B( 22-C , 24-H ) :   0.9264 B( 22-C , 25-C ) :   1.0800 B( 25-C , 26-H ) :   0.9466
B( 25-C , 27-H ) :   0.9516 B( 25-C , 28-C ) :   1.0901 B( 28-C , 29-H ) :   0.9744
B( 28-C , 30-H ) :   0.9736 B( 28-C , 31-H ) :   0.9710

Dispersion correction           -0.014307279
FINAL SINGLE POINT ENERGY     -1339.866404821513

DIPOLE MOMENT
-------------
                                X             Y             Z
Electronic contribution:     28.95341      -6.06291     -12.31116
Nuclear contribution   :    -29.67273       6.02060      12.51207
                        -----------------------------------------
Total Dipole Moment    :     -0.71932      -0.04230       0.20090
                        -----------------------------------------
Magnitude (a.u.)       :      0.74804
Magnitude (Debye)      :      1.90137

Rotational constants in cm-1:     0.019248     0.008328     0.006470
Rotational constants in MHz :   577.043621   249.677890   193.972903

                             ****ORCA TERMINATED NORMALLY****
TOTAL RUN TIME: 0 days 0 hours 0 minutes 21 seconds 477 msec
