                         Program Version 4.2.1 -  RELEASE  -
|  1> ! wB97X-D3 SP def2-SVP
|  2> %pal
|  3> nprocs 24
|  4> end
|  5>
|  6> * xyz 0 1
|  7> S 	 -116.803 	 53.45 	 -37.1651
|  8> C 	 -116.277 	 52.3003 	 -38.4134
|  9> C 	 -116.357 	 52.8557 	 -39.6273
| 10> C 	 -116.734 	 54.2725 	 -39.6654
| 11> C 	 -117 	 54.7187 	 -38.3997
| 12> H 	 -116.743 	 55.011 	 -40.4624
| 13> C 	 -115.927 	 52.206 	 -40.8814
| 14> H 	 -116.806 	 51.9637 	 -41.4065
| 15> H 	 -115.549 	 51.2302 	 -40.6095
| 16> C 	 -114.829 	 52.9513 	 -41.6189
| 17> H 	 -114.649 	 52.4781 	 -42.5516
| 18> H 	 -115.259 	 53.8961 	 -41.9047
| 19> C 	 -113.467 	 53.1443 	 -40.8053
| 20> H 	 -113.718 	 53.7151 	 -39.8769
| 21> H 	 -112.855 	 52.2498 	 -40.6395
| 22> H 	 -112.802 	 53.77 	 -41.3693
| 23> S 	 -118.847 	 56.3006 	 -37.2183
| 24> C 	 -118.632 	 58.0072 	 -37.1632
| 25> C 	 -117.419 	 58.36 	 -37.8085
| 26> C 	 -116.682 	 57.2841 	 -38.3324
| 27> C 	 -117.308 	 56.0986 	 -38.0861
| 28> H 	 -117.102 	 59.3886 	 -37.8489
| 29> C 	 -115.313 	 57.4373 	 -38.9268
| 30> H 	 -115.333 	 58.2594 	 -39.7137
| 31> H 	 -115.046 	 56.4834 	 -39.4754
| 32> C 	 -114.146 	 57.7539 	 -37.9742
| 33> H 	 -114.088 	 57.0212 	 -37.2239
| 34> H 	 -114.385 	 58.6124 	 -37.3942
| 35> C 	 -112.898 	 57.921 	 -38.7167
| 36> H 	 -112.729 	 58.8757 	 -39.2074
| 37> H 	 -112.933 	 57.2264 	 -39.5236
| 38> H 	 -112.071 	 57.7704 	 -38.1039
| 39> H 	 -115.83 	 51.3063 	 -38.2955
| 40> H 	 -119.326 	 58.6321 	 -36.6984
| 41> *
| 42>
| 43>                          ****END OF INPUT****

CARTESIAN COORDINATES (ANGSTROEM)
---------------------------------
  S    -116.803000   53.450000  -37.165100
  C    -116.277000   52.300300  -38.413400
  C    -116.357000   52.855700  -39.627300
  C    -116.734000   54.272500  -39.665400
  C    -117.000000   54.718700  -38.399700
  H    -116.743000   55.011000  -40.462400
  C    -115.927000   52.206000  -40.881400
  H    -116.806000   51.963700  -41.406500
  H    -115.549000   51.230200  -40.609500
  C    -114.829000   52.951300  -41.618900
  H    -114.649000   52.478100  -42.551600
  H    -115.259000   53.896100  -41.904700
  C    -113.467000   53.144300  -40.805300
  H    -113.718000   53.715100  -39.876900
  H    -112.855000   52.249800  -40.639500
  H    -112.802000   53.770000  -41.369300
  S    -118.847000   56.300600  -37.218300
  C    -118.632000   58.007200  -37.163200
  C    -117.419000   58.360000  -37.808500
  C    -116.682000   57.284100  -38.332400
  C    -117.308000   56.098600  -38.086100
  H    -117.102000   59.388600  -37.848900
  C    -115.313000   57.437300  -38.926800
  H    -115.333000   58.259400  -39.713700
  H    -115.046000   56.483400  -39.475400
  C    -114.146000   57.753900  -37.974200
  H    -114.088000   57.021200  -37.223900
  H    -114.385000   58.612400  -37.394200
  C    -112.898000   57.921000  -38.716700
  H    -112.729000   58.875700  -39.207400
  H    -112.933000   57.226400  -39.523600
  H    -112.071000   57.770400  -38.103900
  H    -115.830000   51.306300  -38.295500
  H    -119.326000   58.632100  -36.698400

 Total Charge           Charge          ....    0
 Multiplicity           Mult            ....    1
 Number of Electrons    NEL             ....  134
 Basis Dimension        Dim             ....  322

ORBITAL ENERGIES
----------------

  NO   OCC          E(Eh)            E(eV)
   0   2.0000     -88.964160     -2420.8379
   1   2.0000     -88.963719     -2420.8259
   2   2.0000     -10.328454      -281.0515
   3   2.0000     -10.323437      -280.9150
   4   2.0000     -10.315825      -280.7079
   5   2.0000     -10.310723      -280.5690
   6   2.0000     -10.300367      -280.2872
   7   2.0000     -10.299017      -280.2505
   8   2.0000     -10.294679      -280.1324
   9   2.0000     -10.294320      -280.1227
  10   2.0000     -10.294206      -280.1196
  11   2.0000     -10.287274      -279.9310
  12   2.0000     -10.284217      -279.8478
  13   2.0000     -10.279820      -279.7281
  14   2.0000     -10.273197      -279.5479
  15   2.0000     -10.264595      -279.3138
  16   2.0000      -8.078829      -219.8361
  17   2.0000      -8.078070      -219.8155
  18   2.0000      -6.037156      -164.2794
  19   2.0000      -6.036884      -164.2720
  20   2.0000      -6.033207      -164.1719
  21   2.0000      -6.032820      -164.1614
  22   2.0000      -6.029834      -164.0801
  23   2.0000      -6.028412      -164.0414
  24   2.0000      -1.007042       -27.4030
  25   2.0000      -0.983734       -26.7688
  26   2.0000      -0.918670       -24.9983
  27   2.0000      -0.913645       -24.8616
  28   2.0000      -0.871003       -23.7012
  29   2.0000      -0.861272       -23.4364
  30   2.0000      -0.837888       -22.8001
  31   2.0000      -0.812837       -22.1184
  32   2.0000      -0.783711       -21.3259
  33   2.0000      -0.775912       -21.1136
  34   2.0000      -0.713895       -19.4261
  35   2.0000      -0.705780       -19.2052
  36   2.0000      -0.697474       -18.9792
  37   2.0000      -0.667719       -18.1695
  38   2.0000      -0.639163       -17.3925
  39   2.0000      -0.619405       -16.8549
  40   2.0000      -0.604279       -16.4433
  41   2.0000      -0.566783       -15.4230
  42   2.0000      -0.565678       -15.3929
  43   2.0000      -0.550809       -14.9883
  44   2.0000      -0.536557       -14.6005
  45   2.0000      -0.535218       -14.5640
  46   2.0000      -0.520711       -14.1693
  47   2.0000      -0.516512       -14.0550
  48   2.0000      -0.505634       -13.7590
  49   2.0000      -0.498927       -13.5765
  50   2.0000      -0.491775       -13.3819
  51   2.0000      -0.477162       -12.9842
  52   2.0000      -0.468374       -12.7451
  53   2.0000      -0.463475       -12.6118
  54   2.0000      -0.456857       -12.4317
  55   2.0000      -0.454437       -12.3659
  56   2.0000      -0.445652       -12.1268
  57   2.0000      -0.440860       -11.9964
  58   2.0000      -0.438157       -11.9229
  59   2.0000      -0.427413       -11.6305
  60   2.0000      -0.418012       -11.3747
  61   2.0000      -0.415108       -11.2957
  62   2.0000      -0.412024       -11.2117
  63   2.0000      -0.344865        -9.3843
  64   2.0000      -0.334653        -9.1064
  65   2.0000      -0.326669        -8.8891
  66   2.0000      -0.295928        -8.0526
  67   0.0000       0.035977         0.9790
  68   0.0000       0.066657         1.8138
  69   0.0000       0.114533         3.1166
  70   0.0000       0.117571         3.1993
  71   0.0000       0.130687         3.5562

MULLIKEN ATOMIC CHARGES
-----------------------
   0 S :    0.101425
   1 C :   -0.119074
   2 C :   -0.114099
   3 C :    0.023566
   4 C :   -0.138529
   5 H :    0.025940
   6 C :    0.127511
   7 H :    0.027478
   8 H :   -0.010914
   9 C :   -0.057360
  10 H :    0.018517
  11 H :    0.017235
  12 C :   -0.065378
  13 H :    0.057711
  14 H :    0.040426
  15 H :    0.024948
  16 S :    0.106697
  17 C :   -0.073100
  18 C :   -0.047483
  19 C :    0.027678
  20 C :   -0.202898
  21 H :    0.012211
  22 C :   -0.010774
  23 H :    0.033415
  24 H :    0.027615
  25 C :   -0.014255
  26 H :    0.013718
  27 H :    0.007019
  28 C :    0.019882
  29 H :    0.022995
  30 H :    0.007675
  31 H :    0.018741
  32 H :    0.050488
  33 H :    0.040973
Sum of atomic charges:   -0.0000000

LOEWDIN ATOMIC CHARGES
----------------------
   0 S :    0.369136
   1 C :   -0.194520
   2 C :   -0.062340
   3 C :   -0.062053
   4 C :   -0.179844
   5 H :    0.034776
   6 C :   -0.032062
   7 H :    0.030455
   8 H :    0.023145
   9 C :   -0.031408
  10 H :    0.019704
  11 H :    0.018699
  12 C :   -0.066106
  13 H :    0.033933
  14 H :    0.028041
  15 H :    0.022729
  16 S :    0.411540
  17 C :   -0.182876
  18 C :   -0.066748
  19 C :   -0.063758
  20 C :   -0.186429
  21 H :    0.027541
  22 C :   -0.034845
  23 H :    0.035284
  24 H :    0.032219
  25 C :   -0.034706
  26 H :    0.021400
  27 H :    0.019160
  28 C :   -0.054445
  29 H :    0.027013
  30 H :    0.021788
  31 H :    0.021472
  32 H :    0.037866
  33 H :    0.016237

  Mayer bond orders larger than 0.100000
B(  0-S ,  1-C ) :   1.0874 B(  0-S ,  4-C ) :   1.1273 B(  1-C ,  2-C ) :   1.6992
B(  1-C , 32-H ) :   0.9580 B(  2-C ,  3-C ) :   1.1438 B(  2-C ,  6-C ) :   1.0291
B(  3-C ,  4-C ) :   1.6365 B(  3-C ,  5-H ) :   0.9936 B(  4-C , 20-C ) :   1.0201
B(  6-C ,  7-H ) :   0.9268 B(  6-C ,  8-H ) :   0.9307 B(  6-C ,  9-C ) :   1.0707
B(  9-C , 10-H ) :   0.9532 B(  9-C , 11-H ) :   0.9549 B(  9-C , 12-C ) :   1.0650
B( 12-C , 13-H ) :   0.9739 B( 12-C , 14-H ) :   0.9763 B( 12-C , 15-H ) :   0.9753
B( 16-S , 17-C ) :   1.1712 B( 16-S , 20-C ) :   1.1518 B( 17-C , 18-C ) :   1.5658
B( 17-C , 20-C ) :   0.1104 B( 17-C , 33-H ) :   0.9813 B( 18-C , 19-C ) :   1.2449
B( 18-C , 21-H ) :   0.9938 B( 19-C , 20-C ) :   1.6007 B( 19-C , 22-C ) :   1.0497
B( 22-C , 23-H ) :   0.9331 B( 22-C , 24-H ) :   0.9244 B( 22-C , 25-C ) :   1.0748
B( 25-C , 26-H ) :   0.9467 B( 25-C , 27-H ) :   0.9454 B( 25-C , 28-C ) :   1.0923
B( 28-C , 29-H ) :   0.9688 B( 28-C , 30-H ) :   0.9690 B( 28-C , 31-H ) :   0.9682

Dispersion correction           -0.015163046
FINAL SINGLE POINT ENERGY     -1339.875603019123

DIPOLE MOMENT
-------------
                                X             Y             Z
Electronic contribution:    -24.70726      -2.92705      16.06019
Nuclear contribution   :     25.23796       3.12527     -16.52859
                        -----------------------------------------
Total Dipole Moment    :      0.53069       0.19823      -0.46841
                        -----------------------------------------
Magnitude (a.u.)       :      0.73507
Magnitude (Debye)      :      1.86841

Rotational constants in cm-1:     0.017065     0.010425     0.007501
Rotational constants in MHz :   511.593510   312.534714   224.880248

                             ****ORCA TERMINATED NORMALLY****
TOTAL RUN TIME: 0 days 0 hours 0 minutes 21 seconds 670 msec
