                         Program Version 4.2.1 -  RELEASE  -
|  1> ! wB97X-D3 SP def2-SVP
|  2> %pal
|  3> nprocs 24
|  4> end
|  5>
|  6> * xyz 0 1
|  7> S 	 -68.094 	 9.00473 	 -81.2798
|  8> C 	 -68.6525 	 8.30486 	 -82.7171
|  9> C 	 -69.613 	 7.37072 	 -82.4673
| 10> C 	 -69.771 	 7.06363 	 -81.0471
| 11> C 	 -68.9228 	 7.85558 	 -80.2668
| 12> H 	 -70.5287 	 6.45691 	 -80.5748
| 13> C 	 -70.6327 	 6.86603 	 -83.5071
| 14> H 	 -70.4248 	 5.83507 	 -83.5305
| 15> H 	 -70.4574 	 7.2158 	 -84.4673
| 16> C 	 -72.145 	 7.19857 	 -83.2576
| 17> H 	 -72.7625 	 6.64464 	 -83.999
| 18> H 	 -72.4375 	 6.68633 	 -82.3076
| 19> C 	 -72.5687 	 8.68276 	 -83.2528
| 20> H 	 -71.9739 	 9.47509 	 -82.8185
| 21> H 	 -72.6055 	 9.0064 	 -84.372
| 22> H 	 -73.6469 	 8.79267 	 -82.9064
| 23> S 	 -69.4866 	 9.42108 	 -77.9931
| 24> C 	 -69.0666 	 8.78534 	 -76.4636
| 25> C 	 -68.5586 	 7.48252 	 -76.5593
| 26> C 	 -68.6042 	 6.96805 	 -77.9019
| 27> C 	 -68.9458 	 7.94537 	 -78.7765
| 28> H 	 -68.0198 	 7.09544 	 -75.7509
| 29> C 	 -68.0337 	 5.56678 	 -78.2312
| 30> H 	 -68.2155 	 5.29999 	 -79.2722
| 31> H 	 -68.5989 	 4.85917 	 -77.6776
| 32> C 	 -66.5374 	 5.35887 	 -78.0419
| 33> H 	 -66.2872 	 5.81895 	 -77.1578
| 34> H 	 -66.0045 	 5.84533 	 -78.8639
| 35> C 	 -66.3127 	 3.91885 	 -77.9446
| 36> H 	 -66.662 	 3.47773 	 -77.0329
| 37> H 	 -65.2828 	 3.68632 	 -77.7248
| 38> H 	 -66.6444 	 3.45441 	 -78.7482
| 39> H 	 -68.6005 	 8.79237 	 -83.688
| 40> H 	 -69.0596 	 9.44543 	 -75.6203
| 41> *
| 42>
| 43>                          ****END OF INPUT****

CARTESIAN COORDINATES (ANGSTROEM)
---------------------------------
  S    -68.094000    9.004730  -81.279800
  C    -68.652500    8.304860  -82.717100
  C    -69.613000    7.370720  -82.467300
  C    -69.771000    7.063630  -81.047100
  C    -68.922800    7.855580  -80.266800
  H    -70.528700    6.456910  -80.574800
  C    -70.632700    6.866030  -83.507100
  H    -70.424800    5.835070  -83.530500
  H    -70.457400    7.215800  -84.467300
  C    -72.145000    7.198570  -83.257600
  H    -72.762500    6.644640  -83.999000
  H    -72.437500    6.686330  -82.307600
  C    -72.568700    8.682760  -83.252800
  H    -71.973900    9.475090  -82.818500
  H    -72.605500    9.006400  -84.372000
  H    -73.646900    8.792670  -82.906400
  S    -69.486600    9.421080  -77.993100
  C    -69.066600    8.785340  -76.463600
  C    -68.558600    7.482520  -76.559300
  C    -68.604200    6.968050  -77.901900
  C    -68.945800    7.945370  -78.776500
  H    -68.019800    7.095440  -75.750900
  C    -68.033700    5.566780  -78.231200
  H    -68.215500    5.299990  -79.272200
  H    -68.598900    4.859170  -77.677600
  C    -66.537400    5.358870  -78.041900
  H    -66.287200    5.818950  -77.157800
  H    -66.004500    5.845330  -78.863900
  C    -66.312700    3.918850  -77.944600
  H    -66.662000    3.477730  -77.032900
  H    -65.282800    3.686320  -77.724800
  H    -66.644400    3.454410  -78.748200
  H    -68.600500    8.792370  -83.688000
  H    -69.059600    9.445430  -75.620300

 Total Charge           Charge          ....    0
 Multiplicity           Mult            ....    1
 Number of Electrons    NEL             ....  134
 Basis Dimension        Dim             ....  322

ORBITAL ENERGIES
----------------

  NO   OCC          E(Eh)            E(eV)
   0   2.0000     -88.964115     -2420.8366
   1   2.0000     -88.963740     -2420.8264
   2   2.0000     -10.329937      -281.0919
   3   2.0000     -10.324147      -280.9343
   4   2.0000     -10.314703      -280.6773
   5   2.0000     -10.306401      -280.4514
   6   2.0000     -10.301306      -280.3128
   7   2.0000     -10.301182      -280.3094
   8   2.0000     -10.297672      -280.2139
   9   2.0000     -10.296400      -280.1793
  10   2.0000     -10.291706      -280.0515
  11   2.0000     -10.289811      -280.0000
  12   2.0000     -10.285674      -279.8874
  13   2.0000     -10.283723      -279.8343
  14   2.0000     -10.271053      -279.4896
  15   2.0000     -10.257782      -279.1284
  16   2.0000      -8.079775      -219.8618
  17   2.0000      -8.079596      -219.8570
  18   2.0000      -6.038196      -164.3077
  19   2.0000      -6.038044      -164.3035
  20   2.0000      -6.034142      -164.1973
  21   2.0000      -6.033953      -164.1922
  22   2.0000      -6.030600      -164.1010
  23   2.0000      -6.030348      -164.0941
  24   2.0000      -1.008358       -27.4388
  25   2.0000      -0.988968       -26.9112
  26   2.0000      -0.921727       -25.0815
  27   2.0000      -0.903036       -24.5729
  28   2.0000      -0.868418       -23.6308
  29   2.0000      -0.855802       -23.2876
  30   2.0000      -0.841578       -22.9005
  31   2.0000      -0.812019       -22.0962
  32   2.0000      -0.785897       -21.3853
  33   2.0000      -0.775835       -21.1115
  34   2.0000      -0.708463       -19.2783
  35   2.0000      -0.699706       -19.0400
  36   2.0000      -0.689077       -18.7507
  37   2.0000      -0.662774       -18.0350
  38   2.0000      -0.641769       -17.4634
  39   2.0000      -0.619129       -16.8474
  40   2.0000      -0.605883       -16.4869
  41   2.0000      -0.575450       -15.6588
  42   2.0000      -0.563148       -15.3240
  43   2.0000      -0.549960       -14.9652
  44   2.0000      -0.535712       -14.5775
  45   2.0000      -0.535024       -14.5587
  46   2.0000      -0.516618       -14.0579
  47   2.0000      -0.509571       -13.8661
  48   2.0000      -0.501011       -13.6332
  49   2.0000      -0.497879       -13.5480
  50   2.0000      -0.493076       -13.4173
  51   2.0000      -0.478585       -13.0230
  52   2.0000      -0.471958       -12.8426
  53   2.0000      -0.470299       -12.7975
  54   2.0000      -0.459054       -12.4915
  55   2.0000      -0.452423       -12.3111
  56   2.0000      -0.446040       -12.1374
  57   2.0000      -0.439012       -11.9461
  58   2.0000      -0.431259       -11.7351
  59   2.0000      -0.422978       -11.5098
  60   2.0000      -0.417071       -11.3491
  61   2.0000      -0.414637       -11.2829
  62   2.0000      -0.406403       -11.0588
  63   2.0000      -0.342738        -9.3264
  64   2.0000      -0.331923        -9.0321
  65   2.0000      -0.322857        -8.7854
  66   2.0000      -0.299707        -8.1554
  67   0.0000       0.037755         1.0274
  68   0.0000       0.071162         1.9364
  69   0.0000       0.117522         3.1979
  70   0.0000       0.120934         3.2908
  71   0.0000       0.131918         3.5897

MULLIKEN ATOMIC CHARGES
-----------------------
   0 S :    0.111229
   1 C :   -0.101628
   2 C :   -0.129405
   3 C :    0.045573
   4 C :   -0.177641
   5 H :    0.021777
   6 C :    0.123440
   7 H :    0.022815
   8 H :   -0.007624
   9 C :   -0.089484
  10 H :    0.037022
  11 H :    0.029002
  12 C :   -0.090254
  13 H :    0.050790
  14 H :    0.028610
  15 H :    0.049210
  16 S :    0.115697
  17 C :   -0.100824
  18 C :   -0.023043
  19 C :   -0.018554
  20 C :   -0.174676
  21 H :    0.009287
  22 C :    0.060532
  23 H :    0.015414
  24 H :    0.013597
  25 C :   -0.015825
  26 H :   -0.007178
  27 H :    0.037508
  28 C :    0.030920
  29 H :    0.010553
  30 H :    0.010855
  31 H :    0.001497
  32 H :    0.054732
  33 H :    0.056077
Sum of atomic charges:    0.0000000

LOEWDIN ATOMIC CHARGES
----------------------
   0 S :    0.428783
   1 C :   -0.224491
   2 C :   -0.062277
   3 C :   -0.059706
   4 C :   -0.195702
   5 H :    0.031726
   6 C :   -0.022815
   7 H :    0.028695
   8 H :    0.016010
   9 C :   -0.045003
  10 H :    0.031280
  11 H :    0.021165
  12 C :   -0.080376
  13 H :    0.025638
  14 H :    0.031620
  15 H :    0.037021
  16 S :    0.414626
  17 C :   -0.190875
  18 C :   -0.064728
  19 C :   -0.052475
  20 C :   -0.200816
  21 H :    0.021781
  22 C :   -0.023125
  23 H :    0.028284
  24 H :    0.024322
  25 C :   -0.027196
  26 H :    0.009719
  27 H :    0.031075
  28 C :   -0.048890
  29 H :    0.027329
  30 H :    0.028187
  31 H :    0.005173
  32 H :    0.032956
  33 H :    0.023087

  Mayer bond orders larger than 0.100000
B(  0-S ,  1-C ) :   1.1429 B(  0-S ,  4-C ) :   1.1742 B(  1-C ,  2-C ) :   1.6276
B(  1-C , 32-H ) :   0.9609 B(  2-C ,  3-C ) :   1.2334 B(  2-C ,  6-C ) :   1.0169
B(  3-C ,  4-C ) :   1.5663 B(  3-C ,  5-H ) :   0.9939 B(  4-C , 20-C ) :   1.0095
B(  6-C ,  7-H ) :   0.9323 B(  6-C ,  8-H ) :   0.9445 B(  6-C ,  9-C ) :   1.0708
B(  9-C , 10-H ) :   0.9550 B(  9-C , 11-H ) :   0.9578 B(  9-C , 12-C ) :   1.0581
B( 12-C , 13-H ) :   0.9811 B( 12-C , 14-H ) :   0.9741 B( 12-C , 15-H ) :   0.9734
B( 16-S , 17-C ) :   1.1671 B( 16-S , 20-C ) :   1.1448 B( 17-C , 18-C ) :   1.6062
B( 17-C , 33-H ) :   0.9707 B( 18-C , 19-C ) :   1.2176 B( 18-C , 21-H ) :   0.9978
B( 19-C , 20-C ) :   1.6411 B( 19-C , 22-C ) :   1.0381 B( 22-C , 23-H ) :   0.9273
B( 22-C , 24-H ) :   0.9360 B( 22-C , 25-C ) :   1.0697 B( 25-C , 26-H ) :   0.9514
B( 25-C , 27-H ) :   0.9506 B( 25-C , 28-C ) :   1.1010 B( 28-C , 29-H ) :   0.9644
B( 28-C , 30-H ) :   0.9598 B( 28-C , 31-H ) :   0.9722

Dispersion correction           -0.014217616
FINAL SINGLE POINT ENERGY     -1339.851348371754

DIPOLE MOMENT
-------------
                                X             Y             Z
Electronic contribution:      4.27221      17.47643       6.87811
Nuclear contribution   :     -4.41448     -17.82901      -6.90555
                        -----------------------------------------
Total Dipole Moment    :     -0.14227      -0.35257      -0.02744
                        -----------------------------------------
Magnitude (a.u.)       :      0.38118
Magnitude (Debye)      :      0.96889

Rotational constants in cm-1:     0.018944     0.008312     0.007018
Rotational constants in MHz :   567.914263   249.184587   210.397519

                             ****ORCA TERMINATED NORMALLY****
TOTAL RUN TIME: 0 days 0 hours 0 minutes 21 seconds 385 msec
