                         Program Version 4.2.1 -  RELEASE  -
|  1> ! wB97X-D3 SP def2-SVP
|  2> %pal
|  3> nprocs 24
|  4> end
|  5>
|  6> * xyz 0 1
|  7> S 	 -31.2624 	 14.6979 	 -2.47794
|  8> C 	 -32.5316 	 13.5642 	 -2.66716
|  9> C 	 -32.3571 	 12.5336 	 -1.73584
| 10> C 	 -31.3215 	 12.8096 	 -0.724793
| 11> C 	 -30.6114 	 13.9819 	 -1.03841
| 12> H 	 -30.991 	 12.1846 	 0.0738887
| 13> C 	 -33.1205 	 11.1914 	 -1.6913
| 14> H 	 -32.3969 	 10.4011 	 -1.69392
| 15> H 	 -33.6728 	 11.0559 	 -2.61096
| 16> C 	 -34.1192 	 11.0877 	 -0.443757
| 17> H 	 -34.0804 	 11.9962 	 0.150899
| 18> H 	 -35.1145 	 10.8685 	 -0.853064
| 19> C 	 -33.7154 	 10.124 	 0.601378
| 20> H 	 -34.4799 	 10.0856 	 1.39901
| 21> H 	 -33.6858 	 9.03523 	 0.193085
| 22> H 	 -32.6772 	 10.3321 	 0.90653
| 23> S 	 -28.2072 	 15.1164 	 -1.31744
| 24> C 	 -27.3496 	 15.8734 	 0.0558049
| 25> C 	 -28.0177 	 15.624 	 1.2558
| 26> C 	 -29.1887 	 14.7832 	 1.01319
| 27> C 	 -29.4785 	 14.5887 	 -0.349814
| 28> H 	 -27.6107 	 16.1316 	 2.13183
| 29> C 	 -30.2109 	 14.4216 	 2.06977
| 30> H 	 -31.1858 	 14.4989 	 1.61716
| 31> H 	 -30.293 	 15.1601 	 2.84585
| 32> C 	 -30.0741 	 13.1025 	 2.83576
| 33> H 	 -29.0947 	 12.9852 	 3.30455
| 34> H 	 -29.9721 	 12.317 	 1.98504
| 35> C 	 -31.1989 	 12.8112 	 3.7841
| 36> H 	 -32.2668 	 13.1093 	 3.40469
| 37> H 	 -30.9321 	 13.4086 	 4.58183
| 38> H 	 -31.1886 	 11.7794 	 4.15958
| 39> H 	 -33.3625 	 13.623 	 -3.43414
| 40> H 	 -26.4454 	 16.2687 	 -0.048096
| 41> *
| 42>
| 43>                          ****END OF INPUT****

CARTESIAN COORDINATES (ANGSTROEM)
---------------------------------
  S    -31.262400   14.697900   -2.477940
  C    -32.531600   13.564200   -2.667160
  C    -32.357100   12.533600   -1.735840
  C    -31.321500   12.809600   -0.724793
  C    -30.611400   13.981900   -1.038410
  H    -30.991000   12.184600    0.073889
  C    -33.120500   11.191400   -1.691300
  H    -32.396900   10.401100   -1.693920
  H    -33.672800   11.055900   -2.610960
  C    -34.119200   11.087700   -0.443757
  H    -34.080400   11.996200    0.150899
  H    -35.114500   10.868500   -0.853064
  C    -33.715400   10.124000    0.601378
  H    -34.479900   10.085600    1.399010
  H    -33.685800    9.035230    0.193085
  H    -32.677200   10.332100    0.906530
  S    -28.207200   15.116400   -1.317440
  C    -27.349600   15.873400    0.055805
  C    -28.017700   15.624000    1.255800
  C    -29.188700   14.783200    1.013190
  C    -29.478500   14.588700   -0.349814
  H    -27.610700   16.131600    2.131830
  C    -30.210900   14.421600    2.069770
  H    -31.185800   14.498900    1.617160
  H    -30.293000   15.160100    2.845850
  C    -30.074100   13.102500    2.835760
  H    -29.094700   12.985200    3.304550
  H    -29.972100   12.317000    1.985040
  C    -31.198900   12.811200    3.784100
  H    -32.266800   13.109300    3.404690
  H    -30.932100   13.408600    4.581830
  H    -31.188600   11.779400    4.159580
  H    -33.362500   13.623000   -3.434140
  H    -26.445400   16.268700   -0.048096

 Total Charge           Charge          ....    0
 Multiplicity           Mult            ....    1
 Number of Electrons    NEL             ....  134
 Basis Dimension        Dim             ....  322

ORBITAL ENERGIES
----------------

  NO   OCC          E(Eh)            E(eV)
   0   2.0000     -88.966495     -2420.9014
   1   2.0000     -88.964547     -2420.8484
   2   2.0000     -10.334125      -281.2058
   3   2.0000     -10.327674      -281.0303
   4   2.0000     -10.320759      -280.8421
   5   2.0000     -10.312361      -280.6136
   6   2.0000     -10.310059      -280.5510
   7   2.0000     -10.309676      -280.5405
   8   2.0000     -10.304821      -280.4084
   9   2.0000     -10.299641      -280.2675
  10   2.0000     -10.293232      -280.0931
  11   2.0000     -10.289956      -280.0040
  12   2.0000     -10.285766      -279.8899
  13   2.0000     -10.284846      -279.8649
  14   2.0000     -10.283529      -279.8290
  15   2.0000     -10.281671      -279.7785
  16   2.0000      -8.082025      -219.9231
  17   2.0000      -8.080201      -219.8735
  18   2.0000      -6.040543      -164.3715
  19   2.0000      -6.038629      -164.3194
  20   2.0000      -6.036222      -164.2540
  21   2.0000      -6.034457      -164.2059
  22   2.0000      -6.032904      -164.1637
  23   2.0000      -6.031095      -164.1144
  24   2.0000      -1.010668       -27.5017
  25   2.0000      -0.984035       -26.7770
  26   2.0000      -0.911292       -24.7975
  27   2.0000      -0.907521       -24.6949
  28   2.0000      -0.874708       -23.8020
  29   2.0000      -0.853121       -23.2146
  30   2.0000      -0.845958       -23.0197
  31   2.0000      -0.820224       -22.3194
  32   2.0000      -0.779325       -21.2065
  33   2.0000      -0.769465       -20.9382
  34   2.0000      -0.702390       -19.1130
  35   2.0000      -0.693833       -18.8801
  36   2.0000      -0.690423       -18.7874
  37   2.0000      -0.669288       -18.2123
  38   2.0000      -0.643212       -17.5027
  39   2.0000      -0.619873       -16.8676
  40   2.0000      -0.597405       -16.2562
  41   2.0000      -0.571380       -15.5480
  42   2.0000      -0.563390       -15.3306
  43   2.0000      -0.557050       -15.1581
  44   2.0000      -0.529839       -14.4177
  45   2.0000      -0.528317       -14.3762
  46   2.0000      -0.520316       -14.1585
  47   2.0000      -0.515745       -14.0341
  48   2.0000      -0.510477       -13.8908
  49   2.0000      -0.504967       -13.7409
  50   2.0000      -0.496996       -13.5239
  51   2.0000      -0.486792       -13.2463
  52   2.0000      -0.471417       -12.8279
  53   2.0000      -0.467798       -12.7294
  54   2.0000      -0.454221       -12.3600
  55   2.0000      -0.447047       -12.1648
  56   2.0000      -0.440454       -11.9854
  57   2.0000      -0.439449       -11.9580
  58   2.0000      -0.430955       -11.7269
  59   2.0000      -0.423829       -11.5330
  60   2.0000      -0.416347       -11.3294
  61   2.0000      -0.410802       -11.1785
  62   2.0000      -0.398719       -10.8497
  63   2.0000      -0.356307        -9.6956
  64   2.0000      -0.329377        -8.9628
  65   2.0000      -0.325068        -8.8456
  66   2.0000      -0.289180        -7.8690
  67   0.0000       0.027213         0.7405
  68   0.0000       0.073325         1.9953
  69   0.0000       0.111041         3.0216
  70   0.0000       0.118762         3.2317
  71   0.0000       0.124076         3.3763

MULLIKEN ATOMIC CHARGES
-----------------------
   0 S :    0.117442
   1 C :   -0.136295
   2 C :   -0.113715
   3 C :    0.036903
   4 C :   -0.136837
   5 H :    0.000199
   6 C :    0.074933
   7 H :    0.030043
   8 H :    0.012761
   9 C :   -0.062281
  10 H :    0.040820
  11 H :    0.036656
  12 C :   -0.091186
  13 H :    0.044252
  14 H :    0.028174
  15 H :    0.037418
  16 S :    0.101271
  17 C :   -0.058837
  18 C :   -0.025214
  19 C :   -0.010746
  20 C :   -0.136283
  21 H :    0.035933
  22 C :    0.035441
  23 H :    0.024200
  24 H :    0.001898
  25 C :   -0.097049
  26 H :    0.025733
  27 H :    0.013249
  28 C :   -0.025552
  29 H :    0.049866
  30 H :    0.017269
  31 H :    0.042505
  32 H :    0.079050
  33 H :    0.007980
Sum of atomic charges:   -0.0000000

LOEWDIN ATOMIC CHARGES
----------------------
   0 S :    0.429956
   1 C :   -0.227361
   2 C :   -0.056862
   3 C :   -0.063189
   4 C :   -0.197290
   5 H :    0.024337
   6 C :   -0.027178
   7 H :    0.027675
   8 H :    0.026803
   9 C :   -0.043519
  10 H :    0.028384
  11 H :    0.025880
  12 C :   -0.072424
  13 H :    0.029441
  14 H :    0.024731
  15 H :    0.024203
  16 S :    0.421972
  17 C :   -0.156753
  18 C :   -0.058901
  19 C :   -0.058268
  20 C :   -0.214573
  21 H :    0.040464
  22 C :   -0.039143
  23 H :    0.029821
  24 H :    0.022375
  25 C :   -0.047894
  26 H :    0.023976
  27 H :    0.016097
  28 C :   -0.066909
  29 H :    0.039030
  30 H :    0.017595
  31 H :    0.032255
  32 H :    0.047634
  33 H :   -0.002366

  Mayer bond orders larger than 0.100000
B(  0-S ,  1-C ) :   1.1448 B(  0-S ,  4-C ) :   1.1705 B(  1-C ,  2-C ) :   1.5982
B(  1-C , 32-H ) :   0.9616 B(  2-C ,  3-C ) :   1.2316 B(  2-C ,  6-C ) :   1.0335
B(  3-C ,  4-C ) :   1.5456 B(  3-C ,  5-H ) :   0.9965 B(  4-C , 20-C ) :   1.0387
B(  6-C ,  7-H ) :   0.9514 B(  6-C ,  8-H ) :   0.9466 B(  6-C ,  9-C ) :   1.0229
B(  9-C , 10-H ) :   0.9673 B(  9-C , 11-H ) :   0.9596 B(  9-C , 12-C ) :   1.0787
B( 12-C , 13-H ) :   0.9703 B( 12-C , 14-H ) :   0.9722 B( 12-C , 15-H ) :   0.9744
B( 16-S , 17-C ) :   1.1478 B( 16-S , 20-C ) :   1.1685 B( 17-C , 18-C ) :   1.6055
B( 17-C , 20-C ) :   0.1001 B( 17-C , 33-H ) :   0.9861 B( 18-C , 19-C ) :   1.2267
B( 18-C , 21-H ) :   0.9931 B( 19-C , 20-C ) :   1.5638 B( 19-C , 22-C ) :   1.0466
B( 22-C , 23-H ) :   0.9362 B( 22-C , 24-H ) :   0.9382 B( 22-C , 25-C ) :   1.0529
B( 25-C , 26-H ) :   0.9509 B( 25-C , 27-H ) :   0.9508 B( 25-C , 28-C ) :   1.0677
B( 28-C , 29-H ) :   0.9724 B( 28-C , 30-H ) :   0.9720 B( 28-C , 31-H ) :   0.9702

Dispersion correction           -0.014701037
FINAL SINGLE POINT ENERGY     -1339.852951120437

DIPOLE MOMENT
-------------
                                X             Y             Z
Electronic contribution:     15.83423      19.29921     -21.20554
Nuclear contribution   :    -16.06085     -19.58272      21.66106
                        -----------------------------------------
Total Dipole Moment    :     -0.22662      -0.28351       0.45552
                        -----------------------------------------
Magnitude (a.u.)       :      0.58244
Magnitude (Debye)      :      1.48043

Rotational constants in cm-1:     0.017335     0.010199     0.006813
Rotational constants in MHz :   519.700130   305.757858   204.237639

                             ****ORCA TERMINATED NORMALLY****
TOTAL RUN TIME: 0 days 0 hours 0 minutes 22 seconds 188 msec
