                         Program Version 4.2.1 -  RELEASE  -
|  1> ! wB97X-D3 SP def2-SVP
|  2> %pal
|  3> nprocs 24
|  4> end
|  5>
|  6> * xyz 0 1
|  7> S 	 -40.0669 	 18.4314 	 11.4602
|  8> C 	 -39.6985 	 16.9831 	 12.3047
|  9> C 	 -38.725 	 17.2111 	 13.287
| 10> C 	 -38.148 	 18.5363 	 13.2077
| 11> C 	 -38.713 	 19.2542 	 12.1868
| 12> H 	 -37.2955 	 18.9744 	 13.7273
| 13> C 	 -38.1916 	 16.0584 	 14.1605
| 14> H 	 -37.1015 	 16.1314 	 14.0918
| 15> H 	 -38.335 	 15.1239 	 13.6212
| 16> C 	 -38.6997 	 16.1147 	 15.6377
| 17> H 	 -38.4407 	 17.0796 	 16.0902
| 18> H 	 -39.7424 	 16.0784 	 15.6203
| 19> C 	 -38.2867 	 14.9398 	 16.489
| 20> H 	 -38.9203 	 14.0976 	 16.13
| 21> H 	 -37.2146 	 14.8085 	 16.6244
| 22> H 	 -38.6397 	 15.0654 	 17.5112
| 23> S 	 -39.2738 	 21.9287 	 11.7216
| 24> C 	 -38.0056 	 22.8798 	 11.0415
| 25> C 	 -36.8767 	 22.1973 	 10.7496
| 26> C 	 -36.9354 	 20.7809 	 11.1441
| 27> C 	 -38.2101 	 20.5 	 11.6688
| 28> H 	 -36.083 	 22.7309 	 10.209
| 29> C 	 -35.7875 	 19.787 	 10.9659
| 30> H 	 -35.7632 	 19.422 	 9.94327
| 31> H 	 -35.9684 	 18.8586 	 11.5504
| 32> C 	 -34.4314 	 20.3368 	 11.4216
| 33> H 	 -34.1978 	 21.2039 	 10.85
| 34> H 	 -33.617 	 19.7237 	 11.097
| 35> C 	 -34.2048 	 20.6571 	 12.9327
| 36> H 	 -34.9448 	 21.4081 	 13.2714
| 37> H 	 -33.1759 	 21.0565 	 13.1344
| 38> H 	 -34.4784 	 19.7613 	 13.4707
| 39> H 	 -40.2988 	 16.1053 	 12.2105
| 40> H 	 -37.9666 	 23.8945 	 10.5865
| 41> *
| 42>
| 43>                          ****END OF INPUT****

CARTESIAN COORDINATES (ANGSTROEM)
---------------------------------
  S    -40.066900   18.431400   11.460200
  C    -39.698500   16.983100   12.304700
  C    -38.725000   17.211100   13.287000
  C    -38.148000   18.536300   13.207700
  C    -38.713000   19.254200   12.186800
  H    -37.295500   18.974400   13.727300
  C    -38.191600   16.058400   14.160500
  H    -37.101500   16.131400   14.091800
  H    -38.335000   15.123900   13.621200
  C    -38.699700   16.114700   15.637700
  H    -38.440700   17.079600   16.090200
  H    -39.742400   16.078400   15.620300
  C    -38.286700   14.939800   16.489000
  H    -38.920300   14.097600   16.130000
  H    -37.214600   14.808500   16.624400
  H    -38.639700   15.065400   17.511200
  S    -39.273800   21.928700   11.721600
  C    -38.005600   22.879800   11.041500
  C    -36.876700   22.197300   10.749600
  C    -36.935400   20.780900   11.144100
  C    -38.210100   20.500000   11.668800
  H    -36.083000   22.730900   10.209000
  C    -35.787500   19.787000   10.965900
  H    -35.763200   19.422000    9.943270
  H    -35.968400   18.858600   11.550400
  C    -34.431400   20.336800   11.421600
  H    -34.197800   21.203900   10.850000
  H    -33.617000   19.723700   11.097000
  C    -34.204800   20.657100   12.932700
  H    -34.944800   21.408100   13.271400
  H    -33.175900   21.056500   13.134400
  H    -34.478400   19.761300   13.470700
  H    -40.298800   16.105300   12.210500
  H    -37.966600   23.894500   10.586500

 Total Charge           Charge          ....    0
 Multiplicity           Mult            ....    1
 Number of Electrons    NEL             ....  134
 Basis Dimension        Dim             ....  322

ORBITAL ENERGIES
----------------

  NO   OCC          E(Eh)            E(eV)
   0   2.0000     -88.967330     -2420.9241
   1   2.0000     -88.963512     -2420.8202
   2   2.0000     -10.326854      -281.0080
   3   2.0000     -10.322616      -280.8927
   4   2.0000     -10.312325      -280.6126
   5   2.0000     -10.311344      -280.5859
   6   2.0000     -10.311254      -280.5835
   7   2.0000     -10.305571      -280.4289
   8   2.0000     -10.296361      -280.1782
   9   2.0000     -10.296098      -280.1711
  10   2.0000     -10.293428      -280.0984
  11   2.0000     -10.293417      -280.0981
  12   2.0000     -10.283020      -279.8152
  13   2.0000     -10.282668      -279.8056
  14   2.0000     -10.281905      -279.7848
  15   2.0000     -10.278424      -279.6901
  16   2.0000      -8.081867      -219.9188
  17   2.0000      -8.079255      -219.8477
  18   2.0000      -6.040533      -164.3713
  19   2.0000      -6.037655      -164.2929
  20   2.0000      -6.036519      -164.2620
  21   2.0000      -6.033605      -164.1827
  22   2.0000      -6.032360      -164.1488
  23   2.0000      -6.030085      -164.0870
  24   2.0000      -1.006688       -27.3934
  25   2.0000      -0.982371       -26.7317
  26   2.0000      -0.907311       -24.6892
  27   2.0000      -0.906178       -24.6584
  28   2.0000      -0.872734       -23.7483
  29   2.0000      -0.851674       -23.1752
  30   2.0000      -0.842407       -22.9231
  31   2.0000      -0.817309       -22.2401
  32   2.0000      -0.784006       -21.3339
  33   2.0000      -0.768462       -20.9109
  34   2.0000      -0.708786       -19.2871
  35   2.0000      -0.699429       -19.0324
  36   2.0000      -0.693468       -18.8702
  37   2.0000      -0.652661       -17.7598
  38   2.0000      -0.641612       -17.4591
  39   2.0000      -0.616095       -16.7648
  40   2.0000      -0.592007       -16.1093
  41   2.0000      -0.569258       -15.4903
  42   2.0000      -0.560329       -15.2473
  43   2.0000      -0.553946       -15.0736
  44   2.0000      -0.535863       -14.5816
  45   2.0000      -0.520248       -14.1567
  46   2.0000      -0.515466       -14.0265
  47   2.0000      -0.509222       -13.8566
  48   2.0000      -0.505666       -13.7599
  49   2.0000      -0.499906       -13.6031
  50   2.0000      -0.492553       -13.4030
  51   2.0000      -0.474029       -12.8990
  52   2.0000      -0.468567       -12.7503
  53   2.0000      -0.462869       -12.5953
  54   2.0000      -0.459509       -12.5039
  55   2.0000      -0.450778       -12.2663
  56   2.0000      -0.446975       -12.1628
  57   2.0000      -0.442016       -12.0279
  58   2.0000      -0.428107       -11.6494
  59   2.0000      -0.426112       -11.5951
  60   2.0000      -0.420836       -11.4515
  61   2.0000      -0.414790       -11.2870
  62   2.0000      -0.412271       -11.2185
  63   2.0000      -0.342017        -9.3067
  64   2.0000      -0.330783        -9.0011
  65   2.0000      -0.328474        -8.9382
  66   2.0000      -0.296351        -8.0641
  67   0.0000       0.037097         1.0095
  68   0.0000       0.065814         1.7909
  69   0.0000       0.117961         3.2099
  70   0.0000       0.121392         3.3032
  71   0.0000       0.124911         3.3990

MULLIKEN ATOMIC CHARGES
-----------------------
   0 S :    0.121162
   1 C :   -0.111840
   2 C :   -0.099652
   3 C :    0.050413
   4 C :   -0.174972
   5 H :    0.018420
   6 C :    0.051644
   7 H :    0.019953
   8 H :    0.015803
   9 C :   -0.044650
  10 H :    0.027919
  11 H :    0.012686
  12 C :   -0.040640
  13 H :    0.035404
  14 H :    0.037975
  15 H :    0.024125
  16 S :    0.118622
  17 C :   -0.072299
  18 C :   -0.081783
  19 C :   -0.024337
  20 C :   -0.183346
  21 H :    0.030713
  22 C :    0.084181
  23 H :    0.042657
  24 H :    0.026537
  25 C :   -0.074913
  26 H :    0.009604
  27 H :    0.015605
  28 C :   -0.060542
  29 H :    0.041594
  30 H :    0.051816
  31 H :    0.026767
  32 H :    0.044150
  33 H :    0.061224
Sum of atomic charges:   -0.0000000

LOEWDIN ATOMIC CHARGES
----------------------
   0 S :    0.419144
   1 C :   -0.205127
   2 C :   -0.059336
   3 C :   -0.058872
   4 C :   -0.201368
   5 H :    0.036175
   6 C :   -0.033347
   7 H :    0.028430
   8 H :    0.028189
   9 C :   -0.037111
  10 H :    0.024670
  11 H :    0.018084
  12 C :   -0.069689
  13 H :    0.033098
  14 H :    0.024790
  15 H :    0.026826
  16 S :    0.398750
  17 C :   -0.206465
  18 C :   -0.079041
  19 C :   -0.045136
  20 C :   -0.194297
  21 H :    0.034811
  22 C :   -0.031522
  23 H :    0.038744
  24 H :    0.033360
  25 C :   -0.045456
  26 H :    0.014817
  27 H :    0.021847
  28 C :   -0.066580
  29 H :    0.028439
  30 H :    0.035589
  31 H :    0.019869
  32 H :    0.023069
  33 H :    0.044647

  Mayer bond orders larger than 0.100000
B(  0-S ,  1-C ) :   1.1475 B(  0-S ,  4-C ) :   1.1586 B(  1-C ,  2-C ) :   1.6034
B(  1-C , 32-H ) :   0.9747 B(  2-C ,  3-C ) :   1.2152 B(  2-C ,  6-C ) :   1.0188
B(  3-C ,  4-C ) :   1.5849 B(  3-C ,  5-H ) :   0.9972 B(  4-C , 20-C ) :   1.0319
B(  6-C ,  7-H ) :   0.9430 B(  6-C ,  8-H ) :   0.9500 B(  6-C ,  9-C ) :   1.0449
B(  9-C , 10-H ) :   0.9564 B(  9-C , 11-H ) :   0.9566 B(  9-C , 12-C ) :   1.0949
B( 12-C , 13-H ) :   0.9741 B( 12-C , 14-H ) :   0.9744 B( 12-C , 15-H ) :   0.9699
B( 16-S , 17-C ) :   1.1279 B( 16-S , 20-C ) :   1.1273 B( 17-C , 18-C ) :   1.6941
B( 17-C , 33-H ) :   0.9489 B( 18-C , 19-C ) :   1.1876 B( 18-C , 21-H ) :   0.9798
B( 19-C , 20-C ) :   1.6252 B( 19-C , 22-C ) :   1.0381 B( 22-C , 23-H ) :   0.9291
B( 22-C , 24-H ) :   0.9357 B( 22-C , 25-C ) :   1.0740 B( 25-C , 26-H ) :   0.9511
B( 25-C , 27-H ) :   0.9521 B( 25-C , 28-C ) :   1.0687 B( 28-C , 29-H ) :   0.9760
B( 28-C , 30-H ) :   0.9730 B( 28-C , 31-H ) :   0.9744

Dispersion correction           -0.014489388
FINAL SINGLE POINT ENERGY     -1339.877325191262

DIPOLE MOMENT
-------------
                                X             Y             Z
Electronic contribution:    -20.00138      14.17873     -14.95387
Nuclear contribution   :     20.56447     -14.46293      15.02603
                        -----------------------------------------
Total Dipole Moment    :      0.56310      -0.28419       0.07216
                        -----------------------------------------
Magnitude (a.u.)       :      0.63486
Magnitude (Debye)      :      1.61370

Rotational constants in cm-1:     0.019111     0.008192     0.006519
Rotational constants in MHz :   572.932173   245.588004   195.426577

                             ****ORCA TERMINATED NORMALLY****
TOTAL RUN TIME: 0 days 0 hours 0 minutes 21 seconds 347 msec
