                         Program Version 4.2.1 -  RELEASE  -
|  1> ! wB97X-D3 SP def2-SVP
|  2> %pal
|  3> nprocs 24
|  4> end
|  5>
|  6> * xyz 0 1
|  7> S 	 -20.1666 	 -29.3664 	 -99.0763
|  8> C 	 -19.5812 	 -28.1628 	 -100.146
|  9> C 	 -19.8744 	 -28.4402 	 -101.45
| 10> C 	 -20.6853 	 -29.5941 	 -101.652
| 11> C 	 -20.8553 	 -30.2925 	 -100.409
| 12> H 	 -21.0542 	 -29.9158 	 -102.569
| 13> C 	 -19.583 	 -27.486 	 -102.621
| 14> H 	 -19.6134 	 -28.0923 	 -103.567
| 15> H 	 -18.5659 	 -27.2855 	 -102.515
| 16> C 	 -20.4008 	 -26.245 	 -102.808
| 17> H 	 -20.1281 	 -25.9023 	 -103.812
| 18> H 	 -21.4111 	 -26.6025 	 -102.866
| 19> C 	 -20.3238 	 -25.124 	 -101.797
| 20> H 	 -21.0106 	 -24.366 	 -102.172
| 21> H 	 -20.7484 	 -25.6065 	 -100.855
| 22> H 	 -19.33 	 -24.741 	 -101.608
| 23> S 	 -20.8986 	 -32.7322 	 -99.0388
| 24> C 	 -22.1974 	 -33.8407 	 -99.2896
| 25> C 	 -23.1488 	 -33.2567 	 -100.114
| 26> C 	 -22.8792 	 -31.9329 	 -100.554
| 27> C 	 -21.6348 	 -31.5037 	 -100.118
| 28> H 	 -24.0071 	 -33.8291 	 -100.454
| 29> C 	 -23.7609 	 -31.1833 	 -101.644
| 30> H 	 -23.6188 	 -31.8257 	 -102.515
| 31> H 	 -23.3793 	 -30.2189 	 -101.851
| 32> C 	 -25.2944 	 -30.9501 	 -101.363
| 33> H 	 -25.8075 	 -31.919 	 -101.127
| 34> H 	 -25.793 	 -30.4266 	 -102.166
| 35> C 	 -25.5231 	 -30.1678 	 -100.09
| 36> H 	 -25.0584 	 -29.1669 	 -100.251
| 37> H 	 -25.0302 	 -30.5701 	 -99.2204
| 38> H 	 -26.6279 	 -29.9334 	 -99.9817
| 39> H 	 -18.8036 	 -27.44 	 -99.7867
| 40> H 	 -22.1822 	 -34.8675 	 -98.9174
| 41> *
| 42>
| 43>                          ****END OF INPUT****

CARTESIAN COORDINATES (ANGSTROEM)
---------------------------------
  S    -20.166600  -29.366400  -99.076300
  C    -19.581200  -28.162800  -100.146000
  C    -19.874400  -28.440200  -101.450000
  C    -20.685300  -29.594100  -101.652000
  C    -20.855300  -30.292500  -100.409000
  H    -21.054200  -29.915800  -102.569000
  C    -19.583000  -27.486000  -102.621000
  H    -19.613400  -28.092300  -103.567000
  H    -18.565900  -27.285500  -102.515000
  C    -20.400800  -26.245000  -102.808000
  H    -20.128100  -25.902300  -103.812000
  H    -21.411100  -26.602500  -102.866000
  C    -20.323800  -25.124000  -101.797000
  H    -21.010600  -24.366000  -102.172000
  H    -20.748400  -25.606500  -100.855000
  H    -19.330000  -24.741000  -101.608000
  S    -20.898600  -32.732200  -99.038800
  C    -22.197400  -33.840700  -99.289600
  C    -23.148800  -33.256700  -100.114000
  C    -22.879200  -31.932900  -100.554000
  C    -21.634800  -31.503700  -100.118000
  H    -24.007100  -33.829100  -100.454000
  C    -23.760900  -31.183300  -101.644000
  H    -23.618800  -31.825700  -102.515000
  H    -23.379300  -30.218900  -101.851000
  C    -25.294400  -30.950100  -101.363000
  H    -25.807500  -31.919000  -101.127000
  H    -25.793000  -30.426600  -102.166000
  C    -25.523100  -30.167800  -100.090000
  H    -25.058400  -29.166900  -100.251000
  H    -25.030200  -30.570100  -99.220400
  H    -26.627900  -29.933400  -99.981700
  H    -18.803600  -27.440000  -99.786700
  H    -22.182200  -34.867500  -98.917400

 Total Charge           Charge          ....    0
 Multiplicity           Mult            ....    1
 Number of Electrons    NEL             ....  134
 Basis Dimension        Dim             ....  322

ORBITAL ENERGIES
----------------

  NO   OCC          E(Eh)            E(eV)
   0   2.0000     -88.967555     -2420.9303
   1   2.0000     -88.964809     -2420.8555
   2   2.0000     -10.337109      -281.2870
   3   2.0000     -10.331125      -281.1242
   4   2.0000     -10.321084      -280.8510
   5   2.0000     -10.312069      -280.6057
   6   2.0000     -10.310442      -280.5614
   7   2.0000     -10.298951      -280.2487
   8   2.0000     -10.298354      -280.2325
   9   2.0000     -10.297241      -280.2022
  10   2.0000     -10.295679      -280.1597
  11   2.0000     -10.290310      -280.0136
  12   2.0000     -10.285023      -279.8697
  13   2.0000     -10.280621      -279.7499
  14   2.0000     -10.279764      -279.7266
  15   2.0000     -10.275752      -279.6174
  16   2.0000      -8.082719      -219.9420
  17   2.0000      -8.079539      -219.8554
  18   2.0000      -6.041136      -164.3877
  19   2.0000      -6.038006      -164.3025
  20   2.0000      -6.037048      -164.2764
  21   2.0000      -6.033980      -164.1929
  22   2.0000      -6.033669      -164.1845
  23   2.0000      -6.030402      -164.0956
  24   2.0000      -1.004469       -27.3330
  25   2.0000      -0.985002       -26.8033
  26   2.0000      -0.914506       -24.8850
  27   2.0000      -0.903552       -24.5869
  28   2.0000      -0.867003       -23.5924
  29   2.0000      -0.854220       -23.2445
  30   2.0000      -0.845877       -23.0175
  31   2.0000      -0.809347       -22.0235
  32   2.0000      -0.785146       -21.3649
  33   2.0000      -0.775119       -21.0920
  34   2.0000      -0.704909       -19.1815
  35   2.0000      -0.691726       -18.8228
  36   2.0000      -0.690273       -18.7833
  37   2.0000      -0.658951       -17.9310
  38   2.0000      -0.640975       -17.4418
  39   2.0000      -0.619330       -16.8528
  40   2.0000      -0.598242       -16.2790
  41   2.0000      -0.568643       -15.4736
  42   2.0000      -0.553155       -15.0521
  43   2.0000      -0.548665       -14.9299
  44   2.0000      -0.543338       -14.7850
  45   2.0000      -0.541289       -14.7292
  46   2.0000      -0.521829       -14.1997
  47   2.0000      -0.515506       -14.0276
  48   2.0000      -0.500217       -13.6116
  49   2.0000      -0.494523       -13.4567
  50   2.0000      -0.489821       -13.3287
  51   2.0000      -0.482379       -13.1262
  52   2.0000      -0.468670       -12.7531
  53   2.0000      -0.466183       -12.6855
  54   2.0000      -0.460338       -12.5264
  55   2.0000      -0.446707       -12.1555
  56   2.0000      -0.443631       -12.0718
  57   2.0000      -0.437502       -11.9050
  58   2.0000      -0.431757       -11.7487
  59   2.0000      -0.424764       -11.5584
  60   2.0000      -0.417127       -11.3506
  61   2.0000      -0.409321       -11.1382
  62   2.0000      -0.406756       -11.0684
  63   2.0000      -0.346903        -9.4397
  64   2.0000      -0.335094        -9.1184
  65   2.0000      -0.332122        -9.0375
  66   2.0000      -0.290188        -7.8964
  67   0.0000       0.024841         0.6760
  68   0.0000       0.069039         1.8786
  69   0.0000       0.114085         3.1044
  70   0.0000       0.119387         3.2487
  71   0.0000       0.127753         3.4763

MULLIKEN ATOMIC CHARGES
-----------------------
   0 S :    0.115984
   1 C :   -0.146722
   2 C :   -0.108415
   3 C :    0.052511
   4 C :   -0.147086
   5 H :   -0.008702
   6 C :    0.067006
   7 H :    0.020232
   8 H :    0.003228
   9 C :   -0.042754
  10 H :    0.022656
  11 H :    0.013595
  12 C :   -0.046154
  13 H :    0.041578
  14 H :    0.046486
  15 H :    0.032264
  16 S :    0.100269
  17 C :   -0.096567
  18 C :   -0.044963
  19 C :   -0.030586
  20 C :   -0.171050
  21 H :    0.021851
  22 C :    0.071562
  23 H :    0.046119
  24 H :    0.015124
  25 C :   -0.075975
  26 H :    0.032644
  27 H :    0.036207
  28 C :   -0.079853
  29 H :    0.019960
  30 H :    0.050013
  31 H :    0.044115
  32 H :    0.073723
  33 H :    0.071699
Sum of atomic charges:   -0.0000000

LOEWDIN ATOMIC CHARGES
----------------------
   0 S :    0.424117
   1 C :   -0.223906
   2 C :   -0.067437
   3 C :   -0.052590
   4 C :   -0.184692
   5 H :    0.019618
   6 C :   -0.033272
   7 H :    0.035274
   8 H :    0.018379
   9 C :   -0.042926
  10 H :    0.023975
  11 H :    0.022541
  12 C :   -0.065884
  13 H :    0.031060
  14 H :    0.036533
  15 H :    0.020782
  16 S :    0.396810
  17 C :   -0.191583
  18 C :   -0.077338
  19 C :   -0.054670
  20 C :   -0.192907
  21 H :    0.030300
  22 C :   -0.020129
  23 H :    0.035180
  24 H :    0.021199
  25 C :   -0.044227
  26 H :    0.024536
  27 H :    0.026089
  28 C :   -0.072106
  29 H :    0.023356
  30 H :    0.025264
  31 H :    0.033070
  32 H :    0.039236
  33 H :    0.036345

  Mayer bond orders larger than 0.100000
B(  0-S ,  1-C ) :   1.1477 B(  0-S ,  4-C ) :   1.1848 B(  1-C ,  2-C ) :   1.5970
B(  1-C ,  4-C ) :   0.1027 B(  1-C , 32-H ) :   0.9569 B(  2-C ,  3-C ) :   1.2703
B(  2-C ,  6-C ) :   1.0172 B(  3-C ,  4-C ) :   1.5114 B(  3-C ,  5-H ) :   1.0068
B(  4-C , 20-C ) :   1.0392 B(  6-C ,  7-H ) :   0.9404 B(  6-C ,  8-H ) :   0.9310
B(  6-C ,  9-C ) :   1.0748 B(  9-C , 10-H ) :   0.9485 B(  9-C , 11-H ) :   0.9496
B(  9-C , 12-C ) :   1.0858 B( 12-C , 13-H ) :   0.9703 B( 12-C , 14-H ) :   0.9688
B( 12-C , 15-H ) :   0.9760 B( 16-S , 17-C ) :   1.1610 B( 16-S , 20-C ) :   1.1427
B( 17-C , 18-C ) :   1.5891 B( 17-C , 20-C ) :   0.1037 B( 17-C , 33-H ) :   0.9692
B( 18-C , 19-C ) :   1.2466 B( 18-C , 21-H ) :   0.9885 B( 19-C , 20-C ) :   1.5869
B( 19-C , 22-C ) :   1.0183 B( 22-C , 23-H ) :   0.9435 B( 22-C , 24-H ) :   0.9377
B( 22-C , 25-C ) :   1.0662 B( 25-C , 26-H ) :   0.9577 B( 25-C , 27-H ) :   0.9572
B( 25-C , 28-C ) :   1.0767 B( 28-C , 29-H ) :   0.9731 B( 28-C , 30-H ) :   0.9741
B( 28-C , 31-H ) :   0.9726

Dispersion correction           -0.014364599
FINAL SINGLE POINT ENERGY     -1339.878799410384

DIPOLE MOMENT
-------------
                                X             Y             Z
Electronic contribution:     13.34553     -18.02877      15.01231
Nuclear contribution   :    -13.60088      18.16369     -15.60526
                        -----------------------------------------
Total Dipole Moment    :     -0.25534       0.13492      -0.59295
                        -----------------------------------------
Magnitude (a.u.)       :      0.65954
Magnitude (Debye)      :      1.67641

Rotational constants in cm-1:     0.020005     0.008396     0.006695
Rotational constants in MHz :   599.741506   251.692729   200.716761

                             ****ORCA TERMINATED NORMALLY****
TOTAL RUN TIME: 0 days 0 hours 0 minutes 21 seconds 548 msec
