                         Program Version 4.2.1 -  RELEASE  -
|  1> ! wB97X-D3 SP def2-SVP
|  2> %pal
|  3> nprocs 24
|  4> end
|  5>
|  6> * xyz 0 1
|  7> S 	 -121.599 	 22.1861 	 -24.9461
|  8> C 	 -120.777 	 22.7964 	 -26.388
|  9> C 	 -119.482 	 23.1957 	 -25.9632
| 10> C 	 -119.353 	 23.3993 	 -24.5252
| 11> C 	 -120.483 	 22.9563 	 -23.8571
| 12> H 	 -118.497 	 23.7955 	 -23.9853
| 13> C 	 -118.433 	 23.7155 	 -26.8749
| 14> H 	 -118.133 	 24.6855 	 -26.5981
| 15> H 	 -118.778 	 23.6634 	 -27.855
| 16> C 	 -117.137 	 22.8607 	 -26.8988
| 17> H 	 -117.103 	 22.2957 	 -25.9433
| 18> H 	 -117.316 	 22.0642 	 -27.7038
| 19> C 	 -115.804 	 23.5944 	 -27.1791
| 20> H 	 -115.74 	 23.9037 	 -28.2388
| 21> H 	 -115.693 	 24.4263 	 -26.4476
| 22> H 	 -114.983 	 22.9379 	 -26.933
| 23> S 	 -121.216 	 21.5661 	 -21.5752
| 24> C 	 -120.835 	 22.3308 	 -20.0432
| 25> C 	 -120.566 	 23.7111 	 -20.179
| 26> C 	 -120.623 	 24.1283 	 -21.5202
| 27> C 	 -120.749 	 23.0475 	 -22.4357
| 28> H 	 -120.403 	 24.3197 	 -19.2948
| 29> C 	 -120.267 	 25.5612 	 -21.9329
| 30> H 	 -119.125 	 25.6383 	 -21.9045
| 31> H 	 -120.454 	 26.1265 	 -21.0041
| 32> C 	 -120.935 	 26.2576 	 -23.1469
| 33> H 	 -122.006 	 26.3455 	 -23.0753
| 34> H 	 -120.788 	 25.7938 	 -24.1386
| 35> C 	 -120.447 	 27.6611 	 -23.1781
| 36> H 	 -120.911 	 28.15 	 -24.0408
| 37> H 	 -119.327 	 27.8181 	 -23.1948
| 38> H 	 -120.947 	 28.1667 	 -22.2738
| 39> H 	 -121.172 	 22.5634 	 -27.3941
| 40> H 	 -120.779 	 21.7139 	 -19.2064
| 41> *
| 42>
| 43>                          ****END OF INPUT****

CARTESIAN COORDINATES (ANGSTROEM)
---------------------------------
  S    -121.599000   22.186100  -24.946100
  C    -120.777000   22.796400  -26.388000
  C    -119.482000   23.195700  -25.963200
  C    -119.353000   23.399300  -24.525200
  C    -120.483000   22.956300  -23.857100
  H    -118.497000   23.795500  -23.985300
  C    -118.433000   23.715500  -26.874900
  H    -118.133000   24.685500  -26.598100
  H    -118.778000   23.663400  -27.855000
  C    -117.137000   22.860700  -26.898800
  H    -117.103000   22.295700  -25.943300
  H    -117.316000   22.064200  -27.703800
  C    -115.804000   23.594400  -27.179100
  H    -115.740000   23.903700  -28.238800
  H    -115.693000   24.426300  -26.447600
  H    -114.983000   22.937900  -26.933000
  S    -121.216000   21.566100  -21.575200
  C    -120.835000   22.330800  -20.043200
  C    -120.566000   23.711100  -20.179000
  C    -120.623000   24.128300  -21.520200
  C    -120.749000   23.047500  -22.435700
  H    -120.403000   24.319700  -19.294800
  C    -120.267000   25.561200  -21.932900
  H    -119.125000   25.638300  -21.904500
  H    -120.454000   26.126500  -21.004100
  C    -120.935000   26.257600  -23.146900
  H    -122.006000   26.345500  -23.075300
  H    -120.788000   25.793800  -24.138600
  C    -120.447000   27.661100  -23.178100
  H    -120.911000   28.150000  -24.040800
  H    -119.327000   27.818100  -23.194800
  H    -120.947000   28.166700  -22.273800
  H    -121.172000   22.563400  -27.394100
  H    -120.779000   21.713900  -19.206400

 Total Charge           Charge          ....    0
 Multiplicity           Mult            ....    1
 Number of Electrons    NEL             ....  134
 Basis Dimension        Dim             ....  322

ORBITAL ENERGIES
----------------

  NO   OCC          E(Eh)            E(eV)
   0   2.0000     -88.966119     -2420.8912
   1   2.0000     -88.961230     -2420.7581
   2   2.0000     -10.329771      -281.0874
   3   2.0000     -10.328038      -281.0402
   4   2.0000     -10.322684      -280.8945
   5   2.0000     -10.318383      -280.7775
   6   2.0000     -10.308291      -280.5029
   7   2.0000     -10.307894      -280.4920
   8   2.0000     -10.301511      -280.3184
   9   2.0000     -10.299492      -280.2634
  10   2.0000     -10.297074      -280.1976
  11   2.0000     -10.290828      -280.0277
  12   2.0000     -10.284421      -279.8533
  13   2.0000     -10.282789      -279.8089
  14   2.0000     -10.282316      -279.7961
  15   2.0000     -10.277806      -279.6733
  16   2.0000      -8.080593      -219.8841
  17   2.0000      -8.076258      -219.7662
  18   2.0000      -6.038943      -164.3280
  19   2.0000      -6.035163      -164.2251
  20   2.0000      -6.034853      -164.2167
  21   2.0000      -6.031540      -164.1266
  22   2.0000      -6.030740      -164.1048
  23   2.0000      -6.026901      -164.0003
  24   2.0000      -1.002352       -27.2754
  25   2.0000      -0.978939       -26.6383
  26   2.0000      -0.910914       -24.7872
  27   2.0000      -0.908343       -24.7173
  28   2.0000      -0.865212       -23.5436
  29   2.0000      -0.857168       -23.3247
  30   2.0000      -0.843145       -22.9431
  31   2.0000      -0.811862       -22.0919
  32   2.0000      -0.779428       -21.2093
  33   2.0000      -0.765060       -20.8183
  34   2.0000      -0.704418       -19.1682
  35   2.0000      -0.691946       -18.8288
  36   2.0000      -0.687167       -18.6988
  37   2.0000      -0.663207       -18.0468
  38   2.0000      -0.643587       -17.5129
  39   2.0000      -0.620162       -16.8755
  40   2.0000      -0.596331       -16.2270
  41   2.0000      -0.567250       -15.4357
  42   2.0000      -0.563014       -15.3204
  43   2.0000      -0.557398       -15.1676
  44   2.0000      -0.529033       -14.3957
  45   2.0000      -0.524519       -14.2729
  46   2.0000      -0.517653       -14.0861
  47   2.0000      -0.509536       -13.8652
  48   2.0000      -0.507389       -13.8068
  49   2.0000      -0.501869       -13.6566
  50   2.0000      -0.488600       -13.2955
  51   2.0000      -0.484682       -13.1889
  52   2.0000      -0.468377       -12.7452
  53   2.0000      -0.460352       -12.5268
  54   2.0000      -0.458030       -12.4636
  55   2.0000      -0.452452       -12.3118
  56   2.0000      -0.441515       -12.0142
  57   2.0000      -0.436028       -11.8649
  58   2.0000      -0.424529       -11.5520
  59   2.0000      -0.422032       -11.4841
  60   2.0000      -0.416111       -11.3230
  61   2.0000      -0.414886       -11.2896
  62   2.0000      -0.408047       -11.1035
  63   2.0000      -0.344949        -9.3865
  64   2.0000      -0.331927        -9.0322
  65   2.0000      -0.323297        -8.7974
  66   2.0000      -0.282934        -7.6990
  67   0.0000       0.023855         0.6491
  68   0.0000       0.057823         1.5735
  69   0.0000       0.102622         2.7925
  70   0.0000       0.110275         3.0007
  71   0.0000       0.131183         3.5697

MULLIKEN ATOMIC CHARGES
-----------------------
   0 S :    0.092559
   1 C :   -0.134881
   2 C :   -0.103856
   3 C :    0.018410
   4 C :   -0.134849
   5 H :    0.021905
   6 C :    0.145980
   7 H :    0.010631
   8 H :   -0.000829
   9 C :   -0.155176
  10 H :    0.037144
  11 H :    0.033970
  12 C :   -0.043194
  13 H :    0.048020
  14 H :    0.033025
  15 H :    0.035174
  16 S :    0.100802
  17 C :   -0.082056
  18 C :   -0.037912
  19 C :    0.001202
  20 C :   -0.156831
  21 H :    0.027979
  22 C :   -0.002059
  23 H :    0.044000
  24 H :    0.010017
  25 C :   -0.023853
  26 H :    0.027086
  27 H :    0.052129
  28 C :   -0.088622
  29 H :    0.031852
  30 H :    0.044878
  31 H :    0.034366
  32 H :    0.071312
  33 H :    0.041677
Sum of atomic charges:    0.0000000

LOEWDIN ATOMIC CHARGES
----------------------
   0 S :    0.392184
   1 C :   -0.201043
   2 C :   -0.053541
   3 C :   -0.064028
   4 C :   -0.190242
   5 H :    0.035506
   6 C :   -0.028802
   7 H :    0.022204
   8 H :    0.021547
   9 C :   -0.047957
  10 H :    0.022874
  11 H :    0.028426
  12 C :   -0.068919
  13 H :    0.030255
  14 H :    0.026992
  15 H :    0.027861
  16 S :    0.396915
  17 C :   -0.167306
  18 C :   -0.070809
  19 C :   -0.056502
  20 C :   -0.195311
  21 H :    0.035579
  22 C :   -0.042774
  23 H :    0.040779
  24 H :    0.031988
  25 C :   -0.045885
  26 H :    0.029204
  27 H :    0.030257
  28 C :   -0.071898
  29 H :    0.025244
  30 H :    0.027605
  31 H :    0.031075
  32 H :    0.035862
  33 H :    0.012659

  Mayer bond orders larger than 0.100000
B(  0-S ,  1-C ) :   1.1258 B(  0-S ,  4-C ) :   1.1559 B(  1-C ,  2-C ) :   1.5860
B(  1-C , 32-H ) :   0.9698 B(  2-C ,  3-C ) :   1.1980 B(  2-C ,  6-C ) :   1.0653
B(  3-C ,  4-C ) :   1.5714 B(  3-C ,  5-H ) :   0.9984 B(  4-C , 20-C ) :   1.0589
B(  6-C ,  7-H ) :   0.9452 B(  6-C ,  8-H ) :   0.9352 B(  6-C ,  9-C ) :   1.0304
B(  9-C , 10-H ) :   0.9683 B(  9-C , 11-H ) :   0.9572 B(  9-C , 12-C ) :   1.0773
B( 12-C , 13-H ) :   0.9750 B( 12-C , 14-H ) :   0.9741 B( 12-C , 15-H ) :   0.9731
B( 16-S , 17-C ) :   1.1761 B( 16-S , 20-C ) :   1.1417 B( 17-C , 18-C ) :   1.5622
B( 17-C , 20-C ) :   0.1154 B( 17-C , 33-H ) :   0.9792 B( 18-C , 19-C ) :   1.2616
B( 18-C , 21-H ) :   0.9937 B( 19-C , 20-C ) :   1.5461 B( 19-C , 22-C ) :   1.0348
B( 22-C , 23-H ) :   0.9356 B( 22-C , 24-H ) :   0.9316 B( 22-C , 25-C ) :   1.0499
B( 25-C , 26-H ) :   0.9501 B( 25-C , 27-H ) :   0.9513 B( 25-C , 28-C ) :   1.0873
B( 28-C , 29-H ) :   0.9714 B( 28-C , 30-H ) :   0.9735 B( 28-C , 31-H ) :   0.9746

Dispersion correction           -0.014347082
FINAL SINGLE POINT ENERGY     -1339.858036256060

DIPOLE MOMENT
-------------
                                X             Y             Z
Electronic contribution:    -17.86805     -20.26098      11.00244
Nuclear contribution   :     18.36277      20.70857     -11.03953
                        -----------------------------------------
Total Dipole Moment    :      0.49472       0.44759      -0.03708
                        -----------------------------------------
Magnitude (a.u.)       :      0.66818
Magnitude (Debye)      :      1.69838

Rotational constants in cm-1:     0.017040     0.008772     0.007326
Rotational constants in MHz :   510.851021   262.982657   219.641396

                             ****ORCA TERMINATED NORMALLY****
TOTAL RUN TIME: 0 days 0 hours 0 minutes 20 seconds 609 msec
