                         Program Version 4.2.1 -  RELEASE  -
|  1> ! wB97X-D3 SP def2-SVP
|  2> %pal
|  3> nprocs 24
|  4> end
|  5>
|  6> * xyz 0 1
|  7> S 	 -50.7294 	 -45.6416 	 -76.8915
|  8> C 	 -51.3464 	 -44.6965 	 -75.5131
|  9> C 	 -52.5826 	 -44.0992 	 -75.798
| 10> C 	 -53.0138 	 -44.3057 	 -77.1754
| 11> C 	 -52.0014 	 -44.8727 	 -77.9198
| 12> H 	 -53.9181 	 -44.0434 	 -77.5676
| 13> C 	 -53.4076 	 -43.456 	 -74.7011
| 14> H 	 -54.0335 	 -42.7301 	 -75.1582
| 15> H 	 -52.7419 	 -42.9689 	 -74.0147
| 16> C 	 -54.2506 	 -44.3393 	 -73.8771
| 17> H 	 -54.855 	 -44.8412 	 -74.5958
| 18> H 	 -53.617 	 -44.9564 	 -73.2908
| 19> C 	 -55.2883 	 -43.6909 	 -72.9548
| 20> H 	 -55.9584 	 -43.0964 	 -73.5744
| 21> H 	 -55.702 	 -44.4976 	 -72.3065
| 22> H 	 -54.8357 	 -43.037 	 -72.2752
| 23> S 	 -52.304 	 -46.973 	 -79.6622
| 24> C 	 -52.2774 	 -46.618 	 -81.3669
| 25> C 	 -52.1735 	 -45.256 	 -81.648
| 26> C 	 -52.0452 	 -44.5196 	 -80.4391
| 27> C 	 -52.0639 	 -45.2964 	 -79.2813
| 28> H 	 -52.1505 	 -44.9394 	 -82.6535
| 29> C 	 -51.7974 	 -43.0271 	 -80.5025
| 30> H 	 -52.6028 	 -42.6357 	 -79.9718
| 31> H 	 -51.8758 	 -42.5737 	 -81.5043
| 32> C 	 -50.4516 	 -42.4238 	 -79.9285
| 33> H 	 -50.5986 	 -42.3641 	 -78.8706
| 34> H 	 -50.4289 	 -41.3579 	 -80.3057
| 35> C 	 -49.1238 	 -43.1636 	 -80.3157
| 36> H 	 -48.9577 	 -43.0933 	 -81.4187
| 37> H 	 -49.2243 	 -44.2326 	 -80.1863
| 38> H 	 -48.1984 	 -42.7706 	 -79.8392
| 39> H 	 -50.9489 	 -44.8186 	 -74.4667
| 40> H 	 -52.551 	 -47.2702 	 -82.1227
| 41> *
| 42>
| 43>                          ****END OF INPUT****

CARTESIAN COORDINATES (ANGSTROEM)
---------------------------------
  S    -50.729400  -45.641600  -76.891500
  C    -51.346400  -44.696500  -75.513100
  C    -52.582600  -44.099200  -75.798000
  C    -53.013800  -44.305700  -77.175400
  C    -52.001400  -44.872700  -77.919800
  H    -53.918100  -44.043400  -77.567600
  C    -53.407600  -43.456000  -74.701100
  H    -54.033500  -42.730100  -75.158200
  H    -52.741900  -42.968900  -74.014700
  C    -54.250600  -44.339300  -73.877100
  H    -54.855000  -44.841200  -74.595800
  H    -53.617000  -44.956400  -73.290800
  C    -55.288300  -43.690900  -72.954800
  H    -55.958400  -43.096400  -73.574400
  H    -55.702000  -44.497600  -72.306500
  H    -54.835700  -43.037000  -72.275200
  S    -52.304000  -46.973000  -79.662200
  C    -52.277400  -46.618000  -81.366900
  C    -52.173500  -45.256000  -81.648000
  C    -52.045200  -44.519600  -80.439100
  C    -52.063900  -45.296400  -79.281300
  H    -52.150500  -44.939400  -82.653500
  C    -51.797400  -43.027100  -80.502500
  H    -52.602800  -42.635700  -79.971800
  H    -51.875800  -42.573700  -81.504300
  C    -50.451600  -42.423800  -79.928500
  H    -50.598600  -42.364100  -78.870600
  H    -50.428900  -41.357900  -80.305700
  C    -49.123800  -43.163600  -80.315700
  H    -48.957700  -43.093300  -81.418700
  H    -49.224300  -44.232600  -80.186300
  H    -48.198400  -42.770600  -79.839200
  H    -50.948900  -44.818600  -74.466700
  H    -52.551000  -47.270200  -82.122700

 Total Charge           Charge          ....    0
 Multiplicity           Mult            ....    1
 Number of Electrons    NEL             ....  134
 Basis Dimension        Dim             ....  322

ORBITAL ENERGIES
----------------

  NO   OCC          E(Eh)            E(eV)
   0   2.0000     -88.968626     -2420.9594
   1   2.0000     -88.966393     -2420.8986
   2   2.0000     -10.332014      -281.1484
   3   2.0000     -10.321703      -280.8678
   4   2.0000     -10.320306      -280.8298
   5   2.0000     -10.310776      -280.5705
   6   2.0000     -10.306853      -280.4637
   7   2.0000     -10.301995      -280.3315
   8   2.0000     -10.298004      -280.2229
   9   2.0000     -10.290244      -280.0118
  10   2.0000     -10.286883      -279.9203
  11   2.0000     -10.284515      -279.8559
  12   2.0000     -10.282144      -279.7914
  13   2.0000     -10.277094      -279.6539
  14   2.0000     -10.276113      -279.6272
  15   2.0000     -10.274353      -279.5794
  16   2.0000      -8.083491      -219.9630
  17   2.0000      -8.079893      -219.8651
  18   2.0000      -6.041907      -164.4086
  19   2.0000      -6.038465      -164.3150
  20   2.0000      -6.037945      -164.3008
  21   2.0000      -6.034857      -164.2168
  22   2.0000      -6.034377      -164.2037
  23   2.0000      -6.030374      -164.0948
  24   2.0000      -1.005949       -27.3733
  25   2.0000      -0.977980       -26.6122
  26   2.0000      -0.922237       -25.0953
  27   2.0000      -0.897290       -24.4165
  28   2.0000      -0.871533       -23.7156
  29   2.0000      -0.848827       -23.0978
  30   2.0000      -0.841968       -22.9111
  31   2.0000      -0.817032       -22.2326
  32   2.0000      -0.784620       -21.3506
  33   2.0000      -0.769759       -20.9462
  34   2.0000      -0.709612       -19.3095
  35   2.0000      -0.697604       -18.9828
  36   2.0000      -0.686775       -18.6881
  37   2.0000      -0.665843       -18.1185
  38   2.0000      -0.644064       -17.5259
  39   2.0000      -0.623804       -16.9746
  40   2.0000      -0.589541       -16.0422
  41   2.0000      -0.586059       -15.9475
  42   2.0000      -0.564738       -15.3673
  43   2.0000      -0.549207       -14.9447
  44   2.0000      -0.536449       -14.5975
  45   2.0000      -0.527698       -14.3594
  46   2.0000      -0.513371       -13.9695
  47   2.0000      -0.512420       -13.9437
  48   2.0000      -0.509480       -13.8637
  49   2.0000      -0.494552       -13.4574
  50   2.0000      -0.479687       -13.0529
  51   2.0000      -0.478459       -13.0195
  52   2.0000      -0.474643       -12.9157
  53   2.0000      -0.462472       -12.5845
  54   2.0000      -0.457766       -12.4565
  55   2.0000      -0.454508       -12.3678
  56   2.0000      -0.442756       -12.0480
  57   2.0000      -0.439287       -11.9536
  58   2.0000      -0.435460       -11.8495
  59   2.0000      -0.421818       -11.4783
  60   2.0000      -0.415298       -11.3008
  61   2.0000      -0.411834       -11.2066
  62   2.0000      -0.405905       -11.0452
  63   2.0000      -0.342674        -9.3246
  64   2.0000      -0.331182        -9.0119
  65   2.0000      -0.325320        -8.8524
  66   2.0000      -0.295112        -8.0304
  67   0.0000       0.028941         0.7875
  68   0.0000       0.053195         1.4475
  69   0.0000       0.100990         2.7481
  70   0.0000       0.123277         3.3545
  71   0.0000       0.125062         3.4031

MULLIKEN ATOMIC CHARGES
-----------------------
   0 S :    0.090396
   1 C :   -0.126439
   2 C :   -0.106181
   3 C :    0.093909
   4 C :   -0.170042
   5 H :   -0.016530
   6 C :    0.096427
   7 H :   -0.001422
   8 H :    0.012225
   9 C :   -0.050945
  10 H :    0.013367
  11 H :    0.012397
  12 C :   -0.020329
  13 H :    0.029502
  14 H :    0.046158
  15 H :    0.007066
  16 S :    0.130015
  17 C :   -0.070498
  18 C :   -0.033796
  19 C :   -0.032264
  20 C :   -0.168168
  21 H :    0.006569
  22 C :    0.090788
  23 H :    0.009082
  24 H :    0.018324
  25 C :   -0.085285
  26 H :    0.037460
  27 H :    0.034449
  28 C :   -0.058863
  29 H :    0.021881
  30 H :    0.040204
  31 H :    0.047773
  32 H :    0.070511
  33 H :    0.032258
Sum of atomic charges:   -0.0000000

LOEWDIN ATOMIC CHARGES
----------------------
   0 S :    0.367283
   1 C :   -0.194141
   2 C :   -0.054361
   3 C :   -0.034845
   4 C :   -0.168881
   5 H :    0.017993
   6 C :   -0.031891
   7 H :    0.021428
   8 H :    0.027535
   9 C :   -0.036245
  10 H :    0.020688
  11 H :    0.016819
  12 C :   -0.056936
  13 H :    0.025215
  14 H :    0.037649
  15 H :    0.011955
  16 S :    0.424211
  17 C :   -0.178591
  18 C :   -0.062017
  19 C :   -0.051651
  20 C :   -0.222839
  21 H :    0.027431
  22 C :   -0.032203
  23 H :    0.024625
  24 H :    0.030595
  25 C :   -0.037437
  26 H :    0.018726
  27 H :    0.029262
  28 C :   -0.073497
  29 H :    0.025962
  30 H :    0.024490
  31 H :    0.031956
  32 H :    0.037584
  33 H :    0.014125

  Mayer bond orders larger than 0.100000
B(  0-S ,  1-C ) :   1.1229 B(  0-S ,  4-C ) :   1.1263 B(  1-C ,  2-C ) :   1.6307
B(  1-C , 32-H ) :   0.9595 B(  2-C ,  3-C ) :   1.2050 B(  2-C ,  6-C ) :   1.0369
B(  3-C ,  4-C ) :   1.5990 B(  3-C ,  5-H ) :   1.0073 B(  4-C , 20-C ) :   1.0509
B(  6-C ,  7-H ) :   0.9312 B(  6-C ,  8-H ) :   0.9316 B(  6-C ,  9-C ) :   1.0825
B(  9-C , 10-H ) :   0.9535 B(  9-C , 11-H ) :   0.9524 B(  9-C , 12-C ) :   1.0895
B( 12-C , 13-H ) :   0.9739 B( 12-C , 14-H ) :   0.9725 B( 12-C , 15-H ) :   0.9734
B( 16-S , 17-C ) :   1.1677 B( 16-S , 20-C ) :   1.1448 B( 17-C , 18-C ) :   1.5968
B( 17-C , 33-H ) :   0.9695 B( 18-C , 19-C ) :   1.2531 B( 18-C , 21-H ) :   1.0016
B( 19-C , 20-C ) :   1.5742 B( 19-C , 22-C ) :   1.0352 B( 22-C , 23-H ) :   0.9214
B( 22-C , 24-H ) :   0.9461 B( 22-C , 25-C ) :   1.0669 B( 25-C , 26-H ) :   0.9585
B( 25-C , 27-H ) :   0.9590 B( 25-C , 28-C ) :   1.0672 B( 28-C , 29-H ) :   0.9757
B( 28-C , 30-H ) :   0.9734 B( 28-C , 31-H ) :   0.9766

Dispersion correction           -0.014878697
FINAL SINGLE POINT ENERGY     -1339.855871230969

DIPOLE MOMENT
-------------
                                X             Y             Z
Electronic contribution:      4.85218     -17.79410      -9.24662
Nuclear contribution   :     -5.29011      18.13999       9.33944
                        -----------------------------------------
Total Dipole Moment    :     -0.43793       0.34589       0.09282
                        -----------------------------------------
Magnitude (a.u.)       :      0.56572
Magnitude (Debye)      :      1.43794

Rotational constants in cm-1:     0.022162     0.007624     0.006980
Rotational constants in MHz :   664.409999   228.575634   209.257443

                             ****ORCA TERMINATED NORMALLY****
TOTAL RUN TIME: 0 days 0 hours 0 minutes 20 seconds 564 msec
