                         Program Version 4.2.1 -  RELEASE  -
|  1> ! wB97X-D3 SP def2-SVP
|  2> %pal
|  3> nprocs 24
|  4> end
|  5>
|  6> * xyz 0 1
|  7> S 	 -59.1095 	 -54.9509 	 -85.5408
|  8> C 	 -59.9426 	 -53.6564 	 -84.7341
|  9> C 	 -60.9497 	 -54.0637 	 -83.8889
| 10> C 	 -61.1606 	 -55.5071 	 -84.0549
| 11> C 	 -60.2257 	 -56.1635 	 -84.8715
| 12> H 	 -61.8665 	 -56.0452 	 -83.4936
| 13> C 	 -61.8172 	 -53.1719 	 -83.0258
| 14> H 	 -61.1353 	 -52.6223 	 -82.413
| 15> H 	 -62.4002 	 -53.8588 	 -82.4065
| 16> C 	 -62.7184 	 -52.1593 	 -83.7551
| 17> H 	 -62.191 	 -51.432 	 -84.4293
| 18> H 	 -63.5421 	 -52.5818 	 -84.3118
| 19> C 	 -63.41 	 -51.238 	 -82.7538
| 20> H 	 -64.3158 	 -50.653 	 -83.1839
| 21> H 	 -63.8222 	 -51.7768 	 -81.9542
| 22> H 	 -62.7641 	 -50.4818 	 -82.3715
| 23> S 	 -58.7572 	 -58.468 	 -84.3536
| 24> C 	 -59.3996 	 -60.0256 	 -84.9527
| 25> C 	 -60.6917 	 -59.8436 	 -85.5189
| 26> C 	 -61.0528 	 -58.4397 	 -85.621
| 27> C 	 -60.1041 	 -57.5775 	 -85.1578
| 28> H 	 -61.3007 	 -60.6537 	 -86.0337
| 29> C 	 -62.3387 	 -58.0825 	 -86.2205
| 30> H 	 -62.7126 	 -57.2323 	 -85.6507
| 31> H 	 -62.9635 	 -58.9682 	 -86.1241
| 32> C 	 -62.347 	 -57.7146 	 -87.6522
| 33> H 	 -62.0722 	 -58.5226 	 -88.2679
| 34> H 	 -61.4703 	 -56.9178 	 -87.8408
| 35> C 	 -63.7137 	 -57.3062 	 -88.087
| 36> H 	 -64.2601 	 -58.2759 	 -87.9692
| 37> H 	 -63.5719 	 -57.0218 	 -89.1532
| 38> H 	 -64.1281 	 -56.3688 	 -87.6435
| 39> H 	 -59.8102 	 -52.5935 	 -84.7875
| 40> H 	 -58.9165 	 -60.9271 	 -84.8314
| 41> *
| 42>
| 43>                          ****END OF INPUT****

CARTESIAN COORDINATES (ANGSTROEM)
---------------------------------
  S    -59.109500  -54.950900  -85.540800
  C    -59.942600  -53.656400  -84.734100
  C    -60.949700  -54.063700  -83.888900
  C    -61.160600  -55.507100  -84.054900
  C    -60.225700  -56.163500  -84.871500
  H    -61.866500  -56.045200  -83.493600
  C    -61.817200  -53.171900  -83.025800
  H    -61.135300  -52.622300  -82.413000
  H    -62.400200  -53.858800  -82.406500
  C    -62.718400  -52.159300  -83.755100
  H    -62.191000  -51.432000  -84.429300
  H    -63.542100  -52.581800  -84.311800
  C    -63.410000  -51.238000  -82.753800
  H    -64.315800  -50.653000  -83.183900
  H    -63.822200  -51.776800  -81.954200
  H    -62.764100  -50.481800  -82.371500
  S    -58.757200  -58.468000  -84.353600
  C    -59.399600  -60.025600  -84.952700
  C    -60.691700  -59.843600  -85.518900
  C    -61.052800  -58.439700  -85.621000
  C    -60.104100  -57.577500  -85.157800
  H    -61.300700  -60.653700  -86.033700
  C    -62.338700  -58.082500  -86.220500
  H    -62.712600  -57.232300  -85.650700
  H    -62.963500  -58.968200  -86.124100
  C    -62.347000  -57.714600  -87.652200
  H    -62.072200  -58.522600  -88.267900
  H    -61.470300  -56.917800  -87.840800
  C    -63.713700  -57.306200  -88.087000
  H    -64.260100  -58.275900  -87.969200
  H    -63.571900  -57.021800  -89.153200
  H    -64.128100  -56.368800  -87.643500
  H    -59.810200  -52.593500  -84.787500
  H    -58.916500  -60.927100  -84.831400

 Total Charge           Charge          ....    0
 Multiplicity           Mult            ....    1
 Number of Electrons    NEL             ....  134
 Basis Dimension        Dim             ....  322

ORBITAL ENERGIES
----------------

  NO   OCC          E(Eh)            E(eV)
   0   2.0000     -88.968194     -2420.9476
   1   2.0000     -88.964394     -2420.8442
   2   2.0000     -10.332117      -281.1512
   3   2.0000     -10.324904      -280.9549
   4   2.0000     -10.323845      -280.9261
   5   2.0000     -10.310871      -280.5731
   6   2.0000     -10.305734      -280.4333
   7   2.0000     -10.301253      -280.3113
   8   2.0000     -10.298878      -280.2467
   9   2.0000     -10.297840      -280.2185
  10   2.0000     -10.297402      -280.2066
  11   2.0000     -10.292783      -280.0809
  12   2.0000     -10.282409      -279.7986
  13   2.0000     -10.282034      -279.7884
  14   2.0000     -10.279894      -279.7301
  15   2.0000     -10.277331      -279.6604
  16   2.0000      -8.082301      -219.9306
  17   2.0000      -8.077864      -219.8099
  18   2.0000      -6.040953      -164.3827
  19   2.0000      -6.036802      -164.2697
  20   2.0000      -6.036596      -164.2641
  21   2.0000      -6.033050      -164.1676
  22   2.0000      -6.032574      -164.1547
  23   2.0000      -6.028424      -164.0417
  24   2.0000      -0.999178       -27.1890
  25   2.0000      -0.976678       -26.5767
  26   2.0000      -0.921892       -25.0860
  27   2.0000      -0.914269       -24.8785
  28   2.0000      -0.869057       -23.6482
  29   2.0000      -0.854926       -23.2637
  30   2.0000      -0.847002       -23.0481
  31   2.0000      -0.809966       -22.0403
  32   2.0000      -0.780997       -21.2520
  33   2.0000      -0.770963       -20.9790
  34   2.0000      -0.706419       -19.2226
  35   2.0000      -0.703757       -19.1502
  36   2.0000      -0.686607       -18.6835
  37   2.0000      -0.668338       -18.1864
  38   2.0000      -0.638866       -17.3844
  39   2.0000      -0.615388       -16.7456
  40   2.0000      -0.598259       -16.2795
  41   2.0000      -0.576933       -15.6991
  42   2.0000      -0.575774       -15.6676
  43   2.0000      -0.560432       -15.2501
  44   2.0000      -0.525775       -14.3071
  45   2.0000      -0.523667       -14.2497
  46   2.0000      -0.522379       -14.2147
  47   2.0000      -0.512904       -13.9568
  48   2.0000      -0.507648       -13.8138
  49   2.0000      -0.496859       -13.5202
  50   2.0000      -0.493779       -13.4364
  51   2.0000      -0.482452       -13.1282
  52   2.0000      -0.468319       -12.7436
  53   2.0000      -0.463043       -12.6001
  54   2.0000      -0.456928       -12.4336
  55   2.0000      -0.442002       -12.0275
  56   2.0000      -0.438263       -11.9258
  57   2.0000      -0.434585       -11.8257
  58   2.0000      -0.429992       -11.7007
  59   2.0000      -0.428883       -11.6705
  60   2.0000      -0.423376       -11.5207
  61   2.0000      -0.417526       -11.3614
  62   2.0000      -0.408804       -11.1241
  63   2.0000      -0.338422        -9.2089
  64   2.0000      -0.328454        -8.9377
  65   2.0000      -0.326408        -8.8820
  66   2.0000      -0.298453        -8.1213
  67   0.0000       0.031356         0.8532
  68   0.0000       0.057585         1.5670
  69   0.0000       0.104446         2.8421
  70   0.0000       0.118605         3.2274
  71   0.0000       0.126338         3.4378

MULLIKEN ATOMIC CHARGES
-----------------------
   0 S :    0.122276
   1 C :   -0.090141
   2 C :   -0.129336
   3 C :    0.066497
   4 C :   -0.196102
   5 H :   -0.003610
   6 C :    0.101406
   7 H :    0.027667
   8 H :    0.021989
   9 C :   -0.068315
  10 H :    0.036819
  11 H :    0.033307
  12 C :   -0.069544
  13 H :    0.038987
  14 H :    0.016916
  15 H :    0.027141
  16 S :    0.089787
  17 C :   -0.065782
  18 C :   -0.046176
  19 C :   -0.055052
  20 C :   -0.124736
  21 H :    0.047604
  22 C :    0.098285
  23 H :    0.014774
  24 H :    0.006261
  25 C :   -0.099148
  26 H :    0.008365
  27 H :    0.040192
  28 C :   -0.040052
  29 H :    0.040728
  30 H :    0.036663
  31 H :    0.046934
  32 H :    0.029602
  33 H :    0.035794
Sum of atomic charges:   -0.0000000

LOEWDIN ATOMIC CHARGES
----------------------
   0 S :    0.404870
   1 C :   -0.197532
   2 C :   -0.064875
   3 C :   -0.049622
   4 C :   -0.194781
   5 H :    0.019536
   6 C :   -0.027063
   7 H :    0.032790
   8 H :    0.033873
   9 C :   -0.040598
  10 H :    0.029916
  11 H :    0.025191
  12 C :   -0.067834
  13 H :    0.035942
  14 H :    0.013585
  15 H :    0.017724
  16 S :    0.370410
  17 C :   -0.153222
  18 C :   -0.074856
  19 C :   -0.050314
  20 C :   -0.194152
  21 H :    0.042197
  22 C :   -0.038788
  23 H :    0.032853
  24 H :    0.028332
  25 C :   -0.047619
  26 H :    0.015208
  27 H :    0.032183
  28 C :   -0.069543
  29 H :    0.034745
  30 H :    0.032315
  31 H :    0.030581
  32 H :    0.026254
  33 H :    0.012296

  Mayer bond orders larger than 0.100000
B(  0-S ,  1-C ) :   1.1411 B(  0-S ,  4-C ) :   1.1325 B(  1-C ,  2-C ) :   1.6355
B(  1-C , 32-H ) :   0.9631 B(  2-C ,  3-C ) :   1.2408 B(  2-C ,  6-C ) :   1.0189
B(  3-C ,  4-C ) :   1.5852 B(  3-C ,  5-H ) :   0.9912 B(  4-C , 20-C ) :   1.0293
B(  6-C ,  7-H ) :   0.9349 B(  6-C ,  8-H ) :   0.9370 B(  6-C ,  9-C ) :   1.0673
B(  9-C , 10-H ) :   0.9581 B(  9-C , 11-H ) :   0.9589 B(  9-C , 12-C ) :   1.0737
B( 12-C , 13-H ) :   0.9754 B( 12-C , 14-H ) :   0.9735 B( 12-C , 15-H ) :   0.9782
B( 16-S , 17-C ) :   1.1554 B( 16-S , 20-C ) :   1.1066 B( 17-C , 18-C ) :   1.6019
B( 17-C , 33-H ) :   0.9797 B( 18-C , 19-C ) :   1.2308 B( 18-C , 21-H ) :   0.9718
B( 19-C , 20-C ) :   1.6284 B( 19-C , 22-C ) :   1.0621 B( 22-C , 23-H ) :   0.9149
B( 22-C , 24-H ) :   0.9170 B( 22-C , 25-C ) :   1.0899 B( 25-C , 26-H ) :   0.9472
B( 25-C , 27-H ) :   0.9473 B( 25-C , 28-C ) :   1.0788 B( 28-C , 29-H ) :   0.9684
B( 28-C , 30-H ) :   0.9715 B( 28-C , 31-H ) :   0.9735

Dispersion correction           -0.013810550
FINAL SINGLE POINT ENERGY     -1339.857065811211

DIPOLE MOMENT
-------------
                                X             Y             Z
Electronic contribution:     25.56931     -13.39305       2.55576
Nuclear contribution   :    -26.25813      13.49747      -2.48759
                        -----------------------------------------
Total Dipole Moment    :     -0.68882       0.10442       0.06817
                        -----------------------------------------
Magnitude (a.u.)       :      0.70001
Magnitude (Debye)      :      1.77930

Rotational constants in cm-1:     0.018979     0.007876     0.006475
Rotational constants in MHz :   568.962708   236.112962   194.120973

                             ****ORCA TERMINATED NORMALLY****
TOTAL RUN TIME: 0 days 0 hours 0 minutes 21 seconds 277 msec
