                         Program Version 4.2.1 -  RELEASE  -
|  1> ! wB97X-D3 SP def2-SVP
|  2> %pal
|  3> nprocs 24
|  4> end
|  5>
|  6> * xyz 0 1
|  7> S 	 -42.1879 	 19.9184 	 -97.7301
|  8> C 	 -43.3189 	 20.512 	 -96.5258
|  9> C 	 -44.585 	 20.1441 	 -96.8318
| 10> C 	 -44.5996 	 19.2249 	 -97.9372
| 11> C 	 -43.422 	 18.9538 	 -98.5773
| 12> H 	 -45.4564 	 18.5944 	 -98.2305
| 13> C 	 -45.8312 	 20.5912 	 -96.0826
| 14> H 	 -46.7791 	 20.7019 	 -96.6399
| 15> H 	 -45.7665 	 21.6607 	 -95.9549
| 16> C 	 -46.2247 	 20.1082 	 -94.6762
| 17> H 	 -45.3248 	 20.0549 	 -94.0328
| 18> H 	 -46.6927 	 20.8548 	 -94.106
| 19> C 	 -47.1031 	 18.8337 	 -94.6388
| 20> H 	 -48.1208 	 18.976 	 -95.1155
| 21> H 	 -46.5414 	 18.0785 	 -95.2176
| 22> H 	 -47.2537 	 18.4928 	 -93.6212
| 23> S 	 -42.2347 	 18.3711 	 -100.91
| 24> C 	 -42.0962 	 16.7237 	 -101.49
| 25> C 	 -42.7316 	 15.8463 	 -100.683
| 26> C 	 -43.3559 	 16.4767 	 -99.5318
| 27> C 	 -43.1301 	 17.8568 	 -99.5168
| 28> H 	 -42.7611 	 14.7778 	 -100.957
| 29> C 	 -43.9981 	 15.5994 	 -98.4334
| 30> H 	 -44.5865 	 14.7509 	 -98.8291
| 31> H 	 -44.7795 	 16.121 	 -97.8253
| 32> C 	 -43.0947 	 15.1063 	 -97.3186
| 33> H 	 -42.3649 	 14.3957 	 -97.7823
| 34> H 	 -43.7063 	 14.5135 	 -96.6307
| 35> C 	 -42.2839 	 16.2778 	 -96.6763
| 36> H 	 -41.578 	 15.954 	 -95.8593
| 37> H 	 -42.9016 	 17.0526 	 -96.2479
| 38> H 	 -41.7012 	 16.7849 	 -97.4836
| 39> H 	 -42.9762 	 21.1856 	 -95.722
| 40> H 	 -41.6308 	 16.3811 	 -102.403
| 41> *
| 42>
| 43>                          ****END OF INPUT****

CARTESIAN COORDINATES (ANGSTROEM)
---------------------------------
  S    -42.187900   19.918400  -97.730100
  C    -43.318900   20.512000  -96.525800
  C    -44.585000   20.144100  -96.831800
  C    -44.599600   19.224900  -97.937200
  C    -43.422000   18.953800  -98.577300
  H    -45.456400   18.594400  -98.230500
  C    -45.831200   20.591200  -96.082600
  H    -46.779100   20.701900  -96.639900
  H    -45.766500   21.660700  -95.954900
  C    -46.224700   20.108200  -94.676200
  H    -45.324800   20.054900  -94.032800
  H    -46.692700   20.854800  -94.106000
  C    -47.103100   18.833700  -94.638800
  H    -48.120800   18.976000  -95.115500
  H    -46.541400   18.078500  -95.217600
  H    -47.253700   18.492800  -93.621200
  S    -42.234700   18.371100  -100.910000
  C    -42.096200   16.723700  -101.490000
  C    -42.731600   15.846300  -100.683000
  C    -43.355900   16.476700  -99.531800
  C    -43.130100   17.856800  -99.516800
  H    -42.761100   14.777800  -100.957000
  C    -43.998100   15.599400  -98.433400
  H    -44.586500   14.750900  -98.829100
  H    -44.779500   16.121000  -97.825300
  C    -43.094700   15.106300  -97.318600
  H    -42.364900   14.395700  -97.782300
  H    -43.706300   14.513500  -96.630700
  C    -42.283900   16.277800  -96.676300
  H    -41.578000   15.954000  -95.859300
  H    -42.901600   17.052600  -96.247900
  H    -41.701200   16.784900  -97.483600
  H    -42.976200   21.185600  -95.722000
  H    -41.630800   16.381100  -102.403000

 Total Charge           Charge          ....    0
 Multiplicity           Mult            ....    1
 Number of Electrons    NEL             ....  134
 Basis Dimension        Dim             ....  322

ORBITAL ENERGIES
----------------

  NO   OCC          E(Eh)            E(eV)
   0   2.0000     -88.966559     -2420.9031
   1   2.0000     -88.964365     -2420.8434
   2   2.0000     -10.333597      -281.1915
   3   2.0000     -10.331788      -281.1423
   4   2.0000     -10.321127      -280.8521
   5   2.0000     -10.315136      -280.6891
   6   2.0000     -10.313855      -280.6543
   7   2.0000     -10.307484      -280.4809
   8   2.0000     -10.296508      -280.1822
   9   2.0000     -10.296178      -280.1732
  10   2.0000     -10.295586      -280.1571
  11   2.0000     -10.293914      -280.1116
  12   2.0000     -10.287382      -279.9339
  13   2.0000     -10.286857      -279.9196
  14   2.0000     -10.283850      -279.8378
  15   2.0000     -10.273851      -279.5657
  16   2.0000      -8.081671      -219.9135
  17   2.0000      -8.078672      -219.8319
  18   2.0000      -6.040205      -164.3623
  19   2.0000      -6.037319      -164.2838
  20   2.0000      -6.036079      -164.2500
  21   2.0000      -6.033181      -164.1712
  22   2.0000      -6.032420      -164.1505
  23   2.0000      -6.029316      -164.0660
  24   2.0000      -1.008286       -27.4368
  25   2.0000      -0.987700       -26.8767
  26   2.0000      -0.909076       -24.7372
  27   2.0000      -0.904498       -24.6127
  28   2.0000      -0.874407       -23.7938
  29   2.0000      -0.843923       -22.9643
  30   2.0000      -0.839252       -22.8372
  31   2.0000      -0.817664       -22.2498
  32   2.0000      -0.783738       -21.3266
  33   2.0000      -0.773256       -21.0414
  34   2.0000      -0.705750       -19.2044
  35   2.0000      -0.705126       -19.1875
  36   2.0000      -0.684883       -18.6366
  37   2.0000      -0.659435       -17.9441
  38   2.0000      -0.645014       -17.5517
  39   2.0000      -0.617466       -16.8021
  40   2.0000      -0.597190       -16.2504
  41   2.0000      -0.577398       -15.7118
  42   2.0000      -0.554558       -15.0903
  43   2.0000      -0.545970       -14.8566
  44   2.0000      -0.542005       -14.7487
  45   2.0000      -0.525985       -14.3128
  46   2.0000      -0.513620       -13.9763
  47   2.0000      -0.505335       -13.7509
  48   2.0000      -0.501849       -13.6560
  49   2.0000      -0.497603       -13.5405
  50   2.0000      -0.485960       -13.2237
  51   2.0000      -0.480857       -13.0848
  52   2.0000      -0.470235       -12.7957
  53   2.0000      -0.466974       -12.7070
  54   2.0000      -0.459703       -12.5091
  55   2.0000      -0.444074       -12.0839
  56   2.0000      -0.440990       -12.0000
  57   2.0000      -0.432168       -11.7599
  58   2.0000      -0.427629       -11.6364
  59   2.0000      -0.421314       -11.4645
  60   2.0000      -0.416176       -11.3247
  61   2.0000      -0.409970       -11.1559
  62   2.0000      -0.405310       -11.0290
  63   2.0000      -0.350485        -9.5372
  64   2.0000      -0.333305        -9.0697
  65   2.0000      -0.330612        -8.9964
  66   2.0000      -0.301319        -8.1993
  67   0.0000       0.031909         0.8683
  68   0.0000       0.063300         1.7225
  69   0.0000       0.109908         2.9907
  70   0.0000       0.121578         3.3083
  71   0.0000       0.127075         3.4579

MULLIKEN ATOMIC CHARGES
-----------------------
   0 S :    0.096312
   1 C :   -0.143138
   2 C :   -0.020026
   3 C :    0.013001
   4 C :   -0.119404
   5 H :    0.022681
   6 C :    0.037106
   7 H :    0.021438
   8 H :    0.013750
   9 C :   -0.048609
  10 H :    0.013974
  11 H :    0.006026
  12 C :   -0.062850
  13 H :    0.041362
  14 H :    0.036923
  15 H :    0.035935
  16 S :    0.107797
  17 C :   -0.073775
  18 C :   -0.050710
  19 C :   -0.016153
  20 C :   -0.185122
  21 H :    0.033157
  22 C :    0.027698
  23 H :    0.029824
  24 H :    0.020560
  25 C :   -0.061044
  26 H :    0.025032
  27 H :    0.032348
  28 C :   -0.075015
  29 H :    0.041845
  30 H :    0.029370
  31 H :    0.051860
  32 H :    0.066192
  33 H :    0.051653
Sum of atomic charges:   -0.0000000

LOEWDIN ATOMIC CHARGES
----------------------
   0 S :    0.388820
   1 C :   -0.178760
   2 C :   -0.071463
   3 C :   -0.059860
   4 C :   -0.197297
   5 H :    0.035081
   6 C :   -0.048291
   7 H :    0.037857
   8 H :    0.037589
   9 C :   -0.045165
  10 H :    0.026124
  11 H :    0.016919
  12 C :   -0.069066
  13 H :    0.030539
  14 H :    0.026576
  15 H :    0.024186
  16 S :    0.414599
  17 C :   -0.183802
  18 C :   -0.072637
  19 C :   -0.053164
  20 C :   -0.198850
  21 H :    0.039397
  22 C :   -0.043002
  23 H :    0.032982
  24 H :    0.030479
  25 C :   -0.040889
  26 H :    0.021669
  27 H :    0.023506
  28 C :   -0.073692
  29 H :    0.030555
  30 H :    0.019913
  31 H :    0.030681
  32 H :    0.037038
  33 H :    0.031428

  Mayer bond orders larger than 0.100000
B(  0-S ,  1-C ) :   1.1465 B(  0-S ,  4-C ) :   1.1233 B(  1-C ,  2-C ) :   1.6103
B(  1-C , 32-H ) :   0.9677 B(  2-C ,  3-C ) :   1.2169 B(  2-C ,  6-C ) :   1.0139
B(  3-C ,  4-C ) :   1.6137 B(  3-C ,  5-H ) :   0.9967 B(  4-C , 20-C ) :   1.0154
B(  6-C ,  7-H ) :   0.9440 B(  6-C ,  8-H ) :   0.9282 B(  6-C ,  9-C ) :   1.0818
B(  9-C , 10-H ) :   0.9489 B(  9-C , 11-H ) :   0.9495 B(  9-C , 12-C ) :   1.0767
B( 12-C , 13-H ) :   0.9746 B( 12-C , 14-H ) :   0.9799 B( 12-C , 15-H ) :   0.9739
B( 16-S , 17-C ) :   1.1379 B( 16-S , 20-C ) :   1.1532 B( 17-C , 18-C ) :   1.6498
B( 17-C , 33-H ) :   0.9651 B( 18-C , 19-C ) :   1.2145 B( 18-C , 21-H ) :   0.9845
B( 19-C , 20-C ) :   1.6063 B( 19-C , 22-C ) :   1.0373 B( 22-C , 23-H ) :   0.9363
B( 22-C , 24-H ) :   0.9425 B( 22-C , 25-C ) :   1.0717 B( 25-C , 26-H ) :   0.9549
B( 25-C , 27-H ) :   0.9561 B( 25-C , 28-C ) :   1.0674 B( 28-C , 29-H ) :   0.9749
B( 28-C , 30-H ) :   0.9757 B( 28-C , 31-H ) :   0.9679

Dispersion correction           -0.015908519
FINAL SINGLE POINT ENERGY     -1339.875264056755

DIPOLE MOMENT
-------------
                                X             Y             Z
Electronic contribution:     15.31324       9.03731     -21.46603
Nuclear contribution   :    -15.75857      -9.26892      21.85454
                        -----------------------------------------
Total Dipole Moment    :     -0.44533      -0.23162       0.38851
                        -----------------------------------------
Magnitude (a.u.)       :      0.63475
Magnitude (Debye)      :      1.61340

Rotational constants in cm-1:     0.021373     0.008865     0.007449
Rotational constants in MHz :   640.751012   265.762306   223.306534

                             ****ORCA TERMINATED NORMALLY****
TOTAL RUN TIME: 0 days 0 hours 0 minutes 22 seconds 667 msec
