                         Program Version 4.2.1 -  RELEASE  -
|  1> ! wB97X-D3 SP def2-SVP
|  2> %pal
|  3> nprocs 24
|  4> end
|  5>
|  6> * xyz 0 1
|  7> S 	 -45.624 	 20.2093 	 31.7606
|  8> C 	 -45.2694 	 19.1953 	 30.3526
|  9> C 	 -45.9744 	 19.6326 	 29.1933
| 10> C 	 -46.7776 	 20.8022 	 29.5197
| 11> C 	 -46.7923 	 21.1332 	 30.8394
| 12> H 	 -47.3841 	 21.3149 	 28.8296
| 13> C 	 -45.7812 	 19.0664 	 27.8567
| 14> H 	 -46.545 	 18.3643 	 27.7491
| 15> H 	 -44.8453 	 18.4614 	 27.7772
| 16> C 	 -45.7302 	 20.0899 	 26.7502
| 17> H 	 -46.7245 	 20.4639 	 26.6478
| 18> H 	 -44.9197 	 20.8 	 27.0442
| 19> C 	 -45.3566 	 19.4668 	 25.3749
| 20> H 	 -46.2308 	 18.8817 	 25.0585
| 21> H 	 -45.0003 	 20.1718 	 24.5759
| 22> H 	 -44.4674 	 18.8044 	 25.5298
| 23> S 	 -48.4784 	 21.7225 	 33.0704
| 24> C 	 -49.3507 	 23.2626 	 33.0768
| 25> C 	 -48.9762 	 24.0312 	 31.9589
| 26> C 	 -48.0092 	 23.3918 	 31.0802
| 27> C 	 -47.636 	 22.1188 	 31.5243
| 28> H 	 -49.458 	 25.0327 	 31.8923
| 29> C 	 -47.4699 	 24.1112 	 29.8734
| 30> H 	 -47.979 	 25.0759 	 29.7177
| 31> H 	 -47.799 	 23.518 	 29.0206
| 32> C 	 -45.9256 	 24.3324 	 29.9085
| 33> H 	 -45.626 	 24.3424 	 28.9136
| 34> H 	 -45.2768 	 23.5987 	 30.3939
| 35> C 	 -45.5999 	 25.6671 	 30.5545
| 36> H 	 -45.1969 	 25.5353 	 31.5801
| 37> H 	 -46.456 	 26.3688 	 30.6316
| 38> H 	 -44.8399 	 26.3419 	 30.091
| 39> H 	 -44.7039 	 18.2726 	 30.3497
| 40> H 	 -50.0001 	 23.7281 	 33.871
| 41> *
| 42>
| 43>                          ****END OF INPUT****

CARTESIAN COORDINATES (ANGSTROEM)
---------------------------------
  S    -45.624000   20.209300   31.760600
  C    -45.269400   19.195300   30.352600
  C    -45.974400   19.632600   29.193300
  C    -46.777600   20.802200   29.519700
  C    -46.792300   21.133200   30.839400
  H    -47.384100   21.314900   28.829600
  C    -45.781200   19.066400   27.856700
  H    -46.545000   18.364300   27.749100
  H    -44.845300   18.461400   27.777200
  C    -45.730200   20.089900   26.750200
  H    -46.724500   20.463900   26.647800
  H    -44.919700   20.800000   27.044200
  C    -45.356600   19.466800   25.374900
  H    -46.230800   18.881700   25.058500
  H    -45.000300   20.171800   24.575900
  H    -44.467400   18.804400   25.529800
  S    -48.478400   21.722500   33.070400
  C    -49.350700   23.262600   33.076800
  C    -48.976200   24.031200   31.958900
  C    -48.009200   23.391800   31.080200
  C    -47.636000   22.118800   31.524300
  H    -49.458000   25.032700   31.892300
  C    -47.469900   24.111200   29.873400
  H    -47.979000   25.075900   29.717700
  H    -47.799000   23.518000   29.020600
  C    -45.925600   24.332400   29.908500
  H    -45.626000   24.342400   28.913600
  H    -45.276800   23.598700   30.393900
  C    -45.599900   25.667100   30.554500
  H    -45.196900   25.535300   31.580100
  H    -46.456000   26.368800   30.631600
  H    -44.839900   26.341900   30.091000
  H    -44.703900   18.272600   30.349700
  H    -50.000100   23.728100   33.871000

 Total Charge           Charge          ....    0
 Multiplicity           Mult            ....    1
 Number of Electrons    NEL             ....  134
 Basis Dimension        Dim             ....  322

ORBITAL ENERGIES
----------------

  NO   OCC          E(Eh)            E(eV)
   0   2.0000     -88.967961     -2420.9413
   1   2.0000     -88.966924     -2420.9131
   2   2.0000     -10.331660      -281.1388
   3   2.0000     -10.330224      -281.0997
   4   2.0000     -10.324893      -280.9546
   5   2.0000     -10.316465      -280.7253
   6   2.0000     -10.307357      -280.4774
   7   2.0000     -10.305718      -280.4328
   8   2.0000     -10.299796      -280.2717
   9   2.0000     -10.295382      -280.1516
  10   2.0000     -10.292779      -280.0808
  11   2.0000     -10.290258      -280.0121
  12   2.0000     -10.288835      -279.9734
  13   2.0000     -10.286557      -279.9115
  14   2.0000     -10.280441      -279.7450
  15   2.0000     -10.276410      -279.6353
  16   2.0000      -8.081113      -219.8983
  17   2.0000      -8.081083      -219.8974
  18   2.0000      -6.039824      -164.3520
  19   2.0000      -6.039652      -164.3473
  20   2.0000      -6.035765      -164.2415
  21   2.0000      -6.035674      -164.2390
  22   2.0000      -6.031878      -164.1357
  23   2.0000      -6.031756      -164.1324
  24   2.0000      -0.999200       -27.1896
  25   2.0000      -0.973954       -26.5026
  26   2.0000      -0.921884       -25.0857
  27   2.0000      -0.906652       -24.6712
  28   2.0000      -0.863983       -23.5102
  29   2.0000      -0.849201       -23.1079
  30   2.0000      -0.841119       -22.8880
  31   2.0000      -0.813967       -22.1492
  32   2.0000      -0.780234       -21.2312
  33   2.0000      -0.767166       -20.8756
  34   2.0000      -0.713464       -19.4143
  35   2.0000      -0.700795       -19.0696
  36   2.0000      -0.684555       -18.6277
  37   2.0000      -0.653720       -17.7886
  38   2.0000      -0.640839       -17.4381
  39   2.0000      -0.623654       -16.9705
  40   2.0000      -0.589552       -16.0425
  41   2.0000      -0.587298       -15.9812
  42   2.0000      -0.561946       -15.2913
  43   2.0000      -0.552547       -15.0356
  44   2.0000      -0.534383       -14.5413
  45   2.0000      -0.522988       -14.2312
  46   2.0000      -0.518389       -14.1061
  47   2.0000      -0.509232       -13.8569
  48   2.0000      -0.503823       -13.7097
  49   2.0000      -0.498560       -13.5665
  50   2.0000      -0.484243       -13.1769
  51   2.0000      -0.474754       -12.9187
  52   2.0000      -0.466073       -12.6825
  53   2.0000      -0.461456       -12.5569
  54   2.0000      -0.459093       -12.4926
  55   2.0000      -0.451252       -12.2792
  56   2.0000      -0.440652       -11.9907
  57   2.0000      -0.438249       -11.9254
  58   2.0000      -0.432563       -11.7706
  59   2.0000      -0.425591       -11.5809
  60   2.0000      -0.419308       -11.4099
  61   2.0000      -0.418432       -11.3861
  62   2.0000      -0.407964       -11.1013
  63   2.0000      -0.345998        -9.4151
  64   2.0000      -0.328078        -8.9274
  65   2.0000      -0.327408        -8.9092
  66   2.0000      -0.288003        -7.8370
  67   0.0000       0.023190         0.6310
  68   0.0000       0.071200         1.9374
  69   0.0000       0.107458         2.9241
  70   0.0000       0.121505         3.3063
  71   0.0000       0.129132         3.5139

MULLIKEN ATOMIC CHARGES
-----------------------
   0 S :    0.107147
   1 C :   -0.119284
   2 C :   -0.103079
   3 C :    0.039533
   4 C :   -0.148312
   5 H :   -0.015522
   6 C :    0.082338
   7 H :    0.021577
   8 H :    0.018161
   9 C :   -0.101344
  10 H :    0.035700
  11 H :    0.050017
  12 C :   -0.068269
  13 H :    0.038358
  14 H :    0.050381
  15 H :    0.028691
  16 S :    0.106976
  17 C :   -0.122125
  18 C :   -0.060158
  19 C :   -0.032264
  20 C :   -0.131467
  21 H :    0.035022
  22 C :    0.051633
  23 H :    0.023585
  24 H :    0.030423
  25 C :   -0.008550
  26 H :    0.010999
  27 H :    0.051808
  28 C :   -0.098260
  29 H :    0.041060
  30 H :    0.022225
  31 H :    0.033016
  32 H :    0.049024
  33 H :    0.080960
Sum of atomic charges:   -0.0000000

LOEWDIN ATOMIC CHARGES
----------------------
   0 S :    0.395308
   1 C :   -0.198453
   2 C :   -0.050290
   3 C :   -0.058549
   4 C :   -0.185326
   5 H :    0.020560
   6 C :   -0.038164
   7 H :    0.026426
   8 H :    0.033907
   9 C :   -0.039570
  10 H :    0.020690
  11 H :    0.034239
  12 C :   -0.071991
  13 H :    0.026929
  14 H :    0.032883
  15 H :    0.025471
  16 S :    0.380389
  17 C :   -0.197645
  18 C :   -0.080982
  19 C :   -0.052631
  20 C :   -0.190588
  21 H :    0.037618
  22 C :   -0.026857
  23 H :    0.033086
  24 H :    0.029768
  25 C :   -0.034619
  26 H :    0.017365
  27 H :    0.035071
  28 C :   -0.078973
  29 H :    0.029981
  30 H :    0.022184
  31 H :    0.028389
  32 H :    0.026994
  33 H :    0.047379

  Mayer bond orders larger than 0.100000
B(  0-S ,  1-C ) :   1.1275 B(  0-S ,  4-C ) :   1.1411 B(  1-C ,  2-C ) :   1.6166
B(  1-C , 32-H ) :   0.9663 B(  2-C ,  3-C ) :   1.2248 B(  2-C ,  6-C ) :   1.0295
B(  3-C ,  4-C ) :   1.5890 B(  3-C ,  5-H ) :   0.9990 B(  4-C , 20-C ) :   1.0478
B(  6-C ,  7-H ) :   0.9152 B(  6-C ,  8-H ) :   0.9415 B(  6-C ,  9-C ) :   1.0727
B(  9-C , 10-H ) :   0.9461 B(  9-C , 11-H ) :   0.9611 B(  9-C , 12-C ) :   1.0837
B( 12-C , 13-H ) :   0.9756 B( 12-C , 14-H ) :   0.9757 B( 12-C , 15-H ) :   0.9741
B( 16-S , 17-C ) :   1.1460 B( 16-S , 20-C ) :   1.1194 B( 17-C , 18-C ) :   1.6265
B( 17-C , 20-C ) :   0.1009 B( 17-C , 33-H ) :   0.9567 B( 18-C , 19-C ) :   1.2355
B( 18-C , 21-H ) :   0.9804 B( 19-C , 20-C ) :   1.5872 B( 19-C , 22-C ) :   1.0389
B( 22-C , 23-H ) :   0.9403 B( 22-C , 24-H ) :   0.9314 B( 22-C , 25-C ) :   1.0592
B( 25-C , 26-H ) :   0.9555 B( 25-C , 27-H ) :   0.9653 B( 25-C , 28-C ) :   1.0555
B( 28-C , 29-H ) :   0.9800 B( 28-C , 30-H ) :   0.9793 B( 28-C , 31-H ) :   0.9772

Dispersion correction           -0.014554476
FINAL SINGLE POINT ENERGY     -1339.867606678981

DIPOLE MOMENT
-------------
                                X             Y             Z
Electronic contribution:     -8.44144      -8.32466      25.78597
Nuclear contribution   :      8.44044       8.56516     -26.51678
                        -----------------------------------------
Total Dipole Moment    :     -0.00100       0.24050      -0.73081
                        -----------------------------------------
Magnitude (a.u.)       :      0.76937
Magnitude (Debye)      :      1.95558

Rotational constants in cm-1:     0.019191     0.008560     0.006992
Rotational constants in MHz :   575.335421   256.621690   209.614801

                             ****ORCA TERMINATED NORMALLY****
TOTAL RUN TIME: 0 days 0 hours 0 minutes 21 seconds 20 msec
