                         Program Version 4.2.1 -  RELEASE  -
|  1> ! wB97X-D3 SP def2-SVP
|  2> %pal
|  3> nprocs 24
|  4> end
|  5>
|  6> * xyz 0 1
|  7> S 	 -68.526 	 -44.8593 	 -92.4753
|  8> C 	 -68.3203 	 -43.2076 	 -92.0467
|  9> C 	 -68.8462 	 -42.3682 	 -93.0174
| 10> C 	 -69.5848 	 -43.0809 	 -94.0469
| 11> C 	 -69.5452 	 -44.4602 	 -93.7985
| 12> H 	 -69.9245 	 -42.651 	 -94.9326
| 13> C 	 -68.7187 	 -40.8765 	 -93.1554
| 14> H 	 -68.8206 	 -40.428 	 -92.151
| 15> H 	 -69.723 	 -40.6141 	 -93.593
| 16> C 	 -67.4463 	 -40.2324 	 -93.8218
| 17> H 	 -67.3597 	 -39.201 	 -93.8591
| 18> H 	 -66.6127 	 -40.5453 	 -93.1382
| 19> C 	 -67.2609 	 -40.7478 	 -95.2702
| 20> H 	 -66.4723 	 -40.2396 	 -95.7011
| 21> H 	 -67.0478 	 -41.7741 	 -95.362
| 22> H 	 -68.1523 	 -40.5324 	 -95.963
| 23> S 	 -69.1066 	 -46.4678 	 -95.6189
| 24> C 	 -70.386 	 -47.3023 	 -96.4264
| 25> C 	 -71.573 	 -46.6857 	 -96.098
| 26> C 	 -71.4679 	 -45.6234 	 -95.1596
| 27> C 	 -70.1477 	 -45.4796 	 -94.6635
| 28> H 	 -72.4919 	 -47.0644 	 -96.5425
| 29> C 	 -72.6281 	 -44.7728 	 -94.6432
| 30> H 	 -73.2624 	 -44.4753 	 -95.4408
| 31> H 	 -72.2808 	 -43.8329 	 -94.3044
| 32> C 	 -73.4889 	 -45.3458 	 -93.5034
| 33> H 	 -74.009 	 -44.5196 	 -92.9833
| 34> H 	 -72.8493 	 -45.7462 	 -92.6932
| 35> C 	 -74.4385 	 -46.4774 	 -93.7763
| 36> H 	 -75.3393 	 -46.4949 	 -93.1879
| 37> H 	 -73.9527 	 -47.4293 	 -93.6085
| 38> H 	 -74.7749 	 -46.5407 	 -94.8847
| 39> H 	 -67.842 	 -42.8396 	 -91.1972
| 40> H 	 -70.3631 	 -48.1544 	 -96.9848
| 41> *
| 42>
| 43>                          ****END OF INPUT****

CARTESIAN COORDINATES (ANGSTROEM)
---------------------------------
  S    -68.526000  -44.859300  -92.475300
  C    -68.320300  -43.207600  -92.046700
  C    -68.846200  -42.368200  -93.017400
  C    -69.584800  -43.080900  -94.046900
  C    -69.545200  -44.460200  -93.798500
  H    -69.924500  -42.651000  -94.932600
  C    -68.718700  -40.876500  -93.155400
  H    -68.820600  -40.428000  -92.151000
  H    -69.723000  -40.614100  -93.593000
  C    -67.446300  -40.232400  -93.821800
  H    -67.359700  -39.201000  -93.859100
  H    -66.612700  -40.545300  -93.138200
  C    -67.260900  -40.747800  -95.270200
  H    -66.472300  -40.239600  -95.701100
  H    -67.047800  -41.774100  -95.362000
  H    -68.152300  -40.532400  -95.963000
  S    -69.106600  -46.467800  -95.618900
  C    -70.386000  -47.302300  -96.426400
  C    -71.573000  -46.685700  -96.098000
  C    -71.467900  -45.623400  -95.159600
  C    -70.147700  -45.479600  -94.663500
  H    -72.491900  -47.064400  -96.542500
  C    -72.628100  -44.772800  -94.643200
  H    -73.262400  -44.475300  -95.440800
  H    -72.280800  -43.832900  -94.304400
  C    -73.488900  -45.345800  -93.503400
  H    -74.009000  -44.519600  -92.983300
  H    -72.849300  -45.746200  -92.693200
  C    -74.438500  -46.477400  -93.776300
  H    -75.339300  -46.494900  -93.187900
  H    -73.952700  -47.429300  -93.608500
  H    -74.774900  -46.540700  -94.884700
  H    -67.842000  -42.839600  -91.197200
  H    -70.363100  -48.154400  -96.984800

 Total Charge           Charge          ....    0
 Multiplicity           Mult            ....    1
 Number of Electrons    NEL             ....  134
 Basis Dimension        Dim             ....  322

ORBITAL ENERGIES
----------------

  NO   OCC          E(Eh)            E(eV)
   0   2.0000     -88.971236     -2421.0304
   1   2.0000     -88.962850     -2420.8022
   2   2.0000     -10.330775      -281.1147
   3   2.0000     -10.326223      -280.9908
   4   2.0000     -10.310461      -280.5619
   5   2.0000     -10.307683      -280.4863
   6   2.0000     -10.304464      -280.3987
   7   2.0000     -10.302590      -280.3477
   8   2.0000     -10.296612      -280.1850
   9   2.0000     -10.293673      -280.1051
  10   2.0000     -10.292796      -280.0812
  11   2.0000     -10.291494      -280.0458
  12   2.0000     -10.283328      -279.8236
  13   2.0000     -10.281924      -279.7854
  14   2.0000     -10.274688      -279.5885
  15   2.0000     -10.271937      -279.5136
  16   2.0000      -8.086813      -220.0534
  17   2.0000      -8.078324      -219.8224
  18   2.0000      -6.045163      -164.4972
  19   2.0000      -6.041183      -164.3889
  20   2.0000      -6.037702      -164.2942
  21   2.0000      -6.036705      -164.2671
  22   2.0000      -6.032548      -164.1540
  23   2.0000      -6.029341      -164.0667
  24   2.0000      -1.010825       -27.5060
  25   2.0000      -0.988923       -26.9100
  26   2.0000      -0.907061       -24.6824
  27   2.0000      -0.904611       -24.6157
  28   2.0000      -0.870954       -23.6999
  29   2.0000      -0.852282       -23.1918
  30   2.0000      -0.844667       -22.9846
  31   2.0000      -0.816519       -22.2186
  32   2.0000      -0.784543       -21.3485
  33   2.0000      -0.775471       -21.1016
  34   2.0000      -0.711718       -19.3668
  35   2.0000      -0.707066       -19.2402
  36   2.0000      -0.689330       -18.7576
  37   2.0000      -0.659969       -17.9587
  38   2.0000      -0.646889       -17.6027
  39   2.0000      -0.614680       -16.7263
  40   2.0000      -0.595801       -16.2126
  41   2.0000      -0.570709       -15.5298
  42   2.0000      -0.559551       -15.2262
  43   2.0000      -0.546039       -14.8585
  44   2.0000      -0.541755       -14.7419
  45   2.0000      -0.538318       -14.6484
  46   2.0000      -0.516809       -14.0631
  47   2.0000      -0.513534       -13.9740
  48   2.0000      -0.509573       -13.8662
  49   2.0000      -0.494242       -13.4490
  50   2.0000      -0.486800       -13.2465
  51   2.0000      -0.481930       -13.1140
  52   2.0000      -0.471303       -12.8248
  53   2.0000      -0.470969       -12.8157
  54   2.0000      -0.461911       -12.5692
  55   2.0000      -0.453108       -12.3297
  56   2.0000      -0.438321       -11.9273
  57   2.0000      -0.437334       -11.9005
  58   2.0000      -0.424672       -11.5559
  59   2.0000      -0.422824       -11.5056
  60   2.0000      -0.418940       -11.3999
  61   2.0000      -0.416412       -11.3312
  62   2.0000      -0.403082       -10.9684
  63   2.0000      -0.343439        -9.3454
  64   2.0000      -0.329128        -8.9560
  65   2.0000      -0.326748        -8.8913
  66   2.0000      -0.297625        -8.0988
  67   0.0000       0.030952         0.8423
  68   0.0000       0.065484         1.7819
  69   0.0000       0.114625         3.1191
  70   0.0000       0.121845         3.3156
  71   0.0000       0.127264         3.4630

MULLIKEN ATOMIC CHARGES
-----------------------
   0 S :    0.138286
   1 C :   -0.083819
   2 C :   -0.113284
   3 C :    0.065989
   4 C :   -0.176114
   5 H :    0.002326
   6 C :    0.025967
   7 H :    0.022271
   8 H :    0.028526
   9 C :   -0.019110
  10 H :    0.021476
  11 H :    0.030541
  12 C :   -0.050413
  13 H :    0.012407
  14 H :    0.037744
  15 H :    0.034268
  16 S :    0.109653
  17 C :   -0.050511
  18 C :   -0.048756
  19 C :   -0.044132
  20 C :   -0.145148
  21 H :    0.018226
  22 C :    0.133026
  23 H :    0.010864
  24 H :   -0.003783
  25 C :   -0.082640
  26 H :    0.028165
  27 H :    0.029930
  28 C :   -0.060972
  29 H :    0.032647
  30 H :    0.031169
  31 H :    0.025210
  32 H :    0.020457
  33 H :    0.019532
Sum of atomic charges:   -0.0000000

LOEWDIN ATOMIC CHARGES
----------------------
   0 S :    0.446148
   1 C :   -0.200762
   2 C :   -0.061546
   3 C :   -0.048130
   4 C :   -0.209083
   5 H :    0.022729
   6 C :   -0.044372
   7 H :    0.030482
   8 H :    0.033352
   9 C :   -0.028266
  10 H :    0.016721
  11 H :    0.031933
  12 C :   -0.063869
  13 H :    0.014911
  14 H :    0.020782
  15 H :    0.033315
  16 S :    0.429092
  17 C :   -0.185125
  18 C :   -0.070679
  19 C :   -0.056940
  20 C :   -0.210320
  21 H :    0.031424
  22 C :   -0.026685
  23 H :    0.026355
  24 H :    0.026166
  25 C :   -0.048326
  26 H :    0.026896
  27 H :    0.030964
  28 C :   -0.075443
  29 H :    0.025212
  30 H :    0.024172
  31 H :    0.027278
  32 H :    0.017682
  33 H :    0.013931

  Mayer bond orders larger than 0.100000
B(  0-S ,  1-C ) :   1.1450 B(  0-S ,  4-C ) :   1.1836 B(  1-C ,  2-C ) :   1.5941
B(  1-C , 32-H ) :   0.9787 B(  2-C ,  3-C ) :   1.2541 B(  2-C ,  6-C ) :   1.0189
B(  3-C ,  4-C ) :   1.5369 B(  3-C ,  5-H ) :   0.9997 B(  4-C , 20-C ) :   1.0083
B(  6-C ,  7-H ) :   0.9399 B(  6-C ,  8-H ) :   0.9461 B(  6-C ,  9-C ) :   1.0536
B(  9-C , 10-H ) :   0.9610 B(  9-C , 11-H ) :   0.9526 B(  9-C , 12-C ) :   1.0784
B( 12-C , 13-H ) :   0.9730 B( 12-C , 14-H ) :   0.9757 B( 12-C , 15-H ) :   0.9743
B( 16-S , 17-C ) :   1.1637 B( 16-S , 20-C ) :   1.1772 B( 17-C , 18-C ) :   1.5804
B( 17-C , 20-C ) :   0.1103 B( 17-C , 33-H ) :   0.9805 B( 18-C , 19-C ) :   1.2738
B( 18-C , 21-H ) :   0.9909 B( 19-C , 20-C ) :   1.5481 B( 19-C , 22-C ) :   1.0513
B( 22-C , 23-H ) :   0.9295 B( 22-C , 24-H ) :   0.9199 B( 22-C , 25-C ) :   1.0820
B( 25-C , 26-H ) :   0.9588 B( 25-C , 27-H ) :   0.9553 B( 25-C , 28-C ) :   1.0688
B( 28-C , 29-H ) :   0.9735 B( 28-C , 30-H ) :   0.9773 B( 28-C , 31-H ) :   0.9757

Dispersion correction           -0.014778516
FINAL SINGLE POINT ENERGY     -1339.862133865433

DIPOLE MOMENT
-------------
                                X             Y             Z
Electronic contribution:     11.70779     -15.08497       0.92339
Nuclear contribution   :    -11.87659      15.55990      -0.96852
                        -----------------------------------------
Total Dipole Moment    :     -0.16880       0.47493      -0.04514
                        -----------------------------------------
Magnitude (a.u.)       :      0.50605
Magnitude (Debye)      :      1.28628

Rotational constants in cm-1:     0.020445     0.008030     0.007245
Rotational constants in MHz :   612.930863   240.732145   217.201999

                             ****ORCA TERMINATED NORMALLY****
TOTAL RUN TIME: 0 days 0 hours 0 minutes 21 seconds 670 msec
