                         Program Version 4.2.1 -  RELEASE  -
|  1> ! wB97X-D3 SP def2-SVP
|  2> %pal
|  3> nprocs 24
|  4> end
|  5>
|  6> * xyz 0 1
|  7> S 	 -54.1784 	 15.9459 	 -85.0798
|  8> C 	 -53.9506 	 14.9956 	 -86.5845
|  9> C 	 -54.6548 	 15.4465 	 -87.6551
| 10> C 	 -55.404 	 16.6002 	 -87.2942
| 11> C 	 -55.2952 	 16.8935 	 -85.941
| 12> H 	 -56.0471 	 17.285 	 -87.916
| 13> C 	 -54.8611 	 14.7306 	 -88.9767
| 14> H 	 -55.9065 	 14.453 	 -89.0874
| 15> H 	 -54.3244 	 13.728 	 -88.9165
| 16> C 	 -54.3783 	 15.4295 	 -90.2735
| 17> H 	 -54.7133 	 16.4588 	 -90.458
| 18> H 	 -53.2782 	 15.5185 	 -90.0971
| 19> C 	 -54.7561 	 14.5289 	 -91.525
| 20> H 	 -55.7865 	 14.3798 	 -91.5315
| 21> H 	 -54.4967 	 14.9785 	 -92.4795
| 22> H 	 -54.3289 	 13.525 	 -91.4873
| 23> S 	 -57.3709 	 17.5973 	 -84.3443
| 24> C 	 -57.7791 	 19.3402 	 -84.2008
| 25> C 	 -56.9613 	 20.1495 	 -84.8964
| 26> C 	 -55.9782 	 19.3886 	 -85.6155
| 27> C 	 -56.0482 	 18.0061 	 -85.3913
| 28> H 	 -57.169 	 21.2283 	 -85.0139
| 29> C 	 -54.9783 	 20.1323 	 -86.4373
| 30> H 	 -54.2752 	 19.3592 	 -86.6404
| 31> H 	 -54.3731 	 20.8509 	 -85.8677
| 32> C 	 -55.4249 	 20.8027 	 -87.737
| 33> H 	 -56.0974 	 21.6126 	 -87.5201
| 34> H 	 -55.8913 	 20.0863 	 -88.4083
| 35> C 	 -54.2758 	 21.3892 	 -88.4766
| 36> H 	 -54.5239 	 21.6007 	 -89.5527
| 37> H 	 -53.6291 	 20.5498 	 -88.7316
| 38> H 	 -53.85 	 22.172 	 -87.8936
| 39> H 	 -53.614 	 14.0035 	 -86.5255
| 40> H 	 -58.6725 	 19.766 	 -83.7073
| 41> *
| 42>
| 43>                          ****END OF INPUT****

CARTESIAN COORDINATES (ANGSTROEM)
---------------------------------
  S    -54.178400   15.945900  -85.079800
  C    -53.950600   14.995600  -86.584500
  C    -54.654800   15.446500  -87.655100
  C    -55.404000   16.600200  -87.294200
  C    -55.295200   16.893500  -85.941000
  H    -56.047100   17.285000  -87.916000
  C    -54.861100   14.730600  -88.976700
  H    -55.906500   14.453000  -89.087400
  H    -54.324400   13.728000  -88.916500
  C    -54.378300   15.429500  -90.273500
  H    -54.713300   16.458800  -90.458000
  H    -53.278200   15.518500  -90.097100
  C    -54.756100   14.528900  -91.525000
  H    -55.786500   14.379800  -91.531500
  H    -54.496700   14.978500  -92.479500
  H    -54.328900   13.525000  -91.487300
  S    -57.370900   17.597300  -84.344300
  C    -57.779100   19.340200  -84.200800
  C    -56.961300   20.149500  -84.896400
  C    -55.978200   19.388600  -85.615500
  C    -56.048200   18.006100  -85.391300
  H    -57.169000   21.228300  -85.013900
  C    -54.978300   20.132300  -86.437300
  H    -54.275200   19.359200  -86.640400
  H    -54.373100   20.850900  -85.867700
  C    -55.424900   20.802700  -87.737000
  H    -56.097400   21.612600  -87.520100
  H    -55.891300   20.086300  -88.408300
  C    -54.275800   21.389200  -88.476600
  H    -54.523900   21.600700  -89.552700
  H    -53.629100   20.549800  -88.731600
  H    -53.850000   22.172000  -87.893600
  H    -53.614000   14.003500  -86.525500
  H    -58.672500   19.766000  -83.707300

 Total Charge           Charge          ....    0
 Multiplicity           Mult            ....    1
 Number of Electrons    NEL             ....  134
 Basis Dimension        Dim             ....  322

ORBITAL ENERGIES
----------------

  NO   OCC          E(Eh)            E(eV)
   0   2.0000     -88.970245     -2421.0034
   1   2.0000     -88.964613     -2420.8502
   2   2.0000     -10.324689      -280.9491
   3   2.0000     -10.323713      -280.9225
   4   2.0000     -10.316172      -280.7173
   5   2.0000     -10.309796      -280.5438
   6   2.0000     -10.302490      -280.3450
   7   2.0000     -10.300889      -280.3014
   8   2.0000     -10.300585      -280.2932
   9   2.0000     -10.297934      -280.2210
  10   2.0000     -10.296113      -280.1715
  11   2.0000     -10.289808      -279.9999
  12   2.0000     -10.281092      -279.7627
  13   2.0000     -10.279577      -279.7215
  14   2.0000     -10.279361      -279.7156
  15   2.0000     -10.274507      -279.5836
  16   2.0000      -8.085315      -220.0126
  17   2.0000      -8.079058      -219.8424
  18   2.0000      -6.043700      -164.4574
  19   2.0000      -6.039943      -164.3552
  20   2.0000      -6.037621      -164.2920
  21   2.0000      -6.036009      -164.2482
  22   2.0000      -6.033730      -164.1861
  23   2.0000      -6.029650      -164.0751
  24   2.0000      -1.009678       -27.4747
  25   2.0000      -0.983874       -26.7726
  26   2.0000      -0.915295       -24.9064
  27   2.0000      -0.909290       -24.7430
  28   2.0000      -0.871785       -23.7225
  29   2.0000      -0.853185       -23.2163
  30   2.0000      -0.850838       -23.1525
  31   2.0000      -0.814550       -22.1650
  32   2.0000      -0.784179       -21.3386
  33   2.0000      -0.766375       -20.8541
  34   2.0000      -0.708188       -19.2708
  35   2.0000      -0.701056       -19.0767
  36   2.0000      -0.692978       -18.8569
  37   2.0000      -0.656841       -17.8736
  38   2.0000      -0.643391       -17.5076
  39   2.0000      -0.615567       -16.7504
  40   2.0000      -0.595311       -16.1992
  41   2.0000      -0.581613       -15.8265
  42   2.0000      -0.568650       -15.4738
  43   2.0000      -0.558922       -15.2090
  44   2.0000      -0.525570       -14.3015
  45   2.0000      -0.521114       -14.1802
  46   2.0000      -0.516802       -14.0629
  47   2.0000      -0.506950       -13.7948
  48   2.0000      -0.502935       -13.6856
  49   2.0000      -0.500817       -13.6279
  50   2.0000      -0.490055       -13.3351
  51   2.0000      -0.476667       -12.9708
  52   2.0000      -0.474421       -12.9097
  53   2.0000      -0.464414       -12.6374
  54   2.0000      -0.458591       -12.4789
  55   2.0000      -0.449403       -12.2289
  56   2.0000      -0.445655       -12.1269
  57   2.0000      -0.440332       -11.9820
  58   2.0000      -0.430950       -11.7267
  59   2.0000      -0.427847       -11.6423
  60   2.0000      -0.420785       -11.4501
  61   2.0000      -0.417632       -11.3644
  62   2.0000      -0.412342       -11.2204
  63   2.0000      -0.340764        -9.2727
  64   2.0000      -0.337945        -9.1959
  65   2.0000      -0.321393        -8.7456
  66   2.0000      -0.303096        -8.2477
  67   0.0000       0.039198         1.0666
  68   0.0000       0.064179         1.7464
  69   0.0000       0.110579         3.0090
  70   0.0000       0.115732         3.1492
  71   0.0000       0.120300         3.2735

MULLIKEN ATOMIC CHARGES
-----------------------
   0 S :    0.125379
   1 C :   -0.110018
   2 C :   -0.033233
   3 C :    0.010052
   4 C :   -0.178244
   5 H :    0.034923
   6 C :    0.023877
   7 H :    0.037120
   8 H :    0.025915
   9 C :   -0.097167
  10 H :    0.037779
  11 H :    0.040124
  12 C :   -0.026465
  13 H :    0.016018
  14 H :    0.035897
  15 H :    0.030036
  16 S :    0.104937
  17 C :   -0.094222
  18 C :   -0.030822
  19 C :   -0.019341
  20 C :   -0.181668
  21 H :    0.035603
  22 C :    0.052773
  23 H :    0.003577
  24 H :    0.024450
  25 C :   -0.047053
  26 H :    0.019303
  27 H :    0.017477
  28 C :   -0.036388
  29 H :    0.031547
  30 H :    0.018294
  31 H :    0.037342
  32 H :    0.033343
  33 H :    0.058856
Sum of atomic charges:   -0.0000000

LOEWDIN ATOMIC CHARGES
----------------------
   0 S :    0.411858
   1 C :   -0.178627
   2 C :   -0.060315
   3 C :   -0.062582
   4 C :   -0.216664
   5 H :    0.040605
   6 C :   -0.033632
   7 H :    0.029473
   8 H :    0.036477
   9 C :   -0.040693
  10 H :    0.023238
  11 H :    0.029371
  12 C :   -0.060433
  13 H :    0.016280
  14 H :    0.026979
  15 H :    0.027057
  16 S :    0.392106
  17 C :   -0.173124
  18 C :   -0.073877
  19 C :   -0.054322
  20 C :   -0.206495
  21 H :    0.040678
  22 C :   -0.039171
  23 H :    0.025319
  24 H :    0.032738
  25 C :   -0.037815
  26 H :    0.017229
  27 H :    0.022234
  28 C :   -0.066395
  29 H :    0.034299
  30 H :    0.026736
  31 H :    0.021857
  32 H :    0.015124
  33 H :    0.034485

  Mayer bond orders larger than 0.100000
B(  0-S ,  1-C ) :   1.1145 B(  0-S ,  4-C ) :   1.1668 B(  1-C ,  2-C ) :   1.6543
B(  1-C , 32-H ) :   0.9616 B(  2-C ,  3-C ) :   1.2071 B(  2-C ,  6-C ) :   1.0198
B(  3-C ,  4-C ) :   1.5913 B(  3-C ,  5-H ) :   0.9876 B(  4-C , 20-C ) :   1.0111
B(  6-C ,  7-H ) :   0.9464 B(  6-C ,  8-H ) :   0.9428 B(  6-C ,  9-C ) :   1.0431
B(  9-C , 10-H ) :   0.9626 B(  9-C , 11-H ) :   0.9578 B(  9-C , 12-C ) :   1.0680
B( 12-C , 13-H ) :   0.9760 B( 12-C , 14-H ) :   0.9765 B( 12-C , 15-H ) :   0.9759
B( 16-S , 17-C ) :   1.1307 B( 16-S , 20-C ) :   1.1386 B( 17-C , 18-C ) :   1.6621
B( 17-C , 33-H ) :   0.9577 B( 18-C , 19-C ) :   1.2113 B( 18-C , 21-H ) :   0.9825
B( 19-C , 20-C ) :   1.6207 B( 19-C , 22-C ) :   1.0515 B( 22-C , 23-H ) :   0.9231
B( 22-C , 24-H ) :   0.9355 B( 22-C , 25-C ) :   1.0680 B( 25-C , 26-H ) :   0.9521
B( 25-C , 27-H ) :   0.9488 B( 25-C , 28-C ) :   1.1002 B( 28-C , 29-H ) :   0.9687
B( 28-C , 30-H ) :   0.9691 B( 28-C , 31-H ) :   0.9737

Dispersion correction           -0.013922449
FINAL SINGLE POINT ENERGY     -1339.866180070885

DIPOLE MOMENT
-------------
                                X             Y             Z
Electronic contribution:     -6.47521      -6.44867      29.40871
Nuclear contribution   :      6.36332       6.60034     -30.05323
                        -----------------------------------------
Total Dipole Moment    :     -0.11189       0.15167      -0.64452
                        -----------------------------------------
Magnitude (a.u.)       :      0.67151
Magnitude (Debye)      :      1.70685

Rotational constants in cm-1:     0.016403     0.008791     0.006724
Rotational constants in MHz :   491.754550   263.559531   201.593087

                             ****ORCA TERMINATED NORMALLY****
TOTAL RUN TIME: 0 days 0 hours 0 minutes 21 seconds 237 msec
