                         Program Version 4.2.1 -  RELEASE  -
|  1> ! wB97X-D3 SP def2-SVP
|  2> %pal
|  3> nprocs 24
|  4> end
|  5>
|  6> * xyz 0 1
|  7> S 	 -109.702 	 54.0435 	 -71.2092
|  8> C 	 -109.984 	 52.9988 	 -72.6591
|  9> C 	 -108.927 	 53.0407 	 -73.5305
| 10> C 	 -107.919 	 53.8994 	 -73.0194
| 11> C 	 -108.121 	 54.405 	 -71.7499
| 12> H 	 -107.024 	 54.1076 	 -73.6187
| 13> C 	 -108.764 	 52.2484 	 -74.8123
| 14> H 	 -109.32 	 51.32 	 -74.7332
| 15> H 	 -107.746 	 51.9604 	 -74.9231
| 16> C 	 -109.071 	 52.9428 	 -76.1654
| 17> H 	 -110.004 	 53.436 	 -76.0996
| 18> H 	 -108.299 	 53.6976 	 -76.2826
| 19> C 	 -108.903 	 51.9666 	 -77.3091
| 20> H 	 -109.447 	 50.971 	 -77.3032
| 21> H 	 -109.077 	 52.4158 	 -78.2519
| 22> H 	 -107.798 	 51.7658 	 -77.4269
| 23> S 	 -105.549 	 54.9651 	 -70.8453
| 24> C 	 -105.314 	 56.2913 	 -69.7678
| 25> C 	 -106.394 	 57.1373 	 -69.8365
| 26> C 	 -107.535 	 56.6483 	 -70.4972
| 27> C 	 -107.278 	 55.4009 	 -71.0926
| 28> H 	 -106.38 	 58.0837 	 -69.3251
| 29> C 	 -108.699 	 57.5351 	 -70.7178
| 30> H 	 -109.552 	 57.0316 	 -71.2578
| 31> H 	 -108.25 	 58.2678 	 -71.3662
| 32> C 	 -109.327 	 58.2091 	 -69.5244
| 33> H 	 -108.606 	 58.8064 	 -68.9635
| 34> H 	 -109.69 	 57.5215 	 -68.856
| 35> C 	 -110.589 	 59.1293 	 -69.9746
| 36> H 	 -111.541 	 58.5026 	 -69.9403
| 37> H 	 -110.384 	 59.5934 	 -70.8868
| 38> H 	 -110.827 	 59.8692 	 -69.2075
| 39> H 	 -110.822 	 52.3786 	 -72.742
| 40> H 	 -104.411 	 56.6014 	 -69.287
| 41> *
| 42>
| 43>                          ****END OF INPUT****

CARTESIAN COORDINATES (ANGSTROEM)
---------------------------------
  S    -109.702000   54.043500  -71.209200
  C    -109.984000   52.998800  -72.659100
  C    -108.927000   53.040700  -73.530500
  C    -107.919000   53.899400  -73.019400
  C    -108.121000   54.405000  -71.749900
  H    -107.024000   54.107600  -73.618700
  C    -108.764000   52.248400  -74.812300
  H    -109.320000   51.320000  -74.733200
  H    -107.746000   51.960400  -74.923100
  C    -109.071000   52.942800  -76.165400
  H    -110.004000   53.436000  -76.099600
  H    -108.299000   53.697600  -76.282600
  C    -108.903000   51.966600  -77.309100
  H    -109.447000   50.971000  -77.303200
  H    -109.077000   52.415800  -78.251900
  H    -107.798000   51.765800  -77.426900
  S    -105.549000   54.965100  -70.845300
  C    -105.314000   56.291300  -69.767800
  C    -106.394000   57.137300  -69.836500
  C    -107.535000   56.648300  -70.497200
  C    -107.278000   55.400900  -71.092600
  H    -106.380000   58.083700  -69.325100
  C    -108.699000   57.535100  -70.717800
  H    -109.552000   57.031600  -71.257800
  H    -108.250000   58.267800  -71.366200
  C    -109.327000   58.209100  -69.524400
  H    -108.606000   58.806400  -68.963500
  H    -109.690000   57.521500  -68.856000
  C    -110.589000   59.129300  -69.974600
  H    -111.541000   58.502600  -69.940300
  H    -110.384000   59.593400  -70.886800
  H    -110.827000   59.869200  -69.207500
  H    -110.822000   52.378600  -72.742000
  H    -104.411000   56.601400  -69.287000

 Total Charge           Charge          ....    0
 Multiplicity           Mult            ....    1
 Number of Electrons    NEL             ....  134
 Basis Dimension        Dim             ....  322

ORBITAL ENERGIES
----------------

  NO   OCC          E(Eh)            E(eV)
   0   2.0000     -88.967166     -2420.9197
   1   2.0000     -88.963761     -2420.8270
   2   2.0000     -10.329695      -281.0853
   3   2.0000     -10.327445      -281.0241
   4   2.0000     -10.313442      -280.6430
   5   2.0000     -10.313056      -280.6325
   6   2.0000     -10.301111      -280.3075
   7   2.0000     -10.299943      -280.2757
   8   2.0000     -10.290254      -280.0120
   9   2.0000     -10.289284      -279.9857
  10   2.0000     -10.289050      -279.9793
  11   2.0000     -10.286594      -279.9124
  12   2.0000     -10.285761      -279.8898
  13   2.0000     -10.284062      -279.8436
  14   2.0000     -10.282740      -279.8076
  15   2.0000     -10.282483      -279.8006
  16   2.0000      -8.081521      -219.9094
  17   2.0000      -8.078163      -219.8180
  18   2.0000      -6.040013      -164.3571
  19   2.0000      -6.036680      -164.2664
  20   2.0000      -6.036138      -164.2517
  21   2.0000      -6.032775      -164.1602
  22   2.0000      -6.032260      -164.1461
  23   2.0000      -6.028870      -164.0539
  24   2.0000      -1.005928       -27.3727
  25   2.0000      -0.984929       -26.8013
  26   2.0000      -0.915287       -24.9062
  27   2.0000      -0.911271       -24.7969
  28   2.0000      -0.871237       -23.7076
  29   2.0000      -0.848442       -23.0873
  30   2.0000      -0.844913       -22.9913
  31   2.0000      -0.808862       -22.0102
  32   2.0000      -0.784824       -21.3561
  33   2.0000      -0.773092       -21.0369
  34   2.0000      -0.712138       -19.3783
  35   2.0000      -0.705002       -19.1841
  36   2.0000      -0.698113       -18.9966
  37   2.0000      -0.664220       -18.0743
  38   2.0000      -0.636350       -17.3160
  39   2.0000      -0.618937       -16.8421
  40   2.0000      -0.600459       -16.3393
  41   2.0000      -0.576484       -15.6869
  42   2.0000      -0.565746       -15.3947
  43   2.0000      -0.563364       -15.3299
  44   2.0000      -0.530189       -14.4272
  45   2.0000      -0.523164       -14.2360
  46   2.0000      -0.515967       -14.0402
  47   2.0000      -0.509121       -13.8539
  48   2.0000      -0.507244       -13.8028
  49   2.0000      -0.499391       -13.5891
  50   2.0000      -0.490284       -13.3413
  51   2.0000      -0.475940       -12.9510
  52   2.0000      -0.466938       -12.7060
  53   2.0000      -0.461361       -12.5543
  54   2.0000      -0.460646       -12.5348
  55   2.0000      -0.453782       -12.3480
  56   2.0000      -0.446910       -12.1610
  57   2.0000      -0.438788       -11.9400
  58   2.0000      -0.434815       -11.8319
  59   2.0000      -0.426874       -11.6158
  60   2.0000      -0.423695       -11.5293
  61   2.0000      -0.417219       -11.3531
  62   2.0000      -0.412914       -11.2360
  63   2.0000      -0.346800        -9.4369
  64   2.0000      -0.332054        -9.0356
  65   2.0000      -0.328154        -8.9295
  66   2.0000      -0.287692        -7.8285
  67   0.0000       0.029830         0.8117
  68   0.0000       0.068331         1.8594
  69   0.0000       0.102552         2.7906
  70   0.0000       0.115573         3.1449
  71   0.0000       0.138544         3.7700

MULLIKEN ATOMIC CHARGES
-----------------------
   0 S :    0.101973
   1 C :   -0.128305
   2 C :   -0.037767
   3 C :   -0.005772
   4 C :   -0.101945
   5 H :    0.013663
   6 C :    0.060703
   7 H :    0.019170
   8 H :    0.010079
   9 C :   -0.038485
  10 H :    0.026458
  11 H :    0.024251
  12 C :   -0.060310
  13 H :    0.048370
  14 H :    0.022619
  15 H :    0.026833
  16 S :    0.100464
  17 C :   -0.066344
  18 C :   -0.053598
  19 C :   -0.008694
  20 C :   -0.174206
  21 H :    0.012517
  22 C :    0.040176
  23 H :    0.035840
  24 H :    0.040006
  25 C :   -0.066549
  26 H :    0.024280
  27 H :    0.012606
  28 C :   -0.060311
  29 H :    0.045720
  30 H :    0.030818
  31 H :    0.030948
  32 H :    0.024677
  33 H :    0.050120
Sum of atomic charges:   -0.0000000

LOEWDIN ATOMIC CHARGES
----------------------
   0 S :    0.405407
   1 C :   -0.168096
   2 C :   -0.059467
   3 C :   -0.068953
   4 C :   -0.206350
   5 H :    0.029563
   6 C :   -0.026771
   7 H :    0.028630
   8 H :    0.026404
   9 C :   -0.031708
  10 H :    0.016909
  11 H :    0.026891
  12 C :   -0.073507
  13 H :    0.032606
  14 H :    0.021121
  15 H :    0.032643
  16 S :    0.398517
  17 C :   -0.187424
  18 C :   -0.073366
  19 C :   -0.059226
  20 C :   -0.182720
  21 H :    0.026759
  22 C :   -0.038479
  23 H :    0.033344
  24 H :    0.038133
  25 C :   -0.029806
  26 H :    0.018486
  27 H :    0.013268
  28 C :   -0.062272
  29 H :    0.035979
  30 H :    0.014431
  31 H :    0.026123
  32 H :    0.014007
  33 H :    0.028925

  Mayer bond orders larger than 0.100000
B(  0-S ,  1-C ) :   1.1284 B(  0-S ,  4-C ) :   1.1509 B(  1-C ,  2-C ) :   1.6039
B(  1-C , 32-H ) :   0.9776 B(  2-C ,  3-C ) :   1.2596 B(  2-C ,  6-C ) :   1.0213
B(  3-C ,  4-C ) :   1.5523 B(  3-C ,  5-H ) :   0.9871 B(  4-C , 20-C ) :   1.0324
B(  6-C ,  7-H ) :   0.9447 B(  6-C ,  8-H ) :   0.9391 B(  6-C ,  9-C ) :   1.0573
B(  9-C , 10-H ) :   0.9599 B(  9-C , 11-H ) :   0.9523 B(  9-C , 12-C ) :   1.0847
B( 12-C , 13-H ) :   0.9753 B( 12-C , 14-H ) :   0.9709 B( 12-C , 15-H ) :   0.9698
B( 16-S , 17-C ) :   1.1580 B( 16-S , 20-C ) :   1.1351 B( 17-C , 18-C ) :   1.6031
B( 17-C , 20-C ) :   0.1015 B( 17-C , 33-H ) :   0.9669 B( 18-C , 19-C ) :   1.2509
B( 18-C , 21-H ) :   0.9868 B( 19-C , 20-C ) :   1.5648 B( 19-C , 22-C ) :   1.0426
B( 22-C , 23-H ) :   0.9366 B( 22-C , 24-H ) :   0.9302 B( 22-C , 25-C ) :   1.0615
B( 25-C , 26-H ) :   0.9571 B( 25-C , 27-H ) :   0.9581 B( 25-C , 28-C ) :   1.0727
B( 28-C , 29-H ) :   0.9777 B( 28-C , 30-H ) :   0.9794 B( 28-C , 31-H ) :   0.9772

Dispersion correction           -0.013378385
FINAL SINGLE POINT ENERGY     -1339.868265859108

DIPOLE MOMENT
-------------
                                X             Y             Z
Electronic contribution:     10.85450      -5.89998      14.32904
Nuclear contribution   :    -10.95219       6.17922     -14.70007
                        -----------------------------------------
Total Dipole Moment    :     -0.09770       0.27924      -0.37103
                        -----------------------------------------
Magnitude (a.u.)       :      0.47453
Magnitude (Debye)      :      1.20617

Rotational constants in cm-1:     0.019877     0.007196     0.006024
Rotational constants in MHz :   595.907726   215.723329   180.583993

                             ****ORCA TERMINATED NORMALLY****
TOTAL RUN TIME: 0 days 0 hours 0 minutes 20 seconds 656 msec
