                         Program Version 4.2.1 -  RELEASE  -
|  1> ! wB97X-D3 SP def2-SVP
|  2> %pal
|  3> nprocs 24
|  4> end
|  5>
|  6> * xyz 0 1
|  7> S 	 -93.2252 	 15.0191 	 -117.288
|  8> C 	 -91.5533 	 15.5673 	 -117.313
|  9> C 	 -90.7332 	 14.6883 	 -118.046
| 10> C 	 -91.5214 	 13.6126 	 -118.551
| 11> C 	 -92.8987 	 13.6796 	 -118.328
| 12> H 	 -91.2091 	 12.7676 	 -119.222
| 13> C 	 -89.2276 	 14.7079 	 -118.346
| 14> H 	 -89.0001 	 15.5418 	 -119.001
| 15> H 	 -88.8903 	 13.7962 	 -118.904
| 16> C 	 -88.334 	 14.6796 	 -117.067
| 17> H 	 -87.4093 	 14.4274 	 -117.536
| 18> H 	 -88.3456 	 15.6359 	 -116.574
| 19> C 	 -88.6301 	 13.4838 	 -116.133
| 20> H 	 -89.6028 	 13.4849 	 -115.763
| 21> H 	 -88.6443 	 12.5242 	 -116.599
| 22> H 	 -87.8991 	 13.5068 	 -115.33
| 23> S 	 -95.0525 	 11.9979 	 -117.902
| 24> C 	 -95.7792 	 11.2264 	 -119.298
| 25> C 	 -95.1568 	 11.5431 	 -120.423
| 26> C 	 -94.0893 	 12.5204 	 -120.198
| 27> C 	 -93.9051 	 12.8752 	 -118.911
| 28> H 	 -95.6009 	 11.2625 	 -121.373
| 29> C 	 -93.4486 	 13.2349 	 -121.335
| 30> H 	 -93.2348 	 12.5367 	 -122.203
| 31> H 	 -92.456 	 13.4924 	 -121.008
| 32> C 	 -94.3158 	 14.332 	 -121.93
| 33> H 	 -94.6813 	 15.0747 	 -121.176
| 34> H 	 -95.2199 	 13.8576 	 -122.338
| 35> C 	 -93.5467 	 15.0623 	 -123.054
| 36> H 	 -92.8757 	 15.6603 	 -122.578
| 37> H 	 -94.1532 	 15.6271 	 -123.722
| 38> H 	 -92.9514 	 14.3632 	 -123.651
| 39> H 	 -91.3032 	 16.4996 	 -116.906
| 40> H 	 -96.6476 	 10.5095 	 -119.274
| 41> *
| 42>
| 43>                          ****END OF INPUT****

CARTESIAN COORDINATES (ANGSTROEM)
---------------------------------
  S    -93.225200   15.019100  -117.288000
  C    -91.553300   15.567300  -117.313000
  C    -90.733200   14.688300  -118.046000
  C    -91.521400   13.612600  -118.551000
  C    -92.898700   13.679600  -118.328000
  H    -91.209100   12.767600  -119.222000
  C    -89.227600   14.707900  -118.346000
  H    -89.000100   15.541800  -119.001000
  H    -88.890300   13.796200  -118.904000
  C    -88.334000   14.679600  -117.067000
  H    -87.409300   14.427400  -117.536000
  H    -88.345600   15.635900  -116.574000
  C    -88.630100   13.483800  -116.133000
  H    -89.602800   13.484900  -115.763000
  H    -88.644300   12.524200  -116.599000
  H    -87.899100   13.506800  -115.330000
  S    -95.052500   11.997900  -117.902000
  C    -95.779200   11.226400  -119.298000
  C    -95.156800   11.543100  -120.423000
  C    -94.089300   12.520400  -120.198000
  C    -93.905100   12.875200  -118.911000
  H    -95.600900   11.262500  -121.373000
  C    -93.448600   13.234900  -121.335000
  H    -93.234800   12.536700  -122.203000
  H    -92.456000   13.492400  -121.008000
  C    -94.315800   14.332000  -121.930000
  H    -94.681300   15.074700  -121.176000
  H    -95.219900   13.857600  -122.338000
  C    -93.546700   15.062300  -123.054000
  H    -92.875700   15.660300  -122.578000
  H    -94.153200   15.627100  -123.722000
  H    -92.951400   14.363200  -123.651000
  H    -91.303200   16.499600  -116.906000
  H    -96.647600   10.509500  -119.274000

 Total Charge           Charge          ....    0
 Multiplicity           Mult            ....    1
 Number of Electrons    NEL             ....  134
 Basis Dimension        Dim             ....  322

ORBITAL ENERGIES
----------------

  NO   OCC          E(Eh)            E(eV)
   0   2.0000     -88.967631     -2420.9323
   1   2.0000     -88.958656     -2420.6881
   2   2.0000     -10.324843      -280.9533
   3   2.0000     -10.319826      -280.8167
   4   2.0000     -10.317854      -280.7631
   5   2.0000     -10.317247      -280.7466
   6   2.0000     -10.308933      -280.5203
   7   2.0000     -10.298930      -280.2481
   8   2.0000     -10.297741      -280.2158
   9   2.0000     -10.297060      -280.1972
  10   2.0000     -10.289688      -279.9966
  11   2.0000     -10.286589      -279.9123
  12   2.0000     -10.286210      -279.9020
  13   2.0000     -10.285636      -279.8864
  14   2.0000     -10.267089      -279.3817
  15   2.0000     -10.265902      -279.3494
  16   2.0000      -8.082555      -219.9375
  17   2.0000      -8.073930      -219.7028
  18   2.0000      -6.040927      -164.3820
  19   2.0000      -6.036905      -164.2725
  20   2.0000      -6.033579      -164.1820
  21   2.0000      -6.032634      -164.1563
  22   2.0000      -6.028407      -164.0413
  23   2.0000      -6.024390      -163.9320
  24   2.0000      -1.011460       -27.5232
  25   2.0000      -0.985759       -26.8239
  26   2.0000      -0.911352       -24.7991
  27   2.0000      -0.909966       -24.7614
  28   2.0000      -0.876695       -23.8561
  29   2.0000      -0.850269       -23.1370
  30   2.0000      -0.843086       -22.9415
  31   2.0000      -0.815187       -22.1824
  32   2.0000      -0.786753       -21.4086
  33   2.0000      -0.771954       -21.0059
  34   2.0000      -0.707302       -19.2467
  35   2.0000      -0.705941       -19.2096
  36   2.0000      -0.695166       -18.9164
  37   2.0000      -0.660156       -17.9638
  38   2.0000      -0.644900       -17.5486
  39   2.0000      -0.609729       -16.5916
  40   2.0000      -0.593830       -16.1589
  41   2.0000      -0.579888       -15.7795
  42   2.0000      -0.563275       -15.3275
  43   2.0000      -0.553752       -15.0684
  44   2.0000      -0.544840       -14.8258
  45   2.0000      -0.528039       -14.3687
  46   2.0000      -0.516128       -14.0446
  47   2.0000      -0.510424       -13.8893
  48   2.0000      -0.506926       -13.7941
  49   2.0000      -0.502489       -13.6734
  50   2.0000      -0.493211       -13.4210
  51   2.0000      -0.476402       -12.9635
  52   2.0000      -0.472237       -12.8502
  53   2.0000      -0.462950       -12.5975
  54   2.0000      -0.455634       -12.3984
  55   2.0000      -0.445289       -12.1169
  56   2.0000      -0.443397       -12.0654
  57   2.0000      -0.439934       -11.9712
  58   2.0000      -0.435074       -11.8390
  59   2.0000      -0.424580       -11.5534
  60   2.0000      -0.415228       -11.2989
  61   2.0000      -0.413800       -11.2601
  62   2.0000      -0.411065       -11.1857
  63   2.0000      -0.350713        -9.5434
  64   2.0000      -0.332929        -9.0595
  65   2.0000      -0.326335        -8.8800
  66   2.0000      -0.295043        -8.0285
  67   0.0000       0.030319         0.8250
  68   0.0000       0.071994         1.9591
  69   0.0000       0.113549         3.0898
  70   0.0000       0.123062         3.3487
  71   0.0000       0.132899         3.6164

MULLIKEN ATOMIC CHARGES
-----------------------
   0 S :    0.116471
   1 C :   -0.117094
   2 C :   -0.064849
   3 C :    0.005189
   4 C :   -0.182414
   5 H :    0.035017
   6 C :    0.034479
   7 H :    0.042509
   8 H :    0.027751
   9 C :   -0.059474
  10 H :    0.024124
  11 H :    0.038192
  12 C :   -0.023346
  13 H :    0.025590
  14 H :    0.012968
  15 H :    0.036752
  16 S :    0.085859
  17 C :   -0.097418
  18 C :   -0.016476
  19 C :   -0.066274
  20 C :   -0.118888
  21 H :    0.022133
  22 C :    0.054399
  23 H :    0.020269
  24 H :    0.002059
  25 C :   -0.078169
  26 H :    0.040427
  27 H :    0.021899
  28 C :    0.018844
  29 H :    0.010883
  30 H :    0.026999
  31 H :    0.014755
  32 H :    0.033675
  33 H :    0.073157
Sum of atomic charges:    0.0000000

LOEWDIN ATOMIC CHARGES
----------------------
   0 S :    0.421429
   1 C :   -0.187875
   2 C :   -0.060735
   3 C :   -0.069222
   4 C :   -0.208838
   5 H :    0.037953
   6 C :   -0.031847
   7 H :    0.031808
   8 H :    0.034602
   9 C :   -0.030753
  10 H :    0.023539
  11 H :    0.020848
  12 C :   -0.059365
  13 H :    0.018747
  14 H :    0.023808
  15 H :    0.028451
  16 S :    0.379758
  17 C :   -0.178378
  18 C :   -0.076080
  19 C :   -0.053449
  20 C :   -0.198612
  21 H :    0.034406
  22 C :   -0.038901
  23 H :    0.034085
  24 H :    0.021682
  25 C :   -0.034862
  26 H :    0.029501
  27 H :    0.021596
  28 C :   -0.052237
  29 H :    0.014038
  30 H :    0.021742
  31 H :    0.024211
  32 H :    0.015133
  33 H :    0.043819

  Mayer bond orders larger than 0.100000
B(  0-S ,  1-C ) :   1.1565 B(  0-S ,  4-C ) :   1.1620 B(  1-C ,  2-C ) :   1.5595
B(  1-C ,  4-C ) :   0.1118 B(  1-C , 32-H ) :   0.9843 B(  2-C ,  3-C ) :   1.2641
B(  2-C ,  6-C ) :   1.0074 B(  3-C ,  4-C ) :   1.5635 B(  3-C ,  5-H ) :   0.9786
B(  4-C , 20-C ) :   1.0444 B(  6-C ,  7-H ) :   0.9406 B(  6-C ,  8-H ) :   0.9520
B(  6-C ,  9-C ) :   1.0675 B(  9-C , 10-H ) :   0.9607 B(  9-C , 11-H ) :   0.9606
B(  9-C , 12-C ) :   1.0749 B( 12-C , 13-H ) :   0.9708 B( 12-C , 14-H ) :   0.9720
B( 12-C , 15-H ) :   0.9753 B( 16-S , 17-C ) :   1.1321 B( 16-S , 20-C ) :   1.0985
B( 17-C , 18-C ) :   1.6775 B( 17-C , 33-H ) :   0.9545 B( 18-C , 19-C ) :   1.1817
B( 18-C , 21-H ) :   0.9890 B( 19-C , 20-C ) :   1.6609 B( 19-C , 22-C ) :   1.0678
B( 22-C , 23-H ) :   0.9242 B( 22-C , 24-H ) :   0.9247 B( 22-C , 25-C ) :   1.0616
B( 25-C , 26-H ) :   0.9576 B( 25-C , 27-H ) :   0.9532 B( 25-C , 28-C ) :   1.0740
B( 28-C , 29-H ) :   0.9762 B( 28-C , 30-H ) :   0.9746 B( 28-C , 31-H ) :   0.9711

Dispersion correction           -0.014613623
FINAL SINGLE POINT ENERGY     -1339.872137151927

DIPOLE MOMENT
-------------
                                X             Y             Z
Electronic contribution:    -18.22119      -4.68740      12.92203
Nuclear contribution   :     18.60348       4.76402     -13.48053
                        -----------------------------------------
Total Dipole Moment    :      0.38229       0.07662      -0.55850
                        -----------------------------------------
Magnitude (a.u.)       :      0.68113
Magnitude (Debye)      :      1.73129

Rotational constants in cm-1:     0.019324     0.008577     0.007112
Rotational constants in MHz :   579.327778   257.121353   213.218613

                             ****ORCA TERMINATED NORMALLY****
TOTAL RUN TIME: 0 days 0 hours 0 minutes 21 seconds 918 msec
