                         Program Version 4.2.1 -  RELEASE  -
|  1> ! wB97X-D3 SP def2-SVP
|  2> %pal
|  3> nprocs 24
|  4> end
|  5>
|  6> * xyz 0 1
|  7> S 	 -55.5884 	 -2.49336 	 -31.6033
|  8> C 	 -56.1836 	 -1.11241 	 -32.3782
|  9> C 	 -56.402 	 -0.0670989 	 -31.4346
| 10> C 	 -56.3973 	 -0.495516 	 -30.1198
| 11> C 	 -55.8954 	 -1.77793 	 -30.0131
| 12> H 	 -56.6397 	 0.0654622 	 -29.1946
| 13> C 	 -57.1599 	 1.2156 	 -31.7843
| 14> H 	 -56.6142 	 1.9017 	 -32.4349
| 15> H 	 -57.2961 	 1.79277 	 -30.8931
| 16> C 	 -58.5943 	 0.934149 	 -32.2506
| 17> H 	 -58.6515 	 0.233347 	 -33.0717
| 18> H 	 -59.1012 	 0.3054 	 -31.5118
| 19> C 	 -59.3387 	 2.2833 	 -32.3608
| 20> H 	 -60.3613 	 2.24727 	 -32.7005
| 21> H 	 -59.3617 	 2.78189 	 -31.4112
| 22> H 	 -58.8251 	 2.88744 	 -33.157
| 23> S 	 -56.8702 	 -3.47483 	 -28.0697
| 24> C 	 -55.949 	 -3.88956 	 -26.6616
| 25> C 	 -54.6664 	 -3.39174 	 -26.8478
| 26> C 	 -54.4773 	 -2.70062 	 -28.0735
| 27> C 	 -55.6273 	 -2.5306 	 -28.7879
| 28> H 	 -53.8722 	 -3.5342 	 -26.1447
| 29> C 	 -53.1089 	 -2.16464 	 -28.4347
| 30> H 	 -53.1494 	 -1.66822 	 -29.4512
| 31> H 	 -52.6032 	 -3.09088 	 -28.5799
| 32> C 	 -52.4178 	 -1.12787 	 -27.392
| 33> H 	 -51.9186 	 -1.72886 	 -26.6069
| 34> H 	 -53.2199 	 -0.567544 	 -26.8885
| 35> C 	 -51.2581 	 -0.235868 	 -28.0125
| 36> H 	 -51.6539 	 0.240797 	 -28.9149
| 37> H 	 -50.3154 	 -0.784863 	 -28.3229
| 38> H 	 -50.8268 	 0.513082 	 -27.2706
| 39> H 	 -56.3291 	 -0.986887 	 -33.4411
| 40> H 	 -56.3198 	 -4.40603 	 -25.7699
| 41> *
| 42>
| 43>                          ****END OF INPUT****

CARTESIAN COORDINATES (ANGSTROEM)
---------------------------------
  S    -55.588400   -2.493360  -31.603300
  C    -56.183600   -1.112410  -32.378200
  C    -56.402000   -0.067099  -31.434600
  C    -56.397300   -0.495516  -30.119800
  C    -55.895400   -1.777930  -30.013100
  H    -56.639700    0.065462  -29.194600
  C    -57.159900    1.215600  -31.784300
  H    -56.614200    1.901700  -32.434900
  H    -57.296100    1.792770  -30.893100
  C    -58.594300    0.934149  -32.250600
  H    -58.651500    0.233347  -33.071700
  H    -59.101200    0.305400  -31.511800
  C    -59.338700    2.283300  -32.360800
  H    -60.361300    2.247270  -32.700500
  H    -59.361700    2.781890  -31.411200
  H    -58.825100    2.887440  -33.157000
  S    -56.870200   -3.474830  -28.069700
  C    -55.949000   -3.889560  -26.661600
  C    -54.666400   -3.391740  -26.847800
  C    -54.477300   -2.700620  -28.073500
  C    -55.627300   -2.530600  -28.787900
  H    -53.872200   -3.534200  -26.144700
  C    -53.108900   -2.164640  -28.434700
  H    -53.149400   -1.668220  -29.451200
  H    -52.603200   -3.090880  -28.579900
  C    -52.417800   -1.127870  -27.392000
  H    -51.918600   -1.728860  -26.606900
  H    -53.219900   -0.567544  -26.888500
  C    -51.258100   -0.235868  -28.012500
  H    -51.653900    0.240797  -28.914900
  H    -50.315400   -0.784863  -28.322900
  H    -50.826800    0.513082  -27.270600
  H    -56.329100   -0.986887  -33.441100
  H    -56.319800   -4.406030  -25.769900

 Total Charge           Charge          ....    0
 Multiplicity           Mult            ....    1
 Number of Electrons    NEL             ....  134
 Basis Dimension        Dim             ....  322

ORBITAL ENERGIES
----------------

  NO   OCC          E(Eh)            E(eV)
   0   2.0000     -88.970943     -2421.0224
   1   2.0000     -88.960220     -2420.7307
   2   2.0000     -10.326787      -281.0062
   3   2.0000     -10.317957      -280.7659
   4   2.0000     -10.317599      -280.7561
   5   2.0000     -10.315108      -280.6883
   6   2.0000     -10.299770      -280.2710
   7   2.0000     -10.298601      -280.2392
   8   2.0000     -10.295639      -280.1586
   9   2.0000     -10.295187      -280.1463
  10   2.0000     -10.293649      -280.1044
  11   2.0000     -10.291675      -280.0507
  12   2.0000     -10.288848      -279.9738
  13   2.0000     -10.286917      -279.9212
  14   2.0000     -10.284116      -279.8450
  15   2.0000     -10.279028      -279.7066
  16   2.0000      -8.085875      -220.0278
  17   2.0000      -8.075902      -219.7565
  18   2.0000      -6.044118      -164.4688
  19   2.0000      -6.040158      -164.3611
  20   2.0000      -6.037112      -164.2782
  21   2.0000      -6.034340      -164.2027
  22   2.0000      -6.030109      -164.0876
  23   2.0000      -6.026838      -163.9986
  24   2.0000      -1.011647       -27.5283
  25   2.0000      -0.991348       -26.9759
  26   2.0000      -0.910579       -24.7781
  27   2.0000      -0.893043       -24.3009
  28   2.0000      -0.868263       -23.6266
  29   2.0000      -0.854722       -23.2582
  30   2.0000      -0.841974       -22.9113
  31   2.0000      -0.811648       -22.0861
  32   2.0000      -0.774759       -21.0823
  33   2.0000      -0.763737       -20.7823
  34   2.0000      -0.707473       -19.2513
  35   2.0000      -0.701898       -19.0996
  36   2.0000      -0.694969       -18.9111
  37   2.0000      -0.660824       -17.9819
  38   2.0000      -0.647770       -17.6267
  39   2.0000      -0.617217       -16.7953
  40   2.0000      -0.590401       -16.0656
  41   2.0000      -0.571415       -15.5490
  42   2.0000      -0.557196       -15.1621
  43   2.0000      -0.553451       -15.0602
  44   2.0000      -0.523048       -14.2329
  45   2.0000      -0.519195       -14.1280
  46   2.0000      -0.512191       -13.9374
  47   2.0000      -0.510792       -13.8993
  48   2.0000      -0.504593       -13.7307
  49   2.0000      -0.501608       -13.6494
  50   2.0000      -0.489715       -13.3258
  51   2.0000      -0.477063       -12.9816
  52   2.0000      -0.471367       -12.8265
  53   2.0000      -0.463280       -12.6065
  54   2.0000      -0.457448       -12.4478
  55   2.0000      -0.452826       -12.3220
  56   2.0000      -0.446091       -12.1388
  57   2.0000      -0.434202       -11.8152
  58   2.0000      -0.426885       -11.6161
  59   2.0000      -0.425711       -11.5842
  60   2.0000      -0.416839       -11.3428
  61   2.0000      -0.412272       -11.2185
  62   2.0000      -0.411195       -11.1892
  63   2.0000      -0.344043        -9.3619
  64   2.0000      -0.327895        -8.9225
  65   2.0000      -0.318126        -8.6567
  66   2.0000      -0.306360        -8.3365
  67   0.0000       0.042928         1.1681
  68   0.0000       0.055255         1.5036
  69   0.0000       0.119294         3.2462
  70   0.0000       0.125836         3.4242
  71   0.0000       0.130941         3.5631

MULLIKEN ATOMIC CHARGES
-----------------------
   0 S :    0.147050
   1 C :   -0.126341
   2 C :   -0.054992
   3 C :    0.034162
   4 C :   -0.195092
   5 H :    0.035558
   6 C :    0.039821
   7 H :    0.027203
   8 H :    0.003964
   9 C :   -0.059612
  10 H :    0.016338
  11 H :    0.020497
  12 C :   -0.043848
  13 H :    0.029516
  14 H :    0.034219
  15 H :    0.033328
  16 S :    0.112110
  17 C :   -0.099044
  18 C :   -0.030395
  19 C :   -0.037068
  20 C :   -0.189865
  21 H :    0.007941
  22 C :    0.062183
  23 H :    0.031312
  24 H :    0.035804
  25 C :   -0.080143
  26 H :    0.034228
  27 H :    0.049431
  28 C :   -0.100339
  29 H :    0.043804
  30 H :    0.042507
  31 H :    0.049666
  32 H :    0.057104
  33 H :    0.068994
Sum of atomic charges:   -0.0000000

LOEWDIN ATOMIC CHARGES
----------------------
   0 S :    0.439633
   1 C :   -0.212564
   2 C :   -0.068849
   3 C :   -0.054591
   4 C :   -0.197222
   5 H :    0.045729
   6 C :   -0.031710
   7 H :    0.026314
   8 H :    0.024180
   9 C :   -0.041449
  10 H :    0.018045
  11 H :    0.025989
  12 C :   -0.065531
  13 H :    0.023418
  14 H :    0.024173
  15 H :    0.030191
  16 S :    0.426360
  17 C :   -0.193481
  18 C :   -0.073849
  19 C :   -0.063390
  20 C :   -0.224998
  21 H :    0.025723
  22 C :   -0.034094
  23 H :    0.032516
  24 H :    0.031520
  25 C :   -0.040612
  26 H :    0.023885
  27 H :    0.028425
  28 C :   -0.080561
  29 H :    0.023950
  30 H :    0.032104
  31 H :    0.035116
  32 H :    0.028514
  33 H :    0.037117

  Mayer bond orders larger than 0.100000
B(  0-S ,  1-C ) :   1.1874 B(  0-S ,  4-C ) :   1.1667 B(  1-C ,  2-C ) :   1.5306
B(  1-C ,  4-C ) :   0.1159 B(  1-C , 32-H ) :   0.9724 B(  2-C ,  3-C ) :   1.2864
B(  2-C ,  6-C ) :   1.0410 B(  3-C ,  4-C ) :   1.5619 B(  3-C ,  5-H ) :   0.9865
B(  4-C , 20-C ) :   1.0004 B(  6-C ,  7-H ) :   0.9407 B(  6-C ,  8-H ) :   0.9465
B(  6-C ,  9-C ) :   1.0494 B(  9-C , 10-H ) :   0.9577 B(  9-C , 11-H ) :   0.9526
B(  9-C , 12-C ) :   1.0684 B( 12-C , 13-H ) :   0.9738 B( 12-C , 14-H ) :   0.9755
B( 12-C , 15-H ) :   0.9764 B( 16-S , 17-C ) :   1.1714 B( 16-S , 20-C ) :   1.1579
B( 17-C , 18-C ) :   1.5648 B( 17-C , 20-C ) :   0.1005 B( 17-C , 33-H ) :   0.9708
B( 18-C , 19-C ) :   1.2664 B( 18-C , 21-H ) :   0.9963 B( 19-C , 20-C ) :   1.5895
B( 19-C , 22-C ) :   1.0391 B( 22-C , 23-H ) :   0.9384 B( 22-C , 24-H ) :   0.9330
B( 22-C , 25-C ) :   1.0326 B( 25-C , 26-H ) :   0.9550 B( 25-C , 27-H ) :   0.9668
B( 25-C , 28-C ) :   1.0692 B( 28-C , 29-H ) :   0.9787 B( 28-C , 30-H ) :   0.9768
B( 28-C , 31-H ) :   0.9754

Dispersion correction           -0.013949519
FINAL SINGLE POINT ENERGY     -1339.871729569011

DIPOLE MOMENT
-------------
                                X             Y             Z
Electronic contribution:     -5.12088     -21.52449       1.55035
Nuclear contribution   :      5.25855      21.88257      -1.42616
                        -----------------------------------------
Total Dipole Moment    :      0.13767       0.35808       0.12419
                        -----------------------------------------
Magnitude (a.u.)       :      0.40323
Magnitude (Debye)      :      1.02494

Rotational constants in cm-1:     0.018746     0.007665     0.006557
Rotational constants in MHz :   562.000628   229.778117   196.562033

                             ****ORCA TERMINATED NORMALLY****
TOTAL RUN TIME: 0 days 0 hours 0 minutes 19 seconds 869 msec
