                         Program Version 4.2.1 -  RELEASE  -
|  1> ! wB97X-D3 SP def2-SVP
|  2> %pal
|  3> nprocs 24
|  4> end
|  5>
|  6> * xyz 0 1
|  7> S 	 28.2059 	 -29.529 	 -132.909
|  8> C 	 28.1053 	 -27.8631 	 -132.345
|  9> C 	 28.4936 	 -27.8411 	 -131.045
| 10> C 	 28.7667 	 -29.09 	 -130.449
| 11> C 	 28.4184 	 -30.1309 	 -131.258
| 12> H 	 29.0892 	 -29.3078 	 -129.454
| 13> C 	 28.338 	 -26.6783 	 -130.121
| 14> H 	 28.6909 	 -25.7467 	 -130.595
| 15> H 	 29.1342 	 -26.872 	 -129.381
| 16> C 	 26.8885 	 -26.4332 	 -129.498
| 17> H 	 26.0751 	 -26.328 	 -130.187
| 18> H 	 26.605 	 -27.1757 	 -128.864
| 19> C 	 26.9106 	 -25.1134 	 -128.75
| 20> H 	 26.77 	 -24.2319 	 -129.414
| 21> H 	 25.9995 	 -25.0807 	 -128.109
| 22> H 	 27.8176 	 -24.9659 	 -128.155
| 23> S 	 29.9562 	 -32.2926 	 -132.049
| 24> C 	 30.1599 	 -33.6574 	 -130.983
| 25> C 	 29.4259 	 -33.473 	 -129.85
| 26> C 	 28.6908 	 -32.2622 	 -129.786
| 27> C 	 28.8721 	 -31.5293 	 -130.95
| 28> H 	 29.4855 	 -34.2681 	 -129.066
| 29> C 	 27.9734 	 -31.8491 	 -128.413
| 30> H 	 28.2821 	 -30.8704 	 -128.123
| 31> H 	 28.4087 	 -32.5482 	 -127.659
| 32> C 	 26.4585 	 -31.8656 	 -128.51
| 33> H 	 25.98 	 -32.6955 	 -129.068
| 34> H 	 26.1894 	 -31.0856 	 -129.179
| 35> C 	 25.706 	 -31.7835 	 -127.17
| 36> H 	 25.9076 	 -32.6986 	 -126.581
| 37> H 	 24.6461 	 -31.7523 	 -127.341
| 38> H 	 26.017 	 -30.9933 	 -126.524
| 39> H 	 27.9272 	 -26.9611 	 -132.969
| 40> H 	 30.7105 	 -34.5383 	 -131.161
| 41> *
| 42>
| 43>                          ****END OF INPUT****

CARTESIAN COORDINATES (ANGSTROEM)
---------------------------------
  S     28.205900  -29.529000  -132.909000
  C     28.105300  -27.863100  -132.345000
  C     28.493600  -27.841100  -131.045000
  C     28.766700  -29.090000  -130.449000
  C     28.418400  -30.130900  -131.258000
  H     29.089200  -29.307800  -129.454000
  C     28.338000  -26.678300  -130.121000
  H     28.690900  -25.746700  -130.595000
  H     29.134200  -26.872000  -129.381000
  C     26.888500  -26.433200  -129.498000
  H     26.075100  -26.328000  -130.187000
  H     26.605000  -27.175700  -128.864000
  C     26.910600  -25.113400  -128.750000
  H     26.770000  -24.231900  -129.414000
  H     25.999500  -25.080700  -128.109000
  H     27.817600  -24.965900  -128.155000
  S     29.956200  -32.292600  -132.049000
  C     30.159900  -33.657400  -130.983000
  C     29.425900  -33.473000  -129.850000
  C     28.690800  -32.262200  -129.786000
  C     28.872100  -31.529300  -130.950000
  H     29.485500  -34.268100  -129.066000
  C     27.973400  -31.849100  -128.413000
  H     28.282100  -30.870400  -128.123000
  H     28.408700  -32.548200  -127.659000
  C     26.458500  -31.865600  -128.510000
  H     25.980000  -32.695500  -129.068000
  H     26.189400  -31.085600  -129.179000
  C     25.706000  -31.783500  -127.170000
  H     25.907600  -32.698600  -126.581000
  H     24.646100  -31.752300  -127.341000
  H     26.017000  -30.993300  -126.524000
  H     27.927200  -26.961100  -132.969000
  H     30.710500  -34.538300  -131.161000

 Total Charge           Charge          ....    0
 Multiplicity           Mult            ....    1
 Number of Electrons    NEL             ....  134
 Basis Dimension        Dim             ....  322

ORBITAL ENERGIES
----------------

  NO   OCC          E(Eh)            E(eV)
   0   2.0000     -88.965885     -2420.8848
   1   2.0000     -88.965632     -2420.8779
   2   2.0000     -10.330250      -281.1004
   3   2.0000     -10.328460      -281.0517
   4   2.0000     -10.317195      -280.7452
   5   2.0000     -10.308636      -280.5122
   6   2.0000     -10.304020      -280.3866
   7   2.0000     -10.301162      -280.3089
   8   2.0000     -10.294706      -280.1332
   9   2.0000     -10.293733      -280.1067
  10   2.0000     -10.291745      -280.0526
  11   2.0000     -10.289832      -280.0006
  12   2.0000     -10.282562      -279.8027
  13   2.0000     -10.281614      -279.7769
  14   2.0000     -10.281065      -279.7620
  15   2.0000     -10.275314      -279.6055
  16   2.0000      -8.081062      -219.8969
  17   2.0000      -8.079944      -219.8664
  18   2.0000      -6.039538      -164.3442
  19   2.0000      -6.038608      -164.3189
  20   2.0000      -6.035466      -164.2334
  21   2.0000      -6.034595      -164.2097
  22   2.0000      -6.031869      -164.1355
  23   2.0000      -6.030463      -164.0972
  24   2.0000      -1.010814       -27.5056
  25   2.0000      -0.989715       -26.9315
  26   2.0000      -0.908524       -24.7222
  27   2.0000      -0.904640       -24.6165
  28   2.0000      -0.870617       -23.6907
  29   2.0000      -0.854635       -23.2558
  30   2.0000      -0.846808       -23.0428
  31   2.0000      -0.816720       -22.2241
  32   2.0000      -0.781673       -21.2704
  33   2.0000      -0.767535       -20.8857
  34   2.0000      -0.708629       -19.2828
  35   2.0000      -0.707348       -19.2479
  36   2.0000      -0.694433       -18.8965
  37   2.0000      -0.659874       -17.9561
  38   2.0000      -0.640805       -17.4372
  39   2.0000      -0.620683       -16.8896
  40   2.0000      -0.595235       -16.1972
  41   2.0000      -0.567482       -15.4420
  42   2.0000      -0.558396       -15.1947
  43   2.0000      -0.554109       -15.0781
  44   2.0000      -0.531508       -14.4631
  45   2.0000      -0.527160       -14.3447
  46   2.0000      -0.517233       -14.0746
  47   2.0000      -0.513213       -13.9652
  48   2.0000      -0.507749       -13.8166
  49   2.0000      -0.495715       -13.4891
  50   2.0000      -0.490392       -13.3442
  51   2.0000      -0.486820       -13.2470
  52   2.0000      -0.472370       -12.8538
  53   2.0000      -0.465203       -12.6588
  54   2.0000      -0.456730       -12.4283
  55   2.0000      -0.450775       -12.2662
  56   2.0000      -0.446056       -12.1378
  57   2.0000      -0.442376       -12.0377
  58   2.0000      -0.434872       -11.8335
  59   2.0000      -0.428816       -11.6687
  60   2.0000      -0.418404       -11.3854
  61   2.0000      -0.410001       -11.1567
  62   2.0000      -0.407039       -11.0761
  63   2.0000      -0.352957        -9.6045
  64   2.0000      -0.333720        -9.0810
  65   2.0000      -0.325820        -8.8660
  66   2.0000      -0.295674        -8.0457
  67   0.0000       0.028665         0.7800
  68   0.0000       0.072766         1.9801
  69   0.0000       0.105859         2.8806
  70   0.0000       0.124463         3.3868
  71   0.0000       0.134763         3.6671

MULLIKEN ATOMIC CHARGES
-----------------------
   0 S :    0.084104
   1 C :   -0.120803
   2 C :   -0.062202
   3 C :    0.021308
   4 C :   -0.115477
   5 H :    0.012072
   6 C :    0.015759
   7 H :    0.018841
   8 H :    0.026158
   9 C :    0.022425
  10 H :    0.022881
  11 H :    0.005165
  12 C :   -0.089305
  13 H :    0.036121
  14 H :    0.032104
  15 H :    0.037369
  16 S :    0.115279
  17 C :   -0.083442
  18 C :   -0.059548
  19 C :   -0.053417
  20 C :   -0.158622
  21 H :    0.030853
  22 C :    0.096808
  23 H :    0.014144
  24 H :    0.024111
  25 C :   -0.079033
  26 H :    0.029433
  27 H :    0.021979
  28 C :   -0.031001
  29 H :    0.026911
  30 H :    0.034923
  31 H :    0.021127
  32 H :    0.065393
  33 H :    0.037581
Sum of atomic charges:   -0.0000000

LOEWDIN ATOMIC CHARGES
----------------------
   0 S :    0.385531
   1 C :   -0.189156
   2 C :   -0.078236
   3 C :   -0.053330
   4 C :   -0.182757
   5 H :    0.029008
   6 C :   -0.034121
   7 H :    0.026924
   8 H :    0.032850
   9 C :   -0.023298
  10 H :    0.026851
  11 H :    0.010403
  12 C :   -0.069121
  13 H :    0.026315
  14 H :    0.028949
  15 H :    0.023150
  16 S :    0.420945
  17 C :   -0.190928
  18 C :   -0.076254
  19 C :   -0.064843
  20 C :   -0.200457
  21 H :    0.037125
  22 C :   -0.016039
  23 H :    0.021134
  24 H :    0.031470
  25 C :   -0.048090
  26 H :    0.030390
  27 H :    0.021240
  28 C :   -0.063187
  29 H :    0.027453
  30 H :    0.026484
  31 H :    0.017691
  32 H :    0.042469
  33 H :    0.023435

  Mayer bond orders larger than 0.100000
B(  0-S ,  1-C ) :   1.1234 B(  0-S ,  4-C ) :   1.1468 B(  1-C ,  2-C ) :   1.6109
B(  1-C , 32-H ) :   0.9693 B(  2-C ,  3-C ) :   1.2358 B(  2-C ,  6-C ) :   1.0391
B(  3-C ,  4-C ) :   1.5735 B(  3-C ,  5-H ) :   0.9947 B(  4-C , 20-C ) :   1.0116
B(  6-C ,  7-H ) :   0.9435 B(  6-C ,  8-H ) :   0.9403 B(  6-C ,  9-C ) :   1.0449
B(  9-C , 10-H ) :   0.9558 B(  9-C , 11-H ) :   0.9576 B(  9-C , 12-C ) :   1.0812
B( 12-C , 13-H ) :   0.9781 B( 12-C , 14-H ) :   0.9735 B( 12-C , 15-H ) :   0.9762
B( 16-S , 17-C ) :   1.1447 B( 16-S , 20-C ) :   1.1648 B( 17-C , 18-C ) :   1.6254
B( 17-C , 33-H ) :   0.9727 B( 18-C , 19-C ) :   1.2654 B( 18-C , 21-H ) :   0.9786
B( 19-C , 20-C ) :   1.6074 B( 19-C , 22-C ) :   1.0123 B( 22-C , 23-H ) :   0.9372
B( 22-C , 24-H ) :   0.9465 B( 22-C , 25-C ) :   1.0514 B( 25-C , 26-H ) :   0.9584
B( 25-C , 27-H ) :   0.9517 B( 25-C , 28-C ) :   1.0853 B( 28-C , 29-H ) :   0.9745
B( 28-C , 30-H ) :   0.9743 B( 28-C , 31-H ) :   0.9746

Dispersion correction           -0.013919575
FINAL SINGLE POINT ENERGY     -1339.862865872703

DIPOLE MOMENT
-------------
                                X             Y             Z
Electronic contribution:     14.53549     -13.68300     -25.29570
Nuclear contribution   :    -14.63035      13.97118      25.93787
                        -----------------------------------------
Total Dipole Moment    :     -0.09486       0.28818       0.64217
                        -----------------------------------------
Magnitude (a.u.)       :      0.71023
Magnitude (Debye)      :      1.80527

Rotational constants in cm-1:     0.016971     0.009343     0.006626
Rotational constants in MHz :   508.765341   280.108195   198.652578

                             ****ORCA TERMINATED NORMALLY****
TOTAL RUN TIME: 0 days 0 hours 0 minutes 21 seconds 795 msec
