                         Program Version 4.2.1 -  RELEASE  -
|  1> ! wB97X-D3 SP def2-SVP
|  2> %pal
|  3> nprocs 24
|  4> end
|  5>
|  6> * xyz 0 1
|  7> S 	 -0.0485997 	 -26.5708 	 -115.784
|  8> C 	 1.13986 	 -25.4326 	 -115.071
|  9> C 	 0.648394 	 -24.9295 	 -113.83
| 10> C 	 -0.523678 	 -25.5928 	 -113.414
| 11> C 	 -1.16565 	 -26.3825 	 -114.351
| 12> H 	 -0.963809 	 -25.4333 	 -112.413
| 13> C 	 1.34904 	 -23.878 	 -112.952
| 14> H 	 2.45051 	 -24.0433 	 -113.01
| 15> H 	 1.08566 	 -24.2078 	 -111.963
| 16> C 	 1.02436 	 -22.3924 	 -113.125
| 17> H 	 1.87923 	 -21.8187 	 -112.655
| 18> H 	 1.2284 	 -22.2012 	 -114.203
| 19> C 	 -0.404187 	 -22.0751 	 -112.763
| 20> H 	 -0.57024 	 -22.3362 	 -111.692
| 21> H 	 -0.654862 	 -21.0042 	 -112.962
| 22> H 	 -1.12659 	 -22.657 	 -113.392
| 23> S 	 -2.30274 	 -28.7358 	 -113.759
| 24> C 	 -4.06515 	 -28.871 	 -113.716
| 25> C 	 -4.63371 	 -27.5979 	 -113.803
| 26> C 	 -3.69808 	 -26.5501 	 -113.99
| 27> C 	 -2.4237 	 -27.0572 	 -114.201
| 28> H 	 -5.68505 	 -27.4542 	 -113.708
| 29> C 	 -4.07922 	 -25.122 	 -114.37
| 30> H 	 -3.16049 	 -24.6657 	 -114.787
| 31> H 	 -4.33137 	 -24.579 	 -113.436
| 32> C 	 -5.12359 	 -24.8707 	 -115.429
| 33> H 	 -5.03632 	 -23.8188 	 -115.675
| 34> H 	 -6.09401 	 -24.8782 	 -114.87
| 35> C 	 -5.03509 	 -25.6385 	 -116.712
| 36> H 	 -5.19794 	 -26.7095 	 -116.599
| 37> H 	 -3.99374 	 -25.5773 	 -117.172
| 38> H 	 -5.68634 	 -25.1938 	 -117.381
| 39> H 	 2.09248 	 -25.0941 	 -115.546
| 40> H 	 -4.72982 	 -29.7504 	 -113.456
| 41> *
| 42>
| 43>                          ****END OF INPUT****

CARTESIAN COORDINATES (ANGSTROEM)
---------------------------------
  S     -0.048600  -26.570800  -115.784000
  C      1.139860  -25.432600  -115.071000
  C      0.648394  -24.929500  -113.830000
  C     -0.523678  -25.592800  -113.414000
  C     -1.165650  -26.382500  -114.351000
  H     -0.963809  -25.433300  -112.413000
  C      1.349040  -23.878000  -112.952000
  H      2.450510  -24.043300  -113.010000
  H      1.085660  -24.207800  -111.963000
  C      1.024360  -22.392400  -113.125000
  H      1.879230  -21.818700  -112.655000
  H      1.228400  -22.201200  -114.203000
  C     -0.404187  -22.075100  -112.763000
  H     -0.570240  -22.336200  -111.692000
  H     -0.654862  -21.004200  -112.962000
  H     -1.126590  -22.657000  -113.392000
  S     -2.302740  -28.735800  -113.759000
  C     -4.065150  -28.871000  -113.716000
  C     -4.633710  -27.597900  -113.803000
  C     -3.698080  -26.550100  -113.990000
  C     -2.423700  -27.057200  -114.201000
  H     -5.685050  -27.454200  -113.708000
  C     -4.079220  -25.122000  -114.370000
  H     -3.160490  -24.665700  -114.787000
  H     -4.331370  -24.579000  -113.436000
  C     -5.123590  -24.870700  -115.429000
  H     -5.036320  -23.818800  -115.675000
  H     -6.094010  -24.878200  -114.870000
  C     -5.035090  -25.638500  -116.712000
  H     -5.197940  -26.709500  -116.599000
  H     -3.993740  -25.577300  -117.172000
  H     -5.686340  -25.193800  -117.381000
  H      2.092480  -25.094100  -115.546000
  H     -4.729820  -29.750400  -113.456000

 Total Charge           Charge          ....    0
 Multiplicity           Mult            ....    1
 Number of Electrons    NEL             ....  134
 Basis Dimension        Dim             ....  322

ORBITAL ENERGIES
----------------

  NO   OCC          E(Eh)            E(eV)
   0   2.0000     -88.968215     -2420.9482
   1   2.0000     -88.966944     -2420.9136
   2   2.0000     -10.331991      -281.1478
   3   2.0000     -10.327129      -281.0155
   4   2.0000     -10.324423      -280.9418
   5   2.0000     -10.323030      -280.9039
   6   2.0000     -10.304947      -280.4119
   7   2.0000     -10.302603      -280.3481
   8   2.0000     -10.296910      -280.1932
   9   2.0000     -10.293487      -280.1000
  10   2.0000     -10.293274      -280.0942
  11   2.0000     -10.292695      -280.0785
  12   2.0000     -10.289931      -280.0033
  13   2.0000     -10.287417      -279.9349
  14   2.0000     -10.283265      -279.8219
  15   2.0000     -10.272189      -279.5205
  16   2.0000      -8.081463      -219.9078
  17   2.0000      -8.080814      -219.8901
  18   2.0000      -6.040016      -164.3572
  19   2.0000      -6.039443      -164.3416
  20   2.0000      -6.036000      -164.2479
  21   2.0000      -6.035564      -164.2360
  22   2.0000      -6.032167      -164.1436
  23   2.0000      -6.031623      -164.1288
  24   2.0000      -1.003546       -27.3079
  25   2.0000      -0.974792       -26.5254
  26   2.0000      -0.911819       -24.8119
  27   2.0000      -0.909475       -24.7481
  28   2.0000      -0.868073       -23.6215
  29   2.0000      -0.849696       -23.1214
  30   2.0000      -0.842531       -22.9264
  31   2.0000      -0.810406       -22.0523
  32   2.0000      -0.785007       -21.3611
  33   2.0000      -0.770143       -20.9567
  34   2.0000      -0.704709       -19.1761
  35   2.0000      -0.699572       -19.0363
  36   2.0000      -0.689403       -18.7596
  37   2.0000      -0.657957       -17.9039
  38   2.0000      -0.634538       -17.2667
  39   2.0000      -0.611632       -16.6434
  40   2.0000      -0.584450       -15.9037
  41   2.0000      -0.566287       -15.4095
  42   2.0000      -0.558585       -15.1999
  43   2.0000      -0.551526       -15.0078
  44   2.0000      -0.549095       -14.9416
  45   2.0000      -0.536261       -14.5924
  46   2.0000      -0.510772       -13.8988
  47   2.0000      -0.507044       -13.7974
  48   2.0000      -0.499885       -13.6026
  49   2.0000      -0.496535       -13.5114
  50   2.0000      -0.492982       -13.4147
  51   2.0000      -0.477616       -12.9966
  52   2.0000      -0.466163       -12.6849
  53   2.0000      -0.458649       -12.4805
  54   2.0000      -0.456004       -12.4085
  55   2.0000      -0.447936       -12.1890
  56   2.0000      -0.443250       -12.0615
  57   2.0000      -0.437002       -11.8914
  58   2.0000      -0.433072       -11.7845
  59   2.0000      -0.430612       -11.7175
  60   2.0000      -0.419997       -11.4287
  61   2.0000      -0.407124       -11.0784
  62   2.0000      -0.399561       -10.8726
  63   2.0000      -0.339914        -9.2495
  64   2.0000      -0.329214        -8.9584
  65   2.0000      -0.323038        -8.7903
  66   2.0000      -0.300994        -8.1905
  67   0.0000       0.027728         0.7545
  68   0.0000       0.053177         1.4470
  69   0.0000       0.112122         3.0510
  70   0.0000       0.115682         3.1479
  71   0.0000       0.124696         3.3932

MULLIKEN ATOMIC CHARGES
-----------------------
   0 S :    0.100177
   1 C :   -0.132606
   2 C :   -0.110233
   3 C :    0.046628
   4 C :   -0.181439
   5 H :    0.025799
   6 C :    0.037959
   7 H :    0.030928
   8 H :    0.009999
   9 C :   -0.047809
  10 H :    0.040313
  11 H :    0.021785
  12 C :   -0.071695
  13 H :    0.037476
  14 H :    0.044442
  15 H :    0.051371
  16 S :    0.119842
  17 C :   -0.102319
  18 C :   -0.042802
  19 C :    0.000092
  20 C :   -0.186216
  21 H :    0.010242
  22 C :    0.028476
  23 H :    0.036667
  24 H :    0.036324
  25 C :   -0.080738
  26 H :    0.022492
  27 H :    0.021754
  28 C :   -0.010794
  29 H :    0.039262
  30 H :    0.034190
  31 H :    0.023217
  32 H :    0.069648
  33 H :    0.077570
Sum of atomic charges:   -0.0000000

LOEWDIN ATOMIC CHARGES
----------------------
   0 S :    0.362667
   1 C :   -0.189922
   2 C :   -0.068797
   3 C :   -0.058133
   4 C :   -0.187840
   5 H :    0.037053
   6 C :   -0.035518
   7 H :    0.034669
   8 H :    0.022545
   9 C :   -0.051197
  10 H :    0.032934
  11 H :    0.025813
  12 C :   -0.073574
  13 H :    0.028220
  14 H :    0.031777
  15 H :    0.034760
  16 S :    0.415019
  17 C :   -0.193784
  18 C :   -0.070341
  19 C :   -0.054267
  20 C :   -0.207095
  21 H :    0.026163
  22 C :   -0.037074
  23 H :    0.032092
  24 H :    0.035568
  25 C :   -0.050962
  26 H :    0.028133
  27 H :    0.023697
  28 C :   -0.060867
  29 H :    0.027323
  30 H :    0.037248
  31 H :    0.018554
  32 H :    0.038990
  33 H :    0.046145

  Mayer bond orders larger than 0.100000
B(  0-S ,  1-C ) :   1.1438 B(  0-S ,  4-C ) :   1.1185 B(  1-C ,  2-C ) :   1.5911
B(  1-C ,  4-C ) :   0.1120 B(  1-C , 32-H ) :   0.9627 B(  2-C ,  3-C ) :   1.2601
B(  2-C ,  6-C ) :   1.0090 B(  3-C ,  4-C ) :   1.5813 B(  3-C ,  5-H ) :   0.9815
B(  4-C , 20-C ) :   1.0389 B(  6-C ,  7-H ) :   0.9431 B(  6-C ,  8-H ) :   0.9431
B(  6-C ,  9-C ) :   1.0659 B(  9-C , 10-H ) :   0.9530 B(  9-C , 11-H ) :   0.9502
B(  9-C , 12-C ) :   1.0708 B( 12-C , 13-H ) :   0.9751 B( 12-C , 14-H ) :   0.9714
B( 12-C , 15-H ) :   0.9699 B( 16-S , 17-C ) :   1.1473 B( 16-S , 20-C ) :   1.1615
B( 17-C , 18-C ) :   1.6036 B( 17-C , 20-C ) :   0.1046 B( 17-C , 33-H ) :   0.9596
B( 18-C , 19-C ) :   1.2480 B( 18-C , 21-H ) :   0.9899 B( 19-C , 20-C ) :   1.5698
B( 19-C , 22-C ) :   1.0403 B( 22-C , 23-H ) :   0.9414 B( 22-C , 24-H ) :   0.9288
B( 22-C , 25-C ) :   1.0868 B( 25-C , 26-H ) :   0.9491 B( 25-C , 27-H ) :   0.9451
B( 25-C , 28-C ) :   1.0822 B( 28-C , 29-H ) :   0.9697 B( 28-C , 30-H ) :   0.9690
B( 28-C , 31-H ) :   0.9703

Dispersion correction           -0.015356554
FINAL SINGLE POINT ENERGY     -1339.871093357584

DIPOLE MOMENT
-------------
                                X             Y             Z
Electronic contribution:      6.37690     -23.61432      -1.93411
Nuclear contribution   :     -6.58597      24.21134       2.22155
                        -----------------------------------------
Total Dipole Moment    :     -0.20907       0.59702       0.28744
                        -----------------------------------------
Magnitude (a.u.)       :      0.69481
Magnitude (Debye)      :      1.76607

Rotational constants in cm-1:     0.018824     0.008939     0.007584
Rotational constants in MHz :   564.316132   267.992892   227.366293

                             ****ORCA TERMINATED NORMALLY****
TOTAL RUN TIME: 0 days 0 hours 0 minutes 22 seconds 187 msec
