                         Program Version 4.2.1 -  RELEASE  -
|  1> ! wB97X-D3 SP def2-SVP
|  2> %pal
|  3> nprocs 24
|  4> end
|  5>
|  6> * xyz 0 1
|  7> S 	 -100.247 	 -2.55998 	 -120.265
|  8> C 	 -100.809 	 -3.94997 	 -121.286
|  9> C 	 -101.929 	 -3.58137 	 -121.989
| 10> C 	 -102.4 	 -2.30473 	 -121.699
| 11> C 	 -101.65 	 -1.65014 	 -120.733
| 12> H 	 -103.313 	 -1.9489 	 -122.134
| 13> C 	 -102.742 	 -4.51437 	 -122.862
| 14> H 	 -103.82 	 -4.41275 	 -122.578
| 15> H 	 -102.56 	 -5.55031 	 -122.537
| 16> C 	 -102.625 	 -4.35153 	 -124.4
| 17> H 	 -102.909 	 -3.3042 	 -124.455
| 18> H 	 -101.603 	 -4.35688 	 -124.681
| 19> C 	 -103.652 	 -5.14568 	 -125.196
| 20> H 	 -104.652 	 -4.97938 	 -124.79
| 21> H 	 -103.655 	 -4.86677 	 -126.225
| 22> H 	 -103.395 	 -6.22664 	 -125.264
| 23> S 	 -101.935 	 -0.435092 	 -118.34
| 24> C 	 -102.47 	 1.20917 	 -118.318
| 25> C 	 -102.8 	 1.7285 	 -119.536
| 26> C 	 -102.493 	 0.797358 	 -120.617
| 27> C 	 -101.944 	 -0.383557 	 -120.083
| 28> H 	 -103.173 	 2.70606 	 -119.598
| 29> C 	 -102.751 	 1.13442 	 -122.018
| 30> H 	 -102.143 	 0.44705 	 -122.546
| 31> H 	 -102.479 	 2.11686 	 -122.278
| 32> C 	 -104.191 	 0.949889 	 -122.465
| 33> H 	 -104.873 	 1.40568 	 -121.743
| 34> H 	 -104.37 	 -0.15889 	 -122.484
| 35> C 	 -104.532 	 1.49434 	 -123.833
| 36> H 	 -103.725 	 1.23396 	 -124.579
| 37> H 	 -104.677 	 2.52178 	 -123.859
| 38> H 	 -105.485 	 1.11941 	 -124.278
| 39> H 	 -100.417 	 -4.93185 	 -121.342
| 40> H 	 -102.44 	 1.83965 	 -117.472
| 41> *
| 42>
| 43>                          ****END OF INPUT****

CARTESIAN COORDINATES (ANGSTROEM)
---------------------------------
  S    -100.247000   -2.559980  -120.265000
  C    -100.809000   -3.949970  -121.286000
  C    -101.929000   -3.581370  -121.989000
  C    -102.400000   -2.304730  -121.699000
  C    -101.650000   -1.650140  -120.733000
  H    -103.313000   -1.948900  -122.134000
  C    -102.742000   -4.514370  -122.862000
  H    -103.820000   -4.412750  -122.578000
  H    -102.560000   -5.550310  -122.537000
  C    -102.625000   -4.351530  -124.400000
  H    -102.909000   -3.304200  -124.455000
  H    -101.603000   -4.356880  -124.681000
  C    -103.652000   -5.145680  -125.196000
  H    -104.652000   -4.979380  -124.790000
  H    -103.655000   -4.866770  -126.225000
  H    -103.395000   -6.226640  -125.264000
  S    -101.935000   -0.435092  -118.340000
  C    -102.470000    1.209170  -118.318000
  C    -102.800000    1.728500  -119.536000
  C    -102.493000    0.797358  -120.617000
  C    -101.944000   -0.383557  -120.083000
  H    -103.173000    2.706060  -119.598000
  C    -102.751000    1.134420  -122.018000
  H    -102.143000    0.447050  -122.546000
  H    -102.479000    2.116860  -122.278000
  C    -104.191000    0.949889  -122.465000
  H    -104.873000    1.405680  -121.743000
  H    -104.370000   -0.158890  -122.484000
  C    -104.532000    1.494340  -123.833000
  H    -103.725000    1.233960  -124.579000
  H    -104.677000    2.521780  -123.859000
  H    -105.485000    1.119410  -124.278000
  H    -100.417000   -4.931850  -121.342000
  H    -102.440000    1.839650  -117.472000

 Total Charge           Charge          ....    0
 Multiplicity           Mult            ....    1
 Number of Electrons    NEL             ....  134
 Basis Dimension        Dim             ....  322

ORBITAL ENERGIES
----------------

  NO   OCC          E(Eh)            E(eV)
   0   2.0000     -88.968983     -2420.9691
   1   2.0000     -88.966734     -2420.9079
   2   2.0000     -10.329434      -281.0782
   3   2.0000     -10.325809      -280.9796
   4   2.0000     -10.313690      -280.6498
   5   2.0000     -10.309214      -280.5280
   6   2.0000     -10.305275      -280.4208
   7   2.0000     -10.295350      -280.1507
   8   2.0000     -10.293432      -280.0985
   9   2.0000     -10.289447      -279.9901
  10   2.0000     -10.289197      -279.9833
  11   2.0000     -10.289077      -279.9800
  12   2.0000     -10.284655      -279.8597
  13   2.0000     -10.281987      -279.7871
  14   2.0000     -10.280366      -279.7430
  15   2.0000     -10.279365      -279.7157
  16   2.0000      -8.082826      -219.9449
  17   2.0000      -8.081999      -219.9224
  18   2.0000      -6.041418      -164.3953
  19   2.0000      -6.040447      -164.3689
  20   2.0000      -6.037477      -164.2881
  21   2.0000      -6.036598      -164.2642
  22   2.0000      -6.033533      -164.1808
  23   2.0000      -6.032628      -164.1562
  24   2.0000      -1.008778       -27.4502
  25   2.0000      -0.984221       -26.7820
  26   2.0000      -0.920307       -25.0428
  27   2.0000      -0.911853       -24.8128
  28   2.0000      -0.871834       -23.7238
  29   2.0000      -0.856134       -23.2966
  30   2.0000      -0.847467       -23.0607
  31   2.0000      -0.816764       -22.2253
  32   2.0000      -0.786780       -21.4094
  33   2.0000      -0.773890       -21.0586
  34   2.0000      -0.709970       -19.3193
  35   2.0000      -0.703252       -19.1365
  36   2.0000      -0.696855       -18.9624
  37   2.0000      -0.665612       -18.1122
  38   2.0000      -0.637633       -17.3509
  39   2.0000      -0.627279       -17.0691
  40   2.0000      -0.601269       -16.3613
  41   2.0000      -0.576424       -15.6853
  42   2.0000      -0.572393       -15.5756
  43   2.0000      -0.555827       -15.1248
  44   2.0000      -0.526413       -14.3244
  45   2.0000      -0.523883       -14.2556
  46   2.0000      -0.522490       -14.2177
  47   2.0000      -0.515959       -14.0400
  48   2.0000      -0.504750       -13.7349
  49   2.0000      -0.500894       -13.6300
  50   2.0000      -0.494013       -13.4428
  51   2.0000      -0.481843       -13.1116
  52   2.0000      -0.471762       -12.8373
  53   2.0000      -0.464754       -12.6466
  54   2.0000      -0.461545       -12.5593
  55   2.0000      -0.455666       -12.3993
  56   2.0000      -0.451910       -12.2971
  57   2.0000      -0.440856       -11.9963
  58   2.0000      -0.432573       -11.7709
  59   2.0000      -0.427098       -11.6219
  60   2.0000      -0.424320       -11.5463
  61   2.0000      -0.418688       -11.3931
  62   2.0000      -0.408764       -11.1230
  63   2.0000      -0.345733        -9.4079
  64   2.0000      -0.336618        -9.1598
  65   2.0000      -0.328657        -8.9432
  66   2.0000      -0.290342        -7.9006
  67   0.0000       0.025196         0.6856
  68   0.0000       0.076212         2.0738
  69   0.0000       0.107296         2.9197
  70   0.0000       0.117939         3.2093
  71   0.0000       0.126702         3.4477

MULLIKEN ATOMIC CHARGES
-----------------------
   0 S :    0.106226
   1 C :   -0.114339
   2 C :   -0.066834
   3 C :    0.046262
   4 C :   -0.144809
   5 H :   -0.016897
   6 C :    0.012205
   7 H :    0.023907
   8 H :    0.012889
   9 C :   -0.038909
  10 H :    0.009819
  11 H :    0.023831
  12 C :   -0.023525
  13 H :    0.033395
  14 H :    0.027871
  15 H :    0.036875
  16 S :    0.117527
  17 C :   -0.065928
  18 C :   -0.021511
  19 C :   -0.046643
  20 C :   -0.139361
  21 H :   -0.001481
  22 C :    0.132261
  23 H :    0.010340
  24 H :    0.006658
  25 C :   -0.091916
  26 H :    0.028307
  27 H :    0.029739
  28 C :   -0.040246
  29 H :    0.033421
  30 H :    0.018433
  31 H :    0.034927
  32 H :    0.029319
  33 H :    0.038186
Sum of atomic charges:   -0.0000000

LOEWDIN ATOMIC CHARGES
----------------------
   0 S :    0.390421
   1 C :   -0.175813
   2 C :   -0.064327
   3 C :   -0.064407
   4 C :   -0.192166
   5 H :    0.024715
   6 C :   -0.034708
   7 H :    0.031287
   8 H :    0.022932
   9 C :   -0.039111
  10 H :    0.023588
  11 H :    0.020409
  12 C :   -0.062689
  13 H :    0.028834
  14 H :    0.024560
  15 H :    0.029856
  16 S :    0.416831
  17 C :   -0.182115
  18 C :   -0.060299
  19 C :   -0.042163
  20 C :   -0.203580
  21 H :    0.023783
  22 C :   -0.030216
  23 H :    0.028548
  24 H :    0.025061
  25 C :   -0.038445
  26 H :    0.023707
  27 H :    0.024924
  28 C :   -0.069505
  29 H :    0.031059
  30 H :    0.013608
  31 H :    0.032892
  32 H :    0.022489
  33 H :    0.020038

  Mayer bond orders larger than 0.100000
B(  0-S ,  1-C ) :   1.1117 B(  0-S ,  4-C ) :   1.1625 B(  1-C ,  2-C ) :   1.6185
B(  1-C , 32-H ) :   0.9722 B(  2-C ,  3-C ) :   1.2662 B(  2-C ,  6-C ) :   1.0190
B(  3-C ,  4-C ) :   1.5385 B(  3-C ,  5-H ) :   0.9937 B(  4-C , 20-C ) :   1.0292
B(  6-C ,  7-H ) :   0.9450 B(  6-C ,  8-H ) :   0.9438 B(  6-C ,  9-C ) :   1.0440
B(  9-C , 10-H ) :   0.9535 B(  9-C , 11-H ) :   0.9584 B(  9-C , 12-C ) :   1.0800
B( 12-C , 13-H ) :   0.9711 B( 12-C , 14-H ) :   0.9728 B( 12-C , 15-H ) :   0.9751
B( 16-S , 17-C ) :   1.1451 B( 16-S , 20-C ) :   1.1431 B( 17-C , 18-C ) :   1.6413
B( 17-C , 33-H ) :   0.9675 B( 18-C , 19-C ) :   1.2008 B( 18-C , 21-H ) :   0.9986
B( 19-C , 20-C ) :   1.5955 B( 19-C , 22-C ) :   1.0735 B( 22-C , 23-H ) :   0.9090
B( 22-C , 24-H ) :   0.9286 B( 22-C , 25-C ) :   1.0654 B( 25-C , 26-H ) :   0.9549
B( 25-C , 27-H ) :   0.9498 B( 25-C , 28-C ) :   1.0880 B( 28-C , 29-H ) :   0.9705
B( 28-C , 30-H ) :   0.9733 B( 28-C , 31-H ) :   0.9724

Dispersion correction           -0.014040846
FINAL SINGLE POINT ENERGY     -1339.877802798223

DIPOLE MOMENT
-------------
                                X             Y             Z
Electronic contribution:     16.84378       2.43037      28.32738
Nuclear contribution   :    -17.33430      -2.27540     -28.83422
                        -----------------------------------------
Total Dipole Moment    :     -0.49051       0.15496      -0.50684
                        -----------------------------------------
Magnitude (a.u.)       :      0.72215
Magnitude (Debye)      :      1.83557

Rotational constants in cm-1:     0.017053     0.009358     0.006430
Rotational constants in MHz :   511.237199   280.542595   192.761616

                             ****ORCA TERMINATED NORMALLY****
TOTAL RUN TIME: 0 days 0 hours 0 minutes 21 seconds 596 msec
