                         Program Version 4.2.1 -  RELEASE  -
|  1> ! wB97X-D3 SP def2-SVP
|  2> %pal
|  3> nprocs 24
|  4> end
|  5>
|  6> * xyz 0 1
|  7> S 	 -35.0997 	 -29.7213 	 -99.3422
|  8> C 	 -35.1913 	 -29.6362 	 -101.025
|  9> C 	 -35.2725 	 -30.8969 	 -101.667
| 10> C 	 -35.1586 	 -31.9874 	 -100.76
| 11> C 	 -34.8786 	 -31.5381 	 -99.4631
| 12> H 	 -35.0832 	 -33.0496 	 -101.039
| 13> C 	 -35.4126 	 -31.1819 	 -103.14
| 14> H 	 -35.9036 	 -32.1134 	 -103.164
| 15> H 	 -34.454 	 -31.4671 	 -103.642
| 16> C 	 -36.0637 	 -30.0655 	 -103.994
| 17> H 	 -35.5504 	 -29.0731 	 -103.867
| 18> H 	 -36.0504 	 -30.3772 	 -105.034
| 19> C 	 -37.5555 	 -29.8919 	 -103.691
| 20> H 	 -38.0132 	 -29.0056 	 -104.119
| 21> H 	 -38.1704 	 -30.6781 	 -104.127
| 22> H 	 -37.6867 	 -29.8559 	 -102.629
| 23> S 	 -35.8982 	 -32.6634 	 -97.2285
| 24> C 	 -34.8746 	 -33.7721 	 -96.395
| 25> C 	 -33.6611 	 -34.0005 	 -96.9926
| 26> C 	 -33.4684 	 -33.2397 	 -98.1428
| 27> C 	 -34.6169 	 -32.4038 	 -98.338
| 28> H 	 -33.0512 	 -34.5608 	 -96.4212
| 29> C 	 -32.1806 	 -33.2444 	 -98.8419
| 30> H 	 -31.4013 	 -33.3199 	 -98.0572
| 31> H 	 -31.9125 	 -32.3147 	 -99.2136
| 32> C 	 -32.0077 	 -34.2052 	 -100.07
| 33> H 	 -32.5003 	 -33.5792 	 -100.795
| 34> H 	 -32.655 	 -35.1355 	 -100.013
| 35> C 	 -30.5865 	 -34.5085 	 -100.55
| 36> H 	 -30.0804 	 -35.2409 	 -99.983
| 37> H 	 -30.0281 	 -33.6077 	 -100.743
| 38> H 	 -30.6359 	 -34.9467 	 -101.563
| 39> H 	 -35.114 	 -28.6932 	 -101.525
| 40> H 	 -35.1559 	 -34.2967 	 -95.4989
| 41> *
| 42>
| 43>                          ****END OF INPUT****

CARTESIAN COORDINATES (ANGSTROEM)
---------------------------------
  S    -35.099700  -29.721300  -99.342200
  C    -35.191300  -29.636200  -101.025000
  C    -35.272500  -30.896900  -101.667000
  C    -35.158600  -31.987400  -100.760000
  C    -34.878600  -31.538100  -99.463100
  H    -35.083200  -33.049600  -101.039000
  C    -35.412600  -31.181900  -103.140000
  H    -35.903600  -32.113400  -103.164000
  H    -34.454000  -31.467100  -103.642000
  C    -36.063700  -30.065500  -103.994000
  H    -35.550400  -29.073100  -103.867000
  H    -36.050400  -30.377200  -105.034000
  C    -37.555500  -29.891900  -103.691000
  H    -38.013200  -29.005600  -104.119000
  H    -38.170400  -30.678100  -104.127000
  H    -37.686700  -29.855900  -102.629000
  S    -35.898200  -32.663400  -97.228500
  C    -34.874600  -33.772100  -96.395000
  C    -33.661100  -34.000500  -96.992600
  C    -33.468400  -33.239700  -98.142800
  C    -34.616900  -32.403800  -98.338000
  H    -33.051200  -34.560800  -96.421200
  C    -32.180600  -33.244400  -98.841900
  H    -31.401300  -33.319900  -98.057200
  H    -31.912500  -32.314700  -99.213600
  C    -32.007700  -34.205200  -100.070000
  H    -32.500300  -33.579200  -100.795000
  H    -32.655000  -35.135500  -100.013000
  C    -30.586500  -34.508500  -100.550000
  H    -30.080400  -35.240900  -99.983000
  H    -30.028100  -33.607700  -100.743000
  H    -30.635900  -34.946700  -101.563000
  H    -35.114000  -28.693200  -101.525000
  H    -35.155900  -34.296700  -95.498900

 Total Charge           Charge          ....    0
 Multiplicity           Mult            ....    1
 Number of Electrons    NEL             ....  134
 Basis Dimension        Dim             ....  322

ORBITAL ENERGIES
----------------

  NO   OCC          E(Eh)            E(eV)
   0   2.0000     -88.967717     -2420.9347
   1   2.0000     -88.967075     -2420.9172
   2   2.0000     -10.329777      -281.0875
   3   2.0000     -10.320554      -280.8366
   4   2.0000     -10.311517      -280.5906
   5   2.0000     -10.306899      -280.4650
   6   2.0000     -10.301252      -280.3113
   7   2.0000     -10.301197      -280.3098
   8   2.0000     -10.297845      -280.2186
   9   2.0000     -10.290763      -280.0259
  10   2.0000     -10.290212      -280.0109
  11   2.0000     -10.289949      -280.0037
  12   2.0000     -10.283131      -279.8182
  13   2.0000     -10.277818      -279.6736
  14   2.0000     -10.276660      -279.6421
  15   2.0000     -10.267938      -279.4048
  16   2.0000      -8.083481      -219.9627
  17   2.0000      -8.081713      -219.9146
  18   2.0000      -6.041552      -164.3990
  19   2.0000      -6.040057      -164.3583
  20   2.0000      -6.037928      -164.3004
  21   2.0000      -6.036338      -164.2571
  22   2.0000      -6.034574      -164.2091
  23   2.0000      -6.032566      -164.1545
  24   2.0000      -1.007187       -27.4069
  25   2.0000      -0.983381       -26.7592
  26   2.0000      -0.909797       -24.7568
  27   2.0000      -0.907490       -24.6941
  28   2.0000      -0.871368       -23.7111
  29   2.0000      -0.857947       -23.3459
  30   2.0000      -0.851145       -23.1608
  31   2.0000      -0.812194       -22.1009
  32   2.0000      -0.784921       -21.3588
  33   2.0000      -0.766509       -20.8578
  34   2.0000      -0.709461       -19.3054
  35   2.0000      -0.701845       -19.0982
  36   2.0000      -0.690664       -18.7939
  37   2.0000      -0.662335       -18.0230
  38   2.0000      -0.643336       -17.5061
  39   2.0000      -0.613627       -16.6976
  40   2.0000      -0.598319       -16.2811
  41   2.0000      -0.575732       -15.6665
  42   2.0000      -0.557975       -15.1833
  43   2.0000      -0.546248       -14.8642
  44   2.0000      -0.537007       -14.6127
  45   2.0000      -0.520680       -14.1684
  46   2.0000      -0.517082       -14.0705
  47   2.0000      -0.512390       -13.9428
  48   2.0000      -0.510077       -13.8799
  49   2.0000      -0.492972       -13.4144
  50   2.0000      -0.487496       -13.2654
  51   2.0000      -0.481002       -13.0887
  52   2.0000      -0.470580       -12.8051
  53   2.0000      -0.463772       -12.6199
  54   2.0000      -0.463231       -12.6052
  55   2.0000      -0.455631       -12.3983
  56   2.0000      -0.442923       -12.0526
  57   2.0000      -0.439094       -11.9484
  58   2.0000      -0.429659       -11.6916
  59   2.0000      -0.425667       -11.5830
  60   2.0000      -0.422295       -11.4912
  61   2.0000      -0.419206       -11.4072
  62   2.0000      -0.408469       -11.1150
  63   2.0000      -0.345696        -9.4069
  64   2.0000      -0.332033        -9.0351
  65   2.0000      -0.316924        -8.6239
  66   2.0000      -0.289383        -7.8745
  67   0.0000       0.035422         0.9639
  68   0.0000       0.055119         1.4999
  69   0.0000       0.114986         3.1289
  70   0.0000       0.120421         3.2768
  71   0.0000       0.126368         3.4386

MULLIKEN ATOMIC CHARGES
-----------------------
   0 S :    0.117267
   1 C :   -0.116318
   2 C :   -0.105364
   3 C :    0.047170
   4 C :   -0.191301
   5 H :    0.036205
   6 C :    0.081798
   7 H :    0.004459
   8 H :    0.041174
   9 C :   -0.080190
  10 H :    0.042990
  11 H :    0.027915
  12 C :   -0.049344
  13 H :    0.025005
  14 H :    0.023619
  15 H :    0.032975
  16 S :    0.138174
  17 C :   -0.099131
  18 C :    0.000979
  19 C :    0.010257
  20 C :   -0.188605
  21 H :   -0.029150
  22 C :    0.095741
  23 H :    0.017892
  24 H :   -0.002427
  25 C :   -0.103007
  26 H :    0.021375
  27 H :    0.039529
  28 C :   -0.013581
  29 H :    0.033507
  30 H :    0.027535
  31 H :    0.025345
  32 H :    0.045281
  33 H :    0.042224
Sum of atomic charges:    0.0000000

LOEWDIN ATOMIC CHARGES
----------------------
   0 S :    0.400674
   1 C :   -0.216135
   2 C :   -0.065833
   3 C :   -0.051763
   4 C :   -0.180253
   5 H :    0.039812
   6 C :   -0.035814
   7 H :    0.025076
   8 H :    0.038990
   9 C :   -0.042143
  10 H :    0.029021
  11 H :    0.025568
  12 C :   -0.068369
  13 H :    0.023667
  14 H :    0.023820
  15 H :    0.020073
  16 S :    0.441781
  17 C :   -0.190203
  18 C :   -0.056818
  19 C :   -0.046637
  20 C :   -0.219680
  21 H :    0.015217
  22 C :   -0.034749
  23 H :    0.033090
  24 H :    0.022691
  25 C :   -0.041411
  26 H :    0.021943
  27 H :    0.027816
  28 C :   -0.063002
  29 H :    0.020143
  30 H :    0.025935
  31 H :    0.033185
  32 H :    0.021697
  33 H :    0.022612

  Mayer bond orders larger than 0.100000
B(  0-S ,  1-C ) :   1.1599 B(  0-S ,  4-C ) :   1.1358 B(  1-C ,  2-C ) :   1.5784
B(  1-C ,  4-C ) :   0.1001 B(  1-C , 32-H ) :   0.9683 B(  2-C ,  3-C ) :   1.2546
B(  2-C ,  6-C ) :   1.0179 B(  3-C ,  4-C ) :   1.5773 B(  3-C ,  5-H ) :   0.9820
B(  4-C , 20-C ) :   1.0414 B(  6-C ,  7-H ) :   0.9349 B(  6-C ,  8-H ) :   0.9303
B(  6-C ,  9-C ) :   1.0772 B(  9-C , 10-H ) :   0.9546 B(  9-C , 11-H ) :   0.9550
B(  9-C , 12-C ) :   1.0769 B( 12-C , 13-H ) :   0.9744 B( 12-C , 14-H ) :   0.9749
B( 12-C , 15-H ) :   0.9783 B( 16-S , 17-C ) :   1.1635 B( 16-S , 20-C ) :   1.1848
B( 17-C , 18-C ) :   1.6080 B( 17-C , 20-C ) :   0.1012 B( 17-C , 33-H ) :   0.9651
B( 18-C , 19-C ) :   1.2465 B( 18-C , 21-H ) :   1.0097 B( 19-C , 20-C ) :   1.5337
B( 19-C , 22-C ) :   1.0606 B( 22-C , 23-H ) :   0.9406 B( 22-C , 24-H ) :   0.9218
B( 22-C , 25-C ) :   1.0210 B( 25-C , 26-H ) :   0.9541 B( 25-C , 27-H ) :   0.9647
B( 25-C , 28-C ) :   1.0896 B( 28-C , 29-H ) :   0.9773 B( 28-C , 30-H ) :   0.9702
B( 28-C , 31-H ) :   0.9684

Dispersion correction           -0.014470128
FINAL SINGLE POINT ENERGY     -1339.856853272630

DIPOLE MOMENT
-------------
                                X             Y             Z
Electronic contribution:     -8.94954       5.77165      23.24946
Nuclear contribution   :      9.26528      -6.07749     -23.66637
                        -----------------------------------------
Total Dipole Moment    :      0.31574      -0.30584      -0.41691
                        -----------------------------------------
Magnitude (a.u.)       :      0.60585
Magnitude (Debye)      :      1.53994

Rotational constants in cm-1:     0.018458     0.008529     0.006626
Rotational constants in MHz :   553.366512   255.685186   198.650338

                             ****ORCA TERMINATED NORMALLY****
TOTAL RUN TIME: 0 days 0 hours 0 minutes 21 seconds 532 msec
