                         Program Version 4.2.1 -  RELEASE  -
|  1> ! wB97X-D3 SP def2-SVP
|  2> %pal
|  3> nprocs 24
|  4> end
|  5>
|  6> * xyz 0 1
|  7> S 	 -107.02 	 16.7124 	 -117.448
|  8> C 	 -106.677 	 15.2052 	 -116.587
|  9> C 	 -105.345 	 15.0401 	 -116.405
| 10> C 	 -104.57 	 16.1553 	 -116.901
| 11> C 	 -105.319 	 17.2015 	 -117.371
| 12> H 	 -103.497 	 16.2537 	 -116.874
| 13> C 	 -104.704 	 13.849 	 -115.632
| 14> H 	 -104.207 	 14.3243 	 -114.772
| 15> H 	 -104.009 	 13.4696 	 -116.343
| 16> C 	 -105.544 	 12.7104 	 -115.156
| 17> H 	 -106.435 	 13.0937 	 -114.661
| 18> H 	 -105.824 	 12.2156 	 -116.056
| 19> C 	 -104.836 	 11.666 	 -114.325
| 20> H 	 -103.929 	 11.23 	 -114.736
| 21> H 	 -104.481 	 12.0823 	 -113.342
| 22> H 	 -105.553 	 10.8618 	 -113.983
| 23> S 	 -106.096 	 19.8342 	 -117.493
| 24> C 	 -105.101 	 21.0023 	 -118.289
| 25> C 	 -103.832 	 20.497 	 -118.53
| 26> C 	 -103.786 	 19.0689 	 -118.353
| 27> C 	 -104.947 	 18.5485 	 -117.8
| 28> H 	 -103.091 	 21.2166 	 -118.765
| 29> C 	 -102.506 	 18.3663 	 -118.646
| 30> H 	 -102.015 	 18.7838 	 -119.511
| 31> H 	 -102.668 	 17.2798 	 -118.927
| 32> C 	 -101.522 	 18.5061 	 -117.419
| 33> H 	 -101.959 	 17.972 	 -116.586
| 34> H 	 -101.356 	 19.5124 	 -117.149
| 35> C 	 -100.082 	 18.0774 	 -117.745
| 36> H 	 -99.6683 	 18.7477 	 -118.52
| 37> H 	 -100.026 	 17.0385 	 -118.013
| 38> H 	 -99.4127 	 18.2146 	 -116.936
| 39> H 	 -107.318 	 14.4062 	 -116.354
| 40> H 	 -105.277 	 22.0588 	 -118.382
| 41> *
| 42>
| 43>                          ****END OF INPUT****

CARTESIAN COORDINATES (ANGSTROEM)
---------------------------------
  S    -107.020000   16.712400  -117.448000
  C    -106.677000   15.205200  -116.587000
  C    -105.345000   15.040100  -116.405000
  C    -104.570000   16.155300  -116.901000
  C    -105.319000   17.201500  -117.371000
  H    -103.497000   16.253700  -116.874000
  C    -104.704000   13.849000  -115.632000
  H    -104.207000   14.324300  -114.772000
  H    -104.009000   13.469600  -116.343000
  C    -105.544000   12.710400  -115.156000
  H    -106.435000   13.093700  -114.661000
  H    -105.824000   12.215600  -116.056000
  C    -104.836000   11.666000  -114.325000
  H    -103.929000   11.230000  -114.736000
  H    -104.481000   12.082300  -113.342000
  H    -105.553000   10.861800  -113.983000
  S    -106.096000   19.834200  -117.493000
  C    -105.101000   21.002300  -118.289000
  C    -103.832000   20.497000  -118.530000
  C    -103.786000   19.068900  -118.353000
  C    -104.947000   18.548500  -117.800000
  H    -103.091000   21.216600  -118.765000
  C    -102.506000   18.366300  -118.646000
  H    -102.015000   18.783800  -119.511000
  H    -102.668000   17.279800  -118.927000
  C    -101.522000   18.506100  -117.419000
  H    -101.959000   17.972000  -116.586000
  H    -101.356000   19.512400  -117.149000
  C    -100.082000   18.077400  -117.745000
  H    -99.668300   18.747700  -118.520000
  H    -100.026000   17.038500  -118.013000
  H    -99.412700   18.214600  -116.936000
  H    -107.318000   14.406200  -116.354000
  H    -105.277000   22.058800  -118.382000

 Total Charge           Charge          ....    0
 Multiplicity           Mult            ....    1
 Number of Electrons    NEL             ....  134
 Basis Dimension        Dim             ....  322

ORBITAL ENERGIES
----------------

  NO   OCC          E(Eh)            E(eV)
   0   2.0000     -88.966007     -2420.8881
   1   2.0000     -88.962321     -2420.7878
   2   2.0000     -10.333264      -281.1824
   3   2.0000     -10.329272      -281.0738
   4   2.0000     -10.314874      -280.6820
   5   2.0000     -10.306481      -280.4536
   6   2.0000     -10.305003      -280.4134
   7   2.0000     -10.301621      -280.3214
   8   2.0000     -10.296041      -280.1695
   9   2.0000     -10.294773      -280.1350
  10   2.0000     -10.292481      -280.0726
  11   2.0000     -10.291510      -280.0462
  12   2.0000     -10.287717      -279.9430
  13   2.0000     -10.286457      -279.9087
  14   2.0000     -10.284789      -279.8633
  15   2.0000     -10.275851      -279.6201
  16   2.0000      -8.081031      -219.8960
  17   2.0000      -8.076491      -219.7725
  18   2.0000      -6.039641      -164.3470
  19   2.0000      -6.035449      -164.2329
  20   2.0000      -6.035249      -164.2275
  21   2.0000      -6.031691      -164.1306
  22   2.0000      -6.031161      -164.1162
  23   2.0000      -6.026920      -164.0008
  24   2.0000      -1.007709       -27.4212
  25   2.0000      -0.984313       -26.7845
  26   2.0000      -0.918545       -24.9949
  27   2.0000      -0.909870       -24.7588
  28   2.0000      -0.872612       -23.7450
  29   2.0000      -0.854829       -23.2611
  30   2.0000      -0.843017       -22.9396
  31   2.0000      -0.818989       -22.2858
  32   2.0000      -0.783507       -21.3203
  33   2.0000      -0.773644       -21.0519
  34   2.0000      -0.713451       -19.4140
  35   2.0000      -0.705181       -19.1889
  36   2.0000      -0.695121       -18.9152
  37   2.0000      -0.666075       -18.1248
  38   2.0000      -0.636119       -17.3097
  39   2.0000      -0.615450       -16.7472
  40   2.0000      -0.595058       -16.1924
  41   2.0000      -0.585106       -15.9215
  42   2.0000      -0.572942       -15.5905
  43   2.0000      -0.567872       -15.4526
  44   2.0000      -0.526133       -14.3168
  45   2.0000      -0.525191       -14.2912
  46   2.0000      -0.518715       -14.1149
  47   2.0000      -0.514001       -13.9867
  48   2.0000      -0.507126       -13.7996
  49   2.0000      -0.500168       -13.6103
  50   2.0000      -0.497428       -13.5357
  51   2.0000      -0.483274       -13.1505
  52   2.0000      -0.473212       -12.8768
  53   2.0000      -0.467680       -12.7262
  54   2.0000      -0.458903       -12.4874
  55   2.0000      -0.451913       -12.2972
  56   2.0000      -0.447487       -12.1767
  57   2.0000      -0.435909       -11.8617
  58   2.0000      -0.431480       -11.7412
  59   2.0000      -0.427425       -11.6308
  60   2.0000      -0.422462       -11.4958
  61   2.0000      -0.420364       -11.4387
  62   2.0000      -0.410773       -11.1777
  63   2.0000      -0.357708        -9.7337
  64   2.0000      -0.328334        -8.9344
  65   2.0000      -0.326748        -8.8913
  66   2.0000      -0.289248        -7.8708
  67   0.0000       0.025354         0.6899
  68   0.0000       0.081978         2.2307
  69   0.0000       0.105592         2.8733
  70   0.0000       0.121679         3.3110
  71   0.0000       0.134457         3.6587

MULLIKEN ATOMIC CHARGES
-----------------------
   0 S :    0.094454
   1 C :   -0.098793
   2 C :   -0.103412
   3 C :    0.007554
   4 C :   -0.116274
   5 H :   -0.005438
   6 C :    0.070783
   7 H :    0.040416
   8 H :    0.026220
   9 C :   -0.073408
  10 H :    0.035018
  11 H :    0.023546
  12 C :   -0.058341
  13 H :    0.033555
  14 H :    0.024255
  15 H :    0.045224
  16 S :    0.112063
  17 C :   -0.082287
  18 C :   -0.045250
  19 C :   -0.024193
  20 C :   -0.122205
  21 H :    0.012823
  22 C :    0.033062
  23 H :    0.014079
  24 H :    0.039549
  25 C :   -0.061883
  26 H :    0.028349
  27 H :    0.017730
  28 C :   -0.026981
  29 H :    0.030223
  30 H :    0.026430
  31 H :    0.023432
  32 H :    0.027544
  33 H :    0.052155
Sum of atomic charges:   -0.0000000

LOEWDIN ATOMIC CHARGES
----------------------
   0 S :    0.378170
   1 C :   -0.192091
   2 C :   -0.058121
   3 C :   -0.068302
   4 C :   -0.172156
   5 H :    0.026400
   6 C :   -0.027893
   7 H :    0.034149
   8 H :    0.029266
   9 C :   -0.048974
  10 H :    0.025541
  11 H :    0.023925
  12 C :   -0.068343
  13 H :    0.024807
  14 H :    0.026214
  15 H :    0.036385
  16 S :    0.415705
  17 C :   -0.188046
  18 C :   -0.064958
  19 C :   -0.054403
  20 C :   -0.199716
  21 H :    0.027799
  22 C :   -0.034656
  23 H :    0.026569
  24 H :    0.035635
  25 C :   -0.030024
  26 H :    0.019764
  27 H :    0.020361
  28 C :   -0.062182
  29 H :    0.028654
  30 H :    0.019888
  31 H :    0.021289
  32 H :    0.020645
  33 H :    0.028702

  Mayer bond orders larger than 0.100000
B(  0-S ,  1-C ) :   1.0991 B(  0-S ,  4-C ) :   1.1320 B(  1-C ,  2-C ) :   1.6806
B(  1-C , 32-H ) :   0.9583 B(  2-C ,  3-C ) :   1.2105 B(  2-C ,  6-C ) :   0.9887
B(  3-C ,  4-C ) :   1.6054 B(  3-C ,  5-H ) :   0.9959 B(  4-C , 20-C ) :   1.0547
B(  6-C ,  7-H ) :   0.9439 B(  6-C ,  8-H ) :   0.9345 B(  6-C ,  9-C ) :   1.0920
B(  9-C , 10-H ) :   0.9448 B(  9-C , 11-H ) :   0.9478 B(  9-C , 12-C ) :   1.0943
B( 12-C , 13-H ) :   0.9738 B( 12-C , 14-H ) :   0.9717 B( 12-C , 15-H ) :   0.9713
B( 16-S , 17-C ) :   1.1576 B( 16-S , 20-C ) :   1.1354 B( 17-C , 18-C ) :   1.6206
B( 17-C , 33-H ) :   0.9668 B( 18-C , 19-C ) :   1.2208 B( 18-C , 21-H ) :   0.9953
B( 19-C , 20-C ) :   1.5882 B( 19-C , 22-C ) :   1.0682 B( 22-C , 23-H ) :   0.9316
B( 22-C , 24-H ) :   0.9330 B( 22-C , 25-C ) :   1.0536 B( 25-C , 26-H ) :   0.9556
B( 25-C , 27-H ) :   0.9567 B( 25-C , 28-C ) :   1.0829 B( 28-C , 29-H ) :   0.9736
B( 28-C , 30-H ) :   0.9748 B( 28-C , 31-H ) :   0.9732

Dispersion correction           -0.013589784
FINAL SINGLE POINT ENERGY     -1339.879010645095

DIPOLE MOMENT
-------------
                                X             Y             Z
Electronic contribution:    -22.44348      18.68327      -8.10303
Nuclear contribution   :     23.22097     -18.86569       8.29119
                        -----------------------------------------
Total Dipole Moment    :      0.77749      -0.18243       0.18815
                        -----------------------------------------
Magnitude (a.u.)       :      0.82047
Magnitude (Debye)      :      2.08548

Rotational constants in cm-1:     0.019257     0.007882     0.005809
Rotational constants in MHz :   577.302016   236.288597   174.156922

                             ****ORCA TERMINATED NORMALLY****
TOTAL RUN TIME: 0 days 0 hours 0 minutes 21 seconds 215 msec
