                         Program Version 4.2.1 -  RELEASE  -
|  1> ! wB97X-D3 SP def2-SVP
|  2> %pal
|  3> nprocs 24
|  4> end
|  5>
|  6> * xyz 0 1
|  7> S 	 -60.813 	 12.5049 	 -92.9836
|  8> C 	 -61.8264 	 13.6887 	 -93.7803
|  9> C 	 -61.8147 	 14.8365 	 -93.0729
| 10> C 	 -61.3582 	 14.6396 	 -91.714
| 11> C 	 -60.8236 	 13.3906 	 -91.4593
| 12> H 	 -61.4344 	 15.3335 	 -90.9159
| 13> C 	 -62.3643 	 16.1919 	 -93.522
| 14> H 	 -63.2199 	 16.5269 	 -92.9499
| 15> H 	 -62.9329 	 15.9724 	 -94.4045
| 16> C 	 -61.2407 	 17.2505 	 -93.8441
| 17> H 	 -60.6063 	 16.8029 	 -94.517
| 18> H 	 -61.6937 	 18.0585 	 -94.3773
| 19> C 	 -60.3019 	 17.6802 	 -92.6886
| 20> H 	 -59.5054 	 18.4202 	 -92.9893
| 21> H 	 -60.9127 	 18.2258 	 -91.9633
| 22> H 	 -59.9692 	 16.8699 	 -92.0944
| 23> S 	 -60.9524 	 11.9049 	 -89.1912
| 24> C 	 -59.611 	 11.9527 	 -88.0784
| 25> C 	 -58.6784 	 12.9178 	 -88.4726
| 26> C 	 -58.9517 	 13.5907 	 -89.7012
| 27> C 	 -60.157 	 13.0829 	 -90.2365
| 28> H 	 -57.7841 	 13.0208 	 -87.8972
| 29> C 	 -58.1589 	 14.7833 	 -90.1767
| 30> H 	 -58.355 	 15.6952 	 -89.6143
| 31> H 	 -58.6864 	 15.1344 	 -91.1092
| 32> C 	 -56.7648 	 14.3471 	 -90.6286
| 33> H 	 -56.7964 	 13.5416 	 -91.3116
| 34> H 	 -56.2487 	 14.0479 	 -89.763
| 35> C 	 -55.8389 	 15.4497 	 -91.1473
| 36> H 	 -56.4274 	 16.0167 	 -91.8679
| 37> H 	 -54.9902 	 14.8821 	 -91.6481
| 38> H 	 -55.4454 	 16.077 	 -90.4182
| 39> H 	 -62.1034 	 13.6868 	 -94.8848
| 40> H 	 -59.5151 	 11.5088 	 -87.1064
| 41> *
| 42>
| 43>                          ****END OF INPUT****

CARTESIAN COORDINATES (ANGSTROEM)
---------------------------------
  S    -60.813000   12.504900  -92.983600
  C    -61.826400   13.688700  -93.780300
  C    -61.814700   14.836500  -93.072900
  C    -61.358200   14.639600  -91.714000
  C    -60.823600   13.390600  -91.459300
  H    -61.434400   15.333500  -90.915900
  C    -62.364300   16.191900  -93.522000
  H    -63.219900   16.526900  -92.949900
  H    -62.932900   15.972400  -94.404500
  C    -61.240700   17.250500  -93.844100
  H    -60.606300   16.802900  -94.517000
  H    -61.693700   18.058500  -94.377300
  C    -60.301900   17.680200  -92.688600
  H    -59.505400   18.420200  -92.989300
  H    -60.912700   18.225800  -91.963300
  H    -59.969200   16.869900  -92.094400
  S    -60.952400   11.904900  -89.191200
  C    -59.611000   11.952700  -88.078400
  C    -58.678400   12.917800  -88.472600
  C    -58.951700   13.590700  -89.701200
  C    -60.157000   13.082900  -90.236500
  H    -57.784100   13.020800  -87.897200
  C    -58.158900   14.783300  -90.176700
  H    -58.355000   15.695200  -89.614300
  H    -58.686400   15.134400  -91.109200
  C    -56.764800   14.347100  -90.628600
  H    -56.796400   13.541600  -91.311600
  H    -56.248700   14.047900  -89.763000
  C    -55.838900   15.449700  -91.147300
  H    -56.427400   16.016700  -91.867900
  H    -54.990200   14.882100  -91.648100
  H    -55.445400   16.077000  -90.418200
  H    -62.103400   13.686800  -94.884800
  H    -59.515100   11.508800  -87.106400

 Total Charge           Charge          ....    0
 Multiplicity           Mult            ....    1
 Number of Electrons    NEL             ....  134
 Basis Dimension        Dim             ....  322

ORBITAL ENERGIES
----------------

  NO   OCC          E(Eh)            E(eV)
   0   2.0000     -88.967867     -2420.9387
   1   2.0000     -88.962827     -2420.8016
   2   2.0000     -10.326733      -281.0047
   3   2.0000     -10.324341      -280.9396
   4   2.0000     -10.316878      -280.7365
   5   2.0000     -10.316509      -280.7265
   6   2.0000     -10.307561      -280.4830
   7   2.0000     -10.299263      -280.2572
   8   2.0000     -10.294708      -280.1333
   9   2.0000     -10.293271      -280.0942
  10   2.0000     -10.291194      -280.0376
  11   2.0000     -10.290197      -280.0105
  12   2.0000     -10.284638      -279.8592
  13   2.0000     -10.280400      -279.7439
  14   2.0000     -10.278198      -279.6840
  15   2.0000     -10.275579      -279.6127
  16   2.0000      -8.082230      -219.9287
  17   2.0000      -8.077446      -219.7985
  18   2.0000      -6.040684      -164.3754
  19   2.0000      -6.036675      -164.2663
  20   2.0000      -6.036090      -164.2504
  21   2.0000      -6.033189      -164.1714
  22   2.0000      -6.032113      -164.1421
  23   2.0000      -6.027882      -164.0270
  24   2.0000      -1.005924       -27.3726
  25   2.0000      -0.982828       -26.7441
  26   2.0000      -0.912882       -24.8408
  27   2.0000      -0.906716       -24.6730
  28   2.0000      -0.873058       -23.7571
  29   2.0000      -0.853407       -23.2224
  30   2.0000      -0.841461       -22.8973
  31   2.0000      -0.813480       -22.1359
  32   2.0000      -0.787300       -21.4235
  33   2.0000      -0.772595       -21.0234
  34   2.0000      -0.709437       -19.3048
  35   2.0000      -0.705648       -19.2017
  36   2.0000      -0.700048       -19.0493
  37   2.0000      -0.656544       -17.8655
  38   2.0000      -0.640705       -17.4345
  39   2.0000      -0.617547       -16.8043
  40   2.0000      -0.596600       -16.2343
  41   2.0000      -0.572573       -15.5805
  42   2.0000      -0.569846       -15.5063
  43   2.0000      -0.544688       -14.8217
  44   2.0000      -0.537437       -14.6244
  45   2.0000      -0.531193       -14.4545
  46   2.0000      -0.519017       -14.1232
  47   2.0000      -0.510647       -13.8954
  48   2.0000      -0.507222       -13.8022
  49   2.0000      -0.499198       -13.5839
  50   2.0000      -0.493688       -13.4339
  51   2.0000      -0.486211       -13.2305
  52   2.0000      -0.467287       -12.7155
  53   2.0000      -0.462336       -12.5808
  54   2.0000      -0.459156       -12.4943
  55   2.0000      -0.448381       -12.2011
  56   2.0000      -0.444956       -12.1079
  57   2.0000      -0.440094       -11.9756
  58   2.0000      -0.433052       -11.7839
  59   2.0000      -0.423700       -11.5295
  60   2.0000      -0.418713       -11.3938
  61   2.0000      -0.415107       -11.2956
  62   2.0000      -0.403952       -10.9921
  63   2.0000      -0.335378        -9.1261
  64   2.0000      -0.328994        -8.9524
  65   2.0000      -0.324330        -8.8255
  66   2.0000      -0.305595        -8.3157
  67   0.0000       0.034349         0.9347
  68   0.0000       0.058752         1.5987
  69   0.0000       0.112382         3.0581
  70   0.0000       0.115865         3.1528
  71   0.0000       0.129515         3.5243

MULLIKEN ATOMIC CHARGES
-----------------------
   0 S :    0.106136
   1 C :   -0.127977
   2 C :   -0.108703
   3 C :    0.027387
   4 C :   -0.124941
   5 H :    0.004144
   6 C :    0.068220
   7 H :    0.031007
   8 H :   -0.006579
   9 C :   -0.005837
  10 H :    0.006895
  11 H :    0.025724
  12 C :   -0.048931
  13 H :    0.051229
  14 H :    0.013587
  15 H :    0.012952
  16 S :    0.125917
  17 C :   -0.078998
  18 C :   -0.051948
  19 C :    0.002096
  20 C :   -0.228647
  21 H :    0.013051
  22 C :    0.047672
  23 H :    0.043771
  24 H :    0.029403
  25 C :   -0.067998
  26 H :    0.031655
  27 H :    0.013981
  28 C :   -0.020331
  29 H :    0.022519
  30 H :    0.041431
  31 H :    0.024409
  32 H :    0.075237
  33 H :    0.052467
Sum of atomic charges:   -0.0000000

LOEWDIN ATOMIC CHARGES
----------------------
   0 S :    0.392944
   1 C :   -0.204150
   2 C :   -0.068607
   3 C :   -0.053654
   4 C :   -0.203123
   5 H :    0.023447
   6 C :   -0.032403
   7 H :    0.030368
   8 H :    0.027399
   9 C :   -0.025701
  10 H :    0.014637
  11 H :    0.023310
  12 C :   -0.069693
  13 H :    0.037222
  14 H :    0.022692
  15 H :    0.015935
  16 S :    0.416137
  17 C :   -0.191626
  18 C :   -0.068446
  19 C :   -0.043904
  20 C :   -0.199908
  21 H :    0.025402
  22 C :   -0.042229
  23 H :    0.036952
  24 H :    0.034900
  25 C :   -0.032231
  26 H :    0.025300
  27 H :    0.016071
  28 C :   -0.056057
  29 H :    0.021023
  30 H :    0.037790
  31 H :    0.013771
  32 H :    0.046868
  33 H :    0.029562

  Mayer bond orders larger than 0.100000
B(  0-S ,  1-C ) :   1.1270 B(  0-S ,  4-C ) :   1.1295 B(  1-C ,  2-C ) :   1.6569
B(  1-C , 32-H ) :   0.9498 B(  2-C ,  3-C ) :   1.2050 B(  2-C ,  6-C ) :   1.0231
B(  3-C ,  4-C ) :   1.5774 B(  3-C ,  5-H ) :   1.0026 B(  4-C , 20-C ) :   1.0592
B(  6-C ,  7-H ) :   0.9481 B(  6-C ,  8-H ) :   0.9288 B(  6-C ,  9-C ) :   1.0583
B(  9-C , 10-H ) :   0.9520 B(  9-C , 11-H ) :   0.9574 B(  9-C , 12-C ) :   1.0772
B( 12-C , 13-H ) :   0.9723 B( 12-C , 14-H ) :   0.9690 B( 12-C , 15-H ) :   0.9700
B( 16-S , 17-C ) :   1.1530 B( 16-S , 20-C ) :   1.1583 B( 17-C , 18-C ) :   1.6122
B( 17-C , 20-C ) :   0.1058 B( 17-C , 33-H ) :   0.9662 B( 18-C , 19-C ) :   1.2448
B( 18-C , 21-H ) :   0.9853 B( 19-C , 20-C ) :   1.5640 B( 19-C , 22-C ) :   1.0431
B( 22-C , 23-H ) :   0.9440 B( 22-C , 24-H ) :   0.9150 B( 22-C , 25-C ) :   1.0489
B( 25-C , 26-H ) :   0.9564 B( 25-C , 27-H ) :   0.9611 B( 25-C , 28-C ) :   1.0830
B( 28-C , 29-H ) :   0.9747 B( 28-C , 30-H ) :   0.9742 B( 28-C , 31-H ) :   0.9778

Dispersion correction           -0.015353790
FINAL SINGLE POINT ENERGY     -1339.849525244871

DIPOLE MOMENT
-------------
                                X             Y             Z
Electronic contribution:    -13.53693     -25.03533       6.26649
Nuclear contribution   :     13.79269      25.75811      -6.26701
                        -----------------------------------------
Total Dipole Moment    :      0.25576       0.72278      -0.00052
                        -----------------------------------------
Magnitude (a.u.)       :      0.76670
Magnitude (Debye)      :      1.94879

Rotational constants in cm-1:     0.016266     0.010310     0.007557
Rotational constants in MHz :   487.650857   309.073601   226.557482

                             ****ORCA TERMINATED NORMALLY****
TOTAL RUN TIME: 0 days 0 hours 0 minutes 22 seconds 555 msec
