                         Program Version 4.2.1 -  RELEASE  -
|  1> ! wB97X-D3 SP def2-SVP
|  2> %pal
|  3> nprocs 24
|  4> end
|  5>
|  6> * xyz 0 1
|  7> S 	 -59.6367 	 13.6558 	 -92.7662
|  8> C 	 -58.0313 	 14.3476 	 -92.4766
|  9> C 	 -57.4674 	 14.723 	 -93.6599
| 10> C 	 -58.434 	 14.579 	 -94.7595
| 11> C 	 -59.6519 	 13.9651 	 -94.4816
| 12> H 	 -58.23 	 14.8305 	 -95.783
| 13> C 	 -56.057 	 15.1999 	 -94.0097
| 14> H 	 -55.808 	 15.0556 	 -95.0728
| 15> H 	 -55.4673 	 14.5031 	 -93.4876
| 16> C 	 -55.6725 	 16.6271 	 -93.6022
| 17> H 	 -55.6036 	 16.517 	 -92.5888
| 18> H 	 -54.6845 	 16.9062 	 -93.9604
| 19> C 	 -56.6156 	 17.7521 	 -93.969
| 20> H 	 -56.2839 	 18.7313 	 -93.5612
| 21> H 	 -56.8722 	 17.9018 	 -94.9503
| 22> H 	 -57.5636 	 17.581 	 -93.4767
| 23> S 	 -60.8215 	 15.0893 	 -96.7207
| 24> C 	 -62.236 	 14.4413 	 -97.3796
| 25> C 	 -62.8344 	 13.5503 	 -96.4682
| 26> C 	 -61.9601 	 13.1158 	 -95.4197
| 27> C 	 -60.7553 	 13.8315 	 -95.4194
| 28> H 	 -63.8745 	 13.2067 	 -96.6683
| 29> C 	 -62.2863 	 12.112 	 -94.3067
| 30> H 	 -62.1281 	 12.5542 	 -93.2541
| 31> H 	 -61.5755 	 11.3041 	 -94.4308
| 32> C 	 -63.5843 	 11.2863 	 -94.287
| 33> H 	 -63.4978 	 10.7894 	 -95.2468
| 34> H 	 -64.4104 	 11.9982 	 -94.4882
| 35> C 	 -63.6328 	 10.2821 	 -93.087
| 36> H 	 -64.0064 	 10.744 	 -92.1643
| 37> H 	 -62.6636 	 9.7586 	 -92.8251
| 38> H 	 -64.3746 	 9.48973 	 -93.3106
| 39> H 	 -57.5584 	 14.4809 	 -91.5373
| 40> H 	 -62.8015 	 14.7352 	 -98.1749
| 41> *
| 42>
| 43>                          ****END OF INPUT****

CARTESIAN COORDINATES (ANGSTROEM)
---------------------------------
  S    -59.636700   13.655800  -92.766200
  C    -58.031300   14.347600  -92.476600
  C    -57.467400   14.723000  -93.659900
  C    -58.434000   14.579000  -94.759500
  C    -59.651900   13.965100  -94.481600
  H    -58.230000   14.830500  -95.783000
  C    -56.057000   15.199900  -94.009700
  H    -55.808000   15.055600  -95.072800
  H    -55.467300   14.503100  -93.487600
  C    -55.672500   16.627100  -93.602200
  H    -55.603600   16.517000  -92.588800
  H    -54.684500   16.906200  -93.960400
  C    -56.615600   17.752100  -93.969000
  H    -56.283900   18.731300  -93.561200
  H    -56.872200   17.901800  -94.950300
  H    -57.563600   17.581000  -93.476700
  S    -60.821500   15.089300  -96.720700
  C    -62.236000   14.441300  -97.379600
  C    -62.834400   13.550300  -96.468200
  C    -61.960100   13.115800  -95.419700
  C    -60.755300   13.831500  -95.419400
  H    -63.874500   13.206700  -96.668300
  C    -62.286300   12.112000  -94.306700
  H    -62.128100   12.554200  -93.254100
  H    -61.575500   11.304100  -94.430800
  C    -63.584300   11.286300  -94.287000
  H    -63.497800   10.789400  -95.246800
  H    -64.410400   11.998200  -94.488200
  C    -63.632800   10.282100  -93.087000
  H    -64.006400   10.744000  -92.164300
  H    -62.663600    9.758600  -92.825100
  H    -64.374600    9.489730  -93.310600
  H    -57.558400   14.480900  -91.537300
  H    -62.801500   14.735200  -98.174900

 Total Charge           Charge          ....    0
 Multiplicity           Mult            ....    1
 Number of Electrons    NEL             ....  134
 Basis Dimension        Dim             ....  322

ORBITAL ENERGIES
----------------

  NO   OCC          E(Eh)            E(eV)
   0   2.0000     -88.969391     -2420.9802
   1   2.0000     -88.965360     -2420.8705
   2   2.0000     -10.334500      -281.2160
   3   2.0000     -10.332273      -281.1554
   4   2.0000     -10.315251      -280.6923
   5   2.0000     -10.312829      -280.6263
   6   2.0000     -10.312140      -280.6076
   7   2.0000     -10.304961      -280.4122
   8   2.0000     -10.300743      -280.2975
   9   2.0000     -10.296029      -280.1692
  10   2.0000     -10.292795      -280.0812
  11   2.0000     -10.292671      -280.0778
  12   2.0000     -10.290735      -280.0251
  13   2.0000     -10.289763      -279.9987
  14   2.0000     -10.277900      -279.6759
  15   2.0000     -10.266113      -279.3551
  16   2.0000      -8.083850      -219.9727
  17   2.0000      -8.079240      -219.8473
  18   2.0000      -6.042323      -164.4200
  19   2.0000      -6.038415      -164.3136
  20   2.0000      -6.038052      -164.3038
  21   2.0000      -6.034631      -164.2107
  22   2.0000      -6.033777      -164.1874
  23   2.0000      -6.029791      -164.0790
  24   2.0000      -1.004810       -27.3423
  25   2.0000      -0.983395       -26.7595
  26   2.0000      -0.914095       -24.8738
  27   2.0000      -0.907431       -24.6924
  28   2.0000      -0.873106       -23.7584
  29   2.0000      -0.850001       -23.1297
  30   2.0000      -0.841614       -22.9015
  31   2.0000      -0.809061       -22.0157
  32   2.0000      -0.787487       -21.4286
  33   2.0000      -0.778405       -21.1815
  34   2.0000      -0.711736       -19.3673
  35   2.0000      -0.706914       -19.2361
  36   2.0000      -0.701663       -19.0932
  37   2.0000      -0.656627       -17.8677
  38   2.0000      -0.633504       -17.2385
  39   2.0000      -0.609121       -16.5750
  40   2.0000      -0.596911       -16.2428
  41   2.0000      -0.578690       -15.7469
  42   2.0000      -0.565066       -15.3762
  43   2.0000      -0.556459       -15.1420
  44   2.0000      -0.544786       -14.8244
  45   2.0000      -0.518386       -14.1060
  46   2.0000      -0.516278       -14.0486
  47   2.0000      -0.510576       -13.8935
  48   2.0000      -0.505275       -13.7492
  49   2.0000      -0.500643       -13.6232
  50   2.0000      -0.490389       -13.3442
  51   2.0000      -0.483483       -13.1562
  52   2.0000      -0.478906       -13.0317
  53   2.0000      -0.471232       -12.8229
  54   2.0000      -0.462380       -12.5820
  55   2.0000      -0.450072       -12.2471
  56   2.0000      -0.443092       -12.0571
  57   2.0000      -0.432513       -11.7693
  58   2.0000      -0.425033       -11.5657
  59   2.0000      -0.420040       -11.4299
  60   2.0000      -0.418635       -11.3916
  61   2.0000      -0.414537       -11.2801
  62   2.0000      -0.403720       -10.9858
  63   2.0000      -0.359745        -9.7892
  64   2.0000      -0.331313        -9.0155
  65   2.0000      -0.325259        -8.8507
  66   2.0000      -0.283881        -7.7248
  67   0.0000       0.016447         0.4475
  68   0.0000       0.080063         2.1786
  69   0.0000       0.100688         2.7399
  70   0.0000       0.117803         3.2056
  71   0.0000       0.129641         3.5277

MULLIKEN ATOMIC CHARGES
-----------------------
   0 S :    0.084120
   1 C :   -0.107222
   2 C :   -0.089876
   3 C :   -0.032007
   4 C :   -0.096512
   5 H :    0.006948
   6 C :    0.091449
   7 H :    0.027804
   8 H :    0.018963
   9 C :   -0.031018
  10 H :    0.001037
  11 H :    0.025505
  12 C :   -0.026189
  13 H :    0.029006
  14 H :    0.014039
  15 H :    0.025827
  16 S :    0.105142
  17 C :   -0.025745
  18 C :   -0.100346
  19 C :   -0.010449
  20 C :   -0.129844
  21 H :    0.034285
  22 C :   -0.027088
  23 H :    0.059848
  24 H :    0.037031
  25 C :   -0.071993
  26 H :    0.022586
  27 H :    0.034259
  28 C :   -0.061584
  29 H :    0.043247
  30 H :    0.050310
  31 H :    0.041348
  32 H :    0.035894
  33 H :    0.021224
Sum of atomic charges:    0.0000000

LOEWDIN ATOMIC CHARGES
----------------------
   0 S :    0.402277
   1 C :   -0.187138
   2 C :   -0.056911
   3 C :   -0.073929
   4 C :   -0.197011
   5 H :    0.016503
   6 C :   -0.024337
   7 H :    0.032024
   8 H :    0.027934
   9 C :   -0.032554
  10 H :    0.012261
  11 H :    0.025118
  12 C :   -0.061103
  13 H :    0.031827
  14 H :    0.012193
  15 H :    0.027012
  16 S :    0.424801
  17 C :   -0.190427
  18 C :   -0.079208
  19 C :   -0.055048
  20 C :   -0.172378
  21 H :    0.035277
  22 C :   -0.049968
  23 H :    0.030501
  24 H :    0.033981
  25 C :   -0.047775
  26 H :    0.022409
  27 H :    0.024426
  28 C :   -0.069322
  29 H :    0.029381
  30 H :    0.037347
  31 H :    0.032333
  32 H :    0.025178
  33 H :    0.014328

  Mayer bond orders larger than 0.100000
B(  0-S ,  1-C ) :   1.1222 B(  0-S ,  4-C ) :   1.1216 B(  1-C ,  2-C ) :   1.6249
B(  1-C , 32-H ) :   0.9749 B(  2-C ,  3-C ) :   1.2298 B(  2-C ,  6-C ) :   0.9981
B(  3-C ,  4-C ) :   1.5604 B(  3-C ,  5-H ) :   0.9913 B(  4-C , 20-C ) :   1.1075
B(  6-C ,  7-H ) :   0.9469 B(  6-C ,  8-H ) :   0.9401 B(  6-C ,  9-C ) :   1.0718
B(  9-C , 10-H ) :   0.9550 B(  9-C , 11-H ) :   0.9559 B(  9-C , 12-C ) :   1.0871
B( 12-C , 13-H ) :   0.9721 B( 12-C , 14-H ) :   0.9782 B( 12-C , 15-H ) :   0.9664
B( 16-S , 17-C ) :   1.1762 B( 16-S , 20-C ) :   1.1323 B( 17-C , 18-C ) :   1.5803
B( 17-C , 20-C ) :   0.1022 B( 17-C , 33-H ) :   0.9726 B( 18-C , 19-C ) :   1.2679
B( 18-C , 21-H ) :   0.9792 B( 19-C , 20-C ) :   1.5570 B( 19-C , 22-C ) :   1.0180
B( 22-C , 23-H ) :   0.9369 B( 22-C , 24-H ) :   0.9386 B( 22-C , 25-C ) :   1.0656
B( 25-C , 26-H ) :   0.9595 B( 25-C , 27-H ) :   0.9544 B( 25-C , 28-C ) :   1.0630
B( 28-C , 29-H ) :   0.9758 B( 28-C , 30-H ) :   0.9742 B( 28-C , 31-H ) :   0.9752

Dispersion correction           -0.013734226
FINAL SINGLE POINT ENERGY     -1339.848967726176

DIPOLE MOMENT
-------------
                                X             Y             Z
Electronic contribution:     -2.63802       2.22130      -6.53808
Nuclear contribution   :      2.62973      -2.27033       6.56536
                        -----------------------------------------
Total Dipole Moment    :     -0.00830      -0.04903       0.02728
                        -----------------------------------------
Magnitude (a.u.)       :      0.05672
Magnitude (Debye)      :      0.14417

Rotational constants in cm-1:     0.022589     0.007663     0.005958
Rotational constants in MHz :   677.211492   229.718741   178.605654

                             ****ORCA TERMINATED NORMALLY****
TOTAL RUN TIME: 0 days 0 hours 0 minutes 20 seconds 799 msec
