                         Program Version 4.2.1 -  RELEASE  -
|  1> ! wB97X-D3 SP def2-SVP
|  2> %pal
|  3> nprocs 24
|  4> end
|  5>
|  6> * xyz 0 1
|  7> S 	 -50.7625 	 17.9117 	 -99.1803
|  8> C 	 -52.4314 	 17.29 	 -98.9525
|  9> C 	 -53.2573 	 17.5439 	 -100.046
| 10> C 	 -52.5678 	 18.3788 	 -100.995
| 11> C 	 -51.2232 	 18.7014 	 -100.718
| 12> H 	 -52.9763 	 18.7093 	 -101.988
| 13> C 	 -54.7377 	 17.3354 	 -100.145
| 14> H 	 -54.7179 	 16.3464 	 -99.5545
| 15> H 	 -55.0119 	 17.2018 	 -101.221
| 16> C 	 -55.6797 	 18.4 	 -99.5379
| 17> H 	 -55.3202 	 19.2966 	 -100.004
| 18> H 	 -56.6687 	 18.3201 	 -99.8927
| 19> C 	 -55.5227 	 18.6819 	 -98.0139
| 20> H 	 -55.8298 	 17.7801 	 -97.3993
| 21> H 	 -54.5677 	 19.0805 	 -97.6713
| 22> H 	 -56.2209 	 19.4168 	 -97.7145
| 23> S 	 -48.8446 	 20.082 	 -100.826
| 24> C 	 -48.1909 	 20.6065 	 -102.351
| 25> C 	 -49.0879 	 20.4858 	 -103.373
| 26> C 	 -50.3251 	 19.8751 	 -102.932
| 27> C 	 -50.2742 	 19.3464 	 -101.617
| 28> H 	 -48.8281 	 20.8072 	 -104.428
| 29> C 	 -51.3252 	 19.4106 	 -104.004
| 30> H 	 -52.0897 	 20.1558 	 -104.026
| 31> H 	 -51.8144 	 18.4655 	 -103.673
| 32> C 	 -50.8684 	 19.1782 	 -105.507
| 33> H 	 -51.5229 	 18.429 	 -105.999
| 34> H 	 -49.9293 	 18.6517 	 -105.443
| 35> C 	 -50.7429 	 20.4801 	 -106.466
| 36> H 	 -49.8685 	 21.1215 	 -106.475
| 37> H 	 -51.567 	 21.2049 	 -106.372
| 38> H 	 -50.8668 	 20.1277 	 -107.471
| 39> H 	 -52.7925 	 16.8551 	 -98.0604
| 40> H 	 -47.2224 	 20.9677 	 -102.502
| 41> *
| 42>
| 43>                          ****END OF INPUT****

CARTESIAN COORDINATES (ANGSTROEM)
---------------------------------
  S    -50.762500   17.911700  -99.180300
  C    -52.431400   17.290000  -98.952500
  C    -53.257300   17.543900  -100.046000
  C    -52.567800   18.378800  -100.995000
  C    -51.223200   18.701400  -100.718000
  H    -52.976300   18.709300  -101.988000
  C    -54.737700   17.335400  -100.145000
  H    -54.717900   16.346400  -99.554500
  H    -55.011900   17.201800  -101.221000
  C    -55.679700   18.400000  -99.537900
  H    -55.320200   19.296600  -100.004000
  H    -56.668700   18.320100  -99.892700
  C    -55.522700   18.681900  -98.013900
  H    -55.829800   17.780100  -97.399300
  H    -54.567700   19.080500  -97.671300
  H    -56.220900   19.416800  -97.714500
  S    -48.844600   20.082000  -100.826000
  C    -48.190900   20.606500  -102.351000
  C    -49.087900   20.485800  -103.373000
  C    -50.325100   19.875100  -102.932000
  C    -50.274200   19.346400  -101.617000
  H    -48.828100   20.807200  -104.428000
  C    -51.325200   19.410600  -104.004000
  H    -52.089700   20.155800  -104.026000
  H    -51.814400   18.465500  -103.673000
  C    -50.868400   19.178200  -105.507000
  H    -51.522900   18.429000  -105.999000
  H    -49.929300   18.651700  -105.443000
  C    -50.742900   20.480100  -106.466000
  H    -49.868500   21.121500  -106.475000
  H    -51.567000   21.204900  -106.372000
  H    -50.866800   20.127700  -107.471000
  H    -52.792500   16.855100  -98.060400
  H    -47.222400   20.967700  -102.502000

 Total Charge           Charge          ....    0
 Multiplicity           Mult            ....    1
 Number of Electrons    NEL             ....  134
 Basis Dimension        Dim             ....  322

ORBITAL ENERGIES
----------------

  NO   OCC          E(Eh)            E(eV)
   0   2.0000     -88.970496     -2421.0103
   1   2.0000     -88.962858     -2420.8024
   2   2.0000     -10.338505      -281.3250
   3   2.0000     -10.336759      -281.2775
   4   2.0000     -10.319383      -280.8047
   5   2.0000     -10.313364      -280.6409
   6   2.0000     -10.313065      -280.6328
   7   2.0000     -10.304672      -280.4044
   8   2.0000     -10.302934      -280.3571
   9   2.0000     -10.302268      -280.3390
  10   2.0000     -10.299823      -280.2724
  11   2.0000     -10.299793      -280.2716
  12   2.0000     -10.297388      -280.2062
  13   2.0000     -10.288046      -279.9520
  14   2.0000     -10.287156      -279.9277
  15   2.0000     -10.281085      -279.7626
  16   2.0000      -8.083533      -219.9641
  17   2.0000      -8.077456      -219.7988
  18   2.0000      -6.042304      -164.4194
  19   2.0000      -6.038313      -164.3109
  20   2.0000      -6.036033      -164.2488
  21   2.0000      -6.034071      -164.1954
  22   2.0000      -6.032078      -164.1412
  23   2.0000      -6.028066      -164.0320
  24   2.0000      -0.999322       -27.1929
  25   2.0000      -0.977390       -26.5961
  26   2.0000      -0.910490       -24.7757
  27   2.0000      -0.896344       -24.3908
  28   2.0000      -0.868526       -23.6338
  29   2.0000      -0.846442       -23.0328
  30   2.0000      -0.837838       -22.7987
  31   2.0000      -0.812309       -22.1041
  32   2.0000      -0.784722       -21.3534
  33   2.0000      -0.777343       -21.1526
  34   2.0000      -0.717649       -19.5282
  35   2.0000      -0.706803       -19.2331
  36   2.0000      -0.701133       -19.0788
  37   2.0000      -0.655351       -17.8330
  38   2.0000      -0.634363       -17.2619
  39   2.0000      -0.614497       -16.7213
  40   2.0000      -0.593845       -16.1593
  41   2.0000      -0.565706       -15.3936
  42   2.0000      -0.549649       -14.9567
  43   2.0000      -0.545894       -14.8545
  44   2.0000      -0.541532       -14.7358
  45   2.0000      -0.529840       -14.4177
  46   2.0000      -0.517267       -14.0756
  47   2.0000      -0.508580       -13.8392
  48   2.0000      -0.505719       -13.7613
  49   2.0000      -0.491335       -13.3699
  50   2.0000      -0.487078       -13.2541
  51   2.0000      -0.481377       -13.0989
  52   2.0000      -0.474368       -12.9082
  53   2.0000      -0.465408       -12.6644
  54   2.0000      -0.456550       -12.4234
  55   2.0000      -0.447657       -12.1814
  56   2.0000      -0.446401       -12.1472
  57   2.0000      -0.438751       -11.9390
  58   2.0000      -0.437529       -11.9058
  59   2.0000      -0.430515       -11.7149
  60   2.0000      -0.415502       -11.3064
  61   2.0000      -0.411703       -11.2030
  62   2.0000      -0.405229       -11.0268
  63   2.0000      -0.360585        -9.8120
  64   2.0000      -0.332232        -9.0405
  65   2.0000      -0.327870        -8.9218
  66   2.0000      -0.281735        -7.6664
  67   0.0000       0.011717         0.3188
  68   0.0000       0.081646         2.2217
  69   0.0000       0.093107         2.5336
  70   0.0000       0.113280         3.0825
  71   0.0000       0.137488         3.7412

MULLIKEN ATOMIC CHARGES
-----------------------
   0 S :    0.099845
   1 C :   -0.107151
   2 C :   -0.077942
   3 C :   -0.037986
   4 C :   -0.093160
   5 H :    0.022989
   6 C :    0.011357
   7 H :    0.037512
   8 H :    0.039044
   9 C :   -0.007514
  10 H :    0.014247
  11 H :    0.026941
  12 C :   -0.067857
  13 H :    0.032978
  14 H :    0.049438
  15 H :    0.022100
  16 S :    0.073514
  17 C :   -0.044368
  18 C :   -0.057159
  19 C :   -0.033946
  20 C :   -0.130774
  21 H :    0.040994
  22 C :    0.007815
  23 H :    0.030169
  24 H :    0.048403
  25 C :   -0.071816
  26 H :    0.039924
  27 H :    0.035787
  28 C :   -0.068175
  29 H :    0.039025
  30 H :    0.029008
  31 H :    0.027513
  32 H :    0.036218
  33 H :    0.033028
Sum of atomic charges:   -0.0000000

LOEWDIN ATOMIC CHARGES
----------------------
   0 S :    0.374185
   1 C :   -0.172855
   2 C :   -0.067740
   3 C :   -0.072466
   4 C :   -0.184184
   5 H :    0.033859
   6 C :   -0.040342
   7 H :    0.039226
   8 H :    0.037555
   9 C :   -0.034524
  10 H :    0.026165
  11 H :    0.022006
  12 C :   -0.068734
  13 H :    0.028349
  14 H :    0.029690
  15 H :    0.022704
  16 S :    0.382716
  17 C :   -0.172401
  18 C :   -0.077420
  19 C :   -0.053560
  20 C :   -0.178947
  21 H :    0.045737
  22 C :   -0.039737
  23 H :    0.025509
  24 H :    0.035410
  25 C :   -0.036739
  26 H :    0.033932
  27 H :    0.024331
  28 C :   -0.076151
  29 H :    0.021857
  30 H :    0.027608
  31 H :    0.025976
  32 H :    0.019546
  33 H :    0.019439

  Mayer bond orders larger than 0.100000
B(  0-S ,  1-C ) :   1.1287 B(  0-S ,  4-C ) :   1.1190 B(  1-C ,  2-C ) :   1.6068
B(  1-C , 32-H ) :   0.9691 B(  2-C ,  3-C ) :   1.2375 B(  2-C ,  6-C ) :   1.0200
B(  3-C ,  4-C ) :   1.5788 B(  3-C ,  5-H ) :   0.9732 B(  4-C , 20-C ) :   1.0928
B(  6-C ,  7-H ) :   0.9415 B(  6-C ,  8-H ) :   0.9386 B(  6-C ,  9-C ) :   1.0616
B(  9-C , 10-H ) :   0.9466 B(  9-C , 11-H ) :   0.9590 B(  9-C , 12-C ) :   1.0767
B( 12-C , 13-H ) :   0.9762 B( 12-C , 14-H ) :   0.9728 B( 12-C , 15-H ) :   0.9713
B( 16-S , 17-C ) :   1.1513 B( 16-S , 20-C ) :   1.1166 B( 17-C , 18-C ) :   1.6297
B( 17-C , 33-H ) :   0.9704 B( 18-C , 19-C ) :   1.2350 B( 18-C , 21-H ) :   0.9734
B( 19-C , 20-C ) :   1.5763 B( 19-C , 22-C ) :   1.0276 B( 22-C , 23-H ) :   0.9268
B( 22-C , 24-H ) :   0.9453 B( 22-C , 25-C ) :   1.0638 B( 25-C , 26-H ) :   0.9612
B( 25-C , 27-H ) :   0.9568 B( 25-C , 28-C ) :   1.0505 B( 28-C , 29-H ) :   0.9791
B( 28-C , 30-H ) :   0.9770 B( 28-C , 31-H ) :   0.9766

Dispersion correction           -0.013972180
FINAL SINGLE POINT ENERGY     -1339.848450641866

DIPOLE MOMENT
-------------
                                X             Y             Z
Electronic contribution:     20.76304      -0.96101      14.18470
Nuclear contribution   :    -21.30141       1.06074     -14.80786
                        -----------------------------------------
Total Dipole Moment    :     -0.53837       0.09973      -0.62316
                        -----------------------------------------
Magnitude (a.u.)       :      0.82953
Magnitude (Debye)      :      2.10849

Rotational constants in cm-1:     0.020031     0.007739     0.006042
Rotational constants in MHz :   600.517953   232.021854   181.144546

                             ****ORCA TERMINATED NORMALLY****
TOTAL RUN TIME: 0 days 0 hours 0 minutes 21 seconds 271 msec
