                         Program Version 4.2.1 -  RELEASE  -
|  1> ! wB97X-D3 SP def2-SVP
|  2> %pal
|  3> nprocs 24
|  4> end
|  5>
|  6> * xyz 0 1
|  7> S 	 -42.9183 	 -46.804 	 -78.3566
|  8> C 	 -41.7612 	 -46.8881 	 -79.6602
|  9> C 	 -41.3522 	 -48.1921 	 -79.8613
| 10> C 	 -42.0273 	 -49.1448 	 -79.0796
| 11> C 	 -42.9461 	 -48.6176 	 -78.2764
| 12> H 	 -41.9302 	 -50.2494 	 -79.0576
| 13> C 	 -40.2148 	 -48.7134 	 -80.7345
| 14> H 	 -40.4319 	 -49.7517 	 -80.9206
| 15> H 	 -39.3237 	 -48.6993 	 -80.0428
| 16> C 	 -39.8754 	 -47.9709 	 -82.0542
| 17> H 	 -40.836 	 -48.0814 	 -82.7001
| 18> H 	 -39.7349 	 -46.9345 	 -81.7893
| 19> C 	 -38.5939 	 -48.5611 	 -82.5746
| 20> H 	 -38.1507 	 -47.9508 	 -83.3388
| 21> H 	 -37.8502 	 -48.5713 	 -81.7811
| 22> H 	 -38.6836 	 -49.526 	 -83.0004
| 23> S 	 -43.8305 	 -48.5414 	 -75.5872
| 24> C 	 -44.8067 	 -49.8402 	 -74.9793
| 25> C 	 -44.9809 	 -50.8199 	 -75.9225
| 26> C 	 -44.4739 	 -50.5327 	 -77.2282
| 27> C 	 -43.8643 	 -49.2319 	 -77.2866
| 28> H 	 -45.4827 	 -51.6912 	 -75.5022
| 29> C 	 -44.4102 	 -51.5648 	 -78.3158
| 30> H 	 -44.903 	 -52.4527 	 -77.9973
| 31> H 	 -43.3761 	 -51.8761 	 -78.5064
| 32> C 	 -45.096 	 -51.1326 	 -79.6459
| 33> H 	 -44.9555 	 -51.9137 	 -80.3241
| 34> H 	 -44.5568 	 -50.2258 	 -79.9977
| 35> C 	 -46.6061 	 -50.925 	 -79.4974
| 36> H 	 -46.8386 	 -50.3554 	 -78.6328
| 37> H 	 -47.152 	 -51.9134 	 -79.2656
| 38> H 	 -46.9392 	 -50.3233 	 -80.3432
| 39> H 	 -41.426 	 -46.0989 	 -80.3284
| 40> H 	 -45.0419 	 -49.9191 	 -73.9168
| 41> *
| 42>
| 43>                          ****END OF INPUT****

CARTESIAN COORDINATES (ANGSTROEM)
---------------------------------
  S    -42.918300  -46.804000  -78.356600
  C    -41.761200  -46.888100  -79.660200
  C    -41.352200  -48.192100  -79.861300
  C    -42.027300  -49.144800  -79.079600
  C    -42.946100  -48.617600  -78.276400
  H    -41.930200  -50.249400  -79.057600
  C    -40.214800  -48.713400  -80.734500
  H    -40.431900  -49.751700  -80.920600
  H    -39.323700  -48.699300  -80.042800
  C    -39.875400  -47.970900  -82.054200
  H    -40.836000  -48.081400  -82.700100
  H    -39.734900  -46.934500  -81.789300
  C    -38.593900  -48.561100  -82.574600
  H    -38.150700  -47.950800  -83.338800
  H    -37.850200  -48.571300  -81.781100
  H    -38.683600  -49.526000  -83.000400
  S    -43.830500  -48.541400  -75.587200
  C    -44.806700  -49.840200  -74.979300
  C    -44.980900  -50.819900  -75.922500
  C    -44.473900  -50.532700  -77.228200
  C    -43.864300  -49.231900  -77.286600
  H    -45.482700  -51.691200  -75.502200
  C    -44.410200  -51.564800  -78.315800
  H    -44.903000  -52.452700  -77.997300
  H    -43.376100  -51.876100  -78.506400
  C    -45.096000  -51.132600  -79.645900
  H    -44.955500  -51.913700  -80.324100
  H    -44.556800  -50.225800  -79.997700
  C    -46.606100  -50.925000  -79.497400
  H    -46.838600  -50.355400  -78.632800
  H    -47.152000  -51.913400  -79.265600
  H    -46.939200  -50.323300  -80.343200
  H    -41.426000  -46.098900  -80.328400
  H    -45.041900  -49.919100  -73.916800

 Total Charge           Charge          ....    0
 Multiplicity           Mult            ....    1
 Number of Electrons    NEL             ....  134
 Basis Dimension        Dim             ....  322

ORBITAL ENERGIES
----------------

  NO   OCC          E(Eh)            E(eV)
   0   2.0000     -88.965141     -2420.8646
   1   2.0000     -88.963159     -2420.8106
   2   2.0000     -10.338626      -281.3283
   3   2.0000     -10.331989      -281.1477
   4   2.0000     -10.317599      -280.7561
   5   2.0000     -10.313447      -280.6432
   6   2.0000     -10.313417      -280.6423
   7   2.0000     -10.298119      -280.2261
   8   2.0000     -10.295149      -280.1453
   9   2.0000     -10.295110      -280.1442
  10   2.0000     -10.292881      -280.0835
  11   2.0000     -10.291371      -280.0424
  12   2.0000     -10.291332      -280.0414
  13   2.0000     -10.281260      -279.7673
  14   2.0000     -10.275284      -279.6047
  15   2.0000     -10.274839      -279.5926
  16   2.0000      -8.078978      -219.8402
  17   2.0000      -8.077181      -219.7913
  18   2.0000      -6.037532      -164.2896
  19   2.0000      -6.035820      -164.2430
  20   2.0000      -6.033613      -164.1829
  21   2.0000      -6.031921      -164.1369
  22   2.0000      -6.029729      -164.0773
  23   2.0000      -6.027713      -164.0224
  24   2.0000      -1.002183       -27.2708
  25   2.0000      -0.980343       -26.6765
  26   2.0000      -0.912159       -24.8211
  27   2.0000      -0.909548       -24.7501
  28   2.0000      -0.867315       -23.6008
  29   2.0000      -0.854954       -23.2645
  30   2.0000      -0.844393       -22.9771
  31   2.0000      -0.815302       -22.1855
  32   2.0000      -0.782629       -21.2964
  33   2.0000      -0.768155       -20.9025
  34   2.0000      -0.714226       -19.4351
  35   2.0000      -0.704789       -19.1783
  36   2.0000      -0.684704       -18.6317
  37   2.0000      -0.657885       -17.9020
  38   2.0000      -0.638393       -17.3715
  39   2.0000      -0.613517       -16.6946
  40   2.0000      -0.591300       -16.0901
  41   2.0000      -0.575465       -15.6592
  42   2.0000      -0.565850       -15.3976
  43   2.0000      -0.555014       -15.1027
  44   2.0000      -0.546205       -14.8630
  45   2.0000      -0.520992       -14.1769
  46   2.0000      -0.516552       -14.0561
  47   2.0000      -0.511202       -13.9105
  48   2.0000      -0.501541       -13.6476
  49   2.0000      -0.496709       -13.5161
  50   2.0000      -0.489663       -13.3244
  51   2.0000      -0.485740       -13.2177
  52   2.0000      -0.476632       -12.9698
  53   2.0000      -0.464697       -12.6451
  54   2.0000      -0.458658       -12.4807
  55   2.0000      -0.447658       -12.1814
  56   2.0000      -0.434922       -11.8348
  57   2.0000      -0.431130       -11.7316
  58   2.0000      -0.430479       -11.7139
  59   2.0000      -0.425649       -11.5825
  60   2.0000      -0.422236       -11.4896
  61   2.0000      -0.416123       -11.3233
  62   2.0000      -0.414390       -11.2761
  63   2.0000      -0.354842        -9.6557
  64   2.0000      -0.331215        -9.0128
  65   2.0000      -0.328636        -8.9426
  66   2.0000      -0.285858        -7.7786
  67   0.0000       0.021802         0.5933
  68   0.0000       0.064503         1.7552
  69   0.0000       0.102379         2.7859
  70   0.0000       0.116938         3.1820
  71   0.0000       0.131875         3.5885

MULLIKEN ATOMIC CHARGES
-----------------------
   0 S :    0.090120
   1 C :   -0.114155
   2 C :   -0.076844
   3 C :    0.003124
   4 C :   -0.139307
   5 H :    0.019899
   6 C :    0.008843
   7 H :    0.019496
   8 H :    0.048327
   9 C :   -0.091065
  10 H :    0.053894
  11 H :    0.028298
  12 C :    0.001165
  13 H :    0.022272
  14 H :    0.021151
  15 H :    0.027486
  16 S :    0.085062
  17 C :   -0.101430
  18 C :   -0.048057
  19 C :   -0.031053
  20 C :   -0.118050
  21 H :    0.022923
  22 C :    0.054829
  23 H :   -0.000586
  24 H :    0.040086
  25 C :   -0.059120
  26 H :    0.016196
  27 H :    0.047178
  28 C :   -0.052354
  29 H :    0.026705
  30 H :    0.036041
  31 H :    0.042616
  32 H :    0.049005
  33 H :    0.067308
Sum of atomic charges:   -0.0000000

LOEWDIN ATOMIC CHARGES
----------------------
   0 S :    0.372402
   1 C :   -0.202914
   2 C :   -0.066576
   3 C :   -0.071224
   4 C :   -0.163278
   5 H :    0.041681
   6 C :   -0.035094
   7 H :    0.023267
   8 H :    0.039075
   9 C :   -0.044712
  10 H :    0.037977
  11 H :    0.020091
  12 C :   -0.059044
  13 H :    0.024128
  14 H :    0.027582
  15 H :    0.022651
  16 S :    0.381592
  17 C :   -0.187315
  18 C :   -0.081801
  19 C :   -0.050036
  20 C :   -0.177779
  21 H :    0.035810
  22 C :   -0.031797
  23 H :    0.023678
  24 H :    0.030777
  25 C :   -0.034408
  26 H :    0.014789
  27 H :    0.029001
  28 C :   -0.068751
  29 H :    0.019185
  30 H :    0.034399
  31 H :    0.031295
  32 H :    0.031619
  33 H :    0.033731

  Mayer bond orders larger than 0.100000
B(  0-S ,  1-C ) :   1.1173 B(  0-S ,  4-C ) :   1.1254 B(  1-C ,  2-C ) :   1.6428
B(  1-C , 32-H ) :   0.9654 B(  2-C ,  3-C ) :   1.2101 B(  2-C ,  6-C ) :   1.0034
B(  3-C ,  4-C ) :   1.6291 B(  3-C ,  5-H ) :   0.9837 B(  4-C , 20-C ) :   1.0270
B(  6-C ,  7-H ) :   0.9480 B(  6-C ,  8-H ) :   0.9362 B(  6-C ,  9-C ) :   1.0604
B(  9-C , 10-H ) :   0.9586 B(  9-C , 11-H ) :   0.9482 B(  9-C , 12-C ) :   1.0885
B( 12-C , 13-H ) :   0.9705 B( 12-C , 14-H ) :   0.9696 B( 12-C , 15-H ) :   0.9741
B( 16-S , 17-C ) :   1.1608 B( 16-S , 20-C ) :   1.1372 B( 17-C , 18-C ) :   1.6115
B( 17-C , 20-C ) :   0.1043 B( 17-C , 33-H ) :   0.9629 B( 18-C , 19-C ) :   1.2349
B( 18-C , 21-H ) :   0.9925 B( 19-C , 20-C ) :   1.5546 B( 19-C , 22-C ) :   1.0461
B( 22-C , 23-H ) :   0.9283 B( 22-C , 24-H ) :   0.9332 B( 22-C , 25-C ) :   1.0742
B( 25-C , 26-H ) :   0.9555 B( 25-C , 27-H ) :   0.9548 B( 25-C , 28-C ) :   1.0734
B( 28-C , 29-H ) :   0.9764 B( 28-C , 30-H ) :   0.9713 B( 28-C , 31-H ) :   0.9722

Dispersion correction           -0.014281624
FINAL SINGLE POINT ENERGY     -1339.868346629622

DIPOLE MOMENT
-------------
                                X             Y             Z
Electronic contribution:     -6.05228      12.82952      22.71149
Nuclear contribution   :      6.39456     -13.49507     -23.01403
                        -----------------------------------------
Total Dipole Moment    :      0.34228      -0.66554      -0.30254
                        -----------------------------------------
Magnitude (a.u.)       :      0.80724
Magnitude (Debye)      :      2.05185

Rotational constants in cm-1:     0.021236     0.007779     0.006485
Rotational constants in MHz :   636.627939   233.204214   194.428440

                             ****ORCA TERMINATED NORMALLY****
TOTAL RUN TIME: 0 days 0 hours 0 minutes 21 seconds 559 msec
