                         Program Version 4.2.1 -  RELEASE  -
|  1> ! wB97X-D3 SP def2-SVP
|  2> %pal
|  3> nprocs 24
|  4> end
|  5>
|  6> * xyz 0 1
|  7> S 	 -51.7287 	 6.43088 	 -18.049
|  8> C 	 -50.491 	 7.65252 	 -17.8111
|  9> C 	 -51.0788 	 8.8563 	 -17.8024
| 10> C 	 -52.5308 	 8.80947 	 -17.7885
| 11> C 	 -53.0126 	 7.58051 	 -17.977
| 12> H 	 -53.2312 	 9.64983 	 -17.8663
| 13> C 	 -50.2523 	 10.1551 	 -17.9846
| 14> H 	 -50.0694 	 10.1666 	 -19.0484
| 15> H 	 -49.2508 	 9.95216 	 -17.5612
| 16> C 	 -50.7856 	 11.3553 	 -17.242
| 17> H 	 -50.0725 	 12.142 	 -17.3775
| 18> H 	 -51.8122 	 11.6404 	 -17.6279
| 19> C 	 -51.0156 	 11.0777 	 -15.7865
| 20> H 	 -50.1523 	 10.8263 	 -15.1565
| 21> H 	 -51.4401 	 11.977 	 -15.3742
| 22> H 	 -51.7888 	 10.3364 	 -15.6737
| 23> S 	 -55.1477 	 6.48704 	 -16.7061
| 24> C 	 -56.6205 	 6.26019 	 -17.6247
| 25> C 	 -56.6082 	 6.87132 	 -18.8637
| 26> C 	 -55.2822 	 7.34798 	 -19.2209
| 27> C 	 -54.3823 	 7.23852 	 -18.1483
| 28> H 	 -57.4954 	 6.72619 	 -19.5443
| 29> C 	 -54.9776 	 7.91211 	 -20.5824
| 30> H 	 -54.7371 	 8.95906 	 -20.5822
| 31> H 	 -55.9181 	 7.86592 	 -21.0844
| 32> C 	 -53.8761 	 7.23634 	 -21.33
| 33> H 	 -54.003 	 6.14654 	 -21.4253
| 34> H 	 -52.9832 	 7.28925 	 -20.7142
| 35> C 	 -53.738 	 7.69086 	 -22.8273
| 36> H 	 -54.4494 	 7.19399 	 -23.4921
| 37> H 	 -52.7601 	 7.39444 	 -23.2641
| 38> H 	 -53.8857 	 8.72835 	 -22.8926
| 39> H 	 -49.4661 	 7.35758 	 -17.9155
| 40> H 	 -57.442 	 5.61506 	 -17.4209
| 41> *
| 42>
| 43>                          ****END OF INPUT****

CARTESIAN COORDINATES (ANGSTROEM)
---------------------------------
  S    -51.728700    6.430880  -18.049000
  C    -50.491000    7.652520  -17.811100
  C    -51.078800    8.856300  -17.802400
  C    -52.530800    8.809470  -17.788500
  C    -53.012600    7.580510  -17.977000
  H    -53.231200    9.649830  -17.866300
  C    -50.252300   10.155100  -17.984600
  H    -50.069400   10.166600  -19.048400
  H    -49.250800    9.952160  -17.561200
  C    -50.785600   11.355300  -17.242000
  H    -50.072500   12.142000  -17.377500
  H    -51.812200   11.640400  -17.627900
  C    -51.015600   11.077700  -15.786500
  H    -50.152300   10.826300  -15.156500
  H    -51.440100   11.977000  -15.374200
  H    -51.788800   10.336400  -15.673700
  S    -55.147700    6.487040  -16.706100
  C    -56.620500    6.260190  -17.624700
  C    -56.608200    6.871320  -18.863700
  C    -55.282200    7.347980  -19.220900
  C    -54.382300    7.238520  -18.148300
  H    -57.495400    6.726190  -19.544300
  C    -54.977600    7.912110  -20.582400
  H    -54.737100    8.959060  -20.582200
  H    -55.918100    7.865920  -21.084400
  C    -53.876100    7.236340  -21.330000
  H    -54.003000    6.146540  -21.425300
  H    -52.983200    7.289250  -20.714200
  C    -53.738000    7.690860  -22.827300
  H    -54.449400    7.193990  -23.492100
  H    -52.760100    7.394440  -23.264100
  H    -53.885700    8.728350  -22.892600
  H    -49.466100    7.357580  -17.915500
  H    -57.442000    5.615060  -17.420900

 Total Charge           Charge          ....    0
 Multiplicity           Mult            ....    1
 Number of Electrons    NEL             ....  134
 Basis Dimension        Dim             ....  322

ORBITAL ENERGIES
----------------

  NO   OCC          E(Eh)            E(eV)
   0   2.0000     -88.966035     -2420.8889
   1   2.0000     -88.957275     -2420.6505
   2   2.0000     -10.325696      -280.9765
   3   2.0000     -10.319786      -280.8156
   4   2.0000     -10.314900      -280.6827
   5   2.0000     -10.310216      -280.5553
   6   2.0000     -10.308481      -280.5080
   7   2.0000     -10.300424      -280.2888
   8   2.0000     -10.299118      -280.2532
   9   2.0000     -10.291944      -280.0580
  10   2.0000     -10.291068      -280.0342
  11   2.0000     -10.287361      -279.9333
  12   2.0000     -10.284374      -279.8520
  13   2.0000     -10.280520      -279.7472
  14   2.0000     -10.276966      -279.6505
  15   2.0000     -10.270025      -279.4616
  16   2.0000      -8.080066      -219.8698
  17   2.0000      -8.072904      -219.6749
  18   2.0000      -6.038664      -164.3204
  19   2.0000      -6.034704      -164.2126
  20   2.0000      -6.031462      -164.1244
  21   2.0000      -6.030737      -164.1047
  22   2.0000      -6.027228      -164.0092
  23   2.0000      -6.023588      -163.9102
  24   2.0000      -1.011517       -27.5248
  25   2.0000      -0.981624       -26.7114
  26   2.0000      -0.917254       -24.9597
  27   2.0000      -0.910790       -24.7838
  28   2.0000      -0.877572       -23.8800
  29   2.0000      -0.845986       -23.0204
  30   2.0000      -0.841364       -22.8947
  31   2.0000      -0.818652       -22.2766
  32   2.0000      -0.785928       -21.3862
  33   2.0000      -0.773315       -21.0430
  34   2.0000      -0.714549       -19.4439
  35   2.0000      -0.696875       -18.9629
  36   2.0000      -0.689683       -18.7672
  37   2.0000      -0.656039       -17.8517
  38   2.0000      -0.648001       -17.6330
  39   2.0000      -0.621739       -16.9184
  40   2.0000      -0.598062       -16.2741
  41   2.0000      -0.565692       -15.3932
  42   2.0000      -0.561798       -15.2873
  43   2.0000      -0.556396       -15.1403
  44   2.0000      -0.541056       -14.7229
  45   2.0000      -0.524928       -14.2840
  46   2.0000      -0.518171       -14.1002
  47   2.0000      -0.510324       -13.8866
  48   2.0000      -0.506099       -13.7716
  49   2.0000      -0.504119       -13.7178
  50   2.0000      -0.486769       -13.2457
  51   2.0000      -0.482099       -13.1186
  52   2.0000      -0.474391       -12.9088
  53   2.0000      -0.464234       -12.6324
  54   2.0000      -0.460076       -12.5193
  55   2.0000      -0.447203       -12.1690
  56   2.0000      -0.442371       -12.0375
  57   2.0000      -0.441867       -12.0238
  58   2.0000      -0.437681       -11.9099
  59   2.0000      -0.422146       -11.4872
  60   2.0000      -0.418246       -11.3811
  61   2.0000      -0.406567       -11.0632
  62   2.0000      -0.404913       -11.0182
  63   2.0000      -0.336325        -9.1519
  64   2.0000      -0.329501        -8.9662
  65   2.0000      -0.321408        -8.7460
  66   2.0000      -0.310755        -8.4561
  67   0.0000       0.037862         1.0303
  68   0.0000       0.061843         1.6828
  69   0.0000       0.111414         3.0317
  70   0.0000       0.123566         3.3624
  71   0.0000       0.128579         3.4988

MULLIKEN ATOMIC CHARGES
-----------------------
   0 S :    0.096376
   1 C :   -0.129506
   2 C :   -0.106009
   3 C :    0.051102
   4 C :   -0.181691
   5 H :    0.020052
   6 C :    0.081573
   7 H :    0.044568
   8 H :    0.014560
   9 C :   -0.064907
  10 H :    0.029268
  11 H :    0.032646
  12 C :   -0.041457
  13 H :    0.035191
  14 H :    0.022186
  15 H :    0.033661
  16 S :    0.114566
  17 C :   -0.071804
  18 C :   -0.069234
  19 C :   -0.029932
  20 C :   -0.191418
  21 H :    0.044849
  22 C :    0.137921
  23 H :    0.024443
  24 H :   -0.005076
  25 C :   -0.103106
  26 H :    0.024832
  27 H :    0.038715
  28 C :   -0.034809
  29 H :    0.031288
  30 H :    0.036313
  31 H :    0.018814
  32 H :    0.049538
  33 H :    0.046485
Sum of atomic charges:   -0.0000000

LOEWDIN ATOMIC CHARGES
----------------------
   0 S :    0.400912
   1 C :   -0.187701
   2 C :   -0.062196
   3 C :   -0.066685
   4 C :   -0.211676
   5 H :    0.036209
   6 C :   -0.032557
   7 H :    0.032788
   8 H :    0.031198
   9 C :   -0.043597
  10 H :    0.023422
  11 H :    0.029429
  12 C :   -0.062302
  13 H :    0.026059
  14 H :    0.025864
  15 H :    0.025412
  16 S :    0.392495
  17 C :   -0.180443
  18 C :   -0.081593
  19 C :   -0.040263
  20 C :   -0.188841
  21 H :    0.042470
  22 C :   -0.032561
  23 H :    0.031452
  24 H :    0.024904
  25 C :   -0.043315
  26 H :    0.025901
  27 H :    0.021592
  28 C :   -0.061237
  29 H :    0.026378
  30 H :    0.032034
  31 H :    0.013230
  32 H :    0.026654
  33 H :    0.026566

  Mayer bond orders larger than 0.100000
B(  0-S ,  1-C ) :   1.1165 B(  0-S ,  4-C ) :   1.1464 B(  1-C ,  2-C ) :   1.6552
B(  1-C , 32-H ) :   0.9783 B(  2-C ,  3-C ) :   1.1854 B(  2-C ,  6-C ) :   0.9949
B(  3-C ,  4-C ) :   1.6346 B(  3-C ,  5-H ) :   0.9893 B(  4-C , 20-C ) :   1.0274
B(  6-C ,  7-H ) :   0.9441 B(  6-C ,  8-H ) :   0.9375 B(  6-C ,  9-C ) :   1.0711
B(  9-C , 10-H ) :   0.9562 B(  9-C , 11-H ) :   0.9473 B(  9-C , 12-C ) :   1.0901
B( 12-C , 13-H ) :   0.9740 B( 12-C , 14-H ) :   0.9692 B( 12-C , 15-H ) :   0.9670
B( 16-S , 17-C ) :   1.1499 B( 16-S , 20-C ) :   1.1265 B( 17-C , 18-C ) :   1.6530
B( 17-C , 33-H ) :   0.9627 B( 18-C , 19-C ) :   1.2247 B( 18-C , 21-H ) :   0.9703
B( 19-C , 20-C ) :   1.6132 B( 19-C , 22-C ) :   1.0474 B( 22-C , 23-H ) :   0.9199
B( 22-C , 24-H ) :   0.9235 B( 22-C , 25-C ) :   1.0630 B( 25-C , 26-H ) :   0.9562
B( 25-C , 27-H ) :   0.9570 B( 25-C , 28-C ) :   1.0722 B( 28-C , 29-H ) :   0.9773
B( 28-C , 30-H ) :   0.9748 B( 28-C , 31-H ) :   0.9771

Dispersion correction           -0.014896130
FINAL SINGLE POINT ENERGY     -1339.871494859430

DIPOLE MOMENT
-------------
                                X             Y             Z
Electronic contribution:     -6.62539     -16.95209      12.39917
Nuclear contribution   :      6.70239      17.36363     -12.88929
                        -----------------------------------------
Total Dipole Moment    :      0.07700       0.41153      -0.49012
                        -----------------------------------------
Magnitude (a.u.)       :      0.64460
Magnitude (Debye)      :      1.63844

Rotational constants in cm-1:     0.017550     0.009341     0.007771
Rotational constants in MHz :   526.131042   280.041468   232.978188

                             ****ORCA TERMINATED NORMALLY****
TOTAL RUN TIME: 0 days 0 hours 0 minutes 21 seconds 28 msec
