                         Program Version 4.2.1 -  RELEASE  -
|  1> ! wB97X-D3 SP def2-SVP
|  2> %pal
|  3> nprocs 24
|  4> end
|  5>
|  6> * xyz 0 1
|  7> S 	 -118.316 	 59.4156 	 -36.765
|  8> C 	 -119.126 	 60.0185 	 -38.2277
|  9> C 	 -120.415 	 60.4325 	 -37.9976
| 10> C 	 -120.664 	 60.4804 	 -36.6487
| 11> C 	 -119.724 	 59.8464 	 -35.8243
| 12> H 	 -121.578 	 60.8217 	 -36.1522
| 13> C 	 -121.394 	 60.8438 	 -39.0683
| 14> H 	 -120.793 	 61.3127 	 -39.8375
| 15> H 	 -122.038 	 61.6092 	 -38.6875
| 16> C 	 -122.192 	 59.686 	 -39.6241
| 17> H 	 -122.507 	 60.0058 	 -40.5912
| 18> H 	 -121.569 	 58.7563 	 -39.8273
| 19> C 	 -123.528 	 59.4234 	 -38.9538
| 20> H 	 -124.155 	 60.2912 	 -38.8311
| 21> H 	 -124.129 	 58.809 	 -39.5934
| 22> H 	 -123.368 	 58.9181 	 -37.9947
| 23> S 	 -119.595 	 60.8746 	 -33.2497
| 24> C 	 -119.82 	 59.7819 	 -31.8936
| 25> C 	 -120.17 	 58.5086 	 -32.2651
| 26> C 	 -120.142 	 58.4553 	 -33.7239
| 27> C 	 -119.845 	 59.5945 	 -34.421
| 28> H 	 -120.282 	 57.7099 	 -31.5607
| 29> C 	 -120.245 	 57.1224 	 -34.3968
| 30> H 	 -120.657 	 57.2586 	 -35.3719
| 31> H 	 -120.952 	 56.4605 	 -33.9099
| 32> C 	 -118.947 	 56.3173 	 -34.4859
| 33> H 	 -118.28 	 56.7785 	 -35.2084
| 34> H 	 -119.005 	 55.3887 	 -35.0173
| 35> C 	 -118.266 	 55.9103 	 -33.1586
| 36> H 	 -117.81 	 56.9009 	 -32.7803
| 37> H 	 -117.46 	 55.2752 	 -33.3174
| 38> H 	 -118.88 	 55.564 	 -32.3783
| 39> H 	 -118.751 	 59.9188 	 -39.2497
| 40> H 	 -119.755 	 60.0221 	 -30.7617
| 41> *
| 42>
| 43>                          ****END OF INPUT****

CARTESIAN COORDINATES (ANGSTROEM)
---------------------------------
  S    -118.316000   59.415600  -36.765000
  C    -119.126000   60.018500  -38.227700
  C    -120.415000   60.432500  -37.997600
  C    -120.664000   60.480400  -36.648700
  C    -119.724000   59.846400  -35.824300
  H    -121.578000   60.821700  -36.152200
  C    -121.394000   60.843800  -39.068300
  H    -120.793000   61.312700  -39.837500
  H    -122.038000   61.609200  -38.687500
  C    -122.192000   59.686000  -39.624100
  H    -122.507000   60.005800  -40.591200
  H    -121.569000   58.756300  -39.827300
  C    -123.528000   59.423400  -38.953800
  H    -124.155000   60.291200  -38.831100
  H    -124.129000   58.809000  -39.593400
  H    -123.368000   58.918100  -37.994700
  S    -119.595000   60.874600  -33.249700
  C    -119.820000   59.781900  -31.893600
  C    -120.170000   58.508600  -32.265100
  C    -120.142000   58.455300  -33.723900
  C    -119.845000   59.594500  -34.421000
  H    -120.282000   57.709900  -31.560700
  C    -120.245000   57.122400  -34.396800
  H    -120.657000   57.258600  -35.371900
  H    -120.952000   56.460500  -33.909900
  C    -118.947000   56.317300  -34.485900
  H    -118.280000   56.778500  -35.208400
  H    -119.005000   55.388700  -35.017300
  C    -118.266000   55.910300  -33.158600
  H    -117.810000   56.900900  -32.780300
  H    -117.460000   55.275200  -33.317400
  H    -118.880000   55.564000  -32.378300
  H    -118.751000   59.918800  -39.249700
  H    -119.755000   60.022100  -30.761700

 Total Charge           Charge          ....    0
 Multiplicity           Mult            ....    1
 Number of Electrons    NEL             ....  134
 Basis Dimension        Dim             ....  322

ORBITAL ENERGIES
----------------

  NO   OCC          E(Eh)            E(eV)
   0   2.0000     -88.971449     -2421.0362
   1   2.0000     -88.962554     -2420.7942
   2   2.0000     -10.327433      -281.0237
   3   2.0000     -10.324131      -280.9339
   4   2.0000     -10.320362      -280.8313
   5   2.0000     -10.314677      -280.6766
   6   2.0000     -10.300331      -280.2863
   7   2.0000     -10.294506      -280.1278
   8   2.0000     -10.293918      -280.1117
   9   2.0000     -10.291601      -280.0487
  10   2.0000     -10.289445      -279.9900
  11   2.0000     -10.286984      -279.9231
  12   2.0000     -10.279283      -279.7135
  13   2.0000     -10.277057      -279.6529
  14   2.0000     -10.275148      -279.6010
  15   2.0000     -10.270402      -279.4718
  16   2.0000      -8.085089      -220.0065
  17   2.0000      -8.077282      -219.7940
  18   2.0000      -6.043498      -164.4519
  19   2.0000      -6.039735      -164.3495
  20   2.0000      -6.036031      -164.2488
  21   2.0000      -6.035983      -164.2474
  22   2.0000      -6.031722      -164.1315
  23   2.0000      -6.027881      -164.0270
  24   2.0000      -1.008324       -27.4379
  25   2.0000      -0.986057       -26.8320
  26   2.0000      -0.918869       -25.0037
  27   2.0000      -0.904222       -24.6051
  28   2.0000      -0.873967       -23.7819
  29   2.0000      -0.851928       -23.1821
  30   2.0000      -0.841856       -22.9081
  31   2.0000      -0.816830       -22.2271
  32   2.0000      -0.789713       -21.4892
  33   2.0000      -0.771911       -21.0048
  34   2.0000      -0.709393       -19.3036
  35   2.0000      -0.702813       -19.1245
  36   2.0000      -0.690895       -18.8002
  37   2.0000      -0.660459       -17.9720
  38   2.0000      -0.639112       -17.3911
  39   2.0000      -0.615431       -16.7467
  40   2.0000      -0.589110       -16.0305
  41   2.0000      -0.578963       -15.7544
  42   2.0000      -0.557701       -15.1758
  43   2.0000      -0.554344       -15.0845
  44   2.0000      -0.541589       -14.7374
  45   2.0000      -0.537990       -14.6395
  46   2.0000      -0.520235       -14.1563
  47   2.0000      -0.514405       -13.9977
  48   2.0000      -0.500344       -13.6151
  49   2.0000      -0.492067       -13.3898
  50   2.0000      -0.488324       -13.2880
  51   2.0000      -0.482465       -13.1285
  52   2.0000      -0.470377       -12.7996
  53   2.0000      -0.467008       -12.7079
  54   2.0000      -0.462893       -12.5959
  55   2.0000      -0.449339       -12.2271
  56   2.0000      -0.445611       -12.1257
  57   2.0000      -0.439090       -11.9483
  58   2.0000      -0.432128       -11.7588
  59   2.0000      -0.426050       -11.5934
  60   2.0000      -0.420556       -11.4439
  61   2.0000      -0.410582       -11.1725
  62   2.0000      -0.390429       -10.6241
  63   2.0000      -0.339274        -9.2321
  64   2.0000      -0.332575        -9.0498
  65   2.0000      -0.321489        -8.7481
  66   2.0000      -0.304993        -8.2993
  67   0.0000       0.038167         1.0386
  68   0.0000       0.056297         1.5319
  69   0.0000       0.112590         3.0637
  70   0.0000       0.119096         3.2408
  71   0.0000       0.129930         3.5356

MULLIKEN ATOMIC CHARGES
-----------------------
   0 S :    0.131357
   1 C :   -0.127514
   2 C :   -0.085137
   3 C :    0.037936
   4 C :   -0.201883
   5 H :    0.013986
   6 C :    0.106712
   7 H :    0.020011
   8 H :    0.014109
   9 C :   -0.067635
  10 H :    0.012383
  11 H :    0.042391
  12 C :   -0.034198
  13 H :    0.022977
  14 H :    0.023977
  15 H :    0.039775
  16 S :    0.110595
  17 C :   -0.116490
  18 C :   -0.015480
  19 C :   -0.046144
  20 C :   -0.153321
  21 H :    0.019079
  22 C :    0.098712
  23 H :    0.018776
  24 H :    0.011201
  25 C :   -0.060854
  26 H :    0.005445
  27 H :    0.009404
  28 C :   -0.040964
  29 H :    0.039983
  30 H :    0.022080
  31 H :    0.021649
  32 H :    0.044895
  33 H :    0.082189
Sum of atomic charges:   -0.0000000

LOEWDIN ATOMIC CHARGES
----------------------
   0 S :    0.414489
   1 C :   -0.190367
   2 C :   -0.068004
   3 C :   -0.056223
   4 C :   -0.202912
   5 H :    0.033635
   6 C :   -0.023231
   7 H :    0.032359
   8 H :    0.029112
   9 C :   -0.043430
  10 H :    0.020680
  11 H :    0.034593
  12 C :   -0.061881
  13 H :    0.023853
  14 H :    0.024636
  15 H :    0.025878
  16 S :    0.398893
  17 C :   -0.189430
  18 C :   -0.072545
  19 C :   -0.047480
  20 C :   -0.212605
  21 H :    0.032009
  22 C :   -0.033266
  23 H :    0.028156
  24 H :    0.026775
  25 C :   -0.043762
  26 H :    0.015637
  27 H :    0.020321
  28 C :   -0.061865
  29 H :    0.035600
  30 H :    0.017680
  31 H :    0.014855
  32 H :    0.027947
  33 H :    0.049892

  Mayer bond orders larger than 0.100000
B(  0-S ,  1-C ) :   1.1484 B(  0-S ,  4-C ) :   1.1570 B(  1-C ,  2-C ) :   1.5977
B(  1-C ,  4-C ) :   0.1138 B(  1-C , 32-H ) :   0.9607 B(  2-C ,  3-C ) :   1.2752
B(  2-C ,  6-C ) :   1.0183 B(  3-C ,  4-C ) :   1.5589 B(  3-C ,  5-H ) :   0.9885
B(  4-C , 20-C ) :   1.0410 B(  6-C ,  7-H ) :   0.9350 B(  6-C ,  8-H ) :   0.9375
B(  6-C ,  9-C ) :   1.0709 B(  9-C , 10-H ) :   0.9506 B(  9-C , 11-H ) :   0.9542
B(  9-C , 12-C ) :   1.0874 B( 12-C , 13-H ) :   0.9711 B( 12-C , 14-H ) :   0.9725
B( 12-C , 15-H ) :   0.9757 B( 16-S , 17-C ) :   1.1600 B( 16-S , 20-C ) :   1.1047
B( 17-C , 18-C ) :   1.6303 B( 17-C , 33-H ) :   0.9499 B( 18-C , 19-C ) :   1.2085
B( 18-C , 21-H ) :   0.9940 B( 19-C , 20-C ) :   1.6357 B( 19-C , 22-C ) :   1.0670
B( 22-C , 23-H ) :   0.9201 B( 22-C , 24-H ) :   0.9338 B( 22-C , 25-C ) :   1.0769
B( 25-C , 26-H ) :   0.9462 B( 25-C , 27-H ) :   0.9524 B( 25-C , 28-C ) :   1.0766
B( 28-C , 29-H ) :   0.9719 B( 28-C , 30-H ) :   0.9723 B( 28-C , 31-H ) :   0.9760

Dispersion correction           -0.015362747
FINAL SINGLE POINT ENERGY     -1339.866035532416

DIPOLE MOMENT
-------------
                                X             Y             Z
Electronic contribution:     10.95468      13.90732       9.35458
Nuclear contribution   :    -11.36500     -14.21818      -9.67994
                        -----------------------------------------
Total Dipole Moment    :     -0.41032      -0.31087      -0.32536
                        -----------------------------------------
Magnitude (a.u.)       :      0.60898
Magnitude (Debye)      :      1.54791

Rotational constants in cm-1:     0.020982     0.008160     0.007589
Rotational constants in MHz :   629.013342   244.632585   227.525703

                             ****ORCA TERMINATED NORMALLY****
TOTAL RUN TIME: 0 days 0 hours 0 minutes 22 seconds 311 msec
