                         Program Version 4.2.1 -  RELEASE  -
|  1> ! wB97X-D3 SP def2-SVP
|  2> %pal
|  3> nprocs 24
|  4> end
|  5>
|  6> * xyz 0 1
|  7> S 	 -3.59547 	 -29.1663 	 -115.633
|  8> C 	 -5.24798 	 -29.1164 	 -116.261
|  9> C 	 -6.07332 	 -29.8304 	 -115.44
| 10> C 	 -5.32652 	 -30.5698 	 -114.41
| 11> C 	 -3.97642 	 -30.2785 	 -114.364
| 12> H 	 -5.83089 	 -31.1958 	 -113.733
| 13> C 	 -7.55656 	 -29.8936 	 -115.494
| 14> H 	 -7.88434 	 -30.9141 	 -115.726
| 15> H 	 -7.95569 	 -29.3221 	 -116.3
| 16> C 	 -8.23267 	 -29.4221 	 -114.223
| 17> H 	 -7.90379 	 -29.8528 	 -113.369
| 18> H 	 -7.89978 	 -28.3538 	 -114.128
| 19> C 	 -9.8113 	 -29.4934 	 -114.241
| 20> H 	 -10.2172 	 -30.3976 	 -114.655
| 21> H 	 -10.0915 	 -29.2719 	 -113.157
| 22> H 	 -10.274 	 -28.6935 	 -114.785
| 23> S 	 -2.00679 	 -32.1525 	 -114.597
| 24> C 	 -1.12306 	 -32.7077 	 -113.15
| 25> C 	 -1.54124 	 -32.0563 	 -112.052
| 26> C 	 -2.51712 	 -31.0624 	 -112.32
| 27> C 	 -2.95634 	 -31.0534 	 -113.649
| 28> H 	 -1.15111 	 -32.3362 	 -111.125
| 29> C 	 -3.07616 	 -30.1897 	 -111.201
| 30> H 	 -3.59423 	 -29.3338 	 -111.548
| 31> H 	 -2.23615 	 -29.7995 	 -110.544
| 32> C 	 -4.10538 	 -30.8816 	 -110.299
| 33> H 	 -4.89764 	 -31.2361 	 -110.945
| 34> H 	 -4.57229 	 -30.1104 	 -109.587
| 35> C 	 -3.61305 	 -32.0552 	 -109.455
| 36> H 	 -2.71656 	 -31.7631 	 -108.838
| 37> H 	 -3.42225 	 -32.9913 	 -110.015
| 38> H 	 -4.40342 	 -32.2823 	 -108.771
| 39> H 	 -5.70982 	 -28.5896 	 -117.08
| 40> H 	 -0.289561 	 -33.4583 	 -113.119
| 41> *
| 42>
| 43>                          ****END OF INPUT****

CARTESIAN COORDINATES (ANGSTROEM)
---------------------------------
  S     -3.595470  -29.166300  -115.633000
  C     -5.247980  -29.116400  -116.261000
  C     -6.073320  -29.830400  -115.440000
  C     -5.326520  -30.569800  -114.410000
  C     -3.976420  -30.278500  -114.364000
  H     -5.830890  -31.195800  -113.733000
  C     -7.556560  -29.893600  -115.494000
  H     -7.884340  -30.914100  -115.726000
  H     -7.955690  -29.322100  -116.300000
  C     -8.232670  -29.422100  -114.223000
  H     -7.903790  -29.852800  -113.369000
  H     -7.899780  -28.353800  -114.128000
  C     -9.811300  -29.493400  -114.241000
  H    -10.217200  -30.397600  -114.655000
  H    -10.091500  -29.271900  -113.157000
  H    -10.274000  -28.693500  -114.785000
  S     -2.006790  -32.152500  -114.597000
  C     -1.123060  -32.707700  -113.150000
  C     -1.541240  -32.056300  -112.052000
  C     -2.517120  -31.062400  -112.320000
  C     -2.956340  -31.053400  -113.649000
  H     -1.151110  -32.336200  -111.125000
  C     -3.076160  -30.189700  -111.201000
  H     -3.594230  -29.333800  -111.548000
  H     -2.236150  -29.799500  -110.544000
  C     -4.105380  -30.881600  -110.299000
  H     -4.897640  -31.236100  -110.945000
  H     -4.572290  -30.110400  -109.587000
  C     -3.613050  -32.055200  -109.455000
  H     -2.716560  -31.763100  -108.838000
  H     -3.422250  -32.991300  -110.015000
  H     -4.403420  -32.282300  -108.771000
  H     -5.709820  -28.589600  -117.080000
  H     -0.289561  -33.458300  -113.119000

 Total Charge           Charge          ....    0
 Multiplicity           Mult            ....    1
 Number of Electrons    NEL             ....  134
 Basis Dimension        Dim             ....  322

ORBITAL ENERGIES
----------------

  NO   OCC          E(Eh)            E(eV)
   0   2.0000     -88.965891     -2420.8850
   1   2.0000     -88.963483     -2420.8194
   2   2.0000     -10.331028      -281.1216
   3   2.0000     -10.328478      -281.0522
   4   2.0000     -10.318860      -280.7905
   5   2.0000     -10.314382      -280.6686
   6   2.0000     -10.304328      -280.3950
   7   2.0000     -10.298970      -280.2492
   8   2.0000     -10.294186      -280.1190
   9   2.0000     -10.289568      -279.9934
  10   2.0000     -10.289131      -279.9815
  11   2.0000     -10.287889      -279.9477
  12   2.0000     -10.285639      -279.8865
  13   2.0000     -10.284547      -279.8568
  14   2.0000     -10.284235      -279.8483
  15   2.0000     -10.278816      -279.7008
  16   2.0000      -8.080548      -219.8829
  17   2.0000      -8.078103      -219.8164
  18   2.0000      -6.039255      -164.3365
  19   2.0000      -6.036677      -164.2663
  20   2.0000      -6.034998      -164.2206
  21   2.0000      -6.032562      -164.1544
  22   2.0000      -6.031116      -164.1150
  23   2.0000      -6.028838      -164.0530
  24   2.0000      -1.007336       -27.4110
  25   2.0000      -0.985204       -26.8088
  26   2.0000      -0.916718       -24.9452
  27   2.0000      -0.905833       -24.6490
  28   2.0000      -0.873431       -23.7673
  29   2.0000      -0.843367       -22.9492
  30   2.0000      -0.842848       -22.9351
  31   2.0000      -0.820264       -22.3205
  32   2.0000      -0.784088       -21.3361
  33   2.0000      -0.774712       -21.0810
  34   2.0000      -0.714701       -19.4480
  35   2.0000      -0.701413       -19.0864
  36   2.0000      -0.682763       -18.5789
  37   2.0000      -0.660525       -17.9738
  38   2.0000      -0.641494       -17.4559
  39   2.0000      -0.625175       -17.0119
  40   2.0000      -0.595212       -16.1966
  41   2.0000      -0.576475       -15.6867
  42   2.0000      -0.564637       -15.3645
  43   2.0000      -0.550943       -14.9919
  44   2.0000      -0.540032       -14.6950
  45   2.0000      -0.527821       -14.3628
  46   2.0000      -0.521682       -14.1957
  47   2.0000      -0.510073       -13.8798
  48   2.0000      -0.506780       -13.7902
  49   2.0000      -0.496774       -13.5179
  50   2.0000      -0.491015       -13.3612
  51   2.0000      -0.482335       -13.1250
  52   2.0000      -0.470514       -12.8033
  53   2.0000      -0.465702       -12.6724
  54   2.0000      -0.462197       -12.5770
  55   2.0000      -0.446864       -12.1598
  56   2.0000      -0.439874       -11.9696
  57   2.0000      -0.436346       -11.8736
  58   2.0000      -0.429446       -11.6858
  59   2.0000      -0.425830       -11.5874
  60   2.0000      -0.422269       -11.4905
  61   2.0000      -0.415327       -11.3016
  62   2.0000      -0.412951       -11.2370
  63   2.0000      -0.342949        -9.3321
  64   2.0000      -0.327198        -8.9035
  65   2.0000      -0.323241        -8.7958
  66   2.0000      -0.308095        -8.3837
  67   0.0000       0.039917         1.0862
  68   0.0000       0.062292         1.6951
  69   0.0000       0.118505         3.2247
  70   0.0000       0.121156         3.2968
  71   0.0000       0.130745         3.5578

MULLIKEN ATOMIC CHARGES
-----------------------
   0 S :    0.112611
   1 C :   -0.102875
   2 C :   -0.112232
   3 C :    0.054358
   4 C :   -0.140858
   5 H :   -0.004041
   6 C :    0.103432
   7 H :    0.026538
   8 H :   -0.000043
   9 C :   -0.080594
  10 H :    0.007218
  11 H :    0.030639
  12 C :   -0.049891
  13 H :    0.034799
  14 H :    0.042319
  15 H :    0.027531
  16 S :    0.109770
  17 C :   -0.104042
  18 C :   -0.007726
  19 C :   -0.021631
  20 C :   -0.168019
  21 H :   -0.004266
  22 C :    0.084293
  23 H :    0.016474
  24 H :    0.032490
  25 C :   -0.099548
  26 H :    0.020922
  27 H :    0.040511
  28 C :   -0.064689
  29 H :    0.033507
  30 H :    0.047614
  31 H :    0.028227
  32 H :    0.037721
  33 H :    0.069481
Sum of atomic charges:   -0.0000000

LOEWDIN ATOMIC CHARGES
----------------------
   0 S :    0.406997
   1 C :   -0.192752
   2 C :   -0.062084
   3 C :   -0.046596
   4 C :   -0.207174
   5 H :    0.019653
   6 C :   -0.034891
   7 H :    0.030763
   8 H :    0.024360
   9 C :   -0.032224
  10 H :    0.004309
  11 H :    0.033358
  12 C :   -0.064659
  13 H :    0.021502
  14 H :    0.038526
  15 H :    0.021074
  16 S :    0.401393
  17 C :   -0.176525
  18 C :   -0.068085
  19 C :   -0.052363
  20 C :   -0.204273
  21 H :    0.024562
  22 C :   -0.033700
  23 H :    0.025976
  24 H :    0.035292
  25 C :   -0.043877
  26 H :    0.020278
  27 H :    0.032138
  28 C :   -0.075490
  29 H :    0.027286
  30 H :    0.028561
  31 H :    0.024153
  32 H :    0.032783
  33 H :    0.041729

  Mayer bond orders larger than 0.100000
B(  0-S ,  1-C ) :   1.1199 B(  0-S ,  4-C ) :   1.1475 B(  1-C ,  2-C ) :   1.6439
B(  1-C , 32-H ) :   0.9642 B(  2-C ,  3-C ) :   1.2159 B(  2-C ,  6-C ) :   1.0468
B(  3-C ,  4-C ) :   1.5873 B(  3-C ,  5-H ) :   0.9993 B(  4-C , 20-C ) :   1.0059
B(  6-C ,  7-H ) :   0.9279 B(  6-C ,  8-H ) :   0.9374 B(  6-C ,  9-C ) :   1.0584
B(  9-C , 10-H ) :   0.9645 B(  9-C , 11-H ) :   0.9517 B(  9-C , 12-C ) :   1.0716
B( 12-C , 13-H ) :   0.9773 B( 12-C , 14-H ) :   0.9766 B( 12-C , 15-H ) :   0.9778
B( 16-S , 17-C ) :   1.1409 B( 16-S , 20-C ) :   1.1481 B( 17-C , 18-C ) :   1.6358
B( 17-C , 33-H ) :   0.9581 B( 18-C , 19-C ) :   1.2275 B( 18-C , 21-H ) :   0.9982
B( 19-C , 20-C ) :   1.6067 B( 19-C , 22-C ) :   1.0497 B( 22-C , 23-H ) :   0.9269
B( 22-C , 24-H ) :   0.9382 B( 22-C , 25-C ) :   1.0775 B( 25-C , 26-H ) :   0.9471
B( 25-C , 27-H ) :   0.9559 B( 25-C , 28-C ) :   1.0892 B( 28-C , 29-H ) :   0.9724
B( 28-C , 30-H ) :   0.9682 B( 28-C , 31-H ) :   0.9705

Dispersion correction           -0.014258006
FINAL SINGLE POINT ENERGY     -1339.875532868764

DIPOLE MOMENT
-------------
                                X             Y             Z
Electronic contribution:     22.59196      -1.27612     -18.19571
Nuclear contribution   :    -23.13025       1.21079      18.63946
                        -----------------------------------------
Total Dipole Moment    :     -0.53830      -0.06532       0.44374
                        -----------------------------------------
Magnitude (a.u.)       :      0.70067
Magnitude (Debye)      :      1.78096

Rotational constants in cm-1:     0.018401     0.008608     0.006535
Rotational constants in MHz :   551.639441   258.056444   195.915299

                             ****ORCA TERMINATED NORMALLY****
TOTAL RUN TIME: 0 days 0 hours 0 minutes 21 seconds 505 msec
