                         Program Version 4.2.1 -  RELEASE  -
|  1> ! wB97X-D3 SP def2-SVP
|  2> %pal
|  3> nprocs 24
|  4> end
|  5>
|  6> * xyz 0 1
|  7> S 	 -53.437 	 17.5349 	 23.4282
|  8> C 	 -52.2175 	 16.9185 	 22.307
|  9> C 	 -51.3038 	 16.1532 	 22.9767
| 10> C 	 -51.4913 	 16.1643 	 24.404
| 11> C 	 -52.5278 	 16.9674 	 24.8439
| 12> H 	 -50.9096 	 15.7122 	 25.0998
| 13> C 	 -50.0604 	 15.4612 	 22.3261
| 14> H 	 -50.2302 	 15.1583 	 21.3187
| 15> H 	 -49.912 	 14.5455 	 22.9051
| 16> C 	 -48.6971 	 16.2398 	 22.3809
| 17> H 	 -48.3929 	 16.3345 	 23.4703
| 18> H 	 -47.9207 	 15.6295 	 21.8995
| 19> C 	 -48.6858 	 17.6638 	 21.7962
| 20> H 	 -48.9597 	 17.6171 	 20.7914
| 21> H 	 -49.4078 	 18.273 	 22.2127
| 22> H 	 -47.6293 	 18.1044 	 21.8618
| 23> S 	 -52.4323 	 19.3165 	 26.2401
| 24> C 	 -52.512 	 19.3265 	 27.9491
| 25> C 	 -52.5071 	 18.055 	 28.4517
| 26> C 	 -52.5503 	 17.0077 	 27.4477
| 27> C 	 -52.7104 	 17.5262 	 26.1639
| 28> H 	 -52.493 	 17.8397 	 29.5039
| 29> C 	 -52.6264 	 15.5378 	 27.8515
| 30> H 	 -51.9976 	 14.9739 	 27.1815
| 31> H 	 -53.6625 	 15.2721 	 27.6466
| 32> C 	 -52.2042 	 15.1124 	 29.3026
| 33> H 	 -52.8023 	 15.7329 	 30.0666
| 34> H 	 -51.1767 	 15.4463 	 29.3212
| 35> C 	 -52.3589 	 13.5769 	 29.5121
| 36> H 	 -51.6603 	 13.0773 	 28.8587
| 37> H 	 -53.3912 	 13.1638 	 29.4047
| 38> H 	 -52.0261 	 13.3137 	 30.5518
| 39> H 	 -52.2705 	 17.1159 	 21.2396
| 40> H 	 -52.6467 	 20.2649 	 28.4988
| 41> *
| 42>
| 43>                          ****END OF INPUT****

CARTESIAN COORDINATES (ANGSTROEM)
---------------------------------
  S    -53.437000   17.534900   23.428200
  C    -52.217500   16.918500   22.307000
  C    -51.303800   16.153200   22.976700
  C    -51.491300   16.164300   24.404000
  C    -52.527800   16.967400   24.843900
  H    -50.909600   15.712200   25.099800
  C    -50.060400   15.461200   22.326100
  H    -50.230200   15.158300   21.318700
  H    -49.912000   14.545500   22.905100
  C    -48.697100   16.239800   22.380900
  H    -48.392900   16.334500   23.470300
  H    -47.920700   15.629500   21.899500
  C    -48.685800   17.663800   21.796200
  H    -48.959700   17.617100   20.791400
  H    -49.407800   18.273000   22.212700
  H    -47.629300   18.104400   21.861800
  S    -52.432300   19.316500   26.240100
  C    -52.512000   19.326500   27.949100
  C    -52.507100   18.055000   28.451700
  C    -52.550300   17.007700   27.447700
  C    -52.710400   17.526200   26.163900
  H    -52.493000   17.839700   29.503900
  C    -52.626400   15.537800   27.851500
  H    -51.997600   14.973900   27.181500
  H    -53.662500   15.272100   27.646600
  C    -52.204200   15.112400   29.302600
  H    -52.802300   15.732900   30.066600
  H    -51.176700   15.446300   29.321200
  C    -52.358900   13.576900   29.512100
  H    -51.660300   13.077300   28.858700
  H    -53.391200   13.163800   29.404700
  H    -52.026100   13.313700   30.551800
  H    -52.270500   17.115900   21.239600
  H    -52.646700   20.264900   28.498800

 Total Charge           Charge          ....    0
 Multiplicity           Mult            ....    1
 Number of Electrons    NEL             ....  134
 Basis Dimension        Dim             ....  322

ORBITAL ENERGIES
----------------

  NO   OCC          E(Eh)            E(eV)
   0   2.0000     -88.961948     -2420.7777
   1   2.0000     -88.959324     -2420.7063
   2   2.0000     -10.330171      -281.0982
   3   2.0000     -10.328430      -281.0509
   4   2.0000     -10.316748      -280.7330
   5   2.0000     -10.316350      -280.7222
   6   2.0000     -10.309677      -280.5406
   7   2.0000     -10.305767      -280.4342
   8   2.0000     -10.302007      -280.3319
   9   2.0000     -10.295656      -280.1590
  10   2.0000     -10.294339      -280.1232
  11   2.0000     -10.292521      -280.0737
  12   2.0000     -10.292205      -280.0651
  13   2.0000     -10.291401      -280.0433
  14   2.0000     -10.290191      -280.0103
  15   2.0000     -10.268969      -279.4329
  16   2.0000      -8.076349      -219.7686
  17   2.0000      -8.074301      -219.7129
  18   2.0000      -6.034948      -164.2193
  19   2.0000      -6.032870      -164.1627
  20   2.0000      -6.030888      -164.1088
  21   2.0000      -6.028814      -164.0524
  22   2.0000      -6.027034      -164.0039
  23   2.0000      -6.024915      -163.9463
  24   2.0000      -1.002824       -27.2882
  25   2.0000      -0.980520       -26.6813
  26   2.0000      -0.906314       -24.6621
  27   2.0000      -0.901520       -24.5316
  28   2.0000      -0.870162       -23.6783
  29   2.0000      -0.848502       -23.0889
  30   2.0000      -0.841475       -22.8977
  31   2.0000      -0.811867       -22.0920
  32   2.0000      -0.784223       -21.3398
  33   2.0000      -0.775124       -21.0922
  34   2.0000      -0.709527       -19.3072
  35   2.0000      -0.698546       -19.0084
  36   2.0000      -0.691981       -18.8298
  37   2.0000      -0.654860       -17.8196
  38   2.0000      -0.644228       -17.5303
  39   2.0000      -0.618889       -16.8408
  40   2.0000      -0.598976       -16.2990
  41   2.0000      -0.572260       -15.5720
  42   2.0000      -0.561946       -15.2913
  43   2.0000      -0.545729       -14.8500
  44   2.0000      -0.539098       -14.6696
  45   2.0000      -0.522109       -14.2073
  46   2.0000      -0.516361       -14.0509
  47   2.0000      -0.514405       -13.9977
  48   2.0000      -0.503133       -13.6909
  49   2.0000      -0.498835       -13.5740
  50   2.0000      -0.490692       -13.3524
  51   2.0000      -0.482835       -13.1386
  52   2.0000      -0.472037       -12.8448
  53   2.0000      -0.464920       -12.6511
  54   2.0000      -0.460680       -12.5357
  55   2.0000      -0.453402       -12.3377
  56   2.0000      -0.444012       -12.0822
  57   2.0000      -0.435549       -11.8519
  58   2.0000      -0.432037       -11.7563
  59   2.0000      -0.419713       -11.4210
  60   2.0000      -0.418179       -11.3792
  61   2.0000      -0.414994       -11.2926
  62   2.0000      -0.413026       -11.2390
  63   2.0000      -0.345606        -9.4044
  64   2.0000      -0.329548        -8.9674
  65   2.0000      -0.324652        -8.8342
  66   2.0000      -0.294732        -8.0201
  67   0.0000       0.023043         0.6270
  68   0.0000       0.069483         1.8907
  69   0.0000       0.109546         2.9809
  70   0.0000       0.115313         3.1378
  71   0.0000       0.135769         3.6945

MULLIKEN ATOMIC CHARGES
-----------------------
   0 S :    0.093860
   1 C :   -0.138176
   2 C :   -0.073518
   3 C :    0.082753
   4 C :   -0.170535
   5 H :   -0.033738
   6 C :    0.074580
   7 H :    0.018808
   8 H :    0.026632
   9 C :   -0.103061
  10 H :    0.032652
  11 H :    0.035393
  12 C :   -0.024325
  13 H :    0.005603
  14 H :    0.029938
  15 H :    0.048061
  16 S :    0.089061
  17 C :   -0.079864
  18 C :   -0.032967
  19 C :   -0.051064
  20 C :   -0.126915
  21 H :    0.010943
  22 C :    0.055180
  23 H :    0.013990
  24 H :    0.047000
  25 C :   -0.123098
  26 H :    0.050286
  27 H :    0.036881
  28 C :   -0.042738
  29 H :    0.031986
  30 H :    0.050789
  31 H :    0.039453
  32 H :    0.056435
  33 H :    0.069717
Sum of atomic charges:   -0.0000000

LOEWDIN ATOMIC CHARGES
----------------------
   0 S :    0.380834
   1 C :   -0.185772
   2 C :   -0.063998
   3 C :   -0.041913
   4 C :   -0.188794
   5 H :    0.010765
   6 C :   -0.027350
   7 H :    0.022307
   8 H :    0.033306
   9 C :   -0.042183
  10 H :    0.025824
  11 H :    0.024684
  12 C :   -0.062576
  13 H :    0.013634
  14 H :    0.016616
  15 H :    0.039413
  16 S :    0.397396
  17 C :   -0.189587
  18 C :   -0.080050
  19 C :   -0.047666
  20 C :   -0.188449
  21 H :    0.026097
  22 C :   -0.034181
  23 H :    0.024954
  24 H :    0.037370
  25 C :   -0.044014
  26 H :    0.028742
  27 H :    0.024948
  28 C :   -0.066993
  29 H :    0.024158
  30 H :    0.033304
  31 H :    0.032757
  32 H :    0.031000
  33 H :    0.035416

  Mayer bond orders larger than 0.100000
B(  0-S ,  1-C ) :   1.1318 B(  0-S ,  4-C ) :   1.1393 B(  1-C ,  2-C ) :   1.6126
B(  1-C , 32-H ) :   0.9735 B(  2-C ,  3-C ) :   1.2263 B(  2-C ,  6-C ) :   1.0204
B(  3-C ,  4-C ) :   1.5782 B(  3-C ,  5-H ) :   1.0077 B(  4-C , 20-C ) :   1.0443
B(  6-C ,  7-H ) :   0.9478 B(  6-C ,  8-H ) :   0.9395 B(  6-C ,  9-C ) :   1.0678
B(  9-C , 10-H ) :   0.9580 B(  9-C , 11-H ) :   0.9571 B(  9-C , 12-C ) :   1.0754
B( 12-C , 13-H ) :   0.9730 B( 12-C , 14-H ) :   0.9737 B( 12-C , 15-H ) :   0.9733
B( 16-S , 17-C ) :   1.1713 B( 16-S , 20-C ) :   1.1230 B( 17-C , 18-C ) :   1.5877
B( 17-C , 33-H ) :   0.9622 B( 18-C , 19-C ) :   1.2455 B( 18-C , 21-H ) :   0.9917
B( 19-C , 20-C ) :   1.5953 B( 19-C , 22-C ) :   1.0212 B( 22-C , 23-H ) :   0.9342
B( 22-C , 24-H ) :   0.9368 B( 22-C , 25-C ) :   1.0670 B( 25-C , 26-H ) :   0.9483
B( 25-C , 27-H ) :   0.9590 B( 25-C , 28-C ) :   1.0776 B( 28-C , 29-H ) :   0.9731
B( 28-C , 30-H ) :   0.9761 B( 28-C , 31-H ) :   0.9734

Dispersion correction           -0.013912969
FINAL SINGLE POINT ENERGY     -1339.871621612904

DIPOLE MOMENT
-------------
                                X             Y             Z
Electronic contribution:    -15.25830      16.70997      -4.51649
Nuclear contribution   :     15.71668     -17.18718       4.79764
                        -----------------------------------------
Total Dipole Moment    :      0.45838      -0.47720       0.28114
                        -----------------------------------------
Magnitude (a.u.)       :      0.71894
Magnitude (Debye)      :      1.82739

Rotational constants in cm-1:     0.017785     0.008017     0.006780
Rotational constants in MHz :   533.189708   240.337940   203.252708

                             ****ORCA TERMINATED NORMALLY****
TOTAL RUN TIME: 0 days 0 hours 0 minutes 21 seconds 59 msec
