                         Program Version 4.2.1 -  RELEASE  -
|  1> ! wB97X-D3 SP def2-SVP
|  2> %pal
|  3> nprocs 24
|  4> end
|  5>
|  6> * xyz 0 1
|  7> S 	 -100.179 	 14.807 	 -125.316
|  8> C 	 -101.232 	 16.147 	 -124.784
|  9> C 	 -102.073 	 15.8034 	 -123.716
| 10> C 	 -101.912 	 14.4351 	 -123.339
| 11> C 	 -100.869 	 13.7929 	 -123.991
| 12> H 	 -102.365 	 13.8213 	 -122.529
| 13> C 	 -103.124 	 16.6893 	 -123.048
| 14> H 	 -103.95 	 15.9534 	 -122.99
| 15> H 	 -103.53 	 17.3941 	 -123.811
| 16> C 	 -102.733 	 17.3771 	 -121.731
| 17> H 	 -101.841 	 18.0126 	 -121.963
| 18> H 	 -103.58 	 17.9695 	 -121.425
| 19> C 	 -102.469 	 16.3812 	 -120.569
| 20> H 	 -101.544 	 15.8803 	 -120.745
| 21> H 	 -102.322 	 17.0061 	 -119.651
| 22> H 	 -103.326 	 15.7067 	 -120.362
| 23> S 	 -98.9479 	 12.1972 	 -122.792
| 24> C 	 -99.245 	 10.537 	 -122.763
| 25> C 	 -100.181 	 10.0926 	 -123.674
| 26> C 	 -100.912 	 11.1582 	 -124.241
| 27> C 	 -100.418 	 12.4141 	 -123.791
| 28> H 	 -100.161 	 9.03293 	 -124.021
| 29> C 	 -102.026 	 10.976 	 -125.293
| 30> H 	 -101.441 	 10.856 	 -126.258
| 31> H 	 -102.536 	 11.8684 	 -125.41
| 32> C 	 -103.04 	 9.88629 	 -124.95
| 33> H 	 -102.477 	 8.90335 	 -124.887
| 34> H 	 -103.687 	 9.74752 	 -125.791
| 35> C 	 -103.851 	 10.2384 	 -123.64
| 36> H 	 -104.254 	 11.2543 	 -123.698
| 37> H 	 -103.317 	 10.1645 	 -122.738
| 38> H 	 -104.712 	 9.5139 	 -123.535
| 39> H 	 -101.183 	 17.2046 	 -125.13
| 40> H 	 -98.5473 	 9.90228 	 -122.246
| 41> *
| 42>
| 43>                          ****END OF INPUT****

CARTESIAN COORDINATES (ANGSTROEM)
---------------------------------
  S    -100.179000   14.807000  -125.316000
  C    -101.232000   16.147000  -124.784000
  C    -102.073000   15.803400  -123.716000
  C    -101.912000   14.435100  -123.339000
  C    -100.869000   13.792900  -123.991000
  H    -102.365000   13.821300  -122.529000
  C    -103.124000   16.689300  -123.048000
  H    -103.950000   15.953400  -122.990000
  H    -103.530000   17.394100  -123.811000
  C    -102.733000   17.377100  -121.731000
  H    -101.841000   18.012600  -121.963000
  H    -103.580000   17.969500  -121.425000
  C    -102.469000   16.381200  -120.569000
  H    -101.544000   15.880300  -120.745000
  H    -102.322000   17.006100  -119.651000
  H    -103.326000   15.706700  -120.362000
  S    -98.947900   12.197200  -122.792000
  C    -99.245000   10.537000  -122.763000
  C    -100.181000   10.092600  -123.674000
  C    -100.912000   11.158200  -124.241000
  C    -100.418000   12.414100  -123.791000
  H    -100.161000    9.032930  -124.021000
  C    -102.026000   10.976000  -125.293000
  H    -101.441000   10.856000  -126.258000
  H    -102.536000   11.868400  -125.410000
  C    -103.040000    9.886290  -124.950000
  H    -102.477000    8.903350  -124.887000
  H    -103.687000    9.747520  -125.791000
  C    -103.851000   10.238400  -123.640000
  H    -104.254000   11.254300  -123.698000
  H    -103.317000   10.164500  -122.738000
  H    -104.712000    9.513900  -123.535000
  H    -101.183000   17.204600  -125.130000
  H    -98.547300    9.902280  -122.246000

 Total Charge           Charge          ....    0
 Multiplicity           Mult            ....    1
 Number of Electrons    NEL             ....  134
 Basis Dimension        Dim             ....  322

ORBITAL ENERGIES
----------------

  NO   OCC          E(Eh)            E(eV)
   0   2.0000     -88.965680     -2420.8792
   1   2.0000     -88.964826     -2420.8560
   2   2.0000     -10.328973      -281.0656
   3   2.0000     -10.325169      -280.9621
   4   2.0000     -10.319028      -280.7950
   5   2.0000     -10.312272      -280.6112
   6   2.0000     -10.308005      -280.4951
   7   2.0000     -10.302878      -280.3556
   8   2.0000     -10.296374      -280.1786
   9   2.0000     -10.295094      -280.1437
  10   2.0000     -10.293445      -280.0989
  11   2.0000     -10.292748      -280.0799
  12   2.0000     -10.291817      -280.0546
  13   2.0000     -10.290260      -280.0122
  14   2.0000     -10.280769      -279.7539
  15   2.0000     -10.280352      -279.7426
  16   2.0000      -8.080380      -219.8783
  17   2.0000      -8.078865      -219.8371
  18   2.0000      -6.038506      -164.3161
  19   2.0000      -6.037446      -164.2873
  20   2.0000      -6.034958      -164.2196
  21   2.0000      -6.033680      -164.1848
  22   2.0000      -6.031304      -164.1201
  23   2.0000      -6.029563      -164.0728
  24   2.0000      -1.000018       -27.2119
  25   2.0000      -0.976026       -26.5590
  26   2.0000      -0.906643       -24.6710
  27   2.0000      -0.905213       -24.6321
  28   2.0000      -0.860938       -23.4273
  29   2.0000      -0.845366       -23.0036
  30   2.0000      -0.841290       -22.8927
  31   2.0000      -0.807682       -21.9781
  32   2.0000      -0.783869       -21.3302
  33   2.0000      -0.767831       -20.8937
  34   2.0000      -0.706254       -19.2181
  35   2.0000      -0.699345       -19.0302
  36   2.0000      -0.691969       -18.8294
  37   2.0000      -0.648106       -17.6359
  38   2.0000      -0.634102       -17.2548
  39   2.0000      -0.609139       -16.5755
  40   2.0000      -0.595632       -16.2080
  41   2.0000      -0.570237       -15.5169
  42   2.0000      -0.548151       -14.9160
  43   2.0000      -0.540952       -14.7201
  44   2.0000      -0.537716       -14.6320
  45   2.0000      -0.534008       -14.5311
  46   2.0000      -0.509945       -13.8763
  47   2.0000      -0.507874       -13.8199
  48   2.0000      -0.494548       -13.4573
  49   2.0000      -0.489852       -13.3296
  50   2.0000      -0.483613       -13.1598
  51   2.0000      -0.473750       -12.8914
  52   2.0000      -0.472306       -12.8521
  53   2.0000      -0.462503       -12.5854
  54   2.0000      -0.458100       -12.4655
  55   2.0000      -0.452546       -12.3144
  56   2.0000      -0.441408       -12.0113
  57   2.0000      -0.435570       -11.8525
  58   2.0000      -0.431614       -11.7448
  59   2.0000      -0.422724       -11.5029
  60   2.0000      -0.421912       -11.4808
  61   2.0000      -0.417511       -11.3611
  62   2.0000      -0.415933       -11.3181
  63   2.0000      -0.336213        -9.1488
  64   2.0000      -0.328799        -8.9471
  65   2.0000      -0.316348        -8.6083
  66   2.0000      -0.302379        -8.2282
  67   0.0000       0.042378         1.1532
  68   0.0000       0.047430         1.2906
  69   0.0000       0.106372         2.8945
  70   0.0000       0.112568         3.0631
  71   0.0000       0.127226         3.4620

MULLIKEN ATOMIC CHARGES
-----------------------
   0 S :    0.100993
   1 C :   -0.127766
   2 C :   -0.102811
   3 C :    0.039703
   4 C :   -0.187129
   5 H :    0.033385
   6 C :    0.031617
   7 H :    0.027363
   8 H :    0.027798
   9 C :   -0.046150
  10 H :    0.042874
  11 H :    0.033073
  12 C :   -0.073034
  13 H :    0.046822
  14 H :    0.036884
  15 H :    0.041657
  16 S :    0.123277
  17 C :   -0.088434
  18 C :   -0.063541
  19 C :   -0.024338
  20 C :   -0.220785
  21 H :    0.043325
  22 C :    0.093757
  23 H :    0.053150
  24 H :    0.005419
  25 C :   -0.072624
  26 H :    0.032657
  27 H :    0.027765
  28 C :   -0.055601
  29 H :    0.033720
  30 H :    0.036977
  31 H :    0.039764
  32 H :    0.058653
  33 H :    0.051579
Sum of atomic charges:    0.0000000

LOEWDIN ATOMIC CHARGES
----------------------
   0 S :    0.364433
   1 C :   -0.196405
   2 C :   -0.068514
   3 C :   -0.063723
   4 C :   -0.186461
   5 H :    0.042872
   6 C :   -0.042161
   7 H :    0.033269
   8 H :    0.032845
   9 C :   -0.038138
  10 H :    0.032980
  11 H :    0.023723
  12 C :   -0.067862
  13 H :    0.022924
  14 H :    0.031764
  15 H :    0.028731
  16 S :    0.423881
  17 C :   -0.194310
  18 C :   -0.088301
  19 C :   -0.041711
  20 C :   -0.210017
  21 H :    0.041657
  22 C :   -0.028308
  23 H :    0.045884
  24 H :    0.017964
  25 C :   -0.040329
  26 H :    0.026642
  27 H :    0.021746
  28 C :   -0.062479
  29 H :    0.026933
  30 H :    0.019934
  31 H :    0.033135
  32 H :    0.035486
  33 H :    0.021916

  Mayer bond orders larger than 0.100000
B(  0-S ,  1-C ) :   1.1293 B(  0-S ,  4-C ) :   1.1241 B(  1-C ,  2-C ) :   1.6405
B(  1-C ,  4-C ) :   0.1014 B(  1-C , 32-H ) :   0.9585 B(  2-C ,  3-C ) :   1.2089
B(  2-C ,  6-C ) :   0.9993 B(  3-C ,  4-C ) :   1.6296 B(  3-C ,  5-H ) :   0.9799
B(  4-C , 20-C ) :   1.0222 B(  6-C ,  7-H ) :   0.9446 B(  6-C ,  8-H ) :   0.9440
B(  6-C ,  9-C ) :   1.0626 B(  9-C , 10-H ) :   0.9538 B(  9-C , 11-H ) :   0.9551
B(  9-C , 12-C ) :   1.0815 B( 12-C , 13-H ) :   0.9738 B( 12-C , 14-H ) :   0.9730
B( 12-C , 15-H ) :   0.9745 B( 16-S , 17-C ) :   1.1987 B( 16-S , 20-C ) :   1.1476
B( 17-C , 18-C ) :   1.5796 B( 17-C , 20-C ) :   0.1083 B( 17-C , 33-H ) :   0.9646
B( 18-C , 19-C ) :   1.2605 B( 18-C , 21-H ) :   0.9807 B( 19-C , 20-C ) :   1.5710
B( 19-C , 22-C ) :   1.0261 B( 22-C , 23-H ) :   0.9347 B( 22-C , 24-H ) :   0.9312
B( 22-C , 25-C ) :   1.0730 B( 25-C , 26-H ) :   0.9545 B( 25-C , 27-H ) :   0.9573
B( 25-C , 28-C ) :   1.0590 B( 28-C , 29-H ) :   0.9760 B( 28-C , 30-H ) :   0.9769
B( 28-C , 31-H ) :   0.9763

Dispersion correction           -0.015069431
FINAL SINGLE POINT ENERGY     -1339.874261927655

DIPOLE MOMENT
-------------
                                X             Y             Z
Electronic contribution:     21.02241      -0.14829      -7.78978
Nuclear contribution   :    -21.43733       0.02569       7.90439
                        -----------------------------------------
Total Dipole Moment    :     -0.41492      -0.12260       0.11461
                        -----------------------------------------
Magnitude (a.u.)       :      0.44758
Magnitude (Debye)      :      1.13765

Rotational constants in cm-1:     0.018383     0.008320     0.007730
Rotational constants in MHz :   551.107058   249.416000   231.733499

                             ****ORCA TERMINATED NORMALLY****
TOTAL RUN TIME: 0 days 0 hours 0 minutes 21 seconds 545 msec
