                         Program Version 4.2.1 -  RELEASE  -
|  1> ! wB97X-D3 SP def2-SVP
|  2> %pal
|  3> nprocs 24
|  4> end
|  5>
|  6> * xyz 0 1
|  7> S 	 -31.627 	 -8.72189 	 14.8024
|  8> C 	 -32.6909 	 -8.23812 	 16.0865
|  9> C 	 -34.0158 	 -8.61942 	 15.8814
| 10> C 	 -34.1558 	 -9.2082 	 14.584
| 11> C 	 -33.0454 	 -9.11603 	 13.8203
| 12> H 	 -35.0171 	 -9.71643 	 14.2601
| 13> C 	 -35.24 	 -8.44083 	 16.8476
| 14> H 	 -35.2876 	 -9.25213 	 17.5408
| 15> H 	 -36.2191 	 -8.3811 	 16.3785
| 16> C 	 -35.1687 	 -7.12108 	 17.7733
| 17> H 	 -36.0111 	 -7.08636 	 18.4673
| 18> H 	 -34.192 	 -7.18071 	 18.2942
| 19> C 	 -35.2871 	 -5.78132 	 17.0445
| 20> H 	 -34.6761 	 -5.69573 	 16.2082
| 21> H 	 -36.2895 	 -5.84773 	 16.6083
| 22> H 	 -35.2236 	 -4.89566 	 17.6002
| 23> S 	 -31.6472 	 -10.7705 	 12.109
| 24> C 	 -31.9597 	 -10.6872 	 10.3728
| 25> C 	 -32.912 	 -9.72897 	 10.1251
| 26> C 	 -33.4022 	 -9.07253 	 11.2626
| 27> C 	 -32.8714 	 -9.5048 	 12.4777
| 28> H 	 -33.3486 	 -9.49472 	 9.09403
| 29> C 	 -34.3935 	 -7.96349 	 10.9935
| 30> H 	 -35.0441 	 -7.98037 	 11.8471
| 31> H 	 -35.1074 	 -8.23624 	 10.15
| 32> C 	 -33.8963 	 -6.47258 	 10.852
| 33> H 	 -33.237 	 -6.31554 	 9.99066
| 34> H 	 -33.4744 	 -6.1673 	 11.8426
| 35> C 	 -35.1064 	 -5.58482 	 10.6799
| 36> H 	 -35.2108 	 -4.8912 	 11.5083
| 37> H 	 -35.9561 	 -6.20763 	 10.6987
| 38> H 	 -35.1764 	 -5.1832 	 9.66565
| 39> H 	 -32.3774 	 -7.80017 	 17.0937
| 40> H 	 -31.479 	 -11.3359 	 9.62501
| 41> *
| 42>
| 43>                          ****END OF INPUT****

CARTESIAN COORDINATES (ANGSTROEM)
---------------------------------
  S    -31.627000   -8.721890   14.802400
  C    -32.690900   -8.238120   16.086500
  C    -34.015800   -8.619420   15.881400
  C    -34.155800   -9.208200   14.584000
  C    -33.045400   -9.116030   13.820300
  H    -35.017100   -9.716430   14.260100
  C    -35.240000   -8.440830   16.847600
  H    -35.287600   -9.252130   17.540800
  H    -36.219100   -8.381100   16.378500
  C    -35.168700   -7.121080   17.773300
  H    -36.011100   -7.086360   18.467300
  H    -34.192000   -7.180710   18.294200
  C    -35.287100   -5.781320   17.044500
  H    -34.676100   -5.695730   16.208200
  H    -36.289500   -5.847730   16.608300
  H    -35.223600   -4.895660   17.600200
  S    -31.647200  -10.770500   12.109000
  C    -31.959700  -10.687200   10.372800
  C    -32.912000   -9.728970   10.125100
  C    -33.402200   -9.072530   11.262600
  C    -32.871400   -9.504800   12.477700
  H    -33.348600   -9.494720    9.094030
  C    -34.393500   -7.963490   10.993500
  H    -35.044100   -7.980370   11.847100
  H    -35.107400   -8.236240   10.150000
  C    -33.896300   -6.472580   10.852000
  H    -33.237000   -6.315540    9.990660
  H    -33.474400   -6.167300   11.842600
  C    -35.106400   -5.584820   10.679900
  H    -35.210800   -4.891200   11.508300
  H    -35.956100   -6.207630   10.698700
  H    -35.176400   -5.183200    9.665650
  H    -32.377400   -7.800170   17.093700
  H    -31.479000  -11.335900    9.625010

 Total Charge           Charge          ....    0
 Multiplicity           Mult            ....    1
 Number of Electrons    NEL             ....  134
 Basis Dimension        Dim             ....  322

ORBITAL ENERGIES
----------------

  NO   OCC          E(Eh)            E(eV)
   0   2.0000     -88.968693     -2420.9612
   1   2.0000     -88.963749     -2420.8267
   2   2.0000     -10.327554      -281.0270
   3   2.0000     -10.325403      -280.9685
   4   2.0000     -10.321513      -280.8627
   5   2.0000     -10.321152      -280.8528
   6   2.0000     -10.308334      -280.5040
   7   2.0000     -10.302887      -280.3558
   8   2.0000     -10.300153      -280.2814
   9   2.0000     -10.294718      -280.1335
  10   2.0000     -10.293936      -280.1122
  11   2.0000     -10.292997      -280.0867
  12   2.0000     -10.290935      -280.0306
  13   2.0000     -10.287589      -279.9395
  14   2.0000     -10.267576      -279.3949
  15   2.0000     -10.265691      -279.3437
  16   2.0000      -8.083463      -219.9622
  17   2.0000      -8.077692      -219.8052
  18   2.0000      -6.042033      -164.4121
  19   2.0000      -6.038231      -164.3086
  20   2.0000      -6.036320      -164.2566
  21   2.0000      -6.033864      -164.1898
  22   2.0000      -6.032255      -164.1460
  23   2.0000      -6.028416      -164.0415
  24   2.0000      -1.009105       -27.4591
  25   2.0000      -0.982652       -26.7393
  26   2.0000      -0.906200       -24.6590
  27   2.0000      -0.903464       -24.5845
  28   2.0000      -0.871999       -23.7283
  29   2.0000      -0.855517       -23.2798
  30   2.0000      -0.849485       -23.1157
  31   2.0000      -0.812244       -22.1023
  32   2.0000      -0.783112       -21.3096
  33   2.0000      -0.766863       -20.8674
  34   2.0000      -0.706813       -19.2334
  35   2.0000      -0.700430       -19.0597
  36   2.0000      -0.691117       -18.8062
  37   2.0000      -0.661536       -18.0013
  38   2.0000      -0.638962       -17.3870
  39   2.0000      -0.617484       -16.8026
  40   2.0000      -0.596112       -16.2210
  41   2.0000      -0.574317       -15.6280
  42   2.0000      -0.568910       -15.4808
  43   2.0000      -0.551976       -15.0200
  44   2.0000      -0.540337       -14.7033
  45   2.0000      -0.518335       -14.1046
  46   2.0000      -0.517137       -14.0720
  47   2.0000      -0.508765       -13.8442
  48   2.0000      -0.504529       -13.7289
  49   2.0000      -0.498969       -13.5776
  50   2.0000      -0.487445       -13.2641
  51   2.0000      -0.481198       -13.0941
  52   2.0000      -0.475572       -12.9410
  53   2.0000      -0.461413       -12.5557
  54   2.0000      -0.457054       -12.4371
  55   2.0000      -0.450359       -12.2549
  56   2.0000      -0.440244       -11.9797
  57   2.0000      -0.438200       -11.9240
  58   2.0000      -0.427721       -11.6389
  59   2.0000      -0.425513       -11.5788
  60   2.0000      -0.418162       -11.3788
  61   2.0000      -0.415064       -11.2945
  62   2.0000      -0.410416       -11.1680
  63   2.0000      -0.346828        -9.4377
  64   2.0000      -0.331169        -9.0116
  65   2.0000      -0.330671        -8.9980
  66   2.0000      -0.291250        -7.9253
  67   0.0000       0.026566         0.7229
  68   0.0000       0.058158         1.5826
  69   0.0000       0.103842         2.8257
  70   0.0000       0.125263         3.4086
  71   0.0000       0.128344         3.4924

MULLIKEN ATOMIC CHARGES
-----------------------
   0 S :    0.120801
   1 C :   -0.141957
   2 C :   -0.084357
   3 C :    0.047906
   4 C :   -0.159309
   5 H :    0.001675
   6 C :    0.074608
   7 H :    0.039970
   8 H :    0.027306
   9 C :   -0.124262
  10 H :    0.035894
  11 H :    0.030606
  12 C :   -0.005114
  13 H :    0.016451
  14 H :    0.009924
  15 H :    0.031617
  16 S :    0.084467
  17 C :   -0.098272
  18 C :   -0.045352
  19 C :   -0.015465
  20 C :   -0.155039
  21 H :    0.040754
  22 C :    0.014015
  23 H :    0.005958
  24 H :    0.032887
  25 C :   -0.065785
  26 H :    0.037797
  27 H :    0.044257
  28 C :   -0.013729
  29 H :    0.038969
  30 H :    0.000460
  31 H :    0.030932
  32 H :    0.070844
  33 H :    0.070546
Sum of atomic charges:   -0.0000000

LOEWDIN ATOMIC CHARGES
----------------------
   0 S :    0.404396
   1 C :   -0.210540
   2 C :   -0.063789
   3 C :   -0.048209
   4 C :   -0.188955
   5 H :    0.027230
   6 C :   -0.022193
   7 H :    0.031252
   8 H :    0.027418
   9 C :   -0.037633
  10 H :    0.026076
  11 H :    0.017877
  12 C :   -0.061685
  13 H :    0.014999
  14 H :    0.026645
  15 H :    0.020781
  16 S :    0.376416
  17 C :   -0.180259
  18 C :   -0.082075
  19 C :   -0.060199
  20 C :   -0.187077
  21 H :    0.043460
  22 C :   -0.041207
  23 H :    0.023716
  24 H :    0.033811
  25 C :   -0.036959
  26 H :    0.024631
  27 H :    0.034743
  28 C :   -0.065369
  29 H :    0.028918
  30 H :    0.016163
  31 H :    0.029275
  32 H :    0.041362
  33 H :    0.036984

  Mayer bond orders larger than 0.100000
B(  0-S ,  1-C ) :   1.1361 B(  0-S ,  4-C ) :   1.1185 B(  1-C ,  2-C ) :   1.6317
B(  1-C , 32-H ) :   0.9533 B(  2-C ,  3-C ) :   1.2287 B(  2-C ,  6-C ) :   0.9970
B(  3-C ,  4-C ) :   1.6009 B(  3-C ,  5-H ) :   1.0048 B(  4-C , 20-C ) :   1.0767
B(  6-C ,  7-H ) :   0.9380 B(  6-C ,  8-H ) :   0.9558 B(  6-C ,  9-C ) :   1.0720
B(  9-C , 10-H ) :   0.9621 B(  9-C , 11-H ) :   0.9564 B(  9-C , 12-C ) :   1.0673
B( 12-C , 13-H ) :   0.9758 B( 12-C , 14-H ) :   0.9715 B( 12-C , 15-H ) :   0.9769
B( 16-S , 17-C ) :   1.1503 B( 16-S , 20-C ) :   1.1191 B( 17-C , 18-C ) :   1.5867
B( 17-C , 20-C ) :   0.1072 B( 17-C , 33-H ) :   0.9654 B( 18-C , 19-C ) :   1.2711
B( 18-C , 21-H ) :   0.9759 B( 19-C , 20-C ) :   1.5851 B( 19-C , 22-C ) :   1.0424
B( 22-C , 23-H ) :   0.9238 B( 22-C , 24-H ) :   0.9376 B( 22-C , 25-C ) :   1.0726
B( 25-C , 26-H ) :   0.9629 B( 25-C , 27-H ) :   0.9606 B( 25-C , 28-C ) :   1.0704
B( 28-C , 29-H ) :   0.9767 B( 28-C , 30-H ) :   0.9703 B( 28-C , 31-H ) :   0.9722

Dispersion correction           -0.013848734
FINAL SINGLE POINT ENERGY     -1339.853661437787

DIPOLE MOMENT
-------------
                                X             Y             Z
Electronic contribution:     21.02594     -21.00286      -3.73239
Nuclear contribution   :    -21.67580      21.21682       3.72543
                        -----------------------------------------
Total Dipole Moment    :     -0.64985       0.21396      -0.00697
                        -----------------------------------------
Magnitude (a.u.)       :      0.68421
Magnitude (Debye)      :      1.73911

Rotational constants in cm-1:     0.018335     0.008872     0.006657
Rotational constants in MHz :   549.682738   265.961458   199.577398

                             ****ORCA TERMINATED NORMALLY****
TOTAL RUN TIME: 0 days 0 hours 0 minutes 20 seconds 252 msec
