                         Program Version 4.2.1 -  RELEASE  -
|  1> ! wB97X-D3 SP def2-SVP
|  2> %pal
|  3> nprocs 24
|  4> end
|  5>
|  6> * xyz 0 1
|  7> S 	 -59.7563 	 4.40335 	 -23.3318
|  8> C 	 -61.3823 	 4.84787 	 -23.8643
|  9> C 	 -62.3475 	 4.09588 	 -23.2932
| 10> C 	 -61.806 	 3.12583 	 -22.3657
| 11> C 	 -60.4778 	 3.15695 	 -22.2439
| 12> H 	 -62.3843 	 2.37827 	 -21.9503
| 13> C 	 -63.8251 	 4.13867 	 -23.6017
| 14> H 	 -64.1027 	 3.24108 	 -24.0285
| 15> H 	 -63.958 	 4.8181 	 -24.4082
| 16> C 	 -64.798 	 4.35405 	 -22.4629
| 17> H 	 -64.6306 	 3.59321 	 -21.6235
| 18> H 	 -64.6316 	 5.36105 	 -22.0962
| 19> C 	 -66.2914 	 4.37611 	 -22.9934
| 20> H 	 -66.4236 	 5.04315 	 -23.763
| 21> H 	 -66.5986 	 3.31904 	 -23.3064
| 22> H 	 -66.9606 	 4.68859 	 -22.1706
| 23> S 	 -58.316 	 1.46565 	 -22.7716
| 24> C 	 -57.7226 	 0.369334 	 -21.5337
| 25> C 	 -58.5243 	 0.510311 	 -20.3816
| 26> C 	 -59.538 	 1.54579 	 -20.4854
| 27> C 	 -59.5714 	 2.14548 	 -21.7175
| 28> H 	 -58.3128 	 -0.140293 	 -19.4798
| 29> C 	 -60.2934 	 1.87956 	 -19.2226
| 30> H 	 -60.2109 	 1.01503 	 -18.6468
| 31> H 	 -61.2707 	 2.13102 	 -19.4836
| 32> C 	 -59.6007 	 2.91315 	 -18.4194
| 33> H 	 -59.5204 	 3.80714 	 -19.0888
| 34> H 	 -58.5496 	 2.78358 	 -18.29
| 35> C 	 -60.2711 	 3.2865 	 -17.1108
| 36> H 	 -61.3715 	 3.31267 	 -17.2636
| 37> H 	 -59.959 	 4.26782 	 -16.7507
| 38> H 	 -60.2002 	 2.57356 	 -16.32
| 39> H 	 -61.5778 	 5.52235 	 -24.7281
| 40> H 	 -56.9839 	 -0.4571 	 -21.5777
| 41> *
| 42>
| 43>                          ****END OF INPUT****

CARTESIAN COORDINATES (ANGSTROEM)
---------------------------------
  S    -59.756300    4.403350  -23.331800
  C    -61.382300    4.847870  -23.864300
  C    -62.347500    4.095880  -23.293200
  C    -61.806000    3.125830  -22.365700
  C    -60.477800    3.156950  -22.243900
  H    -62.384300    2.378270  -21.950300
  C    -63.825100    4.138670  -23.601700
  H    -64.102700    3.241080  -24.028500
  H    -63.958000    4.818100  -24.408200
  C    -64.798000    4.354050  -22.462900
  H    -64.630600    3.593210  -21.623500
  H    -64.631600    5.361050  -22.096200
  C    -66.291400    4.376110  -22.993400
  H    -66.423600    5.043150  -23.763000
  H    -66.598600    3.319040  -23.306400
  H    -66.960600    4.688590  -22.170600
  S    -58.316000    1.465650  -22.771600
  C    -57.722600    0.369334  -21.533700
  C    -58.524300    0.510311  -20.381600
  C    -59.538000    1.545790  -20.485400
  C    -59.571400    2.145480  -21.717500
  H    -58.312800   -0.140293  -19.479800
  C    -60.293400    1.879560  -19.222600
  H    -60.210900    1.015030  -18.646800
  H    -61.270700    2.131020  -19.483600
  C    -59.600700    2.913150  -18.419400
  H    -59.520400    3.807140  -19.088800
  H    -58.549600    2.783580  -18.290000
  C    -60.271100    3.286500  -17.110800
  H    -61.371500    3.312670  -17.263600
  H    -59.959000    4.267820  -16.750700
  H    -60.200200    2.573560  -16.320000
  H    -61.577800    5.522350  -24.728100
  H    -56.983900   -0.457100  -21.577700

 Total Charge           Charge          ....    0
 Multiplicity           Mult            ....    1
 Number of Electrons    NEL             ....  134
 Basis Dimension        Dim             ....  322

ORBITAL ENERGIES
----------------

  NO   OCC          E(Eh)            E(eV)
   0   2.0000     -88.967456     -2420.9276
   1   2.0000     -88.962131     -2420.7826
   2   2.0000     -10.330847      -281.1166
   3   2.0000     -10.327795      -281.0336
   4   2.0000     -10.323259      -280.9102
   5   2.0000     -10.315237      -280.6919
   6   2.0000     -10.301475      -280.3174
   7   2.0000     -10.300648      -280.2949
   8   2.0000     -10.298973      -280.2493
   9   2.0000     -10.295877      -280.1651
  10   2.0000     -10.289142      -279.9818
  11   2.0000     -10.285335      -279.8782
  12   2.0000     -10.282548      -279.8024
  13   2.0000     -10.278560      -279.6939
  14   2.0000     -10.277414      -279.6626
  15   2.0000     -10.274972      -279.5962
  16   2.0000      -8.081238      -219.9017
  17   2.0000      -8.076309      -219.7675
  18   2.0000      -6.039962      -164.3557
  19   2.0000      -6.035773      -164.2417
  20   2.0000      -6.035000      -164.2207
  21   2.0000      -6.031891      -164.1361
  22   2.0000      -6.031077      -164.1140
  23   2.0000      -6.026718      -163.9953
  24   2.0000      -1.005015       -27.3478
  25   2.0000      -0.981096       -26.6970
  26   2.0000      -0.919345       -25.0166
  27   2.0000      -0.913590       -24.8600
  28   2.0000      -0.869811       -23.6688
  29   2.0000      -0.850622       -23.1466
  30   2.0000      -0.843179       -22.9441
  31   2.0000      -0.816950       -22.2304
  32   2.0000      -0.784296       -21.3418
  33   2.0000      -0.775217       -21.0947
  34   2.0000      -0.710884       -19.3441
  35   2.0000      -0.701458       -19.0876
  36   2.0000      -0.693443       -18.8695
  37   2.0000      -0.661937       -18.0122
  38   2.0000      -0.643938       -17.5224
  39   2.0000      -0.628379       -17.0991
  40   2.0000      -0.594599       -16.1799
  41   2.0000      -0.574485       -15.6325
  42   2.0000      -0.567160       -15.4332
  43   2.0000      -0.556962       -15.1557
  44   2.0000      -0.526999       -14.3404
  45   2.0000      -0.524121       -14.2621
  46   2.0000      -0.517081       -14.0705
  47   2.0000      -0.512067       -13.9340
  48   2.0000      -0.509012       -13.8509
  49   2.0000      -0.501465       -13.6455
  50   2.0000      -0.490217       -13.3395
  51   2.0000      -0.488817       -13.3014
  52   2.0000      -0.472954       -12.8697
  53   2.0000      -0.468610       -12.7515
  54   2.0000      -0.456431       -12.4201
  55   2.0000      -0.446589       -12.1523
  56   2.0000      -0.441898       -12.0246
  57   2.0000      -0.440937       -11.9985
  58   2.0000      -0.439900       -11.9703
  59   2.0000      -0.425380       -11.5752
  60   2.0000      -0.419124       -11.4050
  61   2.0000      -0.415911       -11.3175
  62   2.0000      -0.402983       -10.9657
  63   2.0000      -0.353874        -9.6294
  64   2.0000      -0.330276        -8.9873
  65   2.0000      -0.326253        -8.8778
  66   2.0000      -0.295965        -8.0536
  67   0.0000       0.030335         0.8255
  68   0.0000       0.069746         1.8979
  69   0.0000       0.106556         2.8995
  70   0.0000       0.125376         3.4117
  71   0.0000       0.128584         3.4989

MULLIKEN ATOMIC CHARGES
-----------------------
   0 S :    0.075443
   1 C :   -0.135536
   2 C :   -0.081423
   3 C :    0.057290
   4 C :   -0.131560
   5 H :   -0.011995
   6 C :    0.127315
   7 H :    0.003384
   8 H :   -0.005928
   9 C :   -0.106793
  10 H :    0.047706
  11 H :    0.030881
  12 C :   -0.054476
  13 H :    0.021776
  14 H :    0.041163
  15 H :    0.042099
  16 S :    0.111090
  17 C :   -0.101791
  18 C :   -0.078710
  19 C :   -0.085585
  20 C :   -0.140095
  21 H :    0.043915
  22 C :    0.193051
  23 H :   -0.006088
  24 H :   -0.000641
  25 C :   -0.087593
  26 H :    0.021417
  27 H :    0.014744
  28 C :   -0.011586
  29 H :    0.017986
  30 H :    0.037143
  31 H :    0.021712
  32 H :    0.059945
  33 H :    0.071741
Sum of atomic charges:   -0.0000000

LOEWDIN ATOMIC CHARGES
----------------------
   0 S :    0.359814
   1 C :   -0.189807
   2 C :   -0.059358
   3 C :   -0.047463
   4 C :   -0.163319
   5 H :    0.020192
   6 C :   -0.031053
   7 H :    0.022160
   8 H :    0.025144
   9 C :   -0.037918
  10 H :    0.031255
  11 H :    0.022884
  12 C :   -0.060289
  13 H :    0.011588
  14 H :    0.031445
  15 H :    0.031067
  16 S :    0.397234
  17 C :   -0.198020
  18 C :   -0.079998
  19 C :   -0.053442
  20 C :   -0.196818
  21 H :    0.039464
  22 C :   -0.016951
  23 H :    0.023075
  24 H :    0.020758
  25 C :   -0.045950
  26 H :    0.030507
  27 H :    0.021866
  28 C :   -0.063503
  29 H :    0.027709
  30 H :    0.029878
  31 H :    0.018491
  32 H :    0.036774
  33 H :    0.042580

  Mayer bond orders larger than 0.100000
B(  0-S ,  1-C ) :   1.1069 B(  0-S ,  4-C ) :   1.1080 B(  1-C ,  2-C ) :   1.6877
B(  1-C , 32-H ) :   0.9546 B(  2-C ,  3-C ) :   1.1859 B(  2-C ,  6-C ) :   1.0264
B(  3-C ,  4-C ) :   1.6459 B(  3-C ,  5-H ) :   1.0006 B(  4-C , 20-C ) :   1.0327
B(  6-C ,  7-H ) :   0.9275 B(  6-C ,  8-H ) :   0.9326 B(  6-C ,  9-C ) :   1.0580
B(  9-C , 10-H ) :   0.9556 B(  9-C , 11-H ) :   0.9565 B(  9-C , 12-C ) :   1.0768
B( 12-C , 13-H ) :   0.9767 B( 12-C , 14-H ) :   0.9766 B( 12-C , 15-H ) :   0.9765
B( 16-S , 17-C ) :   1.1461 B( 16-S , 20-C ) :   1.1200 B( 17-C , 18-C ) :   1.6249
B( 17-C , 33-H ) :   0.9613 B( 18-C , 19-C ) :   1.2384 B( 18-C , 21-H ) :   0.9736
B( 19-C , 20-C ) :   1.6156 B( 19-C , 22-C ) :   1.0492 B( 22-C , 23-H ) :   0.9174
B( 22-C , 24-H ) :   0.9139 B( 22-C , 25-C ) :   1.0829 B( 25-C , 26-H ) :   0.9487
B( 25-C , 27-H ) :   0.9494 B( 25-C , 28-C ) :   1.0793 B( 28-C , 29-H ) :   0.9703
B( 28-C , 30-H ) :   0.9730 B( 28-C , 31-H ) :   0.9744

Dispersion correction           -0.013569959
FINAL SINGLE POINT ENERGY     -1339.865618443103

DIPOLE MOMENT
-------------
                                X             Y             Z
Electronic contribution:     23.09696      -4.34264     -15.93371
Nuclear contribution   :    -23.70020       4.13479      16.19015
                        -----------------------------------------
Total Dipole Moment    :     -0.60323      -0.20785       0.25644
                        -----------------------------------------
Magnitude (a.u.)       :      0.68764
Magnitude (Debye)      :      1.74785

Rotational constants in cm-1:     0.017501     0.008231     0.006505
Rotational constants in MHz :   524.663941   246.747419   195.010729

                             ****ORCA TERMINATED NORMALLY****
TOTAL RUN TIME: 0 days 0 hours 0 minutes 20 seconds 153 msec
