                         Program Version 4.2.1 -  RELEASE  -
|  1> ! wB97X-D3 SP def2-SVP
|  2> %pal
|  3> nprocs 24
|  4> end
|  5>
|  6> * xyz 0 1
|  7> S 	 -113.919 	 17.1964 	 -115.659
|  8> C 	 -113.48 	 17.5132 	 -117.322
|  9> C 	 -113.906 	 16.5058 	 -118.18
| 10> C 	 -114.383 	 15.4124 	 -117.392
| 11> C 	 -114.486 	 15.5957 	 -116.027
| 12> H 	 -114.559 	 14.3921 	 -117.735
| 13> C 	 -113.73 	 16.4054 	 -119.669
| 14> H 	 -114.74 	 16.4208 	 -120.101
| 15> H 	 -113.294 	 15.4591 	 -119.937
| 16> C 	 -112.977 	 17.5901 	 -120.268
| 17> H 	 -113.497 	 18.5936 	 -120.032
| 18> H 	 -111.973 	 17.5988 	 -119.989
| 19> C 	 -113.008 	 17.4654 	 -121.8
| 20> H 	 -112.348 	 16.7093 	 -122.195
| 21> H 	 -114.046 	 17.2664 	 -122.09
| 22> H 	 -112.709 	 18.4986 	 -122.025
| 23> S 	 -114.125 	 14.6885 	 -113.478
| 24> C 	 -115.098 	 13.4063 	 -112.824
| 25> C 	 -116.133 	 13.0786 	 -113.678
| 26> C 	 -116.016 	 13.8069 	 -114.992
| 27> C 	 -114.951 	 14.6537 	 -114.976
| 28> H 	 -116.965 	 12.4156 	 -113.384
| 29> C 	 -117.105 	 13.7479 	 -116.065
| 30> H 	 -116.737 	 14.1674 	 -116.98
| 31> H 	 -117.95 	 14.3273 	 -115.625
| 32> C 	 -117.75 	 12.413 	 -116.404
| 33> H 	 -118.455 	 12.5735 	 -117.164
| 34> H 	 -118.398 	 12.0398 	 -115.612
| 35> C 	 -116.759 	 11.378 	 -116.954
| 36> H 	 -116.127 	 11.1284 	 -116.079
| 37> H 	 -116.311 	 11.8025 	 -117.831
| 38> H 	 -117.311 	 10.4824 	 -117.303
| 39> H 	 -113.093 	 18.4288 	 -117.717
| 40> H 	 -115.113 	 13.1353 	 -111.741
| 41> *
| 42>
| 43>                          ****END OF INPUT****

CARTESIAN COORDINATES (ANGSTROEM)
---------------------------------
  S    -113.919000   17.196400  -115.659000
  C    -113.480000   17.513200  -117.322000
  C    -113.906000   16.505800  -118.180000
  C    -114.383000   15.412400  -117.392000
  C    -114.486000   15.595700  -116.027000
  H    -114.559000   14.392100  -117.735000
  C    -113.730000   16.405400  -119.669000
  H    -114.740000   16.420800  -120.101000
  H    -113.294000   15.459100  -119.937000
  C    -112.977000   17.590100  -120.268000
  H    -113.497000   18.593600  -120.032000
  H    -111.973000   17.598800  -119.989000
  C    -113.008000   17.465400  -121.800000
  H    -112.348000   16.709300  -122.195000
  H    -114.046000   17.266400  -122.090000
  H    -112.709000   18.498600  -122.025000
  S    -114.125000   14.688500  -113.478000
  C    -115.098000   13.406300  -112.824000
  C    -116.133000   13.078600  -113.678000
  C    -116.016000   13.806900  -114.992000
  C    -114.951000   14.653700  -114.976000
  H    -116.965000   12.415600  -113.384000
  C    -117.105000   13.747900  -116.065000
  H    -116.737000   14.167400  -116.980000
  H    -117.950000   14.327300  -115.625000
  C    -117.750000   12.413000  -116.404000
  H    -118.455000   12.573500  -117.164000
  H    -118.398000   12.039800  -115.612000
  C    -116.759000   11.378000  -116.954000
  H    -116.127000   11.128400  -116.079000
  H    -116.311000   11.802500  -117.831000
  H    -117.311000   10.482400  -117.303000
  H    -113.093000   18.428800  -117.717000
  H    -115.113000   13.135300  -111.741000

 Total Charge           Charge          ....    0
 Multiplicity           Mult            ....    1
 Number of Electrons    NEL             ....  134
 Basis Dimension        Dim             ....  322

ORBITAL ENERGIES
----------------

  NO   OCC          E(Eh)            E(eV)
   0   2.0000     -88.964536     -2420.8481
   1   2.0000     -88.963258     -2420.8133
   2   2.0000     -10.328327      -281.0481
   3   2.0000     -10.324952      -280.9562
   4   2.0000     -10.320713      -280.8409
   5   2.0000     -10.311483      -280.5897
   6   2.0000     -10.307883      -280.4917
   7   2.0000     -10.303863      -280.3824
   8   2.0000     -10.300193      -280.2825
   9   2.0000     -10.292962      -280.0857
  10   2.0000     -10.291807      -280.0543
  11   2.0000     -10.289815      -280.0001
  12   2.0000     -10.289114      -279.9810
  13   2.0000     -10.279161      -279.7102
  14   2.0000     -10.278581      -279.6944
  15   2.0000     -10.277123      -279.6547
  16   2.0000      -8.079343      -219.8501
  17   2.0000      -8.079213      -219.8466
  18   2.0000      -6.037889      -164.2993
  19   2.0000      -6.037829      -164.2977
  20   2.0000      -6.033793      -164.1878
  21   2.0000      -6.033605      -164.1827
  22   2.0000      -6.030122      -164.0880
  23   2.0000      -6.029714      -164.0768
  24   2.0000      -1.008659       -27.4470
  25   2.0000      -0.985421       -26.8147
  26   2.0000      -0.918981       -25.0068
  27   2.0000      -0.912011       -24.8171
  28   2.0000      -0.869106       -23.6496
  29   2.0000      -0.852468       -23.1968
  30   2.0000      -0.842211       -22.9177
  31   2.0000      -0.814729       -22.1699
  32   2.0000      -0.782168       -21.2839
  33   2.0000      -0.774203       -21.0671
  34   2.0000      -0.709363       -19.3027
  35   2.0000      -0.700608       -19.0645
  36   2.0000      -0.683721       -18.6050
  37   2.0000      -0.658856       -17.9284
  38   2.0000      -0.637597       -17.3499
  39   2.0000      -0.613366       -16.6905
  40   2.0000      -0.594683       -16.1821
  41   2.0000      -0.582672       -15.8553
  42   2.0000      -0.567491       -15.4422
  43   2.0000      -0.553132       -15.0515
  44   2.0000      -0.549655       -14.9569
  45   2.0000      -0.529310       -14.4032
  46   2.0000      -0.520227       -14.1561
  47   2.0000      -0.509996       -13.8777
  48   2.0000      -0.504959       -13.7406
  49   2.0000      -0.501656       -13.6508
  50   2.0000      -0.490271       -13.3409
  51   2.0000      -0.479361       -13.0441
  52   2.0000      -0.473748       -12.8913
  53   2.0000      -0.463329       -12.6078
  54   2.0000      -0.459052       -12.4914
  55   2.0000      -0.445326       -12.1179
  56   2.0000      -0.442234       -12.0338
  57   2.0000      -0.438656       -11.9364
  58   2.0000      -0.433235       -11.7889
  59   2.0000      -0.431768       -11.7490
  60   2.0000      -0.420946       -11.4545
  61   2.0000      -0.412922       -11.2362
  62   2.0000      -0.409055       -11.1310
  63   2.0000      -0.353686        -9.6243
  64   2.0000      -0.328086        -8.9277
  65   2.0000      -0.324580        -8.8323
  66   2.0000      -0.293445        -7.9851
  67   0.0000       0.033389         0.9086
  68   0.0000       0.079558         2.1649
  69   0.0000       0.110609         3.0098
  70   0.0000       0.118510         3.2248
  71   0.0000       0.130666         3.5556

MULLIKEN ATOMIC CHARGES
-----------------------
   0 S :    0.106899
   1 C :   -0.110541
   2 C :   -0.088704
   3 C :   -0.002310
   4 C :   -0.137140
   5 H :    0.010872
   6 C :    0.088278
   7 H :    0.032141
   8 H :    0.031567
   9 C :   -0.144964
  10 H :    0.048237
  11 H :    0.029289
  12 C :   -0.018555
  13 H :    0.039236
  14 H :    0.025101
  15 H :    0.034591
  16 S :    0.104201
  17 C :   -0.099293
  18 C :   -0.050882
  19 C :   -0.077267
  20 C :   -0.134050
  21 H :    0.036501
  22 C :    0.081342
  23 H :    0.010408
  24 H :    0.050416
  25 C :   -0.073756
  26 H :    0.008920
  27 H :    0.017722
  28 C :   -0.049580
  29 H :    0.054568
  30 H :    0.027477
  31 H :    0.033958
  32 H :    0.036991
  33 H :    0.078327
Sum of atomic charges:   -0.0000000

LOEWDIN ATOMIC CHARGES
----------------------
   0 S :    0.405903
   1 C :   -0.198526
   2 C :   -0.062516
   3 C :   -0.073566
   4 C :   -0.192954
   5 H :    0.027680
   6 C :   -0.031642
   7 H :    0.037035
   8 H :    0.031991
   9 C :   -0.040900
  10 H :    0.033911
  11 H :    0.015829
  12 C :   -0.058149
  13 H :    0.022554
  14 H :    0.022694
  15 H :    0.031131
  16 S :    0.417537
  17 C :   -0.198727
  18 C :   -0.072246
  19 C :   -0.056559
  20 C :   -0.210905
  21 H :    0.035483
  22 C :   -0.028116
  23 H :    0.024254
  24 H :    0.046165
  25 C :   -0.046419
  26 H :    0.018026
  27 H :    0.018650
  28 C :   -0.063660
  29 H :    0.032857
  30 H :    0.021377
  31 H :    0.028328
  32 H :    0.022163
  33 H :    0.041318

  Mayer bond orders larger than 0.100000
B(  0-S ,  1-C ) :   1.1330 B(  0-S ,  4-C ) :   1.1481 B(  1-C ,  2-C ) :   1.6236
B(  1-C , 32-H ) :   0.9598 B(  2-C ,  3-C ) :   1.2409 B(  2-C ,  6-C ) :   1.0154
B(  3-C ,  4-C ) :   1.6039 B(  3-C ,  5-H ) :   0.9849 B(  4-C , 20-C ) :   1.0155
B(  6-C ,  7-H ) :   0.9236 B(  6-C ,  8-H ) :   0.9422 B(  6-C ,  9-C ) :   1.0900
B(  9-C , 10-H ) :   0.9545 B(  9-C , 11-H ) :   0.9510 B(  9-C , 12-C ) :   1.0743
B( 12-C , 13-H ) :   0.9759 B( 12-C , 14-H ) :   0.9762 B( 12-C , 15-H ) :   0.9775
B( 16-S , 17-C ) :   1.1440 B( 16-S , 20-C ) :   1.1349 B( 17-C , 18-C ) :   1.6435
B( 17-C , 33-H ) :   0.9594 B( 18-C , 19-C ) :   1.1920 B( 18-C , 21-H ) :   0.9833
B( 19-C , 20-C ) :   1.6406 B( 19-C , 22-C ) :   1.0411 B( 22-C , 23-H ) :   0.9327
B( 22-C , 24-H ) :   0.9282 B( 22-C , 25-C ) :   1.0884 B( 25-C , 26-H ) :   0.9488
B( 25-C , 27-H ) :   0.9483 B( 25-C , 28-C ) :   1.0755 B( 28-C , 29-H ) :   0.9757
B( 28-C , 30-H ) :   0.9743 B( 28-C , 31-H ) :   0.9735

Dispersion correction           -0.013717030
FINAL SINGLE POINT ENERGY     -1339.876951161793

DIPOLE MOMENT
-------------
                                X             Y             Z
Electronic contribution:      7.17734       7.05688      26.51593
Nuclear contribution   :     -7.60315      -7.25571     -27.05556
                        -----------------------------------------
Total Dipole Moment    :     -0.42581      -0.19882      -0.53963
                        -----------------------------------------
Magnitude (a.u.)       :      0.71558
Magnitude (Debye)      :      1.81885

Rotational constants in cm-1:     0.020794     0.007736     0.005942
Rotational constants in MHz :   623.388059   231.912215   178.143262

                             ****ORCA TERMINATED NORMALLY****
TOTAL RUN TIME: 0 days 0 hours 0 minutes 21 seconds 225 msec
