                         Program Version 4.2.1 -  RELEASE  -
|  1> ! wB97X-D3 SP def2-SVP
|  2> %pal
|  3> nprocs 24
|  4> end
|  5>
|  6> * xyz 0 1
|  7> S 	 -115.749 	 38.5582 	 -122.307
|  8> C 	 -115.032 	 37.0369 	 -121.777
|  9> C 	 -115.774 	 35.9742 	 -122.204
| 10> C 	 -116.933 	 36.3367 	 -122.929
| 11> C 	 -117.046 	 37.6859 	 -123.116
| 12> H 	 -117.757 	 35.8344 	 -123.291
| 13> C 	 -115.496 	 34.4888 	 -121.948
| 14> H 	 -114.427 	 34.4458 	 -121.969
| 15> H 	 -115.731 	 33.9684 	 -122.83
| 16> C 	 -116.05 	 33.8981 	 -120.646
| 17> H 	 -115.814 	 32.8502 	 -120.614
| 18> H 	 -115.522 	 34.2929 	 -119.76
| 19> C 	 -117.581 	 34.0729 	 -120.414
| 20> H 	 -117.963 	 33.5327 	 -119.61
| 21> H 	 -117.759 	 35.2232 	 -120.37
| 22> H 	 -117.998 	 33.7227 	 -121.345
| 23> S 	 -117.549 	 39.0095 	 -125.454
| 24> C 	 -119.139 	 39.6017 	 -125.824
| 25> C 	 -119.944 	 39.5331 	 -124.702
| 26> C 	 -119.363 	 38.7985 	 -123.567
| 27> C 	 -118.076 	 38.4054 	 -123.867
| 28> H 	 -120.964 	 39.9907 	 -124.771
| 29> C 	 -120.072 	 38.7907 	 -122.169
| 30> H 	 -120.887 	 39.4749 	 -122.208
| 31> H 	 -119.462 	 39.1051 	 -121.345
| 32> C 	 -120.622 	 37.3993 	 -121.821
| 33> H 	 -121.134 	 37.3585 	 -120.892
| 34> H 	 -119.772 	 36.7549 	 -121.588
| 35> C 	 -121.678 	 36.9174 	 -122.847
| 36> H 	 -122.462 	 37.6481 	 -122.837
| 37> H 	 -122.113 	 35.9954 	 -122.402
| 38> H 	 -121.383 	 36.8502 	 -123.895
| 39> H 	 -114.083 	 36.923 	 -121.386
| 40> H 	 -119.558 	 39.9563 	 -126.808
| 41> *
| 42>
| 43>                          ****END OF INPUT****

CARTESIAN COORDINATES (ANGSTROEM)
---------------------------------
  S    -115.749000   38.558200  -122.307000
  C    -115.032000   37.036900  -121.777000
  C    -115.774000   35.974200  -122.204000
  C    -116.933000   36.336700  -122.929000
  C    -117.046000   37.685900  -123.116000
  H    -117.757000   35.834400  -123.291000
  C    -115.496000   34.488800  -121.948000
  H    -114.427000   34.445800  -121.969000
  H    -115.731000   33.968400  -122.830000
  C    -116.050000   33.898100  -120.646000
  H    -115.814000   32.850200  -120.614000
  H    -115.522000   34.292900  -119.760000
  C    -117.581000   34.072900  -120.414000
  H    -117.963000   33.532700  -119.610000
  H    -117.759000   35.223200  -120.370000
  H    -117.998000   33.722700  -121.345000
  S    -117.549000   39.009500  -125.454000
  C    -119.139000   39.601700  -125.824000
  C    -119.944000   39.533100  -124.702000
  C    -119.363000   38.798500  -123.567000
  C    -118.076000   38.405400  -123.867000
  H    -120.964000   39.990700  -124.771000
  C    -120.072000   38.790700  -122.169000
  H    -120.887000   39.474900  -122.208000
  H    -119.462000   39.105100  -121.345000
  C    -120.622000   37.399300  -121.821000
  H    -121.134000   37.358500  -120.892000
  H    -119.772000   36.754900  -121.588000
  C    -121.678000   36.917400  -122.847000
  H    -122.462000   37.648100  -122.837000
  H    -122.113000   35.995400  -122.402000
  H    -121.383000   36.850200  -123.895000
  H    -114.083000   36.923000  -121.386000
  H    -119.558000   39.956300  -126.808000

 Total Charge           Charge          ....    0
 Multiplicity           Mult            ....    1
 Number of Electrons    NEL             ....  134
 Basis Dimension        Dim             ....  322

ORBITAL ENERGIES
----------------

  NO   OCC          E(Eh)            E(eV)
   0   2.0000     -88.964975     -2420.8600
   1   2.0000     -88.964574     -2420.8491
   2   2.0000     -10.328670      -281.0574
   3   2.0000     -10.325930      -280.9828
   4   2.0000     -10.321165      -280.8532
   5   2.0000     -10.312848      -280.6269
   6   2.0000     -10.308503      -280.5086
   7   2.0000     -10.299840      -280.2729
   8   2.0000     -10.298997      -280.2499
   9   2.0000     -10.291223      -280.0384
  10   2.0000     -10.287169      -279.9281
  11   2.0000     -10.286822      -279.9186
  12   2.0000     -10.284670      -279.8601
  13   2.0000     -10.280590      -279.7491
  14   2.0000     -10.278914      -279.7035
  15   2.0000     -10.275778      -279.6181
  16   2.0000      -8.079390      -219.8514
  17   2.0000      -8.079201      -219.8462
  18   2.0000      -6.037895      -164.2995
  19   2.0000      -6.037797      -164.2968
  20   2.0000      -6.033925      -164.1915
  21   2.0000      -6.033709      -164.1856
  22   2.0000      -6.030197      -164.0900
  23   2.0000      -6.029864      -164.0809
  24   2.0000      -1.005445       -27.3595
  25   2.0000      -0.982440       -26.7336
  26   2.0000      -0.909124       -24.7385
  27   2.0000      -0.906102       -24.6563
  28   2.0000      -0.868458       -23.6319
  29   2.0000      -0.846588       -23.0368
  30   2.0000      -0.840940       -22.8831
  31   2.0000      -0.816564       -22.2198
  32   2.0000      -0.785671       -21.3792
  33   2.0000      -0.776566       -21.1314
  34   2.0000      -0.709257       -19.2999
  35   2.0000      -0.702950       -19.1282
  36   2.0000      -0.690151       -18.7800
  37   2.0000      -0.655305       -17.8318
  38   2.0000      -0.652128       -17.7453
  39   2.0000      -0.610340       -16.6082
  40   2.0000      -0.587989       -16.0000
  41   2.0000      -0.571160       -15.5421
  42   2.0000      -0.554286       -15.0829
  43   2.0000      -0.551645       -15.0110
  44   2.0000      -0.547501       -14.8983
  45   2.0000      -0.541079       -14.7235
  46   2.0000      -0.519659       -14.1406
  47   2.0000      -0.508337       -13.8326
  48   2.0000      -0.501693       -13.6518
  49   2.0000      -0.491743       -13.3810
  50   2.0000      -0.483384       -13.1535
  51   2.0000      -0.482367       -13.1259
  52   2.0000      -0.473151       -12.8751
  53   2.0000      -0.467367       -12.7177
  54   2.0000      -0.461770       -12.5654
  55   2.0000      -0.448041       -12.1918
  56   2.0000      -0.438269       -11.9259
  57   2.0000      -0.435321       -11.8457
  58   2.0000      -0.431986       -11.7549
  59   2.0000      -0.425237       -11.5713
  60   2.0000      -0.416071       -11.3219
  61   2.0000      -0.413908       -11.2630
  62   2.0000      -0.409541       -11.1442
  63   2.0000      -0.337179        -9.1751
  64   2.0000      -0.328745        -8.9456
  65   2.0000      -0.326668        -8.8891
  66   2.0000      -0.309945        -8.4340
  67   0.0000       0.043364         1.1800
  68   0.0000       0.052098         1.4176
  69   0.0000       0.109376         2.9763
  70   0.0000       0.123199         3.3524
  71   0.0000       0.128571         3.4986

MULLIKEN ATOMIC CHARGES
-----------------------
   0 S :    0.109313
   1 C :   -0.086718
   2 C :   -0.107879
   3 C :    0.084464
   4 C :   -0.185404
   5 H :   -0.018340
   6 C :    0.114249
   7 H :    0.007163
   8 H :    0.013552
   9 C :   -0.059151
  10 H :    0.023077
  11 H :    0.025270
  12 C :   -0.061220
  13 H :    0.034313
  14 H :    0.066295
  15 H :    0.022761
  16 S :    0.114989
  17 C :   -0.107666
  18 C :   -0.075424
  19 C :    0.000577
  20 C :   -0.205943
  21 H :    0.037711
  22 C :    0.110429
  23 H :    0.005477
  24 H :    0.032764
  25 C :   -0.082778
  26 H :    0.012968
  27 H :    0.028249
  28 C :   -0.048997
  29 H :    0.012541
  30 H :    0.037847
  31 H :    0.049726
  32 H :    0.018031
  33 H :    0.077755
Sum of atomic charges:   -0.0000000

LOEWDIN ATOMIC CHARGES
----------------------
   0 S :    0.394666
   1 C :   -0.181908
   2 C :   -0.059770
   3 C :   -0.054020
   4 C :   -0.190307
   5 H :    0.023073
   6 C :   -0.026690
   7 H :    0.030222
   8 H :    0.024895
   9 C :   -0.037527
  10 H :    0.020278
  11 H :    0.023742
  12 C :   -0.062760
  13 H :    0.017095
  14 H :    0.039610
  15 H :    0.020446
  16 S :    0.402288
  17 C :   -0.202897
  18 C :   -0.084056
  19 C :   -0.046631
  20 C :   -0.194743
  21 H :    0.037127
  22 C :   -0.017435
  23 H :    0.022377
  24 H :    0.030967
  25 C :   -0.042749
  26 H :    0.019754
  27 H :    0.021422
  28 C :   -0.064827
  29 H :    0.019671
  30 H :    0.031715
  31 H :    0.025662
  32 H :    0.014945
  33 H :    0.046366

  Mayer bond orders larger than 0.100000
B(  0-S ,  1-C ) :   1.1274 B(  0-S ,  4-C ) :   1.1512 B(  1-C ,  2-C ) :   1.6395
B(  1-C , 32-H ) :   0.9739 B(  2-C ,  3-C ) :   1.1959 B(  2-C ,  6-C ) :   1.0095
B(  3-C ,  4-C ) :   1.6161 B(  3-C ,  5-H ) :   1.0079 B(  4-C , 20-C ) :   1.0024
B(  6-C ,  7-H ) :   0.9303 B(  6-C ,  8-H ) :   0.9390 B(  6-C ,  9-C ) :   1.0734
B(  9-C , 10-H ) :   0.9547 B(  9-C , 11-H ) :   0.9554 B(  9-C , 12-C ) :   1.0749
B( 12-C , 13-H ) :   0.9745 B( 12-C , 14-H ) :   0.9696 B( 12-C , 15-H ) :   0.9767
B( 16-S , 17-C ) :   1.1446 B( 16-S , 20-C ) :   1.1423 B( 17-C , 18-C ) :   1.6475
B( 17-C , 33-H ) :   0.9580 B( 18-C , 19-C ) :   1.2046 B( 18-C , 21-H ) :   0.9758
B( 19-C , 20-C ) :   1.6325 B( 19-C , 22-C ) :   1.0204 B( 22-C , 23-H ) :   0.9391
B( 22-C , 24-H ) :   0.9431 B( 22-C , 25-C ) :   1.0824 B( 25-C , 26-H ) :   0.9521
B( 25-C , 27-H ) :   0.9559 B( 25-C , 28-C ) :   1.0615 B( 28-C , 29-H ) :   0.9729
B( 28-C , 30-H ) :   0.9755 B( 28-C , 31-H ) :   0.9762

Dispersion correction           -0.015747890
FINAL SINGLE POINT ENERGY     -1339.865325138662

DIPOLE MOMENT
-------------
                                X             Y             Z
Electronic contribution:     14.29031      18.68464     -14.23760
Nuclear contribution   :    -14.64042     -19.05704      14.47571
                        -----------------------------------------
Total Dipole Moment    :     -0.35011      -0.37239       0.23811
                        -----------------------------------------
Magnitude (a.u.)       :      0.56387
Magnitude (Debye)      :      1.43323

Rotational constants in cm-1:     0.018864     0.009797     0.007446
Rotational constants in MHz :   565.524041   293.695529   223.226143

                             ****ORCA TERMINATED NORMALLY****
TOTAL RUN TIME: 0 days 0 hours 0 minutes 21 seconds 246 msec
