                         Program Version 4.2.1 -  RELEASE  -
|  1> ! wB97X-D3 SP def2-SVP
|  2> %pal
|  3> nprocs 24
|  4> end
|  5>
|  6> * xyz 0 1
|  7> S 	 -118.883 	 24.3875 	 -115.421
|  8> C 	 -118.332 	 24.2005 	 -117.058
|  9> C 	 -118.634 	 25.3318 	 -117.816
| 10> C 	 -119.227 	 26.3908 	 -117.089
| 11> C 	 -119.391 	 26.075 	 -115.8
| 12> H 	 -119.358 	 27.3529 	 -117.568
| 13> C 	 -118.217 	 25.5394 	 -119.237
| 14> H 	 -117.768 	 24.5452 	 -119.529
| 15> H 	 -117.549 	 26.4195 	 -119.201
| 16> C 	 -119.313 	 25.8328 	 -120.302
| 17> H 	 -119.992 	 26.6116 	 -119.937
| 18> H 	 -118.73 	 26.2634 	 -121.121
| 19> C 	 -120.194 	 24.6476 	 -120.789
| 20> H 	 -120.863 	 24.9778 	 -121.574
| 21> H 	 -119.601 	 23.7902 	 -121.164
| 22> H 	 -120.75 	 24.215 	 -119.991
| 23> S 	 -121.752 	 27.1934 	 -114.881
| 24> C 	 -121.663 	 28.2325 	 -113.469
| 25> C 	 -120.387 	 28.2811 	 -112.907
| 26> C 	 -119.414 	 27.6201 	 -113.763
| 27> C 	 -119.962 	 26.9819 	 -114.862
| 28> H 	 -120.116 	 28.6996 	 -111.942
| 29> C 	 -118.001 	 27.4537 	 -113.265
| 30> H 	 -117.594 	 26.4948 	 -113.561
| 31> H 	 -118.157 	 27.5369 	 -112.192
| 32> C 	 -117.054 	 28.6184 	 -113.648
| 33> H 	 -116.172 	 28.5229 	 -113.077
| 34> H 	 -117.516 	 29.5856 	 -113.442
| 35> C 	 -116.625 	 28.7263 	 -115.114
| 36> H 	 -116.181 	 27.7247 	 -115.386
| 37> H 	 -115.758 	 29.3998 	 -115.265
| 38> H 	 -117.48 	 28.9414 	 -115.827
| 39> H 	 -117.791 	 23.3758 	 -117.439
| 40> H 	 -122.489 	 28.5822 	 -112.861
| 41> *
| 42>
| 43>                          ****END OF INPUT****

CARTESIAN COORDINATES (ANGSTROEM)
---------------------------------
  S    -118.883000   24.387500  -115.421000
  C    -118.332000   24.200500  -117.058000
  C    -118.634000   25.331800  -117.816000
  C    -119.227000   26.390800  -117.089000
  C    -119.391000   26.075000  -115.800000
  H    -119.358000   27.352900  -117.568000
  C    -118.217000   25.539400  -119.237000
  H    -117.768000   24.545200  -119.529000
  H    -117.549000   26.419500  -119.201000
  C    -119.313000   25.832800  -120.302000
  H    -119.992000   26.611600  -119.937000
  H    -118.730000   26.263400  -121.121000
  C    -120.194000   24.647600  -120.789000
  H    -120.863000   24.977800  -121.574000
  H    -119.601000   23.790200  -121.164000
  H    -120.750000   24.215000  -119.991000
  S    -121.752000   27.193400  -114.881000
  C    -121.663000   28.232500  -113.469000
  C    -120.387000   28.281100  -112.907000
  C    -119.414000   27.620100  -113.763000
  C    -119.962000   26.981900  -114.862000
  H    -120.116000   28.699600  -111.942000
  C    -118.001000   27.453700  -113.265000
  H    -117.594000   26.494800  -113.561000
  H    -118.157000   27.536900  -112.192000
  C    -117.054000   28.618400  -113.648000
  H    -116.172000   28.522900  -113.077000
  H    -117.516000   29.585600  -113.442000
  C    -116.625000   28.726300  -115.114000
  H    -116.181000   27.724700  -115.386000
  H    -115.758000   29.399800  -115.265000
  H    -117.480000   28.941400  -115.827000
  H    -117.791000   23.375800  -117.439000
  H    -122.489000   28.582200  -112.861000

 Total Charge           Charge          ....    0
 Multiplicity           Mult            ....    1
 Number of Electrons    NEL             ....  134
 Basis Dimension        Dim             ....  322

ORBITAL ENERGIES
----------------

  NO   OCC          E(Eh)            E(eV)
   0   2.0000     -88.968547     -2420.9573
   1   2.0000     -88.965574     -2420.8763
   2   2.0000     -10.325339      -280.9668
   3   2.0000     -10.322186      -280.8810
   4   2.0000     -10.320307      -280.8298
   5   2.0000     -10.312173      -280.6085
   6   2.0000     -10.301695      -280.3234
   7   2.0000     -10.297398      -280.2064
   8   2.0000     -10.295835      -280.1639
   9   2.0000     -10.294266      -280.1212
  10   2.0000     -10.290402      -280.0161
  11   2.0000     -10.289162      -279.9823
  12   2.0000     -10.288498      -279.9643
  13   2.0000     -10.281118      -279.7634
  14   2.0000     -10.280885      -279.7571
  15   2.0000     -10.276808      -279.6462
  16   2.0000      -8.082407      -219.9335
  17   2.0000      -8.079380      -219.8511
  18   2.0000      -6.040976      -164.3833
  19   2.0000      -6.037997      -164.3023
  20   2.0000      -6.037137      -164.2789
  21   2.0000      -6.034087      -164.1959
  22   2.0000      -6.033050      -164.1676
  23   2.0000      -6.030003      -164.0847
  24   2.0000      -1.004722       -27.3399
  25   2.0000      -0.978956       -26.6387
  26   2.0000      -0.906688       -24.6722
  27   2.0000      -0.905821       -24.6487
  28   2.0000      -0.872575       -23.7440
  29   2.0000      -0.850117       -23.1329
  30   2.0000      -0.844994       -22.9934
  31   2.0000      -0.813503       -22.1366
  32   2.0000      -0.780527       -21.2392
  33   2.0000      -0.768250       -20.9051
  34   2.0000      -0.709952       -19.3188
  35   2.0000      -0.696307       -18.9475
  36   2.0000      -0.687516       -18.7082
  37   2.0000      -0.665000       -18.0956
  38   2.0000      -0.640282       -17.4229
  39   2.0000      -0.619243       -16.8504
  40   2.0000      -0.591927       -16.1071
  41   2.0000      -0.562220       -15.2988
  42   2.0000      -0.552888       -15.0448
  43   2.0000      -0.547951       -14.9105
  44   2.0000      -0.543407       -14.7868
  45   2.0000      -0.536506       -14.5991
  46   2.0000      -0.518504       -14.1092
  47   2.0000      -0.507956       -13.8222
  48   2.0000      -0.504490       -13.7279
  49   2.0000      -0.496696       -13.5158
  50   2.0000      -0.487453       -13.2643
  51   2.0000      -0.474640       -12.9156
  52   2.0000      -0.471179       -12.8214
  53   2.0000      -0.466393       -12.6912
  54   2.0000      -0.451350       -12.2819
  55   2.0000      -0.449829       -12.2405
  56   2.0000      -0.444775       -12.1029
  57   2.0000      -0.439763       -11.9665
  58   2.0000      -0.432143       -11.7592
  59   2.0000      -0.422073       -11.4852
  60   2.0000      -0.415426       -11.3043
  61   2.0000      -0.414536       -11.2801
  62   2.0000      -0.411724       -11.2036
  63   2.0000      -0.342149        -9.3104
  64   2.0000      -0.328753        -8.9458
  65   2.0000      -0.320561        -8.7229
  66   2.0000      -0.302982        -8.2446
  67   0.0000       0.037196         1.0122
  68   0.0000       0.054827         1.4919
  69   0.0000       0.099535         2.7085
  70   0.0000       0.111689         3.0392
  71   0.0000       0.125481         3.4145

MULLIKEN ATOMIC CHARGES
-----------------------
   0 S :    0.116932
   1 C :   -0.117122
   2 C :   -0.078419
   3 C :    0.029046
   4 C :   -0.140463
   5 H :    0.022223
   6 C :    0.037165
   7 H :    0.020258
   8 H :    0.045221
   9 C :   -0.082424
  10 H :    0.028350
  11 H :    0.032009
  12 C :   -0.044231
  13 H :    0.041229
  14 H :    0.025798
  15 H :    0.033138
  16 S :    0.109023
  17 C :   -0.075862
  18 C :   -0.046429
  19 C :   -0.047843
  20 C :   -0.183817
  21 H :    0.025492
  22 C :    0.095100
  23 H :    0.022480
  24 H :    0.019335
  25 C :   -0.045554
  26 H :    0.021301
  27 H :    0.022483
  28 C :   -0.092916
  29 H :    0.025751
  30 H :    0.039583
  31 H :    0.050570
  32 H :    0.032835
  33 H :    0.059758
Sum of atomic charges:    0.0000000

LOEWDIN ATOMIC CHARGES
----------------------
   0 S :    0.388985
   1 C :   -0.198394
   2 C :   -0.068373
   3 C :   -0.050610
   4 C :   -0.180714
   5 H :    0.036829
   6 C :   -0.036422
   7 H :    0.033714
   8 H :    0.038498
   9 C :   -0.042192
  10 H :    0.022282
  11 H :    0.025862
  12 C :   -0.065165
  13 H :    0.028669
  14 H :    0.025815
  15 H :    0.023279
  16 S :    0.385151
  17 C :   -0.183197
  18 C :   -0.070725
  19 C :   -0.049004
  20 C :   -0.192054
  21 H :    0.031508
  22 C :   -0.024379
  23 H :    0.023272
  24 H :    0.034020
  25 C :   -0.037877
  26 H :    0.018737
  27 H :    0.023280
  28 C :   -0.077403
  29 H :    0.025810
  30 H :    0.028319
  31 H :    0.030058
  32 H :    0.020911
  33 H :    0.031510

  Mayer bond orders larger than 0.100000
B(  0-S ,  1-C ) :   1.1261 B(  0-S ,  4-C ) :   1.1158 B(  1-C ,  2-C ) :   1.6183
B(  1-C , 32-H ) :   0.9695 B(  2-C ,  3-C ) :   1.2245 B(  2-C ,  6-C ) :   1.0311
B(  3-C ,  4-C ) :   1.5928 B(  3-C ,  5-H ) :   0.9944 B(  4-C , 20-C ) :   1.0640
B(  6-C ,  7-H ) :   0.9399 B(  6-C ,  8-H ) :   0.9391 B(  6-C ,  9-C ) :   1.0681
B(  9-C , 10-H ) :   0.9560 B(  9-C , 11-H ) :   0.9569 B(  9-C , 12-C ) :   1.0732
B( 12-C , 13-H ) :   0.9749 B( 12-C , 14-H ) :   0.9738 B( 12-C , 15-H ) :   0.9771
B( 16-S , 17-C ) :   1.1535 B( 16-S , 20-C ) :   1.1091 B( 17-C , 18-C ) :   1.6252
B( 17-C , 33-H ) :   0.9610 B( 18-C , 19-C ) :   1.2354 B( 18-C , 21-H ) :   0.9792
B( 19-C , 20-C ) :   1.6102 B( 19-C , 22-C ) :   1.0359 B( 22-C , 23-H ) :   0.9350
B( 22-C , 24-H ) :   0.9297 B( 22-C , 25-C ) :   1.0751 B( 25-C , 26-H ) :   0.9537
B( 25-C , 27-H ) :   0.9546 B( 25-C , 28-C ) :   1.0801 B( 28-C , 29-H ) :   0.9735
B( 28-C , 30-H ) :   0.9732 B( 28-C , 31-H ) :   0.9732

Dispersion correction           -0.015210221
FINAL SINGLE POINT ENERGY     -1339.880119890655

DIPOLE MOMENT
-------------
                                X             Y             Z
Electronic contribution:    -12.81478      -5.82190      14.12100
Nuclear contribution   :     13.16877       5.98885     -14.18705
                        -----------------------------------------
Total Dipole Moment    :      0.35399       0.16695      -0.06606
                        -----------------------------------------
Magnitude (a.u.)       :      0.39692
Magnitude (Debye)      :      1.00889

Rotational constants in cm-1:     0.020032     0.008566     0.007537
Rotational constants in MHz :   600.547512   256.799732   225.961766

                             ****ORCA TERMINATED NORMALLY****
TOTAL RUN TIME: 0 days 0 hours 0 minutes 22 seconds 160 msec
