                         Program Version 4.2.1 -  RELEASE  -
|  1> ! wB97X-D3 SP def2-SVP
|  2> %pal
|  3> nprocs 24
|  4> end
|  5>
|  6> * xyz 0 1
|  7> S 	 -52.1311 	 -48.3815 	 -80.6524
|  8> C 	 -50.7048 	 -49.2423 	 -81.0353
|  9> C 	 -50.9967 	 -50.304 	 -81.7965
| 10> C 	 -52.433 	 -50.3507 	 -82.1126
| 11> C 	 -53.2 	 -49.4448 	 -81.4626
| 12> H 	 -52.8046 	 -51.2256 	 -82.5765
| 13> C 	 -50.017 	 -51.4381 	 -82.1481
| 14> H 	 -49.0351 	 -50.9445 	 -82.128
| 15> H 	 -50.2512 	 -51.7666 	 -83.1553
| 16> C 	 -49.9063 	 -52.6339 	 -81.1161
| 17> H 	 -49.1002 	 -53.2549 	 -81.3603
| 18> H 	 -49.9558 	 -52.2418 	 -80.1003
| 19> C 	 -51.2147 	 -53.5277 	 -81.1339
| 20> H 	 -52.1046 	 -52.8708 	 -81.0182
| 21> H 	 -51.3339 	 -54.0442 	 -82.0987
| 22> H 	 -51.1164 	 -54.291 	 -80.3466
| 23> S 	 -55.2322 	 -49.2717 	 -79.595
| 24> C 	 -56.8301 	 -49.425 	 -80.1491
| 25> C 	 -56.8687 	 -49.489 	 -81.5094
| 26> C 	 -55.6303 	 -49.3245 	 -82.1531
| 27> C 	 -54.6472 	 -49.3121 	 -81.2447
| 28> H 	 -57.795 	 -49.6121 	 -82.1246
| 29> C 	 -55.3607 	 -49.6936 	 -83.6174
| 30> H 	 -56.3075 	 -49.8392 	 -84.0654
| 31> H 	 -54.8956 	 -50.6513 	 -83.8348
| 32> C 	 -54.7026 	 -48.5836 	 -84.4906
| 33> H 	 -53.7637 	 -48.2815 	 -84.0058
| 34> H 	 -55.2275 	 -47.6734 	 -84.5139
| 35> C 	 -54.4286 	 -49.0772 	 -85.9539
| 36> H 	 -53.5657 	 -49.8018 	 -85.9707
| 37> H 	 -54.22 	 -48.1559 	 -86.5352
| 38> H 	 -55.2772 	 -49.5051 	 -86.4496
| 39> H 	 -49.6768 	 -49.0707 	 -80.6525
| 40> H 	 -57.5853 	 -49.6013 	 -79.4694
| 41> *
| 42>
| 43>                          ****END OF INPUT****

CARTESIAN COORDINATES (ANGSTROEM)
---------------------------------
  S    -52.131100  -48.381500  -80.652400
  C    -50.704800  -49.242300  -81.035300
  C    -50.996700  -50.304000  -81.796500
  C    -52.433000  -50.350700  -82.112600
  C    -53.200000  -49.444800  -81.462600
  H    -52.804600  -51.225600  -82.576500
  C    -50.017000  -51.438100  -82.148100
  H    -49.035100  -50.944500  -82.128000
  H    -50.251200  -51.766600  -83.155300
  C    -49.906300  -52.633900  -81.116100
  H    -49.100200  -53.254900  -81.360300
  H    -49.955800  -52.241800  -80.100300
  C    -51.214700  -53.527700  -81.133900
  H    -52.104600  -52.870800  -81.018200
  H    -51.333900  -54.044200  -82.098700
  H    -51.116400  -54.291000  -80.346600
  S    -55.232200  -49.271700  -79.595000
  C    -56.830100  -49.425000  -80.149100
  C    -56.868700  -49.489000  -81.509400
  C    -55.630300  -49.324500  -82.153100
  C    -54.647200  -49.312100  -81.244700
  H    -57.795000  -49.612100  -82.124600
  C    -55.360700  -49.693600  -83.617400
  H    -56.307500  -49.839200  -84.065400
  H    -54.895600  -50.651300  -83.834800
  C    -54.702600  -48.583600  -84.490600
  H    -53.763700  -48.281500  -84.005800
  H    -55.227500  -47.673400  -84.513900
  C    -54.428600  -49.077200  -85.953900
  H    -53.565700  -49.801800  -85.970700
  H    -54.220000  -48.155900  -86.535200
  H    -55.277200  -49.505100  -86.449600
  H    -49.676800  -49.070700  -80.652500
  H    -57.585300  -49.601300  -79.469400

 Total Charge           Charge          ....    0
 Multiplicity           Mult            ....    1
 Number of Electrons    NEL             ....  134
 Basis Dimension        Dim             ....  322

ORBITAL ENERGIES
----------------

  NO   OCC          E(Eh)            E(eV)
   0   2.0000     -88.967110     -2420.9181
   1   2.0000     -88.958824     -2420.6927
   2   2.0000     -10.326613      -281.0014
   3   2.0000     -10.323717      -280.9226
   4   2.0000     -10.310003      -280.5494
   5   2.0000     -10.307453      -280.4801
   6   2.0000     -10.297030      -280.1964
   7   2.0000     -10.296654      -280.1862
   8   2.0000     -10.295849      -280.1643
   9   2.0000     -10.295078      -280.1433
  10   2.0000     -10.289774      -279.9990
  11   2.0000     -10.289631      -279.9951
  12   2.0000     -10.289161      -279.9823
  13   2.0000     -10.281507      -279.7740
  14   2.0000     -10.280568      -279.7485
  15   2.0000     -10.280370      -279.7431
  16   2.0000      -8.083134      -219.9533
  17   2.0000      -8.075371      -219.7420
  18   2.0000      -6.041466      -164.3966
  19   2.0000      -6.037496      -164.2886
  20   2.0000      -6.033961      -164.1924
  21   2.0000      -6.033950      -164.1921
  22   2.0000      -6.029427      -164.0690
  23   2.0000      -6.026113      -163.9789
  24   2.0000      -1.021155       -27.7870
  25   2.0000      -0.998886       -27.1811
  26   2.0000      -0.907272       -24.6881
  27   2.0000      -0.903645       -24.5894
  28   2.0000      -0.871153       -23.7053
  29   2.0000      -0.854708       -23.2578
  30   2.0000      -0.838497       -22.8167
  31   2.0000      -0.819068       -22.2880
  32   2.0000      -0.782966       -21.3056
  33   2.0000      -0.773009       -21.0347
  34   2.0000      -0.707386       -19.2490
  35   2.0000      -0.698837       -19.0163
  36   2.0000      -0.695928       -18.9372
  37   2.0000      -0.669762       -18.2251
  38   2.0000      -0.638899       -17.3853
  39   2.0000      -0.622095       -16.9281
  40   2.0000      -0.607490       -16.5307
  41   2.0000      -0.575199       -15.6520
  42   2.0000      -0.556502       -15.1432
  43   2.0000      -0.548489       -14.9251
  44   2.0000      -0.533001       -14.5037
  45   2.0000      -0.523348       -14.2410
  46   2.0000      -0.521705       -14.1963
  47   2.0000      -0.515429       -14.0255
  48   2.0000      -0.501484       -13.6461
  49   2.0000      -0.501050       -13.6343
  50   2.0000      -0.494456       -13.4548
  51   2.0000      -0.477944       -13.0055
  52   2.0000      -0.474789       -12.9197
  53   2.0000      -0.466020       -12.6810
  54   2.0000      -0.458630       -12.4800
  55   2.0000      -0.449036       -12.2189
  56   2.0000      -0.442913       -12.0523
  57   2.0000      -0.441237       -12.0067
  58   2.0000      -0.432742       -11.7755
  59   2.0000      -0.421187       -11.4611
  60   2.0000      -0.415080       -11.2949
  61   2.0000      -0.413670       -11.2565
  62   2.0000      -0.410594       -11.1728
  63   2.0000      -0.351872        -9.5749
  64   2.0000      -0.338522        -9.2117
  65   2.0000      -0.324637        -8.8338
  66   2.0000      -0.302202        -8.2233
  67   0.0000       0.035886         0.9765
  68   0.0000       0.074650         2.0313
  69   0.0000       0.116998         3.1837
  70   0.0000       0.122880         3.3437
  71   0.0000       0.133589         3.6351

MULLIKEN ATOMIC CHARGES
-----------------------
   0 S :    0.098205
   1 C :   -0.116629
   2 C :   -0.140144
   3 C :    0.042853
   4 C :   -0.139468
   5 H :   -0.008296
   6 C :    0.057727
   7 H :    0.025041
   8 H :    0.026848
   9 C :   -0.033211
  10 H :    0.033278
  11 H :    0.037228
  12 C :   -0.106057
  13 H :    0.049099
  14 H :    0.026476
  15 H :    0.042409
  16 S :    0.123927
  17 C :   -0.056865
  18 C :   -0.047696
  19 C :    0.008602
  20 C :   -0.154284
  21 H :    0.030945
  22 C :    0.060729
  23 H :   -0.007997
  24 H :    0.032395
  25 C :   -0.072963
  26 H :    0.039201
  27 H :    0.014139
  28 C :   -0.064406
  29 H :    0.046251
  30 H :    0.038151
  31 H :    0.025928
  32 H :    0.055482
  33 H :    0.033101
Sum of atomic charges:   -0.0000000

LOEWDIN ATOMIC CHARGES
----------------------
   0 S :    0.424862
   1 C :   -0.214161
   2 C :   -0.070519
   3 C :   -0.069314
   4 C :   -0.196902
   5 H :    0.017954
   6 C :   -0.029306
   7 H :    0.031499
   8 H :    0.026896
   9 C :   -0.027159
  10 H :    0.017467
  11 H :    0.029185
  12 C :   -0.072981
  13 H :    0.028384
  14 H :    0.019267
  15 H :    0.026347
  16 S :    0.430709
  17 C :   -0.185942
  18 C :   -0.069279
  19 C :   -0.063920
  20 C :   -0.189987
  21 H :    0.037260
  22 C :   -0.026563
  23 H :    0.021359
  24 H :    0.031167
  25 C :   -0.035394
  26 H :    0.025757
  27 H :    0.015893
  28 C :   -0.068407
  29 H :    0.031109
  30 H :    0.032108
  31 H :    0.017910
  32 H :    0.039873
  33 H :    0.014828

  Mayer bond orders larger than 0.100000
B(  0-S ,  1-C ) :   1.1304 B(  0-S ,  4-C ) :   1.1591 B(  1-C ,  2-C ) :   1.6526
B(  1-C , 32-H ) :   0.9599 B(  2-C ,  3-C ) :   1.2280 B(  2-C ,  6-C ) :   1.0234
B(  3-C ,  4-C ) :   1.5874 B(  3-C ,  5-H ) :   0.9995 B(  4-C , 20-C ) :   1.0024
B(  6-C ,  7-H ) :   0.9404 B(  6-C ,  8-H ) :   0.9440 B(  6-C ,  9-C ) :   1.0608
B(  9-C , 10-H ) :   0.9601 B(  9-C , 11-H ) :   0.9584 B(  9-C , 12-C ) :   1.0682
B( 12-C , 13-H ) :   0.9748 B( 12-C , 14-H ) :   0.9786 B( 12-C , 15-H ) :   0.9761
B( 16-S , 17-C ) :   1.1615 B( 16-S , 20-C ) :   1.1601 B( 17-C , 18-C ) :   1.5863
B( 17-C , 33-H ) :   0.9822 B( 18-C , 19-C ) :   1.2595 B( 18-C , 21-H ) :   0.9797
B( 19-C , 20-C ) :   1.6057 B( 19-C , 22-C ) :   1.0368 B( 22-C , 23-H ) :   0.9273
B( 22-C , 24-H ) :   0.9498 B( 22-C , 25-C ) :   1.0460 B( 25-C , 26-H ) :   0.9593
B( 25-C , 27-H ) :   0.9571 B( 25-C , 28-C ) :   1.0759 B( 28-C , 29-H ) :   0.9766
B( 28-C , 30-H ) :   0.9754 B( 28-C , 31-H ) :   0.9761

Dispersion correction           -0.014838372
FINAL SINGLE POINT ENERGY     -1339.869975284735

DIPOLE MOMENT
-------------
                                X             Y             Z
Electronic contribution:     -6.96781      14.26113      18.90370
Nuclear contribution   :      6.95091     -14.80298     -19.18075
                        -----------------------------------------
Total Dipole Moment    :     -0.01690      -0.54185      -0.27705
                        -----------------------------------------
Magnitude (a.u.)       :      0.60880
Magnitude (Debye)      :      1.54745

Rotational constants in cm-1:     0.016757     0.009594     0.007973
Rotational constants in MHz :   502.355106   287.611716   239.028714

                             ****ORCA TERMINATED NORMALLY****
TOTAL RUN TIME: 0 days 0 hours 0 minutes 21 seconds 105 msec
