                         Program Version 4.2.1 -  RELEASE  -
|  1> ! wB97X-D3 SP def2-SVP
|  2> %pal
|  3> nprocs 24
|  4> end
|  5>
|  6> * xyz 0 1
|  7> S 	 -106.806 	 28.3516 	 -115.901
|  8> C 	 -107.025 	 30.0964 	 -115.959
|  9> C 	 -107.03 	 30.5068 	 -117.258
| 10> C 	 -107.084 	 29.4477 	 -118.169
| 11> C 	 -107.013 	 28.1833 	 -117.618
| 12> H 	 -107.12 	 29.6895 	 -119.165
| 13> C 	 -107.197 	 31.9321 	 -117.592
| 14> H 	 -107.168 	 31.9153 	 -118.707
| 15> H 	 -106.236 	 32.3794 	 -117.19
| 16> C 	 -108.588 	 32.5779 	 -117.053
| 17> H 	 -108.802 	 32.4238 	 -116.005
| 18> H 	 -108.548 	 33.6353 	 -117.348
| 19> C 	 -109.807 	 31.959 	 -117.85
| 20> H 	 -109.754 	 32.1335 	 -118.872
| 21> H 	 -109.999 	 30.9208 	 -117.594
| 22> H 	 -110.605 	 32.5891 	 -117.557
| 23> S 	 -105.693 	 26.0105 	 -118.736
| 24> C 	 -106.69 	 24.6641 	 -119.373
| 25> C 	 -107.989 	 24.9172 	 -119.116
| 26> C 	 -108.306 	 26.1096 	 -118.455
| 27> C 	 -107.177 	 26.9146 	 -118.302
| 28> H 	 -108.596 	 24.1173 	 -119.438
| 29> C 	 -109.788 	 26.4253 	 -118.11
| 30> H 	 -110.331 	 26.0687 	 -119.012
| 31> H 	 -110.005 	 27.5312 	 -118.117
| 32> C 	 -110.613 	 25.7777 	 -116.969
| 33> H 	 -110.81 	 24.7054 	 -117.17
| 34> H 	 -111.648 	 26.257 	 -117.113
| 35> C 	 -110.067 	 25.9752 	 -115.582
| 36> H 	 -109.577 	 27.0086 	 -115.572
| 37> H 	 -109.409 	 25.143 	 -115.275
| 38> H 	 -110.841 	 25.8583 	 -114.877
| 39> H 	 -107.016 	 30.723 	 -115.022
| 40> H 	 -106.18 	 23.7972 	 -119.72
| 41> *
| 42>
| 43>                          ****END OF INPUT****

CARTESIAN COORDINATES (ANGSTROEM)
---------------------------------
  S    -106.806000   28.351600  -115.901000
  C    -107.025000   30.096400  -115.959000
  C    -107.030000   30.506800  -117.258000
  C    -107.084000   29.447700  -118.169000
  C    -107.013000   28.183300  -117.618000
  H    -107.120000   29.689500  -119.165000
  C    -107.197000   31.932100  -117.592000
  H    -107.168000   31.915300  -118.707000
  H    -106.236000   32.379400  -117.190000
  C    -108.588000   32.577900  -117.053000
  H    -108.802000   32.423800  -116.005000
  H    -108.548000   33.635300  -117.348000
  C    -109.807000   31.959000  -117.850000
  H    -109.754000   32.133500  -118.872000
  H    -109.999000   30.920800  -117.594000
  H    -110.605000   32.589100  -117.557000
  S    -105.693000   26.010500  -118.736000
  C    -106.690000   24.664100  -119.373000
  C    -107.989000   24.917200  -119.116000
  C    -108.306000   26.109600  -118.455000
  C    -107.177000   26.914600  -118.302000
  H    -108.596000   24.117300  -119.438000
  C    -109.788000   26.425300  -118.110000
  H    -110.331000   26.068700  -119.012000
  H    -110.005000   27.531200  -118.117000
  C    -110.613000   25.777700  -116.969000
  H    -110.810000   24.705400  -117.170000
  H    -111.648000   26.257000  -117.113000
  C    -110.067000   25.975200  -115.582000
  H    -109.577000   27.008600  -115.572000
  H    -109.409000   25.143000  -115.275000
  H    -110.841000   25.858300  -114.877000
  H    -107.016000   30.723000  -115.022000
  H    -106.180000   23.797200  -119.720000

 Total Charge           Charge          ....    0
 Multiplicity           Mult            ....    1
 Number of Electrons    NEL             ....  134
 Basis Dimension        Dim             ....  322

ORBITAL ENERGIES
----------------

  NO   OCC          E(Eh)            E(eV)
   0   2.0000     -88.962992     -2420.8061
   1   2.0000     -88.958798     -2420.6920
   2   2.0000     -10.328976      -281.0657
   3   2.0000     -10.325311      -280.9660
   4   2.0000     -10.315821      -280.7078
   5   2.0000     -10.312320      -280.6125
   6   2.0000     -10.308594      -280.5111
   7   2.0000     -10.299387      -280.2606
   8   2.0000     -10.298480      -280.2359
   9   2.0000     -10.298475      -280.2358
  10   2.0000     -10.291964      -280.0586
  11   2.0000     -10.287575      -279.9392
  12   2.0000     -10.286471      -279.9091
  13   2.0000     -10.283746      -279.8350
  14   2.0000     -10.271339      -279.4973
  15   2.0000     -10.271070      -279.4900
  16   2.0000      -8.077501      -219.8000
  17   2.0000      -8.072916      -219.6752
  18   2.0000      -6.035917      -164.2457
  19   2.0000      -6.031895      -164.1362
  20   2.0000      -6.031387      -164.1224
  21   2.0000      -6.028489      -164.0435
  22   2.0000      -6.027585      -164.0189
  23   2.0000      -6.023683      -163.9127
  24   2.0000      -1.006017       -27.3751
  25   2.0000      -0.984447       -26.7882
  26   2.0000      -0.906735       -24.6735
  27   2.0000      -0.900051       -24.4916
  28   2.0000      -0.867257       -23.5993
  29   2.0000      -0.848959       -23.1013
  30   2.0000      -0.845954       -23.0196
  31   2.0000      -0.816499       -22.2181
  32   2.0000      -0.782328       -21.2882
  33   2.0000      -0.769003       -20.9256
  34   2.0000      -0.708585       -19.2816
  35   2.0000      -0.706345       -19.2206
  36   2.0000      -0.683999       -18.6126
  37   2.0000      -0.657547       -17.8928
  38   2.0000      -0.640888       -17.4394
  39   2.0000      -0.615938       -16.7605
  40   2.0000      -0.595187       -16.1959
  41   2.0000      -0.573668       -15.6103
  42   2.0000      -0.551818       -15.0157
  43   2.0000      -0.548135       -14.9155
  44   2.0000      -0.541897       -14.7458
  45   2.0000      -0.533186       -14.5087
  46   2.0000      -0.518864       -14.1190
  47   2.0000      -0.513514       -13.9734
  48   2.0000      -0.501120       -13.6362
  49   2.0000      -0.492312       -13.3965
  50   2.0000      -0.488587       -13.2951
  51   2.0000      -0.473467       -12.8837
  52   2.0000      -0.468350       -12.7445
  53   2.0000      -0.463167       -12.6034
  54   2.0000      -0.459966       -12.5163
  55   2.0000      -0.450868       -12.2687
  56   2.0000      -0.433514       -11.7965
  57   2.0000      -0.432121       -11.7586
  58   2.0000      -0.427514       -11.6332
  59   2.0000      -0.425436       -11.5767
  60   2.0000      -0.417294       -11.3551
  61   2.0000      -0.414505       -11.2793
  62   2.0000      -0.404141       -10.9972
  63   2.0000      -0.333994        -9.0884
  64   2.0000      -0.329053        -8.9540
  65   2.0000      -0.317008        -8.6262
  66   2.0000      -0.310865        -8.4591
  67   0.0000       0.043072         1.1721
  68   0.0000       0.046922         1.2768
  69   0.0000       0.116683         3.1751
  70   0.0000       0.122462         3.3324
  71   0.0000       0.123198         3.3524

MULLIKEN ATOMIC CHARGES
-----------------------
   0 S :    0.121960
   1 C :   -0.176287
   2 C :   -0.092490
   3 C :    0.079702
   4 C :   -0.147156
   5 H :   -0.031692
   6 C :    0.037377
   7 H :    0.021389
   8 H :    0.053574
   9 C :   -0.079184
  10 H :    0.043596
  11 H :    0.041029
  12 C :   -0.035719
  13 H :    0.015672
  14 H :    0.053629
  15 H :    0.018783
  16 S :    0.075745
  17 C :   -0.097311
  18 C :   -0.015302
  19 C :    0.048811
  20 C :   -0.190299
  21 H :    0.004771
  22 C :    0.011375
  23 H :    0.026278
  24 H :    0.042769
  25 C :   -0.097122
  26 H :    0.024929
  27 H :    0.037677
  28 C :   -0.023809
  29 H :    0.046978
  30 H :    0.037200
  31 H :    0.016266
  32 H :    0.071752
  33 H :    0.055109
Sum of atomic charges:    0.0000000

LOEWDIN ATOMIC CHARGES
----------------------
   0 S :    0.419104
   1 C :   -0.201267
   2 C :   -0.082067
   3 C :   -0.050573
   4 C :   -0.205011
   5 H :    0.016832
   6 C :   -0.040272
   7 H :    0.030362
   8 H :    0.041166
   9 C :   -0.024480
  10 H :    0.023063
  11 H :    0.026816
  12 C :   -0.056732
  13 H :    0.014949
  14 H :    0.027902
  15 H :    0.023755
  16 S :    0.364057
  17 C :   -0.155800
  18 C :   -0.071537
  19 C :   -0.051576
  20 C :   -0.185934
  21 H :    0.028828
  22 C :   -0.042523
  23 H :    0.037379
  24 H :    0.036082
  25 C :   -0.049396
  26 H :    0.020942
  27 H :    0.034169
  28 C :   -0.074569
  29 H :    0.031769
  30 H :    0.032186
  31 H :    0.018856
  32 H :    0.039138
  33 H :    0.024382

  Mayer bond orders larger than 0.100000
B(  0-S ,  1-C ) :   1.1524 B(  0-S ,  4-C ) :   1.1678 B(  1-C ,  2-C ) :   1.5664
B(  1-C ,  4-C ) :   0.1023 B(  1-C , 32-H ) :   0.9659 B(  2-C ,  3-C ) :   1.2876
B(  2-C ,  6-C ) :   1.0105 B(  3-C ,  4-C ) :   1.5360 B(  3-C ,  5-H ) :   1.0098
B(  4-C , 20-C ) :   1.0200 B(  6-C ,  7-H ) :   0.9478 B(  6-C ,  8-H ) :   0.9348
B(  6-C ,  9-C ) :   1.0523 B(  9-C , 10-H ) :   0.9635 B(  9-C , 11-H ) :   0.9605
B(  9-C , 12-C ) :   1.0688 B( 12-C , 13-H ) :   0.9767 B( 12-C , 14-H ) :   0.9779
B( 12-C , 15-H ) :   0.9723 B( 16-S , 17-C ) :   1.1373 B( 16-S , 20-C ) :   1.1462
B( 17-C , 18-C ) :   1.6219 B( 17-C , 20-C ) :   0.1051 B( 17-C , 33-H ) :   0.9744
B( 18-C , 19-C ) :   1.2157 B( 18-C , 21-H ) :   0.9986 B( 19-C , 20-C ) :   1.5994
B( 19-C , 22-C ) :   1.0183 B( 22-C , 23-H ) :   0.9357 B( 22-C , 24-H ) :   0.9417
B( 22-C , 25-C ) :   1.0834 B( 25-C , 26-H ) :   0.9534 B( 25-C , 27-H ) :   0.9500
B( 25-C , 28-C ) :   1.0754 B( 28-C , 29-H ) :   0.9704 B( 28-C , 30-H ) :   0.9702
B( 28-C , 31-H ) :   0.9685

Dispersion correction           -0.015176752
FINAL SINGLE POINT ENERGY     -1339.853932107431

DIPOLE MOMENT
-------------
                                X             Y             Z
Electronic contribution:     21.38077     -11.79114      -2.32347
Nuclear contribution   :    -21.95751      11.98726       2.23405
                        -----------------------------------------
Total Dipole Moment    :     -0.57674       0.19612      -0.08942
                        -----------------------------------------
Magnitude (a.u.)       :      0.61570
Magnitude (Debye)      :      1.56499

Rotational constants in cm-1:     0.019526     0.008933     0.007617
Rotational constants in MHz :   585.366104   267.807764   228.352567

                             ****ORCA TERMINATED NORMALLY****
TOTAL RUN TIME: 0 days 0 hours 0 minutes 22 seconds 264 msec
