                         Program Version 4.2.1 -  RELEASE  -
|  1> ! wB97X-D3 SP def2-SVP
|  2> %pal
|  3> nprocs 24
|  4> end
|  5>
|  6> * xyz 0 1
|  7> S 	 -84.5408 	 -46.385 	 -81.0749
|  8> C 	 -86.1734 	 -45.9671 	 -80.628
|  9> C 	 -87.0034 	 -47.0156 	 -80.9843
| 10> C 	 -86.3295 	 -48.2236 	 -81.2495
| 11> C 	 -84.9622 	 -48.061 	 -81.1854
| 12> H 	 -86.784 	 -49.1278 	 -81.6312
| 13> C 	 -88.515 	 -46.9686 	 -81.0023
| 14> H 	 -88.9327 	 -47.7485 	 -81.7147
| 15> H 	 -88.7899 	 -45.9626 	 -81.4004
| 16> C 	 -89.1888 	 -47.1151 	 -79.6497
| 17> H 	 -88.8001 	 -47.9471 	 -79.0948
| 18> H 	 -88.8676 	 -46.3693 	 -78.9532
| 19> C 	 -90.7459 	 -47.1719 	 -79.7004
| 20> H 	 -91.2585 	 -48.1914 	 -79.6482
| 21> H 	 -91.0824 	 -46.6082 	 -78.881
| 22> H 	 -91.1163 	 -46.8298 	 -80.6598
| 23> S 	 -82.7749 	 -48.7012 	 -82.6491
| 24> C 	 -82.1266 	 -50.2841 	 -82.5467
| 25> C 	 -82.8557 	 -51.0748 	 -81.6895
| 26> C 	 -83.9332 	 -50.4314 	 -81.1153
| 27> C 	 -83.9695 	 -49.0699 	 -81.4691
| 28> H 	 -82.5227 	 -52.0862 	 -81.5224
| 29> C 	 -84.89 	 -51.1423 	 -80.233
| 30> H 	 -85.0373 	 -52.1649 	 -80.6904
| 31> H 	 -85.8129 	 -50.5398 	 -80.2297
| 32> C 	 -84.4384 	 -51.2444 	 -78.7682
| 33> H 	 -83.4666 	 -51.8024 	 -78.7429
| 34> H 	 -85.244 	 -51.789 	 -78.2291
| 35> C 	 -84.1307 	 -49.8502 	 -78.1179
| 36> H 	 -83.4235 	 -49.2594 	 -78.7325
| 37> H 	 -83.5527 	 -49.9772 	 -77.1468
| 38> H 	 -85.1707 	 -49.4214 	 -77.9115
| 39> H 	 -86.4472 	 -44.9888 	 -80.3632
| 40> H 	 -81.3266 	 -50.6406 	 -83.2322
| 41> *
| 42>
| 43>                          ****END OF INPUT****

CARTESIAN COORDINATES (ANGSTROEM)
---------------------------------
  S    -84.540800  -46.385000  -81.074900
  C    -86.173400  -45.967100  -80.628000
  C    -87.003400  -47.015600  -80.984300
  C    -86.329500  -48.223600  -81.249500
  C    -84.962200  -48.061000  -81.185400
  H    -86.784000  -49.127800  -81.631200
  C    -88.515000  -46.968600  -81.002300
  H    -88.932700  -47.748500  -81.714700
  H    -88.789900  -45.962600  -81.400400
  C    -89.188800  -47.115100  -79.649700
  H    -88.800100  -47.947100  -79.094800
  H    -88.867600  -46.369300  -78.953200
  C    -90.745900  -47.171900  -79.700400
  H    -91.258500  -48.191400  -79.648200
  H    -91.082400  -46.608200  -78.881000
  H    -91.116300  -46.829800  -80.659800
  S    -82.774900  -48.701200  -82.649100
  C    -82.126600  -50.284100  -82.546700
  C    -82.855700  -51.074800  -81.689500
  C    -83.933200  -50.431400  -81.115300
  C    -83.969500  -49.069900  -81.469100
  H    -82.522700  -52.086200  -81.522400
  C    -84.890000  -51.142300  -80.233000
  H    -85.037300  -52.164900  -80.690400
  H    -85.812900  -50.539800  -80.229700
  C    -84.438400  -51.244400  -78.768200
  H    -83.466600  -51.802400  -78.742900
  H    -85.244000  -51.789000  -78.229100
  C    -84.130700  -49.850200  -78.117900
  H    -83.423500  -49.259400  -78.732500
  H    -83.552700  -49.977200  -77.146800
  H    -85.170700  -49.421400  -77.911500
  H    -86.447200  -44.988800  -80.363200
  H    -81.326600  -50.640600  -83.232200

 Total Charge           Charge          ....    0
 Multiplicity           Mult            ....    1
 Number of Electrons    NEL             ....  134
 Basis Dimension        Dim             ....  322

ORBITAL ENERGIES
----------------

  NO   OCC          E(Eh)            E(eV)
   0   2.0000     -88.966563     -2420.9033
   1   2.0000     -88.965456     -2420.8731
   2   2.0000     -10.326459      -280.9972
   3   2.0000     -10.321807      -280.8706
   4   2.0000     -10.313844      -280.6540
   5   2.0000     -10.309356      -280.5318
   6   2.0000     -10.299328      -280.2590
   7   2.0000     -10.296812      -280.1905
   8   2.0000     -10.295894      -280.1655
   9   2.0000     -10.291120      -280.0356
  10   2.0000     -10.290052      -280.0066
  11   2.0000     -10.289376      -279.9882
  12   2.0000     -10.286868      -279.9199
  13   2.0000     -10.283888      -279.8388
  14   2.0000     -10.281501      -279.7739
  15   2.0000     -10.279430      -279.7175
  16   2.0000      -8.082553      -219.9374
  17   2.0000      -8.080770      -219.8889
  18   2.0000      -6.040754      -164.3773
  19   2.0000      -6.039199      -164.3350
  20   2.0000      -6.036881      -164.2719
  21   2.0000      -6.035399      -164.2315
  22   2.0000      -6.033572      -164.1818
  23   2.0000      -6.031391      -164.1225
  24   2.0000      -1.017093       -27.6765
  25   2.0000      -0.993141       -27.0247
  26   2.0000      -0.911517       -24.8036
  27   2.0000      -0.909365       -24.7451
  28   2.0000      -0.871978       -23.7277
  29   2.0000      -0.851498       -23.1704
  30   2.0000      -0.844867       -22.9900
  31   2.0000      -0.811665       -22.0865
  32   2.0000      -0.779788       -21.2191
  33   2.0000      -0.768329       -20.9073
  34   2.0000      -0.707073       -19.2404
  35   2.0000      -0.703212       -19.1354
  36   2.0000      -0.687460       -18.7067
  37   2.0000      -0.661146       -17.9907
  38   2.0000      -0.644119       -17.5274
  39   2.0000      -0.623105       -16.9555
  40   2.0000      -0.595018       -16.1913
  41   2.0000      -0.569559       -15.4985
  42   2.0000      -0.554540       -15.0898
  43   2.0000      -0.546403       -14.8684
  44   2.0000      -0.544942       -14.8286
  45   2.0000      -0.523829       -14.2541
  46   2.0000      -0.518975       -14.1220
  47   2.0000      -0.511933       -13.9304
  48   2.0000      -0.502518       -13.6742
  49   2.0000      -0.496713       -13.5163
  50   2.0000      -0.490890       -13.3578
  51   2.0000      -0.477124       -12.9832
  52   2.0000      -0.473442       -12.8830
  53   2.0000      -0.461283       -12.5521
  54   2.0000      -0.459650       -12.5077
  55   2.0000      -0.453770       -12.3477
  56   2.0000      -0.445622       -12.1260
  57   2.0000      -0.440178       -11.9778
  58   2.0000      -0.430175       -11.7057
  59   2.0000      -0.423442       -11.5224
  60   2.0000      -0.420614       -11.4455
  61   2.0000      -0.406512       -11.0618
  62   2.0000      -0.404794       -11.0150
  63   2.0000      -0.352842        -9.6013
  64   2.0000      -0.335238        -9.1223
  65   2.0000      -0.328438        -8.9373
  66   2.0000      -0.281563        -7.6617
  67   0.0000       0.024370         0.6631
  68   0.0000       0.069581         1.8934
  69   0.0000       0.102693         2.7944
  70   0.0000       0.123594         3.3632
  71   0.0000       0.134338         3.6555

MULLIKEN ATOMIC CHARGES
-----------------------
   0 S :    0.104943
   1 C :   -0.101632
   2 C :   -0.075386
   3 C :    0.006490
   4 C :   -0.136727
   5 H :    0.028783
   6 C :    0.037611
   7 H :    0.037242
   8 H :    0.028849
   9 C :   -0.051479
  10 H :    0.012502
  11 H :    0.011513
  12 C :   -0.040539
  13 H :    0.039387
  14 H :    0.031010
  15 H :    0.024276
  16 S :    0.116974
  17 C :   -0.108605
  18 C :   -0.044146
  19 C :   -0.054669
  20 C :   -0.147903
  21 H :    0.012706
  22 C :    0.080783
  23 H :    0.041052
  24 H :    0.009330
  25 C :   -0.086351
  26 H :    0.027571
  27 H :    0.043313
  28 C :   -0.098824
  29 H :    0.059716
  30 H :    0.042243
  31 H :    0.051784
  32 H :    0.028813
  33 H :    0.069369
Sum of atomic charges:   -0.0000000

LOEWDIN ATOMIC CHARGES
----------------------
   0 S :    0.414421
   1 C :   -0.193571
   2 C :   -0.058614
   3 C :   -0.070937
   4 C :   -0.189843
   5 H :    0.034516
   6 C :   -0.036456
   7 H :    0.036333
   8 H :    0.031784
   9 C :   -0.045911
  10 H :    0.021682
  11 H :    0.021521
  12 C :   -0.066345
  13 H :    0.034135
  14 H :    0.021651
  15 H :    0.022651
  16 S :    0.438068
  17 C :   -0.204623
  18 C :   -0.073132
  19 C :   -0.063480
  20 C :   -0.212509
  21 H :    0.031783
  22 C :   -0.039448
  23 H :    0.040181
  24 H :    0.028904
  25 C :   -0.043696
  26 H :    0.022146
  27 H :    0.026896
  28 C :   -0.078146
  29 H :    0.030768
  30 H :    0.031358
  31 H :    0.034683
  32 H :    0.016656
  33 H :    0.036574

  Mayer bond orders larger than 0.100000
B(  0-S ,  1-C ) :   1.1326 B(  0-S ,  4-C ) :   1.1732 B(  1-C ,  2-C ) :   1.5764
B(  1-C ,  4-C ) :   0.1061 B(  1-C , 32-H ) :   0.9845 B(  2-C ,  3-C ) :   1.2630
B(  2-C ,  6-C ) :   1.0297 B(  3-C ,  4-C ) :   1.5356 B(  3-C ,  5-H ) :   0.9882
B(  4-C , 20-C ) :   1.0491 B(  6-C ,  7-H ) :   0.9451 B(  6-C ,  8-H ) :   0.9317
B(  6-C ,  9-C ) :   1.0734 B(  9-C , 10-H ) :   0.9513 B(  9-C , 11-H ) :   0.9575
B(  9-C , 12-C ) :   1.0576 B( 12-C , 13-H ) :   0.9771 B( 12-C , 14-H ) :   0.9784
B( 12-C , 15-H ) :   0.9789 B( 16-S , 17-C ) :   1.1764 B( 16-S , 20-C ) :   1.1724
B( 17-C , 18-C ) :   1.5637 B( 17-C , 20-C ) :   0.1075 B( 17-C , 33-H ) :   0.9636
B( 18-C , 19-C ) :   1.2857 B( 18-C , 21-H ) :   0.9975 B( 19-C , 20-C ) :   1.5339
B( 19-C , 22-C ) :   1.0490 B( 22-C , 23-H ) :   0.9303 B( 22-C , 24-H ) :   0.9205
B( 22-C , 25-C ) :   1.0708 B( 25-C , 26-H ) :   0.9568 B( 25-C , 27-H ) :   0.9595
B( 25-C , 28-C ) :   1.0675 B( 28-C , 29-H ) :   0.9698 B( 28-C , 30-H ) :   0.9743
B( 28-C , 31-H ) :   0.9752

Dispersion correction           -0.014947958
FINAL SINGLE POINT ENERGY     -1339.874494618862

DIPOLE MOMENT
-------------
                                X             Y             Z
Electronic contribution:     22.01951       7.46698     -15.87468
Nuclear contribution   :    -22.43982      -7.80860      15.92138
                        -----------------------------------------
Total Dipole Moment    :     -0.42031      -0.34162       0.04670
                        -----------------------------------------
Magnitude (a.u.)       :      0.54364
Magnitude (Debye)      :      1.38183

Rotational constants in cm-1:     0.021207     0.008561     0.007082
Rotational constants in MHz :   635.783550   256.660388   212.303454

                             ****ORCA TERMINATED NORMALLY****
TOTAL RUN TIME: 0 days 0 hours 0 minutes 21 seconds 352 msec
