                         Program Version 4.2.1 -  RELEASE  -
|  1> ! wB97X-D3 SP def2-SVP
|  2> %pal
|  3> nprocs 24
|  4> end
|  5>
|  6> * xyz 0 1
|  7> S 	 -113.702 	 34.1665 	 -116.389
|  8> C 	 -112.728 	 34.1084 	 -117.816
|  9> C 	 -111.496 	 34.7763 	 -117.681
| 10> C 	 -111.302 	 35.313 	 -116.404
| 11> C 	 -112.415 	 35.1662 	 -115.556
| 12> H 	 -110.562 	 35.9661 	 -115.981
| 13> C 	 -110.431 	 34.8692 	 -118.686
| 14> H 	 -109.603 	 35.4372 	 -118.302
| 15> H 	 -110.808 	 35.5156 	 -119.524
| 16> C 	 -110.04 	 33.5147 	 -119.177
| 17> H 	 -109.743 	 32.8802 	 -118.35
| 18> H 	 -110.89 	 33.0443 	 -119.672
| 19> C 	 -108.969 	 33.4932 	 -120.228
| 20> H 	 -109.207 	 34.1541 	 -121.114
| 21> H 	 -108.066 	 33.8888 	 -119.804
| 22> H 	 -108.745 	 32.4762 	 -120.637
| 23> S 	 -112.035 	 37.5059 	 -114.004
| 24> C 	 -112.705 	 37.5896 	 -112.399
| 25> C 	 -113.186 	 36.3264 	 -112.032
| 26> C 	 -113.072 	 35.325 	 -113.031
| 27> C 	 -112.542 	 35.8259 	 -114.224
| 28> H 	 -113.578 	 36.2142 	 -111.052
| 29> C 	 -113.23 	 33.8979 	 -112.688
| 30> H 	 -112.465 	 33.8209 	 -111.889
| 31> H 	 -112.822 	 33.3335 	 -113.544
| 32> C 	 -114.559 	 33.2672 	 -112.368
| 33> H 	 -115.233 	 33.4204 	 -113.201
| 34> H 	 -114.957 	 33.6966 	 -111.464
| 35> C 	 -114.477 	 31.779 	 -112.009
| 36> H 	 -114.099 	 31.2079 	 -112.839
| 37> H 	 -115.413 	 31.3381 	 -111.873
| 38> H 	 -113.835 	 31.5811 	 -111.148
| 39> H 	 -113 	 33.497 	 -118.669
| 40> H 	 -112.673 	 38.2768 	 -111.574
| 41> *
| 42>
| 43>                          ****END OF INPUT****

CARTESIAN COORDINATES (ANGSTROEM)
---------------------------------
  S    -113.702000   34.166500  -116.389000
  C    -112.728000   34.108400  -117.816000
  C    -111.496000   34.776300  -117.681000
  C    -111.302000   35.313000  -116.404000
  C    -112.415000   35.166200  -115.556000
  H    -110.562000   35.966100  -115.981000
  C    -110.431000   34.869200  -118.686000
  H    -109.603000   35.437200  -118.302000
  H    -110.808000   35.515600  -119.524000
  C    -110.040000   33.514700  -119.177000
  H    -109.743000   32.880200  -118.350000
  H    -110.890000   33.044300  -119.672000
  C    -108.969000   33.493200  -120.228000
  H    -109.207000   34.154100  -121.114000
  H    -108.066000   33.888800  -119.804000
  H    -108.745000   32.476200  -120.637000
  S    -112.035000   37.505900  -114.004000
  C    -112.705000   37.589600  -112.399000
  C    -113.186000   36.326400  -112.032000
  C    -113.072000   35.325000  -113.031000
  C    -112.542000   35.825900  -114.224000
  H    -113.578000   36.214200  -111.052000
  C    -113.230000   33.897900  -112.688000
  H    -112.465000   33.820900  -111.889000
  H    -112.822000   33.333500  -113.544000
  C    -114.559000   33.267200  -112.368000
  H    -115.233000   33.420400  -113.201000
  H    -114.957000   33.696600  -111.464000
  C    -114.477000   31.779000  -112.009000
  H    -114.099000   31.207900  -112.839000
  H    -115.413000   31.338100  -111.873000
  H    -113.835000   31.581100  -111.148000
  H    -113.000000   33.497000  -118.669000
  H    -112.673000   38.276800  -111.574000

 Total Charge           Charge          ....    0
 Multiplicity           Mult            ....    1
 Number of Electrons    NEL             ....  134
 Basis Dimension        Dim             ....  322

ORBITAL ENERGIES
----------------

  NO   OCC          E(Eh)            E(eV)
   0   2.0000     -88.973094     -2421.0810
   1   2.0000     -88.970434     -2421.0086
   2   2.0000     -10.337851      -281.3072
   3   2.0000     -10.330222      -281.0996
   4   2.0000     -10.317492      -280.7532
   5   2.0000     -10.316638      -280.7300
   6   2.0000     -10.299730      -280.2699
   7   2.0000     -10.299553      -280.2651
   8   2.0000     -10.293438      -280.0987
   9   2.0000     -10.288654      -279.9685
  10   2.0000     -10.287244      -279.9301
  11   2.0000     -10.286485      -279.9095
  12   2.0000     -10.281886      -279.7843
  13   2.0000     -10.281137      -279.7640
  14   2.0000     -10.279218      -279.7117
  15   2.0000     -10.269536      -279.4483
  16   2.0000      -8.086280      -220.0389
  17   2.0000      -8.084298      -219.9849
  18   2.0000      -6.044777      -164.4868
  19   2.0000      -6.042956      -164.4372
  20   2.0000      -6.040974      -164.3833
  21   2.0000      -6.038887      -164.3265
  22   2.0000      -6.037199      -164.2805
  23   2.0000      -6.034982      -164.2202
  24   2.0000      -1.000989       -27.2383
  25   2.0000      -0.983217       -26.7547
  26   2.0000      -0.920795       -25.0561
  27   2.0000      -0.913264       -24.8512
  28   2.0000      -0.866006       -23.5652
  29   2.0000      -0.858575       -23.3630
  30   2.0000      -0.853681       -23.2298
  31   2.0000      -0.814300       -22.1582
  32   2.0000      -0.782547       -21.2942
  33   2.0000      -0.767115       -20.8743
  34   2.0000      -0.710330       -19.3291
  35   2.0000      -0.701782       -19.0965
  36   2.0000      -0.693294       -18.8655
  37   2.0000      -0.664047       -18.0696
  38   2.0000      -0.640610       -17.4319
  39   2.0000      -0.612971       -16.6798
  40   2.0000      -0.591282       -16.0896
  41   2.0000      -0.577331       -15.7100
  42   2.0000      -0.571966       -15.5640
  43   2.0000      -0.566125       -15.4051
  44   2.0000      -0.530873       -14.4458
  45   2.0000      -0.525563       -14.3013
  46   2.0000      -0.521116       -14.1803
  47   2.0000      -0.511926       -13.9302
  48   2.0000      -0.507638       -13.8135
  49   2.0000      -0.499188       -13.5836
  50   2.0000      -0.491709       -13.3801
  51   2.0000      -0.475390       -12.9360
  52   2.0000      -0.474298       -12.9063
  53   2.0000      -0.463859       -12.6222
  54   2.0000      -0.457712       -12.4550
  55   2.0000      -0.447130       -12.1670
  56   2.0000      -0.441735       -12.0202
  57   2.0000      -0.437938       -11.9169
  58   2.0000      -0.434665       -11.8278
  59   2.0000      -0.431103       -11.7309
  60   2.0000      -0.420517       -11.4429
  61   2.0000      -0.414601       -11.2819
  62   2.0000      -0.410696       -11.1756
  63   2.0000      -0.349874        -9.5206
  64   2.0000      -0.332231        -9.0405
  65   2.0000      -0.328659        -8.9433
  66   2.0000      -0.285063        -7.7570
  67   0.0000       0.020722         0.5639
  68   0.0000       0.067629         1.8403
  69   0.0000       0.099109         2.6969
  70   0.0000       0.109582         2.9819
  71   0.0000       0.135216         3.6794

MULLIKEN ATOMIC CHARGES
-----------------------
   0 S :    0.118799
   1 C :   -0.133036
   2 C :   -0.065705
   3 C :    0.004885
   4 C :   -0.144665
   5 H :    0.012428
   6 C :    0.097478
   7 H :    0.009813
   8 H :    0.038078
   9 C :   -0.086890
  10 H :    0.034411
  11 H :    0.023014
  12 C :   -0.045038
  13 H :    0.029270
  14 H :    0.018329
  15 H :    0.040491
  16 S :    0.112207
  17 C :   -0.069556
  18 C :   -0.054964
  19 C :   -0.009693
  20 C :   -0.163659
  21 H :    0.007029
  22 C :    0.005264
  23 H :    0.039588
  24 H :    0.017614
  25 C :   -0.027634
  26 H :    0.027959
  27 H :    0.017691
  28 C :   -0.022839
  29 H :    0.016285
  30 H :    0.018710
  31 H :    0.029936
  32 H :    0.054366
  33 H :    0.050030
Sum of atomic charges:   -0.0000000

LOEWDIN ATOMIC CHARGES
----------------------
   0 S :    0.395796
   1 C :   -0.203851
   2 C :   -0.062339
   3 C :   -0.061871
   4 C :   -0.166996
   5 H :    0.029171
   6 C :   -0.034345
   7 H :    0.026545
   8 H :    0.040991
   9 C :   -0.043478
  10 H :    0.027831
  11 H :    0.023173
  12 C :   -0.069081
  13 H :    0.028343
  14 H :    0.017463
  15 H :    0.030570
  16 S :    0.408984
  17 C :   -0.195374
  18 C :   -0.066437
  19 C :   -0.060485
  20 C :   -0.197466
  21 H :    0.023781
  22 C :   -0.042315
  23 H :    0.041289
  24 H :    0.028026
  25 C :   -0.034790
  26 H :    0.025603
  27 H :    0.019881
  28 C :   -0.058161
  29 H :    0.021882
  30 H :    0.019412
  31 H :    0.026556
  32 H :    0.026930
  33 H :    0.034761

  Mayer bond orders larger than 0.100000
B(  0-S ,  1-C ) :   1.1557 B(  0-S ,  4-C ) :   1.1367 B(  1-C ,  2-C ) :   1.5609
B(  1-C ,  4-C ) :   0.1050 B(  1-C , 32-H ) :   0.9659 B(  2-C ,  3-C ) :   1.2638
B(  2-C ,  6-C ) :   1.0338 B(  3-C ,  4-C ) :   1.5477 B(  3-C ,  5-H ) :   0.9923
B(  4-C , 20-C ) :   1.0605 B(  6-C ,  7-H ) :   0.9399 B(  6-C ,  8-H ) :   0.9194
B(  6-C ,  9-C ) :   1.0708 B(  9-C , 10-H ) :   0.9549 B(  9-C , 11-H ) :   0.9494
B(  9-C , 12-C ) :   1.0946 B( 12-C , 13-H ) :   0.9707 B( 12-C , 14-H ) :   0.9721
B( 12-C , 15-H ) :   0.9732 B( 16-S , 17-C ) :   1.1501 B( 16-S , 20-C ) :   1.1284
B( 17-C , 18-C ) :   1.6092 B( 17-C , 33-H ) :   0.9638 B( 18-C , 19-C ) :   1.2548
B( 18-C , 21-H ) :   0.9916 B( 19-C , 20-C ) :   1.5494 B( 19-C , 22-C ) :   1.0451
B( 22-C , 23-H ) :   0.9358 B( 22-C , 24-H ) :   0.9279 B( 22-C , 25-C ) :   1.0679
B( 25-C , 26-H ) :   0.9493 B( 25-C , 27-H ) :   0.9532 B( 25-C , 28-C ) :   1.0931
B( 28-C , 29-H ) :   0.9717 B( 28-C , 30-H ) :   0.9721 B( 28-C , 31-H ) :   0.9744

Dispersion correction           -0.013684384
FINAL SINGLE POINT ENERGY     -1339.873382480464

DIPOLE MOMENT
-------------
                                X             Y             Z
Electronic contribution:     -6.38284      17.14847       5.01321
Nuclear contribution   :      6.59908     -17.44633      -4.93054
                        -----------------------------------------
Total Dipole Moment    :      0.21624      -0.29786       0.08267
                        -----------------------------------------
Magnitude (a.u.)       :      0.37725
Magnitude (Debye)      :      0.95889

Rotational constants in cm-1:     0.020256     0.007469     0.005978
Rotational constants in MHz :   607.258511   223.926306   179.223262

                             ****ORCA TERMINATED NORMALLY****
TOTAL RUN TIME: 0 days 0 hours 0 minutes 20 seconds 888 msec
