                         Program Version 4.2.1 -  RELEASE  -
|  1> ! wB97X-D3 SP def2-SVP
|  2> %pal
|  3> nprocs 24
|  4> end
|  5>
|  6> * xyz 0 1
|  7> S 	 -105.561 	 5.10505 	 -125.971
|  8> C 	 -106.662 	 3.74978 	 -125.756
|  9> C 	 -107.149 	 3.74026 	 -124.429
| 10> C 	 -106.615 	 4.89372 	 -123.688
| 11> C 	 -105.819 	 5.76773 	 -124.397
| 12> H 	 -106.865 	 5.12194 	 -122.694
| 13> C 	 -108.29 	 2.88414 	 -123.927
| 14> H 	 -108.229 	 1.90561 	 -124.439
| 15> H 	 -109.205 	 3.41535 	 -124.288
| 16> C 	 -108.46 	 2.81587 	 -122.406
| 17> H 	 -107.576 	 2.37765 	 -121.905
| 18> H 	 -108.547 	 3.90149 	 -122.152
| 19> C 	 -109.797 	 2.19785 	 -121.956
| 20> H 	 -109.785 	 1.13501 	 -122.21
| 21> H 	 -109.914 	 2.28214 	 -120.871
| 22> H 	 -110.673 	 2.62278 	 -122.455
| 23> S 	 -105.531 	 8.58357 	 -124.269
| 24> C 	 -104.247 	 9.1687 	 -123.254
| 25> C 	 -103.461 	 8.20561 	 -122.744
| 26> C 	 -103.986 	 6.8805 	 -122.967
| 27> C 	 -105.073 	 6.90687 	 -123.89
| 28> H 	 -102.568 	 8.48001 	 -122.204
| 29> C 	 -103.272 	 5.70511 	 -122.421
| 30> H 	 -102.307 	 5.73219 	 -122.869
| 31> H 	 -103.629 	 4.75581 	 -122.715
| 32> C 	 -103.198 	 5.66579 	 -120.882
| 33> H 	 -102.588 	 6.53552 	 -120.622
| 34> H 	 -102.717 	 4.81267 	 -120.377
| 35> C 	 -104.428 	 5.9859 	 -120.017
| 36> H 	 -104.055 	 6.43927 	 -119.05
| 37> H 	 -104.985 	 5.04295 	 -119.794
| 38> H 	 -105.061 	 6.76965 	 -120.4
| 39> H 	 -106.854 	 2.93827 	 -126.391
| 40> H 	 -103.839 	 10.2078 	 -123.101
| 41> *
| 42>
| 43>                          ****END OF INPUT****

CARTESIAN COORDINATES (ANGSTROEM)
---------------------------------
  S    -105.561000    5.105050  -125.971000
  C    -106.662000    3.749780  -125.756000
  C    -107.149000    3.740260  -124.429000
  C    -106.615000    4.893720  -123.688000
  C    -105.819000    5.767730  -124.397000
  H    -106.865000    5.121940  -122.694000
  C    -108.290000    2.884140  -123.927000
  H    -108.229000    1.905610  -124.439000
  H    -109.205000    3.415350  -124.288000
  C    -108.460000    2.815870  -122.406000
  H    -107.576000    2.377650  -121.905000
  H    -108.547000    3.901490  -122.152000
  C    -109.797000    2.197850  -121.956000
  H    -109.785000    1.135010  -122.210000
  H    -109.914000    2.282140  -120.871000
  H    -110.673000    2.622780  -122.455000
  S    -105.531000    8.583570  -124.269000
  C    -104.247000    9.168700  -123.254000
  C    -103.461000    8.205610  -122.744000
  C    -103.986000    6.880500  -122.967000
  C    -105.073000    6.906870  -123.890000
  H    -102.568000    8.480010  -122.204000
  C    -103.272000    5.705110  -122.421000
  H    -102.307000    5.732190  -122.869000
  H    -103.629000    4.755810  -122.715000
  C    -103.198000    5.665790  -120.882000
  H    -102.588000    6.535520  -120.622000
  H    -102.717000    4.812670  -120.377000
  C    -104.428000    5.985900  -120.017000
  H    -104.055000    6.439270  -119.050000
  H    -104.985000    5.042950  -119.794000
  H    -105.061000    6.769650  -120.400000
  H    -106.854000    2.938270  -126.391000
  H    -103.839000   10.207800  -123.101000

 Total Charge           Charge          ....    0
 Multiplicity           Mult            ....    1
 Number of Electrons    NEL             ....  134
 Basis Dimension        Dim             ....  322

ORBITAL ENERGIES
----------------

  NO   OCC          E(Eh)            E(eV)
   0   2.0000     -88.969812     -2420.9917
   1   2.0000     -88.963430     -2420.8180
   2   2.0000     -10.331689      -281.1396
   3   2.0000     -10.325460      -280.9700
   4   2.0000     -10.317190      -280.7450
   5   2.0000     -10.313194      -280.6363
   6   2.0000     -10.309458      -280.5346
   7   2.0000     -10.305812      -280.4354
   8   2.0000     -10.297589      -280.2116
   9   2.0000     -10.293262      -280.0939
  10   2.0000     -10.290503      -280.0188
  11   2.0000     -10.289985      -280.0047
  12   2.0000     -10.285734      -279.8891
  13   2.0000     -10.283736      -279.8347
  14   2.0000     -10.282184      -279.7924
  15   2.0000     -10.279528      -279.7202
  16   2.0000      -8.084012      -219.9772
  17   2.0000      -8.078165      -219.8180
  18   2.0000      -6.042657      -164.4291
  19   2.0000      -6.038644      -164.3198
  20   2.0000      -6.036748      -164.2683
  21   2.0000      -6.034604      -164.2099
  22   2.0000      -6.032443      -164.1511
  23   2.0000      -6.029062      -164.0591
  24   2.0000      -1.003116       -27.2962
  25   2.0000      -0.981777       -26.7155
  26   2.0000      -0.912336       -24.8259
  27   2.0000      -0.910847       -24.7854
  28   2.0000      -0.870794       -23.6955
  29   2.0000      -0.847648       -23.0657
  30   2.0000      -0.841887       -22.9089
  31   2.0000      -0.818209       -22.2646
  32   2.0000      -0.785085       -21.3632
  33   2.0000      -0.771599       -20.9963
  34   2.0000      -0.712466       -19.3872
  35   2.0000      -0.692376       -18.8405
  36   2.0000      -0.686520       -18.6812
  37   2.0000      -0.650238       -17.6939
  38   2.0000      -0.640804       -17.4372
  39   2.0000      -0.618748       -16.8370
  40   2.0000      -0.597308       -16.2536
  41   2.0000      -0.574775       -15.6404
  42   2.0000      -0.567221       -15.4349
  43   2.0000      -0.552423       -15.0322
  44   2.0000      -0.548470       -14.9246
  45   2.0000      -0.524738       -14.2788
  46   2.0000      -0.516224       -14.0472
  47   2.0000      -0.505139       -13.7455
  48   2.0000      -0.501252       -13.6398
  49   2.0000      -0.497521       -13.5382
  50   2.0000      -0.489838       -13.3292
  51   2.0000      -0.481066       -13.0905
  52   2.0000      -0.469999       -12.7893
  53   2.0000      -0.463759       -12.6195
  54   2.0000      -0.455531       -12.3956
  55   2.0000      -0.450460       -12.2576
  56   2.0000      -0.446605       -12.1527
  57   2.0000      -0.441083       -12.0025
  58   2.0000      -0.436810       -11.8862
  59   2.0000      -0.426797       -11.6137
  60   2.0000      -0.419545       -11.4164
  61   2.0000      -0.410783       -11.1780
  62   2.0000      -0.395820       -10.7708
  63   2.0000      -0.338026        -9.1982
  64   2.0000      -0.325924        -8.8689
  65   2.0000      -0.324636        -8.8338
  66   2.0000      -0.303788        -8.2665
  67   0.0000       0.040183         1.0934
  68   0.0000       0.058007         1.5785
  69   0.0000       0.113900         3.0994
  70   0.0000       0.118464         3.2236
  71   0.0000       0.129172         3.5149

MULLIKEN ATOMIC CHARGES
-----------------------
   0 S :    0.113037
   1 C :   -0.094081
   2 C :   -0.099097
   3 C :    0.034457
   4 C :   -0.153785
   5 H :   -0.008341
   6 C :    0.038917
   7 H :    0.028534
   8 H :    0.050734
   9 C :   -0.124819
  10 H :    0.045599
  11 H :    0.041893
  12 C :   -0.032373
  13 H :    0.027980
  14 H :    0.040971
  15 H :    0.031726
  16 S :    0.124408
  17 C :   -0.088460
  18 C :   -0.052073
  19 C :   -0.045189
  20 C :   -0.176430
  21 H :    0.023931
  22 C :    0.162731
  23 H :    0.029314
  24 H :    0.010166
  25 C :   -0.118146
  26 H :    0.014396
  27 H :    0.037506
  28 C :   -0.078539
  29 H :    0.033475
  30 H :    0.041102
  31 H :    0.041881
  32 H :    0.030370
  33 H :    0.068205
Sum of atomic charges:    0.0000000

LOEWDIN ATOMIC CHARGES
----------------------
   0 S :    0.416763
   1 C :   -0.194550
   2 C :   -0.060447
   3 C :   -0.059592
   4 C :   -0.209603
   5 H :    0.018786
   6 C :   -0.039098
   7 H :    0.028453
   8 H :    0.043684
   9 C :   -0.048169
  10 H :    0.027679
  11 H :    0.029748
  12 C :   -0.064695
  13 H :    0.024003
  14 H :    0.029231
  15 H :    0.026481
  16 S :    0.402993
  17 C :   -0.196498
  18 C :   -0.076552
  19 C :   -0.035699
  20 C :   -0.203580
  21 H :    0.032653
  22 C :   -0.029324
  23 H :    0.037225
  24 H :    0.024466
  25 C :   -0.048723
  26 H :    0.019738
  27 H :    0.029468
  28 C :   -0.071713
  29 H :    0.033284
  30 H :    0.024805
  31 H :    0.022565
  32 H :    0.020004
  33 H :    0.046215

  Mayer bond orders larger than 0.100000
B(  0-S ,  1-C ) :   1.1461 B(  0-S ,  4-C ) :   1.1548 B(  1-C ,  2-C ) :   1.5933
B(  1-C , 32-H ) :   0.9758 B(  2-C ,  3-C ) :   1.2329 B(  2-C ,  6-C ) :   1.0272
B(  3-C ,  4-C ) :   1.5845 B(  3-C ,  5-H ) :   1.0031 B(  4-C , 20-C ) :   1.0254
B(  6-C ,  7-H ) :   0.9388 B(  6-C ,  8-H ) :   0.9383 B(  6-C ,  9-C ) :   1.0644
B(  9-C , 10-H ) :   0.9606 B(  9-C , 11-H ) :   0.9429 B(  9-C , 12-C ) :   1.0863
B( 12-C , 13-H ) :   0.9742 B( 12-C , 14-H ) :   0.9745 B( 12-C , 15-H ) :   0.9724
B( 16-S , 17-C ) :   1.1450 B( 16-S , 20-C ) :   1.1264 B( 17-C , 18-C ) :   1.6643
B( 17-C , 33-H ) :   0.9503 B( 18-C , 19-C ) :   1.2095 B( 18-C , 21-H ) :   0.9853
B( 19-C , 20-C ) :   1.5921 B( 19-C , 22-C ) :   1.0510 B( 22-C , 23-H ) :   0.9340
B( 22-C , 24-H ) :   0.9286 B( 22-C , 25-C ) :   1.0432 B( 25-C , 26-H ) :   0.9625
B( 25-C , 27-H ) :   0.9613 B( 25-C , 28-C ) :   1.0800 B( 28-C , 29-H ) :   0.9763
B( 28-C , 30-H ) :   0.9773 B( 28-C , 31-H ) :   0.9680

Dispersion correction           -0.014593878
FINAL SINGLE POINT ENERGY     -1339.868824707068

DIPOLE MOMENT
-------------
                                X             Y             Z
Electronic contribution:      6.14382      16.24694     -22.75351
Nuclear contribution   :     -6.05854     -16.54954      23.31018
                        -----------------------------------------
Total Dipole Moment    :      0.08528      -0.30260       0.55668
                        -----------------------------------------
Magnitude (a.u.)       :      0.63932
Magnitude (Debye)      :      1.62503

Rotational constants in cm-1:     0.017861     0.008723     0.007042
Rotational constants in MHz :   535.455967   261.523820   211.101518

                             ****ORCA TERMINATED NORMALLY****
TOTAL RUN TIME: 0 days 0 hours 0 minutes 21 seconds 886 msec
