                         Program Version 4.2.1 -  RELEASE  -
|  1> ! wB97X-D3 SP def2-SVP
|  2> %pal
|  3> nprocs 24
|  4> end
|  5>
|  6> * xyz 0 1
|  7> S 	 13.6599 	 -14.8401 	 -115.365
|  8> C 	 12.4732 	 -13.7549 	 -116.046
|  9> C 	 11.5706 	 -14.3439 	 -116.873
| 10> C 	 11.8088 	 -15.7263 	 -116.949
| 11> C 	 13.0115 	 -16.0693 	 -116.364
| 12> H 	 11.3413 	 -16.478 	 -117.597
| 13> C 	 10.2602 	 -13.7385 	 -117.445
| 14> H 	 10.4475 	 -13.4185 	 -118.505
| 15> H 	 10.017 	 -12.9337 	 -116.687
| 16> C 	 8.99171 	 -14.7009 	 -117.486
| 17> H 	 8.93493 	 -15.26 	 -118.402
| 18> H 	 9.03732 	 -15.3546 	 -116.607
| 19> C 	 7.63373 	 -14.047 	 -117.372
| 20> H 	 6.78234 	 -14.7032 	 -117.465
| 21> H 	 7.45558 	 -13.655 	 -116.377
| 22> H 	 7.4453 	 -13.2851 	 -118.162
| 23> S 	 13.8585 	 -18.1667 	 -114.948
| 24> C 	 14.3721 	 -19.6571 	 -115.735
| 25> C 	 14.2119 	 -19.5188 	 -117.148
| 26> C 	 13.7708 	 -18.2376 	 -117.562
| 27> C 	 13.638 	 -17.3957 	 -116.468
| 28> H 	 14.4819 	 -20.35 	 -117.745
| 29> C 	 13.61 	 -17.864 	 -119.047
| 30> H 	 12.532 	 -18.0048 	 -119.371
| 31> H 	 14.1378 	 -18.6444 	 -119.532
| 32> C 	 14.1388 	 -16.5209 	 -119.596
| 33> H 	 15.1819 	 -16.5539 	 -119.368
| 34> H 	 13.8525 	 -15.6746 	 -119.11
| 35> C 	 13.8427 	 -16.3573 	 -121.097
| 36> H 	 14.6334 	 -15.7356 	 -121.578
| 37> H 	 12.8095 	 -15.958 	 -121.155
| 38> H 	 14.0399 	 -17.4267 	 -121.416
| 39> H 	 12.4983 	 -12.6983 	 -115.87
| 40> H 	 14.7153 	 -20.5619 	 -115.246
| 41> *
| 42>
| 43>                          ****END OF INPUT****

CARTESIAN COORDINATES (ANGSTROEM)
---------------------------------
  S     13.659900  -14.840100  -115.365000
  C     12.473200  -13.754900  -116.046000
  C     11.570600  -14.343900  -116.873000
  C     11.808800  -15.726300  -116.949000
  C     13.011500  -16.069300  -116.364000
  H     11.341300  -16.478000  -117.597000
  C     10.260200  -13.738500  -117.445000
  H     10.447500  -13.418500  -118.505000
  H     10.017000  -12.933700  -116.687000
  C      8.991710  -14.700900  -117.486000
  H      8.934930  -15.260000  -118.402000
  H      9.037320  -15.354600  -116.607000
  C      7.633730  -14.047000  -117.372000
  H      6.782340  -14.703200  -117.465000
  H      7.455580  -13.655000  -116.377000
  H      7.445300  -13.285100  -118.162000
  S     13.858500  -18.166700  -114.948000
  C     14.372100  -19.657100  -115.735000
  C     14.211900  -19.518800  -117.148000
  C     13.770800  -18.237600  -117.562000
  C     13.638000  -17.395700  -116.468000
  H     14.481900  -20.350000  -117.745000
  C     13.610000  -17.864000  -119.047000
  H     12.532000  -18.004800  -119.371000
  H     14.137800  -18.644400  -119.532000
  C     14.138800  -16.520900  -119.596000
  H     15.181900  -16.553900  -119.368000
  H     13.852500  -15.674600  -119.110000
  C     13.842700  -16.357300  -121.097000
  H     14.633400  -15.735600  -121.578000
  H     12.809500  -15.958000  -121.155000
  H     14.039900  -17.426700  -121.416000
  H     12.498300  -12.698300  -115.870000
  H     14.715300  -20.561900  -115.246000

 Total Charge           Charge          ....    0
 Multiplicity           Mult            ....    1
 Number of Electrons    NEL             ....  134
 Basis Dimension        Dim             ....  322

ORBITAL ENERGIES
----------------

  NO   OCC          E(Eh)            E(eV)
   0   2.0000     -88.968597     -2420.9586
   1   2.0000     -88.966816     -2420.9101
   2   2.0000     -10.321661      -280.8667
   3   2.0000     -10.321065      -280.8505
   4   2.0000     -10.319904      -280.8189
   5   2.0000     -10.307516      -280.4818
   6   2.0000     -10.307436      -280.4796
   7   2.0000     -10.304154      -280.3903
   8   2.0000     -10.298561      -280.2381
   9   2.0000     -10.296143      -280.1723
  10   2.0000     -10.295592      -280.1573
  11   2.0000     -10.289735      -279.9979
  12   2.0000     -10.287049      -279.9248
  13   2.0000     -10.286505      -279.9100
  14   2.0000     -10.277687      -279.6701
  15   2.0000     -10.270957      -279.4870
  16   2.0000      -8.084136      -219.9805
  17   2.0000      -8.081736      -219.9152
  18   2.0000      -6.042449      -164.4234
  19   2.0000      -6.040124      -164.3601
  20   2.0000      -6.038724      -164.3220
  21   2.0000      -6.036122      -164.2512
  22   2.0000      -6.034888      -164.2176
  23   2.0000      -6.032720      -164.1586
  24   2.0000      -1.012811       -27.5600
  25   2.0000      -0.986096       -26.8330
  26   2.0000      -0.908602       -24.7243
  27   2.0000      -0.904933       -24.6245
  28   2.0000      -0.869019       -23.6472
  29   2.0000      -0.853543       -23.2261
  30   2.0000      -0.850961       -23.1558
  31   2.0000      -0.808933       -22.0122
  32   2.0000      -0.780106       -21.2278
  33   2.0000      -0.769985       -20.9524
  34   2.0000      -0.707610       -19.2550
  35   2.0000      -0.698792       -19.0151
  36   2.0000      -0.685705       -18.6590
  37   2.0000      -0.665536       -18.1101
  38   2.0000      -0.638924       -17.3860
  39   2.0000      -0.616132       -16.7658
  40   2.0000      -0.592588       -16.1251
  41   2.0000      -0.577621       -15.7179
  42   2.0000      -0.570710       -15.5298
  43   2.0000      -0.557706       -15.1759
  44   2.0000      -0.523306       -14.2399
  45   2.0000      -0.519109       -14.1257
  46   2.0000      -0.515896       -14.0382
  47   2.0000      -0.514085       -13.9890
  48   2.0000      -0.500409       -13.6168
  49   2.0000      -0.497927       -13.5493
  50   2.0000      -0.488834       -13.3018
  51   2.0000      -0.481422       -13.1002
  52   2.0000      -0.472525       -12.8581
  53   2.0000      -0.464923       -12.6512
  54   2.0000      -0.456515       -12.4224
  55   2.0000      -0.447890       -12.1877
  56   2.0000      -0.439978       -11.9724
  57   2.0000      -0.435802       -11.8588
  58   2.0000      -0.434264       -11.8169
  59   2.0000      -0.429347       -11.6831
  60   2.0000      -0.421635       -11.4733
  61   2.0000      -0.419114       -11.4047
  62   2.0000      -0.406508       -11.0617
  63   2.0000      -0.341636        -9.2964
  64   2.0000      -0.337109        -9.1732
  65   2.0000      -0.329656        -8.9704
  66   2.0000      -0.289140        -7.8679
  67   0.0000       0.030590         0.8324
  68   0.0000       0.070853         1.9280
  69   0.0000       0.104761         2.8507
  70   0.0000       0.122471         3.3326
  71   0.0000       0.136456         3.7132

MULLIKEN ATOMIC CHARGES
-----------------------
   0 S :    0.125895
   1 C :   -0.127215
   2 C :   -0.075177
   3 C :    0.021213
   4 C :   -0.179728
   5 H :    0.020816
   6 C :    0.047712
   7 H :    0.052743
   8 H :    0.041659
   9 C :   -0.085735
  10 H :    0.031379
  11 H :    0.040037
  12 C :   -0.052291
  13 H :    0.024294
  14 H :    0.026123
  15 H :    0.032611
  16 S :    0.112514
  17 C :   -0.105496
  18 C :   -0.044010
  19 C :   -0.018954
  20 C :   -0.142800
  21 H :    0.007361
  22 C :    0.043733
  23 H :    0.039431
  24 H :    0.006026
  25 C :   -0.030436
  26 H :    0.016858
  27 H :    0.015599
  28 C :   -0.074424
  29 H :    0.047447
  30 H :    0.054970
  31 H :    0.034103
  32 H :    0.035123
  33 H :    0.058617
Sum of atomic charges:   -0.0000000

LOEWDIN ATOMIC CHARGES
----------------------
   0 S :    0.422449
   1 C :   -0.197839
   2 C :   -0.069357
   3 C :   -0.067613
   4 C :   -0.206066
   5 H :    0.035593
   6 C :   -0.030605
   7 H :    0.039124
   8 H :    0.039088
   9 C :   -0.044879
  10 H :    0.021652
  11 H :    0.029674
  12 C :   -0.069830
  13 H :    0.026421
  14 H :    0.022708
  15 H :    0.026296
  16 S :    0.422710
  17 C :   -0.192395
  18 C :   -0.062712
  19 C :   -0.063167
  20 C :   -0.206304
  21 H :    0.024604
  22 C :   -0.031143
  23 H :    0.033330
  24 H :    0.023820
  25 C :   -0.038282
  26 H :    0.022744
  27 H :    0.008825
  28 C :   -0.067256
  29 H :    0.032955
  30 H :    0.032823
  31 H :    0.032380
  32 H :    0.021108
  33 H :    0.029147

  Mayer bond orders larger than 0.100000
B(  0-S ,  1-C ) :   1.1331 B(  0-S ,  4-C ) :   1.1692 B(  1-C ,  2-C ) :   1.6450
B(  1-C , 32-H ) :   0.9670 B(  2-C ,  3-C ) :   1.2351 B(  2-C ,  6-C ) :   0.9993
B(  3-C ,  4-C ) :   1.5780 B(  3-C ,  5-H ) :   0.9877 B(  4-C , 20-C ) :   1.0000
B(  6-C ,  7-H ) :   0.9301 B(  6-C ,  8-H ) :   0.9566 B(  6-C ,  9-C ) :   1.0688
B(  9-C , 10-H ) :   0.9519 B(  9-C , 11-H ) :   0.9580 B(  9-C , 12-C ) :   1.0953
B( 12-C , 13-H ) :   0.9703 B( 12-C , 14-H ) :   0.9733 B( 12-C , 15-H ) :   0.9732
B( 16-S , 17-C ) :   1.1597 B( 16-S , 20-C ) :   1.1768 B( 17-C , 18-C ) :   1.5789
B( 17-C , 20-C ) :   0.1082 B( 17-C , 33-H ) :   0.9706 B( 18-C , 19-C ) :   1.2646
B( 18-C , 21-H ) :   0.9937 B( 19-C , 20-C ) :   1.5764 B( 19-C , 22-C ) :   1.0268
B( 22-C , 23-H ) :   0.9301 B( 22-C , 24-H ) :   0.9298 B( 22-C , 25-C ) :   1.0602
B( 25-C , 26-H ) :   0.9515 B( 25-C , 27-H ) :   0.9551 B( 25-C , 28-C ) :   1.0705
B( 28-C , 29-H ) :   0.9737 B( 28-C , 30-H ) :   0.9761 B( 28-C , 31-H ) :   0.9772

Dispersion correction           -0.014435792
FINAL SINGLE POINT ENERGY     -1339.856612689498

DIPOLE MOMENT
-------------
                                X             Y             Z
Electronic contribution:     16.59404      -6.54776      22.83320
Nuclear contribution   :    -16.91154       6.50722     -23.30697
                        -----------------------------------------
Total Dipole Moment    :     -0.31750      -0.04053      -0.47377
                        -----------------------------------------
Magnitude (a.u.)       :      0.57175
Magnitude (Debye)      :      1.45328

Rotational constants in cm-1:     0.016743     0.009028     0.007519
Rotational constants in MHz :   501.945753   270.667039   225.421132

                             ****ORCA TERMINATED NORMALLY****
TOTAL RUN TIME: 0 days 0 hours 0 minutes 20 seconds 930 msec
