                         Program Version 4.2.1 -  RELEASE  -
|  1> ! wB97X-D3 SP def2-SVP
|  2> %pal
|  3> nprocs 24
|  4> end
|  5>
|  6> * xyz 0 1
|  7> S 	 -120.951 	 65.5174 	 -65.7472
|  8> C 	 -120.964 	 63.7424 	 -65.8957
|  9> C 	 -121.122 	 63.1879 	 -64.6006
| 10> C 	 -121.02 	 64.1298 	 -63.4904
| 11> C 	 -121 	 65.4471 	 -63.9954
| 12> H 	 -120.84 	 63.8374 	 -62.4271
| 13> C 	 -121.396 	 61.738 	 -64.3286
| 14> H 	 -120.632 	 61.2678 	 -63.6262
| 15> H 	 -121.271 	 61.1559 	 -65.2952
| 16> C 	 -122.887 	 61.3742 	 -63.8982
| 17> H 	 -123.055 	 61.7887 	 -62.8969
| 18> H 	 -123.596 	 61.8147 	 -64.5529
| 19> C 	 -123.147 	 59.9532 	 -63.6172
| 20> H 	 -124.226 	 59.942 	 -63.431
| 21> H 	 -122.754 	 59.3481 	 -64.5003
| 22> H 	 -122.655 	 59.771 	 -62.632
| 23> S 	 -119.256 	 67.5283 	 -63.7363
| 24> C 	 -119.489 	 68.6888 	 -62.5321
| 25> C 	 -120.546 	 68.3847 	 -61.7117
| 26> C 	 -121.33 	 67.3212 	 -62.1679
| 27> C 	 -120.697 	 66.7207 	 -63.2546
| 28> H 	 -120.86 	 69.134 	 -60.9657
| 29> C 	 -122.728 	 67.0385 	 -61.6522
| 30> H 	 -123.287 	 66.7447 	 -62.5256
| 31> H 	 -123.162 	 68.0003 	 -61.2086
| 32> C 	 -122.755 	 66.0097 	 -60.4932
| 33> H 	 -122.306 	 65.0881 	 -60.9149
| 34> H 	 -123.769 	 65.643 	 -60.2568
| 35> C 	 -121.998 	 66.4261 	 -59.181
| 36> H 	 -121.899 	 65.5831 	 -58.4925
| 37> H 	 -122.416 	 67.3264 	 -58.7309
| 38> H 	 -120.991 	 66.5763 	 -59.4929
| 39> H 	 -121.127 	 63.1377 	 -66.8583
| 40> H 	 -118.85 	 69.4634 	 -62.1915
| 41> *
| 42>
| 43>                          ****END OF INPUT****

CARTESIAN COORDINATES (ANGSTROEM)
---------------------------------
  S    -120.951000   65.517400  -65.747200
  C    -120.964000   63.742400  -65.895700
  C    -121.122000   63.187900  -64.600600
  C    -121.020000   64.129800  -63.490400
  C    -121.000000   65.447100  -63.995400
  H    -120.840000   63.837400  -62.427100
  C    -121.396000   61.738000  -64.328600
  H    -120.632000   61.267800  -63.626200
  H    -121.271000   61.155900  -65.295200
  C    -122.887000   61.374200  -63.898200
  H    -123.055000   61.788700  -62.896900
  H    -123.596000   61.814700  -64.552900
  C    -123.147000   59.953200  -63.617200
  H    -124.226000   59.942000  -63.431000
  H    -122.754000   59.348100  -64.500300
  H    -122.655000   59.771000  -62.632000
  S    -119.256000   67.528300  -63.736300
  C    -119.489000   68.688800  -62.532100
  C    -120.546000   68.384700  -61.711700
  C    -121.330000   67.321200  -62.167900
  C    -120.697000   66.720700  -63.254600
  H    -120.860000   69.134000  -60.965700
  C    -122.728000   67.038500  -61.652200
  H    -123.287000   66.744700  -62.525600
  H    -123.162000   68.000300  -61.208600
  C    -122.755000   66.009700  -60.493200
  H    -122.306000   65.088100  -60.914900
  H    -123.769000   65.643000  -60.256800
  C    -121.998000   66.426100  -59.181000
  H    -121.899000   65.583100  -58.492500
  H    -122.416000   67.326400  -58.730900
  H    -120.991000   66.576300  -59.492900
  H    -121.127000   63.137700  -66.858300
  H    -118.850000   69.463400  -62.191500

 Total Charge           Charge          ....    0
 Multiplicity           Mult            ....    1
 Number of Electrons    NEL             ....  134
 Basis Dimension        Dim             ....  322

ORBITAL ENERGIES
----------------

  NO   OCC          E(Eh)            E(eV)
   0   2.0000     -88.970010     -2420.9970
   1   2.0000     -88.969183     -2420.9745
   2   2.0000     -10.338817      -281.3335
   3   2.0000     -10.326494      -280.9982
   4   2.0000     -10.325068      -280.9594
   5   2.0000     -10.309458      -280.5346
   6   2.0000     -10.306472      -280.4534
   7   2.0000     -10.305761      -280.4340
   8   2.0000     -10.301579      -280.3202
   9   2.0000     -10.299160      -280.2544
  10   2.0000     -10.297392      -280.2063
  11   2.0000     -10.290174      -280.0099
  12   2.0000     -10.286581      -279.9121
  13   2.0000     -10.284016      -279.8423
  14   2.0000     -10.281196      -279.7656
  15   2.0000     -10.277800      -279.6731
  16   2.0000      -8.085192      -220.0093
  17   2.0000      -8.083795      -219.9712
  18   2.0000      -6.043446      -164.4505
  19   2.0000      -6.042427      -164.4228
  20   2.0000      -6.039407      -164.3406
  21   2.0000      -6.038358      -164.3121
  22   2.0000      -6.036241      -164.2545
  23   2.0000      -6.034558      -164.2087
  24   2.0000      -1.012769       -27.5588
  25   2.0000      -0.981093       -26.6969
  26   2.0000      -0.911152       -24.7937
  27   2.0000      -0.906519       -24.6676
  28   2.0000      -0.868713       -23.6389
  29   2.0000      -0.849675       -23.1208
  30   2.0000      -0.847406       -23.0591
  31   2.0000      -0.813227       -22.1290
  32   2.0000      -0.783095       -21.3091
  33   2.0000      -0.765069       -20.8186
  34   2.0000      -0.703732       -19.1495
  35   2.0000      -0.689594       -18.7648
  36   2.0000      -0.684155       -18.6168
  37   2.0000      -0.658808       -17.9271
  38   2.0000      -0.634276       -17.2595
  39   2.0000      -0.617107       -16.7923
  40   2.0000      -0.590657       -16.0726
  41   2.0000      -0.571437       -15.5496
  42   2.0000      -0.562512       -15.3067
  43   2.0000      -0.552417       -15.0320
  44   2.0000      -0.542357       -14.7583
  45   2.0000      -0.526696       -14.3321
  46   2.0000      -0.515840       -14.0367
  47   2.0000      -0.506408       -13.7801
  48   2.0000      -0.501573       -13.6485
  49   2.0000      -0.495967       -13.4960
  50   2.0000      -0.492731       -13.4079
  51   2.0000      -0.477612       -12.9965
  52   2.0000      -0.467429       -12.7194
  53   2.0000      -0.461060       -12.5461
  54   2.0000      -0.453727       -12.3465
  55   2.0000      -0.450852       -12.2683
  56   2.0000      -0.447513       -12.1774
  57   2.0000      -0.440592       -11.9891
  58   2.0000      -0.430451       -11.7132
  59   2.0000      -0.420824       -11.4512
  60   2.0000      -0.420050       -11.4302
  61   2.0000      -0.414147       -11.2695
  62   2.0000      -0.407060       -11.0767
  63   2.0000      -0.345542        -9.4027
  64   2.0000      -0.333806        -9.0833
  65   2.0000      -0.325472        -8.8566
  66   2.0000      -0.295154        -8.0316
  67   0.0000       0.030563         0.8317
  68   0.0000       0.066557         1.8111
  69   0.0000       0.109994         2.9931
  70   0.0000       0.114368         3.1121
  71   0.0000       0.126890         3.4528

MULLIKEN ATOMIC CHARGES
-----------------------
   0 S :    0.098734
   1 C :   -0.134904
   2 C :   -0.097799
   3 C :    0.034923
   4 C :   -0.153384
   5 H :    0.054463
   6 C :   -0.005847
   7 H :    0.042106
   8 H :    0.017671
   9 C :   -0.080508
  10 H :    0.015581
  11 H :    0.027073
  12 C :   -0.043111
  13 H :    0.041353
  14 H :    0.045882
  15 H :    0.035368
  16 S :    0.146064
  17 C :   -0.069748
  18 C :   -0.070723
  19 C :   -0.035239
  20 C :   -0.184803
  21 H :    0.025489
  22 C :    0.073856
  23 H :    0.039626
  24 H :    0.034024
  25 C :   -0.084107
  26 H :    0.007936
  27 H :    0.028196
  28 C :   -0.040474
  29 H :    0.036439
  30 H :    0.039599
  31 H :    0.028844
  32 H :    0.085422
  33 H :    0.041998
Sum of atomic charges:    0.0000000

LOEWDIN ATOMIC CHARGES
----------------------
   0 S :    0.394738
   1 C :   -0.214274
   2 C :   -0.063153
   3 C :   -0.066396
   4 C :   -0.189075
   5 H :    0.043494
   6 C :   -0.047158
   7 H :    0.036054
   8 H :    0.028784
   9 C :   -0.045222
  10 H :    0.022506
  11 H :    0.017186
  12 C :   -0.068048
  13 H :    0.033512
  14 H :    0.030314
  15 H :    0.030561
  16 S :    0.456409
  17 C :   -0.208366
  18 C :   -0.078705
  19 C :   -0.061221
  20 C :   -0.216757
  21 H :    0.034063
  22 C :   -0.027100
  23 H :    0.034773
  24 H :    0.036392
  25 C :   -0.043962
  26 H :    0.019982
  27 H :    0.021149
  28 C :   -0.064406
  29 H :    0.030189
  30 H :    0.025053
  31 H :    0.022887
  32 H :    0.049537
  33 H :    0.026260

  Mayer bond orders larger than 0.100000
B(  0-S ,  1-C ) :   1.1154 B(  0-S ,  4-C ) :   1.1691 B(  1-C ,  2-C ) :   1.6162
B(  1-C , 32-H ) :   0.9542 B(  2-C ,  3-C ) :   1.2219 B(  2-C ,  6-C ) :   1.0482
B(  3-C ,  4-C ) :   1.5713 B(  3-C ,  5-H ) :   0.9755 B(  4-C , 20-C ) :   0.9844
B(  6-C ,  7-H ) :   0.9411 B(  6-C ,  8-H ) :   0.9412 B(  6-C ,  9-C ) :   1.0497
B(  9-C , 10-H ) :   0.9557 B(  9-C , 11-H ) :   0.9595 B(  9-C , 12-C ) :   1.0788
B( 12-C , 13-H ) :   0.9709 B( 12-C , 14-H ) :   0.9716 B( 12-C , 15-H ) :   0.9776
B( 16-S , 17-C ) :   1.1703 B( 16-S , 20-C ) :   1.1782 B( 17-C , 18-C ) :   1.6098
B( 17-C , 33-H ) :   0.9630 B( 18-C , 19-C ) :   1.2811 B( 18-C , 21-H ) :   0.9749
B( 19-C , 20-C ) :   1.5793 B( 19-C , 22-C ) :   1.0234 B( 22-C , 23-H ) :   0.9352
B( 22-C , 24-H ) :   0.9455 B( 22-C , 25-C ) :   1.0624 B( 25-C , 26-H ) :   0.9532
B( 25-C , 27-H ) :   0.9575 B( 25-C , 28-C ) :   1.0693 B( 28-C , 29-H ) :   0.9729
B( 28-C , 30-H ) :   0.9769 B( 28-C , 31-H ) :   0.9723

Dispersion correction           -0.014345146
FINAL SINGLE POINT ENERGY     -1339.862695595295

DIPOLE MOMENT
-------------
                                X             Y             Z
Electronic contribution:     15.08262      19.02056     -17.54562
Nuclear contribution   :    -15.34500     -19.29597      17.96913
                        -----------------------------------------
Total Dipole Moment    :     -0.26238      -0.27541       0.42351
                        -----------------------------------------
Magnitude (a.u.)       :      0.56926
Magnitude (Debye)      :      1.44693

Rotational constants in cm-1:     0.018724     0.008839     0.006467
Rotational constants in MHz :   561.334642   264.975289   193.878986

                             ****ORCA TERMINATED NORMALLY****
TOTAL RUN TIME: 0 days 0 hours 0 minutes 20 seconds 398 msec
