                         Program Version 4.2.1 -  RELEASE  -
|  1> ! wB97X-D3 SP def2-SVP
|  2> %pal
|  3> nprocs 24
|  4> end
|  5>
|  6> * xyz 0 1
|  7> S 	 -32.9007 	 15.2652 	 -1.84811
|  8> C 	 -32.8684 	 13.6602 	 -2.48036
|  9> C 	 -33.3016 	 12.7731 	 -1.56319
| 10> C 	 -33.5505 	 13.3728 	 -0.313657
| 11> C 	 -33.3685 	 14.7682 	 -0.27261
| 12> H 	 -33.9008 	 12.8075 	 0.54582
| 13> C 	 -33.2445 	 11.2979 	 -1.79552
| 14> H 	 -32.2842 	 11.0631 	 -2.1773
| 15> H 	 -33.9467 	 11.1035 	 -2.64159
| 16> C 	 -33.6578 	 10.3937 	 -0.613803
| 17> H 	 -32.7979 	 10.4531 	 0.132518
| 18> H 	 -34.6464 	 10.6426 	 -0.184144
| 19> C 	 -33.6632 	 8.9194 	 -0.890415
| 20> H 	 -34.2785 	 8.81043 	 -1.77715
| 21> H 	 -32.6732 	 8.4867 	 -1.0473
| 22> H 	 -34.1199 	 8.36393 	 -0.0708211
| 23> S 	 -32.2968 	 16.7086 	 1.22777
| 24> C 	 -33.2588 	 17.4906 	 2.4418
| 25> C 	 -34.5544 	 17.05 	 2.40432
| 26> C 	 -34.7585 	 15.9463 	 1.5377
| 27> C 	 -33.6622 	 15.633 	 0.780734
| 28> H 	 -35.278 	 17.4575 	 3.01621
| 29> C 	 -36.0941 	 15.379 	 1.28523
| 30> H 	 -36.7004 	 15.6632 	 2.15625
| 31> H 	 -36.229 	 14.325 	 1.20059
| 32> C 	 -36.7799 	 16.005 	 0.0880423
| 33> H 	 -36.2263 	 15.8472 	 -0.879277
| 34> H 	 -36.8332 	 17.086 	 0.0617455
| 35> C 	 -38.3274 	 15.5457 	 0.0308
| 36> H 	 -38.9542 	 16.1777 	 0.620711
| 37> H 	 -38.3164 	 14.6316 	 0.593855
| 38> H 	 -38.6346 	 15.4678 	 -1.02401
| 39> H 	 -32.3302 	 13.2396 	 -3.35395
| 40> H 	 -32.8898 	 18.3594 	 3.0528
| 41> *
| 42>
| 43>                          ****END OF INPUT****

CARTESIAN COORDINATES (ANGSTROEM)
---------------------------------
  S    -32.900700   15.265200   -1.848110
  C    -32.868400   13.660200   -2.480360
  C    -33.301600   12.773100   -1.563190
  C    -33.550500   13.372800   -0.313657
  C    -33.368500   14.768200   -0.272610
  H    -33.900800   12.807500    0.545820
  C    -33.244500   11.297900   -1.795520
  H    -32.284200   11.063100   -2.177300
  H    -33.946700   11.103500   -2.641590
  C    -33.657800   10.393700   -0.613803
  H    -32.797900   10.453100    0.132518
  H    -34.646400   10.642600   -0.184144
  C    -33.663200    8.919400   -0.890415
  H    -34.278500    8.810430   -1.777150
  H    -32.673200    8.486700   -1.047300
  H    -34.119900    8.363930   -0.070821
  S    -32.296800   16.708600    1.227770
  C    -33.258800   17.490600    2.441800
  C    -34.554400   17.050000    2.404320
  C    -34.758500   15.946300    1.537700
  C    -33.662200   15.633000    0.780734
  H    -35.278000   17.457500    3.016210
  C    -36.094100   15.379000    1.285230
  H    -36.700400   15.663200    2.156250
  H    -36.229000   14.325000    1.200590
  C    -36.779900   16.005000    0.088042
  H    -36.226300   15.847200   -0.879277
  H    -36.833200   17.086000    0.061745
  C    -38.327400   15.545700    0.030800
  H    -38.954200   16.177700    0.620711
  H    -38.316400   14.631600    0.593855
  H    -38.634600   15.467800   -1.024010
  H    -32.330200   13.239600   -3.353950
  H    -32.889800   18.359400    3.052800

 Total Charge           Charge          ....    0
 Multiplicity           Mult            ....    1
 Number of Electrons    NEL             ....  134
 Basis Dimension        Dim             ....  322

ORBITAL ENERGIES
----------------

  NO   OCC          E(Eh)            E(eV)
   0   2.0000     -88.966043     -2420.8891
   1   2.0000     -88.960541     -2420.7394
   2   2.0000     -10.323398      -280.9139
   3   2.0000     -10.320921      -280.8465
   4   2.0000     -10.320788      -280.8429
   5   2.0000     -10.305229      -280.4195
   6   2.0000     -10.300825      -280.2997
   7   2.0000     -10.293313      -280.0953
   8   2.0000     -10.291778      -280.0535
   9   2.0000     -10.290269      -280.0125
  10   2.0000     -10.289397      -279.9887
  11   2.0000     -10.287768      -279.9444
  12   2.0000     -10.287129      -279.9270
  13   2.0000     -10.285314      -279.8776
  14   2.0000     -10.276835      -279.6469
  15   2.0000     -10.276648      -279.6418
  16   2.0000      -8.081271      -219.9026
  17   2.0000      -8.075424      -219.7435
  18   2.0000      -6.039774      -164.3506
  19   2.0000      -6.035526      -164.2350
  20   2.0000      -6.033859      -164.1896
  21   2.0000      -6.032168      -164.1436
  22   2.0000      -6.029874      -164.0812
  23   2.0000      -6.026276      -163.9833
  24   2.0000      -1.014514       -27.6063
  25   2.0000      -0.990341       -26.9486
  26   2.0000      -0.918058       -24.9816
  27   2.0000      -0.911367       -24.7996
  28   2.0000      -0.880916       -23.9709
  29   2.0000      -0.851077       -23.1590
  30   2.0000      -0.845843       -23.0166
  31   2.0000      -0.814627       -22.1671
  32   2.0000      -0.783760       -21.3272
  33   2.0000      -0.771593       -20.9961
  34   2.0000      -0.717174       -19.5153
  35   2.0000      -0.699017       -19.0212
  36   2.0000      -0.684657       -18.6305
  37   2.0000      -0.668432       -18.1889
  38   2.0000      -0.634455       -17.2644
  39   2.0000      -0.621525       -16.9126
  40   2.0000      -0.606242       -16.4967
  41   2.0000      -0.579528       -15.7698
  42   2.0000      -0.572714       -15.5843
  43   2.0000      -0.554179       -15.0800
  44   2.0000      -0.529368       -14.4048
  45   2.0000      -0.526824       -14.3356
  46   2.0000      -0.519958       -14.1488
  47   2.0000      -0.512549       -13.9472
  48   2.0000      -0.504801       -13.7363
  49   2.0000      -0.502266       -13.6673
  50   2.0000      -0.496635       -13.5141
  51   2.0000      -0.486082       -13.2270
  52   2.0000      -0.471716       -12.8360
  53   2.0000      -0.466778       -12.7017
  54   2.0000      -0.456955       -12.4344
  55   2.0000      -0.452880       -12.3235
  56   2.0000      -0.447100       -12.1662
  57   2.0000      -0.440754       -11.9935
  58   2.0000      -0.434603       -11.8261
  59   2.0000      -0.422438       -11.4951
  60   2.0000      -0.412615       -11.2278
  61   2.0000      -0.406579       -11.0636
  62   2.0000      -0.406126       -11.0512
  63   2.0000      -0.340121        -9.2552
  64   2.0000      -0.333284        -9.0691
  65   2.0000      -0.328432        -8.9371
  66   2.0000      -0.294143        -8.0040
  67   0.0000       0.027493         0.7481
  68   0.0000       0.068741         1.8705
  69   0.0000       0.120108         3.2683
  70   0.0000       0.128911         3.5078
  71   0.0000       0.129725         3.5300

MULLIKEN ATOMIC CHARGES
-----------------------
   0 S :    0.132654
   1 C :   -0.133754
   2 C :   -0.085817
   3 C :    0.016337
   4 C :   -0.137944
   5 H :    0.009825
   6 C :    0.067807
   7 H :    0.023954
   8 H :    0.032360
   9 C :   -0.133608
  10 H :    0.041248
  11 H :    0.045531
  12 C :   -0.020502
  13 H :    0.018541
  14 H :    0.033086
  15 H :    0.035635
  16 S :    0.089776
  17 C :   -0.090969
  18 C :   -0.015704
  19 C :    0.010650
  20 C :   -0.181406
  21 H :   -0.012399
  22 C :    0.072864
  23 H :    0.010354
  24 H :    0.026673
  25 C :   -0.109698
  26 H :    0.040757
  27 H :    0.020044
  28 C :   -0.033943
  29 H :    0.029171
  30 H :    0.016051
  31 H :    0.051231
  32 H :    0.053127
  33 H :    0.078067
Sum of atomic charges:   -0.0000000

LOEWDIN ATOMIC CHARGES
----------------------
   0 S :    0.437762
   1 C :   -0.219244
   2 C :   -0.072559
   3 C :   -0.063681
   4 C :   -0.216960
   5 H :    0.028784
   6 C :   -0.032900
   7 H :    0.027851
   8 H :    0.036269
   9 C :   -0.051015
  10 H :    0.033372
  11 H :    0.028477
  12 C :   -0.063381
  13 H :    0.020199
  14 H :    0.024369
  15 H :    0.029008
  16 S :    0.391664
  17 C :   -0.184882
  18 C :   -0.065712
  19 C :   -0.047122
  20 C :   -0.184543
  21 H :    0.019408
  22 C :   -0.035885
  23 H :    0.031957
  24 H :    0.027666
  25 C :   -0.039970
  26 H :    0.027899
  27 H :    0.019371
  28 C :   -0.060489
  29 H :    0.020335
  30 H :    0.018941
  31 H :    0.032718
  32 H :    0.040077
  33 H :    0.042218

  Mayer bond orders larger than 0.100000
B(  0-S ,  1-C ) :   1.1428 B(  0-S ,  4-C ) :   1.1659 B(  1-C ,  2-C ) :   1.5962
B(  1-C ,  4-C ) :   0.1061 B(  1-C , 32-H ) :   0.9628 B(  2-C ,  3-C ) :   1.3027
B(  2-C ,  6-C ) :   1.0033 B(  3-C ,  4-C ) :   1.4987 B(  3-C ,  5-H ) :   0.9955
B(  4-C , 20-C ) :   1.0776 B(  6-C ,  7-H ) :   0.9403 B(  6-C ,  8-H ) :   0.9284
B(  6-C ,  9-C ) :   1.0888 B(  9-C , 10-H ) :   0.9485 B(  9-C , 11-H ) :   0.9515
B(  9-C , 12-C ) :   1.0893 B( 12-C , 13-H ) :   0.9715 B( 12-C , 14-H ) :   0.9754
B( 12-C , 15-H ) :   0.9713 B( 16-S , 17-C ) :   1.1627 B( 16-S , 20-C ) :   1.1223
B( 17-C , 18-C ) :   1.6012 B( 17-C , 20-C ) :   0.1017 B( 17-C , 33-H ) :   0.9594
B( 18-C , 19-C ) :   1.2342 B( 18-C , 21-H ) :   1.0015 B( 19-C , 20-C ) :   1.5885
B( 19-C , 22-C ) :   1.0675 B( 22-C , 23-H ) :   0.9242 B( 22-C , 24-H ) :   0.9278
B( 22-C , 25-C ) :   1.0633 B( 25-C , 26-H ) :   0.9611 B( 25-C , 27-H ) :   0.9570
B( 25-C , 28-C ) :   1.0541 B( 28-C , 29-H ) :   0.9783 B( 28-C , 30-H ) :   0.9782
B( 28-C , 31-H ) :   0.9764

Dispersion correction           -0.014009996
FINAL SINGLE POINT ENERGY     -1339.865825221505

DIPOLE MOMENT
-------------
                                X             Y             Z
Electronic contribution:     18.20069      20.55081       0.86692
Nuclear contribution   :    -18.58369     -20.93844      -0.70638
                        -----------------------------------------
Total Dipole Moment    :     -0.38300      -0.38763       0.16054
                        -----------------------------------------
Magnitude (a.u.)       :      0.56808
Magnitude (Debye)      :      1.44395

Rotational constants in cm-1:     0.017884     0.008451     0.007181
Rotational constants in MHz :   536.152184   253.343847   215.290399

                             ****ORCA TERMINATED NORMALLY****
TOTAL RUN TIME: 0 days 0 hours 0 minutes 21 seconds 846 msec
