                         Program Version 4.2.1 -  RELEASE  -
|  1> ! wB97X-D3 SP def2-SVP
|  2> %pal
|  3> nprocs 24
|  4> end
|  5>
|  6> * xyz 0 1
|  7> S 	 -45.2754 	 22.1716 	 30.913
|  8> C 	 -44.9656 	 22.6377 	 29.24
|  9> C 	 -44.1252 	 21.6266 	 28.679
| 10> C 	 -43.632 	 20.6861 	 29.654
| 11> C 	 -44.2084 	 20.7917 	 30.8707
| 12> H 	 -42.9304 	 19.9258 	 29.3623
| 13> C 	 -43.7471 	 21.5502 	 27.1587
| 14> H 	 -42.6811 	 21.1566 	 27.0087
| 15> H 	 -43.6806 	 22.5328 	 26.8331
| 16> C 	 -44.7859 	 20.8992 	 26.2873
| 17> H 	 -45.7398 	 21.3327 	 26.6361
| 18> H 	 -44.6484 	 21.1687 	 25.2061
| 19> C 	 -44.8349 	 19.3562 	 26.4875
| 20> H 	 -45.0454 	 19.0256 	 27.481
| 21> H 	 -45.5923 	 18.8942 	 25.7899
| 22> H 	 -43.9032 	 18.9021 	 26.3573
| 23> S 	 -42.3455 	 19.7859 	 32.3978
| 24> C 	 -42.667 	 18.5292 	 33.56
| 25> C 	 -43.9469 	 17.9702 	 33.3479
| 26> C 	 -44.761 	 18.8579 	 32.5399
| 27> C 	 -43.9958 	 19.8894 	 31.9696
| 28> H 	 -44.3211 	 17.1999 	 33.979
| 29> C 	 -46.2923 	 18.7853 	 32.4349
| 30> H 	 -46.6452 	 19.6748 	 31.8608
| 31> H 	 -46.7641 	 18.8462 	 33.4202
| 32> C 	 -46.9113 	 17.4778 	 31.9944
| 33> H 	 -47.9698 	 17.4662 	 31.9814
| 34> H 	 -46.7838 	 16.6616 	 32.72
| 35> C 	 -46.4536 	 16.9736 	 30.6441
| 36> H 	 -45.4106 	 16.6957 	 30.6878
| 37> H 	 -46.4803 	 17.7511 	 29.9034
| 38> H 	 -47.0477 	 16.1506 	 30.3787
| 39> H 	 -45.5764 	 23.3551 	 28.6442
| 40> H 	 -41.9223 	 18.1239 	 34.2572
| 41> *
| 42>
| 43>                          ****END OF INPUT****

CARTESIAN COORDINATES (ANGSTROEM)
---------------------------------
  S    -45.275400   22.171600   30.913000
  C    -44.965600   22.637700   29.240000
  C    -44.125200   21.626600   28.679000
  C    -43.632000   20.686100   29.654000
  C    -44.208400   20.791700   30.870700
  H    -42.930400   19.925800   29.362300
  C    -43.747100   21.550200   27.158700
  H    -42.681100   21.156600   27.008700
  H    -43.680600   22.532800   26.833100
  C    -44.785900   20.899200   26.287300
  H    -45.739800   21.332700   26.636100
  H    -44.648400   21.168700   25.206100
  C    -44.834900   19.356200   26.487500
  H    -45.045400   19.025600   27.481000
  H    -45.592300   18.894200   25.789900
  H    -43.903200   18.902100   26.357300
  S    -42.345500   19.785900   32.397800
  C    -42.667000   18.529200   33.560000
  C    -43.946900   17.970200   33.347900
  C    -44.761000   18.857900   32.539900
  C    -43.995800   19.889400   31.969600
  H    -44.321100   17.199900   33.979000
  C    -46.292300   18.785300   32.434900
  H    -46.645200   19.674800   31.860800
  H    -46.764100   18.846200   33.420200
  C    -46.911300   17.477800   31.994400
  H    -47.969800   17.466200   31.981400
  H    -46.783800   16.661600   32.720000
  C    -46.453600   16.973600   30.644100
  H    -45.410600   16.695700   30.687800
  H    -46.480300   17.751100   29.903400
  H    -47.047700   16.150600   30.378700
  H    -45.576400   23.355100   28.644200
  H    -41.922300   18.123900   34.257200

 Total Charge           Charge          ....    0
 Multiplicity           Mult            ....    1
 Number of Electrons    NEL             ....  134
 Basis Dimension        Dim             ....  322

ORBITAL ENERGIES
----------------

  NO   OCC          E(Eh)            E(eV)
   0   2.0000     -88.967649     -2420.9328
   1   2.0000     -88.967312     -2420.9236
   2   2.0000     -10.328076      -281.0412
   3   2.0000     -10.324350      -280.9398
   4   2.0000     -10.323489      -280.9164
   5   2.0000     -10.323397      -280.9139
   6   2.0000     -10.312269      -280.6111
   7   2.0000     -10.310173      -280.5541
   8   2.0000     -10.300737      -280.2973
   9   2.0000     -10.294093      -280.1165
  10   2.0000     -10.292215      -280.0654
  11   2.0000     -10.291587      -280.0483
  12   2.0000     -10.291559      -280.0475
  13   2.0000     -10.278510      -279.6925
  14   2.0000     -10.271925      -279.5133
  15   2.0000     -10.261104      -279.2188
  16   2.0000      -8.083198      -219.9550
  17   2.0000      -8.081439      -219.9071
  18   2.0000      -6.041552      -164.3990
  19   2.0000      -6.040060      -164.3584
  20   2.0000      -6.037524      -164.2894
  21   2.0000      -6.035820      -164.2430
  22   2.0000      -6.034110      -164.1965
  23   2.0000      -6.032312      -164.1476
  24   2.0000      -1.011901       -27.5352
  25   2.0000      -0.982998       -26.7487
  26   2.0000      -0.911963       -24.8158
  27   2.0000      -0.909554       -24.7502
  28   2.0000      -0.872071       -23.7303
  29   2.0000      -0.850010       -23.1300
  30   2.0000      -0.840423       -22.8691
  31   2.0000      -0.813506       -22.1366
  32   2.0000      -0.786456       -21.4006
  33   2.0000      -0.773827       -21.0569
  34   2.0000      -0.706228       -19.2174
  35   2.0000      -0.698383       -19.0040
  36   2.0000      -0.691389       -18.8137
  37   2.0000      -0.664205       -18.0739
  38   2.0000      -0.638301       -17.3690
  39   2.0000      -0.618312       -16.8251
  40   2.0000      -0.593884       -16.1604
  41   2.0000      -0.570424       -15.5220
  42   2.0000      -0.554337       -15.0843
  43   2.0000      -0.548630       -14.9290
  44   2.0000      -0.545400       -14.8411
  45   2.0000      -0.540634       -14.7114
  46   2.0000      -0.517764       -14.0891
  47   2.0000      -0.509681       -13.8691
  48   2.0000      -0.506665       -13.7871
  49   2.0000      -0.503112       -13.6904
  50   2.0000      -0.487610       -13.2685
  51   2.0000      -0.477477       -12.9928
  52   2.0000      -0.469445       -12.7742
  53   2.0000      -0.463234       -12.6052
  54   2.0000      -0.458983       -12.4896
  55   2.0000      -0.454517       -12.3680
  56   2.0000      -0.442990       -12.0544
  57   2.0000      -0.434298       -11.8178
  58   2.0000      -0.428499       -11.6600
  59   2.0000      -0.423142       -11.5143
  60   2.0000      -0.422615       -11.4999
  61   2.0000      -0.411254       -11.1908
  62   2.0000      -0.407858       -11.0984
  63   2.0000      -0.343223        -9.3396
  64   2.0000      -0.335104        -9.1186
  65   2.0000      -0.324466        -8.8292
  66   2.0000      -0.296677        -8.0730
  67   0.0000       0.033791         0.9195
  68   0.0000       0.057637         1.5684
  69   0.0000       0.105099         2.8599
  70   0.0000       0.116450         3.1688
  71   0.0000       0.124649         3.3919

MULLIKEN ATOMIC CHARGES
-----------------------
   0 S :    0.108080
   1 C :   -0.129238
   2 C :   -0.136736
   3 C :    0.041517
   4 C :   -0.140549
   5 H :    0.011001
   6 C :    0.061980
   7 H :    0.036936
   8 H :    0.005185
   9 C :   -0.066065
  10 H :    0.026011
  11 H :    0.042974
  12 C :   -0.037663
  13 H :    0.025661
  14 H :    0.041641
  15 H :    0.006668
  16 S :    0.120415
  17 C :   -0.108808
  18 C :   -0.015570
  19 C :   -0.026605
  20 C :   -0.168930
  21 H :    0.019564
  22 C :    0.079896
  23 H :    0.029399
  24 H :    0.035720
  25 C :   -0.094978
  26 H :    0.012844
  27 H :    0.014711
  28 C :   -0.010639
  29 H :    0.026573
  30 H :    0.023799
  31 H :    0.020107
  32 H :    0.074429
  33 H :    0.070672
Sum of atomic charges:   -0.0000000

LOEWDIN ATOMIC CHARGES
----------------------
   0 S :    0.408545
   1 C :   -0.213672
   2 C :   -0.051711
   3 C :   -0.072101
   4 C :   -0.202128
   5 H :    0.029420
   6 C :   -0.035450
   7 H :    0.035051
   8 H :    0.020817
   9 C :   -0.040394
  10 H :    0.026247
  11 H :    0.030146
  12 C :   -0.067432
  13 H :    0.022652
  14 H :    0.032897
  15 H :    0.014390
  16 S :    0.443419
  17 C :   -0.186800
  18 C :   -0.065634
  19 C :   -0.047145
  20 C :   -0.216995
  21 H :    0.026857
  22 C :   -0.034226
  23 H :    0.029635
  24 H :    0.039049
  25 C :   -0.047962
  26 H :    0.020913
  27 H :    0.022825
  28 C :   -0.057820
  29 H :    0.023635
  30 H :    0.021879
  31 H :    0.018760
  32 H :    0.039549
  33 H :    0.032786

  Mayer bond orders larger than 0.100000
B(  0-S ,  1-C ) :   1.1368 B(  0-S ,  4-C ) :   1.1487 B(  1-C ,  2-C ) :   1.5986
B(  1-C , 32-H ) :   0.9611 B(  2-C ,  3-C ) :   1.2583 B(  2-C ,  6-C ) :   1.0129
B(  3-C ,  4-C ) :   1.5700 B(  3-C ,  5-H ) :   0.9954 B(  4-C , 20-C ) :   1.0085
B(  6-C ,  7-H ) :   0.9492 B(  6-C ,  8-H ) :   0.9332 B(  6-C ,  9-C ) :   1.0741
B(  9-C , 10-H ) :   0.9512 B(  9-C , 11-H ) :   0.9566 B(  9-C , 12-C ) :   1.0720
B( 12-C , 13-H ) :   0.9739 B( 12-C , 14-H ) :   0.9753 B( 12-C , 15-H ) :   0.9726
B( 16-S , 17-C ) :   1.1742 B( 16-S , 20-C ) :   1.1626 B( 17-C , 18-C ) :   1.5883
B( 17-C , 20-C ) :   0.1004 B( 17-C , 33-H ) :   0.9680 B( 18-C , 19-C ) :   1.2498
B( 18-C , 21-H ) :   0.9881 B( 19-C , 20-C ) :   1.5648 B( 19-C , 22-C ) :   1.0401
B( 22-C , 23-H ) :   0.9361 B( 22-C , 24-H ) :   0.9336 B( 22-C , 25-C ) :   1.0742
B( 25-C , 26-H ) :   0.9512 B( 25-C , 27-H ) :   0.9480 B( 25-C , 28-C ) :   1.0868
B( 28-C , 29-H ) :   0.9703 B( 28-C , 30-H ) :   0.9758 B( 28-C , 31-H ) :   0.9721

Dispersion correction           -0.015293831
FINAL SINGLE POINT ENERGY     -1339.865134387722

DIPOLE MOMENT
-------------
                                X             Y             Z
Electronic contribution:     11.51605      13.82896      17.46649
Nuclear contribution   :    -11.70221     -14.24582     -17.68066
                        -----------------------------------------
Total Dipole Moment    :     -0.18616      -0.41687      -0.21417
                        -----------------------------------------
Magnitude (a.u.)       :      0.50428
Magnitude (Debye)      :      1.28179

Rotational constants in cm-1:     0.018193     0.009355     0.008065
Rotational constants in MHz :   545.403336   280.466012   241.791544

                             ****ORCA TERMINATED NORMALLY****
TOTAL RUN TIME: 0 days 0 hours 0 minutes 22 seconds 242 msec
