                         Program Version 4.2.1 -  RELEASE  -
|  1> ! wB97X-D3 SP def2-SVP
|  2> %pal
|  3> nprocs 24
|  4> end
|  5>
|  6> * xyz 0 1
|  7> S 	 -121.114 	 23.7611 	 -111.546
|  8> C 	 -120.192 	 25.1751 	 -111.107
|  9> C 	 -120.976 	 26.2992 	 -111.1
| 10> C 	 -122.338 	 25.9628 	 -111.166
| 11> C 	 -122.628 	 24.6198 	 -111.346
| 12> H 	 -123.129 	 26.6842 	 -111.135
| 13> C 	 -120.469 	 27.7349 	 -111.051
| 14> H 	 -119.391 	 27.6883 	 -111.223
| 15> H 	 -120.584 	 28.1222 	 -109.949
| 16> C 	 -121.193 	 28.6998 	 -111.924
| 17> H 	 -121.113 	 28.4759 	 -112.941
| 18> H 	 -122.171 	 28.6392 	 -111.644
| 19> C 	 -120.862 	 30.2245 	 -111.8
| 20> H 	 -121.55 	 30.7715 	 -112.549
| 21> H 	 -121.104 	 30.6048 	 -110.83
| 22> H 	 -119.865 	 30.3644 	 -112.149
| 23> S 	 -124.036 	 22.7702 	 -112.876
| 24> C 	 -125.745 	 22.4242 	 -112.491
| 25> C 	 -126.222 	 23.4367 	 -111.662
| 26> C 	 -125.239 	 24.3275 	 -111.11
| 27> C 	 -123.95 	 24.0155 	 -111.568
| 28> H 	 -127.253 	 23.4908 	 -111.506
| 29> C 	 -125.629 	 25.4555 	 -110.185
| 30> H 	 -125.902 	 26.2075 	 -110.869
| 31> H 	 -124.733 	 25.8249 	 -109.622
| 32> C 	 -126.847 	 25.3386 	 -109.282
| 33> H 	 -126.763 	 24.4461 	 -108.677
| 34> H 	 -127.668 	 25.1747 	 -109.999
| 35> C 	 -127.171 	 26.5972 	 -108.395
| 36> H 	 -127.593 	 27.4707 	 -108.887
| 37> H 	 -126.298 	 26.9572 	 -107.832
| 38> H 	 -127.839 	 26.1793 	 -107.665
| 39> H 	 -119.089 	 25.2803 	 -111.206
| 40> H 	 -126.361 	 21.8978 	 -113.187
| 41> *
| 42>
| 43>                          ****END OF INPUT****

CARTESIAN COORDINATES (ANGSTROEM)
---------------------------------
  S    -121.114000   23.761100  -111.546000
  C    -120.192000   25.175100  -111.107000
  C    -120.976000   26.299200  -111.100000
  C    -122.338000   25.962800  -111.166000
  C    -122.628000   24.619800  -111.346000
  H    -123.129000   26.684200  -111.135000
  C    -120.469000   27.734900  -111.051000
  H    -119.391000   27.688300  -111.223000
  H    -120.584000   28.122200  -109.949000
  C    -121.193000   28.699800  -111.924000
  H    -121.113000   28.475900  -112.941000
  H    -122.171000   28.639200  -111.644000
  C    -120.862000   30.224500  -111.800000
  H    -121.550000   30.771500  -112.549000
  H    -121.104000   30.604800  -110.830000
  H    -119.865000   30.364400  -112.149000
  S    -124.036000   22.770200  -112.876000
  C    -125.745000   22.424200  -112.491000
  C    -126.222000   23.436700  -111.662000
  C    -125.239000   24.327500  -111.110000
  C    -123.950000   24.015500  -111.568000
  H    -127.253000   23.490800  -111.506000
  C    -125.629000   25.455500  -110.185000
  H    -125.902000   26.207500  -110.869000
  H    -124.733000   25.824900  -109.622000
  C    -126.847000   25.338600  -109.282000
  H    -126.763000   24.446100  -108.677000
  H    -127.668000   25.174700  -109.999000
  C    -127.171000   26.597200  -108.395000
  H    -127.593000   27.470700  -108.887000
  H    -126.298000   26.957200  -107.832000
  H    -127.839000   26.179300  -107.665000
  H    -119.089000   25.280300  -111.206000
  H    -126.361000   21.897800  -113.187000

 Total Charge           Charge          ....    0
 Multiplicity           Mult            ....    1
 Number of Electrons    NEL             ....  134
 Basis Dimension        Dim             ....  322

ORBITAL ENERGIES
----------------

  NO   OCC          E(Eh)            E(eV)
   0   2.0000     -88.967695     -2420.9341
   1   2.0000     -88.963125     -2420.8097
   2   2.0000     -10.336952      -281.2828
   3   2.0000     -10.332632      -281.1652
   4   2.0000     -10.319145      -280.7982
   5   2.0000     -10.313709      -280.6503
   6   2.0000     -10.310418      -280.5607
   7   2.0000     -10.299900      -280.2745
   8   2.0000     -10.298109      -280.2258
   9   2.0000     -10.295326      -280.1501
  10   2.0000     -10.292998      -280.0867
  11   2.0000     -10.290977      -280.0317
  12   2.0000     -10.290292      -280.0131
  13   2.0000     -10.285116      -279.8722
  14   2.0000     -10.284396      -279.8526
  15   2.0000     -10.275052      -279.5984
  16   2.0000      -8.082240      -219.9289
  17   2.0000      -8.076645      -219.7767
  18   2.0000      -6.040849      -164.3799
  19   2.0000      -6.036837      -164.2707
  20   2.0000      -6.035259      -164.2278
  21   2.0000      -6.032827      -164.1616
  22   2.0000      -6.031472      -164.1247
  23   2.0000      -6.027212      -164.0088
  24   2.0000      -1.005633       -27.3647
  25   2.0000      -0.980318       -26.6758
  26   2.0000      -0.917334       -24.9619
  27   2.0000      -0.910278       -24.7699
  28   2.0000      -0.870397       -23.6847
  29   2.0000      -0.852235       -23.1905
  30   2.0000      -0.843582       -22.9550
  31   2.0000      -0.814974       -22.1766
  32   2.0000      -0.785327       -21.3698
  33   2.0000      -0.776446       -21.1282
  34   2.0000      -0.714886       -19.4530
  35   2.0000      -0.703795       -19.1512
  36   2.0000      -0.692433       -18.8421
  37   2.0000      -0.657435       -17.8897
  38   2.0000      -0.637145       -17.3376
  39   2.0000      -0.625355       -17.0168
  40   2.0000      -0.596312       -16.2265
  41   2.0000      -0.580498       -15.7961
  42   2.0000      -0.573568       -15.6076
  43   2.0000      -0.565089       -15.3769
  44   2.0000      -0.529291       -14.4027
  45   2.0000      -0.523599       -14.2479
  46   2.0000      -0.518813       -14.1176
  47   2.0000      -0.509676       -13.8690
  48   2.0000      -0.502287       -13.6679
  49   2.0000      -0.498425       -13.5628
  50   2.0000      -0.492864       -13.4115
  51   2.0000      -0.483692       -13.1619
  52   2.0000      -0.475722       -12.9451
  53   2.0000      -0.465541       -12.6680
  54   2.0000      -0.462664       -12.5897
  55   2.0000      -0.450347       -12.2546
  56   2.0000      -0.446987       -12.1631
  57   2.0000      -0.433892       -11.8068
  58   2.0000      -0.432002       -11.7554
  59   2.0000      -0.430151       -11.7050
  60   2.0000      -0.422147       -11.4872
  61   2.0000      -0.417948       -11.3729
  62   2.0000      -0.415761       -11.3134
  63   2.0000      -0.355514        -9.6740
  64   2.0000      -0.330998        -9.0069
  65   2.0000      -0.327483        -8.9113
  66   2.0000      -0.285882        -7.7792
  67   0.0000       0.017947         0.4884
  68   0.0000       0.070837         1.9276
  69   0.0000       0.096545         2.6271
  70   0.0000       0.125366         3.4114
  71   0.0000       0.130391         3.5481

MULLIKEN ATOMIC CHARGES
-----------------------
   0 S :    0.113481
   1 C :   -0.126442
   2 C :   -0.083673
   3 C :    0.004043
   4 C :   -0.129165
   5 H :    0.000026
   6 C :    0.067611
   7 H :    0.011590
   8 H :    0.045300
   9 C :   -0.055354
  10 H :    0.022290
  11 H :    0.005467
  12 C :   -0.050897
  13 H :    0.039532
  14 H :    0.031619
  15 H :    0.033401
  16 S :    0.068600
  17 C :   -0.068851
  18 C :   -0.051020
  19 C :   -0.021092
  20 C :   -0.142902
  21 H :    0.003389
  22 C :    0.050649
  23 H :    0.028388
  24 H :    0.038543
  25 C :   -0.093495
  26 H :    0.035753
  27 H :    0.030966
  28 C :   -0.039533
  29 H :    0.041736
  30 H :    0.032547
  31 H :    0.036977
  32 H :    0.059448
  33 H :    0.061066
Sum of atomic charges:   -0.0000000

LOEWDIN ATOMIC CHARGES
----------------------
   0 S :    0.412190
   1 C :   -0.206286
   2 C :   -0.067343
   3 C :   -0.064709
   4 C :   -0.192074
   5 H :    0.022900
   6 C :   -0.031989
   7 H :    0.024288
   8 H :    0.043033
   9 C :   -0.036636
  10 H :    0.020271
  11 H :    0.011523
  12 C :   -0.053956
  13 H :    0.037534
  14 H :    0.019029
  15 H :    0.019588
  16 S :    0.361099
  17 C :   -0.174277
  18 C :   -0.060701
  19 C :   -0.052250
  20 C :   -0.169645
  21 H :    0.020002
  22 C :   -0.041495
  23 H :    0.031156
  24 H :    0.033881
  25 C :   -0.037846
  26 H :    0.023651
  27 H :    0.024825
  28 C :   -0.062664
  29 H :    0.026577
  30 H :    0.027462
  31 H :    0.030218
  32 H :    0.036361
  33 H :    0.026281

  Mayer bond orders larger than 0.100000
B(  0-S ,  1-C ) :   1.1399 B(  0-S ,  4-C ) :   1.1539 B(  1-C ,  2-C ) :   1.6116
B(  1-C , 32-H ) :   0.9546 B(  2-C ,  3-C ) :   1.2664 B(  2-C ,  6-C ) :   1.0209
B(  3-C ,  4-C ) :   1.5410 B(  3-C ,  5-H ) :   0.9923 B(  4-C , 20-C ) :   1.0692
B(  6-C ,  7-H ) :   0.9386 B(  6-C ,  8-H ) :   0.9345 B(  6-C ,  9-C ) :   1.0673
B(  9-C , 10-H ) :   0.9578 B(  9-C , 11-H ) :   0.9455 B(  9-C , 12-C ) :   1.0936
B( 12-C , 13-H ) :   0.9752 B( 12-C , 14-H ) :   0.9757 B( 12-C , 15-H ) :   0.9782
B( 16-S , 17-C ) :   1.1331 B( 16-S , 20-C ) :   1.1339 B( 17-C , 18-C ) :   1.6199
B( 17-C , 20-C ) :   0.1031 B( 17-C , 33-H ) :   0.9634 B( 18-C , 19-C ) :   1.2349
B( 18-C , 21-H ) :   0.9912 B( 19-C , 20-C ) :   1.5907 B( 19-C , 22-C ) :   1.0413
B( 22-C , 23-H ) :   0.9228 B( 22-C , 24-H ) :   0.9311 B( 22-C , 25-C ) :   1.0667
B( 25-C , 26-H ) :   0.9640 B( 25-C , 27-H ) :   0.9434 B( 25-C , 28-C ) :   1.0779
B( 28-C , 29-H ) :   0.9764 B( 28-C , 30-H ) :   0.9756 B( 28-C , 31-H ) :   0.9750

Dispersion correction           -0.013104251
FINAL SINGLE POINT ENERGY     -1339.861385932682

DIPOLE MOMENT
-------------
                                X             Y             Z
Electronic contribution:      7.94988     -28.21842     -10.73395
Nuclear contribution   :     -8.37299      29.08908      10.77522
                        -----------------------------------------
Total Dipole Moment    :     -0.42311       0.87067       0.04127
                        -----------------------------------------
Magnitude (a.u.)       :      0.96891
Magnitude (Debye)      :      2.46277

Rotational constants in cm-1:     0.015281     0.008757     0.006253
Rotational constants in MHz :   458.101360   262.527598   187.458897

                             ****ORCA TERMINATED NORMALLY****
TOTAL RUN TIME: 0 days 0 hours 0 minutes 20 seconds 889 msec
