                         Program Version 4.2.1 -  RELEASE  -
|  1> ! wB97X-D3 SP def2-SVP
|  2> %pal
|  3> nprocs 24
|  4> end
|  5>
|  6> * xyz 0 1
|  7> S 	 -72.4087 	 4.48172 	 -104.838
|  8> C 	 -71.9703 	 5.63836 	 -103.64
|  9> C 	 -71.0102 	 6.50319 	 -104.111
| 10> C 	 -70.573 	 6.19434 	 -105.409
| 11> C 	 -71.2007 	 5.09035 	 -106.001
| 12> H 	 -69.8587 	 6.72864 	 -105.98
| 13> C 	 -70.3626 	 7.59567 	 -103.281
| 14> H 	 -71.1784 	 8.12623 	 -102.707
| 15> H 	 -69.9146 	 8.3468 	 -103.968
| 16> C 	 -69.3658 	 7.09592 	 -102.178
| 17> H 	 -69.8033 	 6.29373 	 -101.563
| 18> H 	 -68.5202 	 6.66213 	 -102.616
| 19> C 	 -68.9225 	 8.22973 	 -101.244
| 20> H 	 -69.7478 	 8.74101 	 -100.853
| 21> H 	 -68.4486 	 7.87109 	 -100.361
| 22> H 	 -68.3073 	 9.02887 	 -101.603
| 23> S 	 -72.4168 	 3.96508 	 -108.14
| 24> C 	 -71.582 	 3.81462 	 -109.653
| 25> C 	 -70.2713 	 4.17764 	 -109.573
| 26> C 	 -69.9005 	 4.49407 	 -108.225
| 27> C 	 -71.0091 	 4.62434 	 -107.371
| 28> H 	 -69.6052 	 3.99308 	 -110.405
| 29> C 	 -68.4188 	 4.74987 	 -107.864
| 30> H 	 -68.3104 	 5.48545 	 -107.077
| 31> H 	 -67.9025 	 5.25477 	 -108.703
| 32> C 	 -67.6501 	 3.47617 	 -107.458
| 33> H 	 -67.8269 	 2.66799 	 -108.17
| 34> H 	 -68.0843 	 3.11904 	 -106.53
| 35> C 	 -66.0617 	 3.63952 	 -107.292
| 36> H 	 -65.8658 	 4.61935 	 -106.818
| 37> H 	 -65.6112 	 3.67917 	 -108.306
| 38> H 	 -65.5933 	 2.81311 	 -106.665
| 39> H 	 -72.3149 	 5.68923 	 -102.649
| 40> H 	 -71.9284 	 3.35016 	 -110.594
| 41> *
| 42>
| 43>                          ****END OF INPUT****

CARTESIAN COORDINATES (ANGSTROEM)
---------------------------------
  S    -72.408700    4.481720  -104.838000
  C    -71.970300    5.638360  -103.640000
  C    -71.010200    6.503190  -104.111000
  C    -70.573000    6.194340  -105.409000
  C    -71.200700    5.090350  -106.001000
  H    -69.858700    6.728640  -105.980000
  C    -70.362600    7.595670  -103.281000
  H    -71.178400    8.126230  -102.707000
  H    -69.914600    8.346800  -103.968000
  C    -69.365800    7.095920  -102.178000
  H    -69.803300    6.293730  -101.563000
  H    -68.520200    6.662130  -102.616000
  C    -68.922500    8.229730  -101.244000
  H    -69.747800    8.741010  -100.853000
  H    -68.448600    7.871090  -100.361000
  H    -68.307300    9.028870  -101.603000
  S    -72.416800    3.965080  -108.140000
  C    -71.582000    3.814620  -109.653000
  C    -70.271300    4.177640  -109.573000
  C    -69.900500    4.494070  -108.225000
  C    -71.009100    4.624340  -107.371000
  H    -69.605200    3.993080  -110.405000
  C    -68.418800    4.749870  -107.864000
  H    -68.310400    5.485450  -107.077000
  H    -67.902500    5.254770  -108.703000
  C    -67.650100    3.476170  -107.458000
  H    -67.826900    2.667990  -108.170000
  H    -68.084300    3.119040  -106.530000
  C    -66.061700    3.639520  -107.292000
  H    -65.865800    4.619350  -106.818000
  H    -65.611200    3.679170  -108.306000
  H    -65.593300    2.813110  -106.665000
  H    -72.314900    5.689230  -102.649000
  H    -71.928400    3.350160  -110.594000

 Total Charge           Charge          ....    0
 Multiplicity           Mult            ....    1
 Number of Electrons    NEL             ....  134
 Basis Dimension        Dim             ....  322

ORBITAL ENERGIES
----------------

  NO   OCC          E(Eh)            E(eV)
   0   2.0000     -88.969925     -2420.9948
   1   2.0000     -88.966658     -2420.9058
   2   2.0000     -10.334936      -281.2279
   3   2.0000     -10.331491      -281.1342
   4   2.0000     -10.316110      -280.7156
   5   2.0000     -10.309784      -280.5435
   6   2.0000     -10.309676      -280.5405
   7   2.0000     -10.299854      -280.2733
   8   2.0000     -10.297007      -280.1958
   9   2.0000     -10.295400      -280.1521
  10   2.0000     -10.292587      -280.0755
  11   2.0000     -10.290990      -280.0321
  12   2.0000     -10.290747      -280.0255
  13   2.0000     -10.287979      -279.9502
  14   2.0000     -10.287949      -279.9493
  15   2.0000     -10.268390      -279.4171
  16   2.0000      -8.084238      -219.9833
  17   2.0000      -8.082087      -219.9248
  18   2.0000      -6.042806      -164.4331
  19   2.0000      -6.040662      -164.3748
  20   2.0000      -6.038723      -164.3220
  21   2.0000      -6.036496      -164.2614
  22   2.0000      -6.035043      -164.2219
  23   2.0000      -6.032730      -164.1589
  24   2.0000      -1.009360       -27.4661
  25   2.0000      -0.988547       -26.8997
  26   2.0000      -0.907460       -24.6932
  27   2.0000      -0.899444       -24.4751
  28   2.0000      -0.873602       -23.7719
  29   2.0000      -0.853310       -23.2197
  30   2.0000      -0.842765       -22.9328
  31   2.0000      -0.816590       -22.2206
  32   2.0000      -0.779758       -21.2183
  33   2.0000      -0.769549       -20.9405
  34   2.0000      -0.710416       -19.3314
  35   2.0000      -0.708476       -19.2786
  36   2.0000      -0.693434       -18.8693
  37   2.0000      -0.663614       -18.0578
  38   2.0000      -0.641838       -17.4653
  39   2.0000      -0.622142       -16.9293
  40   2.0000      -0.594133       -16.1672
  41   2.0000      -0.570900       -15.5350
  42   2.0000      -0.560449       -15.2506
  43   2.0000      -0.552367       -15.0307
  44   2.0000      -0.523155       -14.2358
  45   2.0000      -0.518628       -14.1126
  46   2.0000      -0.517908       -14.0930
  47   2.0000      -0.508407       -13.8345
  48   2.0000      -0.506132       -13.7725
  49   2.0000      -0.503785       -13.7087
  50   2.0000      -0.489449       -13.3186
  51   2.0000      -0.486275       -13.2322
  52   2.0000      -0.471850       -12.8397
  53   2.0000      -0.463829       -12.6214
  54   2.0000      -0.459971       -12.5165
  55   2.0000      -0.450697       -12.2641
  56   2.0000      -0.446762       -12.1570
  57   2.0000      -0.436717       -11.8837
  58   2.0000      -0.434604       -11.8262
  59   2.0000      -0.426944       -11.6177
  60   2.0000      -0.423715       -11.5299
  61   2.0000      -0.417921       -11.3722
  62   2.0000      -0.414325       -11.2743
  63   2.0000      -0.358984        -9.7684
  64   2.0000      -0.336100        -9.1457
  65   2.0000      -0.329064        -8.9543
  66   2.0000      -0.283883        -7.7248
  67   0.0000       0.021166         0.5760
  68   0.0000       0.077749         2.1157
  69   0.0000       0.106501         2.8980
  70   0.0000       0.121524         3.3068
  71   0.0000       0.135321         3.6823

MULLIKEN ATOMIC CHARGES
-----------------------
   0 S :    0.115768
   1 C :   -0.098369
   2 C :   -0.062930
   3 C :    0.019120
   4 C :   -0.125056
   5 H :   -0.002236
   6 C :    0.025498
   7 H :    0.030825
   8 H :    0.034095
   9 C :   -0.037029
  10 H :    0.028116
  11 H :    0.017293
  12 C :   -0.014230
  13 H :    0.001113
  14 H :    0.019602
  15 H :    0.025685
  16 S :    0.106654
  17 C :   -0.088393
  18 C :   -0.029098
  19 C :   -0.057152
  20 C :   -0.146493
  21 H :    0.023711
  22 C :    0.056579
  23 H :    0.008680
  24 H :    0.022292
  25 C :   -0.071702
  26 H :    0.027253
  27 H :    0.031547
  28 C :   -0.084852
  29 H :    0.033218
  30 H :    0.041667
  31 H :    0.057532
  32 H :    0.028407
  33 H :    0.062885
Sum of atomic charges:   -0.0000000

LOEWDIN ATOMIC CHARGES
----------------------
   0 S :    0.407286
   1 C :   -0.195560
   2 C :   -0.069690
   3 C :   -0.057861
   4 C :   -0.186279
   5 H :    0.023389
   6 C :   -0.033703
   7 H :    0.034252
   8 H :    0.033053
   9 C :   -0.030206
  10 H :    0.028409
  11 H :    0.016226
  12 C :   -0.065007
  13 H :    0.016959
  14 H :    0.024823
  15 H :    0.023643
  16 S :    0.418488
  17 C :   -0.194148
  18 C :   -0.072658
  19 C :   -0.053565
  20 C :   -0.198276
  21 H :    0.034333
  22 C :   -0.034659
  23 H :    0.022626
  24 H :    0.029654
  25 C :   -0.039584
  26 H :    0.021060
  27 H :    0.023786
  28 C :   -0.074690
  29 H :    0.023662
  30 H :    0.027121
  31 H :    0.036786
  32 H :    0.021979
  33 H :    0.038352

  Mayer bond orders larger than 0.100000
B(  0-S ,  1-C ) :   1.1470 B(  0-S ,  4-C ) :   1.1460 B(  1-C ,  2-C ) :   1.5802
B(  1-C ,  4-C ) :   0.1026 B(  1-C , 32-H ) :   0.9743 B(  2-C ,  3-C ) :   1.2774
B(  2-C ,  6-C ) :   1.0286 B(  3-C ,  4-C ) :   1.5396 B(  3-C ,  5-H ) :   0.9992
B(  4-C , 20-C ) :   1.0787 B(  6-C ,  7-H ) :   0.9402 B(  6-C ,  8-H ) :   0.9456
B(  6-C ,  9-C ) :   1.0565 B(  9-C , 10-H ) :   0.9569 B(  9-C , 11-H ) :   0.9561
B(  9-C , 12-C ) :   1.0798 B( 12-C , 13-H ) :   0.9699 B( 12-C , 14-H ) :   0.9716
B( 12-C , 15-H ) :   0.9760 B( 16-S , 17-C ) :   1.1549 B( 16-S , 20-C ) :   1.1375
B( 17-C , 18-C ) :   1.6238 B( 17-C , 33-H ) :   0.9600 B( 18-C , 19-C ) :   1.2503
B( 18-C , 21-H ) :   0.9852 B( 19-C , 20-C ) :   1.5724 B( 19-C , 22-C ) :   1.0395
B( 22-C , 23-H ) :   0.9356 B( 22-C , 24-H ) :   0.9432 B( 22-C , 25-C ) :   1.0520
B( 25-C , 26-H ) :   0.9627 B( 25-C , 27-H ) :   0.9579 B( 25-C , 28-C ) :   1.0626
B( 28-C , 29-H ) :   0.9776 B( 28-C , 30-H ) :   0.9775 B( 28-C , 31-H ) :   0.9767

Dispersion correction           -0.013440145
FINAL SINGLE POINT ENERGY     -1339.883142575334

DIPOLE MOMENT
-------------
                                X             Y             Z
Electronic contribution:    -26.99115      -9.74887     -12.28294
Nuclear contribution   :     27.59750       9.94830      12.39169
                        -----------------------------------------
Total Dipole Moment    :      0.60636       0.19943       0.10875
                        -----------------------------------------
Magnitude (a.u.)       :      0.64751
Magnitude (Debye)      :      1.64584

Rotational constants in cm-1:     0.017605     0.008280     0.006114
Rotational constants in MHz :   527.773300   248.239772   183.296519

                             ****ORCA TERMINATED NORMALLY****
TOTAL RUN TIME: 0 days 0 hours 0 minutes 20 seconds 856 msec
