                         Program Version 4.2.1 -  RELEASE  -
|  1> ! wB97X-D3 SP def2-SVP
|  2> %pal
|  3> nprocs 24
|  4> end
|  5>
|  6> * xyz 0 1
|  7> S 	 -128.488 	 69.2871 	 -43.7089
|  8> C 	 -129.858 	 70.1227 	 -42.947
|  9> C 	 -129.728 	 71.5164 	 -43.0299
| 10> C 	 -128.426 	 71.8803 	 -43.4509
| 11> C 	 -127.615 	 70.7821 	 -43.8029
| 12> H 	 -128.044 	 72.8576 	 -43.5536
| 13> C 	 -130.77 	 72.5559 	 -42.736
| 14> H 	 -130.341 	 72.9856 	 -41.792
| 15> H 	 -131.671 	 72.0628 	 -42.3843
| 16> C 	 -131.041 	 73.5783 	 -43.9066
| 17> H 	 -130.18 	 73.9426 	 -44.3377
| 18> H 	 -131.49 	 73.0476 	 -44.7577
| 19> C 	 -131.813 	 74.8173 	 -43.4152
| 20> H 	 -132.559 	 74.5743 	 -42.6259
| 21> H 	 -131.198 	 75.4361 	 -42.9069
| 22> H 	 -132.24 	 75.4574 	 -44.2068
| 23> S 	 -125.035 	 70.0983 	 -43.2856
| 24> C 	 -123.789 	 70.8833 	 -44.1487
| 25> C 	 -124.253 	 71.4875 	 -45.3129
| 26> C 	 -125.674 	 71.6168 	 -45.3252
| 27> C 	 -126.247 	 70.8582 	 -44.3039
| 28> H 	 -123.571 	 72.0035 	 -46.0048
| 29> C 	 -126.477 	 72.3579 	 -46.3736
| 30> H 	 -126.625 	 73.403 	 -46.0247
| 31> H 	 -127.434 	 71.8687 	 -46.4347
| 32> C 	 -125.758 	 72.404 	 -47.6921
| 33> H 	 -125.916 	 71.4012 	 -48.1691
| 34> H 	 -124.716 	 72.7612 	 -47.8003
| 35> C 	 -126.447 	 73.3909 	 -48.6537
| 36> H 	 -126.833 	 74.2702 	 -48.1271
| 37> H 	 -127.433 	 73.0547 	 -49.081
| 38> H 	 -125.883 	 73.6779 	 -49.4737
| 39> H 	 -130.871 	 69.6478 	 -42.7984
| 40> H 	 -122.772 	 70.859 	 -43.921
| 41> *
| 42>
| 43>                          ****END OF INPUT****

CARTESIAN COORDINATES (ANGSTROEM)
---------------------------------
  S    -128.488000   69.287100  -43.708900
  C    -129.858000   70.122700  -42.947000
  C    -129.728000   71.516400  -43.029900
  C    -128.426000   71.880300  -43.450900
  C    -127.615000   70.782100  -43.802900
  H    -128.044000   72.857600  -43.553600
  C    -130.770000   72.555900  -42.736000
  H    -130.341000   72.985600  -41.792000
  H    -131.671000   72.062800  -42.384300
  C    -131.041000   73.578300  -43.906600
  H    -130.180000   73.942600  -44.337700
  H    -131.490000   73.047600  -44.757700
  C    -131.813000   74.817300  -43.415200
  H    -132.559000   74.574300  -42.625900
  H    -131.198000   75.436100  -42.906900
  H    -132.240000   75.457400  -44.206800
  S    -125.035000   70.098300  -43.285600
  C    -123.789000   70.883300  -44.148700
  C    -124.253000   71.487500  -45.312900
  C    -125.674000   71.616800  -45.325200
  C    -126.247000   70.858200  -44.303900
  H    -123.571000   72.003500  -46.004800
  C    -126.477000   72.357900  -46.373600
  H    -126.625000   73.403000  -46.024700
  H    -127.434000   71.868700  -46.434700
  C    -125.758000   72.404000  -47.692100
  H    -125.916000   71.401200  -48.169100
  H    -124.716000   72.761200  -47.800300
  C    -126.447000   73.390900  -48.653700
  H    -126.833000   74.270200  -48.127100
  H    -127.433000   73.054700  -49.081000
  H    -125.883000   73.677900  -49.473700
  H    -130.871000   69.647800  -42.798400
  H    -122.772000   70.859000  -43.921000

 Total Charge           Charge          ....    0
 Multiplicity           Mult            ....    1
 Number of Electrons    NEL             ....  134
 Basis Dimension        Dim             ....  322

ORBITAL ENERGIES
----------------

  NO   OCC          E(Eh)            E(eV)
   0   2.0000     -88.967261     -2420.9223
   1   2.0000     -88.964634     -2420.8508
   2   2.0000     -10.328390      -281.0498
   3   2.0000     -10.321207      -280.8543
   4   2.0000     -10.315922      -280.7105
   5   2.0000     -10.311213      -280.5824
   6   2.0000     -10.303290      -280.3668
   7   2.0000     -10.301265      -280.3117
   8   2.0000     -10.298909      -280.2476
   9   2.0000     -10.294352      -280.1236
  10   2.0000     -10.293663      -280.1048
  11   2.0000     -10.291933      -280.0577
  12   2.0000     -10.290074      -280.0072
  13   2.0000     -10.289060      -279.9796
  14   2.0000     -10.275733      -279.6169
  15   2.0000     -10.273655      -279.5604
  16   2.0000      -8.081612      -219.9118
  17   2.0000      -8.080151      -219.8721
  18   2.0000      -6.040043      -164.3579
  19   2.0000      -6.038546      -164.3172
  20   2.0000      -6.036292      -164.2559
  21   2.0000      -6.034494      -164.2069
  22   2.0000      -6.032363      -164.1489
  23   2.0000      -6.031046      -164.1131
  24   2.0000      -1.006031       -27.3755
  25   2.0000      -0.982466       -26.7343
  26   2.0000      -0.916944       -24.9513
  27   2.0000      -0.910098       -24.7650
  28   2.0000      -0.867262       -23.5994
  29   2.0000      -0.854132       -23.2421
  30   2.0000      -0.846835       -23.0436
  31   2.0000      -0.810094       -22.0438
  32   2.0000      -0.784740       -21.3538
  33   2.0000      -0.770694       -20.9716
  34   2.0000      -0.718284       -19.5455
  35   2.0000      -0.703623       -19.1466
  36   2.0000      -0.694847       -18.9078
  37   2.0000      -0.652760       -17.7625
  38   2.0000      -0.636823       -17.3288
  39   2.0000      -0.620015       -16.8715
  40   2.0000      -0.601910       -16.3788
  41   2.0000      -0.573090       -15.5946
  42   2.0000      -0.561846       -15.2886
  43   2.0000      -0.554396       -15.0859
  44   2.0000      -0.538593       -14.6559
  45   2.0000      -0.528464       -14.3802
  46   2.0000      -0.517625       -14.0853
  47   2.0000      -0.506702       -13.7881
  48   2.0000      -0.501366       -13.6429
  49   2.0000      -0.496955       -13.5228
  50   2.0000      -0.490397       -13.3444
  51   2.0000      -0.473161       -12.8754
  52   2.0000      -0.467841       -12.7306
  53   2.0000      -0.463913       -12.6237
  54   2.0000      -0.457165       -12.4401
  55   2.0000      -0.454191       -12.3592
  56   2.0000      -0.452381       -12.3099
  57   2.0000      -0.446376       -12.1465
  58   2.0000      -0.438103       -11.9214
  59   2.0000      -0.423892       -11.5347
  60   2.0000      -0.423532       -11.5249
  61   2.0000      -0.419078       -11.4037
  62   2.0000      -0.413297       -11.2464
  63   2.0000      -0.338605        -9.2139
  64   2.0000      -0.329013        -8.9529
  65   2.0000      -0.327401        -8.9090
  66   2.0000      -0.290491        -7.9047
  67   0.0000       0.035301         0.9606
  68   0.0000       0.060861         1.6561
  69   0.0000       0.108298         2.9469
  70   0.0000       0.127275         3.4633
  71   0.0000       0.131050         3.5660

MULLIKEN ATOMIC CHARGES
-----------------------
   0 S :    0.115054
   1 C :   -0.138563
   2 C :   -0.103360
   3 C :    0.042461
   4 C :   -0.168210
   5 H :   -0.006131
   6 C :    0.053475
   7 H :    0.046506
   8 H :    0.014263
   9 C :   -0.034344
  10 H :    0.007340
  11 H :    0.035768
  12 C :   -0.024537
  13 H :    0.029298
  14 H :    0.001250
  15 H :    0.039308
  16 S :    0.125421
  17 C :   -0.061980
  18 C :   -0.047670
  19 C :   -0.047873
  20 C :   -0.174332
  21 H :    0.024120
  22 C :    0.104142
  23 H :    0.034714
  24 H :    0.040720
  25 C :   -0.118288
  26 H :    0.049957
  27 H :    0.050220
  28 C :   -0.039112
  29 H :    0.012807
  30 H :    0.018657
  31 H :    0.020847
  32 H :    0.065148
  33 H :    0.032922
Sum of atomic charges:   -0.0000000

LOEWDIN ATOMIC CHARGES
----------------------
   0 S :    0.405229
   1 C :   -0.216548
   2 C :   -0.061057
   3 C :   -0.061087
   4 C :   -0.200591
   5 H :    0.022322
   6 C :   -0.032091
   7 H :    0.042698
   8 H :    0.027548
   9 C :   -0.029250
  10 H :    0.012548
  11 H :    0.030555
  12 C :   -0.061471
  13 H :    0.029806
  14 H :    0.010073
  15 H :    0.031897
  16 S :    0.429304
  17 C :   -0.184777
  18 C :   -0.076311
  19 C :   -0.050410
  20 C :   -0.211881
  21 H :    0.032481
  22 C :   -0.027978
  23 H :    0.034441
  24 H :    0.036671
  25 C :   -0.047393
  26 H :    0.037159
  27 H :    0.032221
  28 C :   -0.069349
  29 H :    0.021478
  30 H :    0.026587
  31 H :    0.013267
  32 H :    0.036606
  33 H :    0.017303

  Mayer bond orders larger than 0.100000
B(  0-S ,  1-C ) :   1.1274 B(  0-S ,  4-C ) :   1.1763 B(  1-C ,  2-C ) :   1.6049
B(  1-C , 32-H ) :   0.9553 B(  2-C ,  3-C ) :   1.2464 B(  2-C ,  6-C ) :   1.0195
B(  3-C ,  4-C ) :   1.5505 B(  3-C ,  5-H ) :   1.0039 B(  4-C , 20-C ) :   1.0187
B(  6-C ,  7-H ) :   0.9441 B(  6-C ,  8-H ) :   0.9371 B(  6-C ,  9-C ) :   1.0438
B(  9-C , 10-H ) :   0.9591 B(  9-C , 11-H ) :   0.9575 B(  9-C , 12-C ) :   1.0727
B( 12-C , 13-H ) :   0.9754 B( 12-C , 14-H ) :   0.9735 B( 12-C , 15-H ) :   0.9739
B( 16-S , 17-C ) :   1.1834 B( 16-S , 20-C ) :   1.1458 B( 17-C , 18-C ) :   1.5855
B( 17-C , 20-C ) :   0.1009 B( 17-C , 33-H ) :   0.9709 B( 18-C , 19-C ) :   1.2579
B( 18-C , 21-H ) :   0.9810 B( 19-C , 20-C ) :   1.5932 B( 19-C , 22-C ) :   1.0300
B( 22-C , 23-H ) :   0.9212 B( 22-C , 24-H ) :   0.9342 B( 22-C , 25-C ) :   1.0829
B( 25-C , 26-H ) :   0.9538 B( 25-C , 27-H ) :   0.9543 B( 25-C , 28-C ) :   1.0752
B( 28-C , 29-H ) :   0.9725 B( 28-C , 30-H ) :   0.9705 B( 28-C , 31-H ) :   0.9785

Dispersion correction           -0.013774696
FINAL SINGLE POINT ENERGY     -1339.859452323799

DIPOLE MOMENT
-------------
                                X             Y             Z
Electronic contribution:     13.61983     -24.19557      13.98117
Nuclear contribution   :    -13.74984      24.94130     -14.34865
                        -----------------------------------------
Total Dipole Moment    :     -0.13001       0.74572      -0.36748
                        -----------------------------------------
Magnitude (a.u.)       :      0.84146
Magnitude (Debye)      :      2.13881

Rotational constants in cm-1:     0.015881     0.008981     0.006578
Rotational constants in MHz :   476.104545   269.253086   197.216483

                             ****ORCA TERMINATED NORMALLY****
TOTAL RUN TIME: 0 days 0 hours 0 minutes 21 seconds 229 msec
