                         Program Version 4.2.1 -  RELEASE  -
|  1> ! wB97X-D3 SP def2-SVP
|  2> %pal
|  3> nprocs 24
|  4> end
|  5>
|  6> * xyz 0 1
|  7> S 	 -57.4673 	 16.7872 	 -100.571
|  8> C 	 -58.4489 	 17.0124 	 -102.051
|  9> C 	 -59.7024 	 16.5299 	 -101.954
| 10> C 	 -59.9219 	 15.8929 	 -100.659
| 11> C 	 -58.7573 	 15.8883 	 -99.8853
| 12> H 	 -60.8554 	 15.435 	 -100.295
| 13> C 	 -60.8839 	 16.7967 	 -102.857
| 14> H 	 -60.9739 	 17.7768 	 -103.349
| 15> H 	 -61.7945 	 16.6777 	 -102.158
| 16> C 	 -61.0089 	 15.5951 	 -103.873
| 17> H 	 -59.9923 	 15.3233 	 -104.156
| 18> H 	 -61.5037 	 14.8993 	 -103.267
| 19> C 	 -61.8195 	 15.9426 	 -105.112
| 20> H 	 -61.7904 	 15.0861 	 -105.868
| 21> H 	 -62.8976 	 16.147 	 -104.918
| 22> H 	 -61.4902 	 16.7994 	 -105.6
| 23> S 	 -58.0563 	 16.7903 	 -97.3911
| 24> C 	 -58.2921 	 15.7236 	 -95.9934
| 25> C 	 -58.68 	 14.4738 	 -96.4014
| 26> C 	 -58.851 	 14.3865 	 -97.7878
| 27> C 	 -58.603 	 15.5217 	 -98.4574
| 28> H 	 -58.8697 	 13.7026 	 -95.5987
| 29> C 	 -59.1074 	 13.0221 	 -98.4801
| 30> H 	 -58.3388 	 12.3633 	 -98.1091
| 31> H 	 -58.9518 	 13.0745 	 -99.6025
| 32> C 	 -60.4622 	 12.3338 	 -98.1546
| 33> H 	 -61.2082 	 13.1258 	 -98.4301
| 34> H 	 -60.444 	 12.0357 	 -97.0779
| 35> C 	 -60.7467 	 11.2052 	 -99.0905
| 36> H 	 -59.9942 	 10.4338 	 -99.0557
| 37> H 	 -60.8853 	 11.3869 	 -100.133
| 38> H 	 -61.7677 	 10.8539 	 -98.8944
| 39> H 	 -58.1605 	 17.6013 	 -102.874
| 40> H 	 -58.2777 	 15.9671 	 -94.9206
| 41> *
| 42>
| 43>                          ****END OF INPUT****

CARTESIAN COORDINATES (ANGSTROEM)
---------------------------------
  S    -57.467300   16.787200  -100.571000
  C    -58.448900   17.012400  -102.051000
  C    -59.702400   16.529900  -101.954000
  C    -59.921900   15.892900  -100.659000
  C    -58.757300   15.888300  -99.885300
  H    -60.855400   15.435000  -100.295000
  C    -60.883900   16.796700  -102.857000
  H    -60.973900   17.776800  -103.349000
  H    -61.794500   16.677700  -102.158000
  C    -61.008900   15.595100  -103.873000
  H    -59.992300   15.323300  -104.156000
  H    -61.503700   14.899300  -103.267000
  C    -61.819500   15.942600  -105.112000
  H    -61.790400   15.086100  -105.868000
  H    -62.897600   16.147000  -104.918000
  H    -61.490200   16.799400  -105.600000
  S    -58.056300   16.790300  -97.391100
  C    -58.292100   15.723600  -95.993400
  C    -58.680000   14.473800  -96.401400
  C    -58.851000   14.386500  -97.787800
  C    -58.603000   15.521700  -98.457400
  H    -58.869700   13.702600  -95.598700
  C    -59.107400   13.022100  -98.480100
  H    -58.338800   12.363300  -98.109100
  H    -58.951800   13.074500  -99.602500
  C    -60.462200   12.333800  -98.154600
  H    -61.208200   13.125800  -98.430100
  H    -60.444000   12.035700  -97.077900
  C    -60.746700   11.205200  -99.090500
  H    -59.994200   10.433800  -99.055700
  H    -60.885300   11.386900  -100.133000
  H    -61.767700   10.853900  -98.894400
  H    -58.160500   17.601300  -102.874000
  H    -58.277700   15.967100  -94.920600

 Total Charge           Charge          ....    0
 Multiplicity           Mult            ....    1
 Number of Electrons    NEL             ....  134
 Basis Dimension        Dim             ....  322

ORBITAL ENERGIES
----------------

  NO   OCC          E(Eh)            E(eV)
   0   2.0000     -88.967723     -2420.9348
   1   2.0000     -88.964661     -2420.8515
   2   2.0000     -10.330909      -281.1183
   3   2.0000     -10.321660      -280.8667
   4   2.0000     -10.318204      -280.7726
   5   2.0000     -10.308832      -280.5176
   6   2.0000     -10.301966      -280.3307
   7   2.0000     -10.300809      -280.2993
   8   2.0000     -10.300590      -280.2933
   9   2.0000     -10.296040      -280.1695
  10   2.0000     -10.294352      -280.1236
  11   2.0000     -10.291392      -280.0430
  12   2.0000     -10.291173      -280.0371
  13   2.0000     -10.284505      -279.8556
  14   2.0000     -10.280649      -279.7507
  15   2.0000     -10.272656      -279.5332
  16   2.0000      -8.082563      -219.9377
  17   2.0000      -8.079263      -219.8479
  18   2.0000      -6.041123      -164.3873
  19   2.0000      -6.037893      -164.2994
  20   2.0000      -6.037185      -164.2802
  21   2.0000      -6.033849      -164.1894
  22   2.0000      -6.033132      -164.1699
  23   2.0000      -6.029809      -164.0795
  24   2.0000      -1.010705       -27.5027
  25   2.0000      -0.986028       -26.8312
  26   2.0000      -0.913232       -24.8503
  27   2.0000      -0.906315       -24.6621
  28   2.0000      -0.870355       -23.6836
  29   2.0000      -0.852987       -23.2109
  30   2.0000      -0.844250       -22.9732
  31   2.0000      -0.813734       -22.1428
  32   2.0000      -0.781356       -21.2618
  33   2.0000      -0.774454       -21.0740
  34   2.0000      -0.702849       -19.1255
  35   2.0000      -0.699851       -19.0439
  36   2.0000      -0.691007       -18.8032
  37   2.0000      -0.659952       -17.9582
  38   2.0000      -0.640805       -17.4372
  39   2.0000      -0.616993       -16.7892
  40   2.0000      -0.591309       -16.0903
  41   2.0000      -0.574502       -15.6330
  42   2.0000      -0.569494       -15.4967
  43   2.0000      -0.559838       -15.2340
  44   2.0000      -0.525765       -14.3068
  45   2.0000      -0.522725       -14.2241
  46   2.0000      -0.515540       -14.0285
  47   2.0000      -0.513003       -13.9595
  48   2.0000      -0.503269       -13.6947
  49   2.0000      -0.496111       -13.4999
  50   2.0000      -0.489301       -13.3146
  51   2.0000      -0.483801       -13.1649
  52   2.0000      -0.470690       -12.8081
  53   2.0000      -0.468772       -12.7559
  54   2.0000      -0.463554       -12.6139
  55   2.0000      -0.448895       -12.2151
  56   2.0000      -0.439614       -11.9625
  57   2.0000      -0.436656       -11.8820
  58   2.0000      -0.431983       -11.7549
  59   2.0000      -0.420669       -11.4470
  60   2.0000      -0.418804       -11.3962
  61   2.0000      -0.418502       -11.3880
  62   2.0000      -0.408592       -11.1183
  63   2.0000      -0.347297        -9.4504
  64   2.0000      -0.332972        -9.0606
  65   2.0000      -0.329586        -8.9685
  66   2.0000      -0.295999        -8.0545
  67   0.0000       0.035958         0.9785
  68   0.0000       0.068042         1.8515
  69   0.0000       0.098087         2.6691
  70   0.0000       0.121913         3.3174
  71   0.0000       0.128999         3.5102

MULLIKEN ATOMIC CHARGES
-----------------------
   0 S :    0.101798
   1 C :   -0.104208
   2 C :   -0.065331
   3 C :    0.026141
   4 C :   -0.147275
   5 H :    0.022937
   6 C :    0.002232
   7 H :    0.040157
   8 H :    0.036320
   9 C :   -0.047300
  10 H :    0.042082
  11 H :    0.020160
  12 C :   -0.047825
  13 H :    0.043249
  14 H :    0.029170
  15 H :    0.016701
  16 S :    0.102075
  17 C :   -0.101534
  18 C :   -0.061842
  19 C :    0.003751
  20 C :   -0.157193
  21 H :    0.040926
  22 C :    0.017188
  23 H :    0.025746
  24 H :    0.039248
  25 C :   -0.086844
  26 H :    0.033321
  27 H :    0.045915
  28 C :   -0.024520
  29 H :    0.025385
  30 H :    0.018277
  31 H :    0.026014
  32 H :    0.023290
  33 H :    0.061788
Sum of atomic charges:   -0.0000000

LOEWDIN ATOMIC CHARGES
----------------------
   0 S :    0.402769
   1 C :   -0.180170
   2 C :   -0.060533
   3 C :   -0.063688
   4 C :   -0.194489
   5 H :    0.033972
   6 C :   -0.031751
   7 H :    0.027566
   8 H :    0.038482
   9 C :   -0.031762
  10 H :    0.025720
  11 H :    0.018330
  12 C :   -0.069806
  13 H :    0.034814
  14 H :    0.028209
  15 H :    0.012614
  16 S :    0.391918
  17 C :   -0.181248
  18 C :   -0.078136
  19 C :   -0.068064
  20 C :   -0.199790
  21 H :    0.043064
  22 C :   -0.032914
  23 H :    0.025966
  24 H :    0.034586
  25 C :   -0.045425
  26 H :    0.029551
  27 H :    0.029974
  28 C :   -0.070857
  29 H :    0.021631
  30 H :    0.023765
  31 H :    0.030702
  32 H :    0.017874
  33 H :    0.037127

  Mayer bond orders larger than 0.100000
B(  0-S ,  1-C ) :   1.1084 B(  0-S ,  4-C ) :   1.1594 B(  1-C ,  2-C ) :   1.6650
B(  1-C , 32-H ) :   0.9715 B(  2-C ,  3-C ) :   1.2070 B(  2-C ,  6-C ) :   1.0121
B(  3-C ,  4-C ) :   1.6011 B(  3-C ,  5-H ) :   0.9841 B(  4-C , 20-C ) :   0.9942
B(  6-C ,  7-H ) :   0.9598 B(  6-C ,  8-H ) :   0.9508 B(  6-C ,  9-C ) :   1.0215
B(  9-C , 10-H ) :   0.9667 B(  9-C , 11-H ) :   0.9606 B(  9-C , 12-C ) :   1.0871
B( 12-C , 13-H ) :   0.9739 B( 12-C , 14-H ) :   0.9707 B( 12-C , 15-H ) :   0.9766
B( 16-S , 17-C ) :   1.1382 B( 16-S , 20-C ) :   1.1240 B( 17-C , 18-C ) :   1.6455
B( 17-C , 33-H ) :   0.9626 B( 18-C , 19-C ) :   1.2202 B( 18-C , 21-H ) :   0.9799
B( 19-C , 20-C ) :   1.6619 B( 19-C , 22-C ) :   1.0265 B( 22-C , 23-H ) :   0.9377
B( 22-C , 24-H ) :   0.9454 B( 22-C , 25-C ) :   1.0551 B( 25-C , 26-H ) :   0.9561
B( 25-C , 27-H ) :   0.9520 B( 25-C , 28-C ) :   1.0972 B( 28-C , 29-H ) :   0.9715
B( 28-C , 30-H ) :   0.9694 B( 28-C , 31-H ) :   0.9684

Dispersion correction           -0.013670514
FINAL SINGLE POINT ENERGY     -1339.863907906649

DIPOLE MOMENT
-------------
                                X             Y             Z
Electronic contribution:     20.17399      17.61577      16.14955
Nuclear contribution   :    -20.71413     -17.91865     -16.29248
                        -----------------------------------------
Total Dipole Moment    :     -0.54014      -0.30288      -0.14293
                        -----------------------------------------
Magnitude (a.u.)       :      0.63554
Magnitude (Debye)      :      1.61543

Rotational constants in cm-1:     0.017726     0.008589     0.006234
Rotational constants in MHz :   531.420962   257.491596   186.891759

                             ****ORCA TERMINATED NORMALLY****
TOTAL RUN TIME: 0 days 0 hours 0 minutes 21 seconds 230 msec
