                         Program Version 4.2.1 -  RELEASE  -
|  1> ! wB97X-D3 SP def2-SVP
|  2> %pal
|  3> nprocs 24
|  4> end
|  5>
|  6> * xyz 0 1
|  7> S 	 20.956 	 -2.53784 	 -111.032
|  8> C 	 19.266 	 -2.69116 	 -111.365
|  9> C 	 18.7102 	 -1.4796 	 -111.643
| 10> C 	 19.6979 	 -0.437744 	 -111.816
| 11> C 	 20.9316 	 -0.81062 	 -111.372
| 12> H 	 19.448 	 0.494373 	 -112.188
| 13> C 	 17.2419 	 -1.31768 	 -111.97
| 14> H 	 16.9639 	 -2.19356 	 -112.63
| 15> H 	 17.0702 	 -0.514129 	 -112.667
| 16> C 	 16.3359 	 -1.16479 	 -110.8
| 17> H 	 15.3589 	 -0.901999 	 -111.216
| 18> H 	 16.3451 	 -2.13462 	 -110.321
| 19> C 	 16.6592 	 -0.0689828 	 -109.739
| 20> H 	 16.8088 	 0.875391 	 -110.233
| 21> H 	 15.7667 	 0.0366109 	 -109.19
| 22> H 	 17.5503 	 -0.327165 	 -109.212
| 23> S 	 23.207 	 -0.223109 	 -112.765
| 24> C 	 24.2191 	 1.09241 	 -112.269
| 25> C 	 23.7918 	 1.74614 	 -111.152
| 26> C 	 22.582 	 1.14086 	 -110.665
| 27> C 	 22.1461 	 0.010343 	 -111.392
| 28> H 	 24.3118 	 2.49995 	 -110.706
| 29> C 	 21.8858 	 1.66458 	 -109.43
| 30> H 	 20.9545 	 1.13927 	 -109.262
| 31> H 	 21.6459 	 2.67301 	 -109.727
| 32> C 	 22.6696 	 1.68822 	 -108.068
| 33> H 	 21.9992 	 2.18287 	 -107.383
| 34> H 	 23.5104 	 2.31281 	 -108.186
| 35> C 	 23.0173 	 0.324174 	 -107.445
| 36> H 	 22.0387 	 -0.129172 	 -107.289
| 37> H 	 23.3772 	 0.670424 	 -106.485
| 38> H 	 23.7482 	 -0.245509 	 -107.985
| 39> H 	 18.7562 	 -3.58123 	 -111.277
| 40> H 	 25.1851 	 1.39224 	 -112.642
| 41> *
| 42>
| 43>                          ****END OF INPUT****

CARTESIAN COORDINATES (ANGSTROEM)
---------------------------------
  S     20.956000   -2.537840  -111.032000
  C     19.266000   -2.691160  -111.365000
  C     18.710200   -1.479600  -111.643000
  C     19.697900   -0.437744  -111.816000
  C     20.931600   -0.810620  -111.372000
  H     19.448000    0.494373  -112.188000
  C     17.241900   -1.317680  -111.970000
  H     16.963900   -2.193560  -112.630000
  H     17.070200   -0.514129  -112.667000
  C     16.335900   -1.164790  -110.800000
  H     15.358900   -0.901999  -111.216000
  H     16.345100   -2.134620  -110.321000
  C     16.659200   -0.068983  -109.739000
  H     16.808800    0.875391  -110.233000
  H     15.766700    0.036611  -109.190000
  H     17.550300   -0.327165  -109.212000
  S     23.207000   -0.223109  -112.765000
  C     24.219100    1.092410  -112.269000
  C     23.791800    1.746140  -111.152000
  C     22.582000    1.140860  -110.665000
  C     22.146100    0.010343  -111.392000
  H     24.311800    2.499950  -110.706000
  C     21.885800    1.664580  -109.430000
  H     20.954500    1.139270  -109.262000
  H     21.645900    2.673010  -109.727000
  C     22.669600    1.688220  -108.068000
  H     21.999200    2.182870  -107.383000
  H     23.510400    2.312810  -108.186000
  C     23.017300    0.324174  -107.445000
  H     22.038700   -0.129172  -107.289000
  H     23.377200    0.670424  -106.485000
  H     23.748200   -0.245509  -107.985000
  H     18.756200   -3.581230  -111.277000
  H     25.185100    1.392240  -112.642000

 Total Charge           Charge          ....    0
 Multiplicity           Mult            ....    1
 Number of Electrons    NEL             ....  134
 Basis Dimension        Dim             ....  322

ORBITAL ENERGIES
----------------

  NO   OCC          E(Eh)            E(eV)
   0   2.0000     -88.963535     -2420.8209
   1   2.0000     -88.962695     -2420.7980
   2   2.0000     -10.328028      -281.0399
   3   2.0000     -10.324161      -280.9347
   4   2.0000     -10.312724      -280.6235
   5   2.0000     -10.305806      -280.4352
   6   2.0000     -10.304245      -280.3928
   7   2.0000     -10.295972      -280.1676
   8   2.0000     -10.289663      -279.9960
   9   2.0000     -10.287278      -279.9311
  10   2.0000     -10.284697      -279.8608
  11   2.0000     -10.283509      -279.8285
  12   2.0000     -10.281976      -279.7868
  13   2.0000     -10.281200      -279.7657
  14   2.0000     -10.272366      -279.5253
  15   2.0000     -10.270606      -279.4774
  16   2.0000      -8.078514      -219.8275
  17   2.0000      -8.077904      -219.8109
  18   2.0000      -6.037008      -164.2753
  19   2.0000      -6.036381      -164.2583
  20   2.0000      -6.032931      -164.1644
  21   2.0000      -6.032371      -164.1492
  22   2.0000      -6.029325      -164.0663
  23   2.0000      -6.028642      -164.0477
  24   2.0000      -1.006517       -27.3887
  25   2.0000      -0.985924       -26.8284
  26   2.0000      -0.914438       -24.8831
  27   2.0000      -0.903645       -24.5894
  28   2.0000      -0.872322       -23.7371
  29   2.0000      -0.849583       -23.1183
  30   2.0000      -0.845632       -23.0108
  31   2.0000      -0.821167       -22.3451
  32   2.0000      -0.787044       -21.4166
  33   2.0000      -0.771651       -20.9977
  34   2.0000      -0.706822       -19.2336
  35   2.0000      -0.697334       -18.9754
  36   2.0000      -0.690868       -18.7995
  37   2.0000      -0.660253       -17.9664
  38   2.0000      -0.650735       -17.7074
  39   2.0000      -0.616376       -16.7724
  40   2.0000      -0.593192       -16.1416
  41   2.0000      -0.584286       -15.8992
  42   2.0000      -0.558099       -15.1867
  43   2.0000      -0.549768       -14.9599
  44   2.0000      -0.546042       -14.8586
  45   2.0000      -0.544899       -14.8275
  46   2.0000      -0.516837       -14.0639
  47   2.0000      -0.513611       -13.9761
  48   2.0000      -0.502192       -13.6653
  49   2.0000      -0.498428       -13.5629
  50   2.0000      -0.492860       -13.4114
  51   2.0000      -0.478032       -13.0079
  52   2.0000      -0.472147       -12.8478
  53   2.0000      -0.466091       -12.6830
  54   2.0000      -0.462164       -12.5761
  55   2.0000      -0.449049       -12.2193
  56   2.0000      -0.447280       -12.1711
  57   2.0000      -0.437204       -11.8969
  58   2.0000      -0.427704       -11.6384
  59   2.0000      -0.422935       -11.5086
  60   2.0000      -0.415946       -11.3185
  61   2.0000      -0.412895       -11.2354
  62   2.0000      -0.407905       -11.0997
  63   2.0000      -0.340074        -9.2539
  64   2.0000      -0.327046        -8.8994
  65   2.0000      -0.321819        -8.7571
  66   2.0000      -0.306113        -8.3297
  67   0.0000       0.041787         1.1371
  68   0.0000       0.064232         1.7478
  69   0.0000       0.119287         3.2460
  70   0.0000       0.124200         3.3796
  71   0.0000       0.132207         3.5975

MULLIKEN ATOMIC CHARGES
-----------------------
   0 S :    0.108740
   1 C :   -0.089004
   2 C :   -0.103502
   3 C :    0.087528
   4 C :   -0.166052
   5 H :   -0.016313
   6 C :    0.046106
   7 H :    0.035012
   8 H :    0.006530
   9 C :   -0.073032
  10 H :    0.025759
  11 H :    0.023249
  12 C :   -0.013883
  13 H :    0.013668
  14 H :    0.030028
  15 H :    0.046839
  16 S :    0.117776
  17 C :   -0.060250
  18 C :   -0.012295
  19 C :   -0.039303
  20 C :   -0.169149
  21 H :   -0.018747
  22 C :    0.074256
  23 H :    0.014890
  24 H :    0.021776
  25 C :   -0.085516
  26 H :    0.022711
  27 H :    0.011101
  28 C :   -0.014599
  29 H :    0.031382
  30 H :    0.027627
  31 H :    0.051317
  32 H :    0.020354
  33 H :    0.044996
Sum of atomic charges:   -0.0000000

LOEWDIN ATOMIC CHARGES
----------------------
   0 S :    0.406202
   1 C :   -0.183816
   2 C :   -0.064911
   3 C :   -0.041392
   4 C :   -0.198419
   5 H :    0.020135
   6 C :   -0.042345
   7 H :    0.039272
   8 H :    0.022391
   9 C :   -0.038267
  10 H :    0.024896
  11 H :    0.020641
  12 C :   -0.053531
  13 H :    0.021218
  14 H :    0.024303
  15 H :    0.024936
  16 S :    0.416140
  17 C :   -0.181492
  18 C :   -0.064542
  19 C :   -0.045373
  20 C :   -0.213905
  21 H :    0.016288
  22 C :   -0.034364
  23 H :    0.024796
  24 H :    0.030825
  25 C :   -0.032744
  26 H :    0.024152
  27 H :    0.009713
  28 C :   -0.055041
  29 H :    0.028803
  30 H :    0.028212
  31 H :    0.025313
  32 H :    0.012708
  33 H :    0.029198

  Mayer bond orders larger than 0.100000
B(  0-S ,  1-C ) :   1.1412 B(  0-S ,  4-C ) :   1.1484 B(  1-C ,  2-C ) :   1.6176
B(  1-C , 32-H ) :   0.9788 B(  2-C ,  3-C ) :   1.2277 B(  2-C ,  6-C ) :   1.0137
B(  3-C ,  4-C ) :   1.5865 B(  3-C ,  5-H ) :   1.0095 B(  4-C , 20-C ) :   1.0025
B(  6-C ,  7-H ) :   0.9459 B(  6-C ,  8-H ) :   0.9397 B(  6-C ,  9-C ) :   1.0755
B(  9-C , 10-H ) :   0.9551 B(  9-C , 11-H ) :   0.9564 B(  9-C , 12-C ) :   1.0814
B( 12-C , 13-H ) :   0.9747 B( 12-C , 14-H ) :   0.9744 B( 12-C , 15-H ) :   0.9726
B( 16-S , 17-C ) :   1.1636 B( 16-S , 20-C ) :   1.1390 B( 17-C , 18-C ) :   1.6158
B( 17-C , 33-H ) :   0.9602 B( 18-C , 19-C ) :   1.2323 B( 18-C , 21-H ) :   1.0078
B( 19-C , 20-C ) :   1.5985 B( 19-C , 22-C ) :   1.0477 B( 22-C , 23-H ) :   0.9364
B( 22-C , 24-H ) :   0.9257 B( 22-C , 25-C ) :   1.0772 B( 25-C , 26-H ) :   0.9562
B( 25-C , 27-H ) :   0.9568 B( 25-C , 28-C ) :   1.0657 B( 28-C , 29-H ) :   0.9749
B( 28-C , 30-H ) :   0.9732 B( 28-C , 31-H ) :   0.9791

Dispersion correction           -0.014655979
FINAL SINGLE POINT ENERGY     -1339.872536328016

DIPOLE MOMENT
-------------
                                X             Y             Z
Electronic contribution:     15.39015      -9.51530     -16.65173
Nuclear contribution   :    -15.74906       9.97286      16.87683
                        -----------------------------------------
Total Dipole Moment    :     -0.35891       0.45756       0.22510
                        -----------------------------------------
Magnitude (a.u.)       :      0.62358
Magnitude (Debye)      :      1.58500

Rotational constants in cm-1:     0.019191     0.008738     0.007321
Rotational constants in MHz :   575.321135   261.968054   219.471595

                             ****ORCA TERMINATED NORMALLY****
TOTAL RUN TIME: 0 days 0 hours 0 minutes 21 seconds 934 msec
