                         Program Version 4.2.1 -  RELEASE  -
|  1> ! wB97X-D3 SP def2-SVP
|  2> %pal
|  3> nprocs 24
|  4> end
|  5>
|  6> * xyz 0 1
|  7> S 	 -54.7568 	 0.011668 	 -29.564
|  8> C 	 -56.462 	 -0.375616 	 -29.6764
|  9> C 	 -57.0785 	 0.50113 	 -30.6093
| 10> C 	 -56.1733 	 1.34936 	 -31.2756
| 11> C 	 -54.8837 	 1.32451 	 -30.7522
| 12> H 	 -56.3805 	 2.04278 	 -32.0314
| 13> C 	 -58.5481 	 0.487923 	 -30.944
| 14> H 	 -58.7866 	 1.40555 	 -31.5175
| 15> H 	 -59.1488 	 0.531907 	 -30.0072
| 16> C 	 -58.9618 	 -0.739502 	 -31.7132
| 17> H 	 -58.4339 	 -1.65169 	 -31.2695
| 18> H 	 -60.0348 	 -0.928155 	 -31.6356
| 19> C 	 -58.569 	 -0.765776 	 -33.1597
| 20> H 	 -57.4487 	 -0.669828 	 -33.3024
| 21> H 	 -59.0681 	 -1.56303 	 -33.6913
| 22> H 	 -58.9372 	 0.152403 	 -33.5597
| 23> S 	 -52.4274 	 1.20105 	 -31.8609
| 24> C 	 -51.8306 	 2.63937 	 -32.6197
| 25> C 	 -52.5369 	 3.78127 	 -32.3025
| 26> C 	 -53.6599 	 3.44447 	 -31.469
| 27> C 	 -53.7549 	 2.08413 	 -31.1707
| 28> H 	 -52.237 	 4.71216 	 -32.7395
| 29> C 	 -54.5292 	 4.51604 	 -30.7648
| 30> H 	 -53.9416 	 4.79222 	 -29.9172
| 31> H 	 -55.4535 	 3.98222 	 -30.2655
| 32> C 	 -55.057 	 5.64002 	 -31.5892
| 33> H 	 -55.3988 	 5.32692 	 -32.566
| 34> H 	 -54.1161 	 6.1424 	 -31.9484
| 35> C 	 -55.9169 	 6.67207 	 -30.9112
| 36> H 	 -56.8675 	 6.3089 	 -30.5467
| 37> H 	 -56.1893 	 7.50057 	 -31.5887
| 38> H 	 -55.3418 	 7.04525 	 -30.1052
| 39> H 	 -56.9803 	 -1.12515 	 -29.1352
| 40> H 	 -51.042 	 2.75035 	 -33.316
| 41> *
| 42>
| 43>                          ****END OF INPUT****

CARTESIAN COORDINATES (ANGSTROEM)
---------------------------------
  S    -54.756800    0.011668  -29.564000
  C    -56.462000   -0.375616  -29.676400
  C    -57.078500    0.501130  -30.609300
  C    -56.173300    1.349360  -31.275600
  C    -54.883700    1.324510  -30.752200
  H    -56.380500    2.042780  -32.031400
  C    -58.548100    0.487923  -30.944000
  H    -58.786600    1.405550  -31.517500
  H    -59.148800    0.531907  -30.007200
  C    -58.961800   -0.739502  -31.713200
  H    -58.433900   -1.651690  -31.269500
  H    -60.034800   -0.928155  -31.635600
  C    -58.569000   -0.765776  -33.159700
  H    -57.448700   -0.669828  -33.302400
  H    -59.068100   -1.563030  -33.691300
  H    -58.937200    0.152403  -33.559700
  S    -52.427400    1.201050  -31.860900
  C    -51.830600    2.639370  -32.619700
  C    -52.536900    3.781270  -32.302500
  C    -53.659900    3.444470  -31.469000
  C    -53.754900    2.084130  -31.170700
  H    -52.237000    4.712160  -32.739500
  C    -54.529200    4.516040  -30.764800
  H    -53.941600    4.792220  -29.917200
  H    -55.453500    3.982220  -30.265500
  C    -55.057000    5.640020  -31.589200
  H    -55.398800    5.326920  -32.566000
  H    -54.116100    6.142400  -31.948400
  C    -55.916900    6.672070  -30.911200
  H    -56.867500    6.308900  -30.546700
  H    -56.189300    7.500570  -31.588700
  H    -55.341800    7.045250  -30.105200
  H    -56.980300   -1.125150  -29.135200
  H    -51.042000    2.750350  -33.316000

 Total Charge           Charge          ....    0
 Multiplicity           Mult            ....    1
 Number of Electrons    NEL             ....  134
 Basis Dimension        Dim             ....  322

ORBITAL ENERGIES
----------------

  NO   OCC          E(Eh)            E(eV)
   0   2.0000     -88.968031     -2420.9432
   1   2.0000     -88.966293     -2420.8959
   2   2.0000     -10.328249      -281.0459
   3   2.0000     -10.322213      -280.8817
   4   2.0000     -10.315767      -280.7063
   5   2.0000     -10.314652      -280.6760
   6   2.0000     -10.309769      -280.5431
   7   2.0000     -10.300984      -280.3040
   8   2.0000     -10.295491      -280.1546
   9   2.0000     -10.294903      -280.1385
  10   2.0000     -10.292052      -280.0610
  11   2.0000     -10.288764      -279.9715
  12   2.0000     -10.284962      -279.8681
  13   2.0000     -10.283623      -279.8316
  14   2.0000     -10.276717      -279.6437
  15   2.0000     -10.271644      -279.5056
  16   2.0000      -8.083401      -219.9605
  17   2.0000      -8.080365      -219.8779
  18   2.0000      -6.041822      -164.4063
  19   2.0000      -6.038840      -164.3252
  20   2.0000      -6.037814      -164.2973
  21   2.0000      -6.034801      -164.2153
  22   2.0000      -6.034195      -164.1988
  23   2.0000      -6.031384      -164.1223
  24   2.0000      -1.008770       -27.4500
  25   2.0000      -0.982311       -26.7301
  26   2.0000      -0.915880       -24.9224
  27   2.0000      -0.912943       -24.8424
  28   2.0000      -0.873140       -23.7594
  29   2.0000      -0.854956       -23.2645
  30   2.0000      -0.846864       -23.0443
  31   2.0000      -0.816850       -22.2276
  32   2.0000      -0.784583       -21.3496
  33   2.0000      -0.770242       -20.9593
  34   2.0000      -0.708394       -19.2764
  35   2.0000      -0.700614       -19.0647
  36   2.0000      -0.691946       -18.8288
  37   2.0000      -0.659648       -17.9499
  38   2.0000      -0.643006       -17.4971
  39   2.0000      -0.615349       -16.7445
  40   2.0000      -0.595833       -16.2134
  41   2.0000      -0.576478       -15.6868
  42   2.0000      -0.562624       -15.3098
  43   2.0000      -0.556353       -15.1391
  44   2.0000      -0.541428       -14.7330
  45   2.0000      -0.531803       -14.4711
  46   2.0000      -0.520584       -14.1658
  47   2.0000      -0.512947       -13.9580
  48   2.0000      -0.508481       -13.8365
  49   2.0000      -0.493468       -13.4280
  50   2.0000      -0.490844       -13.3566
  51   2.0000      -0.479600       -13.0506
  52   2.0000      -0.477508       -12.9936
  53   2.0000      -0.470617       -12.8061
  54   2.0000      -0.461677       -12.5629
  55   2.0000      -0.451733       -12.2923
  56   2.0000      -0.442255       -12.0344
  57   2.0000      -0.441470       -12.0130
  58   2.0000      -0.428657       -11.6644
  59   2.0000      -0.424236       -11.5440
  60   2.0000      -0.420702       -11.4479
  61   2.0000      -0.406878       -11.0717
  62   2.0000      -0.396318       -10.7844
  63   2.0000      -0.347294        -9.4503
  64   2.0000      -0.333470        -9.0742
  65   2.0000      -0.328556        -8.9405
  66   2.0000      -0.287120        -7.8129
  67   0.0000       0.027389         0.7453
  68   0.0000       0.061675         1.6782
  69   0.0000       0.111362         3.0303
  70   0.0000       0.124135         3.3779
  71   0.0000       0.128074         3.4851

MULLIKEN ATOMIC CHARGES
-----------------------
   0 S :    0.105789
   1 C :   -0.100279
   2 C :   -0.109800
   3 C :    0.065127
   4 C :   -0.171084
   5 H :   -0.008093
   6 C :    0.067555
   7 H :    0.022478
   8 H :    0.038153
   9 C :   -0.095278
  10 H :    0.030310
  11 H :    0.027264
  12 C :   -0.032303
  13 H :    0.048455
  14 H :    0.039200
  15 H :   -0.000427
  16 S :    0.124639
  17 C :   -0.068701
  18 C :   -0.041592
  19 C :   -0.037259
  20 C :   -0.135937
  21 H :    0.018969
  22 C :    0.033848
  23 H :    0.039229
  24 H :    0.037709
  25 C :   -0.093283
  26 H :    0.016384
  27 H :    0.015311
  28 C :    0.000521
  29 H :    0.028010
  30 H :    0.035725
  31 H :    0.022698
  32 H :    0.039396
  33 H :    0.037266
Sum of atomic charges:    0.0000000

LOEWDIN ATOMIC CHARGES
----------------------
   0 S :    0.399057
   1 C :   -0.196742
   2 C :   -0.060273
   3 C :   -0.056711
   4 C :   -0.186838
   5 H :    0.024154
   6 C :   -0.036326
   7 H :    0.029533
   8 H :    0.038378
   9 C :   -0.049621
  10 H :    0.028383
  11 H :    0.021787
  12 C :   -0.067070
  13 H :    0.035510
  14 H :    0.027459
  15 H :    0.014296
  16 S :    0.425873
  17 C :   -0.178017
  18 C :   -0.072478
  19 C :   -0.044689
  20 C :   -0.216345
  21 H :    0.030872
  22 C :   -0.036608
  23 H :    0.031171
  24 H :    0.037391
  25 C :   -0.055984
  26 H :    0.020680
  27 H :    0.025572
  28 C :   -0.056934
  29 H :    0.022820
  30 H :    0.033249
  31 H :    0.023140
  32 H :    0.022067
  33 H :    0.023244

  Mayer bond orders larger than 0.100000
B(  0-S ,  1-C ) :   1.1483 B(  0-S ,  4-C ) :   1.1531 B(  1-C ,  2-C ) :   1.5621
B(  1-C ,  4-C ) :   0.1112 B(  1-C , 32-H ) :   0.9753 B(  2-C ,  3-C ) :   1.2679
B(  2-C ,  6-C ) :   1.0275 B(  3-C ,  4-C ) :   1.5440 B(  3-C ,  5-H ) :   1.0007
B(  4-C , 20-C ) :   1.0452 B(  6-C ,  7-H ) :   0.9450 B(  6-C ,  8-H ) :   0.9334
B(  6-C ,  9-C ) :   1.0716 B(  9-C , 10-H ) :   0.9541 B(  9-C , 11-H ) :   0.9534
B(  9-C , 12-C ) :   1.0817 B( 12-C , 13-H ) :   0.9722 B( 12-C , 14-H ) :   0.9722
B( 12-C , 15-H ) :   0.9694 B( 16-S , 17-C ) :   1.1696 B( 16-S , 20-C ) :   1.1320
B( 17-C , 18-C ) :   1.6203 B( 17-C , 33-H ) :   0.9656 B( 18-C , 19-C ) :   1.2234
B( 18-C , 21-H ) :   0.9953 B( 19-C , 20-C ) :   1.5934 B( 19-C , 22-C ) :   1.0249
B( 22-C , 23-H ) :   0.9387 B( 22-C , 24-H ) :   0.9385 B( 22-C , 25-C ) :   1.0521
B( 25-C , 26-H ) :   0.9584 B( 25-C , 27-H ) :   0.9428 B( 25-C , 28-C ) :   1.0886
B( 28-C , 29-H ) :   0.9747 B( 28-C , 30-H ) :   0.9710 B( 28-C , 31-H ) :   0.9707

Dispersion correction           -0.014192320
FINAL SINGLE POINT ENERGY     -1339.872820906751

DIPOLE MOMENT
-------------
                                X             Y             Z
Electronic contribution:     21.80121     -12.86750       6.65740
Nuclear contribution   :    -22.18451      13.38238      -6.95332
                        -----------------------------------------
Total Dipole Moment    :     -0.38331       0.51488      -0.29592
                        -----------------------------------------
Magnitude (a.u.)       :      0.70682
Magnitude (Debye)      :      1.79659

Rotational constants in cm-1:     0.016742     0.008855     0.007036
Rotational constants in MHz :   501.902669   265.464879   210.931108

                             ****ORCA TERMINATED NORMALLY****
TOTAL RUN TIME: 0 days 0 hours 0 minutes 21 seconds 521 msec
