                         Program Version 4.2.1 -  RELEASE  -
|  1> ! wB97X-D3 SP def2-SVP
|  2> %pal
|  3> nprocs 24
|  4> end
|  5>
|  6> * xyz 0 1
|  7> S 	 -106.667 	 65.8939 	 -11.6319
|  8> C 	 -105.708 	 67.3852 	 -11.9076
|  9> C 	 -104.348 	 67.1214 	 -11.5784
| 10> C 	 -104.192 	 65.8868 	 -10.8701
| 11> C 	 -105.301 	 65.0925 	 -10.8426
| 12> H 	 -103.23 	 65.6621 	 -10.4617
| 13> C 	 -103.265 	 68.159 	 -11.7531
| 14> H 	 -102.391 	 67.8792 	 -11.1784
| 15> H 	 -103.609 	 69.0928 	 -11.3304
| 16> C 	 -102.952 	 68.3196 	 -13.2543
| 17> H 	 -102.546 	 67.3497 	 -13.561
| 18> H 	 -103.827 	 68.5307 	 -13.9047
| 19> C 	 -102.013 	 69.5175 	 -13.6528
| 20> H 	 -102.069 	 69.7931 	 -14.7217
| 21> H 	 -102.381 	 70.3987 	 -13.184
| 22> H 	 -100.963 	 69.5181 	 -13.3888
| 23> S 	 -105.379 	 62.4283 	 -11.1437
| 24> C 	 -105.095 	 61.3867 	 -9.82663
| 25> C 	 -104.926 	 62.1248 	 -8.6785
| 26> C 	 -105.101 	 63.5345 	 -8.80815
| 27> C 	 -105.375 	 63.8583 	 -10.129
| 28> H 	 -104.861 	 61.5573 	 -7.75914
| 29> C 	 -104.776 	 64.4866 	 -7.64217
| 30> H 	 -104.078 	 65.2858 	 -7.91819
| 31> H 	 -104.072 	 63.863 	 -7.03541
| 32> C 	 -105.867 	 64.791 	 -6.65084
| 33> H 	 -105.372 	 65.0391 	 -5.79652
| 34> H 	 -106.436 	 63.9485 	 -6.39362
| 35> C 	 -106.784 	 65.9164 	 -6.98411
| 36> H 	 -107.502 	 65.5927 	 -7.70084
| 37> H 	 -106.142 	 66.8082 	 -7.25861
| 38> H 	 -107.342 	 66.3205 	 -6.13583
| 39> H 	 -106.073 	 68.2478 	 -12.413
| 40> H 	 -105.23 	 60.4147 	 -9.89802
| 41> *
| 42>
| 43>                          ****END OF INPUT****

CARTESIAN COORDINATES (ANGSTROEM)
---------------------------------
  S    -106.667000   65.893900  -11.631900
  C    -105.708000   67.385200  -11.907600
  C    -104.348000   67.121400  -11.578400
  C    -104.192000   65.886800  -10.870100
  C    -105.301000   65.092500  -10.842600
  H    -103.230000   65.662100  -10.461700
  C    -103.265000   68.159000  -11.753100
  H    -102.391000   67.879200  -11.178400
  H    -103.609000   69.092800  -11.330400
  C    -102.952000   68.319600  -13.254300
  H    -102.546000   67.349700  -13.561000
  H    -103.827000   68.530700  -13.904700
  C    -102.013000   69.517500  -13.652800
  H    -102.069000   69.793100  -14.721700
  H    -102.381000   70.398700  -13.184000
  H    -100.963000   69.518100  -13.388800
  S    -105.379000   62.428300  -11.143700
  C    -105.095000   61.386700   -9.826630
  C    -104.926000   62.124800   -8.678500
  C    -105.101000   63.534500   -8.808150
  C    -105.375000   63.858300  -10.129000
  H    -104.861000   61.557300   -7.759140
  C    -104.776000   64.486600   -7.642170
  H    -104.078000   65.285800   -7.918190
  H    -104.072000   63.863000   -7.035410
  C    -105.867000   64.791000   -6.650840
  H    -105.372000   65.039100   -5.796520
  H    -106.436000   63.948500   -6.393620
  C    -106.784000   65.916400   -6.984110
  H    -107.502000   65.592700   -7.700840
  H    -106.142000   66.808200   -7.258610
  H    -107.342000   66.320500   -6.135830
  H    -106.073000   68.247800  -12.413000
  H    -105.230000   60.414700   -9.898020

 Total Charge           Charge          ....    0
 Multiplicity           Mult            ....    1
 Number of Electrons    NEL             ....  134
 Basis Dimension        Dim             ....  322

ORBITAL ENERGIES
----------------

  NO   OCC          E(Eh)            E(eV)
   0   2.0000     -88.966817     -2420.9102
   1   2.0000     -88.959305     -2420.7058
   2   2.0000     -10.325494      -280.9710
   3   2.0000     -10.321738      -280.8688
   4   2.0000     -10.318758      -280.7877
   5   2.0000     -10.305204      -280.4189
   6   2.0000     -10.303649      -280.3766
   7   2.0000     -10.302966      -280.3580
   8   2.0000     -10.294244      -280.1206
   9   2.0000     -10.293426      -280.0984
  10   2.0000     -10.292834      -280.0823
  11   2.0000     -10.291820      -280.0547
  12   2.0000     -10.290147      -280.0091
  13   2.0000     -10.276756      -279.6448
  14   2.0000     -10.267729      -279.3991
  15   2.0000     -10.267567      -279.3947
  16   2.0000      -8.080312      -219.8765
  17   2.0000      -8.075388      -219.7425
  18   2.0000      -6.038960      -164.3285
  19   2.0000      -6.034912      -164.2183
  20   2.0000      -6.033725      -164.1860
  21   2.0000      -6.031083      -164.1141
  22   2.0000      -6.029589      -164.0735
  23   2.0000      -6.026365      -163.9857
  24   2.0000      -1.007904       -27.4265
  25   2.0000      -0.980517       -26.6812
  26   2.0000      -0.915412       -24.9096
  27   2.0000      -0.909291       -24.7431
  28   2.0000      -0.869203       -23.6522
  29   2.0000      -0.853337       -23.2205
  30   2.0000      -0.844235       -22.9728
  31   2.0000      -0.813039       -22.1239
  32   2.0000      -0.785616       -21.3777
  33   2.0000      -0.773461       -21.0470
  34   2.0000      -0.708711       -19.2850
  35   2.0000      -0.704068       -19.1587
  36   2.0000      -0.697783       -18.9877
  37   2.0000      -0.663026       -18.0419
  38   2.0000      -0.641672       -17.4608
  39   2.0000      -0.622969       -16.9519
  40   2.0000      -0.605226       -16.4690
  41   2.0000      -0.567471       -15.4417
  42   2.0000      -0.558629       -15.2011
  43   2.0000      -0.558226       -15.1901
  44   2.0000      -0.540035       -14.6951
  45   2.0000      -0.526622       -14.3301
  46   2.0000      -0.521878       -14.2010
  47   2.0000      -0.512457       -13.9447
  48   2.0000      -0.505699       -13.7608
  49   2.0000      -0.500010       -13.6060
  50   2.0000      -0.495832       -13.4923
  51   2.0000      -0.482370       -13.1260
  52   2.0000      -0.472914       -12.8687
  53   2.0000      -0.461361       -12.5543
  54   2.0000      -0.452468       -12.3123
  55   2.0000      -0.445961       -12.1352
  56   2.0000      -0.436949       -11.8900
  57   2.0000      -0.434479       -11.8228
  58   2.0000      -0.427603       -11.6357
  59   2.0000      -0.425224       -11.5709
  60   2.0000      -0.422293       -11.4912
  61   2.0000      -0.416283       -11.3276
  62   2.0000      -0.407173       -11.0797
  63   2.0000      -0.337520        -9.1844
  64   2.0000      -0.328126        -8.9288
  65   2.0000      -0.327758        -8.9188
  66   2.0000      -0.300006        -8.1636
  67   0.0000       0.035032         0.9533
  68   0.0000       0.058714         1.5977
  69   0.0000       0.115698         3.1483
  70   0.0000       0.117201         3.1892
  71   0.0000       0.126275         3.4361

MULLIKEN ATOMIC CHARGES
-----------------------
   0 S :    0.108636
   1 C :   -0.117630
   2 C :   -0.117734
   3 C :    0.049701
   4 C :   -0.127946
   5 H :    0.002162
   6 C :    0.102172
   7 H :    0.017957
   8 H :    0.026552
   9 C :   -0.101314
  10 H :    0.034361
  11 H :    0.039536
  12 C :   -0.040706
  13 H :    0.033777
  14 H :    0.008201
  15 H :    0.030453
  16 S :    0.100609
  17 C :   -0.031332
  18 C :   -0.051346
  19 C :   -0.007362
  20 C :   -0.175827
  21 H :    0.019252
  22 C :    0.040726
  23 H :    0.028087
  24 H :    0.013852
  25 C :    0.020656
  26 H :   -0.005255
  27 H :    0.005359
  28 C :   -0.043235
  29 H :    0.037036
  30 H :    0.028587
  31 H :    0.023490
  32 H :    0.046492
  33 H :    0.002032
Sum of atomic charges:    0.0000000

LOEWDIN ATOMIC CHARGES
----------------------
   0 S :    0.387434
   1 C :   -0.179193
   2 C :   -0.055361
   3 C :   -0.054658
   4 C :   -0.198942
   5 H :    0.027954
   6 C :   -0.029879
   7 H :    0.028354
   8 H :    0.029197
   9 C :   -0.038104
  10 H :    0.025742
  11 H :    0.030555
  12 C :   -0.075386
  13 H :    0.030434
  14 H :    0.018729
  15 H :    0.021254
  16 S :    0.426099
  17 C :   -0.174504
  18 C :   -0.072026
  19 C :   -0.053427
  20 C :   -0.199840
  21 H :    0.029321
  22 C :   -0.028913
  23 H :    0.032343
  24 H :    0.038833
  25 C :   -0.036373
  26 H :    0.014633
  27 H :    0.021168
  28 C :   -0.063903
  29 H :    0.022508
  30 H :    0.031900
  31 H :    0.024586
  32 H :    0.021262
  33 H :   -0.001799

  Mayer bond orders larger than 0.100000
B(  0-S ,  1-C ) :   1.1417 B(  0-S ,  4-C ) :   1.1393 B(  1-C ,  2-C ) :   1.5808
B(  1-C ,  4-C ) :   0.1070 B(  1-C , 32-H ) :   0.9739 B(  2-C ,  3-C ) :   1.2601
B(  2-C ,  6-C ) :   1.0267 B(  3-C ,  4-C ) :   1.5685 B(  3-C ,  5-H ) :   0.9979
B(  4-C , 20-C ) :   1.0136 B(  6-C ,  7-H ) :   0.9434 B(  6-C ,  8-H ) :   0.9401
B(  6-C ,  9-C ) :   1.0471 B(  9-C , 10-H ) :   0.9589 B(  9-C , 11-H ) :   0.9640
B(  9-C , 12-C ) :   1.0652 B( 12-C , 13-H ) :   0.9780 B( 12-C , 14-H ) :   0.9711
B( 12-C , 15-H ) :   0.9774 B( 16-S , 17-C ) :   1.1709 B( 16-S , 20-C ) :   1.1644
B( 17-C , 18-C ) :   1.5930 B( 17-C , 20-C ) :   0.1024 B( 17-C , 33-H ) :   0.9869
B( 18-C , 19-C ) :   1.2596 B( 18-C , 21-H ) :   0.9840 B( 19-C , 20-C ) :   1.5836
B( 19-C , 22-C ) :   1.0223 B( 22-C , 23-H ) :   0.9391 B( 22-C , 24-H ) :   0.9325
B( 22-C , 25-C ) :   1.0812 B( 25-C , 26-H ) :   0.9413 B( 25-C , 27-H ) :   0.9448
B( 25-C , 28-C ) :   1.0956 B( 28-C , 29-H ) :   0.9764 B( 28-C , 30-H ) :   0.9718
B( 28-C , 31-H ) :   0.9707

Dispersion correction           -0.014243169
FINAL SINGLE POINT ENERGY     -1339.855209308095

DIPOLE MOMENT
-------------
                                X             Y             Z
Electronic contribution:    -10.89917     -19.26953      -7.67379
Nuclear contribution   :     11.33626      19.56847       8.10710
                        -----------------------------------------
Total Dipole Moment    :      0.43709       0.29893       0.43330
                        -----------------------------------------
Magnitude (a.u.)       :      0.68422
Magnitude (Debye)      :      1.73916

Rotational constants in cm-1:     0.020179     0.007697     0.006803
Rotational constants in MHz :   604.947966   230.736618   203.949839

                             ****ORCA TERMINATED NORMALLY****
TOTAL RUN TIME: 0 days 0 hours 0 minutes 20 seconds 376 msec
