                         Program Version 4.2.1 -  RELEASE  -
|  1> ! wB97X-D3 SP def2-SVP
|  2> %pal
|  3> nprocs 24
|  4> end
|  5>
|  6> * xyz 0 1
|  7> S 	 -119.942 	 49.6787 	 -34.8942
|  8> C 	 -121.1 	 48.4152 	 -34.5591
|  9> C 	 -122.379 	 48.9923 	 -34.3378
| 10> C 	 -122.337 	 50.4306 	 -34.3542
| 11> C 	 -121.15 	 50.9446 	 -34.7254
| 12> H 	 -123.115 	 51.1741 	 -34.1943
| 13> C 	 -123.622 	 48.2481 	 -34.1177
| 14> H 	 -123.46 	 47.1829 	 -34.2127
| 15> H 	 -124.29 	 48.5647 	 -34.8626
| 16> C 	 -124.288 	 48.4099 	 -32.7276
| 17> H 	 -124.639 	 49.4228 	 -32.5648
| 18> H 	 -125.091 	 47.7272 	 -32.6159
| 19> C 	 -123.309 	 48.2428 	 -31.5156
| 20> H 	 -122.747 	 47.2931 	 -31.49
| 21> H 	 -122.661 	 49.1215 	 -31.503
| 22> H 	 -123.934 	 48.1066 	 -30.6398
| 23> S 	 -120.891 	 53.2121 	 -36.2267
| 24> C 	 -120.525 	 54.7596 	 -35.477
| 25> C 	 -120.408 	 54.5862 	 -34.1611
| 26> C 	 -120.47 	 53.2509 	 -33.6923
| 27> C 	 -120.869 	 52.3758 	 -34.7245
| 28> H 	 -120.212 	 55.438 	 -33.543
| 29> C 	 -120.075 	 52.786 	 -32.2777
| 30> H 	 -121.021 	 52.5671 	 -31.8186
| 31> H 	 -119.63 	 53.5497 	 -31.6443
| 32> C 	 -119.015 	 51.6367 	 -32.2092
| 33> H 	 -119.468 	 50.6839 	 -32.4069
| 34> H 	 -118.71 	 51.5049 	 -31.1658
| 35> C 	 -117.796 	 51.9341 	 -33.0721
| 36> H 	 -117.242 	 52.8912 	 -32.8746
| 37> H 	 -118.09 	 52.0686 	 -34.0484
| 38> H 	 -117.068 	 51.1247 	 -32.99
| 39> H 	 -120.964 	 47.3202 	 -34.5927
| 40> H 	 -120.305 	 55.7458 	 -36.0368
| 41> *
| 42>
| 43>                          ****END OF INPUT****

CARTESIAN COORDINATES (ANGSTROEM)
---------------------------------
  S    -119.942000   49.678700  -34.894200
  C    -121.100000   48.415200  -34.559100
  C    -122.379000   48.992300  -34.337800
  C    -122.337000   50.430600  -34.354200
  C    -121.150000   50.944600  -34.725400
  H    -123.115000   51.174100  -34.194300
  C    -123.622000   48.248100  -34.117700
  H    -123.460000   47.182900  -34.212700
  H    -124.290000   48.564700  -34.862600
  C    -124.288000   48.409900  -32.727600
  H    -124.639000   49.422800  -32.564800
  H    -125.091000   47.727200  -32.615900
  C    -123.309000   48.242800  -31.515600
  H    -122.747000   47.293100  -31.490000
  H    -122.661000   49.121500  -31.503000
  H    -123.934000   48.106600  -30.639800
  S    -120.891000   53.212100  -36.226700
  C    -120.525000   54.759600  -35.477000
  C    -120.408000   54.586200  -34.161100
  C    -120.470000   53.250900  -33.692300
  C    -120.869000   52.375800  -34.724500
  H    -120.212000   55.438000  -33.543000
  C    -120.075000   52.786000  -32.277700
  H    -121.021000   52.567100  -31.818600
  H    -119.630000   53.549700  -31.644300
  C    -119.015000   51.636700  -32.209200
  H    -119.468000   50.683900  -32.406900
  H    -118.710000   51.504900  -31.165800
  C    -117.796000   51.934100  -33.072100
  H    -117.242000   52.891200  -32.874600
  H    -118.090000   52.068600  -34.048400
  H    -117.068000   51.124700  -32.990000
  H    -120.964000   47.320200  -34.592700
  H    -120.305000   55.745800  -36.036800

 Total Charge           Charge          ....    0
 Multiplicity           Mult            ....    1
 Number of Electrons    NEL             ....  134
 Basis Dimension        Dim             ....  322

ORBITAL ENERGIES
----------------

  NO   OCC          E(Eh)            E(eV)
   0   2.0000     -88.967147     -2420.9191
   1   2.0000     -88.962660     -2420.7971
   2   2.0000     -10.324531      -280.9448
   3   2.0000     -10.323994      -280.9301
   4   2.0000     -10.321066      -280.8505
   5   2.0000     -10.318763      -280.7878
   6   2.0000     -10.305612      -280.4300
   7   2.0000     -10.303233      -280.3652
   8   2.0000     -10.291869      -280.0560
   9   2.0000     -10.290211      -280.0109
  10   2.0000     -10.286342      -279.9056
  11   2.0000     -10.284362      -279.8517
  12   2.0000     -10.283631      -279.8318
  13   2.0000     -10.279457      -279.7182
  14   2.0000     -10.276375      -279.6344
  15   2.0000     -10.266711      -279.3714
  16   2.0000      -8.080951      -219.8939
  17   2.0000      -8.077904      -219.8109
  18   2.0000      -6.039642      -164.3470
  19   2.0000      -6.036369      -164.2579
  20   2.0000      -6.035410      -164.2319
  21   2.0000      -6.032245      -164.1457
  22   2.0000      -6.031722      -164.1315
  23   2.0000      -6.028766      -164.0511
  24   2.0000      -1.009763       -27.4770
  25   2.0000      -0.987047       -26.8589
  26   2.0000      -0.913508       -24.8578
  27   2.0000      -0.901768       -24.5384
  28   2.0000      -0.872725       -23.7481
  29   2.0000      -0.846731       -23.0407
  30   2.0000      -0.842204       -22.9175
  31   2.0000      -0.819096       -22.2887
  32   2.0000      -0.783559       -21.3217
  33   2.0000      -0.770579       -20.9685
  34   2.0000      -0.709386       -19.3034
  35   2.0000      -0.696805       -18.9610
  36   2.0000      -0.688993       -18.7485
  37   2.0000      -0.655670       -17.8417
  38   2.0000      -0.642482       -17.4828
  39   2.0000      -0.620111       -16.8741
  40   2.0000      -0.590019       -16.0552
  41   2.0000      -0.569946       -15.5090
  42   2.0000      -0.556164       -15.1340
  43   2.0000      -0.552713       -15.0401
  44   2.0000      -0.547425       -14.8962
  45   2.0000      -0.545187       -14.8353
  46   2.0000      -0.513904       -13.9840
  47   2.0000      -0.504354       -13.7242
  48   2.0000      -0.501675       -13.6513
  49   2.0000      -0.492166       -13.3925
  50   2.0000      -0.488580       -13.2949
  51   2.0000      -0.480035       -13.0624
  52   2.0000      -0.473966       -12.8973
  53   2.0000      -0.466365       -12.6904
  54   2.0000      -0.458888       -12.4870
  55   2.0000      -0.447181       -12.1684
  56   2.0000      -0.437940       -11.9169
  57   2.0000      -0.433272       -11.7899
  58   2.0000      -0.430778       -11.7221
  59   2.0000      -0.425083       -11.5671
  60   2.0000      -0.421030       -11.4568
  61   2.0000      -0.414965       -11.2918
  62   2.0000      -0.404163       -10.9978
  63   2.0000      -0.337889        -9.1944
  64   2.0000      -0.335323        -9.1246
  65   2.0000      -0.314497        -8.5579
  66   2.0000      -0.309551        -8.4233
  67   0.0000       0.046866         1.2753
  68   0.0000       0.053440         1.4542
  69   0.0000       0.118463         3.2235
  70   0.0000       0.124804         3.3961
  71   0.0000       0.127972         3.4823

MULLIKEN ATOMIC CHARGES
-----------------------
   0 S :    0.108771
   1 C :   -0.117502
   2 C :   -0.111746
   3 C :    0.041944
   4 C :   -0.147510
   5 H :    0.019269
   6 C :    0.122421
   7 H :    0.008999
   8 H :    0.028355
   9 C :   -0.085523
  10 H :    0.027534
  11 H :    0.025962
  12 C :   -0.068508
  13 H :    0.024957
  14 H :    0.052410
  15 H :    0.027694
  16 S :    0.108551
  17 C :   -0.121384
  18 C :   -0.026386
  19 C :   -0.041349
  20 C :   -0.217592
  21 H :    0.008905
  22 C :    0.094066
  23 H :    0.029584
  24 H :    0.017901
  25 C :   -0.064627
  26 H :    0.032245
  27 H :    0.020504
  28 C :   -0.025951
  29 H :    0.025939
  30 H :    0.017210
  31 H :    0.035756
  32 H :    0.060270
  33 H :    0.088831
Sum of atomic charges:   -0.0000000

LOEWDIN ATOMIC CHARGES
----------------------
   0 S :    0.419365
   1 C :   -0.205717
   2 C :   -0.060060
   3 C :   -0.057799
   4 C :   -0.198173
   5 H :    0.037597
   6 C :   -0.031743
   7 H :    0.028767
   8 H :    0.029942
   9 C :   -0.032381
  10 H :    0.021637
  11 H :    0.017888
  12 C :   -0.067692
  13 H :    0.022426
  14 H :    0.027565
  15 H :    0.025550
  16 S :    0.417010
  17 C :   -0.197865
  18 C :   -0.079854
  19 C :   -0.052219
  20 C :   -0.216558
  21 H :    0.029700
  22 C :   -0.029497
  23 H :    0.031241
  24 H :    0.029768
  25 C :   -0.040399
  26 H :    0.011914
  27 H :    0.024014
  28 C :   -0.063645
  29 H :    0.030789
  30 H :    0.008515
  31 H :    0.028518
  32 H :    0.037720
  33 H :    0.053675

  Mayer bond orders larger than 0.100000
B(  0-S ,  1-C ) :   1.1371 B(  0-S ,  4-C ) :   1.1374 B(  1-C ,  2-C ) :   1.5983
B(  1-C , 32-H ) :   0.9636 B(  2-C ,  3-C ) :   1.1996 B(  2-C ,  6-C ) :   1.0530
B(  3-C ,  4-C ) :   1.6304 B(  3-C ,  5-H ) :   0.9906 B(  4-C , 20-C ) :   1.0121
B(  6-C ,  7-H ) :   0.9332 B(  6-C ,  8-H ) :   0.9325 B(  6-C ,  9-C ) :   1.0678
B(  9-C , 10-H ) :   0.9567 B(  9-C , 11-H ) :   0.9624 B(  9-C , 12-C ) :   1.0720
B( 12-C , 13-H ) :   0.9776 B( 12-C , 14-H ) :   0.9740 B( 12-C , 15-H ) :   0.9742
B( 16-S , 17-C ) :   1.1493 B( 16-S , 20-C ) :   1.1670 B( 17-C , 18-C ) :   1.6144
B( 17-C , 33-H ) :   0.9551 B( 18-C , 19-C ) :   1.2629 B( 18-C , 21-H ) :   0.9908
B( 19-C , 20-C ) :   1.5623 B( 19-C , 22-C ) :   1.0225 B( 22-C , 23-H ) :   0.9320
B( 22-C , 24-H ) :   0.9450 B( 22-C , 25-C ) :   1.0662 B( 25-C , 26-H ) :   0.9511
B( 25-C , 27-H ) :   0.9554 B( 25-C , 28-C ) :   1.0723 B( 28-C , 29-H ) :   0.9730
B( 28-C , 30-H ) :   0.9697 B( 28-C , 31-H ) :   0.9735

Dispersion correction           -0.016620096
FINAL SINGLE POINT ENERGY     -1339.874792184928

DIPOLE MOMENT
-------------
                                X             Y             Z
Electronic contribution:      3.64385       8.39847     -19.44363
Nuclear contribution   :     -3.89463      -8.43176      19.90700
                        -----------------------------------------
Total Dipole Moment    :     -0.25079      -0.03329       0.46337
                        -----------------------------------------
Magnitude (a.u.)       :      0.52793
Magnitude (Debye)      :      1.34190

Rotational constants in cm-1:     0.021465     0.009083     0.008420
Rotational constants in MHz :   643.515610   272.290088   252.429641

                             ****ORCA TERMINATED NORMALLY****
TOTAL RUN TIME: 0 days 0 hours 0 minutes 22 seconds 129 msec
