                         Program Version 4.2.1 -  RELEASE  -
|  1> ! wB97X-D3 SP def2-SVP
|  2> %pal
|  3> nprocs 24
|  4> end
|  5>
|  6> * xyz 0 1
|  7> S 	 -146.468 	 4.68493 	 15.6722
|  8> C 	 -146.192 	 3.20989 	 14.7838
|  9> C 	 -145.422 	 3.46062 	 13.5944
| 10> C 	 -145.166 	 4.85542 	 13.392
| 11> C 	 -145.617 	 5.64423 	 14.4925
| 12> H 	 -144.756 	 5.25572 	 12.4199
| 13> C 	 -145.24 	 2.43334 	 12.5057
| 14> H 	 -145.269 	 1.52147 	 13.0841
| 15> H 	 -144.213 	 2.53715 	 12.1185
| 16> C 	 -146.272 	 2.49701 	 11.3269
| 17> H 	 -147.25 	 2.68681 	 11.7311
| 18> H 	 -146.206 	 3.35978 	 10.6554
| 19> C 	 -146.313 	 1.27859 	 10.3869
| 20> H 	 -147.028 	 1.36693 	 9.56147
| 21> H 	 -145.303 	 0.974551 	 10.0751
| 22> H 	 -146.615 	 0.37895 	 10.9004
| 23> S 	 -143.868 	 7.67925 	 14.9221
| 24> C 	 -144.425 	 9.34967 	 14.6529
| 25> C 	 -145.81 	 9.41075 	 14.5005
| 26> C 	 -146.432 	 8.1269 	 14.4187
| 27> C 	 -145.476 	 7.10051 	 14.5506
| 28> H 	 -146.196 	 10.4144 	 14.3766
| 29> C 	 -147.912 	 7.97992 	 14.3954
| 30> H 	 -148.318 	 8.87472 	 14.8693
| 31> H 	 -148.147 	 7.28277 	 15.1744
| 32> C 	 -148.577 	 7.56918 	 13.105
| 33> H 	 -148.417 	 6.5112 	 12.9709
| 34> H 	 -148.194 	 8.17634 	 12.2759
| 35> C 	 -150.077 	 7.93008 	 13.1814
| 36> H 	 -150.422 	 7.61444 	 12.1952
| 37> H 	 -150.474 	 8.87736 	 13.3958
| 38> H 	 -150.551 	 7.30335 	 13.8461
| 39> H 	 -146.614 	 2.27694 	 15.1393
| 40> H 	 -143.751 	 10.1627 	 14.9623
| 41> *
| 42>
| 43>                          ****END OF INPUT****

CARTESIAN COORDINATES (ANGSTROEM)
---------------------------------
  S    -146.468000    4.684930   15.672200
  C    -146.192000    3.209890   14.783800
  C    -145.422000    3.460620   13.594400
  C    -145.166000    4.855420   13.392000
  C    -145.617000    5.644230   14.492500
  H    -144.756000    5.255720   12.419900
  C    -145.240000    2.433340   12.505700
  H    -145.269000    1.521470   13.084100
  H    -144.213000    2.537150   12.118500
  C    -146.272000    2.497010   11.326900
  H    -147.250000    2.686810   11.731100
  H    -146.206000    3.359780   10.655400
  C    -146.313000    1.278590   10.386900
  H    -147.028000    1.366930    9.561470
  H    -145.303000    0.974551   10.075100
  H    -146.615000    0.378950   10.900400
  S    -143.868000    7.679250   14.922100
  C    -144.425000    9.349670   14.652900
  C    -145.810000    9.410750   14.500500
  C    -146.432000    8.126900   14.418700
  C    -145.476000    7.100510   14.550600
  H    -146.196000   10.414400   14.376600
  C    -147.912000    7.979920   14.395400
  H    -148.318000    8.874720   14.869300
  H    -148.147000    7.282770   15.174400
  C    -148.577000    7.569180   13.105000
  H    -148.417000    6.511200   12.970900
  H    -148.194000    8.176340   12.275900
  C    -150.077000    7.930080   13.181400
  H    -150.422000    7.614440   12.195200
  H    -150.474000    8.877360   13.395800
  H    -150.551000    7.303350   13.846100
  H    -146.614000    2.276940   15.139300
  H    -143.751000   10.162700   14.962300

 Total Charge           Charge          ....    0
 Multiplicity           Mult            ....    1
 Number of Electrons    NEL             ....  134
 Basis Dimension        Dim             ....  322

ORBITAL ENERGIES
----------------

  NO   OCC          E(Eh)            E(eV)
   0   2.0000     -88.972520     -2421.0654
   1   2.0000     -88.963115     -2420.8094
   2   2.0000     -10.331781      -281.1420
   3   2.0000     -10.324707      -280.9496
   4   2.0000     -10.320599      -280.8378
   5   2.0000     -10.317733      -280.7598
   6   2.0000     -10.306454      -280.4529
   7   2.0000     -10.302693      -280.3505
   8   2.0000     -10.302557      -280.3468
   9   2.0000     -10.295353      -280.1508
  10   2.0000     -10.295334      -280.1503
  11   2.0000     -10.289403      -279.9889
  12   2.0000     -10.284180      -279.8468
  13   2.0000     -10.280896      -279.7574
  14   2.0000     -10.279235      -279.7122
  15   2.0000     -10.264753      -279.3181
  16   2.0000      -8.086707      -220.0505
  17   2.0000      -8.077488      -219.7996
  18   2.0000      -6.045057      -164.4944
  19   2.0000      -6.041086      -164.3863
  20   2.0000      -6.037904      -164.2997
  21   2.0000      -6.035851      -164.2438
  22   2.0000      -6.032076      -164.1411
  23   2.0000      -6.028408      -164.0413
  24   2.0000      -0.999399       -27.1950
  25   2.0000      -0.976831       -26.5809
  26   2.0000      -0.912190       -24.8219
  27   2.0000      -0.906087       -24.6559
  28   2.0000      -0.863061       -23.4851
  29   2.0000      -0.852742       -23.2043
  30   2.0000      -0.848506       -23.0890
  31   2.0000      -0.809372       -22.0241
  32   2.0000      -0.782548       -21.2942
  33   2.0000      -0.765886       -20.8408
  34   2.0000      -0.711302       -19.3555
  35   2.0000      -0.706569       -19.2267
  36   2.0000      -0.688739       -18.7415
  37   2.0000      -0.659518       -17.9464
  38   2.0000      -0.638327       -17.3698
  39   2.0000      -0.614642       -16.7252
  40   2.0000      -0.592926       -16.1343
  41   2.0000      -0.566031       -15.4025
  42   2.0000      -0.563915       -15.3449
  43   2.0000      -0.548002       -14.9119
  44   2.0000      -0.532751       -14.4969
  45   2.0000      -0.527526       -14.3547
  46   2.0000      -0.517478       -14.0813
  47   2.0000      -0.508133       -13.8270
  48   2.0000      -0.505592       -13.7579
  49   2.0000      -0.502875       -13.6839
  50   2.0000      -0.483617       -13.1599
  51   2.0000      -0.476946       -12.9784
  52   2.0000      -0.467197       -12.7131
  53   2.0000      -0.464071       -12.6280
  54   2.0000      -0.458103       -12.4656
  55   2.0000      -0.448800       -12.2125
  56   2.0000      -0.443437       -12.0665
  57   2.0000      -0.440245       -11.9797
  58   2.0000      -0.432637       -11.7727
  59   2.0000      -0.427538       -11.6339
  60   2.0000      -0.419119       -11.4048
  61   2.0000      -0.413420       -11.2497
  62   2.0000      -0.410947       -11.1824
  63   2.0000      -0.335169        -9.1204
  64   2.0000      -0.331601        -9.0233
  65   2.0000      -0.320836        -8.7304
  66   2.0000      -0.296375        -8.0648
  67   0.0000       0.032972         0.8972
  68   0.0000       0.056888         1.5480
  69   0.0000       0.106864         2.9079
  70   0.0000       0.112495         3.0611
  71   0.0000       0.123426         3.3586

MULLIKEN ATOMIC CHARGES
-----------------------
   0 S :    0.129986
   1 C :   -0.144927
   2 C :   -0.102540
   3 C :    0.016765
   4 C :   -0.175167
   5 H :    0.047328
   6 C :    0.079212
   7 H :    0.018846
   8 H :    0.032282
   9 C :   -0.050313
  10 H :    0.017465
  11 H :    0.024611
  12 C :   -0.047288
  13 H :    0.041289
  14 H :    0.026527
  15 H :    0.015455
  16 S :    0.109199
  17 C :   -0.121791
  18 C :   -0.048376
  19 C :    0.005340
  20 C :   -0.185000
  21 H :    0.026382
  22 C :    0.070040
  23 H :    0.010309
  24 H :    0.007346
  25 C :   -0.044852
  26 H :    0.042251
  27 H :    0.033174
  28 C :   -0.009628
  29 H :    0.020471
  30 H :    0.025431
  31 H :    0.002399
  32 H :    0.056941
  33 H :    0.070836
Sum of atomic charges:    0.0000000

LOEWDIN ATOMIC CHARGES
----------------------
   0 S :    0.427438
   1 C :   -0.209506
   2 C :   -0.063538
   3 C :   -0.063075
   4 C :   -0.213162
   5 H :    0.045579
   6 C :   -0.032250
   7 H :    0.030292
   8 H :    0.033115
   9 C :   -0.041757
  10 H :    0.021413
  11 H :    0.026390
  12 C :   -0.068989
  13 H :    0.030103
  14 H :    0.026112
  15 H :    0.020163
  16 S :    0.401121
  17 C :   -0.186055
  18 C :   -0.068973
  19 C :   -0.052617
  20 C :   -0.203644
  21 H :    0.034440
  22 C :   -0.041981
  23 H :    0.031692
  24 H :    0.025891
  25 C :   -0.025347
  26 H :    0.030549
  27 H :    0.026564
  28 C :   -0.057830
  29 H :    0.028480
  30 H :    0.019542
  31 H :    0.013467
  32 H :    0.025996
  33 H :    0.030375

  Mayer bond orders larger than 0.100000
B(  0-S ,  1-C ) :   1.1644 B(  0-S ,  4-C ) :   1.1764 B(  1-C ,  2-C ) :   1.5385
B(  1-C ,  4-C ) :   0.1102 B(  1-C , 32-H ) :   0.9722 B(  2-C ,  3-C ) :   1.2833
B(  2-C ,  6-C ) :   1.0456 B(  3-C ,  4-C ) :   1.5286 B(  3-C ,  5-H ) :   0.9829
B(  4-C , 20-C ) :   1.0235 B(  6-C ,  7-H ) :   0.9427 B(  6-C ,  8-H ) :   0.9326
B(  6-C ,  9-C ) :   1.0432 B(  9-C , 10-H ) :   0.9566 B(  9-C , 11-H ) :   0.9548
B(  9-C , 12-C ) :   1.0836 B( 12-C , 13-H ) :   0.9748 B( 12-C , 14-H ) :   0.9742
B( 12-C , 15-H ) :   0.9745 B( 16-S , 17-C ) :   1.1532 B( 16-S , 20-C ) :   1.1679
B( 17-C , 18-C ) :   1.6058 B( 17-C , 20-C ) :   0.1060 B( 17-C , 33-H ) :   0.9626
B( 18-C , 19-C ) :   1.2349 B( 18-C , 21-H ) :   0.9902 B( 19-C , 20-C ) :   1.5692
B( 19-C , 22-C ) :   1.0397 B( 22-C , 23-H ) :   0.9378 B( 22-C , 24-H ) :   0.9207
B( 22-C , 25-C ) :   1.0586 B( 25-C , 26-H ) :   0.9490 B( 25-C , 27-H ) :   0.9635
B( 25-C , 28-C ) :   1.0792 B( 28-C , 29-H ) :   0.9738 B( 28-C , 30-H ) :   0.9793
B( 28-C , 31-H ) :   0.9703

Dispersion correction           -0.014265123
FINAL SINGLE POINT ENERGY     -1339.864173277188

DIPOLE MOMENT
-------------
                                X             Y             Z
Electronic contribution:     16.38055       9.00526      19.31942
Nuclear contribution   :    -16.82156      -9.06403     -19.61141
                        -----------------------------------------
Total Dipole Moment    :     -0.44101      -0.05877      -0.29199
                        -----------------------------------------
Magnitude (a.u.)       :      0.53217
Magnitude (Debye)      :      1.35266

Rotational constants in cm-1:     0.017477     0.008295     0.006935
Rotational constants in MHz :   523.934691   248.685948   207.901386

                             ****ORCA TERMINATED NORMALLY****
TOTAL RUN TIME: 0 days 0 hours 0 minutes 21 seconds 319 msec
