                         Program Version 4.2.1 -  RELEASE  -
|  1> ! wB97X-D3 SP def2-SVP
|  2> %pal
|  3> nprocs 24
|  4> end
|  5>
|  6> * xyz 0 1
|  7> S 	 -108.156 	 18.8184 	 -119.749
|  8> C 	 -108.075 	 20.3846 	 -118.846
|  9> C 	 -107.156 	 20.4203 	 -117.868
| 10> C 	 -106.381 	 19.2343 	 -117.872
| 11> C 	 -106.7 	 18.3212 	 -118.899
| 12> H 	 -105.543 	 19.1298 	 -117.234
| 13> C 	 -106.89 	 21.6356 	 -116.987
| 14> H 	 -107.844 	 22.1854 	 -116.947
| 15> H 	 -106.245 	 22.4224 	 -117.405
| 16> C 	 -106.478 	 21.3358 	 -115.503
| 17> H 	 -105.4 	 21.0928 	 -115.493
| 18> H 	 -106.558 	 22.3012 	 -115.048
| 19> C 	 -107.418 	 20.2527 	 -114.884
| 20> H 	 -107.355 	 19.2998 	 -115.357
| 21> H 	 -107.149 	 20.1348 	 -113.795
| 22> H 	 -108.456 	 20.5654 	 -114.821
| 23> S 	 -105.005 	 17.7115 	 -120.91
| 24> C 	 -104.078 	 16.2287 	 -120.88
| 25> C 	 -104.119 	 15.5974 	 -119.689
| 26> C 	 -105.134 	 16.1813 	 -118.874
| 27> C 	 -105.797 	 17.2839 	 -119.417
| 28> H 	 -103.531 	 14.6925 	 -119.49
| 29> C 	 -105.423 	 15.7172 	 -117.468
| 30> H 	 -105.688 	 14.7062 	 -117.623
| 31> H 	 -106.188 	 16.3172 	 -116.919
| 32> C 	 -104.261 	 15.7343 	 -116.494
| 33> H 	 -103.758 	 16.7031 	 -116.535
| 34> H 	 -103.574 	 15.1117 	 -117.033
| 35> C 	 -104.557 	 15.3329 	 -114.987
| 36> H 	 -103.761 	 15.6158 	 -114.318
| 37> H 	 -104.706 	 14.2492 	 -114.83
| 38> H 	 -105.41 	 15.8574 	 -114.545
| 39> H 	 -108.921 	 20.9934 	 -118.923
| 40> H 	 -103.341 	 15.9082 	 -121.617
| 41> *
| 42>
| 43>                          ****END OF INPUT****

CARTESIAN COORDINATES (ANGSTROEM)
---------------------------------
  S    -108.156000   18.818400  -119.749000
  C    -108.075000   20.384600  -118.846000
  C    -107.156000   20.420300  -117.868000
  C    -106.381000   19.234300  -117.872000
  C    -106.700000   18.321200  -118.899000
  H    -105.543000   19.129800  -117.234000
  C    -106.890000   21.635600  -116.987000
  H    -107.844000   22.185400  -116.947000
  H    -106.245000   22.422400  -117.405000
  C    -106.478000   21.335800  -115.503000
  H    -105.400000   21.092800  -115.493000
  H    -106.558000   22.301200  -115.048000
  C    -107.418000   20.252700  -114.884000
  H    -107.355000   19.299800  -115.357000
  H    -107.149000   20.134800  -113.795000
  H    -108.456000   20.565400  -114.821000
  S    -105.005000   17.711500  -120.910000
  C    -104.078000   16.228700  -120.880000
  C    -104.119000   15.597400  -119.689000
  C    -105.134000   16.181300  -118.874000
  C    -105.797000   17.283900  -119.417000
  H    -103.531000   14.692500  -119.490000
  C    -105.423000   15.717200  -117.468000
  H    -105.688000   14.706200  -117.623000
  H    -106.188000   16.317200  -116.919000
  C    -104.261000   15.734300  -116.494000
  H    -103.758000   16.703100  -116.535000
  H    -103.574000   15.111700  -117.033000
  C    -104.557000   15.332900  -114.987000
  H    -103.761000   15.615800  -114.318000
  H    -104.706000   14.249200  -114.830000
  H    -105.410000   15.857400  -114.545000
  H    -108.921000   20.993400  -118.923000
  H    -103.341000   15.908200  -121.617000

 Total Charge           Charge          ....    0
 Multiplicity           Mult            ....    1
 Number of Electrons    NEL             ....  134
 Basis Dimension        Dim             ....  322

ORBITAL ENERGIES
----------------

  NO   OCC          E(Eh)            E(eV)
   0   2.0000     -88.966008     -2420.8882
   1   2.0000     -88.961277     -2420.7594
   2   2.0000     -10.334829      -281.2250
   3   2.0000     -10.323911      -280.9279
   4   2.0000     -10.314030      -280.6590
   5   2.0000     -10.309885      -280.5462
   6   2.0000     -10.302304      -280.3400
   7   2.0000     -10.299636      -280.2673
   8   2.0000     -10.297726      -280.2154
   9   2.0000     -10.294834      -280.1367
  10   2.0000     -10.294743      -280.1342
  11   2.0000     -10.293209      -280.0925
  12   2.0000     -10.285462      -279.8817
  13   2.0000     -10.284867      -279.8655
  14   2.0000     -10.282225      -279.7936
  15   2.0000     -10.281756      -279.7808
  16   2.0000      -8.080027      -219.8687
  17   2.0000      -8.076417      -219.7705
  18   2.0000      -6.038447      -164.3145
  19   2.0000      -6.034945      -164.2192
  20   2.0000      -6.034837      -164.2163
  21   2.0000      -6.030962      -164.1108
  22   2.0000      -6.030715      -164.1041
  23   2.0000      -6.027009      -164.0032
  24   2.0000      -1.006378       -27.3849
  25   2.0000      -0.984599       -26.7923
  26   2.0000      -0.909538       -24.7498
  27   2.0000      -0.907009       -24.6810
  28   2.0000      -0.870651       -23.6916
  29   2.0000      -0.842669       -22.9302
  30   2.0000      -0.842039       -22.9130
  31   2.0000      -0.816107       -22.2074
  32   2.0000      -0.785962       -21.3871
  33   2.0000      -0.774098       -21.0643
  34   2.0000      -0.712372       -19.3846
  35   2.0000      -0.699953       -19.0467
  36   2.0000      -0.694470       -18.8975
  37   2.0000      -0.658027       -17.9058
  38   2.0000      -0.641918       -17.4675
  39   2.0000      -0.626216       -17.0402
  40   2.0000      -0.594880       -16.1875
  41   2.0000      -0.570537       -15.5251
  42   2.0000      -0.562678       -15.3112
  43   2.0000      -0.549829       -14.9616
  44   2.0000      -0.539422       -14.6784
  45   2.0000      -0.518427       -14.1071
  46   2.0000      -0.515489       -14.0272
  47   2.0000      -0.506635       -13.7863
  48   2.0000      -0.500591       -13.6218
  49   2.0000      -0.498361       -13.5611
  50   2.0000      -0.488867       -13.3027
  51   2.0000      -0.478948       -13.0328
  52   2.0000      -0.473064       -12.8727
  53   2.0000      -0.469061       -12.7638
  54   2.0000      -0.456841       -12.4313
  55   2.0000      -0.455450       -12.3934
  56   2.0000      -0.449806       -12.2399
  57   2.0000      -0.437336       -11.9005
  58   2.0000      -0.431709       -11.7474
  59   2.0000      -0.424635       -11.5549
  60   2.0000      -0.418046       -11.3756
  61   2.0000      -0.417350       -11.3567
  62   2.0000      -0.405387       -11.0311
  63   2.0000      -0.344178        -9.3656
  64   2.0000      -0.333853        -9.0846
  65   2.0000      -0.321978        -8.7615
  66   2.0000      -0.297711        -8.1011
  67   0.0000       0.030835         0.8391
  68   0.0000       0.063096         1.7169
  69   0.0000       0.107934         2.9370
  70   0.0000       0.116641         3.1740
  71   0.0000       0.123762         3.3677

MULLIKEN ATOMIC CHARGES
-----------------------
   0 S :    0.099547
   1 C :   -0.121132
   2 C :   -0.063873
   3 C :    0.066421
   4 C :   -0.170749
   5 H :   -0.004039
   6 C :    0.042120
   7 H :    0.012975
   8 H :    0.050147
   9 C :   -0.079781
  10 H :    0.040831
  11 H :    0.028800
  12 C :   -0.056339
  13 H :    0.045000
  14 H :    0.036602
  15 H :    0.033159
  16 S :    0.105582
  17 C :   -0.079850
  18 C :   -0.043318
  19 C :   -0.061269
  20 C :   -0.134542
  21 H :    0.035554
  22 C :    0.082526
  23 H :    0.017515
  24 H :    0.027743
  25 C :   -0.085623
  26 H :    0.024041
  27 H :    0.006858
  28 C :   -0.042153
  29 H :    0.030577
  30 H :    0.039459
  31 H :    0.030823
  32 H :    0.031456
  33 H :    0.054931
Sum of atomic charges:   -0.0000000

LOEWDIN ATOMIC CHARGES
----------------------
   0 S :    0.378700
   1 C :   -0.159959
   2 C :   -0.066580
   3 C :   -0.047330
   4 C :   -0.193498
   5 H :    0.022685
   6 C :   -0.034535
   7 H :    0.029847
   8 H :    0.036353
   9 C :   -0.039941
  10 H :    0.024974
  11 H :    0.025026
  12 C :   -0.066420
  13 H :    0.022991
  14 H :    0.032618
  15 H :    0.027689
  16 S :    0.410818
  17 C :   -0.178881
  18 C :   -0.080074
  19 C :   -0.054616
  20 C :   -0.205804
  21 H :    0.039444
  22 C :   -0.033346
  23 H :    0.025268
  24 H :    0.029913
  25 C :   -0.042512
  26 H :    0.022120
  27 H :    0.015844
  28 C :   -0.068172
  29 H :    0.026916
  30 H :    0.029391
  31 H :    0.027103
  32 H :    0.011968
  33 H :    0.032003

  Mayer bond orders larger than 0.100000
B(  0-S ,  1-C ) :   1.1254 B(  0-S ,  4-C ) :   1.1584 B(  1-C ,  2-C ) :   1.6389
B(  1-C , 32-H ) :   0.9673 B(  2-C ,  3-C ) :   1.2446 B(  2-C ,  6-C ) :   1.0077
B(  3-C ,  4-C ) :   1.5583 B(  3-C ,  5-H ) :   0.9951 B(  4-C , 20-C ) :   1.0111
B(  6-C ,  7-H ) :   0.9384 B(  6-C ,  8-H ) :   0.9434 B(  6-C ,  9-C ) :   1.0698
B(  9-C , 10-H ) :   0.9548 B(  9-C , 11-H ) :   0.9570 B(  9-C , 12-C ) :   1.0707
B( 12-C , 13-H ) :   0.9726 B( 12-C , 14-H ) :   0.9738 B( 12-C , 15-H ) :   0.9753
B( 16-S , 17-C ) :   1.1617 B( 16-S , 20-C ) :   1.1331 B( 17-C , 18-C ) :   1.6282
B( 17-C , 33-H ) :   0.9598 B( 18-C , 19-C ) :   1.2284 B( 18-C , 21-H ) :   0.9856
B( 19-C , 20-C ) :   1.6178 B( 19-C , 22-C ) :   1.0449 B( 22-C , 23-H ) :   0.9289
B( 22-C , 24-H ) :   0.9428 B( 22-C , 25-C ) :   1.0568 B( 25-C , 26-H ) :   0.9581
B( 25-C , 27-H ) :   0.9551 B( 25-C , 28-C ) :   1.0687 B( 28-C , 29-H ) :   0.9763
B( 28-C , 30-H ) :   0.9774 B( 28-C , 31-H ) :   0.9754

Dispersion correction           -0.014594609
FINAL SINGLE POINT ENERGY     -1339.861312152363

DIPOLE MOMENT
-------------
                                X             Y             Z
Electronic contribution:     -4.95943      -0.19716     -29.49629
Nuclear contribution   :      5.27727       0.36335      30.17311
                        -----------------------------------------
Total Dipole Moment    :      0.31785       0.16618       0.67682
                        -----------------------------------------
Magnitude (a.u.)       :      0.76598
Magnitude (Debye)      :      1.94697

Rotational constants in cm-1:     0.016064     0.010269     0.007104
Rotational constants in MHz :   481.574569   307.866319   212.972109

                             ****ORCA TERMINATED NORMALLY****
TOTAL RUN TIME: 0 days 0 hours 0 minutes 22 seconds 129 msec
