                         Program Version 4.2.1 -  RELEASE  -
|  1> ! wB97X-D3 SP def2-SVP
|  2> %pal
|  3> nprocs 24
|  4> end
|  5>
|  6> * xyz 0 1
|  7> S 	 47.1891 	 -23.6757 	 -117.25
|  8> C 	 45.4626 	 -23.6919 	 -117.293
|  9> C 	 44.8886 	 -22.7025 	 -116.532
| 10> C 	 45.863 	 -21.9695 	 -115.842
| 11> C 	 47.1828 	 -22.3504 	 -116.07
| 12> H 	 45.6899 	 -21.0732 	 -115.216
| 13> C 	 43.4492 	 -22.4 	 -116.544
| 14> H 	 42.9665 	 -22.9152 	 -117.334
| 15> H 	 43.3287 	 -21.3114 	 -116.807
| 16> C 	 42.7808 	 -22.6185 	 -115.133
| 17> H 	 43.086 	 -21.9066 	 -114.461
| 18> H 	 41.6395 	 -22.5079 	 -115.294
| 19> C 	 43.1037 	 -24.0349 	 -114.507
| 20> H 	 43.2163 	 -24.6728 	 -115.352
| 21> H 	 44.0154 	 -24.0686 	 -113.976
| 22> H 	 42.2506 	 -24.2676 	 -113.818
| 23> S 	 49.684 	 -21.4137 	 -116.815
| 24> C 	 50.4284 	 -20.2227 	 -115.83
| 25> C 	 49.8673 	 -20.1751 	 -114.612
| 26> C 	 48.5933 	 -20.842 	 -114.545
| 27> C 	 48.3478 	 -21.5552 	 -115.692
| 28> H 	 50.3258 	 -19.5748 	 -113.786
| 29> C 	 47.8092 	 -21.0005 	 -113.234
| 30> H 	 46.8829 	 -21.4065 	 -113.336
| 31> H 	 47.6107 	 -19.9782 	 -113.031
| 32> C 	 48.6417 	 -21.6461 	 -112.126
| 33> H 	 49.5999 	 -21.1446 	 -112.176
| 34> H 	 48.847 	 -22.6825 	 -112.41
| 35> C 	 48.0362 	 -21.3154 	 -110.737
| 36> H 	 46.9777 	 -21.4653 	 -110.695
| 37> H 	 48.1116 	 -20.2654 	 -110.459
| 38> H 	 48.459 	 -21.8947 	 -109.973
| 39> H 	 44.9207 	 -24.3441 	 -117.86
| 40> H 	 51.4257 	 -19.864 	 -115.96
| 41> *
| 42>
| 43>                          ****END OF INPUT****

CARTESIAN COORDINATES (ANGSTROEM)
---------------------------------
  S     47.189100  -23.675700  -117.250000
  C     45.462600  -23.691900  -117.293000
  C     44.888600  -22.702500  -116.532000
  C     45.863000  -21.969500  -115.842000
  C     47.182800  -22.350400  -116.070000
  H     45.689900  -21.073200  -115.216000
  C     43.449200  -22.400000  -116.544000
  H     42.966500  -22.915200  -117.334000
  H     43.328700  -21.311400  -116.807000
  C     42.780800  -22.618500  -115.133000
  H     43.086000  -21.906600  -114.461000
  H     41.639500  -22.507900  -115.294000
  C     43.103700  -24.034900  -114.507000
  H     43.216300  -24.672800  -115.352000
  H     44.015400  -24.068600  -113.976000
  H     42.250600  -24.267600  -113.818000
  S     49.684000  -21.413700  -116.815000
  C     50.428400  -20.222700  -115.830000
  C     49.867300  -20.175100  -114.612000
  C     48.593300  -20.842000  -114.545000
  C     48.347800  -21.555200  -115.692000
  H     50.325800  -19.574800  -113.786000
  C     47.809200  -21.000500  -113.234000
  H     46.882900  -21.406500  -113.336000
  H     47.610700  -19.978200  -113.031000
  C     48.641700  -21.646100  -112.126000
  H     49.599900  -21.144600  -112.176000
  H     48.847000  -22.682500  -112.410000
  C     48.036200  -21.315400  -110.737000
  H     46.977700  -21.465300  -110.695000
  H     48.111600  -20.265400  -110.459000
  H     48.459000  -21.894700  -109.973000
  H     44.920700  -24.344100  -117.860000
  H     51.425700  -19.864000  -115.960000

 Total Charge           Charge          ....    0
 Multiplicity           Mult            ....    1
 Number of Electrons    NEL             ....  134
 Basis Dimension        Dim             ....  322

ORBITAL ENERGIES
----------------

  NO   OCC          E(Eh)            E(eV)
   0   2.0000     -88.967938     -2420.9407
   1   2.0000     -88.961874     -2420.7757
   2   2.0000     -10.331852      -281.1440
   3   2.0000     -10.325378      -280.9678
   4   2.0000     -10.307919      -280.4927
   5   2.0000     -10.305676      -280.4317
   6   2.0000     -10.300098      -280.2799
   7   2.0000     -10.294987      -280.1408
   8   2.0000     -10.294148      -280.1180
   9   2.0000     -10.293936      -280.1122
  10   2.0000     -10.292237      -280.0660
  11   2.0000     -10.290855      -280.0284
  12   2.0000     -10.287013      -279.9238
  13   2.0000     -10.279921      -279.7309
  14   2.0000     -10.274314      -279.5783
  15   2.0000     -10.274290      -279.5777
  16   2.0000      -8.082540      -219.9371
  17   2.0000      -8.077621      -219.8033
  18   2.0000      -6.041043      -164.3851
  19   2.0000      -6.037082      -164.2773
  20   2.0000      -6.036146      -164.2519
  21   2.0000      -6.033340      -164.1755
  22   2.0000      -6.032182      -164.1440
  23   2.0000      -6.028112      -164.0333
  24   2.0000      -1.011700       -27.5298
  25   2.0000      -0.991518       -26.9806
  26   2.0000      -0.912887       -24.8409
  27   2.0000      -0.911005       -24.7897
  28   2.0000      -0.871809       -23.7231
  29   2.0000      -0.850842       -23.1526
  30   2.0000      -0.843130       -22.9427
  31   2.0000      -0.818100       -22.2616
  32   2.0000      -0.786247       -21.3949
  33   2.0000      -0.776021       -21.1166
  34   2.0000      -0.714401       -19.4398
  35   2.0000      -0.708356       -19.2753
  36   2.0000      -0.697807       -18.9883
  37   2.0000      -0.657697       -17.8968
  38   2.0000      -0.641941       -17.4681
  39   2.0000      -0.624519       -16.9940
  40   2.0000      -0.602388       -16.3918
  41   2.0000      -0.567059       -15.4305
  42   2.0000      -0.561562       -15.2809
  43   2.0000      -0.551973       -15.0200
  44   2.0000      -0.538130       -14.6433
  45   2.0000      -0.528937       -14.3931
  46   2.0000      -0.520065       -14.1517
  47   2.0000      -0.513033       -13.9603
  48   2.0000      -0.504806       -13.7365
  49   2.0000      -0.500022       -13.6063
  50   2.0000      -0.489368       -13.3164
  51   2.0000      -0.481792       -13.1102
  52   2.0000      -0.473860       -12.8944
  53   2.0000      -0.465980       -12.6800
  54   2.0000      -0.463711       -12.6182
  55   2.0000      -0.452738       -12.3196
  56   2.0000      -0.446708       -12.1555
  57   2.0000      -0.443204       -12.0602
  58   2.0000      -0.440368       -11.9830
  59   2.0000      -0.422147       -11.4872
  60   2.0000      -0.420871       -11.4525
  61   2.0000      -0.417945       -11.3729
  62   2.0000      -0.411734       -11.2039
  63   2.0000      -0.361597        -9.8395
  64   2.0000      -0.332758        -9.0548
  65   2.0000      -0.326793        -8.8925
  66   2.0000      -0.285293        -7.7632
  67   0.0000       0.025877         0.7041
  68   0.0000       0.077979         2.1219
  69   0.0000       0.113583         3.0908
  70   0.0000       0.118629         3.2280
  71   0.0000       0.134931         3.6717

MULLIKEN ATOMIC CHARGES
-----------------------
   0 S :    0.106574
   1 C :   -0.087235
   2 C :   -0.077485
   3 C :   -0.011766
   4 C :   -0.127389
   5 H :    0.027829
   6 C :    0.080456
   7 H :    0.008240
   8 H :    0.042512
   9 C :   -0.105258
  10 H :    0.018378
  11 H :    0.044973
  12 C :   -0.030018
  13 H :    0.018204
  14 H :    0.033799
  15 H :    0.048425
  16 S :    0.098399
  17 C :   -0.062406
  18 C :   -0.074249
  19 C :   -0.086065
  20 C :   -0.137199
  21 H :    0.040923
  22 C :    0.118533
  23 H :   -0.012640
  24 H :    0.007640
  25 C :   -0.054844
  26 H :    0.017571
  27 H :    0.041561
  28 C :   -0.013184
  29 H :    0.017685
  30 H :    0.026684
  31 H :    0.025504
  32 H :    0.005956
  33 H :    0.049890
Sum of atomic charges:   -0.0000000

LOEWDIN ATOMIC CHARGES
----------------------
   0 S :    0.402697
   1 C :   -0.185987
   2 C :   -0.067528
   3 C :   -0.063376
   4 C :   -0.183130
   5 H :    0.035139
   6 C :   -0.031422
   7 H :    0.023053
   8 H :    0.042182
   9 C :   -0.033664
  10 H :    0.006855
  11 H :    0.032901
  12 C :   -0.062091
  13 H :    0.019664
  14 H :    0.021142
  15 H :    0.034826
  16 S :    0.405548
  17 C :   -0.193883
  18 C :   -0.075092
  19 C :   -0.059066
  20 C :   -0.192369
  21 H :    0.038853
  22 C :   -0.020297
  23 H :    0.009980
  24 H :    0.027254
  25 C :   -0.030647
  26 H :    0.022699
  27 H :    0.030235
  28 C :   -0.058817
  29 H :    0.020997
  30 H :    0.028584
  31 H :    0.020010
  32 H :    0.006934
  33 H :    0.027814

  Mayer bond orders larger than 0.100000
B(  0-S ,  1-C ) :   1.1444 B(  0-S ,  4-C ) :   1.1427 B(  1-C ,  2-C ) :   1.5832
B(  1-C , 32-H ) :   0.9754 B(  2-C ,  3-C ) :   1.2589 B(  2-C ,  6-C ) :   1.0422
B(  3-C ,  4-C ) :   1.5568 B(  3-C ,  5-H ) :   0.9827 B(  4-C , 20-C ) :   1.0676
B(  6-C ,  7-H ) :   0.9372 B(  6-C ,  8-H ) :   0.9377 B(  6-C ,  9-C ) :   1.0589
B(  9-C , 10-H ) :   0.9603 B(  9-C , 11-H ) :   0.9635 B(  9-C , 12-C ) :   1.0633
B( 12-C , 13-H ) :   0.9810 B( 12-C , 14-H ) :   0.9726 B( 12-C , 15-H ) :   0.9763
B( 16-S , 17-C ) :   1.1462 B( 16-S , 20-C ) :   1.1282 B( 17-C , 18-C ) :   1.6489
B( 17-C , 33-H ) :   0.9613 B( 18-C , 19-C ) :   1.2253 B( 18-C , 21-H ) :   0.9746
B( 19-C , 20-C ) :   1.6162 B( 19-C , 22-C ) :   1.0320 B( 22-C , 23-H ) :   0.9324
B( 22-C , 24-H ) :   0.9250 B( 22-C , 25-C ) :   1.0618 B( 25-C , 26-H ) :   0.9551
B( 25-C , 27-H ) :   0.9590 B( 25-C , 28-C ) :   1.0678 B( 28-C , 29-H ) :   0.9766
B( 28-C , 30-H ) :   0.9742 B( 28-C , 31-H ) :   0.9742

Dispersion correction           -0.014359689
FINAL SINGLE POINT ENERGY     -1339.865331971046

DIPOLE MOMENT
-------------
                                X             Y             Z
Electronic contribution:     17.57241      -1.49005     -23.03227
Nuclear contribution   :    -17.90101       1.75941      23.54084
                        -----------------------------------------
Total Dipole Moment    :     -0.32859       0.26936       0.50857
                        -----------------------------------------
Magnitude (a.u.)       :      0.66270
Magnitude (Debye)      :      1.68446

Rotational constants in cm-1:     0.017304     0.009561     0.006811
Rotational constants in MHz :   518.759264   286.636334   204.176659

                             ****ORCA TERMINATED NORMALLY****
TOTAL RUN TIME: 0 days 0 hours 0 minutes 22 seconds 81 msec
