                         Program Version 4.2.1 -  RELEASE  -
|  1> ! wB97X-D3 SP def2-SVP
|  2> %pal
|  3> nprocs 24
|  4> end
|  5>
|  6> * xyz 0 1
|  7> S 	 -99.1625 	 25.6994 	 -111.61
|  8> C 	 -99.6597 	 24.2819 	 -110.608
|  9> C 	 -100.597 	 24.6334 	 -109.602
| 10> C 	 -100.889 	 25.9929 	 -109.685
| 11> C 	 -100.305 	 26.7171 	 -110.725
| 12> H 	 -101.607 	 26.3982 	 -108.928
| 13> C 	 -101.183 	 23.6094 	 -108.652
| 14> H 	 -100.488 	 23.5956 	 -107.821
| 15> H 	 -101.027 	 22.6782 	 -109.127
| 16> C 	 -102.551 	 23.8992 	 -108.14
| 17> H 	 -102.45 	 24.5857 	 -107.321
| 18> H 	 -103.17 	 24.349 	 -108.876
| 19> C 	 -103.207 	 22.6041 	 -107.645
| 20> H 	 -102.707 	 22.2795 	 -106.759
| 21> H 	 -104.308 	 22.7919 	 -107.406
| 22> H 	 -103.25 	 21.8005 	 -108.429
| 23> S 	 -99.3527 	 29.3823 	 -110.869
| 24> C 	 -100.508 	 30.7095 	 -110.81
| 25> C 	 -101.789 	 30.2399 	 -111.22
| 26> C 	 -101.835 	 28.7883 	 -111.279
| 27> C 	 -100.631 	 28.1314 	 -111.083
| 28> H 	 -102.656 	 30.8574 	 -111.34
| 29> C 	 -103.14 	 28.0335 	 -111.521
| 30> H 	 -103.04 	 26.9364 	 -111.378
| 31> H 	 -103.306 	 28.2497 	 -112.551
| 32> C 	 -104.376 	 28.5582 	 -110.78
| 33> H 	 -104.326 	 29.687 	 -110.84
| 34> H 	 -104.39 	 28.2285 	 -109.792
| 35> C 	 -105.572 	 27.986 	 -111.456
| 36> H 	 -105.539 	 27.005 	 -111.829
| 37> H 	 -105.749 	 28.657 	 -112.258
| 38> H 	 -106.467 	 28.0041 	 -110.821
| 39> H 	 -99.3002 	 23.3289 	 -110.842
| 40> H 	 -100.216 	 31.7379 	 -110.48
| 41> *
| 42>
| 43>                          ****END OF INPUT****

CARTESIAN COORDINATES (ANGSTROEM)
---------------------------------
  S    -99.162500   25.699400  -111.610000
  C    -99.659700   24.281900  -110.608000
  C    -100.597000   24.633400  -109.602000
  C    -100.889000   25.992900  -109.685000
  C    -100.305000   26.717100  -110.725000
  H    -101.607000   26.398200  -108.928000
  C    -101.183000   23.609400  -108.652000
  H    -100.488000   23.595600  -107.821000
  H    -101.027000   22.678200  -109.127000
  C    -102.551000   23.899200  -108.140000
  H    -102.450000   24.585700  -107.321000
  H    -103.170000   24.349000  -108.876000
  C    -103.207000   22.604100  -107.645000
  H    -102.707000   22.279500  -106.759000
  H    -104.308000   22.791900  -107.406000
  H    -103.250000   21.800500  -108.429000
  S    -99.352700   29.382300  -110.869000
  C    -100.508000   30.709500  -110.810000
  C    -101.789000   30.239900  -111.220000
  C    -101.835000   28.788300  -111.279000
  C    -100.631000   28.131400  -111.083000
  H    -102.656000   30.857400  -111.340000
  C    -103.140000   28.033500  -111.521000
  H    -103.040000   26.936400  -111.378000
  H    -103.306000   28.249700  -112.551000
  C    -104.376000   28.558200  -110.780000
  H    -104.326000   29.687000  -110.840000
  H    -104.390000   28.228500  -109.792000
  C    -105.572000   27.986000  -111.456000
  H    -105.539000   27.005000  -111.829000
  H    -105.749000   28.657000  -112.258000
  H    -106.467000   28.004100  -110.821000
  H    -99.300200   23.328900  -110.842000
  H    -100.216000   31.737900  -110.480000

 Total Charge           Charge          ....    0
 Multiplicity           Mult            ....    1
 Number of Electrons    NEL             ....  134
 Basis Dimension        Dim             ....  322

ORBITAL ENERGIES
----------------

  NO   OCC          E(Eh)            E(eV)
   0   2.0000     -88.968145     -2420.9463
   1   2.0000     -88.960092     -2420.7272
   2   2.0000     -10.336031      -281.2577
   3   2.0000     -10.332251      -281.1548
   4   2.0000     -10.328587      -281.0551
   5   2.0000     -10.315077      -280.6875
   6   2.0000     -10.307090      -280.4702
   7   2.0000     -10.302521      -280.3458
   8   2.0000     -10.301337      -280.3136
   9   2.0000     -10.295377      -280.1514
  10   2.0000     -10.288006      -279.9509
  11   2.0000     -10.287781      -279.9448
  12   2.0000     -10.287154      -279.9277
  13   2.0000     -10.284334      -279.8510
  14   2.0000     -10.282221      -279.7935
  15   2.0000     -10.267472      -279.3921
  16   2.0000      -8.081537      -219.9098
  17   2.0000      -8.074226      -219.7108
  18   2.0000      -6.040021      -164.3573
  19   2.0000      -6.036211      -164.2536
  20   2.0000      -6.032874      -164.1628
  21   2.0000      -6.032445      -164.1512
  22   2.0000      -6.028701      -164.0493
  23   2.0000      -6.024981      -163.9481
  24   2.0000      -0.994212       -27.0539
  25   2.0000      -0.974897       -26.5283
  26   2.0000      -0.921835       -25.0844
  27   2.0000      -0.915973       -24.9249
  28   2.0000      -0.863353       -23.4930
  29   2.0000      -0.851729       -23.1767
  30   2.0000      -0.842458       -22.9245
  31   2.0000      -0.810287       -22.0490
  32   2.0000      -0.780857       -21.2482
  33   2.0000      -0.768888       -20.9225
  34   2.0000      -0.714080       -19.4311
  35   2.0000      -0.702330       -19.1114
  36   2.0000      -0.690043       -18.7770
  37   2.0000      -0.658191       -17.9103
  38   2.0000      -0.637124       -17.3370
  39   2.0000      -0.619882       -16.8678
  40   2.0000      -0.596107       -16.2209
  41   2.0000      -0.584425       -15.9030
  42   2.0000      -0.576448       -15.6860
  43   2.0000      -0.561698       -15.2846
  44   2.0000      -0.529698       -14.4138
  45   2.0000      -0.524902       -14.2833
  46   2.0000      -0.513648       -13.9771
  47   2.0000      -0.511424       -13.9166
  48   2.0000      -0.509895       -13.8749
  49   2.0000      -0.490888       -13.3578
  50   2.0000      -0.489812       -13.3285
  51   2.0000      -0.486014       -13.2251
  52   2.0000      -0.472461       -12.8563
  53   2.0000      -0.464857       -12.6494
  54   2.0000      -0.456544       -12.4232
  55   2.0000      -0.449498       -12.2315
  56   2.0000      -0.444966       -12.1081
  57   2.0000      -0.437695       -11.9103
  58   2.0000      -0.434209       -11.8154
  59   2.0000      -0.431278       -11.7357
  60   2.0000      -0.422852       -11.5064
  61   2.0000      -0.418305       -11.3827
  62   2.0000      -0.404528       -11.0078
  63   2.0000      -0.335972        -9.1423
  64   2.0000      -0.332541        -9.0489
  65   2.0000      -0.323670        -8.8075
  66   2.0000      -0.290081        -7.8935
  67   0.0000       0.032491         0.8841
  68   0.0000       0.050649         1.3782
  69   0.0000       0.112154         3.0519
  70   0.0000       0.119998         3.2653
  71   0.0000       0.130227         3.5437

MULLIKEN ATOMIC CHARGES
-----------------------
   0 S :    0.105383
   1 C :   -0.126998
   2 C :   -0.115716
   3 C :    0.015590
   4 C :   -0.148328
   5 H :    0.026138
   6 C :    0.126528
   7 H :    0.035758
   8 H :    0.004173
   9 C :   -0.069038
  10 H :    0.032676
  11 H :    0.027406
  12 C :   -0.068415
  13 H :    0.032360
  14 H :    0.039429
  15 H :    0.042081
  16 S :    0.081504
  17 C :   -0.120106
  18 C :   -0.015279
  19 C :   -0.045220
  20 C :   -0.136807
  21 H :    0.019994
  22 C :    0.038814
  23 H :    0.045370
  24 H :    0.026094
  25 C :   -0.059541
  26 H :    0.031756
  27 H :    0.016772
  28 C :   -0.023114
  29 H :    0.024344
  30 H :    0.019034
  31 H :    0.024157
  32 H :    0.026340
  33 H :    0.086861
Sum of atomic charges:   -0.0000000

LOEWDIN ATOMIC CHARGES
----------------------
   0 S :    0.384490
   1 C :   -0.175325
   2 C :   -0.057486
   3 C :   -0.071191
   4 C :   -0.191377
   5 H :    0.038242
   6 C :   -0.026554
   7 H :    0.039067
   8 H :    0.025316
   9 C :   -0.041021
  10 H :    0.026302
  11 H :    0.019537
  12 C :   -0.062429
  13 H :    0.020811
  14 H :    0.032550
  15 H :    0.029126
  16 S :    0.375311
  17 C :   -0.175984
  18 C :   -0.076708
  19 C :   -0.047122
  20 C :   -0.196108
  21 H :    0.025692
  22 C :   -0.029092
  23 H :    0.034828
  24 H :    0.031049
  25 C :   -0.034704
  26 H :    0.028559
  27 H :    0.013182
  28 C :   -0.060095
  29 H :    0.019832
  30 H :    0.023616
  31 H :    0.026432
  32 H :    0.009927
  33 H :    0.041325

  Mayer bond orders larger than 0.100000
B(  0-S ,  1-C ) :   1.1455 B(  0-S ,  4-C ) :   1.1601 B(  1-C ,  2-C ) :   1.5694
B(  1-C ,  4-C ) :   0.1152 B(  1-C , 32-H ) :   0.9775 B(  2-C ,  3-C ) :   1.2996
B(  2-C ,  6-C ) :   1.0066 B(  3-C ,  4-C ) :   1.5344 B(  3-C ,  5-H ) :   0.9818
B(  4-C , 20-C ) :   1.0099 B(  6-C ,  7-H ) :   0.9185 B(  6-C ,  8-H ) :   0.9428
B(  6-C ,  9-C ) :   1.0679 B(  9-C , 10-H ) :   0.9403 B(  9-C , 11-H ) :   0.9654
B(  9-C , 12-C ) :   1.0909 B( 12-C , 13-H ) :   0.9741 B( 12-C , 14-H ) :   0.9745
B( 12-C , 15-H ) :   0.9778 B( 16-S , 17-C ) :   1.1824 B( 16-S , 20-C ) :   1.1041
B( 17-C , 18-C ) :   1.5702 B( 17-C , 33-H ) :   0.9641 B( 18-C , 19-C ) :   1.2342
B( 18-C , 21-H ) :   0.9896 B( 19-C , 20-C ) :   1.6285 B( 19-C , 22-C ) :   1.0203
B( 22-C , 23-H ) :   0.9412 B( 22-C , 24-H ) :   0.9371 B( 22-C , 25-C ) :   1.0616
B( 25-C , 26-H ) :   0.9569 B( 25-C , 27-H ) :   0.9565 B( 25-C , 28-C ) :   1.0774
B( 28-C , 29-H ) :   0.9731 B( 28-C , 30-H ) :   0.9756 B( 28-C , 31-H ) :   0.9720

Dispersion correction           -0.013709746
FINAL SINGLE POINT ENERGY     -1339.859013798749

DIPOLE MOMENT
-------------
                                X             Y             Z
Electronic contribution:     28.27629      11.96414     -10.36909
Nuclear contribution   :    -29.05923     -12.19041      10.78798
                        -----------------------------------------
Total Dipole Moment    :     -0.78294      -0.22627       0.41889
                        -----------------------------------------
Magnitude (a.u.)       :      0.91634
Magnitude (Debye)      :      2.32914

Rotational constants in cm-1:     0.015719     0.009228     0.006568
Rotational constants in MHz :   471.231547   276.647631   196.907220

                             ****ORCA TERMINATED NORMALLY****
TOTAL RUN TIME: 0 days 0 hours 0 minutes 21 seconds 400 msec
