                         Program Version 4.2.1 -  RELEASE  -
|  1> ! wB97X-D3 SP def2-SVP
|  2> %pal
|  3> nprocs 24
|  4> end
|  5>
|  6> * xyz 0 1
|  7> S 	 -120.028 	 59.5444 	 -39.3187
|  8> C 	 -120.42 	 57.8493 	 -39.577
|  9> C 	 -120.824 	 57.2891 	 -38.3558
| 10> C 	 -120.658 	 58.169 	 -37.244
| 11> C 	 -120.371 	 59.4513 	 -37.6813
| 12> H 	 -120.896 	 58.0682 	 -36.2033
| 13> C 	 -121.265 	 55.8228 	 -38.183
| 14> H 	 -120.596 	 55.3484 	 -37.4303
| 15> H 	 -120.992 	 55.4119 	 -39.1149
| 16> C 	 -122.729 	 55.5825 	 -37.8667
| 17> H 	 -122.989 	 54.6207 	 -38.248
| 18> H 	 -122.806 	 55.5418 	 -36.7
| 19> C 	 -123.705 	 56.6203 	 -38.484
| 20> H 	 -123.736 	 56.705 	 -39.6085
| 21> H 	 -124.742 	 56.3369 	 -38.289
| 22> H 	 -123.562 	 57.5502 	 -37.9442
| 23> S 	 -118.863 	 61.5822 	 -36.6838
| 24> C 	 -119.653 	 62.8286 	 -35.7268
| 25> C 	 -120.982 	 62.523 	 -35.485
| 26> C 	 -121.421 	 61.3596 	 -36.1362
| 27> C 	 -120.355 	 60.6045 	 -36.8212
| 28> H 	 -121.553 	 63.2569 	 -34.8804
| 29> C 	 -122.877 	 60.8432 	 -35.9583
| 30> H 	 -123.155 	 60.0414 	 -36.6425
| 31> H 	 -123.441 	 61.6364 	 -36.3275
| 32> C 	 -123.371 	 60.5695 	 -34.5144
| 33> H 	 -124.443 	 60.2581 	 -34.4776
| 34> H 	 -123.054 	 61.3663 	 -33.8123
| 35> C 	 -122.68 	 59.317 	 -33.9483
| 36> H 	 -122.606 	 58.4611 	 -34.7103
| 37> H 	 -123.161 	 58.9648 	 -32.9979
| 38> H 	 -121.648 	 59.3909 	 -33.7158
| 39> H 	 -120.254 	 57.132 	 -40.3866
| 40> H 	 -119.167 	 63.6228 	 -35.1656
| 41> *
| 42>
| 43>                          ****END OF INPUT****

CARTESIAN COORDINATES (ANGSTROEM)
---------------------------------
  S    -120.028000   59.544400  -39.318700
  C    -120.420000   57.849300  -39.577000
  C    -120.824000   57.289100  -38.355800
  C    -120.658000   58.169000  -37.244000
  C    -120.371000   59.451300  -37.681300
  H    -120.896000   58.068200  -36.203300
  C    -121.265000   55.822800  -38.183000
  H    -120.596000   55.348400  -37.430300
  H    -120.992000   55.411900  -39.114900
  C    -122.729000   55.582500  -37.866700
  H    -122.989000   54.620700  -38.248000
  H    -122.806000   55.541800  -36.700000
  C    -123.705000   56.620300  -38.484000
  H    -123.736000   56.705000  -39.608500
  H    -124.742000   56.336900  -38.289000
  H    -123.562000   57.550200  -37.944200
  S    -118.863000   61.582200  -36.683800
  C    -119.653000   62.828600  -35.726800
  C    -120.982000   62.523000  -35.485000
  C    -121.421000   61.359600  -36.136200
  C    -120.355000   60.604500  -36.821200
  H    -121.553000   63.256900  -34.880400
  C    -122.877000   60.843200  -35.958300
  H    -123.155000   60.041400  -36.642500
  H    -123.441000   61.636400  -36.327500
  C    -123.371000   60.569500  -34.514400
  H    -124.443000   60.258100  -34.477600
  H    -123.054000   61.366300  -33.812300
  C    -122.680000   59.317000  -33.948300
  H    -122.606000   58.461100  -34.710300
  H    -123.161000   58.964800  -32.997900
  H    -121.648000   59.390900  -33.715800
  H    -120.254000   57.132000  -40.386600
  H    -119.167000   63.622800  -35.165600

 Total Charge           Charge          ....    0
 Multiplicity           Mult            ....    1
 Number of Electrons    NEL             ....  134
 Basis Dimension        Dim             ....  322

ORBITAL ENERGIES
----------------

  NO   OCC          E(Eh)            E(eV)
   0   2.0000     -88.970064     -2420.9985
   1   2.0000     -88.969329     -2420.9785
   2   2.0000     -10.335885      -281.2537
   3   2.0000     -10.322747      -280.8962
   4   2.0000     -10.320971      -280.8479
   5   2.0000     -10.317616      -280.7566
   6   2.0000     -10.314556      -280.6733
   7   2.0000     -10.301917      -280.3294
   8   2.0000     -10.298234      -280.2292
   9   2.0000     -10.296469      -280.1812
  10   2.0000     -10.293579      -280.1025
  11   2.0000     -10.290112      -280.0082
  12   2.0000     -10.289530      -279.9923
  13   2.0000     -10.288322      -279.9595
  14   2.0000     -10.280413      -279.7442
  15   2.0000     -10.278823      -279.7010
  16   2.0000      -8.085513      -220.0180
  17   2.0000      -8.082957      -219.9484
  18   2.0000      -6.043976      -164.4650
  19   2.0000      -6.041422      -164.3954
  20   2.0000      -6.039807      -164.3515
  21   2.0000      -6.037370      -164.2852
  22   2.0000      -6.036351      -164.2575
  23   2.0000      -6.034075      -164.1955
  24   2.0000      -1.009393       -27.4670
  25   2.0000      -0.980222       -26.6732
  26   2.0000      -0.911842       -24.8125
  27   2.0000      -0.904932       -24.6245
  28   2.0000      -0.868616       -23.6362
  29   2.0000      -0.846356       -23.0305
  30   2.0000      -0.843731       -22.9591
  31   2.0000      -0.813391       -22.1335
  32   2.0000      -0.785907       -21.3856
  33   2.0000      -0.771476       -20.9929
  34   2.0000      -0.710608       -19.3366
  35   2.0000      -0.693816       -18.8797
  36   2.0000      -0.693030       -18.8583
  37   2.0000      -0.648873       -17.6567
  38   2.0000      -0.638048       -17.3622
  39   2.0000      -0.616912       -16.7870
  40   2.0000      -0.595134       -16.1944
  41   2.0000      -0.567112       -15.4319
  42   2.0000      -0.556089       -15.1319
  43   2.0000      -0.548086       -14.9142
  44   2.0000      -0.546847       -14.8805
  45   2.0000      -0.540999       -14.7213
  46   2.0000      -0.516616       -14.0578
  47   2.0000      -0.510071       -13.8797
  48   2.0000      -0.506268       -13.7763
  49   2.0000      -0.494643       -13.4599
  50   2.0000      -0.483482       -13.1562
  51   2.0000      -0.475604       -12.9418
  52   2.0000      -0.467228       -12.7139
  53   2.0000      -0.459913       -12.5149
  54   2.0000      -0.459368       -12.5000
  55   2.0000      -0.447667       -12.1816
  56   2.0000      -0.441940       -12.0258
  57   2.0000      -0.435875       -11.8608
  58   2.0000      -0.433343       -11.7919
  59   2.0000      -0.421603       -11.4724
  60   2.0000      -0.416070       -11.3218
  61   2.0000      -0.414118       -11.2687
  62   2.0000      -0.412115       -11.2142
  63   2.0000      -0.339952        -9.2506
  64   2.0000      -0.331745        -9.0272
  65   2.0000      -0.328094        -8.9279
  66   2.0000      -0.296425        -8.0661
  67   0.0000       0.027868         0.7583
  68   0.0000       0.060873         1.6564
  69   0.0000       0.116129         3.1600
  70   0.0000       0.120258         3.2724
  71   0.0000       0.122812         3.3419

MULLIKEN ATOMIC CHARGES
-----------------------
   0 S :    0.144971
   1 C :   -0.110230
   2 C :   -0.161127
   3 C :    0.059543
   4 C :   -0.161427
   5 H :   -0.005270
   6 C :    0.114754
   7 H :    0.041899
   8 H :   -0.012237
   9 C :   -0.086196
  10 H :    0.025714
  11 H :    0.043038
  12 C :   -0.053572
  13 H :    0.044637
  14 H :    0.023735
  15 H :    0.043358
  16 S :    0.105749
  17 C :   -0.094466
  18 C :   -0.066645
  19 C :   -0.016420
  20 C :   -0.185052
  21 H :    0.040039
  22 C :    0.088305
  23 H :    0.027911
  24 H :    0.012773
  25 C :   -0.063543
  26 H :    0.049766
  27 H :    0.043489
  28 C :   -0.099489
  29 H :    0.023743
  30 H :    0.038379
  31 H :    0.028879
  32 H :    0.051552
  33 H :    0.063441
Sum of atomic charges:   -0.0000000

LOEWDIN ATOMIC CHARGES
----------------------
   0 S :    0.448975
   1 C :   -0.218078
   2 C :   -0.054757
   3 C :   -0.063289
   4 C :   -0.225338
   5 H :    0.027953
   6 C :   -0.033636
   7 H :    0.037824
   8 H :    0.017414
   9 C :   -0.043011
  10 H :    0.020553
  11 H :    0.034935
  12 C :   -0.072670
  13 H :    0.034357
  14 H :    0.024805
  15 H :    0.025225
  16 S :    0.398726
  17 C :   -0.185209
  18 C :   -0.083523
  19 C :   -0.041202
  20 C :   -0.200115
  21 H :    0.041240
  22 C :   -0.032714
  23 H :    0.031920
  24 H :    0.024766
  25 C :   -0.040693
  26 H :    0.036702
  27 H :    0.030500
  28 C :   -0.079785
  29 H :    0.023650
  30 H :    0.028601
  31 H :    0.015916
  32 H :    0.036283
  33 H :    0.033672

  Mayer bond orders larger than 0.100000
B(  0-S ,  1-C ) :   1.1312 B(  0-S ,  4-C ) :   1.1840 B(  1-C ,  2-C ) :   1.6042
B(  1-C , 32-H ) :   0.9582 B(  2-C ,  3-C ) :   1.2374 B(  2-C ,  6-C ) :   1.0249
B(  3-C ,  4-C ) :   1.5404 B(  3-C ,  5-H ) :   0.9980 B(  4-C , 20-C ) :   1.0560
B(  6-C ,  7-H ) :   0.9467 B(  6-C ,  8-H ) :   0.9269 B(  6-C ,  9-C ) :   1.0616
B(  9-C , 10-H ) :   0.9576 B(  9-C , 11-H ) :   0.9545 B(  9-C , 12-C ) :   1.0908
B( 12-C , 13-H ) :   0.9731 B( 12-C , 14-H ) :   0.9709 B( 12-C , 15-H ) :   0.9657
B( 16-S , 17-C ) :   1.1747 B( 16-S , 20-C ) :   1.1493 B( 17-C , 18-C ) :   1.5856
B( 17-C , 20-C ) :   0.1204 B( 17-C , 33-H ) :   0.9613 B( 18-C , 19-C ) :   1.2825
B( 18-C , 21-H ) :   0.9816 B( 19-C , 20-C ) :   1.5094 B( 19-C , 22-C ) :   1.0311
B( 22-C , 23-H ) :   0.9422 B( 22-C , 24-H ) :   0.9226 B( 22-C , 25-C ) :   1.0763
B( 25-C , 26-H ) :   0.9549 B( 25-C , 27-H ) :   0.9534 B( 25-C , 28-C ) :   1.0599
B( 28-C , 29-H ) :   0.9692 B( 28-C , 30-H ) :   0.9727 B( 28-C , 31-H ) :   0.9772

Dispersion correction           -0.015997483
FINAL SINGLE POINT ENERGY     -1339.856392057175

DIPOLE MOMENT
-------------
                                X             Y             Z
Electronic contribution:     21.99154      16.11442     -10.52582
Nuclear contribution   :    -22.47483     -16.32375      10.87807
                        -----------------------------------------
Total Dipole Moment    :     -0.48329      -0.20933       0.35226
                        -----------------------------------------
Magnitude (a.u.)       :      0.63362
Magnitude (Debye)      :      1.61052

Rotational constants in cm-1:     0.018859     0.010226     0.007402
Rotational constants in MHz :   565.385624   306.573780   221.901609

                             ****ORCA TERMINATED NORMALLY****
TOTAL RUN TIME: 0 days 0 hours 0 minutes 21 seconds 603 msec
