                         Program Version 4.2.1 -  RELEASE  -
|  1> ! wB97X-D3 SP def2-SVP
|  2> %pal
|  3> nprocs 24
|  4> end
|  5>
|  6> * xyz 0 1
|  7> S 	 24.262 	 -2.9968 	 -110.007
|  8> C 	 25.2946 	 -2.32377 	 -111.187
|  9> C 	 24.764 	 -2.46201 	 -112.467
| 10> C 	 23.3781 	 -2.87862 	 -112.408
| 11> C 	 22.9183 	 -3.129 	 -111.114
| 12> H 	 22.6459 	 -2.99329 	 -113.251
| 13> C 	 25.5766 	 -2.38786 	 -113.656
| 14> H 	 26.6389 	 -2.62583 	 -113.35
| 15> H 	 25.5738 	 -1.25964 	 -113.848
| 16> C 	 25.0822 	 -3.11924 	 -114.925
| 17> H 	 24.0927 	 -2.78823 	 -115.167
| 18> H 	 25.7218 	 -2.85396 	 -115.748
| 19> C 	 25.1688 	 -4.61453 	 -114.895
| 20> H 	 26.2683 	 -5.03074 	 -114.902
| 21> H 	 24.8484 	 -4.97861 	 -113.922
| 22> H 	 24.457 	 -4.98415 	 -115.571
| 23> S 	 20.5422 	 -2.94259 	 -109.672
| 24> C 	 19.2087 	 -3.93293 	 -110.238
| 25> C 	 19.5873 	 -4.75788 	 -111.283
| 26> C 	 21.0221 	 -4.7704 	 -111.451
| 27> C 	 21.6617 	 -3.71081 	 -110.784
| 28> H 	 18.848 	 -5.43574 	 -111.741
| 29> C 	 21.5254 	 -5.61313 	 -112.556
| 30> H 	 22.5969 	 -5.49896 	 -112.574
| 31> H 	 21.1059 	 -5.23129 	 -113.471
| 32> C 	 21.3273 	 -7.11996 	 -112.402
| 33> H 	 20.322 	 -7.53782 	 -112.5
| 34> H 	 21.656 	 -7.27948 	 -111.327
| 35> C 	 22.1265 	 -7.92562 	 -113.438
| 36> H 	 22.3912 	 -8.95033 	 -113.083
| 37> H 	 23.0114 	 -7.321 	 -113.707
| 38> H 	 21.516 	 -8.03995 	 -114.359
| 39> H 	 26.2891 	 -2.11982 	 -110.933
| 40> H 	 18.2503 	 -3.66946 	 -109.927
| 41> *
| 42>
| 43>                          ****END OF INPUT****

CARTESIAN COORDINATES (ANGSTROEM)
---------------------------------
  S     24.262000   -2.996800  -110.007000
  C     25.294600   -2.323770  -111.187000
  C     24.764000   -2.462010  -112.467000
  C     23.378100   -2.878620  -112.408000
  C     22.918300   -3.129000  -111.114000
  H     22.645900   -2.993290  -113.251000
  C     25.576600   -2.387860  -113.656000
  H     26.638900   -2.625830  -113.350000
  H     25.573800   -1.259640  -113.848000
  C     25.082200   -3.119240  -114.925000
  H     24.092700   -2.788230  -115.167000
  H     25.721800   -2.853960  -115.748000
  C     25.168800   -4.614530  -114.895000
  H     26.268300   -5.030740  -114.902000
  H     24.848400   -4.978610  -113.922000
  H     24.457000   -4.984150  -115.571000
  S     20.542200   -2.942590  -109.672000
  C     19.208700   -3.932930  -110.238000
  C     19.587300   -4.757880  -111.283000
  C     21.022100   -4.770400  -111.451000
  C     21.661700   -3.710810  -110.784000
  H     18.848000   -5.435740  -111.741000
  C     21.525400   -5.613130  -112.556000
  H     22.596900   -5.498960  -112.574000
  H     21.105900   -5.231290  -113.471000
  C     21.327300   -7.119960  -112.402000
  H     20.322000   -7.537820  -112.500000
  H     21.656000   -7.279480  -111.327000
  C     22.126500   -7.925620  -113.438000
  H     22.391200   -8.950330  -113.083000
  H     23.011400   -7.321000  -113.707000
  H     21.516000   -8.039950  -114.359000
  H     26.289100   -2.119820  -110.933000
  H     18.250300   -3.669460  -109.927000

 Total Charge           Charge          ....    0
 Multiplicity           Mult            ....    1
 Number of Electrons    NEL             ....  134
 Basis Dimension        Dim             ....  322

ORBITAL ENERGIES
----------------

  NO   OCC          E(Eh)            E(eV)
   0   2.0000     -88.962990     -2420.8060
   1   2.0000     -88.961836     -2420.7746
   2   2.0000     -10.325581      -280.9734
   3   2.0000     -10.325211      -280.9633
   4   2.0000     -10.315907      -280.7101
   5   2.0000     -10.305513      -280.4273
   6   2.0000     -10.303106      -280.3618
   7   2.0000     -10.300689      -280.2960
   8   2.0000     -10.300462      -280.2898
   9   2.0000     -10.297469      -280.2084
  10   2.0000     -10.297371      -280.2057
  11   2.0000     -10.288569      -279.9662
  12   2.0000     -10.286325      -279.9051
  13   2.0000     -10.284930      -279.8672
  14   2.0000     -10.283652      -279.8324
  15   2.0000     -10.280147      -279.7370
  16   2.0000      -8.077985      -219.8131
  17   2.0000      -8.077559      -219.8016
  18   2.0000      -6.036476      -164.2609
  19   2.0000      -6.035908      -164.2454
  20   2.0000      -6.032390      -164.1497
  21   2.0000      -6.031918      -164.1368
  22   2.0000      -6.028819      -164.0525
  23   2.0000      -6.028458      -164.0427
  24   2.0000      -1.008049       -27.4304
  25   2.0000      -0.985281       -26.8108
  26   2.0000      -0.919735       -25.0273
  27   2.0000      -0.913615       -24.8607
  28   2.0000      -0.876523       -23.8514
  29   2.0000      -0.853389       -23.2219
  30   2.0000      -0.847933       -23.0734
  31   2.0000      -0.816186       -22.2095
  32   2.0000      -0.781991       -21.2791
  33   2.0000      -0.767948       -20.8969
  34   2.0000      -0.712302       -19.3827
  35   2.0000      -0.695975       -18.9384
  36   2.0000      -0.694649       -18.9024
  37   2.0000      -0.656505       -17.8644
  38   2.0000      -0.641527       -17.4568
  39   2.0000      -0.621475       -16.9112
  40   2.0000      -0.601945       -16.3798
  41   2.0000      -0.573020       -15.5927
  42   2.0000      -0.570235       -15.5169
  43   2.0000      -0.552920       -15.0457
  44   2.0000      -0.539271       -14.6743
  45   2.0000      -0.531505       -14.4630
  46   2.0000      -0.522686       -14.2230
  47   2.0000      -0.515494       -14.0273
  48   2.0000      -0.504606       -13.7310
  49   2.0000      -0.499451       -13.5908
  50   2.0000      -0.492043       -13.3892
  51   2.0000      -0.485141       -13.2014
  52   2.0000      -0.470544       -12.8042
  53   2.0000      -0.465158       -12.6576
  54   2.0000      -0.456447       -12.4206
  55   2.0000      -0.450135       -12.2488
  56   2.0000      -0.437788       -11.9128
  57   2.0000      -0.435834       -11.8596
  58   2.0000      -0.430265       -11.7081
  59   2.0000      -0.429270       -11.6810
  60   2.0000      -0.420437       -11.4407
  61   2.0000      -0.415020       -11.2933
  62   2.0000      -0.411041       -11.1850
  63   2.0000      -0.343349        -9.3430
  64   2.0000      -0.326958        -8.8970
  65   2.0000      -0.320315        -8.7162
  66   2.0000      -0.291734        -7.9385
  67   0.0000       0.028169         0.7665
  68   0.0000       0.064721         1.7611
  69   0.0000       0.107690         2.9304
  70   0.0000       0.118367         3.2209
  71   0.0000       0.129033         3.5112

MULLIKEN ATOMIC CHARGES
-----------------------
   0 S :    0.114148
   1 C :   -0.104251
   2 C :   -0.087822
   3 C :   -0.009524
   4 C :   -0.151592
   5 H :    0.034996
   6 C :    0.012413
   7 H :    0.035266
   8 H :    0.054321
   9 C :   -0.041154
  10 H :    0.021852
  11 H :    0.027326
  12 C :   -0.045008
  13 H :    0.046066
  14 H :    0.022656
  15 H :    0.030353
  16 S :    0.100023
  17 C :   -0.072520
  18 C :   -0.034581
  19 C :   -0.060745
  20 C :   -0.140996
  21 H :    0.040482
  22 C :    0.063742
  23 H :    0.023367
  24 H :    0.031769
  25 C :   -0.110409
  26 H :    0.031109
  27 H :    0.041325
  28 C :   -0.053159
  29 H :    0.048286
  30 H :    0.027960
  31 H :    0.033378
  32 H :    0.029560
  33 H :    0.041360
Sum of atomic charges:   -0.0000000

LOEWDIN ATOMIC CHARGES
----------------------
   0 S :    0.426614
   1 C :   -0.204520
   2 C :   -0.068711
   3 C :   -0.065333
   4 C :   -0.205045
   5 H :    0.038986
   6 C :   -0.045903
   7 H :    0.036991
   8 H :    0.049520
   9 C :   -0.039261
  10 H :    0.021988
  11 H :    0.028282
  12 C :   -0.069173
  13 H :    0.041142
  14 H :    0.019020
  15 H :    0.022349
  16 S :    0.401432
  17 C :   -0.165603
  18 C :   -0.067321
  19 C :   -0.050620
  20 C :   -0.209542
  21 H :    0.038073
  22 C :   -0.038182
  23 H :    0.028364
  24 H :    0.028173
  25 C :   -0.047493
  26 H :    0.020248
  27 H :    0.032688
  28 C :   -0.069111
  29 H :    0.032711
  30 H :    0.023962
  31 H :    0.027374
  32 H :    0.014238
  33 H :    0.013664

  Mayer bond orders larger than 0.100000
B(  0-S ,  1-C ) :   1.1620 B(  0-S ,  4-C ) :   1.1703 B(  1-C ,  2-C ) :   1.5652
B(  1-C , 32-H ) :   0.9807 B(  2-C ,  3-C ) :   1.2492 B(  2-C ,  6-C ) :   1.0236
B(  3-C ,  4-C ) :   1.5435 B(  3-C ,  5-H ) :   0.9868 B(  4-C , 20-C ) :   1.0578
B(  6-C ,  7-H ) :   0.9473 B(  6-C ,  8-H ) :   0.9214 B(  6-C ,  9-C ) :   1.0897
B(  9-C , 10-H ) :   0.9460 B(  9-C , 11-H ) :   0.9488 B(  9-C , 12-C ) :   1.0817
B( 12-C , 13-H ) :   0.9673 B( 12-C , 14-H ) :   0.9738 B( 12-C , 15-H ) :   0.9717
B( 16-S , 17-C ) :   1.1627 B( 16-S , 20-C ) :   1.1304 B( 17-C , 18-C ) :   1.6065
B( 17-C , 33-H ) :   0.9758 B( 18-C , 19-C ) :   1.2222 B( 18-C , 21-H ) :   0.9855
B( 19-C , 20-C ) :   1.5663 B( 19-C , 22-C ) :   1.0745 B( 22-C , 23-H ) :   0.9221
B( 22-C , 24-H ) :   0.9294 B( 22-C , 25-C ) :   1.0567 B( 25-C , 26-H ) :   0.9564
B( 25-C , 27-H ) :   0.9570 B( 25-C , 28-C ) :   1.0758 B( 28-C , 29-H ) :   0.9741
B( 28-C , 30-H ) :   0.9754 B( 28-C , 31-H ) :   0.9747

Dispersion correction           -0.015444161
FINAL SINGLE POINT ENERGY     -1339.859793398252

DIPOLE MOMENT
-------------
                                X             Y             Z
Electronic contribution:     -7.25457      16.44406      25.13265
Nuclear contribution   :      7.26616     -16.73077     -25.90890
                        -----------------------------------------
Total Dipole Moment    :      0.01159      -0.28671      -0.77624
                        -----------------------------------------
Magnitude (a.u.)       :      0.82758
Magnitude (Debye)      :      2.10354

Rotational constants in cm-1:     0.016127     0.010841     0.007405
Rotational constants in MHz :   483.469180   325.005090   221.985530

                             ****ORCA TERMINATED NORMALLY****
TOTAL RUN TIME: 0 days 0 hours 0 minutes 23 seconds 159 msec
