                         Program Version 4.2.1 -  RELEASE  -
|  1> ! wB97X-D3 SP def2-SVP
|  2> %pal
|  3> nprocs 24
|  4> end
|  5>
|  6> * xyz 0 1
|  7> S 	 -38.7871 	 15.6492 	 12.6939
|  8> C 	 -38.4839 	 14.3486 	 13.8318
|  9> C 	 -38.8012 	 14.6912 	 15.1354
| 10> C 	 -39.3088 	 16.0638 	 15.1699
| 11> C 	 -39.4206 	 16.7056 	 13.9186
| 12> H 	 -39.6507 	 16.7014 	 15.9741
| 13> C 	 -38.6389 	 13.703 	 16.359
| 14> H 	 -38.3417 	 14.2376 	 17.2211
| 15> H 	 -37.8297 	 13.0973 	 15.9895
| 16> C 	 -39.9962 	 13.0237 	 16.5774
| 17> H 	 -40.7314 	 13.7992 	 16.7662
| 18> H 	 -40.3311 	 12.4599 	 15.6493
| 19> C 	 -39.9826 	 12.0214 	 17.7312
| 20> H 	 -39.5362 	 11.0841 	 17.3267
| 21> H 	 -39.264 	 12.4389 	 18.4124
| 22> H 	 -40.9453 	 11.9137 	 18.1887
| 23> S 	 -41.4153 	 18.4562 	 14.2271
| 24> C 	 -41.1944 	 20.101 	 13.7102
| 25> C 	 -39.9111 	 20.3061 	 13.2555
| 26> C 	 -39.0781 	 19.1291 	 13.3887
| 27> C 	 -39.7913 	 18.0475 	 13.7341
| 28> H 	 -39.5173 	 21.1994 	 12.8504
| 29> C 	 -37.6188 	 19.1118 	 12.9801
| 30> H 	 -37.6968 	 19.3732 	 11.883
| 31> H 	 -37.2909 	 18.0211 	 13.0331
| 32> C 	 -36.555 	 19.9192 	 13.6996
| 33> H 	 -36.952 	 20.9877 	 13.64
| 34> H 	 -35.6676 	 20.0394 	 13.0532
| 35> C 	 -36.2011 	 19.4783 	 15.1474
| 36> H 	 -37.0352 	 19.5251 	 15.758
| 37> H 	 -35.4671 	 20.1257 	 15.5642
| 38> H 	 -35.92 	 18.5082 	 15.2226
| 39> H 	 -38.1145 	 13.3433 	 13.6224
| 40> H 	 -41.979 	 20.8773 	 13.8455
| 41> *
| 42>
| 43>                          ****END OF INPUT****

CARTESIAN COORDINATES (ANGSTROEM)
---------------------------------
  S    -38.787100   15.649200   12.693900
  C    -38.483900   14.348600   13.831800
  C    -38.801200   14.691200   15.135400
  C    -39.308800   16.063800   15.169900
  C    -39.420600   16.705600   13.918600
  H    -39.650700   16.701400   15.974100
  C    -38.638900   13.703000   16.359000
  H    -38.341700   14.237600   17.221100
  H    -37.829700   13.097300   15.989500
  C    -39.996200   13.023700   16.577400
  H    -40.731400   13.799200   16.766200
  H    -40.331100   12.459900   15.649300
  C    -39.982600   12.021400   17.731200
  H    -39.536200   11.084100   17.326700
  H    -39.264000   12.438900   18.412400
  H    -40.945300   11.913700   18.188700
  S    -41.415300   18.456200   14.227100
  C    -41.194400   20.101000   13.710200
  C    -39.911100   20.306100   13.255500
  C    -39.078100   19.129100   13.388700
  C    -39.791300   18.047500   13.734100
  H    -39.517300   21.199400   12.850400
  C    -37.618800   19.111800   12.980100
  H    -37.696800   19.373200   11.883000
  H    -37.290900   18.021100   13.033100
  C    -36.555000   19.919200   13.699600
  H    -36.952000   20.987700   13.640000
  H    -35.667600   20.039400   13.053200
  C    -36.201100   19.478300   15.147400
  H    -37.035200   19.525100   15.758000
  H    -35.467100   20.125700   15.564200
  H    -35.920000   18.508200   15.222600
  H    -38.114500   13.343300   13.622400
  H    -41.979000   20.877300   13.845500

 Total Charge           Charge          ....    0
 Multiplicity           Mult            ....    1
 Number of Electrons    NEL             ....  134
 Basis Dimension        Dim             ....  322

ORBITAL ENERGIES
----------------

  NO   OCC          E(Eh)            E(eV)
   0   2.0000     -88.967821     -2420.9375
   1   2.0000     -88.961902     -2420.7764
   2   2.0000     -10.323173      -280.9078
   3   2.0000     -10.320736      -280.8415
   4   2.0000     -10.315348      -280.6949
   5   2.0000     -10.315089      -280.6879
   6   2.0000     -10.308255      -280.5019
   7   2.0000     -10.297642      -280.2131
   8   2.0000     -10.296801      -280.1902
   9   2.0000     -10.296580      -280.1842
  10   2.0000     -10.294872      -280.1377
  11   2.0000     -10.292981      -280.0863
  12   2.0000     -10.292340      -280.0688
  13   2.0000     -10.288159      -279.9550
  14   2.0000     -10.275518      -279.6111
  15   2.0000     -10.261914      -279.2409
  16   2.0000      -8.081956      -219.9212
  17   2.0000      -8.077370      -219.7964
  18   2.0000      -6.040549      -164.3717
  19   2.0000      -6.036383      -164.2583
  20   2.0000      -6.035911      -164.2455
  21   2.0000      -6.032812      -164.1612
  22   2.0000      -6.031818      -164.1341
  23   2.0000      -6.028000      -164.0302
  24   2.0000      -1.011263       -27.5179
  25   2.0000      -0.981808       -26.7163
  26   2.0000      -0.912807       -24.8387
  27   2.0000      -0.904976       -24.6257
  28   2.0000      -0.875607       -23.8265
  29   2.0000      -0.851384       -23.1673
  30   2.0000      -0.843150       -22.9433
  31   2.0000      -0.810230       -22.0475
  32   2.0000      -0.787813       -21.4375
  33   2.0000      -0.775666       -21.1070
  34   2.0000      -0.709603       -19.3093
  35   2.0000      -0.697027       -18.9671
  36   2.0000      -0.691173       -18.8078
  37   2.0000      -0.667469       -18.1628
  38   2.0000      -0.641459       -17.4550
  39   2.0000      -0.605409       -16.4740
  40   2.0000      -0.590808       -16.0767
  41   2.0000      -0.575757       -15.6672
  42   2.0000      -0.560120       -15.2416
  43   2.0000      -0.552202       -15.0262
  44   2.0000      -0.541608       -14.7379
  45   2.0000      -0.532207       -14.4821
  46   2.0000      -0.519242       -14.1293
  47   2.0000      -0.510058       -13.8794
  48   2.0000      -0.503355       -13.6970
  49   2.0000      -0.501335       -13.6420
  50   2.0000      -0.493405       -13.4262
  51   2.0000      -0.481820       -13.1110
  52   2.0000      -0.470044       -12.7905
  53   2.0000      -0.467286       -12.7155
  54   2.0000      -0.459487       -12.5033
  55   2.0000      -0.449383       -12.2283
  56   2.0000      -0.442041       -12.0285
  57   2.0000      -0.439509       -11.9597
  58   2.0000      -0.433137       -11.7863
  59   2.0000      -0.422362       -11.4931
  60   2.0000      -0.421386       -11.4665
  61   2.0000      -0.415744       -11.3130
  62   2.0000      -0.402766       -10.9598
  63   2.0000      -0.339894        -9.2490
  64   2.0000      -0.330822        -9.0021
  65   2.0000      -0.326231        -8.8772
  66   2.0000      -0.298584        -8.1249
  67   0.0000       0.038595         1.0502
  68   0.0000       0.067853         1.8464
  69   0.0000       0.110249         3.0000
  70   0.0000       0.121234         3.2989
  71   0.0000       0.127161         3.4602

MULLIKEN ATOMIC CHARGES
-----------------------
   0 S :    0.124891
   1 C :   -0.120621
   2 C :   -0.111016
   3 C :    0.035346
   4 C :   -0.194477
   5 H :    0.005747
   6 C :    0.109251
   7 H :    0.021862
   8 H :    0.022718
   9 C :   -0.122748
  10 H :    0.031702
  11 H :    0.038759
  12 C :   -0.001752
  13 H :    0.036555
  14 H :    0.015425
  15 H :    0.041049
  16 S :    0.104982
  17 C :   -0.096965
  18 C :   -0.003549
  19 C :   -0.013157
  20 C :   -0.185018
  21 H :    0.001699
  22 C :   -0.005387
  23 H :    0.048302
  24 H :    0.034670
  25 C :   -0.079349
  26 H :    0.017347
  27 H :    0.031520
  28 C :    0.043717
  29 H :    0.012515
  30 H :    0.027308
  31 H :    0.007580
  32 H :    0.047002
  33 H :    0.074095
Sum of atomic charges:   -0.0000000

LOEWDIN ATOMIC CHARGES
----------------------
   0 S :    0.418852
   1 C :   -0.205095
   2 C :   -0.055488
   3 C :   -0.065132
   4 C :   -0.209890
   5 H :    0.025203
   6 C :   -0.017650
   7 H :    0.024884
   8 H :    0.027998
   9 C :   -0.044467
  10 H :    0.023812
  11 H :    0.029923
  12 C :   -0.063600
  13 H :    0.031068
  14 H :    0.020159
  15 H :    0.025215
  16 S :    0.409540
  17 C :   -0.187554
  18 C :   -0.064831
  19 C :   -0.056994
  20 C :   -0.206568
  21 H :    0.022900
  22 C :   -0.046817
  23 H :    0.043031
  24 H :    0.027856
  25 C :   -0.045214
  26 H :    0.024800
  27 H :    0.027958
  28 C :   -0.046122
  29 H :    0.021451
  30 H :    0.027555
  31 H :    0.014785
  32 H :    0.030896
  33 H :    0.037538

  Mayer bond orders larger than 0.100000
B(  0-S ,  1-C ) :   1.1420 B(  0-S ,  4-C ) :   1.1394 B(  1-C ,  2-C ) :   1.6277
B(  1-C , 32-H ) :   0.9608 B(  2-C ,  3-C ) :   1.2218 B(  2-C ,  6-C ) :   1.0070
B(  3-C ,  4-C ) :   1.5846 B(  3-C ,  5-H ) :   0.9894 B(  4-C , 20-C ) :   1.0352
B(  6-C ,  7-H ) :   0.9365 B(  6-C ,  8-H ) :   0.9420 B(  6-C ,  9-C ) :   1.0662
B(  9-C , 10-H ) :   0.9581 B(  9-C , 11-H ) :   0.9603 B(  9-C , 12-C ) :   1.0724
B( 12-C , 13-H ) :   0.9766 B( 12-C , 14-H ) :   0.9729 B( 12-C , 15-H ) :   0.9753
B( 16-S , 17-C ) :   1.1498 B( 16-S , 20-C ) :   1.1252 B( 17-C , 18-C ) :   1.6069
B( 17-C , 33-H ) :   0.9649 B( 18-C , 19-C ) :   1.2115 B( 18-C , 21-H ) :   0.9960
B( 19-C , 20-C ) :   1.6342 B( 19-C , 22-C ) :   1.0309 B( 22-C , 23-H ) :   0.9344
B( 22-C , 24-H ) :   0.9324 B( 22-C , 25-C ) :   1.0799 B( 25-C , 26-H ) :   0.9529
B( 25-C , 27-H ) :   0.9528 B( 25-C , 28-C ) :   1.0641 B( 28-C , 29-H ) :   0.9723
B( 28-C , 30-H ) :   0.9720 B( 28-C , 31-H ) :   0.9725

Dispersion correction           -0.014353698
FINAL SINGLE POINT ENERGY     -1339.867753238520

DIPOLE MOMENT
-------------
                                X             Y             Z
Electronic contribution:    -12.15208       6.38283     -14.17674
Nuclear contribution   :     12.45618      -6.33699      14.53264
                        -----------------------------------------
Total Dipole Moment    :      0.30410       0.04585       0.35590
                        -----------------------------------------
Magnitude (a.u.)       :      0.47036
Magnitude (Debye)      :      1.19557

Rotational constants in cm-1:     0.020693     0.007706     0.006875
Rotational constants in MHz :   620.355910   231.007042   206.101537

                             ****ORCA TERMINATED NORMALLY****
TOTAL RUN TIME: 0 days 0 hours 0 minutes 21 seconds 325 msec
