                         Program Version 4.2.1 -  RELEASE  -
|  1> ! wB97X-D3 SP def2-SVP
|  2> %pal
|  3> nprocs 24
|  4> end
|  5>
|  6> * xyz 0 1
|  7> S 	 -42.6393 	 15.7179 	 28.1747
|  8> C 	 -43.2678 	 17.0453 	 27.2028
|  9> C 	 -43.8451 	 18.0263 	 27.9465
| 10> C 	 -43.7868 	 17.6851 	 29.377
| 11> C 	 -43.1575 	 16.4914 	 29.6771
| 12> H 	 -44.2352 	 18.201 	 30.2558
| 13> C 	 -44.5386 	 19.304 	 27.359
| 14> H 	 -45.2041 	 19.7478 	 28.0791
| 15> H 	 -45.1728 	 19.059 	 26.4737
| 16> C 	 -43.6562 	 20.4632 	 27.0942
| 17> H 	 -42.9521 	 20.1749 	 26.3119
| 18> H 	 -44.1381 	 21.3097 	 26.6221
| 19> C 	 -42.8291 	 20.9 	 28.3171
| 20> H 	 -42.1427 	 20.173 	 28.7132
| 21> H 	 -42.2293 	 21.7976 	 28.1714
| 22> H 	 -43.5037 	 21.2279 	 29.1858
| 23> S 	 -43.1437 	 14.0674 	 31.0473
| 24> C 	 -43.2017 	 14.0772 	 32.8254
| 25> C 	 -42.8671 	 15.382 	 33.3131
| 26> C 	 -42.8543 	 16.322 	 32.226
| 27> C 	 -43.0765 	 15.818 	 30.9733
| 28> H 	 -42.6762 	 15.589 	 34.3432
| 29> C 	 -42.5494 	 17.8047 	 32.5596
| 30> H 	 -42.7038 	 18.3913 	 31.6701
| 31> H 	 -41.4495 	 17.9064 	 32.6969
| 32> C 	 -43.3558 	 18.589 	 33.6991
| 33> H 	 -43.0267 	 18.2297 	 34.7576
| 34> H 	 -44.3947 	 18.3108 	 33.6905
| 35> C 	 -43.1292 	 20.1156 	 33.5988
| 36> H 	 -42.1569 	 20.4859 	 33.7653
| 37> H 	 -43.6614 	 20.6853 	 34.3381
| 38> H 	 -43.3975 	 20.4322 	 32.5856
| 39> H 	 -43.2159 	 16.8442 	 26.1592
| 40> H 	 -43.3325 	 13.1969 	 33.4494
| 41> *
| 42>
| 43>                          ****END OF INPUT****

CARTESIAN COORDINATES (ANGSTROEM)
---------------------------------
  S    -42.639300   15.717900   28.174700
  C    -43.267800   17.045300   27.202800
  C    -43.845100   18.026300   27.946500
  C    -43.786800   17.685100   29.377000
  C    -43.157500   16.491400   29.677100
  H    -44.235200   18.201000   30.255800
  C    -44.538600   19.304000   27.359000
  H    -45.204100   19.747800   28.079100
  H    -45.172800   19.059000   26.473700
  C    -43.656200   20.463200   27.094200
  H    -42.952100   20.174900   26.311900
  H    -44.138100   21.309700   26.622100
  C    -42.829100   20.900000   28.317100
  H    -42.142700   20.173000   28.713200
  H    -42.229300   21.797600   28.171400
  H    -43.503700   21.227900   29.185800
  S    -43.143700   14.067400   31.047300
  C    -43.201700   14.077200   32.825400
  C    -42.867100   15.382000   33.313100
  C    -42.854300   16.322000   32.226000
  C    -43.076500   15.818000   30.973300
  H    -42.676200   15.589000   34.343200
  C    -42.549400   17.804700   32.559600
  H    -42.703800   18.391300   31.670100
  H    -41.449500   17.906400   32.696900
  C    -43.355800   18.589000   33.699100
  H    -43.026700   18.229700   34.757600
  H    -44.394700   18.310800   33.690500
  C    -43.129200   20.115600   33.598800
  H    -42.156900   20.485900   33.765300
  H    -43.661400   20.685300   34.338100
  H    -43.397500   20.432200   32.585600
  H    -43.215900   16.844200   26.159200
  H    -43.332500   13.196900   33.449400

 Total Charge           Charge          ....    0
 Multiplicity           Mult            ....    1
 Number of Electrons    NEL             ....  134
 Basis Dimension        Dim             ....  322

ORBITAL ENERGIES
----------------

  NO   OCC          E(Eh)            E(eV)
   0   2.0000     -88.968212     -2420.9481
   1   2.0000     -88.962521     -2420.7933
   2   2.0000     -10.333528      -281.1896
   3   2.0000     -10.329367      -281.0764
   4   2.0000     -10.328875      -281.0630
   5   2.0000     -10.316056      -280.7141
   6   2.0000     -10.313668      -280.6492
   7   2.0000     -10.306581      -280.4563
   8   2.0000     -10.302033      -280.3326
   9   2.0000     -10.301883      -280.3285
  10   2.0000     -10.301534      -280.3190
  11   2.0000     -10.296280      -280.1760
  12   2.0000     -10.296089      -280.1708
  13   2.0000     -10.283833      -279.8373
  14   2.0000     -10.279836      -279.7285
  15   2.0000     -10.278007      -279.6788
  16   2.0000      -8.082381      -219.9328
  17   2.0000      -8.077472      -219.7992
  18   2.0000      -6.041022      -164.3846
  19   2.0000      -6.037053      -164.2766
  20   2.0000      -6.036104      -164.2507
  21   2.0000      -6.032950      -164.1649
  22   2.0000      -6.031981      -164.1386
  23   2.0000      -6.028068      -164.0321
  24   2.0000      -1.003934       -27.3184
  25   2.0000      -0.980205       -26.6727
  26   2.0000      -0.914960       -24.8973
  27   2.0000      -0.897063       -24.4103
  28   2.0000      -0.869796       -23.6684
  29   2.0000      -0.851087       -23.1592
  30   2.0000      -0.837303       -22.7842
  31   2.0000      -0.813236       -22.1293
  32   2.0000      -0.783890       -21.3307
  33   2.0000      -0.774110       -21.0646
  34   2.0000      -0.707568       -19.2539
  35   2.0000      -0.701257       -19.0822
  36   2.0000      -0.696210       -18.9448
  37   2.0000      -0.666734       -18.1427
  38   2.0000      -0.649016       -17.6606
  39   2.0000      -0.609719       -16.5913
  40   2.0000      -0.592228       -16.1154
  41   2.0000      -0.575060       -15.6482
  42   2.0000      -0.557221       -15.1627
  43   2.0000      -0.553312       -15.0564
  44   2.0000      -0.544434       -14.8148
  45   2.0000      -0.522773       -14.2254
  46   2.0000      -0.513835       -13.9822
  47   2.0000      -0.513095       -13.9620
  48   2.0000      -0.502625       -13.6771
  49   2.0000      -0.496367       -13.5068
  50   2.0000      -0.489826       -13.3288
  51   2.0000      -0.474542       -12.9129
  52   2.0000      -0.471406       -12.8276
  53   2.0000      -0.467441       -12.7197
  54   2.0000      -0.457557       -12.4508
  55   2.0000      -0.450258       -12.2521
  56   2.0000      -0.444187       -12.0870
  57   2.0000      -0.437534       -11.9059
  58   2.0000      -0.433957       -11.8086
  59   2.0000      -0.425234       -11.5712
  60   2.0000      -0.420580       -11.4446
  61   2.0000      -0.412155       -11.2153
  62   2.0000      -0.405683       -11.0392
  63   2.0000      -0.358302        -9.7499
  64   2.0000      -0.333438        -9.0733
  65   2.0000      -0.328444        -8.9374
  66   2.0000      -0.289049        -7.8654
  67   0.0000       0.023136         0.6296
  68   0.0000       0.069765         1.8984
  69   0.0000       0.102896         2.7999
  70   0.0000       0.113501         3.0885
  71   0.0000       0.124603         3.3906

MULLIKEN ATOMIC CHARGES
-----------------------
   0 S :    0.079009
   1 C :   -0.133049
   2 C :   -0.049332
   3 C :   -0.006128
   4 C :   -0.145009
   5 H :    0.034282
   6 C :    0.080506
   7 H :    0.013314
   8 H :    0.041593
   9 C :   -0.044553
  10 H :    0.016274
  11 H :    0.028819
  12 C :   -0.087853
  13 H :    0.048600
  14 H :    0.030088
  15 H :    0.024649
  16 S :    0.100503
  17 C :   -0.104660
  18 C :   -0.010633
  19 C :   -0.061280
  20 C :   -0.111782
  21 H :    0.020650
  22 C :    0.049712
  23 H :   -0.008627
  24 H :    0.045383
  25 C :   -0.083886
  26 H :    0.032667
  27 H :    0.034764
  28 C :   -0.027905
  29 H :    0.019700
  30 H :    0.028308
  31 H :    0.028394
  32 H :    0.049557
  33 H :    0.067923
Sum of atomic charges:   -0.0000000

LOEWDIN ATOMIC CHARGES
----------------------
   0 S :    0.378542
   1 C :   -0.175396
   2 C :   -0.057338
   3 C :   -0.070271
   4 C :   -0.181199
   5 H :    0.037887
   6 C :   -0.030188
   7 H :    0.027183
   8 H :    0.037874
   9 C :   -0.046127
  10 H :    0.021132
  11 H :    0.026327
  12 C :   -0.072335
  13 H :    0.025050
  14 H :    0.026149
  15 H :    0.026937
  16 S :    0.394983
  17 C :   -0.172423
  18 C :   -0.059978
  19 C :   -0.059241
  20 C :   -0.199326
  21 H :    0.029719
  22 C :   -0.037419
  23 H :    0.019183
  24 H :    0.039677
  25 C :   -0.040197
  26 H :    0.026649
  27 H :    0.022012
  28 C :   -0.064045
  29 H :    0.021093
  30 H :    0.027132
  31 H :    0.025372
  32 H :    0.021827
  33 H :    0.030754

  Mayer bond orders larger than 0.100000
B(  0-S ,  1-C ) :   1.1320 B(  0-S ,  4-C ) :   1.1290 B(  1-C ,  2-C ) :   1.6282
B(  1-C , 32-H ) :   0.9800 B(  2-C ,  3-C ) :   1.2036 B(  2-C ,  6-C ) :   1.0068
B(  3-C ,  4-C ) :   1.6157 B(  3-C ,  5-H ) :   0.9783 B(  4-C , 20-C ) :   1.0578
B(  6-C ,  7-H ) :   0.9425 B(  6-C ,  8-H ) :   0.9452 B(  6-C ,  9-C ) :   1.0788
B(  9-C , 10-H ) :   0.9490 B(  9-C , 11-H ) :   0.9541 B(  9-C , 12-C ) :   1.0731
B( 12-C , 13-H ) :   0.9734 B( 12-C , 14-H ) :   0.9728 B( 12-C , 15-H ) :   0.9738
B( 16-S , 17-C ) :   1.1621 B( 16-S , 20-C ) :   1.1184 B( 17-C , 18-C ) :   1.5761
B( 17-C , 20-C ) :   0.1002 B( 17-C , 33-H ) :   0.9702 B( 18-C , 19-C ) :   1.2474
B( 18-C , 21-H ) :   0.9972 B( 19-C , 20-C ) :   1.6016 B( 19-C , 22-C ) :   1.0387
B( 22-C , 23-H ) :   0.9390 B( 22-C , 24-H ) :   0.9309 B( 22-C , 25-C ) :   1.0405
B( 25-C , 26-H ) :   0.9530 B( 25-C , 27-H ) :   0.9623 B( 25-C , 28-C ) :   1.0774
B( 28-C , 29-H ) :   0.9756 B( 28-C , 30-H ) :   0.9726 B( 28-C , 31-H ) :   0.9748

Dispersion correction           -0.014399890
FINAL SINGLE POINT ENERGY     -1339.871863225503

DIPOLE MOMENT
-------------
                                X             Y             Z
Electronic contribution:      1.90989     -31.61879      -6.28746
Nuclear contribution   :     -2.02056      32.24075       6.52803
                        -----------------------------------------
Total Dipole Moment    :     -0.11067       0.62196       0.24057
                        -----------------------------------------
Magnitude (a.u.)       :      0.67598
Magnitude (Debye)      :      1.71822

Rotational constants in cm-1:     0.016505     0.009981     0.006511
Rotational constants in MHz :   494.800077   299.208345   195.188795

                             ****ORCA TERMINATED NORMALLY****
TOTAL RUN TIME: 0 days 0 hours 0 minutes 21 seconds 922 msec
