                         Program Version 4.2.1 -  RELEASE  -
|  1> ! wB97X-D3 SP def2-SVP
|  2> %pal
|  3> nprocs 24
|  4> end
|  5>
|  6> * xyz 0 1
|  7> S 	 -107.024 	 36.2624 	 -17.4279
|  8> C 	 -106.138 	 35.2818 	 -16.2754
|  9> C 	 -105.353 	 34.2972 	 -16.846
| 10> C 	 -105.442 	 34.4169 	 -18.2689
| 11> C 	 -106.274 	 35.3616 	 -18.7455
| 12> H 	 -104.946 	 33.713 	 -18.9662
| 13> C 	 -104.584 	 33.1727 	 -16.1616
| 14> H 	 -104.953 	 32.2275 	 -16.5809
| 15> H 	 -104.898 	 32.9835 	 -15.1497
| 16> C 	 -103.073 	 33.365 	 -16.2758
| 17> H 	 -102.797 	 33.1242 	 -17.3624
| 18> H 	 -102.865 	 34.42 	 -16.1271
| 19> C 	 -102.27 	 32.6416 	 -15.1777
| 20> H 	 -101.228 	 32.536 	 -15.4319
| 21> H 	 -102.475 	 33.3063 	 -14.2651
| 22> H 	 -102.782 	 31.6433 	 -15.0642
| 23> S 	 -107.469 	 36.8502 	 -20.6975
| 24> C 	 -107.247 	 36.6901 	 -22.3174
| 25> C 	 -106.437 	 35.5717 	 -22.5768
| 26> C 	 -106.013 	 34.9024 	 -21.3671
| 27> C 	 -106.455 	 35.526 	 -20.1989
| 28> H 	 -106.254 	 35.2113 	 -23.5364
| 29> C 	 -105.038 	 33.8104 	 -21.5394
| 30> H 	 -105.194 	 33.2165 	 -22.4941
| 31> H 	 -105.359 	 33.1529 	 -20.7847
| 32> C 	 -103.578 	 34.2816 	 -21.4612
| 33> H 	 -103.455 	 35.0318 	 -20.7143
| 34> H 	 -103.224 	 34.8067 	 -22.3883
| 35> C 	 -102.677 	 33.1788 	 -20.9949
| 36> H 	 -101.695 	 33.5336 	 -21.1229
| 37> H 	 -102.908 	 32.2944 	 -21.6195
| 38> H 	 -102.829 	 32.8084 	 -19.95
| 39> H 	 -106.378 	 35.3404 	 -15.2323
| 40> H 	 -107.791 	 37.2291 	 -23.1678
| 41> *
| 42>
| 43>                          ****END OF INPUT****

CARTESIAN COORDINATES (ANGSTROEM)
---------------------------------
  S    -107.024000   36.262400  -17.427900
  C    -106.138000   35.281800  -16.275400
  C    -105.353000   34.297200  -16.846000
  C    -105.442000   34.416900  -18.268900
  C    -106.274000   35.361600  -18.745500
  H    -104.946000   33.713000  -18.966200
  C    -104.584000   33.172700  -16.161600
  H    -104.953000   32.227500  -16.580900
  H    -104.898000   32.983500  -15.149700
  C    -103.073000   33.365000  -16.275800
  H    -102.797000   33.124200  -17.362400
  H    -102.865000   34.420000  -16.127100
  C    -102.270000   32.641600  -15.177700
  H    -101.228000   32.536000  -15.431900
  H    -102.475000   33.306300  -14.265100
  H    -102.782000   31.643300  -15.064200
  S    -107.469000   36.850200  -20.697500
  C    -107.247000   36.690100  -22.317400
  C    -106.437000   35.571700  -22.576800
  C    -106.013000   34.902400  -21.367100
  C    -106.455000   35.526000  -20.198900
  H    -106.254000   35.211300  -23.536400
  C    -105.038000   33.810400  -21.539400
  H    -105.194000   33.216500  -22.494100
  H    -105.359000   33.152900  -20.784700
  C    -103.578000   34.281600  -21.461200
  H    -103.455000   35.031800  -20.714300
  H    -103.224000   34.806700  -22.388300
  C    -102.677000   33.178800  -20.994900
  H    -101.695000   33.533600  -21.122900
  H    -102.908000   32.294400  -21.619500
  H    -102.829000   32.808400  -19.950000
  H    -106.378000   35.340400  -15.232300
  H    -107.791000   37.229100  -23.167800

 Total Charge           Charge          ....    0
 Multiplicity           Mult            ....    1
 Number of Electrons    NEL             ....  134
 Basis Dimension        Dim             ....  322

ORBITAL ENERGIES
----------------

  NO   OCC          E(Eh)            E(eV)
   0   2.0000     -88.969960     -2420.9957
   1   2.0000     -88.961964     -2420.7781
   2   2.0000     -10.330989      -281.1205
   3   2.0000     -10.329086      -281.0687
   4   2.0000     -10.315801      -280.7072
   5   2.0000     -10.313952      -280.6569
   6   2.0000     -10.303815      -280.3811
   7   2.0000     -10.300863      -280.3007
   8   2.0000     -10.295027      -280.1419
   9   2.0000     -10.291495      -280.0458
  10   2.0000     -10.290832      -280.0278
  11   2.0000     -10.289337      -279.9871
  12   2.0000     -10.288756      -279.9713
  13   2.0000     -10.286466      -279.9090
  14   2.0000     -10.284636      -279.8592
  15   2.0000     -10.277426      -279.6630
  16   2.0000      -8.084227      -219.9830
  17   2.0000      -8.078983      -219.8403
  18   2.0000      -6.043034      -164.4393
  19   2.0000      -6.038900      -164.3268
  20   2.0000      -6.037322      -164.2839
  21   2.0000      -6.034613      -164.2102
  22   2.0000      -6.032893      -164.1634
  23   2.0000      -6.030069      -164.0865
  24   2.0000      -1.013348       -27.5746
  25   2.0000      -0.990749       -26.9597
  26   2.0000      -0.920287       -25.0423
  27   2.0000      -0.913769       -24.8649
  28   2.0000      -0.871393       -23.7118
  29   2.0000      -0.859220       -23.3806
  30   2.0000      -0.848524       -23.0895
  31   2.0000      -0.813003       -22.1229
  32   2.0000      -0.782118       -21.2825
  33   2.0000      -0.773380       -21.0447
  34   2.0000      -0.706107       -19.2141
  35   2.0000      -0.696384       -18.9496
  36   2.0000      -0.691338       -18.8123
  37   2.0000      -0.670107       -18.2345
  38   2.0000      -0.637165       -17.3381
  39   2.0000      -0.627139       -17.0653
  40   2.0000      -0.597332       -16.2542
  41   2.0000      -0.570177       -15.5153
  42   2.0000      -0.564821       -15.3695
  43   2.0000      -0.557624       -15.1737
  44   2.0000      -0.541038       -14.7224
  45   2.0000      -0.531783       -14.4706
  46   2.0000      -0.516373       -14.0512
  47   2.0000      -0.513196       -13.9648
  48   2.0000      -0.504970       -13.7409
  49   2.0000      -0.500148       -13.6097
  50   2.0000      -0.494568       -13.4579
  51   2.0000      -0.484256       -13.1773
  52   2.0000      -0.476508       -12.9664
  53   2.0000      -0.466306       -12.6888
  54   2.0000      -0.461669       -12.5627
  55   2.0000      -0.452625       -12.3166
  56   2.0000      -0.450125       -12.2485
  57   2.0000      -0.438208       -11.9242
  58   2.0000      -0.430557       -11.7160
  59   2.0000      -0.420863       -11.4523
  60   2.0000      -0.413881       -11.2623
  61   2.0000      -0.411972       -11.2103
  62   2.0000      -0.406074       -11.0498
  63   2.0000      -0.366413        -9.9706
  64   2.0000      -0.334449        -9.1008
  65   2.0000      -0.324412        -8.8277
  66   2.0000      -0.282540        -7.6883
  67   0.0000       0.026684         0.7261
  68   0.0000       0.093302         2.5389
  69   0.0000       0.097743         2.6597
  70   0.0000       0.119428         3.2498
  71   0.0000       0.125996         3.4285

MULLIKEN ATOMIC CHARGES
-----------------------
   0 S :    0.115111
   1 C :   -0.130174
   2 C :   -0.054929
   3 C :   -0.062845
   4 C :   -0.034049
   5 H :   -0.012845
   6 C :    0.078020
   7 H :    0.030474
   8 H :    0.001457
   9 C :   -0.108392
  10 H :    0.043517
  11 H :    0.037448
  12 C :   -0.065300
  13 H :    0.049089
  14 H :    0.052056
  15 H :    0.040406
  16 S :    0.104359
  17 C :   -0.093109
  18 C :   -0.032909
  19 C :   -0.087037
  20 C :   -0.145978
  21 H :   -0.010444
  22 C :    0.035175
  23 H :    0.031586
  24 H :    0.019384
  25 C :   -0.042243
  26 H :    0.023374
  27 H :    0.037169
  28 C :   -0.045848
  29 H :    0.029342
  30 H :    0.024962
  31 H :    0.042141
  32 H :    0.042448
  33 H :    0.088588
Sum of atomic charges:    0.0000000

LOEWDIN ATOMIC CHARGES
----------------------
   0 S :    0.390993
   1 C :   -0.189141
   2 C :   -0.055013
   3 C :   -0.072382
   4 C :   -0.185686
   5 H :    0.031582
   6 C :   -0.035169
   7 H :    0.034571
   8 H :    0.024149
   9 C :   -0.049530
  10 H :    0.026466
  11 H :    0.024124
  12 C :   -0.068062
  13 H :    0.026048
  14 H :    0.039052
  15 H :    0.028994
  16 S :    0.455422
  17 C :   -0.235035
  18 C :   -0.073888
  19 C :   -0.059069
  20 C :   -0.196795
  21 H :    0.016946
  22 C :   -0.039861
  23 H :    0.038741
  24 H :    0.020693
  25 C :   -0.039714
  26 H :    0.022018
  27 H :    0.034097
  28 C :   -0.061855
  29 H :    0.021411
  30 H :    0.024563
  31 H :    0.026019
  32 H :    0.022655
  33 H :    0.052653

  Mayer bond orders larger than 0.100000
B(  0-S ,  1-C ) :   1.1260 B(  0-S ,  4-C ) :   1.1132 B(  1-C ,  2-C ) :   1.6312
B(  1-C , 32-H ) :   0.9641 B(  2-C ,  3-C ) :   1.2210 B(  2-C ,  6-C ) :   1.0277
B(  3-C ,  4-C ) :   1.6110 B(  3-C ,  5-H ) :   0.9825 B(  4-C , 20-C ) :   1.0757
B(  6-C ,  7-H ) :   0.9329 B(  6-C ,  8-H ) :   0.9416 B(  6-C ,  9-C ) :   1.0387
B(  9-C , 10-H ) :   0.9504 B(  9-C , 11-H ) :   0.9656 B(  9-C , 12-C ) :   1.0667
B( 12-C , 13-H ) :   0.9750 B( 12-C , 14-H ) :   0.9770 B( 12-C , 15-H ) :   0.9763
B( 16-S , 17-C ) :   1.2109 B( 16-S , 20-C ) :   1.1478 B( 17-C , 18-C ) :   1.5343
B( 17-C , 33-H ) :   0.9561 B( 18-C , 19-C ) :   1.2970 B( 18-C , 21-H ) :   1.0002
B( 19-C , 20-C ) :   1.5345 B( 19-C , 22-C ) :   1.0555 B( 22-C , 23-H ) :   0.9213
B( 22-C , 24-H ) :   0.9331 B( 22-C , 25-C ) :   1.0533 B( 25-C , 26-H ) :   0.9570
B( 25-C , 27-H ) :   0.9495 B( 25-C , 28-C ) :   1.0792 B( 28-C , 29-H ) :   0.9701
B( 28-C , 30-H ) :   0.9697 B( 28-C , 31-H ) :   0.9725

Dispersion correction           -0.014683375
FINAL SINGLE POINT ENERGY     -1339.863723124241

DIPOLE MOMENT
-------------
                                X             Y             Z
Electronic contribution:    -25.49194      20.57680      -3.91056
Nuclear contribution   :     25.91881     -21.12724       3.83257
                        -----------------------------------------
Total Dipole Moment    :      0.42687      -0.55044      -0.07798
                        -----------------------------------------
Magnitude (a.u.)       :      0.70091
Magnitude (Debye)      :      1.78158

Rotational constants in cm-1:     0.019097     0.009431     0.006536
Rotational constants in MHz :   572.503389   282.742654   195.944536

                             ****ORCA TERMINATED NORMALLY****
TOTAL RUN TIME: 0 days 0 hours 0 minutes 21 seconds 279 msec
