                         Program Version 4.2.1 -  RELEASE  -
|  1> ! wB97X-D3 SP def2-SVP
|  2> %pal
|  3> nprocs 24
|  4> end
|  5>
|  6> * xyz 0 1
|  7> S 	 -87.5369 	 -4.50829 	 -118.933
|  8> C 	 -86.918 	 -6.0757 	 -119.349
|  9> C 	 -87.7286 	 -7.15161 	 -118.991
| 10> C 	 -88.9349 	 -6.72791 	 -118.434
| 11> C 	 -88.9729 	 -5.37605 	 -118.258
| 12> H 	 -89.7328 	 -7.34096 	 -118.081
| 13> C 	 -87.3492 	 -8.64744 	 -119.107
| 14> H 	 -87.717 	 -9.17892 	 -118.248
| 15> H 	 -86.259 	 -8.75088 	 -119.103
| 16> C 	 -87.9082 	 -9.38905 	 -120.256
| 17> H 	 -88.9144 	 -9.05018 	 -120.438
| 18> H 	 -87.3802 	 -9.13027 	 -121.203
| 19> C 	 -87.8848 	 -10.9123 	 -120.022
| 20> H 	 -88.2964 	 -11.3458 	 -120.929
| 21> H 	 -86.8483 	 -11.2511 	 -119.845
| 22> H 	 -88.5744 	 -11.1227 	 -119.265
| 23> S 	 -89.6601 	 -2.967 	 -117.02
| 24> C 	 -91.2606 	 -2.84392 	 -116.308
| 25> C 	 -92.0056 	 -4.00534 	 -116.503
| 26> C 	 -91.4195 	 -4.95645 	 -117.337
| 27> C 	 -90.05 	 -4.6184 	 -117.605
| 28> H 	 -93.062 	 -4.01895 	 -116.132
| 29> C 	 -92.2509 	 -6.16163 	 -117.774
| 30> H 	 -91.8287 	 -6.44904 	 -118.722
| 31> H 	 -93.2825 	 -5.81622 	 -117.889
| 32> C 	 -92.0924 	 -7.31795 	 -116.827
| 33> H 	 -92.8001 	 -7.28383 	 -115.973
| 34> H 	 -91.0846 	 -7.24299 	 -116.281
| 35> C 	 -92.2383 	 -8.71107 	 -117.371
| 36> H 	 -91.6294 	 -9.3625 	 -116.645
| 37> H 	 -91.6953 	 -8.69702 	 -118.325
| 38> H 	 -93.1944 	 -9.05812 	 -117.615
| 39> H 	 -85.9799 	 -6.20513 	 -119.849
| 40> H 	 -91.3501 	 -2.07563 	 -115.54
| 41> *
| 42>
| 43>                          ****END OF INPUT****

CARTESIAN COORDINATES (ANGSTROEM)
---------------------------------
  S    -87.536900   -4.508290  -118.933000
  C    -86.918000   -6.075700  -119.349000
  C    -87.728600   -7.151610  -118.991000
  C    -88.934900   -6.727910  -118.434000
  C    -88.972900   -5.376050  -118.258000
  H    -89.732800   -7.340960  -118.081000
  C    -87.349200   -8.647440  -119.107000
  H    -87.717000   -9.178920  -118.248000
  H    -86.259000   -8.750880  -119.103000
  C    -87.908200   -9.389050  -120.256000
  H    -88.914400   -9.050180  -120.438000
  H    -87.380200   -9.130270  -121.203000
  C    -87.884800  -10.912300  -120.022000
  H    -88.296400  -11.345800  -120.929000
  H    -86.848300  -11.251100  -119.845000
  H    -88.574400  -11.122700  -119.265000
  S    -89.660100   -2.967000  -117.020000
  C    -91.260600   -2.843920  -116.308000
  C    -92.005600   -4.005340  -116.503000
  C    -91.419500   -4.956450  -117.337000
  C    -90.050000   -4.618400  -117.605000
  H    -93.062000   -4.018950  -116.132000
  C    -92.250900   -6.161630  -117.774000
  H    -91.828700   -6.449040  -118.722000
  H    -93.282500   -5.816220  -117.889000
  C    -92.092400   -7.317950  -116.827000
  H    -92.800100   -7.283830  -115.973000
  H    -91.084600   -7.242990  -116.281000
  C    -92.238300   -8.711070  -117.371000
  H    -91.629400   -9.362500  -116.645000
  H    -91.695300   -8.697020  -118.325000
  H    -93.194400   -9.058120  -117.615000
  H    -85.979900   -6.205130  -119.849000
  H    -91.350100   -2.075630  -115.540000

 Total Charge           Charge          ....    0
 Multiplicity           Mult            ....    1
 Number of Electrons    NEL             ....  134
 Basis Dimension        Dim             ....  322

ORBITAL ENERGIES
----------------

  NO   OCC          E(Eh)            E(eV)
   0   2.0000     -88.970909     -2421.0215
   1   2.0000     -88.966566     -2420.9033
   2   2.0000     -10.336237      -281.2633
   3   2.0000     -10.332877      -281.1719
   4   2.0000     -10.317012      -280.7402
   5   2.0000     -10.311974      -280.6031
   6   2.0000     -10.306557      -280.4557
   7   2.0000     -10.300704      -280.2964
   8   2.0000     -10.296722      -280.1881
   9   2.0000     -10.295447      -280.1534
  10   2.0000     -10.292166      -280.0641
  11   2.0000     -10.289756      -279.9985
  12   2.0000     -10.288295      -279.9587
  13   2.0000     -10.283225      -279.8208
  14   2.0000     -10.280732      -279.7529
  15   2.0000     -10.276943      -279.6498
  16   2.0000      -8.084887      -220.0010
  17   2.0000      -8.080675      -219.8864
  18   2.0000      -6.043335      -164.4475
  19   2.0000      -6.039818      -164.3518
  20   2.0000      -6.039061      -164.3312
  21   2.0000      -6.035463      -164.2333
  22   2.0000      -6.035321      -164.2294
  23   2.0000      -6.031583      -164.1277
  24   2.0000      -1.003124       -27.2964
  25   2.0000      -0.980904       -26.6918
  26   2.0000      -0.919402       -25.0182
  27   2.0000      -0.916660       -24.9436
  28   2.0000      -0.864702       -23.5297
  29   2.0000      -0.860415       -23.4131
  30   2.0000      -0.853020       -23.2119
  31   2.0000      -0.811079       -22.0706
  32   2.0000      -0.787531       -21.4298
  33   2.0000      -0.769784       -20.9469
  34   2.0000      -0.702672       -19.1207
  35   2.0000      -0.696539       -18.9538
  36   2.0000      -0.692361       -18.8401
  37   2.0000      -0.664984       -18.0951
  38   2.0000      -0.640155       -17.4195
  39   2.0000      -0.627293       -17.0695
  40   2.0000      -0.599261       -16.3067
  41   2.0000      -0.576394       -15.6845
  42   2.0000      -0.569500       -15.4969
  43   2.0000      -0.556149       -15.1336
  44   2.0000      -0.538043       -14.6409
  45   2.0000      -0.524983       -14.2855
  46   2.0000      -0.519691       -14.1415
  47   2.0000      -0.509335       -13.8597
  48   2.0000      -0.505446       -13.7539
  49   2.0000      -0.497612       -13.5407
  50   2.0000      -0.489390       -13.3170
  51   2.0000      -0.488076       -13.2812
  52   2.0000      -0.471901       -12.8411
  53   2.0000      -0.469611       -12.7788
  54   2.0000      -0.462822       -12.5940
  55   2.0000      -0.448045       -12.1919
  56   2.0000      -0.441151       -12.0043
  57   2.0000      -0.437714       -11.9108
  58   2.0000      -0.436443       -11.8762
  59   2.0000      -0.425396       -11.5756
  60   2.0000      -0.420643       -11.4463
  61   2.0000      -0.418161       -11.3787
  62   2.0000      -0.412827       -11.2336
  63   2.0000      -0.359363        -9.7788
  64   2.0000      -0.340466        -9.2646
  65   2.0000      -0.332669        -9.0524
  66   2.0000      -0.273185        -7.4337
  67   0.0000       0.014672         0.3992
  68   0.0000       0.072041         1.9603
  69   0.0000       0.093884         2.5547
  70   0.0000       0.116766         3.1774
  71   0.0000       0.127869         3.4795

MULLIKEN ATOMIC CHARGES
-----------------------
   0 S :    0.108738
   1 C :   -0.115033
   2 C :   -0.057150
   3 C :    0.001602
   4 C :   -0.083521
   5 H :   -0.038928
   6 C :    0.087173
   7 H :    0.009790
   8 H :    0.021464
   9 C :   -0.092896
  10 H :    0.014983
  11 H :    0.024705
  12 C :   -0.022111
  13 H :    0.031263
  14 H :    0.042956
  15 H :    0.024262
  16 S :    0.082602
  17 C :   -0.101482
  18 C :   -0.051575
  19 C :   -0.082468
  20 C :   -0.142106
  21 H :    0.039843
  22 C :    0.126834
  23 H :    0.015566
  24 H :    0.037214
  25 C :   -0.142476
  26 H :    0.029082
  27 H :    0.056339
  28 C :   -0.025552
  29 H :    0.049016
  30 H :    0.014718
  31 H :    0.030973
  32 H :    0.035313
  33 H :    0.070863
Sum of atomic charges:   -0.0000000

LOEWDIN ATOMIC CHARGES
----------------------
   0 S :    0.383127
   1 C :   -0.194929
   2 C :   -0.057173
   3 C :   -0.064194
   4 C :   -0.161712
   5 H :    0.028712
   6 C :   -0.030065
   7 H :    0.026919
   8 H :    0.030241
   9 C :   -0.045172
  10 H :    0.018199
  11 H :    0.023778
  12 C :   -0.055490
  13 H :    0.028876
  14 H :    0.029908
  15 H :    0.016976
  16 S :    0.383516
  17 C :   -0.191233
  18 C :   -0.075560
  19 C :   -0.057209
  20 C :   -0.178357
  21 H :    0.040934
  22 C :   -0.027230
  23 H :    0.026889
  24 H :    0.036606
  25 C :   -0.060721
  26 H :    0.026998
  27 H :    0.035702
  28 C :   -0.065950
  29 H :    0.042825
  30 H :    0.018708
  31 H :    0.016896
  32 H :    0.021167
  33 H :    0.028019

  Mayer bond orders larger than 0.100000
B(  0-S ,  1-C ) :   1.1338 B(  0-S ,  4-C ) :   1.1242 B(  1-C ,  2-C ) :   1.6243
B(  1-C , 32-H ) :   0.9650 B(  2-C ,  3-C ) :   1.2378 B(  2-C ,  6-C ) :   1.0197
B(  3-C ,  4-C ) :   1.5801 B(  3-C ,  5-H ) :   0.9946 B(  4-C , 20-C ) :   1.0896
B(  6-C ,  7-H ) :   0.9409 B(  6-C ,  8-H ) :   0.9360 B(  6-C ,  9-C ) :   1.0687
B(  9-C , 10-H ) :   0.9549 B(  9-C , 11-H ) :   0.9502 B(  9-C , 12-C ) :   1.0821
B( 12-C , 13-H ) :   0.9723 B( 12-C , 14-H ) :   0.9752 B( 12-C , 15-H ) :   0.9741
B( 16-S , 17-C ) :   1.1539 B( 16-S , 20-C ) :   1.1541 B( 17-C , 18-C ) :   1.5865
B( 17-C , 20-C ) :   0.1153 B( 17-C , 33-H ) :   0.9636 B( 18-C , 19-C ) :   1.2826
B( 18-C , 21-H ) :   0.9770 B( 19-C , 20-C ) :   1.5313 B( 19-C , 22-C ) :   1.0430
B( 22-C , 23-H ) :   0.9304 B( 22-C , 24-H ) :   0.9296 B( 22-C , 25-C ) :   1.0530
B( 25-C , 26-H ) :   0.9417 B( 25-C , 27-H ) :   0.9602 B( 25-C , 28-C ) :   1.0757
B( 28-C , 29-H ) :   0.9745 B( 28-C , 30-H ) :   0.9708 B( 28-C , 31-H ) :   0.9727

Dispersion correction           -0.014441185
FINAL SINGLE POINT ENERGY     -1339.869090168391

DIPOLE MOMENT
-------------
                                X             Y             Z
Electronic contribution:      7.86976      32.81885       3.74581
Nuclear contribution   :     -8.20832     -33.49616      -3.66846
                        -----------------------------------------
Total Dipole Moment    :     -0.33856      -0.67730       0.07735
                        -----------------------------------------
Magnitude (a.u.)       :      0.76115
Magnitude (Debye)      :      1.93468

Rotational constants in cm-1:     0.018564     0.009445     0.006443
Rotational constants in MHz :   556.549159   283.166403   193.147436

                             ****ORCA TERMINATED NORMALLY****
TOTAL RUN TIME: 0 days 0 hours 0 minutes 20 seconds 971 msec
