                         Program Version 4.2.1 -  RELEASE  -
|  1> ! wB97X-D3 SP def2-SVP
|  2> %pal
|  3> nprocs 24
|  4> end
|  5>
|  6> * xyz 0 1
|  7> S 	 22.3607 	 -4.36608 	 -116.525
|  8> C 	 21.6826 	 -5.83814 	 -115.858
|  9> C 	 21.7375 	 -5.86053 	 -114.455
| 10> C 	 22.199 	 -4.64566 	 -113.899
| 11> C 	 22.3463 	 -3.62688 	 -114.871
| 12> H 	 22.247 	 -4.3656 	 -112.876
| 13> C 	 21.1658 	 -7.00223 	 -113.648
| 14> H 	 21.998 	 -7.3757 	 -113.078
| 15> H 	 20.9941 	 -7.82898 	 -114.361
| 16> C 	 19.9094 	 -6.76593 	 -112.817
| 17> H 	 19.9946 	 -5.9541 	 -112.136
| 18> H 	 19.1115 	 -6.53944 	 -113.456
| 19> C 	 19.6172 	 -8.13389 	 -112.123
| 20> H 	 19.6326 	 -9.00002 	 -112.782
| 21> H 	 20.3864 	 -8.29006 	 -111.424
| 22> H 	 18.6694 	 -8.11363 	 -111.586
| 23> S 	 24.1609 	 -1.56772 	 -115.451
| 24> C 	 23.83 	 0.0302976 	 -114.766
| 25> C 	 22.7519 	 0.0319667 	 -113.861
| 26> C 	 22.027 	 -1.17099 	 -113.975
| 27> C 	 22.6655 	 -2.1744 	 -114.718
| 28> H 	 22.4119 	 0.892528 	 -113.313
| 29> C 	 20.7366 	 -1.28236 	 -113.235
| 30> H 	 20.5466 	 -0.363633 	 -112.684
| 31> H 	 20.7727 	 -2.07623 	 -112.555
| 32> C 	 19.632 	 -1.73754 	 -114.159
| 33> H 	 19.8172 	 -2.67704 	 -114.662
| 34> H 	 19.5071 	 -1.07722 	 -115.061
| 35> C 	 18.2635 	 -1.83702 	 -113.473
| 36> H 	 18.4544 	 -2.48601 	 -112.634
| 37> H 	 17.4516 	 -2.37121 	 -113.931
| 38> H 	 17.8042 	 -0.831516 	 -113.251
| 39> H 	 21.0562 	 -6.65898 	 -116.41
| 40> H 	 24.5474 	 0.83461 	 -114.78
| 41> *
| 42>
| 43>                          ****END OF INPUT****

CARTESIAN COORDINATES (ANGSTROEM)
---------------------------------
  S     22.360700   -4.366080  -116.525000
  C     21.682600   -5.838140  -115.858000
  C     21.737500   -5.860530  -114.455000
  C     22.199000   -4.645660  -113.899000
  C     22.346300   -3.626880  -114.871000
  H     22.247000   -4.365600  -112.876000
  C     21.165800   -7.002230  -113.648000
  H     21.998000   -7.375700  -113.078000
  H     20.994100   -7.828980  -114.361000
  C     19.909400   -6.765930  -112.817000
  H     19.994600   -5.954100  -112.136000
  H     19.111500   -6.539440  -113.456000
  C     19.617200   -8.133890  -112.123000
  H     19.632600   -9.000020  -112.782000
  H     20.386400   -8.290060  -111.424000
  H     18.669400   -8.113630  -111.586000
  S     24.160900   -1.567720  -115.451000
  C     23.830000    0.030298  -114.766000
  C     22.751900    0.031967  -113.861000
  C     22.027000   -1.170990  -113.975000
  C     22.665500   -2.174400  -114.718000
  H     22.411900    0.892528  -113.313000
  C     20.736600   -1.282360  -113.235000
  H     20.546600   -0.363633  -112.684000
  H     20.772700   -2.076230  -112.555000
  C     19.632000   -1.737540  -114.159000
  H     19.817200   -2.677040  -114.662000
  H     19.507100   -1.077220  -115.061000
  C     18.263500   -1.837020  -113.473000
  H     18.454400   -2.486010  -112.634000
  H     17.451600   -2.371210  -113.931000
  H     17.804200   -0.831516  -113.251000
  H     21.056200   -6.658980  -116.410000
  H     24.547400    0.834610  -114.780000

 Total Charge           Charge          ....    0
 Multiplicity           Mult            ....    1
 Number of Electrons    NEL             ....  134
 Basis Dimension        Dim             ....  322

ORBITAL ENERGIES
----------------

  NO   OCC          E(Eh)            E(eV)
   0   2.0000     -88.970681     -2421.0153
   1   2.0000     -88.967421     -2420.9266
   2   2.0000     -10.341087      -281.3953
   3   2.0000     -10.331163      -281.1252
   4   2.0000     -10.322300      -280.8841
   5   2.0000     -10.321744      -280.8689
   6   2.0000     -10.301890      -280.3287
   7   2.0000     -10.301553      -280.3195
   8   2.0000     -10.299075      -280.2521
   9   2.0000     -10.295830      -280.1638
  10   2.0000     -10.290958      -280.0312
  11   2.0000     -10.285047      -279.8704
  12   2.0000     -10.284993      -279.8689
  13   2.0000     -10.280711      -279.7524
  14   2.0000     -10.277367      -279.6614
  15   2.0000     -10.274367      -279.5797
  16   2.0000      -8.084468      -219.9896
  17   2.0000      -8.081096      -219.8978
  18   2.0000      -6.042954      -164.4372
  19   2.0000      -6.039604      -164.3460
  20   2.0000      -6.039150      -164.3336
  21   2.0000      -6.035897      -164.2451
  22   2.0000      -6.035275      -164.2282
  23   2.0000      -6.031759      -164.1325
  24   2.0000      -0.998871       -27.1806
  25   2.0000      -0.979059       -26.6415
  26   2.0000      -0.914709       -24.8905
  27   2.0000      -0.913192       -24.8492
  28   2.0000      -0.863881       -23.5074
  29   2.0000      -0.850310       -23.1381
  30   2.0000      -0.848034       -23.0762
  31   2.0000      -0.812489       -22.1089
  32   2.0000      -0.781647       -21.2697
  33   2.0000      -0.764903       -20.8141
  34   2.0000      -0.716161       -19.4877
  35   2.0000      -0.704466       -19.1695
  36   2.0000      -0.686501       -18.6806
  37   2.0000      -0.665669       -18.1138
  38   2.0000      -0.636347       -17.3159
  39   2.0000      -0.619082       -16.8461
  40   2.0000      -0.599860       -16.3230
  41   2.0000      -0.572016       -15.5653
  42   2.0000      -0.567455       -15.4412
  43   2.0000      -0.559561       -15.2264
  44   2.0000      -0.527916       -14.3653
  45   2.0000      -0.518125       -14.0989
  46   2.0000      -0.515722       -14.0335
  47   2.0000      -0.510508       -13.8916
  48   2.0000      -0.504880       -13.7385
  49   2.0000      -0.492975       -13.4145
  50   2.0000      -0.489141       -13.3102
  51   2.0000      -0.487507       -13.2657
  52   2.0000      -0.472197       -12.8491
  53   2.0000      -0.467813       -12.7298
  54   2.0000      -0.454927       -12.3792
  55   2.0000      -0.449912       -12.2427
  56   2.0000      -0.448010       -12.1910
  57   2.0000      -0.438818       -11.9408
  58   2.0000      -0.435501       -11.8506
  59   2.0000      -0.428538       -11.6611
  60   2.0000      -0.420413       -11.4400
  61   2.0000      -0.415045       -11.2939
  62   2.0000      -0.409322       -11.1382
  63   2.0000      -0.342279        -9.3139
  64   2.0000      -0.333813        -9.0835
  65   2.0000      -0.329044        -8.9537
  66   2.0000      -0.286043        -7.7836
  67   0.0000       0.022322         0.6074
  68   0.0000       0.052630         1.4321
  69   0.0000       0.099124         2.6973
  70   0.0000       0.119726         3.2579
  71   0.0000       0.126265         3.4358

MULLIKEN ATOMIC CHARGES
-----------------------
   0 S :    0.102125
   1 C :   -0.142294
   2 C :   -0.097840
   3 C :    0.073630
   4 C :   -0.197172
   5 H :    0.006164
   6 C :    0.032447
   7 H :    0.026485
   8 H :    0.009169
   9 C :   -0.009588
  10 H :    0.023321
  11 H :    0.017896
  12 C :   -0.038047
  13 H :    0.029038
  14 H :    0.017124
  15 H :    0.034323
  16 S :    0.113176
  17 C :   -0.087449
  18 C :   -0.039132
  19 C :   -0.054356
  20 C :   -0.144758
  21 H :    0.023589
  22 C :    0.162147
  23 H :    0.014941
  24 H :   -0.000345
  25 C :   -0.122319
  26 H :    0.044484
  27 H :    0.027444
  28 C :   -0.040489
  29 H :    0.012084
  30 H :    0.022525
  31 H :    0.039901
  32 H :    0.085438
  33 H :    0.056337
Sum of atomic charges:   -0.0000000

LOEWDIN ATOMIC CHARGES
----------------------
   0 S :    0.376753
   1 C :   -0.219367
   2 C :   -0.068098
   3 C :   -0.055204
   4 C :   -0.167927
   5 H :    0.027357
   6 C :   -0.034380
   7 H :    0.030491
   8 H :    0.030790
   9 C :   -0.025526
  10 H :    0.019447
  11 H :    0.018527
  12 C :   -0.056433
  13 H :    0.025572
  14 H :    0.018094
  15 H :    0.025587
  16 S :    0.399624
  17 C :   -0.175174
  18 C :   -0.065377
  19 C :   -0.050238
  20 C :   -0.204303
  21 H :    0.032549
  22 C :   -0.023395
  23 H :    0.031129
  24 H :    0.023519
  25 C :   -0.043893
  26 H :    0.028139
  27 H :    0.024404
  28 C :   -0.073232
  29 H :    0.020431
  30 H :    0.023197
  31 H :    0.030200
  32 H :    0.052516
  33 H :    0.024221

  Mayer bond orders larger than 0.100000
B(  0-S ,  1-C ) :   1.1325 B(  0-S ,  4-C ) :   1.1402 B(  1-C ,  2-C ) :   1.6201
B(  1-C ,  4-C ) :   0.1086 B(  1-C , 32-H ) :   0.9467 B(  2-C ,  3-C ) :   1.2266
B(  2-C ,  6-C ) :   1.0249 B(  3-C ,  4-C ) :   1.5690 B(  3-C ,  5-H ) :   0.9985
B(  4-C , 20-C ) :   1.0276 B(  6-C ,  7-H ) :   0.9354 B(  6-C ,  8-H ) :   0.9406
B(  6-C ,  9-C ) :   1.0597 B(  9-C , 10-H ) :   0.9563 B(  9-C , 11-H ) :   0.9536
B(  9-C , 12-C ) :   1.0741 B( 12-C , 13-H ) :   0.9761 B( 12-C , 14-H ) :   0.9776
B( 12-C , 15-H ) :   0.9744 B( 16-S , 17-C ) :   1.1677 B( 16-S , 20-C ) :   1.1372
B( 17-C , 18-C ) :   1.5847 B( 17-C , 20-C ) :   0.1062 B( 17-C , 33-H ) :   0.9641
B( 18-C , 19-C ) :   1.2759 B( 18-C , 21-H ) :   0.9863 B( 19-C , 20-C ) :   1.5743
B( 19-C , 22-C ) :   1.0546 B( 22-C , 23-H ) :   0.9363 B( 22-C , 24-H ) :   0.9114
B( 22-C , 25-C ) :   1.0463 B( 25-C , 26-H ) :   0.9524 B( 25-C , 27-H ) :   0.9575
B( 25-C , 28-C ) :   1.0823 B( 28-C , 29-H ) :   0.9701 B( 28-C , 30-H ) :   0.9735
B( 28-C , 31-H ) :   0.9760

Dispersion correction           -0.014607220
FINAL SINGLE POINT ENERGY     -1339.855986303064

DIPOLE MOMENT
-------------
                                X             Y             Z
Electronic contribution:     24.05601      11.19688     -17.52559
Nuclear contribution   :    -24.52229     -11.33058      18.15929
                        -----------------------------------------
Total Dipole Moment    :     -0.46629      -0.13371       0.63370
                        -----------------------------------------
Magnitude (a.u.)       :      0.79805
Magnitude (Debye)      :      2.02847

Rotational constants in cm-1:     0.019229     0.008769     0.006914
Rotational constants in MHz :   576.485010   262.875249   207.284678

                             ****ORCA TERMINATED NORMALLY****
TOTAL RUN TIME: 0 days 0 hours 0 minutes 22 seconds 275 msec
