                         Program Version 4.2.1 -  RELEASE  -
|  1> ! wB97X-D3 SP def2-SVP
|  2> %pal
|  3> nprocs 24
|  4> end
|  5>
|  6> * xyz 0 1
|  7> S 	 -63.5002 	 11.5211 	 -77.7292
|  8> C 	 -62.4495 	 10.5136 	 -76.8576
|  9> C 	 -62.8217 	 9.19242 	 -77.096
| 10> C 	 -64.032 	 9.11298 	 -77.7918
| 11> C 	 -64.5527 	 10.2971 	 -78.2871
| 12> H 	 -64.5446 	 8.26816 	 -78.0595
| 13> C 	 -62.0646 	 7.97408 	 -76.5356
| 14> H 	 -62.8161 	 7.1926 	 -76.2382
| 15> H 	 -61.577 	 8.43017 	 -75.6823
| 16> C 	 -61.1168 	 7.18201 	 -77.533
| 17> H 	 -60.5596 	 6.4075 	 -76.9648
| 18> H 	 -61.7389 	 6.60497 	 -78.2022
| 19> C 	 -60.1629 	 8.06043 	 -78.3288
| 20> H 	 -60.4828 	 9.10062 	 -78.5212
| 21> H 	 -59.1879 	 8.19401 	 -77.7445
| 22> H 	 -60.021 	 7.65427 	 -79.3838
| 23> S 	 -66.9736 	 11.5638 	 -78.4322
| 24> C 	 -68.1007 	 11.092 	 -79.6829
| 25> C 	 -67.552 	 10.2457 	 -80.5996
| 26> C 	 -66.2154 	 9.88249 	 -80.2561
| 27> C 	 -65.7799 	 10.5179 	 -79.1147
| 28> H 	 -68.2178 	 9.93848 	 -81.4391
| 29> C 	 -65.5622 	 8.88089 	 -81.0471
| 30> H 	 -64.5308 	 9.01676 	 -80.8608
| 31> H 	 -65.7593 	 9.18186 	 -82.0735
| 32> C 	 -66.0644 	 7.44592 	 -80.9012
| 33> H 	 -67.176 	 7.4286 	 -81.2374
| 34> H 	 -65.9523 	 6.91237 	 -79.9367
| 35> C 	 -65.5038 	 6.45904 	 -81.8385
| 36> H 	 -64.3934 	 6.46239 	 -81.8357
| 37> H 	 -65.7556 	 6.65483 	 -82.8452
| 38> H 	 -65.88 	 5.40735 	 -81.6822
| 39> H 	 -61.6577 	 10.8932 	 -76.2968
| 40> H 	 -69.1118 	 11.4872 	 -79.7267
| 41> *
| 42>
| 43>                          ****END OF INPUT****

CARTESIAN COORDINATES (ANGSTROEM)
---------------------------------
  S    -63.500200   11.521100  -77.729200
  C    -62.449500   10.513600  -76.857600
  C    -62.821700    9.192420  -77.096000
  C    -64.032000    9.112980  -77.791800
  C    -64.552700   10.297100  -78.287100
  H    -64.544600    8.268160  -78.059500
  C    -62.064600    7.974080  -76.535600
  H    -62.816100    7.192600  -76.238200
  H    -61.577000    8.430170  -75.682300
  C    -61.116800    7.182010  -77.533000
  H    -60.559600    6.407500  -76.964800
  H    -61.738900    6.604970  -78.202200
  C    -60.162900    8.060430  -78.328800
  H    -60.482800    9.100620  -78.521200
  H    -59.187900    8.194010  -77.744500
  H    -60.021000    7.654270  -79.383800
  S    -66.973600   11.563800  -78.432200
  C    -68.100700   11.092000  -79.682900
  C    -67.552000   10.245700  -80.599600
  C    -66.215400    9.882490  -80.256100
  C    -65.779900   10.517900  -79.114700
  H    -68.217800    9.938480  -81.439100
  C    -65.562200    8.880890  -81.047100
  H    -64.530800    9.016760  -80.860800
  H    -65.759300    9.181860  -82.073500
  C    -66.064400    7.445920  -80.901200
  H    -67.176000    7.428600  -81.237400
  H    -65.952300    6.912370  -79.936700
  C    -65.503800    6.459040  -81.838500
  H    -64.393400    6.462390  -81.835700
  H    -65.755600    6.654830  -82.845200
  H    -65.880000    5.407350  -81.682200
  H    -61.657700   10.893200  -76.296800
  H    -69.111800   11.487200  -79.726700

 Total Charge           Charge          ....    0
 Multiplicity           Mult            ....    1
 Number of Electrons    NEL             ....  134
 Basis Dimension        Dim             ....  322

ORBITAL ENERGIES
----------------

  NO   OCC          E(Eh)            E(eV)
   0   2.0000     -88.964559     -2420.8487
   1   2.0000     -88.961957     -2420.7779
   2   2.0000     -10.327500      -281.0255
   3   2.0000     -10.326458      -280.9972
   4   2.0000     -10.315821      -280.7078
   5   2.0000     -10.309005      -280.5223
   6   2.0000     -10.299335      -280.2592
   7   2.0000     -10.299292      -280.2580
   8   2.0000     -10.297627      -280.2127
   9   2.0000     -10.294366      -280.1239
  10   2.0000     -10.293849      -280.1099
  11   2.0000     -10.291558      -280.0475
  12   2.0000     -10.284927      -279.8671
  13   2.0000     -10.283674      -279.8330
  14   2.0000     -10.281701      -279.7793
  15   2.0000     -10.276158      -279.6285
  16   2.0000      -8.080051      -219.8694
  17   2.0000      -8.078374      -219.8237
  18   2.0000      -6.038501      -164.3160
  19   2.0000      -6.036568      -164.2634
  20   2.0000      -6.034516      -164.2075
  21   2.0000      -6.032309      -164.1475
  22   2.0000      -6.030763      -164.1054
  23   2.0000      -6.029694      -164.0763
  24   2.0000      -1.015450       -27.6318
  25   2.0000      -0.995897       -27.0997
  26   2.0000      -0.923530       -25.1305
  27   2.0000      -0.902575       -24.5603
  28   2.0000      -0.869296       -23.6547
  29   2.0000      -0.864841       -23.5335
  30   2.0000      -0.846498       -23.0344
  31   2.0000      -0.820707       -22.3326
  32   2.0000      -0.782509       -21.2932
  33   2.0000      -0.771291       -20.9879
  34   2.0000      -0.704967       -19.1831
  35   2.0000      -0.696330       -18.9481
  36   2.0000      -0.692693       -18.8491
  37   2.0000      -0.663472       -18.0540
  38   2.0000      -0.651836       -17.7374
  39   2.0000      -0.620957       -16.8971
  40   2.0000      -0.597581       -16.2610
  41   2.0000      -0.574797       -15.6410
  42   2.0000      -0.563824       -15.3424
  43   2.0000      -0.548983       -14.9386
  44   2.0000      -0.536985       -14.6121
  45   2.0000      -0.536312       -14.5938
  46   2.0000      -0.523590       -14.2476
  47   2.0000      -0.518688       -14.1142
  48   2.0000      -0.516104       -14.0439
  49   2.0000      -0.504022       -13.7151
  50   2.0000      -0.487452       -13.2643
  51   2.0000      -0.479505       -13.0480
  52   2.0000      -0.471531       -12.8310
  53   2.0000      -0.462538       -12.5863
  54   2.0000      -0.458012       -12.4631
  55   2.0000      -0.452158       -12.3038
  56   2.0000      -0.443289       -12.0625
  57   2.0000      -0.436737       -11.8842
  58   2.0000      -0.426115       -11.5952
  59   2.0000      -0.423623       -11.5274
  60   2.0000      -0.415458       -11.3052
  61   2.0000      -0.412044       -11.2123
  62   2.0000      -0.410289       -11.1645
  63   2.0000      -0.347094        -9.4449
  64   2.0000      -0.329156        -8.9568
  65   2.0000      -0.328387        -8.9359
  66   2.0000      -0.299284        -8.1439
  67   0.0000       0.037661         1.0248
  68   0.0000       0.072871         1.9829
  69   0.0000       0.117691         3.2025
  70   0.0000       0.122812         3.3419
  71   0.0000       0.130463         3.5501

MULLIKEN ATOMIC CHARGES
-----------------------
   0 S :    0.112331
   1 C :   -0.108743
   2 C :   -0.090134
   3 C :    0.071874
   4 C :   -0.170079
   5 H :   -0.048505
   6 C :    0.054322
   7 H :    0.037860
   8 H :    0.025865
   9 C :   -0.046126
  10 H :    0.038864
  11 H :    0.020327
  12 C :   -0.104609
  13 H :    0.043942
  14 H :    0.042566
  15 H :    0.044454
  16 S :    0.113386
  17 C :   -0.102035
  18 C :   -0.053681
  19 C :   -0.021863
  20 C :   -0.142408
  21 H :    0.037473
  22 C :    0.111661
  23 H :    0.015249
  24 H :    0.017704
  25 C :   -0.096538
  26 H :    0.033980
  27 H :    0.045108
  28 C :   -0.045656
  29 H :    0.024639
  30 H :    0.008259
  31 H :    0.041192
  32 H :    0.032923
  33 H :    0.056397
Sum of atomic charges:   -0.0000000

LOEWDIN ATOMIC CHARGES
----------------------
   0 S :    0.449003
   1 C :   -0.205791
   2 C :   -0.067687
   3 C :   -0.062777
   4 C :   -0.213427
   5 H :    0.012631
   6 C :   -0.029461
   7 H :    0.037595
   8 H :    0.027334
   9 C :   -0.044224
  10 H :    0.030406
  11 H :    0.020053
  12 C :   -0.086467
  13 H :    0.026505
  14 H :    0.032890
  15 H :    0.034928
  16 S :    0.415293
  17 C :   -0.178484
  18 C :   -0.075849
  19 C :   -0.055121
  20 C :   -0.205703
  21 H :    0.042800
  22 C :   -0.033397
  23 H :    0.027413
  24 H :    0.038839
  25 C :   -0.047194
  26 H :    0.035933
  27 H :    0.029256
  28 C :   -0.071400
  29 H :    0.023108
  30 H :    0.012579
  31 H :    0.034190
  32 H :    0.017820
  33 H :    0.028406

  Mayer bond orders larger than 0.100000
B(  0-S ,  1-C ) :   1.1831 B(  0-S ,  4-C ) :   1.1921 B(  1-C ,  2-C ) :   1.5144
B(  1-C ,  4-C ) :   0.1081 B(  1-C , 32-H ) :   0.9855 B(  2-C ,  3-C ) :   1.2932
B(  2-C ,  6-C ) :   1.0149 B(  3-C ,  4-C ) :   1.5267 B(  3-C ,  5-H ) :   1.0187
B(  4-C , 20-C ) :   0.9885 B(  6-C ,  7-H ) :   0.9465 B(  6-C ,  8-H ) :   0.9480
B(  6-C ,  9-C ) :   1.0568 B(  9-C , 10-H ) :   0.9599 B(  9-C , 11-H ) :   0.9604
B(  9-C , 12-C ) :   1.0645 B( 12-C , 13-H ) :   0.9762 B( 12-C , 14-H ) :   0.9767
B( 12-C , 15-H ) :   0.9758 B( 16-S , 17-C ) :   1.1561 B( 16-S , 20-C ) :   1.1469
B( 17-C , 18-C ) :   1.6361 B( 17-C , 33-H ) :   0.9647 B( 18-C , 19-C ) :   1.1992
B( 18-C , 21-H ) :   0.9862 B( 19-C , 20-C ) :   1.6153 B( 19-C , 22-C ) :   1.0770
B( 22-C , 23-H ) :   0.9159 B( 22-C , 24-H ) :   0.9185 B( 22-C , 25-C ) :   1.0654
B( 25-C , 26-H ) :   0.9488 B( 25-C , 27-H ) :   0.9551 B( 25-C , 28-C ) :   1.0915
B( 28-C , 29-H ) :   0.9677 B( 28-C , 30-H ) :   0.9713 B( 28-C , 31-H ) :   0.9722

Dispersion correction           -0.014366506
FINAL SINGLE POINT ENERGY     -1339.866675202199

DIPOLE MOMENT
-------------
                                X             Y             Z
Electronic contribution:    -12.57614      25.79786       9.67608
Nuclear contribution   :     12.52321     -26.38699      -9.97812
                        -----------------------------------------
Total Dipole Moment    :     -0.05292      -0.58913      -0.30204
                        -----------------------------------------
Magnitude (a.u.)       :      0.66416
Magnitude (Debye)      :      1.68815

Rotational constants in cm-1:     0.017722     0.009628     0.006745
Rotational constants in MHz :   531.287979   288.644945   202.216225

                             ****ORCA TERMINATED NORMALLY****
TOTAL RUN TIME: 0 days 0 hours 0 minutes 21 seconds 817 msec
