                         Program Version 4.2.1 -  RELEASE  -
|  1> ! wB97X-D3 SP def2-SVP
|  2> %pal
|  3> nprocs 24
|  4> end
|  5>
|  6> * xyz 0 1
|  7> S 	 37.305 	 -7.95735 	 -115.029
|  8> C 	 39.0082 	 -7.55747 	 -115.356
|  9> C 	 39.341 	 -6.37891 	 -114.744
| 10> C 	 38.2614 	 -5.82399 	 -113.893
| 11> C 	 37.1204 	 -6.59924 	 -113.843
| 12> H 	 38.4274 	 -5.00338 	 -113.244
| 13> C 	 40.7364 	 -5.75255 	 -114.683
| 14> H 	 41.5318 	 -6.45748 	 -114.883
| 15> H 	 40.9009 	 -5.38439 	 -113.709
| 16> C 	 40.9247 	 -4.59891 	 -115.76
| 17> H 	 40.7044 	 -5.13295 	 -116.703
| 18> H 	 40.2181 	 -3.78816 	 -115.611
| 19> C 	 42.3459 	 -4.08923 	 -116.025
| 20> H 	 42.6443 	 -3.48212 	 -115.175
| 21> H 	 42.9736 	 -4.96295 	 -115.902
| 22> H 	 42.5021 	 -3.55364 	 -116.941
| 23> S 	 34.3856 	 -6.24649 	 -114.1
| 24> C 	 33.3893 	 -5.76348 	 -112.75
| 25> C 	 34.2029 	 -5.51963 	 -111.654
| 26> C 	 35.5779 	 -5.74825 	 -111.882
| 27> C 	 35.8115 	 -6.26606 	 -113.174
| 28> H 	 33.7117 	 -5.1789 	 -110.81
| 29> C 	 36.5967 	 -5.79013 	 -110.766
| 30> H 	 36.2272 	 -5.10273 	 -109.94
| 31> H 	 37.3342 	 -5.14555 	 -111.204
| 32> C 	 37.008 	 -7.15334 	 -110.34
| 33> H 	 37.8671 	 -7.06015 	 -109.67
| 34> H 	 37.4539 	 -7.63348 	 -111.246
| 35> C 	 35.8451 	 -8.01686 	 -109.758
| 36> H 	 36.3129 	 -9.06853 	 -109.524
| 37> H 	 34.9358 	 -8.04208 	 -110.349
| 38> H 	 35.5551 	 -7.51484 	 -108.754
| 39> H 	 39.6547 	 -8.19688 	 -115.976
| 40> H 	 32.3605 	 -5.48807 	 -112.843
| 41> *
| 42>
| 43>                          ****END OF INPUT****

CARTESIAN COORDINATES (ANGSTROEM)
---------------------------------
  S     37.305000   -7.957350  -115.029000
  C     39.008200   -7.557470  -115.356000
  C     39.341000   -6.378910  -114.744000
  C     38.261400   -5.823990  -113.893000
  C     37.120400   -6.599240  -113.843000
  H     38.427400   -5.003380  -113.244000
  C     40.736400   -5.752550  -114.683000
  H     41.531800   -6.457480  -114.883000
  H     40.900900   -5.384390  -113.709000
  C     40.924700   -4.598910  -115.760000
  H     40.704400   -5.132950  -116.703000
  H     40.218100   -3.788160  -115.611000
  C     42.345900   -4.089230  -116.025000
  H     42.644300   -3.482120  -115.175000
  H     42.973600   -4.962950  -115.902000
  H     42.502100   -3.553640  -116.941000
  S     34.385600   -6.246490  -114.100000
  C     33.389300   -5.763480  -112.750000
  C     34.202900   -5.519630  -111.654000
  C     35.577900   -5.748250  -111.882000
  C     35.811500   -6.266060  -113.174000
  H     33.711700   -5.178900  -110.810000
  C     36.596700   -5.790130  -110.766000
  H     36.227200   -5.102730  -109.940000
  H     37.334200   -5.145550  -111.204000
  C     37.008000   -7.153340  -110.340000
  H     37.867100   -7.060150  -109.670000
  H     37.453900   -7.633480  -111.246000
  C     35.845100   -8.016860  -109.758000
  H     36.312900   -9.068530  -109.524000
  H     34.935800   -8.042080  -110.349000
  H     35.555100   -7.514840  -108.754000
  H     39.654700   -8.196880  -115.976000
  H     32.360500   -5.488070  -112.843000

 Total Charge           Charge          ....    0
 Multiplicity           Mult            ....    1
 Number of Electrons    NEL             ....  134
 Basis Dimension        Dim             ....  322

ORBITAL ENERGIES
----------------

  NO   OCC          E(Eh)            E(eV)
   0   2.0000     -88.967282     -2420.9228
   1   2.0000     -88.965044     -2420.8619
   2   2.0000     -10.342968      -281.4465
   3   2.0000     -10.330815      -281.1158
   4   2.0000     -10.322970      -280.9023
   5   2.0000     -10.314748      -280.6786
   6   2.0000     -10.309143      -280.5260
   7   2.0000     -10.301714      -280.3239
   8   2.0000     -10.300163      -280.2817
   9   2.0000     -10.294809      -280.1360
  10   2.0000     -10.291034      -280.0333
  11   2.0000     -10.288979      -279.9774
  12   2.0000     -10.288971      -279.9771
  13   2.0000     -10.287970      -279.9499
  14   2.0000     -10.286722      -279.9159
  15   2.0000     -10.276173      -279.6289
  16   2.0000      -8.082804      -219.9443
  17   2.0000      -8.078565      -219.8289
  18   2.0000      -6.041146      -164.3880
  19   2.0000      -6.037363      -164.2850
  20   2.0000      -6.037000      -164.2751
  21   2.0000      -6.033885      -164.1904
  22   2.0000      -6.033263      -164.1734
  23   2.0000      -6.029048      -164.0587
  24   2.0000      -1.006600       -27.3910
  25   2.0000      -0.979885       -26.6640
  26   2.0000      -0.912154       -24.8210
  27   2.0000      -0.905055       -24.6278
  28   2.0000      -0.868912       -23.6443
  29   2.0000      -0.845577       -23.0093
  30   2.0000      -0.842590       -22.9281
  31   2.0000      -0.817885       -22.2558
  32   2.0000      -0.780140       -21.2287
  33   2.0000      -0.771157       -20.9843
  34   2.0000      -0.706962       -19.2374
  35   2.0000      -0.696380       -18.9495
  36   2.0000      -0.688033       -18.7223
  37   2.0000      -0.666568       -18.1382
  38   2.0000      -0.642830       -17.4923
  39   2.0000      -0.623318       -16.9613
  40   2.0000      -0.587586       -15.9890
  41   2.0000      -0.568977       -15.4826
  42   2.0000      -0.565367       -15.3844
  43   2.0000      -0.553650       -15.0656
  44   2.0000      -0.548028       -14.9126
  45   2.0000      -0.529301       -14.4030
  46   2.0000      -0.512799       -13.9540
  47   2.0000      -0.511612       -13.9217
  48   2.0000      -0.505347       -13.7512
  49   2.0000      -0.499541       -13.5932
  50   2.0000      -0.488137       -13.2829
  51   2.0000      -0.478953       -13.0330
  52   2.0000      -0.474606       -12.9147
  53   2.0000      -0.462583       -12.5875
  54   2.0000      -0.456977       -12.4350
  55   2.0000      -0.450816       -12.2673
  56   2.0000      -0.440890       -11.9972
  57   2.0000      -0.433294       -11.7905
  58   2.0000      -0.431557       -11.7433
  59   2.0000      -0.420450       -11.4410
  60   2.0000      -0.416524       -11.3342
  61   2.0000      -0.410390       -11.1673
  62   2.0000      -0.405582       -11.0364
  63   2.0000      -0.353236        -9.6120
  64   2.0000      -0.333242        -9.0680
  65   2.0000      -0.326537        -8.8855
  66   2.0000      -0.294927        -8.0254
  67   0.0000       0.027233         0.7410
  68   0.0000       0.067714         1.8426
  69   0.0000       0.110812         3.0153
  70   0.0000       0.116406         3.1676
  71   0.0000       0.138545         3.7700

MULLIKEN ATOMIC CHARGES
-----------------------
   0 S :    0.078205
   1 C :   -0.126895
   2 C :   -0.081548
   3 C :    0.051898
   4 C :   -0.136592
   5 H :    0.007054
   6 C :    0.077183
   7 H :    0.014123
   8 H :    0.016643
   9 C :   -0.115494
  10 H :    0.027981
  11 H :    0.034749
  12 C :   -0.013730
  13 H :    0.019379
  14 H :    0.013975
  15 H :    0.049245
  16 S :    0.121010
  17 C :   -0.102880
  18 C :   -0.018665
  19 C :   -0.068381
  20 C :   -0.150719
  21 H :   -0.008824
  22 C :    0.073415
  23 H :    0.018188
  24 H :    0.006265
  25 C :   -0.032176
  26 H :    0.029823
  27 H :    0.041882
  28 C :   -0.096654
  29 H :    0.058218
  30 H :    0.060644
  31 H :    0.033291
  32 H :    0.063772
  33 H :    0.055614
Sum of atomic charges:   -0.0000000

LOEWDIN ATOMIC CHARGES
----------------------
   0 S :    0.357265
   1 C :   -0.182214
   2 C :   -0.058730
   3 C :   -0.054877
   4 C :   -0.168466
   5 H :    0.023305
   6 C :   -0.023204
   7 H :    0.026822
   8 H :    0.019992
   9 C :   -0.040930
  10 H :    0.026078
  11 H :    0.019438
  12 C :   -0.065130
  13 H :    0.022090
  14 H :    0.023507
  15 H :    0.027769
  16 S :    0.441144
  17 C :   -0.190368
  18 C :   -0.064096
  19 C :   -0.062344
  20 C :   -0.215206
  21 H :    0.020433
  22 C :   -0.042605
  23 H :    0.032727
  24 H :    0.026895
  25 C :   -0.046432
  26 H :    0.026465
  27 H :    0.031788
  28 C :   -0.073035
  29 H :    0.041402
  30 H :    0.026675
  31 H :    0.030491
  32 H :    0.036447
  33 H :    0.026906

  Mayer bond orders larger than 0.100000
B(  0-S ,  1-C ) :   1.1141 B(  0-S ,  4-C ) :   1.1220 B(  1-C ,  2-C ) :   1.6531
B(  1-C , 32-H ) :   0.9669 B(  2-C ,  3-C ) :   1.2030 B(  2-C ,  6-C ) :   1.0304
B(  3-C ,  4-C ) :   1.6127 B(  3-C ,  5-H ) :   0.9898 B(  4-C , 20-C ) :   1.0178
B(  6-C ,  7-H ) :   0.9443 B(  6-C ,  8-H ) :   0.9451 B(  6-C ,  9-C ) :   1.0460
B(  9-C , 10-H ) :   0.9616 B(  9-C , 11-H ) :   0.9622 B(  9-C , 12-C ) :   1.0776
B( 12-C , 13-H ) :   0.9731 B( 12-C , 14-H ) :   0.9697 B( 12-C , 15-H ) :   0.9769
B( 16-S , 17-C ) :   1.1705 B( 16-S , 20-C ) :   1.1892 B( 17-C , 18-C ) :   1.5626
B( 17-C , 20-C ) :   0.1046 B( 17-C , 33-H ) :   0.9717 B( 18-C , 19-C ) :   1.2793
B( 18-C , 21-H ) :   1.0075 B( 19-C , 20-C ) :   1.5293 B( 19-C , 22-C ) :   1.0309
B( 22-C , 23-H ) :   0.9317 B( 22-C , 24-H ) :   0.9193 B( 22-C , 25-C ) :   1.0753
B( 25-C , 26-H ) :   0.9512 B( 25-C , 27-H ) :   0.9481 B( 25-C , 28-C ) :   1.0587
B( 28-C , 29-H ) :   0.9729 B( 28-C , 30-H ) :   0.9751 B( 28-C , 31-H ) :   0.9731

Dispersion correction           -0.014591145
FINAL SINGLE POINT ENERGY     -1339.868561432597

DIPOLE MOMENT
-------------
                                X             Y             Z
Electronic contribution:    -20.03918      -6.87199      -9.94480
Nuclear contribution   :     20.48399       7.23623      10.27317
                        -----------------------------------------
Total Dipole Moment    :      0.44481       0.36424       0.32837
                        -----------------------------------------
Magnitude (a.u.)       :      0.66208
Magnitude (Debye)      :      1.68288

Rotational constants in cm-1:     0.021750     0.007356     0.006751
Rotational constants in MHz :   652.045766   220.541764   202.396754

                             ****ORCA TERMINATED NORMALLY****
TOTAL RUN TIME: 0 days 0 hours 0 minutes 21 seconds 512 msec
