                         Program Version 4.2.1 -  RELEASE  -
|  1> ! wB97X-D3 SP def2-SVP
|  2> %pal
|  3> nprocs 24
|  4> end
|  5>
|  6> * xyz 0 1
|  7> S 	 -146.434 	 31.2434 	 -14.4214
|  8> C 	 -145.561 	 30.7684 	 -15.8077
|  9> C 	 -145.796 	 29.4355 	 -16.1562
| 10> C 	 -146.869 	 28.9392 	 -15.3623
| 11> C 	 -147.423 	 29.8171 	 -14.4741
| 12> H 	 -147.352 	 28.0115 	 -15.4407
| 13> C 	 -145.127 	 28.661 	 -17.3233
| 14> H 	 -145.185 	 27.5587 	 -17.0809
| 15> H 	 -144.003 	 28.7471 	 -17.3764
| 16> C 	 -145.748 	 28.7387 	 -18.6869
| 17> H 	 -146.894 	 28.7059 	 -18.7117
| 18> H 	 -145.716 	 29.7801 	 -19.1064
| 19> C 	 -145.067 	 27.7872 	 -19.689
| 20> H 	 -144.006 	 27.8917 	 -19.5793
| 21> H 	 -145.412 	 26.7939 	 -19.4351
| 22> H 	 -145.288 	 28.0497 	 -20.7096
| 23> S 	 -150.148 	 30.3832 	 -14.2411
| 24> C 	 -150.911 	 29.9698 	 -12.7423
| 25> C 	 -150.045 	 29.3344 	 -11.8921
| 26> C 	 -148.75 	 29.1111 	 -12.44
| 27> C 	 -148.636 	 29.6649 	 -13.7037
| 28> H 	 -150.321 	 29.1513 	 -10.836
| 29> C 	 -147.623 	 28.3743 	 -11.6854
| 30> H 	 -148.087 	 28.1248 	 -10.7611
| 31> H 	 -146.888 	 29.1375 	 -11.3967
| 32> C 	 -147.204 	 26.9719 	 -12.3029
| 33> H 	 -146.549 	 26.5433 	 -11.5742
| 34> H 	 -146.649 	 27.1248 	 -13.1889
| 35> C 	 -148.325 	 25.9011 	 -12.3023
| 36> H 	 -148.989 	 26.0551 	 -13.1502
| 37> H 	 -148.882 	 26.0817 	 -11.3694
| 38> H 	 -147.93 	 24.8988 	 -12.2524
| 39> H 	 -144.811 	 31.4583 	 -16.2997
| 40> H 	 -151.996 	 30.0338 	 -12.492
| 41> *
| 42>
| 43>                          ****END OF INPUT****

CARTESIAN COORDINATES (ANGSTROEM)
---------------------------------
  S    -146.434000   31.243400  -14.421400
  C    -145.561000   30.768400  -15.807700
  C    -145.796000   29.435500  -16.156200
  C    -146.869000   28.939200  -15.362300
  C    -147.423000   29.817100  -14.474100
  H    -147.352000   28.011500  -15.440700
  C    -145.127000   28.661000  -17.323300
  H    -145.185000   27.558700  -17.080900
  H    -144.003000   28.747100  -17.376400
  C    -145.748000   28.738700  -18.686900
  H    -146.894000   28.705900  -18.711700
  H    -145.716000   29.780100  -19.106400
  C    -145.067000   27.787200  -19.689000
  H    -144.006000   27.891700  -19.579300
  H    -145.412000   26.793900  -19.435100
  H    -145.288000   28.049700  -20.709600
  S    -150.148000   30.383200  -14.241100
  C    -150.911000   29.969800  -12.742300
  C    -150.045000   29.334400  -11.892100
  C    -148.750000   29.111100  -12.440000
  C    -148.636000   29.664900  -13.703700
  H    -150.321000   29.151300  -10.836000
  C    -147.623000   28.374300  -11.685400
  H    -148.087000   28.124800  -10.761100
  H    -146.888000   29.137500  -11.396700
  C    -147.204000   26.971900  -12.302900
  H    -146.549000   26.543300  -11.574200
  H    -146.649000   27.124800  -13.188900
  C    -148.325000   25.901100  -12.302300
  H    -148.989000   26.055100  -13.150200
  H    -148.882000   26.081700  -11.369400
  H    -147.930000   24.898800  -12.252400
  H    -144.811000   31.458300  -16.299700
  H    -151.996000   30.033800  -12.492000

 Total Charge           Charge          ....    0
 Multiplicity           Mult            ....    1
 Number of Electrons    NEL             ....  134
 Basis Dimension        Dim             ....  322

ORBITAL ENERGIES
----------------

  NO   OCC          E(Eh)            E(eV)
   0   2.0000     -88.966077     -2420.8900
   1   2.0000     -88.963086     -2420.8086
   2   2.0000     -10.320121      -280.8248
   3   2.0000     -10.319431      -280.8060
   4   2.0000     -10.317145      -280.7438
   5   2.0000     -10.317133      -280.7434
   6   2.0000     -10.305608      -280.4298
   7   2.0000     -10.302685      -280.3503
   8   2.0000     -10.300363      -280.2871
   9   2.0000     -10.293049      -280.0881
  10   2.0000     -10.291675      -280.0507
  11   2.0000     -10.290946      -280.0309
  12   2.0000     -10.287562      -279.9388
  13   2.0000     -10.283741      -279.8348
  14   2.0000     -10.278843      -279.7015
  15   2.0000     -10.276959      -279.6503
  16   2.0000      -8.080869      -219.8916
  17   2.0000      -8.079002      -219.8408
  18   2.0000      -6.039387      -164.3401
  19   2.0000      -6.037295      -164.2831
  20   2.0000      -6.035287      -164.2285
  21   2.0000      -6.033302      -164.1745
  22   2.0000      -6.031701      -164.1309
  23   2.0000      -6.029958      -164.0835
  24   2.0000      -1.009807       -27.4782
  25   2.0000      -0.987399       -26.8685
  26   2.0000      -0.909550       -24.7501
  27   2.0000      -0.902316       -24.5533
  28   2.0000      -0.869398       -23.6575
  29   2.0000      -0.849526       -23.1168
  30   2.0000      -0.848335       -23.0844
  31   2.0000      -0.812144       -22.0996
  32   2.0000      -0.782820       -21.3016
  33   2.0000      -0.769845       -20.9486
  34   2.0000      -0.707422       -19.2499
  35   2.0000      -0.696174       -18.9439
  36   2.0000      -0.687644       -18.7117
  37   2.0000      -0.655078       -17.8256
  38   2.0000      -0.649990       -17.6871
  39   2.0000      -0.616857       -16.7855
  40   2.0000      -0.586670       -15.9641
  41   2.0000      -0.569553       -15.4983
  42   2.0000      -0.556241       -15.1361
  43   2.0000      -0.553028       -15.0487
  44   2.0000      -0.548233       -14.9182
  45   2.0000      -0.524246       -14.2654
  46   2.0000      -0.513622       -13.9764
  47   2.0000      -0.504893       -13.7388
  48   2.0000      -0.502932       -13.6855
  49   2.0000      -0.494579       -13.4582
  50   2.0000      -0.481525       -13.1030
  51   2.0000      -0.479198       -13.0396
  52   2.0000      -0.471008       -12.8168
  53   2.0000      -0.462338       -12.5809
  54   2.0000      -0.459697       -12.5090
  55   2.0000      -0.454008       -12.3542
  56   2.0000      -0.447109       -12.1665
  57   2.0000      -0.442969       -12.0538
  58   2.0000      -0.438189       -11.9237
  59   2.0000      -0.426313       -11.6006
  60   2.0000      -0.421785       -11.4774
  61   2.0000      -0.409443       -11.1415
  62   2.0000      -0.394926       -10.7465
  63   2.0000      -0.337432        -9.1820
  64   2.0000      -0.329664        -8.9706
  65   2.0000      -0.318687        -8.6719
  66   2.0000      -0.310045        -8.4367
  67   0.0000       0.044477         1.2103
  68   0.0000       0.054896         1.4938
  69   0.0000       0.112222         3.0537
  70   0.0000       0.124032         3.3751
  71   0.0000       0.134053         3.6478

MULLIKEN ATOMIC CHARGES
-----------------------
   0 S :    0.130239
   1 C :   -0.151655
   2 C :   -0.046754
   3 C :    0.072732
   4 C :   -0.200347
   5 H :   -0.009041
   6 C :    0.026679
   7 H :    0.020651
   8 H :    0.037467
   9 C :   -0.106754
  10 H :    0.035946
  11 H :    0.018178
  12 C :   -0.015821
  13 H :    0.025539
  14 H :    0.036106
  15 H :    0.033201
  16 S :    0.128402
  17 C :   -0.103739
  18 C :   -0.053342
  19 C :   -0.060074
  20 C :   -0.198185
  21 H :    0.029578
  22 C :    0.117253
  23 H :   -0.011805
  24 H :    0.045119
  25 C :   -0.059737
  26 H :    0.021550
  27 H :    0.031763
  28 C :   -0.045901
  29 H :    0.045848
  30 H :    0.022069
  31 H :    0.040408
  32 H :    0.072244
  33 H :    0.072185
Sum of atomic charges:    0.0000000

LOEWDIN ATOMIC CHARGES
----------------------
   0 S :    0.429529
   1 C :   -0.209905
   2 C :   -0.069504
   3 C :   -0.050757
   4 C :   -0.207411
   5 H :    0.022731
   6 C :   -0.044156
   7 H :    0.034555
   8 H :    0.035728
   9 C :   -0.059210
  10 H :    0.031857
  11 H :    0.021008
  12 C :   -0.056007
  13 H :    0.023065
  14 H :    0.025044
  15 H :    0.027075
  16 S :    0.415554
  17 C :   -0.199218
  18 C :   -0.084640
  19 C :   -0.052314
  20 C :   -0.212165
  21 H :    0.035422
  22 C :   -0.027251
  23 H :    0.020048
  24 H :    0.038868
  25 C :   -0.030574
  26 H :    0.024147
  27 H :    0.014875
  28 C :   -0.058253
  29 H :    0.025305
  30 H :    0.027903
  31 H :    0.026451
  32 H :    0.039987
  33 H :    0.042212

  Mayer bond orders larger than 0.100000
B(  0-S ,  1-C ) :   1.1772 B(  0-S ,  4-C ) :   1.1487 B(  1-C ,  2-C ) :   1.5781
B(  1-C , 32-H ) :   0.9635 B(  2-C ,  3-C ) :   1.2513 B(  2-C ,  6-C ) :   1.0128
B(  3-C ,  4-C ) :   1.5940 B(  3-C ,  5-H ) :   0.9947 B(  4-C , 20-C ) :   1.0395
B(  6-C ,  7-H ) :   0.9437 B(  6-C ,  8-H ) :   0.9419 B(  6-C ,  9-C ) :   1.0585
B(  9-C , 10-H ) :   0.9538 B(  9-C , 11-H ) :   0.9515 B(  9-C , 12-C ) :   1.0675
B( 12-C , 13-H ) :   0.9741 B( 12-C , 14-H ) :   0.9784 B( 12-C , 15-H ) :   0.9733
B( 16-S , 17-C ) :   1.1624 B( 16-S , 20-C ) :   1.1447 B( 17-C , 18-C ) :   1.6154
B( 17-C , 33-H ) :   0.9563 B( 18-C , 19-C ) :   1.2685 B( 18-C , 21-H ) :   0.9782
B( 19-C , 20-C ) :   1.5901 B( 19-C , 22-C ) :   1.0261 B( 22-C , 23-H ) :   0.9245
B( 22-C , 24-H ) :   0.9302 B( 22-C , 25-C ) :   1.0664 B( 25-C , 26-H ) :   0.9564
B( 25-C , 27-H ) :   0.9624 B( 25-C , 28-C ) :   1.0610 B( 28-C , 29-H ) :   0.9768
B( 28-C , 30-H ) :   0.9723 B( 28-C , 31-H ) :   0.9789

Dispersion correction           -0.014743493
FINAL SINGLE POINT ENERGY     -1339.870834801620

DIPOLE MOMENT
-------------
                                X             Y             Z
Electronic contribution:    -10.47230      20.98073       8.02295
Nuclear contribution   :     10.64947     -21.41930      -7.96714
                        -----------------------------------------
Total Dipole Moment    :      0.17717      -0.43857       0.05581
                        -----------------------------------------
Magnitude (a.u.)       :      0.47628
Magnitude (Debye)      :      1.21061

Rotational constants in cm-1:     0.019771     0.007908     0.007051
Rotational constants in MHz :   592.732828   237.061261   211.387906

                             ****ORCA TERMINATED NORMALLY****
TOTAL RUN TIME: 0 days 0 hours 0 minutes 21 seconds 498 msec
