                         Program Version 4.2.1 -  RELEASE  -
|  1> ! wB97X-D3 SP def2-SVP
|  2> %pal
|  3> nprocs 24
|  4> end
|  5>
|  6> * xyz 0 1
|  7> S 	 -120.999 	 63.7523 	 -39.0764
|  8> C 	 -119.805 	 64.9103 	 -39.6308
|  9> C 	 -119.837 	 66.0237 	 -38.7863
| 10> C 	 -120.831 	 66.0057 	 -37.7316
| 11> C 	 -121.492 	 64.8161 	 -37.6297
| 12> H 	 -120.855 	 66.7271 	 -36.9435
| 13> C 	 -119.01 	 67.2367 	 -39.0065
| 14> H 	 -118.065 	 67.1396 	 -38.6098
| 15> H 	 -119.487 	 68.0322 	 -38.4271
| 16> C 	 -118.908 	 67.6914 	 -40.5004
| 17> H 	 -118.266 	 68.5431 	 -40.5562
| 18> H 	 -118.276 	 67.1009 	 -41.1681
| 19> C 	 -120.304 	 67.9553 	 -41.2175
| 20> H 	 -120.916 	 67.0741 	 -41.3425
| 21> H 	 -120.961 	 68.5787 	 -40.5825
| 22> H 	 -120.189 	 68.47 	 -42.155
| 23> S 	 -124.069 	 63.7964 	 -36.947
| 24> C 	 -124.623 	 63.989 	 -35.3163
| 25> C 	 -123.616 	 64.6204 	 -34.5794
| 26> C 	 -122.396 	 64.8583 	 -35.2631
| 27> C 	 -122.478 	 64.5519 	 -36.601
| 28> H 	 -123.836 	 64.8576 	 -33.539
| 29> C 	 -121.274 	 65.5568 	 -34.4816
| 30> H 	 -121.727 	 65.9371 	 -33.5356
| 31> H 	 -120.792 	 66.4344 	 -34.8616
| 32> C 	 -120.131 	 64.6133 	 -34.0499
| 33> H 	 -119.744 	 64.2278 	 -35.0281
| 34> H 	 -120.358 	 63.6974 	 -33.5313
| 35> C 	 -119.128 	 65.2813 	 -33.1632
| 36> H 	 -118.504 	 64.561 	 -32.7023
| 37> H 	 -119.654 	 65.7196 	 -32.4155
| 38> H 	 -118.404 	 65.9955 	 -33.6083
| 39> H 	 -119.35 	 64.9539 	 -40.6057
| 40> H 	 -125.557 	 63.664 	 -34.896
| 41> *
| 42>
| 43>                          ****END OF INPUT****

CARTESIAN COORDINATES (ANGSTROEM)
---------------------------------
  S    -120.999000   63.752300  -39.076400
  C    -119.805000   64.910300  -39.630800
  C    -119.837000   66.023700  -38.786300
  C    -120.831000   66.005700  -37.731600
  C    -121.492000   64.816100  -37.629700
  H    -120.855000   66.727100  -36.943500
  C    -119.010000   67.236700  -39.006500
  H    -118.065000   67.139600  -38.609800
  H    -119.487000   68.032200  -38.427100
  C    -118.908000   67.691400  -40.500400
  H    -118.266000   68.543100  -40.556200
  H    -118.276000   67.100900  -41.168100
  C    -120.304000   67.955300  -41.217500
  H    -120.916000   67.074100  -41.342500
  H    -120.961000   68.578700  -40.582500
  H    -120.189000   68.470000  -42.155000
  S    -124.069000   63.796400  -36.947000
  C    -124.623000   63.989000  -35.316300
  C    -123.616000   64.620400  -34.579400
  C    -122.396000   64.858300  -35.263100
  C    -122.478000   64.551900  -36.601000
  H    -123.836000   64.857600  -33.539000
  C    -121.274000   65.556800  -34.481600
  H    -121.727000   65.937100  -33.535600
  H    -120.792000   66.434400  -34.861600
  C    -120.131000   64.613300  -34.049900
  H    -119.744000   64.227800  -35.028100
  H    -120.358000   63.697400  -33.531300
  C    -119.128000   65.281300  -33.163200
  H    -118.504000   64.561000  -32.702300
  H    -119.654000   65.719600  -32.415500
  H    -118.404000   65.995500  -33.608300
  H    -119.350000   64.953900  -40.605700
  H    -125.557000   63.664000  -34.896000

 Total Charge           Charge          ....    0
 Multiplicity           Mult            ....    1
 Number of Electrons    NEL             ....  134
 Basis Dimension        Dim             ....  322

ORBITAL ENERGIES
----------------

  NO   OCC          E(Eh)            E(eV)
   0   2.0000     -88.968359     -2420.9521
   1   2.0000     -88.965548     -2420.8756
   2   2.0000     -10.337874      -281.3078
   3   2.0000     -10.332970      -281.1744
   4   2.0000     -10.321054      -280.8501
   5   2.0000     -10.315198      -280.6908
   6   2.0000     -10.307636      -280.4850
   7   2.0000     -10.299766      -280.2709
   8   2.0000     -10.297696      -280.2146
   9   2.0000     -10.295642      -280.1587
  10   2.0000     -10.294414      -280.1253
  11   2.0000     -10.291644      -280.0499
  12   2.0000     -10.286533      -279.9108
  13   2.0000     -10.282371      -279.7975
  14   2.0000     -10.278281      -279.6863
  15   2.0000     -10.266461      -279.3646
  16   2.0000      -8.082587      -219.9384
  17   2.0000      -8.078470      -219.8263
  18   2.0000      -6.041196      -164.3893
  19   2.0000      -6.037347      -164.2846
  20   2.0000      -6.037035      -164.2761
  21   2.0000      -6.033391      -164.1769
  22   2.0000      -6.033185      -164.1713
  23   2.0000      -6.028970      -164.0566
  24   2.0000      -1.002416       -27.2771
  25   2.0000      -0.978594       -26.6289
  26   2.0000      -0.913388       -24.8546
  27   2.0000      -0.905561       -24.6416
  28   2.0000      -0.872381       -23.7387
  29   2.0000      -0.854745       -23.2588
  30   2.0000      -0.841308       -22.8932
  31   2.0000      -0.812464       -22.1083
  32   2.0000      -0.786541       -21.4029
  33   2.0000      -0.772445       -21.0193
  34   2.0000      -0.715309       -19.4646
  35   2.0000      -0.708933       -19.2910
  36   2.0000      -0.695178       -18.9167
  37   2.0000      -0.664427       -18.0800
  38   2.0000      -0.637323       -17.3424
  39   2.0000      -0.619478       -16.8568
  40   2.0000      -0.600724       -16.3465
  41   2.0000      -0.568641       -15.4735
  42   2.0000      -0.563742       -15.3402
  43   2.0000      -0.556591       -15.1456
  44   2.0000      -0.532648       -14.4941
  45   2.0000      -0.528321       -14.3764
  46   2.0000      -0.520690       -14.1687
  47   2.0000      -0.512670       -13.9505
  48   2.0000      -0.507008       -13.7964
  49   2.0000      -0.499610       -13.5951
  50   2.0000      -0.490607       -13.3501
  51   2.0000      -0.482072       -13.1178
  52   2.0000      -0.476717       -12.9721
  53   2.0000      -0.463825       -12.6213
  54   2.0000      -0.458063       -12.4645
  55   2.0000      -0.448979       -12.2173
  56   2.0000      -0.440456       -11.9854
  57   2.0000      -0.437719       -11.9109
  58   2.0000      -0.434284       -11.8175
  59   2.0000      -0.427078       -11.6214
  60   2.0000      -0.420608       -11.4453
  61   2.0000      -0.408740       -11.1224
  62   2.0000      -0.404552       -11.0084
  63   2.0000      -0.354760        -9.6535
  64   2.0000      -0.333939        -9.0869
  65   2.0000      -0.325056        -8.8452
  66   2.0000      -0.290862        -7.9147
  67   0.0000       0.017962         0.4888
  68   0.0000       0.070634         1.9221
  69   0.0000       0.106075         2.8864
  70   0.0000       0.120027         3.2661
  71   0.0000       0.130380         3.5478

MULLIKEN ATOMIC CHARGES
-----------------------
   0 S :    0.089601
   1 C :   -0.097843
   2 C :   -0.138564
   3 C :    0.038511
   4 C :   -0.124089
   5 H :    0.006335
   6 C :    0.125568
   7 H :    0.022824
   8 H :    0.017076
   9 C :   -0.092512
  10 H :    0.010757
  11 H :    0.018182
  12 C :   -0.050116
  13 H :    0.038952
  14 H :    0.024465
  15 H :    0.036532
  16 S :    0.112038
  17 C :   -0.086546
  18 C :   -0.055639
  19 C :    0.013740
  20 C :   -0.159605
  21 H :    0.023555
  22 C :    0.041830
  23 H :    0.013620
  24 H :    0.026252
  25 C :   -0.091638
  26 H :    0.034238
  27 H :    0.023773
  28 C :    0.013157
  29 H :    0.017426
  30 H :   -0.000398
  31 H :    0.032184
  32 H :    0.059353
  33 H :    0.056981
Sum of atomic charges:   -0.0000000

LOEWDIN ATOMIC CHARGES
----------------------
   0 S :    0.356458
   1 C :   -0.195276
   2 C :   -0.062741
   3 C :   -0.054584
   4 C :   -0.155401
   5 H :    0.027801
   6 C :   -0.025849
   7 H :    0.024587
   8 H :    0.031855
   9 C :   -0.043447
  10 H :    0.021544
  11 H :    0.021087
  12 C :   -0.066397
  13 H :    0.024670
  14 H :    0.026799
  15 H :    0.024667
  16 S :    0.401228
  17 C :   -0.187220
  18 C :   -0.072827
  19 C :   -0.052878
  20 C :   -0.183741
  21 H :    0.031125
  22 C :   -0.027593
  23 H :    0.029623
  24 H :    0.024074
  25 C :   -0.041442
  26 H :    0.028102
  27 H :    0.024416
  28 C :   -0.058112
  29 H :    0.025253
  30 H :    0.011350
  31 H :    0.028375
  32 H :    0.032565
  33 H :    0.031930

  Mayer bond orders larger than 0.100000
B(  0-S ,  1-C ) :   1.1195 B(  0-S ,  4-C ) :   1.1047 B(  1-C ,  2-C ) :   1.6212
B(  1-C , 32-H ) :   0.9622 B(  2-C ,  3-C ) :   1.2356 B(  2-C ,  6-C ) :   1.0285
B(  3-C ,  4-C ) :   1.5898 B(  3-C ,  5-H ) :   0.9852 B(  4-C , 20-C ) :   1.0965
B(  6-C ,  7-H ) :   0.9260 B(  6-C ,  8-H ) :   0.9415 B(  6-C ,  9-C ) :   1.0774
B(  9-C , 10-H ) :   0.9513 B(  9-C , 11-H ) :   0.9516 B(  9-C , 12-C ) :   1.0610
B( 12-C , 13-H ) :   0.9758 B( 12-C , 14-H ) :   0.9776 B( 12-C , 15-H ) :   0.9770
B( 16-S , 17-C ) :   1.1620 B( 16-S , 20-C ) :   1.1233 B( 17-C , 18-C ) :   1.5944
B( 17-C , 33-H ) :   0.9702 B( 18-C , 19-C ) :   1.2643 B( 18-C , 21-H ) :   0.9848
B( 19-C , 20-C ) :   1.5741 B( 19-C , 22-C ) :   1.0241 B( 22-C , 23-H ) :   0.9354
B( 22-C , 24-H ) :   0.9455 B( 22-C , 25-C ) :   1.0517 B( 25-C , 26-H ) :   0.9548
B( 25-C , 27-H ) :   0.9574 B( 25-C , 28-C ) :   1.0847 B( 28-C , 29-H ) :   0.9711
B( 28-C , 30-H ) :   0.9674 B( 28-C , 31-H ) :   0.9713

Dispersion correction           -0.014504152
FINAL SINGLE POINT ENERGY     -1339.857509843788

DIPOLE MOMENT
-------------
                                X             Y             Z
Electronic contribution:    -17.62003     -17.12378      -5.22867
Nuclear contribution   :     17.93128      17.70658       5.68229
                        -----------------------------------------
Total Dipole Moment    :      0.31124       0.58280       0.45362
                        -----------------------------------------
Magnitude (a.u.)       :      0.80144
Magnitude (Debye)      :      2.03709

Rotational constants in cm-1:     0.018215     0.008673     0.006830
Rotational constants in MHz :   546.083084   260.013254   204.760655

                             ****ORCA TERMINATED NORMALLY****
TOTAL RUN TIME: 0 days 0 hours 0 minutes 21 seconds 664 msec
