                         Program Version 4.2.1 -  RELEASE  -
|  1> ! wB97X-D3 SP def2-SVP
|  2> %pal
|  3> nprocs 24
|  4> end
|  5>
|  6> * xyz 0 1
|  7> S 	 -137.597 	 23.9428 	 -16.8884
|  8> C 	 -138.779 	 23.176 	 -17.9297
|  9> C 	 -138.146 	 22.6084 	 -19.0212
| 10> C 	 -136.83 	 23.0984 	 -19.0915
| 11> C 	 -136.395 	 23.8941 	 -18.0589
| 12> H 	 -136.129 	 22.7904 	 -19.8927
| 13> C 	 -138.829 	 22.0037 	 -20.2086
| 14> H 	 -138.602 	 22.6969 	 -21.0564
| 15> H 	 -139.883 	 22.108 	 -19.9954
| 16> C 	 -138.395 	 20.6114 	 -20.6365
| 17> H 	 -138.988 	 20.2127 	 -21.3736
| 18> H 	 -137.355 	 20.7417 	 -21.0743
| 19> C 	 -138.496 	 19.6513 	 -19.4697
| 20> H 	 -137.673 	 19.8463 	 -18.8127
| 21> H 	 -139.399 	 19.7984 	 -18.9155
| 22> H 	 -138.454 	 18.5832 	 -19.8165
| 23> S 	 -134.345 	 24.104 	 -16.2401
| 24> C 	 -132.771 	 24.5947 	 -16.797
| 25> C 	 -132.863 	 25.2079 	 -18.0323
| 26> C 	 -134.207 	 25.142 	 -18.5168
| 27> C 	 -135.058 	 24.3999 	 -17.7731
| 28> H 	 -131.984 	 25.6537 	 -18.4794
| 29> C 	 -134.426 	 25.6641 	 -19.9175
| 30> H 	 -133.821 	 26.5218 	 -20.0072
| 31> H 	 -135.461 	 26.0537 	 -19.9306
| 32> C 	 -134.139 	 24.7489 	 -21.1132
| 33> H 	 -134.572 	 23.7957 	 -20.8646
| 34> H 	 -133.052 	 24.5437 	 -21.13
| 35> C 	 -134.701 	 25.1608 	 -22.5207
| 36> H 	 -134.19 	 25.9871 	 -23.1049
| 37> H 	 -135.677 	 25.5287 	 -22.3585
| 38> H 	 -134.764 	 24.2655 	 -23.0462
| 39> H 	 -139.824 	 23.0338 	 -17.7884
| 40> H 	 -131.975 	 24.5902 	 -16.1307
| 41> *
| 42>
| 43>                          ****END OF INPUT****

CARTESIAN COORDINATES (ANGSTROEM)
---------------------------------
  S    -137.597000   23.942800  -16.888400
  C    -138.779000   23.176000  -17.929700
  C    -138.146000   22.608400  -19.021200
  C    -136.830000   23.098400  -19.091500
  C    -136.395000   23.894100  -18.058900
  H    -136.129000   22.790400  -19.892700
  C    -138.829000   22.003700  -20.208600
  H    -138.602000   22.696900  -21.056400
  H    -139.883000   22.108000  -19.995400
  C    -138.395000   20.611400  -20.636500
  H    -138.988000   20.212700  -21.373600
  H    -137.355000   20.741700  -21.074300
  C    -138.496000   19.651300  -19.469700
  H    -137.673000   19.846300  -18.812700
  H    -139.399000   19.798400  -18.915500
  H    -138.454000   18.583200  -19.816500
  S    -134.345000   24.104000  -16.240100
  C    -132.771000   24.594700  -16.797000
  C    -132.863000   25.207900  -18.032300
  C    -134.207000   25.142000  -18.516800
  C    -135.058000   24.399900  -17.773100
  H    -131.984000   25.653700  -18.479400
  C    -134.426000   25.664100  -19.917500
  H    -133.821000   26.521800  -20.007200
  H    -135.461000   26.053700  -19.930600
  C    -134.139000   24.748900  -21.113200
  H    -134.572000   23.795700  -20.864600
  H    -133.052000   24.543700  -21.130000
  C    -134.701000   25.160800  -22.520700
  H    -134.190000   25.987100  -23.104900
  H    -135.677000   25.528700  -22.358500
  H    -134.764000   24.265500  -23.046200
  H    -139.824000   23.033800  -17.788400
  H    -131.975000   24.590200  -16.130700

 Total Charge           Charge          ....    0
 Multiplicity           Mult            ....    1
 Number of Electrons    NEL             ....  134
 Basis Dimension        Dim             ....  322

ORBITAL ENERGIES
----------------

  NO   OCC          E(Eh)            E(eV)
   0   2.0000     -88.966302     -2420.8962
   1   2.0000     -88.961522     -2420.7661
   2   2.0000     -10.325724      -280.9772
   3   2.0000     -10.322540      -280.8906
   4   2.0000     -10.313196      -280.6363
   5   2.0000     -10.312992      -280.6308
   6   2.0000     -10.296899      -280.1929
   7   2.0000     -10.296859      -280.1918
   8   2.0000     -10.294498      -280.1275
   9   2.0000     -10.292272      -280.0670
  10   2.0000     -10.291087      -280.0347
  11   2.0000     -10.287932      -279.9489
  12   2.0000     -10.283690      -279.8334
  13   2.0000     -10.282195      -279.7928
  14   2.0000     -10.277821      -279.6737
  15   2.0000     -10.272557      -279.5305
  16   2.0000      -8.082385      -219.9329
  17   2.0000      -8.077612      -219.8030
  18   2.0000      -6.040837      -164.3795
  19   2.0000      -6.036632      -164.2651
  20   2.0000      -6.036096      -164.2505
  21   2.0000      -6.033195      -164.1716
  22   2.0000      -6.031965      -164.1381
  23   2.0000      -6.028292      -164.0382
  24   2.0000      -1.020781       -27.7769
  25   2.0000      -0.996425       -27.1141
  26   2.0000      -0.922502       -25.1026
  27   2.0000      -0.906278       -24.6611
  28   2.0000      -0.875417       -23.8213
  29   2.0000      -0.852042       -23.1852
  30   2.0000      -0.847255       -23.0550
  31   2.0000      -0.818176       -22.2637
  32   2.0000      -0.784923       -21.3589
  33   2.0000      -0.778526       -21.1848
  34   2.0000      -0.713040       -19.4028
  35   2.0000      -0.703069       -19.1315
  36   2.0000      -0.697177       -18.9712
  37   2.0000      -0.669620       -18.2213
  38   2.0000      -0.639433       -17.3998
  39   2.0000      -0.624246       -16.9866
  40   2.0000      -0.596723       -16.2377
  41   2.0000      -0.571908       -15.5624
  42   2.0000      -0.558599       -15.2002
  43   2.0000      -0.557138       -15.1605
  44   2.0000      -0.552742       -15.0409
  45   2.0000      -0.530185       -14.4271
  46   2.0000      -0.523962       -14.2577
  47   2.0000      -0.516174       -14.0458
  48   2.0000      -0.512443       -13.9443
  49   2.0000      -0.498266       -13.5585
  50   2.0000      -0.489213       -13.3122
  51   2.0000      -0.482930       -13.1412
  52   2.0000      -0.472826       -12.8662
  53   2.0000      -0.466492       -12.6939
  54   2.0000      -0.462890       -12.5959
  55   2.0000      -0.450312       -12.2536
  56   2.0000      -0.442081       -12.0296
  57   2.0000      -0.439362       -11.9557
  58   2.0000      -0.431939       -11.7536
  59   2.0000      -0.426048       -11.5934
  60   2.0000      -0.419766       -11.4224
  61   2.0000      -0.414274       -11.2730
  62   2.0000      -0.413589       -11.2543
  63   2.0000      -0.351601        -9.5675
  64   2.0000      -0.331158        -9.0113
  65   2.0000      -0.328595        -8.9415
  66   2.0000      -0.294936        -8.0256
  67   0.0000       0.032728         0.8906
  68   0.0000       0.067272         1.8306
  69   0.0000       0.108098         2.9415
  70   0.0000       0.114447         3.1143
  71   0.0000       0.131415         3.5760

MULLIKEN ATOMIC CHARGES
-----------------------
   0 S :    0.113184
   1 C :   -0.102864
   2 C :   -0.080906
   3 C :   -0.009672
   4 C :   -0.124006
   5 H :    0.016037
   6 C :    0.021314
   7 H :    0.044701
   8 H :    0.011829
   9 C :   -0.036840
  10 H :    0.012693
  11 H :    0.035076
  12 C :   -0.047828
  13 H :    0.040127
  14 H :    0.023276
  15 H :    0.039191
  16 S :    0.095292
  17 C :   -0.068325
  18 C :   -0.028863
  19 C :   -0.068686
  20 C :   -0.129910
  21 H :    0.025178
  22 C :    0.085690
  23 H :    0.004758
  24 H :    0.022105
  25 C :   -0.055833
  26 H :   -0.000443
  27 H :    0.022506
  28 C :   -0.016898
  29 H :    0.047845
  30 H :    0.016081
  31 H :    0.026394
  32 H :    0.033300
  33 H :    0.034497
Sum of atomic charges:   -0.0000000

LOEWDIN ATOMIC CHARGES
----------------------
   0 S :    0.436483
   1 C :   -0.190260
   2 C :   -0.067742
   3 C :   -0.069865
   4 C :   -0.211681
   5 H :    0.029056
   6 C :   -0.031864
   7 H :    0.039761
   8 H :    0.024786
   9 C :   -0.038600
  10 H :    0.013752
  11 H :    0.030517
  12 C :   -0.061787
  13 H :    0.025466
  14 H :    0.021653
  15 H :    0.030874
  16 S :    0.413528
  17 C :   -0.168652
  18 C :   -0.065258
  19 C :   -0.062585
  20 C :   -0.206033
  21 H :    0.034775
  22 C :   -0.034729
  23 H :    0.021752
  24 H :    0.030773
  25 C :   -0.036112
  26 H :    0.015605
  27 H :    0.024670
  28 C :   -0.059117
  29 H :    0.034080
  30 H :    0.020035
  31 H :    0.021026
  32 H :    0.023175
  33 H :    0.012521

  Mayer bond orders larger than 0.100000
B(  0-S ,  1-C ) :   1.1524 B(  0-S ,  4-C ) :   1.1607 B(  1-C ,  2-C ) :   1.5819
B(  1-C ,  4-C ) :   0.1019 B(  1-C , 32-H ) :   0.9669 B(  2-C ,  3-C ) :   1.2598
B(  2-C ,  6-C ) :   1.0211 B(  3-C ,  4-C ) :   1.5684 B(  3-C ,  5-H ) :   0.9848
B(  4-C , 20-C ) :   1.0242 B(  6-C ,  7-H ) :   0.9492 B(  6-C ,  8-H ) :   0.9419
B(  6-C ,  9-C ) :   1.0728 B(  9-C , 10-H ) :   0.9542 B(  9-C , 11-H ) :   0.9532
B(  9-C , 12-C ) :   1.0767 B( 12-C , 13-H ) :   0.9701 B( 12-C , 14-H ) :   0.9746
B( 12-C , 15-H ) :   0.9755 B( 16-S , 17-C ) :   1.1653 B( 16-S , 20-C ) :   1.1335
B( 17-C , 18-C ) :   1.5891 B( 17-C , 33-H ) :   0.9795 B( 18-C , 19-C ) :   1.2254
B( 18-C , 21-H ) :   0.9991 B( 19-C , 20-C ) :   1.6158 B( 19-C , 22-C ) :   1.0690
B( 22-C , 23-H ) :   0.9270 B( 22-C , 24-H ) :   0.9220 B( 22-C , 25-C ) :   1.0675
B( 25-C , 26-H ) :   0.9561 B( 25-C , 27-H ) :   0.9466 B( 25-C , 28-C ) :   1.0730
B( 28-C , 29-H ) :   0.9773 B( 28-C , 30-H ) :   0.9734 B( 28-C , 31-H ) :   0.9751

Dispersion correction           -0.014652071
FINAL SINGLE POINT ENERGY     -1339.864352382029

DIPOLE MOMENT
-------------
                                X             Y             Z
Electronic contribution:      3.43007       8.39302      26.46945
Nuclear contribution   :     -3.40865      -8.50083     -27.10147
                        -----------------------------------------
Total Dipole Moment    :      0.02142      -0.10781      -0.63202
                        -----------------------------------------
Magnitude (a.u.)       :      0.64151
Magnitude (Debye)      :      1.63058

Rotational constants in cm-1:     0.017501     0.009622     0.007232
Rotational constants in MHz :   524.657031   288.450221   216.799317

                             ****ORCA TERMINATED NORMALLY****
TOTAL RUN TIME: 0 days 0 hours 0 minutes 22 seconds 341 msec
