                         Program Version 4.2.1 -  RELEASE  -
|  1> ! wB97X-D3 SP def2-SVP
|  2> %pal
|  3> nprocs 24
|  4> end
|  5>
|  6> * xyz 0 1
|  7> S 	 -62.371 	 8.68874 	 19.6976
|  8> C 	 -60.9177 	 9.69539 	 19.7987
|  9> C 	 -60.6641 	 10.1282 	 21.113
| 10> C 	 -61.5945 	 9.51242 	 21.9983
| 11> C 	 -62.6008 	 8.78916 	 21.4028
| 12> H 	 -61.6808 	 9.59155 	 23.0451
| 13> C 	 -59.5671 	 11.1283 	 21.4914
| 14> H 	 -59.2842 	 11.1161 	 22.611
| 15> H 	 -59.9817 	 12.0855 	 21.3228
| 16> C 	 -58.308 	 10.9803 	 20.6099
| 17> H 	 -57.7802 	 10.0023 	 20.7677
| 18> H 	 -58.5605 	 10.9087 	 19.5101
| 19> C 	 -57.2401 	 12.1316 	 20.8725
| 20> H 	 -56.4548 	 11.9415 	 20.2156
| 21> H 	 -57.7456 	 13.0541 	 20.4762
| 22> H 	 -57.0726 	 12.266 	 22.0021
| 23> S 	 -64.39 	 8.83059 	 23.5333
| 24> C 	 -65.642 	 7.53426 	 23.6712
| 25> C 	 -65.2866 	 6.52377 	 22.7731
| 26> C 	 -64.1745 	 6.77726 	 21.9275
| 27> C 	 -63.6046 	 8.06661 	 22.1749
| 28> H 	 -66.0668 	 5.74286 	 22.7559
| 29> C 	 -63.7615 	 5.69409 	 20.8868
| 30> H 	 -62.8287 	 5.96585 	 20.4518
| 31> H 	 -64.4401 	 5.82081 	 20.1087
| 32> C 	 -63.734 	 4.25546 	 21.425
| 33> H 	 -64.747 	 3.95474 	 21.6345
| 34> H 	 -63.1489 	 4.26595 	 22.3782
| 35> C 	 -63.1889 	 3.19838 	 20.4341
| 36> H 	 -64.0355 	 2.70845 	 19.8634
| 37> H 	 -62.6433 	 2.47478 	 20.9646
| 38> H 	 -62.5124 	 3.60628 	 19.693
| 39> H 	 -60.4276 	 10.0108 	 18.8397
| 40> H 	 -66.5363 	 7.54777 	 24.2668
| 41> *
| 42>
| 43>                          ****END OF INPUT****

CARTESIAN COORDINATES (ANGSTROEM)
---------------------------------
  S    -62.371000    8.688740   19.697600
  C    -60.917700    9.695390   19.798700
  C    -60.664100   10.128200   21.113000
  C    -61.594500    9.512420   21.998300
  C    -62.600800    8.789160   21.402800
  H    -61.680800    9.591550   23.045100
  C    -59.567100   11.128300   21.491400
  H    -59.284200   11.116100   22.611000
  H    -59.981700   12.085500   21.322800
  C    -58.308000   10.980300   20.609900
  H    -57.780200   10.002300   20.767700
  H    -58.560500   10.908700   19.510100
  C    -57.240100   12.131600   20.872500
  H    -56.454800   11.941500   20.215600
  H    -57.745600   13.054100   20.476200
  H    -57.072600   12.266000   22.002100
  S    -64.390000    8.830590   23.533300
  C    -65.642000    7.534260   23.671200
  C    -65.286600    6.523770   22.773100
  C    -64.174500    6.777260   21.927500
  C    -63.604600    8.066610   22.174900
  H    -66.066800    5.742860   22.755900
  C    -63.761500    5.694090   20.886800
  H    -62.828700    5.965850   20.451800
  H    -64.440100    5.820810   20.108700
  C    -63.734000    4.255460   21.425000
  H    -64.747000    3.954740   21.634500
  H    -63.148900    4.265950   22.378200
  C    -63.188900    3.198380   20.434100
  H    -64.035500    2.708450   19.863400
  H    -62.643300    2.474780   20.964600
  H    -62.512400    3.606280   19.693000
  H    -60.427600   10.010800   18.839700
  H    -66.536300    7.547770   24.266800

 Total Charge           Charge          ....    0
 Multiplicity           Mult            ....    1
 Number of Electrons    NEL             ....  134
 Basis Dimension        Dim             ....  322

ORBITAL ENERGIES
----------------

  NO   OCC          E(Eh)            E(eV)
   0   2.0000     -88.969907     -2420.9942
   1   2.0000     -88.966560     -2420.9032
   2   2.0000     -10.332520      -281.1622
   3   2.0000     -10.326031      -280.9856
   4   2.0000     -10.321190      -280.8539
   5   2.0000     -10.321027      -280.8494
   6   2.0000     -10.309762      -280.5429
   7   2.0000     -10.308711      -280.5143
   8   2.0000     -10.301278      -280.3120
   9   2.0000     -10.297440      -280.2076
  10   2.0000     -10.296743      -280.1886
  11   2.0000     -10.288097      -279.9533
  12   2.0000     -10.287682      -279.9421
  13   2.0000     -10.286991      -279.9233
  14   2.0000     -10.284175      -279.8466
  15   2.0000     -10.276711      -279.6435
  16   2.0000      -8.084214      -219.9826
  17   2.0000      -8.080159      -219.8723
  18   2.0000      -6.042670      -164.4294
  19   2.0000      -6.038763      -164.3231
  20   2.0000      -6.038737      -164.3224
  21   2.0000      -6.035107      -164.2236
  22   2.0000      -6.034728      -164.2133
  23   2.0000      -6.030986      -164.1115
  24   2.0000      -1.004281       -27.3279
  25   2.0000      -0.977570       -26.6010
  26   2.0000      -0.906824       -24.6759
  27   2.0000      -0.903690       -24.5907
  28   2.0000      -0.865725       -23.5576
  29   2.0000      -0.850852       -23.1529
  30   2.0000      -0.840721       -22.8772
  31   2.0000      -0.811586       -22.0844
  32   2.0000      -0.782910       -21.3041
  33   2.0000      -0.768917       -20.9233
  34   2.0000      -0.706100       -19.2139
  35   2.0000      -0.699000       -19.0208
  36   2.0000      -0.692591       -18.8464
  37   2.0000      -0.658708       -17.9244
  38   2.0000      -0.636003       -17.3065
  39   2.0000      -0.612652       -16.6711
  40   2.0000      -0.591480       -16.0950
  41   2.0000      -0.570733       -15.5304
  42   2.0000      -0.566763       -15.4224
  43   2.0000      -0.553231       -15.0542
  44   2.0000      -0.530810       -14.4441
  45   2.0000      -0.525296       -14.2940
  46   2.0000      -0.517130       -14.0718
  47   2.0000      -0.513751       -13.9799
  48   2.0000      -0.500766       -13.6265
  49   2.0000      -0.496910       -13.5216
  50   2.0000      -0.489833       -13.3290
  51   2.0000      -0.475201       -12.9309
  52   2.0000      -0.473317       -12.8796
  53   2.0000      -0.467119       -12.7109
  54   2.0000      -0.456123       -12.4117
  55   2.0000      -0.445195       -12.1144
  56   2.0000      -0.439987       -11.9727
  57   2.0000      -0.437659       -11.9093
  58   2.0000      -0.427773       -11.6403
  59   2.0000      -0.426643       -11.6095
  60   2.0000      -0.420955       -11.4548
  61   2.0000      -0.414556       -11.2807
  62   2.0000      -0.412292       -11.2190
  63   2.0000      -0.351757        -9.5718
  64   2.0000      -0.333309        -9.0698
  65   2.0000      -0.328472        -8.9382
  66   2.0000      -0.283403        -7.7118
  67   0.0000       0.022970         0.6251
  68   0.0000       0.072353         1.9688
  69   0.0000       0.109083         2.9683
  70   0.0000       0.117080         3.1859
  71   0.0000       0.133062         3.6208

MULLIKEN ATOMIC CHARGES
-----------------------
   0 S :    0.116351
   1 C :   -0.185411
   2 C :   -0.029391
   3 C :   -0.001301
   4 C :   -0.114922
   5 H :   -0.007529
   6 C :    0.090783
   7 H :    0.043622
   8 H :    0.031267
   9 C :   -0.165330
  10 H :    0.041222
  11 H :    0.034660
  12 C :   -0.036862
  13 H :    0.031155
  14 H :    0.030445
  15 H :    0.056174
  16 S :    0.091573
  17 C :   -0.111909
  18 C :   -0.056691
  19 C :   -0.062450
  20 C :   -0.151704
  21 H :    0.034315
  22 C :    0.132144
  23 H :    0.005089
  24 H :    0.017824
  25 C :   -0.108805
  26 H :    0.029024
  27 H :    0.047134
  28 C :   -0.029060
  29 H :    0.040312
  30 H :    0.026625
  31 H :    0.026481
  32 H :    0.075415
  33 H :    0.059750
Sum of atomic charges:   -0.0000000

LOEWDIN ATOMIC CHARGES
----------------------
   0 S :    0.420136
   1 C :   -0.206090
   2 C :   -0.052794
   3 C :   -0.065552
   4 C :   -0.198683
   5 H :    0.019158
   6 C :   -0.032793
   7 H :    0.041269
   8 H :    0.029139
   9 C :   -0.050004
  10 H :    0.026166
  11 H :    0.025041
  12 C :   -0.066419
  13 H :    0.017928
  14 H :    0.028149
  15 H :    0.037962
  16 S :    0.388934
  17 C :   -0.175606
  18 C :   -0.073884
  19 C :   -0.057899
  20 C :   -0.195880
  21 H :    0.036849
  22 C :   -0.026733
  23 H :    0.014962
  24 H :    0.023622
  25 C :   -0.039482
  26 H :    0.020749
  27 H :    0.032292
  28 C :   -0.063118
  29 H :    0.033659
  30 H :    0.021301
  31 H :    0.023277
  32 H :    0.033654
  33 H :    0.030688

  Mayer bond orders larger than 0.100000
B(  0-S ,  1-C ) :   1.1455 B(  0-S ,  4-C ) :   1.1516 B(  1-C ,  2-C ) :   1.5733
B(  1-C , 32-H ) :   0.9609 B(  2-C ,  3-C ) :   1.2535 B(  2-C ,  6-C ) :   1.0095
B(  3-C ,  4-C ) :   1.5530 B(  3-C ,  5-H ) :   1.0022 B(  4-C , 20-C ) :   1.0562
B(  6-C ,  7-H ) :   0.9467 B(  6-C ,  8-H ) :   0.9328 B(  6-C ,  9-C ) :   1.0534
B(  9-C , 10-H ) :   0.9612 B(  9-C , 11-H ) :   0.9518 B(  9-C , 12-C ) :   1.0721
B( 12-C , 13-H ) :   0.9742 B( 12-C , 14-H ) :   0.9769 B( 12-C , 15-H ) :   0.9739
B( 16-S , 17-C ) :   1.1353 B( 16-S , 20-C ) :   1.1523 B( 17-C , 18-C ) :   1.6145
B( 17-C , 20-C ) :   0.1075 B( 17-C , 33-H ) :   0.9703 B( 18-C , 19-C ) :   1.2424
B( 18-C , 21-H ) :   0.9821 B( 19-C , 20-C ) :   1.5472 B( 19-C , 22-C ) :   1.0241
B( 22-C , 23-H ) :   0.9270 B( 22-C , 24-H ) :   0.9288 B( 22-C , 25-C ) :   1.0692
B( 25-C , 26-H ) :   0.9523 B( 25-C , 27-H ) :   0.9656 B( 25-C , 28-C ) :   1.0742
B( 28-C , 29-H ) :   0.9771 B( 28-C , 30-H ) :   0.9760 B( 28-C , 31-H ) :   0.9780

Dispersion correction           -0.013206422
FINAL SINGLE POINT ENERGY     -1339.864375046950

DIPOLE MOMENT
-------------
                                X             Y             Z
Electronic contribution:    -16.47716       5.97746       5.32935
Nuclear contribution   :     16.62317      -6.08174      -5.46789
                        -----------------------------------------
Total Dipole Moment    :      0.14601      -0.10428      -0.13854
                        -----------------------------------------
Magnitude (a.u.)       :      0.22669
Magnitude (Debye)      :      0.57619

Rotational constants in cm-1:     0.021546     0.006829     0.005654
Rotational constants in MHz :   645.933210   204.715895   169.491413

                             ****ORCA TERMINATED NORMALLY****
TOTAL RUN TIME: 0 days 0 hours 0 minutes 19 seconds 218 msec
