                         Program Version 4.2.1 -  RELEASE  -
|  1> ! wB97X-D3 SP def2-SVP
|  2> %pal
|  3> nprocs 24
|  4> end
|  5>
|  6> * xyz 0 1
|  7> S 	 -81.8839 	 -42.8813 	 -88.8868
|  8> C 	 -80.3408 	 -42.8154 	 -88.03
|  9> C 	 -80.1241 	 -43.989 	 -87.3235
| 10> C 	 -81.2587 	 -44.8915 	 -87.4418
| 11> C 	 -82.2035 	 -44.4803 	 -88.4079
| 12> H 	 -81.5158 	 -45.8031 	 -86.9112
| 13> C 	 -79.0231 	 -44.2467 	 -86.3491
| 14> H 	 -78.2921 	 -43.4522 	 -86.4798
| 15> H 	 -78.4857 	 -45.1468 	 -86.598
| 16> C 	 -79.4787 	 -44.3158 	 -84.8737
| 17> H 	 -80.1264 	 -43.5326 	 -84.5571
| 18> H 	 -80.074 	 -45.2011 	 -84.7621
| 19> C 	 -78.3182 	 -44.4376 	 -83.8228
| 20> H 	 -77.8518 	 -45.4007 	 -83.8739
| 21> H 	 -77.4952 	 -43.7514 	 -83.8488
| 22> H 	 -78.804 	 -44.3623 	 -82.8604
| 23> S 	 -84.9309 	 -44.3527 	 -88.6131
| 24> C 	 -85.8499 	 -45.5896 	 -89.2962
| 25> C 	 -85.0549 	 -46.6769 	 -89.6537
| 26> C 	 -83.698 	 -46.4627 	 -89.3133
| 27> C 	 -83.4031 	 -45.1772 	 -88.742
| 28> H 	 -85.434 	 -47.6988 	 -90.0279
| 29> C 	 -82.6677 	 -47.5391 	 -89.5068
| 30> H 	 -83.2109 	 -48.4712 	 -89.7996
| 31> H 	 -82.1327 	 -47.7598 	 -88.5924
| 32> C 	 -81.5846 	 -47.3773 	 -90.567
| 33> H 	 -81.0538 	 -48.3626 	 -90.719
| 34> H 	 -80.8151 	 -46.7093 	 -90.2265
| 35> C 	 -82.1057 	 -47.0632 	 -91.9573
| 36> H 	 -81.3511 	 -47.288 	 -92.7942
| 37> H 	 -82.5128 	 -45.9664 	 -92.1073
| 38> H 	 -82.9286 	 -47.7234 	 -92.1945
| 39> H 	 -79.776 	 -41.9354 	 -87.8728
| 40> H 	 -86.9492 	 -45.6017 	 -89.3848
| 41> *
| 42>
| 43>                          ****END OF INPUT****

CARTESIAN COORDINATES (ANGSTROEM)
---------------------------------
  S    -81.883900  -42.881300  -88.886800
  C    -80.340800  -42.815400  -88.030000
  C    -80.124100  -43.989000  -87.323500
  C    -81.258700  -44.891500  -87.441800
  C    -82.203500  -44.480300  -88.407900
  H    -81.515800  -45.803100  -86.911200
  C    -79.023100  -44.246700  -86.349100
  H    -78.292100  -43.452200  -86.479800
  H    -78.485700  -45.146800  -86.598000
  C    -79.478700  -44.315800  -84.873700
  H    -80.126400  -43.532600  -84.557100
  H    -80.074000  -45.201100  -84.762100
  C    -78.318200  -44.437600  -83.822800
  H    -77.851800  -45.400700  -83.873900
  H    -77.495200  -43.751400  -83.848800
  H    -78.804000  -44.362300  -82.860400
  S    -84.930900  -44.352700  -88.613100
  C    -85.849900  -45.589600  -89.296200
  C    -85.054900  -46.676900  -89.653700
  C    -83.698000  -46.462700  -89.313300
  C    -83.403100  -45.177200  -88.742000
  H    -85.434000  -47.698800  -90.027900
  C    -82.667700  -47.539100  -89.506800
  H    -83.210900  -48.471200  -89.799600
  H    -82.132700  -47.759800  -88.592400
  C    -81.584600  -47.377300  -90.567000
  H    -81.053800  -48.362600  -90.719000
  H    -80.815100  -46.709300  -90.226500
  C    -82.105700  -47.063200  -91.957300
  H    -81.351100  -47.288000  -92.794200
  H    -82.512800  -45.966400  -92.107300
  H    -82.928600  -47.723400  -92.194500
  H    -79.776000  -41.935400  -87.872800
  H    -86.949200  -45.601700  -89.384800

 Total Charge           Charge          ....    0
 Multiplicity           Mult            ....    1
 Number of Electrons    NEL             ....  134
 Basis Dimension        Dim             ....  322

ORBITAL ENERGIES
----------------

  NO   OCC          E(Eh)            E(eV)
   0   2.0000     -88.968599     -2420.9587
   1   2.0000     -88.966788     -2420.9094
   2   2.0000     -10.328200      -281.0446
   3   2.0000     -10.327276      -281.0195
   4   2.0000     -10.319468      -280.8070
   5   2.0000     -10.314155      -280.6624
   6   2.0000     -10.306858      -280.4639
   7   2.0000     -10.305916      -280.4382
   8   2.0000     -10.301186      -280.3095
   9   2.0000     -10.296424      -280.1799
  10   2.0000     -10.290849      -280.0282
  11   2.0000     -10.288300      -279.9589
  12   2.0000     -10.286967      -279.9226
  13   2.0000     -10.282021      -279.7880
  14   2.0000     -10.281787      -279.7816
  15   2.0000     -10.276126      -279.6276
  16   2.0000      -8.084379      -219.9871
  17   2.0000      -8.082075      -219.9244
  18   2.0000      -6.042682      -164.4297
  19   2.0000      -6.040531      -164.3712
  20   2.0000      -6.038386      -164.3128
  21   2.0000      -6.036454      -164.2603
  22   2.0000      -6.035632      -164.2379
  23   2.0000      -6.032881      -164.1630
  24   2.0000      -1.012186       -27.5430
  25   2.0000      -0.988072       -26.8868
  26   2.0000      -0.913468       -24.8567
  27   2.0000      -0.909154       -24.7393
  28   2.0000      -0.872548       -23.7432
  29   2.0000      -0.848054       -23.0767
  30   2.0000      -0.844860       -22.9898
  31   2.0000      -0.811248       -22.0752
  32   2.0000      -0.784006       -21.3339
  33   2.0000      -0.771475       -20.9929
  34   2.0000      -0.713993       -19.4287
  35   2.0000      -0.703953       -19.1555
  36   2.0000      -0.683252       -18.5922
  37   2.0000      -0.659622       -17.9492
  38   2.0000      -0.644828       -17.5467
  39   2.0000      -0.614887       -16.7319
  40   2.0000      -0.590431       -16.0664
  41   2.0000      -0.572802       -15.5867
  42   2.0000      -0.559591       -15.2272
  43   2.0000      -0.551107       -14.9964
  44   2.0000      -0.539948       -14.6927
  45   2.0000      -0.529156       -14.3991
  46   2.0000      -0.515024       -14.0145
  47   2.0000      -0.510668       -13.8960
  48   2.0000      -0.504802       -13.7364
  49   2.0000      -0.502611       -13.6767
  50   2.0000      -0.481562       -13.1040
  51   2.0000      -0.476616       -12.9694
  52   2.0000      -0.475354       -12.9350
  53   2.0000      -0.470969       -12.8157
  54   2.0000      -0.461306       -12.5528
  55   2.0000      -0.447075       -12.1655
  56   2.0000      -0.443852       -12.0778
  57   2.0000      -0.435256       -11.8439
  58   2.0000      -0.429887       -11.6978
  59   2.0000      -0.426272       -11.5995
  60   2.0000      -0.422138       -11.4869
  61   2.0000      -0.418261       -11.3815
  62   2.0000      -0.402330       -10.9479
  63   2.0000      -0.344247        -9.3674
  64   2.0000      -0.333428        -9.0730
  65   2.0000      -0.327685        -8.9168
  66   2.0000      -0.290501        -7.9049
  67   0.0000       0.025020         0.6808
  68   0.0000       0.069198         1.8830
  69   0.0000       0.114371         3.1122
  70   0.0000       0.121787         3.3140
  71   0.0000       0.126459         3.4411

MULLIKEN ATOMIC CHARGES
-----------------------
   0 S :    0.115577
   1 C :   -0.107993
   2 C :   -0.074657
   3 C :    0.000697
   4 C :   -0.146254
   5 H :    0.021560
   6 C :    0.098920
   7 H :    0.008102
   8 H :    0.027622
   9 C :   -0.078516
  10 H :    0.029320
  11 H :    0.023594
  12 C :   -0.035821
  13 H :    0.021318
  14 H :    0.028078
  15 H :    0.030857
  16 S :    0.127408
  17 C :   -0.100559
  18 C :   -0.062016
  19 C :   -0.036501
  20 C :   -0.171430
  21 H :    0.050178
  22 C :    0.062475
  23 H :    0.011564
  24 H :    0.028370
  25 C :   -0.067362
  26 H :    0.029887
  27 H :    0.036196
  28 C :   -0.098204
  29 H :    0.042082
  30 H :    0.058347
  31 H :    0.015826
  32 H :    0.039962
  33 H :    0.071373
Sum of atomic charges:   -0.0000000

LOEWDIN ATOMIC CHARGES
----------------------
   0 S :    0.424885
   1 C :   -0.192875
   2 C :   -0.056056
   3 C :   -0.065503
   4 C :   -0.215804
   5 H :    0.030198
   6 C :   -0.031951
   7 H :    0.026543
   8 H :    0.031705
   9 C :   -0.030257
  10 H :    0.021782
  11 H :    0.022827
  12 C :   -0.061650
  13 H :    0.021351
  14 H :    0.020161
  15 H :    0.028579
  16 S :    0.453681
  17 C :   -0.211991
  18 C :   -0.088674
  19 C :   -0.052892
  20 C :   -0.217911
  21 H :    0.047055
  22 C :   -0.037156
  23 H :    0.031078
  24 H :    0.030538
  25 C :   -0.046639
  26 H :    0.032375
  27 H :    0.020567
  28 C :   -0.082613
  29 H :    0.032567
  30 H :    0.037447
  31 H :    0.017080
  32 H :    0.022925
  33 H :    0.038627

  Mayer bond orders larger than 0.100000
B(  0-S ,  1-C ) :   1.1341 B(  0-S ,  4-C ) :   1.1674 B(  1-C ,  2-C ) :   1.6028
B(  1-C , 32-H ) :   0.9721 B(  2-C ,  3-C ) :   1.2254 B(  2-C ,  6-C ) :   1.0471
B(  3-C ,  4-C ) :   1.5459 B(  3-C ,  5-H ) :   0.9918 B(  4-C , 20-C ) :   1.0806
B(  6-C ,  7-H ) :   0.9391 B(  6-C ,  8-H ) :   0.9305 B(  6-C ,  9-C ) :   1.0560
B(  9-C , 10-H ) :   0.9642 B(  9-C , 11-H ) :   0.9510 B(  9-C , 12-C ) :   1.0805
B( 12-C , 13-H ) :   0.9757 B( 12-C , 14-H ) :   0.9798 B( 12-C , 15-H ) :   0.9757
B( 16-S , 17-C ) :   1.2113 B( 16-S , 20-C ) :   1.1609 B( 17-C , 18-C ) :   1.5216
B( 17-C , 20-C ) :   0.1120 B( 17-C , 33-H ) :   0.9632 B( 18-C , 19-C ) :   1.3372
B( 18-C , 21-H ) :   0.9719 B( 19-C , 20-C ) :   1.4928 B( 19-C , 22-C ) :   1.0440
B( 22-C , 23-H ) :   0.9308 B( 22-C , 24-H ) :   0.9366 B( 22-C , 25-C ) :   1.0827
B( 25-C , 26-H ) :   0.9522 B( 25-C , 27-H ) :   0.9543 B( 25-C , 28-C ) :   1.0719
B( 28-C , 29-H ) :   0.9752 B( 28-C , 30-H ) :   0.9691 B( 28-C , 31-H ) :   0.9735

Dispersion correction           -0.014480368
FINAL SINGLE POINT ENERGY     -1339.878797302963

DIPOLE MOMENT
-------------
                                X             Y             Z
Electronic contribution:    -18.57002      13.85008      -5.88666
Nuclear contribution   :     18.77768     -14.28465       6.26601
                        -----------------------------------------
Total Dipole Moment    :      0.20766      -0.43457       0.37935
                        -----------------------------------------
Magnitude (a.u.)       :      0.61309
Magnitude (Debye)      :      1.55836

Rotational constants in cm-1:     0.020490     0.007807     0.007067
Rotational constants in MHz :   614.269682   234.054138   211.873633

                             ****ORCA TERMINATED NORMALLY****
TOTAL RUN TIME: 0 days 0 hours 0 minutes 21 seconds 543 msec
