                         Program Version 4.2.1 -  RELEASE  -
|  1> ! wB97X-D3 SP def2-SVP
|  2> %pal
|  3> nprocs 24
|  4> end
|  5>
|  6> * xyz 0 1
|  7> S 	 -110.878 	 30.051 	 -20.7644
|  8> C 	 -111.195 	 31.0512 	 -22.1751
|  9> C 	 -112.537 	 31.3935 	 -22.2089
| 10> C 	 -113.294 	 30.7348 	 -21.1668
| 11> C 	 -112.553 	 29.9325 	 -20.3208
| 12> H 	 -114.367 	 30.8782 	 -21.0889
| 13> C 	 -113.136 	 32.1901 	 -23.3047
| 14> H 	 -112.581 	 33.15 	 -23.4973
| 15> H 	 -114.185 	 32.4446 	 -23.0297
| 16> C 	 -113.378 	 31.4811 	 -24.5873
| 17> H 	 -112.46 	 31.2525 	 -25.0303
| 18> H 	 -113.827 	 30.5082 	 -24.3217
| 19> C 	 -114.167 	 32.2848 	 -25.632
| 20> H 	 -115.159 	 32.4672 	 -25.3612
| 21> H 	 -113.625 	 33.1737 	 -25.8731
| 22> H 	 -114.16 	 31.7479 	 -26.574
| 23> S 	 -112.034 	 28.7296 	 -17.8954
| 24> C 	 -113.299 	 27.7965 	 -17.0987
| 25> C 	 -114.466 	 27.8581 	 -17.7878
| 26> C 	 -114.339 	 28.4904 	 -19.088
| 27> C 	 -113.146 	 29.1397 	 -19.2594
| 28> H 	 -115.427 	 27.4348 	 -17.3634
| 29> C 	 -115.523 	 28.5395 	 -19.9913
| 30> H 	 -115.936 	 27.5353 	 -20.134
| 31> H 	 -115.254 	 28.7887 	 -21.0114
| 32> C 	 -116.6 	 29.6114 	 -19.6905
| 33> H 	 -116.158 	 30.5985 	 -19.7823
| 34> H 	 -116.8 	 29.537 	 -18.6397
| 35> C 	 -117.927 	 29.5074 	 -20.5603
| 36> H 	 -117.64 	 29.7214 	 -21.5473
| 37> H 	 -118.764 	 30.1699 	 -20.1995
| 38> H 	 -118.218 	 28.4311 	 -20.4332
| 39> H 	 -110.488 	 31.2886 	 -22.9765
| 40> H 	 -113.207 	 27.2142 	 -16.2247
| 41> *
| 42>
| 43>                          ****END OF INPUT****

CARTESIAN COORDINATES (ANGSTROEM)
---------------------------------
  S    -110.878000   30.051000  -20.764400
  C    -111.195000   31.051200  -22.175100
  C    -112.537000   31.393500  -22.208900
  C    -113.294000   30.734800  -21.166800
  C    -112.553000   29.932500  -20.320800
  H    -114.367000   30.878200  -21.088900
  C    -113.136000   32.190100  -23.304700
  H    -112.581000   33.150000  -23.497300
  H    -114.185000   32.444600  -23.029700
  C    -113.378000   31.481100  -24.587300
  H    -112.460000   31.252500  -25.030300
  H    -113.827000   30.508200  -24.321700
  C    -114.167000   32.284800  -25.632000
  H    -115.159000   32.467200  -25.361200
  H    -113.625000   33.173700  -25.873100
  H    -114.160000   31.747900  -26.574000
  S    -112.034000   28.729600  -17.895400
  C    -113.299000   27.796500  -17.098700
  C    -114.466000   27.858100  -17.787800
  C    -114.339000   28.490400  -19.088000
  C    -113.146000   29.139700  -19.259400
  H    -115.427000   27.434800  -17.363400
  C    -115.523000   28.539500  -19.991300
  H    -115.936000   27.535300  -20.134000
  H    -115.254000   28.788700  -21.011400
  C    -116.600000   29.611400  -19.690500
  H    -116.158000   30.598500  -19.782300
  H    -116.800000   29.537000  -18.639700
  C    -117.927000   29.507400  -20.560300
  H    -117.640000   29.721400  -21.547300
  H    -118.764000   30.169900  -20.199500
  H    -118.218000   28.431100  -20.433200
  H    -110.488000   31.288600  -22.976500
  H    -113.207000   27.214200  -16.224700

 Total Charge           Charge          ....    0
 Multiplicity           Mult            ....    1
 Number of Electrons    NEL             ....  134
 Basis Dimension        Dim             ....  322

ORBITAL ENERGIES
----------------

  NO   OCC          E(Eh)            E(eV)
   0   2.0000     -88.969916     -2420.9945
   1   2.0000     -88.962711     -2420.7984
   2   2.0000     -10.334321      -281.2112
   3   2.0000     -10.332855      -281.1713
   4   2.0000     -10.318127      -280.7705
   5   2.0000     -10.315831      -280.7080
   6   2.0000     -10.306127      -280.4440
   7   2.0000     -10.301450      -280.3167
   8   2.0000     -10.298855      -280.2461
   9   2.0000     -10.296083      -280.1707
  10   2.0000     -10.291086      -280.0347
  11   2.0000     -10.290996      -280.0322
  12   2.0000     -10.289776      -279.9990
  13   2.0000     -10.289190      -279.9831
  14   2.0000     -10.279687      -279.7245
  15   2.0000     -10.273560      -279.5578
  16   2.0000      -8.084373      -219.9870
  17   2.0000      -8.076875      -219.7829
  18   2.0000      -6.043043      -164.4396
  19   2.0000      -6.038833      -164.3250
  20   2.0000      -6.035626      -164.2377
  21   2.0000      -6.035040      -164.2218
  22   2.0000      -6.031576      -164.1275
  23   2.0000      -6.027306      -164.0113
  24   2.0000      -1.007537       -27.4165
  25   2.0000      -0.984345       -26.7854
  26   2.0000      -0.922822       -25.1113
  27   2.0000      -0.907955       -24.7067
  28   2.0000      -0.874350       -23.7923
  29   2.0000      -0.852586       -23.2000
  30   2.0000      -0.843711       -22.9585
  31   2.0000      -0.817514       -22.2457
  32   2.0000      -0.783884       -21.3306
  33   2.0000      -0.775716       -21.1083
  34   2.0000      -0.710646       -19.3377
  35   2.0000      -0.704021       -19.1574
  36   2.0000      -0.699584       -19.0366
  37   2.0000      -0.665020       -18.0961
  38   2.0000      -0.638372       -17.3710
  39   2.0000      -0.623466       -16.9654
  40   2.0000      -0.601228       -16.3602
  41   2.0000      -0.580662       -15.8006
  42   2.0000      -0.567932       -15.4542
  43   2.0000      -0.562039       -15.2939
  44   2.0000      -0.526951       -14.3391
  45   2.0000      -0.522196       -14.2097
  46   2.0000      -0.519951       -14.1486
  47   2.0000      -0.512655       -13.9501
  48   2.0000      -0.509759       -13.8712
  49   2.0000      -0.506299       -13.7771
  50   2.0000      -0.495129       -13.4732
  51   2.0000      -0.480931       -13.0868
  52   2.0000      -0.475491       -12.9388
  53   2.0000      -0.467630       -12.7249
  54   2.0000      -0.464657       -12.6439
  55   2.0000      -0.450646       -12.2627
  56   2.0000      -0.448478       -12.2037
  57   2.0000      -0.435793       -11.8585
  58   2.0000      -0.433428       -11.7942
  59   2.0000      -0.425452       -11.5772
  60   2.0000      -0.421222       -11.4620
  61   2.0000      -0.415716       -11.3122
  62   2.0000      -0.408730       -11.1221
  63   2.0000      -0.361107        -9.8262
  64   2.0000      -0.332545        -9.0490
  65   2.0000      -0.328321        -8.9341
  66   2.0000      -0.289149        -7.8681
  67   0.0000       0.021132         0.5750
  68   0.0000       0.079707         2.1689
  69   0.0000       0.096638         2.6297
  70   0.0000       0.120051         3.2667
  71   0.0000       0.125064         3.4032

MULLIKEN ATOMIC CHARGES
-----------------------
   0 S :    0.118662
   1 C :   -0.134331
   2 C :   -0.061304
   3 C :   -0.009689
   4 C :   -0.076851
   5 H :   -0.003591
   6 C :    0.030341
   7 H :    0.037875
   8 H :    0.011164
   9 C :   -0.058412
  10 H :   -0.000043
  11 H :    0.025105
  12 C :   -0.001757
  13 H :    0.024365
  14 H :    0.019209
  15 H :    0.028086
  16 S :    0.073261
  17 C :   -0.056700
  18 C :   -0.051662
  19 C :   -0.047883
  20 C :   -0.127514
  21 H :    0.045456
  22 C :    0.036041
  23 H :    0.023385
  24 H :    0.007382
  25 C :   -0.072187
  26 H :    0.026104
  27 H :    0.012041
  28 C :   -0.045347
  29 H :    0.028540
  30 H :    0.057001
  31 H :    0.039424
  32 H :    0.060795
  33 H :    0.043032
Sum of atomic charges:   -0.0000000

LOEWDIN ATOMIC CHARGES
----------------------
   0 S :    0.411824
   1 C :   -0.194856
   2 C :   -0.063576
   3 C :   -0.063628
   4 C :   -0.198186
   5 H :    0.027719
   6 C :   -0.043201
   7 H :    0.035353
   8 H :    0.030738
   9 C :   -0.037837
  10 H :    0.010782
  11 H :    0.026186
  12 C :   -0.053134
  13 H :    0.015831
  14 H :    0.024329
  15 H :    0.030576
  16 S :    0.362043
  17 C :   -0.167718
  18 C :   -0.074478
  19 C :   -0.057701
  20 C :   -0.161450
  21 H :    0.043298
  22 C :   -0.039591
  23 H :    0.031232
  24 H :    0.024763
  25 C :   -0.036998
  26 H :    0.018005
  27 H :    0.015405
  28 C :   -0.061236
  29 H :    0.015876
  30 H :    0.036958
  31 H :    0.031556
  32 H :    0.036180
  33 H :    0.024936

  Mayer bond orders larger than 0.100000
B(  0-S ,  1-C ) :   1.1340 B(  0-S ,  4-C ) :   1.1445 B(  1-C ,  2-C ) :   1.5850
B(  1-C , 32-H ) :   0.9697 B(  2-C ,  3-C ) :   1.2611 B(  2-C ,  6-C ) :   1.0454
B(  3-C ,  4-C ) :   1.5308 B(  3-C ,  5-H ) :   0.9954 B(  4-C , 20-C ) :   1.0813
B(  6-C ,  7-H ) :   0.9328 B(  6-C ,  8-H ) :   0.9372 B(  6-C ,  9-C ) :   1.0715
B(  9-C , 10-H ) :   0.9483 B(  9-C , 11-H ) :   0.9503 B(  9-C , 12-C ) :   1.0912
B( 12-C , 13-H ) :   0.9768 B( 12-C , 14-H ) :   0.9693 B( 12-C , 15-H ) :   0.9711
B( 16-S , 17-C ) :   1.1300 B( 16-S , 20-C ) :   1.0951 B( 17-C , 18-C ) :   1.6636
B( 17-C , 33-H ) :   0.9699 B( 18-C , 19-C ) :   1.1910 B( 18-C , 21-H ) :   0.9757
B( 19-C , 20-C ) :   1.6394 B( 19-C , 22-C ) :   1.0699 B( 22-C , 23-H ) :   0.9281
B( 22-C , 24-H ) :   0.9282 B( 22-C , 25-C ) :   1.0478 B( 25-C , 26-H ) :   0.9523
B( 25-C , 27-H ) :   0.9554 B( 25-C , 28-C ) :   1.0599 B( 28-C , 29-H ) :   0.9785
B( 28-C , 30-H ) :   0.9755 B( 28-C , 31-H ) :   0.9779

Dispersion correction           -0.013918212
FINAL SINGLE POINT ENERGY     -1339.878147269665

DIPOLE MOMENT
-------------
                                X             Y             Z
Electronic contribution:     24.94493      -8.12470      20.86797
Nuclear contribution   :    -25.61476       8.17384     -21.33756
                        -----------------------------------------
Total Dipole Moment    :     -0.66983       0.04914      -0.46959
                        -----------------------------------------
Magnitude (a.u.)       :      0.81951
Magnitude (Debye)      :      2.08303

Rotational constants in cm-1:     0.017512     0.009132     0.006197
Rotational constants in MHz :   524.992675   273.763003   185.782737

                             ****ORCA TERMINATED NORMALLY****
TOTAL RUN TIME: 0 days 0 hours 0 minutes 21 seconds 645 msec
