                         Program Version 4.2.1 -  RELEASE  -
|  1> ! wB97X-D3 SP def2-SVP
|  2> %pal
|  3> nprocs 24
|  4> end
|  5>
|  6> * xyz 0 1
|  7> S 	 13.8465 	 -14.8142 	 -117.012
|  8> C 	 12.2416 	 -14.1344 	 -117.094
|  9> C 	 11.3616 	 -14.9867 	 -117.696
| 10> C 	 11.9538 	 -16.2534 	 -118.041
| 11> C 	 13.2544 	 -16.3439 	 -117.639
| 12> H 	 11.4759 	 -17.1235 	 -118.555
| 13> C 	 9.96686 	 -14.7258 	 -117.986
| 14> H 	 9.88382 	 -14.7507 	 -119.038
| 15> H 	 9.77722 	 -13.6934 	 -117.705
| 16> C 	 8.81089 	 -15.5934 	 -117.405
| 17> H 	 7.83057 	 -15.3484 	 -117.804
| 18> H 	 8.9694 	 -16.6621 	 -117.7
| 19> C 	 8.67066 	 -15.4413 	 -115.988
| 20> H 	 8.50886 	 -14.4361 	 -115.667
| 21> H 	 7.88723 	 -16.0853 	 -115.658
| 22> H 	 9.58423 	 -15.8944 	 -115.579
| 23> S 	 15.6578 	 -17.2561 	 -118.163
| 24> C 	 16.0335 	 -18.9502 	 -118.151
| 25> C 	 14.9376 	 -19.7059 	 -117.744
| 26> C 	 13.8106 	 -18.8828 	 -117.395
| 27> C 	 14.0812 	 -17.5481 	 -117.529
| 28> H 	 14.9923 	 -20.7066 	 -117.687
| 29> C 	 12.4209 	 -19.4924 	 -116.999
| 30> H 	 11.6848 	 -18.7142 	 -116.733
| 31> H 	 12.5846 	 -20.1068 	 -116.086
| 32> C 	 11.7956 	 -20.5094 	 -118.019
| 33> H 	 12.4537 	 -21.4426 	 -118.3
| 34> H 	 11.578 	 -20.0171 	 -118.956
| 35> C 	 10.4508 	 -20.9354 	 -117.454
| 36> H 	 10.5594 	 -21.5314 	 -116.54
| 37> H 	 9.90785 	 -21.4879 	 -118.154
| 38> H 	 9.87921 	 -20.1341 	 -117.018
| 39> H 	 12.0336 	 -13.2113 	 -116.578
| 40> H 	 16.9501 	 -19.4775 	 -118.287
| 41> *
| 42>
| 43>                          ****END OF INPUT****

CARTESIAN COORDINATES (ANGSTROEM)
---------------------------------
  S     13.846500  -14.814200  -117.012000
  C     12.241600  -14.134400  -117.094000
  C     11.361600  -14.986700  -117.696000
  C     11.953800  -16.253400  -118.041000
  C     13.254400  -16.343900  -117.639000
  H     11.475900  -17.123500  -118.555000
  C      9.966860  -14.725800  -117.986000
  H      9.883820  -14.750700  -119.038000
  H      9.777220  -13.693400  -117.705000
  C      8.810890  -15.593400  -117.405000
  H      7.830570  -15.348400  -117.804000
  H      8.969400  -16.662100  -117.700000
  C      8.670660  -15.441300  -115.988000
  H      8.508860  -14.436100  -115.667000
  H      7.887230  -16.085300  -115.658000
  H      9.584230  -15.894400  -115.579000
  S     15.657800  -17.256100  -118.163000
  C     16.033500  -18.950200  -118.151000
  C     14.937600  -19.705900  -117.744000
  C     13.810600  -18.882800  -117.395000
  C     14.081200  -17.548100  -117.529000
  H     14.992300  -20.706600  -117.687000
  C     12.420900  -19.492400  -116.999000
  H     11.684800  -18.714200  -116.733000
  H     12.584600  -20.106800  -116.086000
  C     11.795600  -20.509400  -118.019000
  H     12.453700  -21.442600  -118.300000
  H     11.578000  -20.017100  -118.956000
  C     10.450800  -20.935400  -117.454000
  H     10.559400  -21.531400  -116.540000
  H      9.907850  -21.487900  -118.154000
  H      9.879210  -20.134100  -117.018000
  H     12.033600  -13.211300  -116.578000
  H     16.950100  -19.477500  -118.287000

 Total Charge           Charge          ....    0
 Multiplicity           Mult            ....    1
 Number of Electrons    NEL             ....  134
 Basis Dimension        Dim             ....  322

ORBITAL ENERGIES
----------------

  NO   OCC          E(Eh)            E(eV)
   0   2.0000     -88.964558     -2420.8487
   1   2.0000     -88.961519     -2420.7660
   2   2.0000     -10.327931      -281.0373
   3   2.0000     -10.321877      -280.8726
   4   2.0000     -10.314801      -280.6800
   5   2.0000     -10.311255      -280.5835
   6   2.0000     -10.306436      -280.4524
   7   2.0000     -10.302958      -280.3577
   8   2.0000     -10.298760      -280.2435
   9   2.0000     -10.298634      -280.2401
  10   2.0000     -10.294645      -280.1315
  11   2.0000     -10.288061      -279.9524
  12   2.0000     -10.283883      -279.8387
  13   2.0000     -10.282140      -279.7913
  14   2.0000     -10.273837      -279.5653
  15   2.0000     -10.264779      -279.3188
  16   2.0000      -8.080088      -219.8704
  17   2.0000      -8.076922      -219.7842
  18   2.0000      -6.038680      -164.3208
  19   2.0000      -6.035460      -164.2332
  20   2.0000      -6.034388      -164.2040
  21   2.0000      -6.031458      -164.1243
  22   2.0000      -6.030799      -164.1064
  23   2.0000      -6.027486      -164.0162
  24   2.0000      -1.012147       -27.5419
  25   2.0000      -0.987813       -26.8798
  26   2.0000      -0.924159       -25.1476
  27   2.0000      -0.906689       -24.6723
  28   2.0000      -0.877597       -23.8806
  29   2.0000      -0.857137       -23.3239
  30   2.0000      -0.851360       -23.1667
  31   2.0000      -0.820199       -22.3187
  32   2.0000      -0.782424       -21.2908
  33   2.0000      -0.772613       -21.0239
  34   2.0000      -0.707845       -19.2615
  35   2.0000      -0.698223       -18.9996
  36   2.0000      -0.693009       -18.8577
  37   2.0000      -0.668938       -18.2027
  38   2.0000      -0.642191       -17.4749
  39   2.0000      -0.624470       -16.9927
  40   2.0000      -0.595124       -16.1941
  41   2.0000      -0.572700       -15.5840
  42   2.0000      -0.564616       -15.3640
  43   2.0000      -0.559738       -15.2313
  44   2.0000      -0.550642       -14.9837
  45   2.0000      -0.531966       -14.4755
  46   2.0000      -0.526469       -14.3259
  47   2.0000      -0.518594       -14.1117
  48   2.0000      -0.509946       -13.8763
  49   2.0000      -0.497788       -13.5455
  50   2.0000      -0.486439       -13.2367
  51   2.0000      -0.485461       -13.2101
  52   2.0000      -0.471422       -12.8281
  53   2.0000      -0.468194       -12.7402
  54   2.0000      -0.456435       -12.4202
  55   2.0000      -0.451372       -12.2825
  56   2.0000      -0.445038       -12.1101
  57   2.0000      -0.437049       -11.8927
  58   2.0000      -0.435856       -11.8603
  59   2.0000      -0.425056       -11.5664
  60   2.0000      -0.420773       -11.4498
  61   2.0000      -0.415829       -11.3153
  62   2.0000      -0.411747       -11.2042
  63   2.0000      -0.351956        -9.5772
  64   2.0000      -0.331028        -9.0077
  65   2.0000      -0.327632        -8.9153
  66   2.0000      -0.290611        -7.9079
  67   0.0000       0.030581         0.8322
  68   0.0000       0.074998         2.0408
  69   0.0000       0.103707         2.8220
  70   0.0000       0.115991         3.1563
  71   0.0000       0.121980         3.3192

MULLIKEN ATOMIC CHARGES
-----------------------
   0 S :    0.095067
   1 C :   -0.123415
   2 C :   -0.082055
   3 C :   -0.020450
   4 C :   -0.121862
   5 H :    0.035663
   6 C :    0.092598
   7 H :    0.025955
   8 H :    0.000644
   9 C :   -0.079776
  10 H :    0.017918
  11 H :    0.021819
  12 C :   -0.004468
  13 H :    0.025352
  14 H :    0.020166
  15 H :    0.028157
  16 S :    0.100406
  17 C :   -0.061650
  18 C :   -0.008037
  19 C :   -0.030948
  20 C :   -0.109134
  21 H :   -0.032047
  22 C :    0.016156
  23 H :    0.035971
  24 H :    0.036059
  25 C :   -0.104446
  26 H :    0.052512
  27 H :    0.029842
  28 C :   -0.012044
  29 H :    0.017083
  30 H :    0.027965
  31 H :    0.015848
  32 H :    0.049746
  33 H :    0.045407
Sum of atomic charges:    0.0000000

LOEWDIN ATOMIC CHARGES
----------------------
   0 S :    0.390984
   1 C :   -0.193185
   2 C :   -0.064550
   3 C :   -0.071528
   4 C :   -0.185852
   5 H :    0.041316
   6 C :   -0.032904
   7 H :    0.032585
   8 H :    0.027973
   9 C :   -0.041993
  10 H :    0.022488
  11 H :    0.023296
  12 C :   -0.060680
  13 H :    0.021516
  14 H :    0.023954
  15 H :    0.029005
  16 S :    0.423766
  17 C :   -0.184743
  18 C :   -0.052637
  19 C :   -0.056073
  20 C :   -0.204532
  21 H :    0.008964
  22 C :   -0.032482
  23 H :    0.030410
  24 H :    0.035119
  25 C :   -0.044874
  26 H :    0.036849
  27 H :    0.018536
  28 C :   -0.064511
  29 H :    0.026263
  30 H :    0.018465
  31 H :    0.023764
  32 H :    0.027414
  33 H :    0.027876

  Mayer bond orders larger than 0.100000
B(  0-S ,  1-C ) :   1.1202 B(  0-S ,  4-C ) :   1.1453 B(  1-C ,  2-C ) :   1.6264
B(  1-C , 32-H ) :   0.9700 B(  2-C ,  3-C ) :   1.1883 B(  2-C ,  6-C ) :   1.0452
B(  3-C ,  4-C ) :   1.6223 B(  3-C ,  5-H ) :   0.9887 B(  4-C , 20-C ) :   0.9843
B(  6-C ,  7-H ) :   0.9236 B(  6-C ,  8-H ) :   0.9339 B(  6-C ,  9-C ) :   1.0728
B(  9-C , 10-H ) :   0.9501 B(  9-C , 11-H ) :   0.9509 B(  9-C , 12-C ) :   1.0945
B( 12-C , 13-H ) :   0.9710 B( 12-C , 14-H ) :   0.9653 B( 12-C , 15-H ) :   0.9718
B( 16-S , 17-C ) :   1.1566 B( 16-S , 20-C ) :   1.1378 B( 17-C , 18-C ) :   1.6132
B( 17-C , 33-H ) :   0.9679 B( 18-C , 19-C ) :   1.2303 B( 18-C , 21-H ) :   1.0094
B( 19-C , 20-C ) :   1.6381 B( 19-C , 22-C ) :   1.0188 B( 22-C , 23-H ) :   0.9480
B( 22-C , 24-H ) :   0.9379 B( 22-C , 25-C ) :   1.0516 B( 25-C , 26-H ) :   0.9512
B( 25-C , 27-H ) :   0.9565 B( 25-C , 28-C ) :   1.0838 B( 28-C , 29-H ) :   0.9697
B( 28-C , 30-H ) :   0.9730 B( 28-C , 31-H ) :   0.9688

Dispersion correction           -0.014448764
FINAL SINGLE POINT ENERGY     -1339.862881712208

DIPOLE MOMENT
-------------
                                X             Y             Z
Electronic contribution:     29.71541      12.20211      -3.06731
Nuclear contribution   :    -30.40167     -12.67427       3.06726
                        -----------------------------------------
Total Dipole Moment    :     -0.68626      -0.47217      -0.00005
                        -----------------------------------------
Magnitude (a.u.)       :      0.83300
Magnitude (Debye)      :      2.11733

Rotational constants in cm-1:     0.016500     0.010577     0.006815
Rotational constants in MHz :   494.648508   317.099736   204.321891

                             ****ORCA TERMINATED NORMALLY****
TOTAL RUN TIME: 0 days 0 hours 0 minutes 22 seconds 343 msec
