                         Program Version 4.2.1 -  RELEASE  -
|  1> ! wB97X-D3 SP def2-SVP
|  2> %pal
|  3> nprocs 24
|  4> end
|  5>
|  6> * xyz 0 1
|  7> S 	 -83.0459 	 -37.1156 	 -76.3255
|  8> C 	 -82.8202 	 -38.1236 	 -77.6565
|  9> C 	 -83.1264 	 -37.516 	 -78.8714
| 10> C 	 -83.4402 	 -36.1481 	 -78.6486
| 11> C 	 -83.4014 	 -35.7398 	 -77.318
| 12> H 	 -83.7771 	 -35.4458 	 -79.3433
| 13> C 	 -83.2156 	 -38.1593 	 -80.2114
| 14> H 	 -84.1973 	 -38.68 	 -80.3829
| 15> H 	 -82.5837 	 -38.9676 	 -80.0387
| 16> C 	 -82.927 	 -37.2309 	 -81.4133
| 17> H 	 -83.067 	 -37.6449 	 -82.4358
| 18> H 	 -83.5599 	 -36.3468 	 -81.3121
| 19> C 	 -81.471 	 -36.8109 	 -81.5051
| 20> H 	 -80.9935 	 -37.5957 	 -82.066
| 21> H 	 -81.4309 	 -35.7958 	 -81.9686
| 22> H 	 -81.013 	 -36.7819 	 -80.5215
| 23> S 	 -85.0471 	 -34.5674 	 -75.4446
| 24> C 	 -85.0834 	 -32.7737 	 -75.2645
| 25> C 	 -84.3351 	 -32.1598 	 -76.2274
| 26> C 	 -83.6576 	 -33.1437 	 -77.0785
| 27> C 	 -83.8984 	 -34.5041 	 -76.6965
| 28> H 	 -84.2578 	 -31.0844 	 -76.313
| 29> C 	 -82.7006 	 -32.7387 	 -78.2444
| 30> H 	 -83.2315 	 -31.9786 	 -78.8087
| 31> H 	 -82.6788 	 -33.5399 	 -78.9573
| 32> C 	 -81.3034 	 -32.2317 	 -77.7816
| 33> H 	 -80.7758 	 -32.9674 	 -77.2157
| 34> H 	 -81.4287 	 -31.3916 	 -77.0564
| 35> C 	 -80.5795 	 -31.7344 	 -79.0227
| 36> H 	 -81.158 	 -31.06 	 -79.6398
| 37> H 	 -80.125 	 -32.5111 	 -79.6271
| 38> H 	 -79.6782 	 -31.112 	 -78.6925
| 39> H 	 -82.7433 	 -39.1294 	 -77.5528
| 40> H 	 -85.5188 	 -32.1983 	 -74.4748
| 41> *
| 42>
| 43>                          ****END OF INPUT****

CARTESIAN COORDINATES (ANGSTROEM)
---------------------------------
  S    -83.045900  -37.115600  -76.325500
  C    -82.820200  -38.123600  -77.656500
  C    -83.126400  -37.516000  -78.871400
  C    -83.440200  -36.148100  -78.648600
  C    -83.401400  -35.739800  -77.318000
  H    -83.777100  -35.445800  -79.343300
  C    -83.215600  -38.159300  -80.211400
  H    -84.197300  -38.680000  -80.382900
  H    -82.583700  -38.967600  -80.038700
  C    -82.927000  -37.230900  -81.413300
  H    -83.067000  -37.644900  -82.435800
  H    -83.559900  -36.346800  -81.312100
  C    -81.471000  -36.810900  -81.505100
  H    -80.993500  -37.595700  -82.066000
  H    -81.430900  -35.795800  -81.968600
  H    -81.013000  -36.781900  -80.521500
  S    -85.047100  -34.567400  -75.444600
  C    -85.083400  -32.773700  -75.264500
  C    -84.335100  -32.159800  -76.227400
  C    -83.657600  -33.143700  -77.078500
  C    -83.898400  -34.504100  -76.696500
  H    -84.257800  -31.084400  -76.313000
  C    -82.700600  -32.738700  -78.244400
  H    -83.231500  -31.978600  -78.808700
  H    -82.678800  -33.539900  -78.957300
  C    -81.303400  -32.231700  -77.781600
  H    -80.775800  -32.967400  -77.215700
  H    -81.428700  -31.391600  -77.056400
  C    -80.579500  -31.734400  -79.022700
  H    -81.158000  -31.060000  -79.639800
  H    -80.125000  -32.511100  -79.627100
  H    -79.678200  -31.112000  -78.692500
  H    -82.743300  -39.129400  -77.552800
  H    -85.518800  -32.198300  -74.474800

 Total Charge           Charge          ....    0
 Multiplicity           Mult            ....    1
 Number of Electrons    NEL             ....  134
 Basis Dimension        Dim             ....  322

ORBITAL ENERGIES
----------------

  NO   OCC          E(Eh)            E(eV)
   0   2.0000     -88.967207     -2420.9208
   1   2.0000     -88.966489     -2420.9012
   2   2.0000     -10.329065      -281.0682
   3   2.0000     -10.328834      -281.0619
   4   2.0000     -10.317381      -280.7502
   5   2.0000     -10.307735      -280.4877
   6   2.0000     -10.304456      -280.3985
   7   2.0000     -10.301843      -280.3274
   8   2.0000     -10.298025      -280.2235
   9   2.0000     -10.291676      -280.0508
  10   2.0000     -10.289951      -280.0038
  11   2.0000     -10.289723      -279.9976
  12   2.0000     -10.289572      -279.9935
  13   2.0000     -10.287105      -279.9264
  14   2.0000     -10.279303      -279.7141
  15   2.0000     -10.273901      -279.5671
  16   2.0000      -8.083397      -219.9604
  17   2.0000      -8.081040      -219.8963
  18   2.0000      -6.041650      -164.4017
  19   2.0000      -6.039665      -164.3476
  20   2.0000      -6.037590      -164.2912
  21   2.0000      -6.035507      -164.2345
  22   2.0000      -6.034451      -164.2058
  23   2.0000      -6.031748      -164.1322
  24   2.0000      -1.011817       -27.5329
  25   2.0000      -0.983848       -26.7719
  26   2.0000      -0.918028       -24.9808
  27   2.0000      -0.902272       -24.5521
  28   2.0000      -0.874076       -23.7848
  29   2.0000      -0.853161       -23.2157
  30   2.0000      -0.843088       -22.9416
  31   2.0000      -0.821365       -22.3505
  32   2.0000      -0.783197       -21.3119
  33   2.0000      -0.763381       -20.7727
  34   2.0000      -0.711154       -19.3515
  35   2.0000      -0.700696       -19.0669
  36   2.0000      -0.693170       -18.8621
  37   2.0000      -0.658852       -17.9283
  38   2.0000      -0.648906       -17.6576
  39   2.0000      -0.629137       -17.1197
  40   2.0000      -0.588983       -16.0270
  41   2.0000      -0.571455       -15.5501
  42   2.0000      -0.559687       -15.2299
  43   2.0000      -0.551017       -14.9939
  44   2.0000      -0.547503       -14.8983
  45   2.0000      -0.530082       -14.4243
  46   2.0000      -0.518797       -14.1172
  47   2.0000      -0.509603       -13.8670
  48   2.0000      -0.502053       -13.6615
  49   2.0000      -0.501017       -13.6334
  50   2.0000      -0.492872       -13.4117
  51   2.0000      -0.487466       -13.2646
  52   2.0000      -0.466664       -12.6986
  53   2.0000      -0.464054       -12.6276
  54   2.0000      -0.458825       -12.4853
  55   2.0000      -0.454618       -12.3708
  56   2.0000      -0.443435       -12.0665
  57   2.0000      -0.435108       -11.8399
  58   2.0000      -0.430995       -11.7280
  59   2.0000      -0.427385       -11.6297
  60   2.0000      -0.420668       -11.4470
  61   2.0000      -0.417064       -11.3489
  62   2.0000      -0.407563       -11.0904
  63   2.0000      -0.354074        -9.6348
  64   2.0000      -0.331848        -9.0301
  65   2.0000      -0.325402        -8.8546
  66   2.0000      -0.287507        -7.8235
  67   0.0000       0.027282         0.7424
  68   0.0000       0.075559         2.0561
  69   0.0000       0.109884         2.9901
  70   0.0000       0.124903         3.3988
  71   0.0000       0.128311         3.4915

MULLIKEN ATOMIC CHARGES
-----------------------
   0 S :    0.121098
   1 C :   -0.069121
   2 C :   -0.125119
   3 C :    0.043698
   4 C :   -0.169364
   5 H :   -0.006791
   6 C :    0.119070
   7 H :    0.050242
   8 H :   -0.002688
   9 C :   -0.103159
  10 H :    0.035759
  11 H :    0.034471
  12 C :   -0.053538
  13 H :    0.030278
  14 H :    0.042028
  15 H :    0.036018
  16 S :    0.105480
  17 C :   -0.090376
  18 C :   -0.016236
  19 C :   -0.083267
  20 C :   -0.127738
  21 H :    0.024656
  22 C :    0.072393
  23 H :    0.015038
  24 H :   -0.000869
  25 C :   -0.043314
  26 H :    0.032224
  27 H :    0.027381
  28 C :   -0.055011
  29 H :    0.027965
  30 H :    0.037683
  31 H :    0.031325
  32 H :    0.009003
  33 H :    0.050780
Sum of atomic charges:    0.0000000

LOEWDIN ATOMIC CHARGES
----------------------
   0 S :    0.449976
   1 C :   -0.204567
   2 C :   -0.058669
   3 C :   -0.055959
   4 C :   -0.199893
   5 H :    0.018195
   6 C :   -0.034559
   7 H :    0.043369
   8 H :    0.022403
   9 C :   -0.045362
  10 H :    0.031544
  11 H :    0.021035
  12 C :   -0.065722
  13 H :    0.023675
  14 H :    0.032694
  15 H :    0.022437
  16 S :    0.405024
  17 C :   -0.174427
  18 C :   -0.065023
  19 C :   -0.056602
  20 C :   -0.221428
  21 H :    0.034143
  22 C :   -0.032317
  23 H :    0.027551
  24 H :    0.021429
  25 C :   -0.034826
  26 H :    0.024662
  27 H :    0.027481
  28 C :   -0.069766
  29 H :    0.021829
  30 H :    0.025055
  31 H :    0.032115
  32 H :    0.006203
  33 H :    0.028299

  Mayer bond orders larger than 0.100000
B(  0-S ,  1-C ) :   1.1769 B(  0-S ,  4-C ) :   1.1741 B(  1-C ,  2-C ) :   1.5686
B(  1-C , 32-H ) :   0.9748 B(  2-C ,  3-C ) :   1.2751 B(  2-C ,  6-C ) :   1.0063
B(  3-C ,  4-C ) :   1.5439 B(  3-C ,  5-H ) :   0.9930 B(  4-C , 20-C ) :   1.0375
B(  6-C ,  7-H ) :   0.9275 B(  6-C ,  8-H ) :   0.9339 B(  6-C ,  9-C ) :   1.0682
B(  9-C , 10-H ) :   0.9623 B(  9-C , 11-H ) :   0.9572 B(  9-C , 12-C ) :   1.0635
B( 12-C , 13-H ) :   0.9807 B( 12-C , 14-H ) :   0.9744 B( 12-C , 15-H ) :   0.9798
B( 16-S , 17-C ) :   1.1324 B( 16-S , 20-C ) :   1.1510 B( 17-C , 18-C ) :   1.6269
B( 17-C , 33-H ) :   0.9679 B( 18-C , 19-C ) :   1.2424 B( 18-C , 21-H ) :   0.9883
B( 19-C , 20-C ) :   1.5714 B( 19-C , 22-C ) :   1.0414 B( 22-C , 23-H ) :   0.9361
B( 22-C , 24-H ) :   0.9333 B( 22-C , 25-C ) :   1.0575 B( 25-C , 26-H ) :   0.9560
B( 25-C , 27-H ) :   0.9576 B( 25-C , 28-C ) :   1.0776 B( 28-C , 29-H ) :   0.9747
B( 28-C , 30-H ) :   0.9757 B( 28-C , 31-H ) :   0.9728

Dispersion correction           -0.014231986
FINAL SINGLE POINT ENERGY     -1339.867165298745

DIPOLE MOMENT
-------------
                                X             Y             Z
Electronic contribution:    -14.71787      -7.74599      25.03192
Nuclear contribution   :     14.79288       7.90092     -25.55967
                        -----------------------------------------
Total Dipole Moment    :      0.07501       0.15493      -0.52775
                        -----------------------------------------
Magnitude (a.u.)       :      0.55512
Magnitude (Debye)      :      1.41100

Rotational constants in cm-1:     0.016485     0.010018     0.007060
Rotational constants in MHz :   494.194435   300.346609   211.659942

                             ****ORCA TERMINATED NORMALLY****
TOTAL RUN TIME: 0 days 0 hours 0 minutes 22 seconds 128 msec
