                         Program Version 4.2.1 -  RELEASE  -
|  1> ! wB97X-D3 SP def2-SVP
|  2> %pal
|  3> nprocs 24
|  4> end
|  5>
|  6> * xyz 0 1
|  7> S 	 -112.311 	 16.9571 	 -119.624
|  8> C 	 -113.328 	 17.8354 	 -118.48
|  9> C 	 -112.689 	 19.0526 	 -118.185
| 10> C 	 -111.364 	 19.139 	 -118.726
| 11> C 	 -110.899 	 18.0422 	 -119.468
| 12> H 	 -110.744 	 19.9786 	 -118.615
| 13> C 	 -113.345 	 20.2346 	 -117.572
| 14> H 	 -114.43 	 20.1382 	 -117.531
| 15> H 	 -113.158 	 21.1217 	 -118.238
| 16> C 	 -112.787 	 20.5909 	 -116.18
| 17> H 	 -111.749 	 20.8977 	 -116.363
| 18> H 	 -113.349 	 21.4984 	 -115.903
| 19> C 	 -112.828 	 19.498 	 -115.14
| 20> H 	 -112.052 	 19.6037 	 -114.324
| 21> H 	 -113.914 	 19.5618 	 -114.763
| 22> H 	 -112.621 	 18.5065 	 -115.46
| 23> S 	 -109.422 	 17.5461 	 -121.845
| 24> C 	 -107.782 	 17.1027 	 -121.584
| 25> C 	 -107.383 	 17.2338 	 -120.273
| 26> C 	 -108.396 	 17.7206 	 -119.4
| 27> C 	 -109.57 	 17.8014 	 -120.064
| 28> H 	 -106.376 	 16.904 	 -120.012
| 29> C 	 -108.182 	 17.6891 	 -117.866
| 30> H 	 -108.998 	 17.0493 	 -117.595
| 31> H 	 -108.394 	 18.6865 	 -117.467
| 32> C 	 -106.777 	 17.1951 	 -117.332
| 33> H 	 -105.896 	 17.6067 	 -117.87
| 34> H 	 -106.588 	 16.1361 	 -117.533
| 35> C 	 -106.583 	 17.5008 	 -115.899
| 36> H 	 -105.537 	 17.4842 	 -115.567
| 37> H 	 -107.169 	 16.8554 	 -115.279
| 38> H 	 -106.861 	 18.5299 	 -115.727
| 39> H 	 -114.402 	 17.713 	 -118.447
| 40> H 	 -107.018 	 16.8001 	 -122.276
| 41> *
| 42>
| 43>                          ****END OF INPUT****

CARTESIAN COORDINATES (ANGSTROEM)
---------------------------------
  S    -112.311000   16.957100  -119.624000
  C    -113.328000   17.835400  -118.480000
  C    -112.689000   19.052600  -118.185000
  C    -111.364000   19.139000  -118.726000
  C    -110.899000   18.042200  -119.468000
  H    -110.744000   19.978600  -118.615000
  C    -113.345000   20.234600  -117.572000
  H    -114.430000   20.138200  -117.531000
  H    -113.158000   21.121700  -118.238000
  C    -112.787000   20.590900  -116.180000
  H    -111.749000   20.897700  -116.363000
  H    -113.349000   21.498400  -115.903000
  C    -112.828000   19.498000  -115.140000
  H    -112.052000   19.603700  -114.324000
  H    -113.914000   19.561800  -114.763000
  H    -112.621000   18.506500  -115.460000
  S    -109.422000   17.546100  -121.845000
  C    -107.782000   17.102700  -121.584000
  C    -107.383000   17.233800  -120.273000
  C    -108.396000   17.720600  -119.400000
  C    -109.570000   17.801400  -120.064000
  H    -106.376000   16.904000  -120.012000
  C    -108.182000   17.689100  -117.866000
  H    -108.998000   17.049300  -117.595000
  H    -108.394000   18.686500  -117.467000
  C    -106.777000   17.195100  -117.332000
  H    -105.896000   17.606700  -117.870000
  H    -106.588000   16.136100  -117.533000
  C    -106.583000   17.500800  -115.899000
  H    -105.537000   17.484200  -115.567000
  H    -107.169000   16.855400  -115.279000
  H    -106.861000   18.529900  -115.727000
  H    -114.402000   17.713000  -118.447000
  H    -107.018000   16.800100  -122.276000

 Total Charge           Charge          ....    0
 Multiplicity           Mult            ....    1
 Number of Electrons    NEL             ....  134
 Basis Dimension        Dim             ....  322

ORBITAL ENERGIES
----------------

  NO   OCC          E(Eh)            E(eV)
   0   2.0000     -88.970271     -2421.0042
   1   2.0000     -88.962179     -2420.7839
   2   2.0000     -10.336604      -281.2733
   3   2.0000     -10.329102      -281.0692
   4   2.0000     -10.317153      -280.7440
   5   2.0000     -10.313698      -280.6500
   6   2.0000     -10.304697      -280.4051
   7   2.0000     -10.302741      -280.3518
   8   2.0000     -10.299874      -280.2738
   9   2.0000     -10.293309      -280.0952
  10   2.0000     -10.293274      -280.0942
  11   2.0000     -10.292144      -280.0635
  12   2.0000     -10.289991      -280.0049
  13   2.0000     -10.287157      -279.9278
  14   2.0000     -10.281244      -279.7669
  15   2.0000     -10.274065      -279.5715
  16   2.0000      -8.084587      -219.9928
  17   2.0000      -8.076040      -219.7602
  18   2.0000      -6.043146      -164.4424
  19   2.0000      -6.039341      -164.3388
  20   2.0000      -6.035131      -164.2243
  21   2.0000      -6.034700      -164.2125
  22   2.0000      -6.030508      -164.0985
  23   2.0000      -6.026823      -163.9982
  24   2.0000      -1.003827       -27.3155
  25   2.0000      -0.981478       -26.7074
  26   2.0000      -0.912650       -24.8345
  27   2.0000      -0.910653       -24.7801
  28   2.0000      -0.870439       -23.6859
  29   2.0000      -0.856507       -23.3067
  30   2.0000      -0.840267       -22.8648
  31   2.0000      -0.813713       -22.1422
  32   2.0000      -0.784821       -21.3561
  33   2.0000      -0.773291       -21.0423
  34   2.0000      -0.708867       -19.2893
  35   2.0000      -0.705039       -19.1851
  36   2.0000      -0.690555       -18.7910
  37   2.0000      -0.650974       -17.7139
  38   2.0000      -0.639883       -17.4121
  39   2.0000      -0.621425       -16.9098
  40   2.0000      -0.596595       -16.2342
  41   2.0000      -0.570102       -15.5133
  42   2.0000      -0.567514       -15.4428
  43   2.0000      -0.551570       -15.0090
  44   2.0000      -0.539235       -14.6733
  45   2.0000      -0.532587       -14.4924
  46   2.0000      -0.516855       -14.0643
  47   2.0000      -0.508550       -13.8384
  48   2.0000      -0.506262       -13.7761
  49   2.0000      -0.503138       -13.6911
  50   2.0000      -0.491372       -13.3709
  51   2.0000      -0.476125       -12.9560
  52   2.0000      -0.470948       -12.8152
  53   2.0000      -0.463901       -12.6234
  54   2.0000      -0.458824       -12.4852
  55   2.0000      -0.453536       -12.3413
  56   2.0000      -0.447699       -12.1825
  57   2.0000      -0.432667       -11.7735
  58   2.0000      -0.430534       -11.7154
  59   2.0000      -0.423732       -11.5303
  60   2.0000      -0.418337       -11.3835
  61   2.0000      -0.412108       -11.2140
  62   2.0000      -0.410074       -11.1587
  63   2.0000      -0.341822        -9.3014
  64   2.0000      -0.335916        -9.1408
  65   2.0000      -0.323170        -8.7939
  66   2.0000      -0.297429        -8.0935
  67   0.0000       0.025747         0.7006
  68   0.0000       0.063472         1.7272
  69   0.0000       0.110279         3.0008
  70   0.0000       0.113728         3.0947
  71   0.0000       0.134985         3.6731

MULLIKEN ATOMIC CHARGES
-----------------------
   0 S :    0.087014
   1 C :   -0.107692
   2 C :   -0.100814
   3 C :    0.049109
   4 C :   -0.168633
   5 H :   -0.007460
   6 C :    0.034223
   7 H :    0.017071
   8 H :    0.045064
   9 C :   -0.075670
  10 H :    0.019933
  11 H :    0.034795
  12 C :   -0.059965
  13 H :    0.041473
  14 H :    0.040221
  15 H :    0.034693
  16 S :    0.127697
  17 C :   -0.056649
  18 C :   -0.079243
  19 C :   -0.006840
  20 C :   -0.187970
  21 H :    0.018225
  22 C :    0.086292
  23 H :    0.049837
  24 H :    0.028665
  25 C :   -0.098288
  26 H :    0.031665
  27 H :    0.028774
  28 C :   -0.009723
  29 H :    0.029980
  30 H :    0.030132
  31 H :    0.017649
  32 H :    0.062590
  33 H :    0.043845
Sum of atomic charges:   -0.0000000

LOEWDIN ATOMIC CHARGES
----------------------
   0 S :    0.383841
   1 C :   -0.200600
   2 C :   -0.063117
   3 C :   -0.059449
   4 C :   -0.181261
   5 H :    0.019705
   6 C :   -0.036606
   7 H :    0.024583
   8 H :    0.041949
   9 C :   -0.045776
  10 H :    0.018655
  11 H :    0.026885
  12 C :   -0.075129
  13 H :    0.034637
  14 H :    0.036857
  15 H :    0.020052
  16 S :    0.398508
  17 C :   -0.190441
  18 C :   -0.077267
  19 C :   -0.045679
  20 C :   -0.191508
  21 H :    0.030713
  22 C :   -0.020109
  23 H :    0.039493
  24 H :    0.032537
  25 C :   -0.050239
  26 H :    0.027231
  27 H :    0.025008
  28 C :   -0.060911
  29 H :    0.030071
  30 H :    0.022541
  31 H :    0.023363
  32 H :    0.030822
  33 H :    0.030641

  Mayer bond orders larger than 0.100000
B(  0-S ,  1-C ) :   1.1431 B(  0-S ,  4-C ) :   1.1463 B(  1-C ,  2-C ) :   1.5721
B(  1-C ,  4-C ) :   0.1052 B(  1-C , 32-H ) :   0.9645 B(  2-C ,  3-C ) :   1.2555
B(  2-C ,  6-C ) :   1.0351 B(  3-C ,  4-C ) :   1.5531 B(  3-C ,  5-H ) :   1.0010
B(  4-C , 20-C ) :   1.0457 B(  6-C ,  7-H ) :   0.9445 B(  6-C ,  8-H ) :   0.9421
B(  6-C ,  9-C ) :   1.0645 B(  9-C , 10-H ) :   0.9567 B(  9-C , 11-H ) :   0.9600
B(  9-C , 12-C ) :   1.0664 B( 12-C , 13-H ) :   0.9741 B( 12-C , 14-H ) :   0.9755
B( 12-C , 15-H ) :   0.9739 B( 16-S , 17-C ) :   1.1423 B( 16-S , 20-C ) :   1.1205
B( 17-C , 18-C ) :   1.6503 B( 17-C , 33-H ) :   0.9571 B( 18-C , 19-C ) :   1.2290
B( 18-C , 21-H ) :   0.9786 B( 19-C , 20-C ) :   1.6365 B( 19-C , 22-C ) :   1.0143
B( 22-C , 23-H ) :   0.9309 B( 22-C , 24-H ) :   0.9305 B( 22-C , 25-C ) :   1.0687
B( 25-C , 26-H ) :   0.9528 B( 25-C , 27-H ) :   0.9472 B( 25-C , 28-C ) :   1.0939
B( 28-C , 29-H ) :   0.9709 B( 28-C , 30-H ) :   0.9736 B( 28-C , 31-H ) :   0.9711

Dispersion correction           -0.014022144
FINAL SINGLE POINT ENERGY     -1339.865865784935

DIPOLE MOMENT
-------------
                                X             Y             Z
Electronic contribution:     -5.63384      -8.83883     -27.96479
Nuclear contribution   :      5.97583       9.16326      28.38957
                        -----------------------------------------
Total Dipole Moment    :      0.34199       0.32444       0.42477
                        -----------------------------------------
Magnitude (a.u.)       :      0.63455
Magnitude (Debye)      :      1.61289

Rotational constants in cm-1:     0.016550     0.009237     0.006569
Rotational constants in MHz :   496.167100   276.909074   196.924937

                             ****ORCA TERMINATED NORMALLY****
TOTAL RUN TIME: 0 days 0 hours 0 minutes 21 seconds 471 msec
