                         Program Version 4.2.1 -  RELEASE  -
|  1> ! wB97X-D3 SP def2-SVP
|  2> %pal
|  3> nprocs 24
|  4> end
|  5>
|  6> * xyz 0 1
|  7> S 	 -41.8494 	 -50.1779 	 -68.4599
|  8> C 	 -40.1016 	 -50.1296 	 -68.4245
|  9> C 	 -39.5792 	 -50.3558 	 -69.6959
| 10> C 	 -40.5795 	 -50.6533 	 -70.687
| 11> C 	 -41.8365 	 -50.678 	 -70.1766
| 12> H 	 -40.3681 	 -50.7735 	 -71.7732
| 13> C 	 -38.1488 	 -50.2044 	 -70.0185
| 14> H 	 -37.7504 	 -49.5308 	 -69.2629
| 15> H 	 -38.0407 	 -49.7904 	 -71.0149
| 16> C 	 -37.247 	 -51.4549 	 -70.0565
| 17> H 	 -37.673 	 -52.2012 	 -70.6831
| 18> H 	 -36.2821 	 -51.086 	 -70.4441
| 19> C 	 -37.051 	 -52.1345 	 -68.695
| 20> H 	 -36.4858 	 -52.9863 	 -68.8065
| 21> H 	 -36.5784 	 -51.4285 	 -68.0379
| 22> H 	 -37.9785 	 -52.4294 	 -68.2561
| 23> S 	 -44.1902 	 -49.7448 	 -71.2145
| 24> C 	 -44.9972 	 -50.5542 	 -72.4097
| 25> C 	 -44.4809 	 -51.8154 	 -72.6422
| 26> C 	 -43.2571 	 -52.0009 	 -71.8751
| 27> C 	 -43.0781 	 -51.0252 	 -70.9408
| 28> H 	 -44.8192 	 -52.4618 	 -73.3949
| 29> C 	 -42.3961 	 -53.2367 	 -72.0661
| 30> H 	 -42.2629 	 -53.6715 	 -71.0041
| 31> H 	 -41.4523 	 -52.8138 	 -72.4741
| 32> C 	 -42.7617 	 -54.3658 	 -73.0328
| 33> H 	 -42.8722 	 -54.0008 	 -74.1092
| 34> H 	 -43.7774 	 -54.5835 	 -72.8832
| 35> C 	 -41.8741 	 -55.511 	 -72.8057
| 36> H 	 -41.9644 	 -56.2108 	 -73.591
| 37> H 	 -42.1847 	 -56.0449 	 -71.8878
| 38> H 	 -40.76 	 -55.3269 	 -72.7814
| 39> H 	 -39.5644 	 -49.7363 	 -67.5279
| 40> H 	 -45.7576 	 -50.1065 	 -72.9998
| 41> *
| 42>
| 43>                          ****END OF INPUT****

CARTESIAN COORDINATES (ANGSTROEM)
---------------------------------
  S    -41.849400  -50.177900  -68.459900
  C    -40.101600  -50.129600  -68.424500
  C    -39.579200  -50.355800  -69.695900
  C    -40.579500  -50.653300  -70.687000
  C    -41.836500  -50.678000  -70.176600
  H    -40.368100  -50.773500  -71.773200
  C    -38.148800  -50.204400  -70.018500
  H    -37.750400  -49.530800  -69.262900
  H    -38.040700  -49.790400  -71.014900
  C    -37.247000  -51.454900  -70.056500
  H    -37.673000  -52.201200  -70.683100
  H    -36.282100  -51.086000  -70.444100
  C    -37.051000  -52.134500  -68.695000
  H    -36.485800  -52.986300  -68.806500
  H    -36.578400  -51.428500  -68.037900
  H    -37.978500  -52.429400  -68.256100
  S    -44.190200  -49.744800  -71.214500
  C    -44.997200  -50.554200  -72.409700
  C    -44.480900  -51.815400  -72.642200
  C    -43.257100  -52.000900  -71.875100
  C    -43.078100  -51.025200  -70.940800
  H    -44.819200  -52.461800  -73.394900
  C    -42.396100  -53.236700  -72.066100
  H    -42.262900  -53.671500  -71.004100
  H    -41.452300  -52.813800  -72.474100
  C    -42.761700  -54.365800  -73.032800
  H    -42.872200  -54.000800  -74.109200
  H    -43.777400  -54.583500  -72.883200
  C    -41.874100  -55.511000  -72.805700
  H    -41.964400  -56.210800  -73.591000
  H    -42.184700  -56.044900  -71.887800
  H    -40.760000  -55.326900  -72.781400
  H    -39.564400  -49.736300  -67.527900
  H    -45.757600  -50.106500  -72.999800

 Total Charge           Charge          ....    0
 Multiplicity           Mult            ....    1
 Number of Electrons    NEL             ....  134
 Basis Dimension        Dim             ....  322

ORBITAL ENERGIES
----------------

  NO   OCC          E(Eh)            E(eV)
   0   2.0000     -88.962607     -2420.7956
   1   2.0000     -88.961435     -2420.7637
   2   2.0000     -10.331110      -281.1238
   3   2.0000     -10.317771      -280.7608
   4   2.0000     -10.316584      -280.7285
   5   2.0000     -10.309889      -280.5464
   6   2.0000     -10.302433      -280.3435
   7   2.0000     -10.298560      -280.2381
   8   2.0000     -10.297167      -280.2002
   9   2.0000     -10.294651      -280.1317
  10   2.0000     -10.289376      -279.9881
  11   2.0000     -10.286761      -279.9170
  12   2.0000     -10.284600      -279.8582
  13   2.0000     -10.282539      -279.8021
  14   2.0000     -10.279424      -279.7173
  15   2.0000     -10.262564      -279.2586
  16   2.0000      -8.078974      -219.8401
  17   2.0000      -8.076976      -219.7857
  18   2.0000      -6.037193      -164.2804
  19   2.0000      -6.035561      -164.2360
  20   2.0000      -6.032931      -164.1644
  21   2.0000      -6.031603      -164.1283
  22   2.0000      -6.030012      -164.0850
  23   2.0000      -6.027636      -164.0203
  24   2.0000      -1.014058       -27.5939
  25   2.0000      -0.986317       -26.8390
  26   2.0000      -0.917911       -24.9776
  27   2.0000      -0.911891       -24.8138
  28   2.0000      -0.870393       -23.6846
  29   2.0000      -0.856553       -23.3080
  30   2.0000      -0.846650       -23.0385
  31   2.0000      -0.816445       -22.2166
  32   2.0000      -0.782307       -21.2877
  33   2.0000      -0.772934       -21.0326
  34   2.0000      -0.710684       -19.3387
  35   2.0000      -0.699204       -19.0263
  36   2.0000      -0.688800       -18.7432
  37   2.0000      -0.656805       -17.8726
  38   2.0000      -0.637583       -17.3495
  39   2.0000      -0.621013       -16.8986
  40   2.0000      -0.603673       -16.4268
  41   2.0000      -0.572201       -15.5704
  42   2.0000      -0.569716       -15.5028
  43   2.0000      -0.550860       -14.9897
  44   2.0000      -0.541776       -14.7425
  45   2.0000      -0.526398       -14.3240
  46   2.0000      -0.522014       -14.2047
  47   2.0000      -0.517737       -14.0883
  48   2.0000      -0.506759       -13.7896
  49   2.0000      -0.496229       -13.5031
  50   2.0000      -0.490520       -13.3477
  51   2.0000      -0.482838       -13.1387
  52   2.0000      -0.473827       -12.8935
  53   2.0000      -0.466995       -12.7076
  54   2.0000      -0.463120       -12.6021
  55   2.0000      -0.452447       -12.3117
  56   2.0000      -0.444224       -12.0880
  57   2.0000      -0.434663       -11.8278
  58   2.0000      -0.424464       -11.5502
  59   2.0000      -0.422914       -11.5081
  60   2.0000      -0.420102       -11.4316
  61   2.0000      -0.416424       -11.3315
  62   2.0000      -0.412568       -11.2265
  63   2.0000      -0.346357        -9.4248
  64   2.0000      -0.327261        -8.9052
  65   2.0000      -0.325876        -8.8675
  66   2.0000      -0.295938        -8.0529
  67   0.0000       0.039497         1.0748
  68   0.0000       0.068996         1.8775
  69   0.0000       0.112441         3.0597
  70   0.0000       0.127027         3.4566
  71   0.0000       0.133991         3.6461

MULLIKEN ATOMIC CHARGES
-----------------------
   0 S :    0.095113
   1 C :   -0.140241
   2 C :   -0.096377
   3 C :    0.016503
   4 C :   -0.152898
   5 H :    0.036181
   6 C :    0.062399
   7 H :    0.015482
   8 H :    0.022523
   9 C :   -0.064612
  10 H :    0.017953
  11 H :    0.031831
  12 C :   -0.010872
  13 H :    0.017085
  14 H :    0.015506
  15 H :    0.028118
  16 S :    0.121585
  17 C :   -0.065679
  18 C :   -0.020496
  19 C :   -0.082755
  20 C :   -0.114396
  21 H :   -0.002761
  22 C :    0.004958
  23 H :    0.062648
  24 H :    0.031552
  25 C :   -0.060228
  26 H :    0.028618
  27 H :    0.010454
  28 C :   -0.018757
  29 H :    0.015873
  30 H :    0.039681
  31 H :    0.038557
  32 H :    0.070448
  33 H :    0.047004
Sum of atomic charges:    0.0000000

LOEWDIN ATOMIC CHARGES
----------------------
   0 S :    0.381297
   1 C :   -0.205638
   2 C :   -0.065783
   3 C :   -0.065913
   4 C :   -0.178685
   5 H :    0.040522
   6 C :   -0.035148
   7 H :    0.029321
   8 H :    0.031971
   9 C :   -0.030332
  10 H :    0.017066
  11 H :    0.026044
  12 C :   -0.055051
  13 H :    0.015735
  14 H :    0.020131
  15 H :    0.023332
  16 S :    0.463435
  17 C :   -0.201317
  18 C :   -0.076616
  19 C :   -0.050760
  20 C :   -0.226829
  21 H :    0.019850
  22 C :   -0.039638
  23 H :    0.048762
  24 H :    0.034636
  25 C :   -0.052630
  26 H :    0.029311
  27 H :    0.015957
  28 C :   -0.063852
  29 H :    0.021095
  30 H :    0.033786
  31 H :    0.033880
  32 H :    0.037495
  33 H :    0.024564

  Mayer bond orders larger than 0.100000
B(  0-S ,  1-C ) :   1.1297 B(  0-S ,  4-C ) :   1.1439 B(  1-C ,  2-C ) :   1.6083
B(  1-C , 32-H ) :   0.9630 B(  2-C ,  3-C ) :   1.2281 B(  2-C ,  6-C ) :   1.0426
B(  3-C ,  4-C ) :   1.6093 B(  3-C ,  5-H ) :   0.9838 B(  4-C , 20-C ) :   0.9810
B(  6-C ,  7-H ) :   0.9386 B(  6-C ,  8-H ) :   0.9354 B(  6-C ,  9-C ) :   1.0735
B(  9-C , 10-H ) :   0.9552 B(  9-C , 11-H ) :   0.9561 B(  9-C , 12-C ) :   1.0839
B( 12-C , 13-H ) :   0.9726 B( 12-C , 14-H ) :   0.9753 B( 12-C , 15-H ) :   0.9732
B( 16-S , 17-C ) :   1.2212 B( 16-S , 20-C ) :   1.1483 B( 17-C , 18-C ) :   1.5464
B( 17-C , 33-H ) :   0.9690 B( 18-C , 19-C ) :   1.2664 B( 18-C , 21-H ) :   0.9978
B( 19-C , 20-C ) :   1.6130 B( 19-C , 22-C ) :   1.0154 B( 22-C , 23-H ) :   0.9491
B( 22-C , 24-H ) :   0.9210 B( 22-C , 25-C ) :   1.0798 B( 25-C , 26-H ) :   0.9449
B( 25-C , 27-H ) :   0.9412 B( 25-C , 28-C ) :   1.0927 B( 28-C , 29-H ) :   0.9653
B( 28-C , 30-H ) :   0.9690 B( 28-C , 31-H ) :   0.9723

Dispersion correction           -0.013954619
FINAL SINGLE POINT ENERGY     -1339.871702837216

DIPOLE MOMENT
-------------
                                X             Y             Z
Electronic contribution:    -21.10962      19.71586       7.41200
Nuclear contribution   :     21.50326     -20.02819      -8.01251
                        -----------------------------------------
Total Dipole Moment    :      0.39364      -0.31233      -0.60051
                        -----------------------------------------
Magnitude (a.u.)       :      0.78302
Magnitude (Debye)      :      1.99027

Rotational constants in cm-1:     0.017032     0.009070     0.006514
Rotational constants in MHz :   510.598017   271.918750   195.284327

                             ****ORCA TERMINATED NORMALLY****
TOTAL RUN TIME: 0 days 0 hours 0 minutes 21 seconds 517 msec
