                         Program Version 4.2.1 -  RELEASE  -
|  1> ! wB97X-D3 SP def2-SVP
|  2> %pal
|  3> nprocs 24
|  4> end
|  5>
|  6> * xyz 0 1
|  7> S 	 -42.2175 	 12.4613 	 21.4574
|  8> C 	 -43.6094 	 13.5872 	 21.4048
|  9> C 	 -43.8017 	 14.0815 	 20.1633
| 10> C 	 -42.988 	 13.4202 	 19.138
| 11> C 	 -42.0557 	 12.4698 	 19.6807
| 12> H 	 -43.0285 	 13.3926 	 18.0297
| 13> C 	 -44.8971 	 15.0753 	 19.7114
| 14> H 	 -44.305 	 15.9005 	 19.3306
| 15> H 	 -45.2888 	 15.5444 	 20.5176
| 16> C 	 -45.8702 	 14.6464 	 18.671
| 17> H 	 -45.2793 	 14.3036 	 17.8756
| 18> H 	 -46.5819 	 13.9737 	 19.0219
| 19> C 	 -46.667 	 15.879 	 18.2901
| 20> H 	 -47.237 	 16.1992 	 19.1627
| 21> H 	 -46.106 	 16.7363 	 17.9769
| 22> H 	 -47.2477 	 15.6294 	 17.4291
| 23> S 	 -41.0768 	 9.9741 	 19.3878
| 24> C 	 -39.8048 	 9.63992 	 18.1891
| 25> C 	 -39.5707 	 10.7423 	 17.4042
| 26> C 	 -40.2881 	 11.9129 	 17.8469
| 27> C 	 -41.1773 	 11.6564 	 18.9064
| 28> H 	 -39.0454 	 10.748 	 16.4773
| 29> C 	 -40.1452 	 13.2003 	 17.0785
| 30> H 	 -39.169 	 13.7494 	 17.1958
| 31> H 	 -40.7954 	 13.8356 	 17.6144
| 32> C 	 -40.5552 	 13.2717 	 15.6112
| 33> H 	 -41.5621 	 12.9549 	 15.4799
| 34> H 	 -40.0172 	 12.5221 	 15.0356
| 35> C 	 -40.3113 	 14.6962 	 14.9957
| 36> H 	 -40.6256 	 15.5328 	 15.6788
| 37> H 	 -40.7915 	 14.8347 	 14.0758
| 38> H 	 -39.2758 	 14.6834 	 14.6503
| 39> H 	 -44.3613 	 13.9471 	 22.1008
| 40> H 	 -39.5217 	 8.6978 	 17.7282
| 41> *
| 42>
| 43>                          ****END OF INPUT****

CARTESIAN COORDINATES (ANGSTROEM)
---------------------------------
  S    -42.217500   12.461300   21.457400
  C    -43.609400   13.587200   21.404800
  C    -43.801700   14.081500   20.163300
  C    -42.988000   13.420200   19.138000
  C    -42.055700   12.469800   19.680700
  H    -43.028500   13.392600   18.029700
  C    -44.897100   15.075300   19.711400
  H    -44.305000   15.900500   19.330600
  H    -45.288800   15.544400   20.517600
  C    -45.870200   14.646400   18.671000
  H    -45.279300   14.303600   17.875600
  H    -46.581900   13.973700   19.021900
  C    -46.667000   15.879000   18.290100
  H    -47.237000   16.199200   19.162700
  H    -46.106000   16.736300   17.976900
  H    -47.247700   15.629400   17.429100
  S    -41.076800    9.974100   19.387800
  C    -39.804800    9.639920   18.189100
  C    -39.570700   10.742300   17.404200
  C    -40.288100   11.912900   17.846900
  C    -41.177300   11.656400   18.906400
  H    -39.045400   10.748000   16.477300
  C    -40.145200   13.200300   17.078500
  H    -39.169000   13.749400   17.195800
  H    -40.795400   13.835600   17.614400
  C    -40.555200   13.271700   15.611200
  H    -41.562100   12.954900   15.479900
  H    -40.017200   12.522100   15.035600
  C    -40.311300   14.696200   14.995700
  H    -40.625600   15.532800   15.678800
  H    -40.791500   14.834700   14.075800
  H    -39.275800   14.683400   14.650300
  H    -44.361300   13.947100   22.100800
  H    -39.521700    8.697800   17.728200

 Total Charge           Charge          ....    0
 Multiplicity           Mult            ....    1
 Number of Electrons    NEL             ....  134
 Basis Dimension        Dim             ....  322

ORBITAL ENERGIES
----------------

  NO   OCC          E(Eh)            E(eV)
   0   2.0000     -88.970531     -2421.0112
   1   2.0000     -88.968595     -2420.9586
   2   2.0000     -10.336644      -281.2744
   3   2.0000     -10.332563      -281.1633
   4   2.0000     -10.319594      -280.8104
   5   2.0000     -10.314187      -280.6633
   6   2.0000     -10.307579      -280.4835
   7   2.0000     -10.303989      -280.3858
   8   2.0000     -10.303203      -280.3644
   9   2.0000     -10.293364      -280.0967
  10   2.0000     -10.288153      -279.9549
  11   2.0000     -10.286839      -279.9191
  12   2.0000     -10.282874      -279.8112
  13   2.0000     -10.281377      -279.7705
  14   2.0000     -10.276271      -279.6315
  15   2.0000     -10.273444      -279.5546
  16   2.0000      -8.083452      -219.9619
  17   2.0000      -8.082743      -219.9426
  18   2.0000      -6.042353      -164.4208
  19   2.0000      -6.041450      -164.3962
  20   2.0000      -6.038232      -164.3086
  21   2.0000      -6.037292      -164.2831
  22   2.0000      -6.033838      -164.1891
  23   2.0000      -6.033330      -164.1753
  24   2.0000      -1.002388       -27.2764
  25   2.0000      -0.976663       -26.5763
  26   2.0000      -0.924814       -25.1655
  27   2.0000      -0.909021       -24.7357
  28   2.0000      -0.878952       -23.9175
  29   2.0000      -0.849879       -23.1264
  30   2.0000      -0.843450       -22.9515
  31   2.0000      -0.813559       -22.1381
  32   2.0000      -0.783771       -21.3275
  33   2.0000      -0.774556       -21.0767
  34   2.0000      -0.719141       -19.5688
  35   2.0000      -0.708603       -19.2821
  36   2.0000      -0.702092       -19.1049
  37   2.0000      -0.664051       -18.0697
  38   2.0000      -0.637118       -17.3369
  39   2.0000      -0.614434       -16.7196
  40   2.0000      -0.597070       -16.2471
  41   2.0000      -0.579691       -15.7742
  42   2.0000      -0.571489       -15.5510
  43   2.0000      -0.562158       -15.2971
  44   2.0000      -0.535498       -14.5716
  45   2.0000      -0.524850       -14.2819
  46   2.0000      -0.514990       -14.0136
  47   2.0000      -0.512797       -13.9539
  48   2.0000      -0.506111       -13.7720
  49   2.0000      -0.497443       -13.5361
  50   2.0000      -0.495535       -13.4842
  51   2.0000      -0.474662       -12.9162
  52   2.0000      -0.471515       -12.8306
  53   2.0000      -0.464008       -12.6263
  54   2.0000      -0.460509       -12.5311
  55   2.0000      -0.454533       -12.3685
  56   2.0000      -0.445045       -12.1103
  57   2.0000      -0.440004       -11.9731
  58   2.0000      -0.434732       -11.8297
  59   2.0000      -0.432329       -11.7643
  60   2.0000      -0.423165       -11.5149
  61   2.0000      -0.412493       -11.2245
  62   2.0000      -0.410773       -11.1777
  63   2.0000      -0.352016        -9.5789
  64   2.0000      -0.332979        -9.0608
  65   2.0000      -0.327785        -8.9195
  66   2.0000      -0.290579        -7.9070
  67   0.0000       0.018964         0.5160
  68   0.0000       0.071010         1.9323
  69   0.0000       0.104608         2.8465
  70   0.0000       0.115288         3.1371
  71   0.0000       0.128188         3.4882

MULLIKEN ATOMIC CHARGES
-----------------------
   0 S :    0.118833
   1 C :   -0.103505
   2 C :   -0.083400
   3 C :   -0.012669
   4 C :   -0.148463
   5 H :    0.040817
   6 C :    0.086785
   7 H :    0.018921
   8 H :   -0.034130
   9 C :    0.012722
  10 H :    0.016131
  11 H :    0.025400
  12 C :   -0.043872
  13 H :    0.030790
  14 H :    0.016227
  15 H :    0.028046
  16 S :    0.103632
  17 C :   -0.063377
  18 C :   -0.039531
  19 C :   -0.037176
  20 C :   -0.167642
  21 H :    0.017892
  22 C :    0.060910
  23 H :    0.039529
  24 H :   -0.012728
  25 C :   -0.062001
  26 H :    0.015255
  27 H :    0.015993
  28 C :   -0.044505
  29 H :    0.052423
  30 H :    0.016958
  31 H :    0.034139
  32 H :    0.038974
  33 H :    0.062620
Sum of atomic charges:   -0.0000000

LOEWDIN ATOMIC CHARGES
----------------------
   0 S :    0.377629
   1 C :   -0.197459
   2 C :   -0.057979
   3 C :   -0.068983
   4 C :   -0.188047
   5 H :    0.035427
   6 C :   -0.026304
   7 H :    0.036904
   8 H :    0.008859
   9 C :   -0.023019
  10 H :    0.019714
  11 H :    0.022405
  12 C :   -0.055855
  13 H :    0.027335
  14 H :    0.019494
  15 H :    0.023631
  16 S :    0.401519
  17 C :   -0.183942
  18 C :   -0.060494
  19 C :   -0.050101
  20 C :   -0.196854
  21 H :    0.027920
  22 C :   -0.043825
  23 H :    0.039155
  24 H :    0.019383
  25 C :   -0.035313
  26 H :    0.015263
  27 H :    0.018479
  28 C :   -0.064922
  29 H :    0.035119
  30 H :    0.018935
  31 H :    0.031131
  32 H :    0.039009
  33 H :    0.035787

  Mayer bond orders larger than 0.100000
B(  0-S ,  1-C ) :   1.0948 B(  0-S ,  4-C ) :   1.1212 B(  1-C ,  2-C ) :   1.6860
B(  1-C , 32-H ) :   0.9569 B(  2-C ,  3-C ) :   1.1835 B(  2-C ,  6-C ) :   1.0115
B(  3-C ,  4-C ) :   1.5834 B(  3-C ,  5-H ) :   0.9780 B(  4-C , 20-C ) :   1.0942
B(  6-C ,  7-H ) :   0.9310 B(  6-C ,  8-H ) :   0.9309 B(  6-C ,  9-C ) :   1.0741
B(  9-C , 10-H ) :   0.9454 B(  9-C , 11-H ) :   0.9531 B(  9-C , 12-C ) :   1.0896
B( 12-C , 13-H ) :   0.9749 B( 12-C , 14-H ) :   0.9747 B( 12-C , 15-H ) :   0.9718
B( 16-S , 17-C ) :   1.1377 B( 16-S , 20-C ) :   1.1316 B( 17-C , 18-C ) :   1.6238
B( 17-C , 33-H ) :   0.9574 B( 18-C , 19-C ) :   1.2442 B( 18-C , 21-H ) :   0.9855
B( 19-C , 20-C ) :   1.5713 B( 19-C , 22-C ) :   1.0501 B( 22-C , 23-H ) :   0.9308
B( 22-C , 24-H ) :   0.9203 B( 22-C , 25-C ) :   1.0575 B( 25-C , 26-H ) :   0.9548
B( 25-C , 27-H ) :   0.9557 B( 25-C , 28-C ) :   1.0763 B( 28-C , 29-H ) :   0.9767
B( 28-C , 30-H ) :   0.9728 B( 28-C , 31-H ) :   0.9743

Dispersion correction           -0.013500877
FINAL SINGLE POINT ENERGY     -1339.839289525152

DIPOLE MOMENT
-------------
                                X             Y             Z
Electronic contribution:     10.56040     -22.19039      21.38093
Nuclear contribution   :    -10.91492      22.64344     -22.19160
                        -----------------------------------------
Total Dipole Moment    :     -0.35451       0.45305      -0.81067
                        -----------------------------------------
Magnitude (a.u.)       :      0.99405
Magnitude (Debye)      :      2.52666

Rotational constants in cm-1:     0.015851     0.009111     0.006391
Rotational constants in MHz :   475.203821   273.127165   191.590406

                             ****ORCA TERMINATED NORMALLY****
TOTAL RUN TIME: 0 days 0 hours 0 minutes 21 seconds 248 msec
