                         Program Version 4.2.1 -  RELEASE  -
|  1> ! wB97X-D3 SP def2-SVP
|  2> %pal
|  3> nprocs 24
|  4> end
|  5>
|  6> * xyz 0 1
|  7> S 	 -106.705 	 22.9098 	 -117.621
|  8> C 	 -107.389 	 21.4401 	 -117.019
|  9> C 	 -107.277 	 21.3809 	 -115.624
| 10> C 	 -106.735 	 22.5785 	 -115.077
| 11> C 	 -106.299 	 23.5523 	 -115.998
| 12> H 	 -106.562 	 22.6451 	 -114.041
| 13> C 	 -107.783 	 20.3362 	 -114.684
| 14> H 	 -108.667 	 19.8657 	 -115
| 15> H 	 -108.098 	 20.903 	 -113.883
| 16> C 	 -106.751 	 19.2564 	 -114.25
| 17> H 	 -106.581 	 18.6044 	 -115.146
| 18> H 	 -105.856 	 19.8086 	 -113.881
| 19> C 	 -107.124 	 18.4628 	 -112.906
| 20> H 	 -108.024 	 17.7818 	 -113.102
| 21> H 	 -106.357 	 17.9073 	 -112.422
| 22> H 	 -107.504 	 19.1647 	 -112.132
| 23> S 	 -106.11 	 25.9508 	 -114.653
| 24> C 	 -104.626 	 26.8137 	 -114.7
| 25> C 	 -103.636 	 26.2507 	 -115.53
| 26> C 	 -104.099 	 24.9814 	 -116.056
| 27> C 	 -105.436 	 24.7096 	 -115.745
| 28> H 	 -102.654 	 26.7502 	 -115.494
| 29> C 	 -103.107 	 23.9411 	 -116.738
| 30> H 	 -102.247 	 24.3972 	 -117.176
| 31> H 	 -103.686 	 23.4992 	 -117.589
| 32> C 	 -102.579 	 22.8044 	 -115.887
| 33> H 	 -103.364 	 22.0395 	 -115.886
| 34> H 	 -102.414 	 23.1542 	 -114.938
| 35> C 	 -101.278 	 22.1391 	 -116.358
| 36> H 	 -101.011 	 21.2709 	 -115.696
| 37> H 	 -100.482 	 22.898 	 -116.384
| 38> H 	 -101.556 	 21.6304 	 -117.289
| 39> H 	 -107.738 	 20.5892 	 -117.548
| 40> H 	 -104.433 	 27.7088 	 -114.182
| 41> *
| 42>
| 43>                          ****END OF INPUT****

CARTESIAN COORDINATES (ANGSTROEM)
---------------------------------
  S    -106.705000   22.909800  -117.621000
  C    -107.389000   21.440100  -117.019000
  C    -107.277000   21.380900  -115.624000
  C    -106.735000   22.578500  -115.077000
  C    -106.299000   23.552300  -115.998000
  H    -106.562000   22.645100  -114.041000
  C    -107.783000   20.336200  -114.684000
  H    -108.667000   19.865700  -115.000000
  H    -108.098000   20.903000  -113.883000
  C    -106.751000   19.256400  -114.250000
  H    -106.581000   18.604400  -115.146000
  H    -105.856000   19.808600  -113.881000
  C    -107.124000   18.462800  -112.906000
  H    -108.024000   17.781800  -113.102000
  H    -106.357000   17.907300  -112.422000
  H    -107.504000   19.164700  -112.132000
  S    -106.110000   25.950800  -114.653000
  C    -104.626000   26.813700  -114.700000
  C    -103.636000   26.250700  -115.530000
  C    -104.099000   24.981400  -116.056000
  C    -105.436000   24.709600  -115.745000
  H    -102.654000   26.750200  -115.494000
  C    -103.107000   23.941100  -116.738000
  H    -102.247000   24.397200  -117.176000
  H    -103.686000   23.499200  -117.589000
  C    -102.579000   22.804400  -115.887000
  H    -103.364000   22.039500  -115.886000
  H    -102.414000   23.154200  -114.938000
  C    -101.278000   22.139100  -116.358000
  H    -101.011000   21.270900  -115.696000
  H    -100.482000   22.898000  -116.384000
  H    -101.556000   21.630400  -117.289000
  H    -107.738000   20.589200  -117.548000
  H    -104.433000   27.708800  -114.182000

 Total Charge           Charge          ....    0
 Multiplicity           Mult            ....    1
 Number of Electrons    NEL             ....  134
 Basis Dimension        Dim             ....  322

ORBITAL ENERGIES
----------------

  NO   OCC          E(Eh)            E(eV)
   0   2.0000     -88.969882     -2420.9936
   1   2.0000     -88.969527     -2420.9839
   2   2.0000     -10.337099      -281.2868
   3   2.0000     -10.332975      -281.1746
   4   2.0000     -10.316628      -280.7297
   5   2.0000     -10.316330      -280.7216
   6   2.0000     -10.315750      -280.7058
   7   2.0000     -10.301662      -280.3225
   8   2.0000     -10.300937      -280.3028
   9   2.0000     -10.299578      -280.2658
  10   2.0000     -10.293728      -280.1066
  11   2.0000     -10.291247      -280.0391
  12   2.0000     -10.289498      -279.9915
  13   2.0000     -10.282443      -279.7995
  14   2.0000     -10.281925      -279.7854
  15   2.0000     -10.271660      -279.5061
  16   2.0000      -8.084155      -219.9810
  17   2.0000      -8.083572      -219.9652
  18   2.0000      -6.042509      -164.4250
  19   2.0000      -6.042134      -164.4148
  20   2.0000      -6.038698      -164.3213
  21   2.0000      -6.037963      -164.3013
  22   2.0000      -6.035066      -164.2225
  23   2.0000      -6.034577      -164.2092
  24   2.0000      -1.000616       -27.2281
  25   2.0000      -0.981462       -26.7069
  26   2.0000      -0.909085       -24.7375
  27   2.0000      -0.905330       -24.6353
  28   2.0000      -0.866091       -23.5675
  29   2.0000      -0.849107       -23.1054
  30   2.0000      -0.844332       -22.9754
  31   2.0000      -0.810790       -22.0627
  32   2.0000      -0.782138       -21.2831
  33   2.0000      -0.771897       -21.0044
  34   2.0000      -0.706896       -19.2356
  35   2.0000      -0.702698       -19.1214
  36   2.0000      -0.686720       -18.6866
  37   2.0000      -0.662019       -18.0145
  38   2.0000      -0.640573       -17.4309
  39   2.0000      -0.623243       -16.9593
  40   2.0000      -0.591414       -16.0932
  41   2.0000      -0.573291       -15.6000
  42   2.0000      -0.570206       -15.5161
  43   2.0000      -0.561008       -15.2658
  44   2.0000      -0.521620       -14.1940
  45   2.0000      -0.519519       -14.1368
  46   2.0000      -0.514787       -14.0081
  47   2.0000      -0.512441       -13.9442
  48   2.0000      -0.502522       -13.6743
  49   2.0000      -0.499596       -13.5947
  50   2.0000      -0.493668       -13.4334
  51   2.0000      -0.481436       -13.1005
  52   2.0000      -0.470297       -12.7974
  53   2.0000      -0.465591       -12.6694
  54   2.0000      -0.458510       -12.4767
  55   2.0000      -0.449756       -12.2385
  56   2.0000      -0.448201       -12.1962
  57   2.0000      -0.436227       -11.8703
  58   2.0000      -0.430778       -11.7221
  59   2.0000      -0.421128       -11.4595
  60   2.0000      -0.414459       -11.2780
  61   2.0000      -0.412557       -11.2263
  62   2.0000      -0.411056       -11.1854
  63   2.0000      -0.343402        -9.3445
  64   2.0000      -0.333805        -9.0833
  65   2.0000      -0.327181        -8.9031
  66   2.0000      -0.295478        -8.0404
  67   0.0000       0.027467         0.7474
  68   0.0000       0.062597         1.7033
  69   0.0000       0.107543         2.9264
  70   0.0000       0.115030         3.1301
  71   0.0000       0.128095         3.4857

MULLIKEN ATOMIC CHARGES
-----------------------
   0 S :    0.116402
   1 C :   -0.090090
   2 C :   -0.121600
   3 C :    0.055350
   4 C :   -0.143429
   5 H :   -0.003561
   6 C :    0.110446
   7 H :    0.008524
   8 H :   -0.004095
   9 C :   -0.088798
  10 H :    0.048663
  11 H :    0.038603
  12 C :   -0.081119
  13 H :    0.036472
  14 H :    0.042949
  15 H :    0.031062
  16 S :    0.121171
  17 C :   -0.085153
  18 C :   -0.053087
  19 C :   -0.023444
  20 C :   -0.174267
  21 H :    0.037483
  22 C :    0.071632
  23 H :    0.003799
  24 H :    0.026404
  25 C :   -0.040560
  26 H :    0.030097
  27 H :    0.006903
  28 C :   -0.072010
  29 H :    0.041797
  30 H :    0.042829
  31 H :    0.033293
  32 H :    0.035512
  33 H :    0.041825
Sum of atomic charges:   -0.0000000

LOEWDIN ATOMIC CHARGES
----------------------
   0 S :    0.412378
   1 C :   -0.199006
   2 C :   -0.063941
   3 C :   -0.051512
   4 C :   -0.194136
   5 H :    0.021542
   6 C :   -0.029092
   7 H :    0.023357
   8 H :    0.022211
   9 C :   -0.037550
  10 H :    0.030096
  11 H :    0.028913
  12 C :   -0.076087
  13 H :    0.028763
  14 H :    0.021342
  15 H :    0.027829
  16 S :    0.415434
  17 C :   -0.185297
  18 C :   -0.078761
  19 C :   -0.042567
  20 C :   -0.197505
  21 H :    0.040551
  22 C :   -0.029229
  23 H :    0.020290
  24 H :    0.029483
  25 C :   -0.038627
  26 H :    0.026883
  27 H :    0.008931
  28 C :   -0.065886
  29 H :    0.034003
  30 H :    0.025057
  31 H :    0.027074
  32 H :    0.026307
  33 H :    0.018750

  Mayer bond orders larger than 0.100000
B(  0-S ,  1-C ) :   1.1573 B(  0-S ,  4-C ) :   1.1432 B(  1-C ,  2-C ) :   1.5759
B(  1-C ,  4-C ) :   0.1008 B(  1-C , 32-H ) :   0.9704 B(  2-C ,  3-C ) :   1.2956
B(  2-C ,  6-C ) :   1.0235 B(  3-C ,  4-C ) :   1.5362 B(  3-C ,  5-H ) :   0.9908
B(  4-C , 20-C ) :   1.0368 B(  6-C ,  7-H ) :   0.9393 B(  6-C ,  8-H ) :   0.9339
B(  6-C ,  9-C ) :   1.0520 B(  9-C , 10-H ) :   0.9600 B(  9-C , 11-H ) :   0.9607
B(  9-C , 12-C ) :   1.0599 B( 12-C , 13-H ) :   0.9772 B( 12-C , 14-H ) :   0.9807
B( 12-C , 15-H ) :   0.9753 B( 16-S , 17-C ) :   1.1764 B( 16-S , 20-C ) :   1.1334
B( 17-C , 18-C ) :   1.6139 B( 17-C , 33-H ) :   0.9679 B( 18-C , 19-C ) :   1.2301
B( 18-C , 21-H ) :   0.9872 B( 19-C , 20-C ) :   1.6012 B( 19-C , 22-C ) :   1.0339
B( 22-C , 23-H ) :   0.9425 B( 22-C , 24-H ) :   0.9322 B( 22-C , 25-C ) :   1.0612
B( 25-C , 26-H ) :   0.9523 B( 25-C , 27-H ) :   0.9563 B( 25-C , 28-C ) :   1.0929
B( 28-C , 29-H ) :   0.9730 B( 28-C , 30-H ) :   0.9735 B( 28-C , 31-H ) :   0.9766

Dispersion correction           -0.014287616
FINAL SINGLE POINT ENERGY     -1339.856816316196

DIPOLE MOMENT
-------------
                                X             Y             Z
Electronic contribution:    -11.56877      23.48023      -8.28437
Nuclear contribution   :     11.87911     -23.89216       8.71304
                        -----------------------------------------
Total Dipole Moment    :      0.31034      -0.41194       0.42867
                        -----------------------------------------
Magnitude (a.u.)       :      0.67064
Magnitude (Debye)      :      1.70464

Rotational constants in cm-1:     0.016593     0.008303     0.007280
Rotational constants in MHz :   497.460404   248.915931   218.259837

                             ****ORCA TERMINATED NORMALLY****
TOTAL RUN TIME: 0 days 0 hours 0 minutes 21 seconds 255 msec
