                         Program Version 4.2.1 -  RELEASE  -
|  1> ! wB97X-D3 SP def2-SVP
|  2> %pal
|  3> nprocs 24
|  4> end
|  5>
|  6> * xyz 0 1
|  7> S 	 -104.594 	 22.1788 	 -117.63
|  8> C 	 -104.504 	 21.5522 	 -116.019
|  9> C 	 -105.307 	 22.2708 	 -115.178
| 10> C 	 -105.912 	 23.3962 	 -115.796
| 11> C 	 -105.51 	 23.5046 	 -117.111
| 12> H 	 -106.572 	 24.1019 	 -115.358
| 13> C 	 -105.679 	 21.8326 	 -113.777
| 14> H 	 -105.153 	 20.8975 	 -113.612
| 15> H 	 -106.733 	 21.661 	 -113.775
| 16> C 	 -105.248 	 22.8925 	 -112.667
| 17> H 	 -104.173 	 23.0532 	 -112.459
| 18> H 	 -105.593 	 23.865 	 -113.169
| 19> C 	 -105.93 	 22.5353 	 -111.261
| 20> H 	 -106.981 	 22.7565 	 -111.148
| 21> H 	 -105.851 	 21.4743 	 -110.945
| 22> H 	 -105.412 	 22.9854 	 -110.453
| 23> S 	 -107.537 	 24.8632 	 -118.318
| 24> C 	 -107.177 	 26.0358 	 -119.58
| 25> C 	 -105.892 	 26.4198 	 -119.584
| 26> C 	 -105.144 	 25.7049 	 -118.591
| 27> C 	 -105.852 	 24.6036 	 -117.982
| 28> H 	 -105.548 	 27.2759 	 -120.129
| 29> C 	 -103.668 	 25.9452 	 -118.375
| 30> H 	 -103.512 	 25.854 	 -117.306
| 31> H 	 -103.393 	 26.985 	 -118.677
| 32> C 	 -102.754 	 25.0206 	 -119.13
| 33> H 	 -102.672 	 25.3561 	 -120.166
| 34> H 	 -103.185 	 24.0374 	 -119.237
| 35> C 	 -101.336 	 25.0558 	 -118.499
| 36> H 	 -100.705 	 24.3775 	 -119.061
| 37> H 	 -101.402 	 24.7829 	 -117.451
| 38> H 	 -100.697 	 25.9578 	 -118.725
| 39> H 	 -103.98 	 20.7218 	 -115.684
| 40> H 	 -107.926 	 26.4054 	 -120.255
| 41> *
| 42>
| 43>                          ****END OF INPUT****

CARTESIAN COORDINATES (ANGSTROEM)
---------------------------------
  S    -104.594000   22.178800  -117.630000
  C    -104.504000   21.552200  -116.019000
  C    -105.307000   22.270800  -115.178000
  C    -105.912000   23.396200  -115.796000
  C    -105.510000   23.504600  -117.111000
  H    -106.572000   24.101900  -115.358000
  C    -105.679000   21.832600  -113.777000
  H    -105.153000   20.897500  -113.612000
  H    -106.733000   21.661000  -113.775000
  C    -105.248000   22.892500  -112.667000
  H    -104.173000   23.053200  -112.459000
  H    -105.593000   23.865000  -113.169000
  C    -105.930000   22.535300  -111.261000
  H    -106.981000   22.756500  -111.148000
  H    -105.851000   21.474300  -110.945000
  H    -105.412000   22.985400  -110.453000
  S    -107.537000   24.863200  -118.318000
  C    -107.177000   26.035800  -119.580000
  C    -105.892000   26.419800  -119.584000
  C    -105.144000   25.704900  -118.591000
  C    -105.852000   24.603600  -117.982000
  H    -105.548000   27.275900  -120.129000
  C    -103.668000   25.945200  -118.375000
  H    -103.512000   25.854000  -117.306000
  H    -103.393000   26.985000  -118.677000
  C    -102.754000   25.020600  -119.130000
  H    -102.672000   25.356100  -120.166000
  H    -103.185000   24.037400  -119.237000
  C    -101.336000   25.055800  -118.499000
  H    -100.705000   24.377500  -119.061000
  H    -101.402000   24.782900  -117.451000
  H    -100.697000   25.957800  -118.725000
  H    -103.980000   20.721800  -115.684000
  H    -107.926000   26.405400  -120.255000

 Total Charge           Charge          ....    0
 Multiplicity           Mult            ....    1
 Number of Electrons    NEL             ....  134
 Basis Dimension        Dim             ....  322

ORBITAL ENERGIES
----------------

  NO   OCC          E(Eh)            E(eV)
   0   2.0000     -88.969840     -2420.9924
   1   2.0000     -88.960663     -2420.7427
   2   2.0000     -10.325343      -280.9669
   3   2.0000     -10.324717      -280.9498
   4   2.0000     -10.312346      -280.6132
   5   2.0000     -10.305429      -280.4250
   6   2.0000     -10.305259      -280.4204
   7   2.0000     -10.304165      -280.3906
   8   2.0000     -10.295307      -280.1496
   9   2.0000     -10.292730      -280.0794
  10   2.0000     -10.289387      -279.9884
  11   2.0000     -10.289199      -279.9833
  12   2.0000     -10.282917      -279.8124
  13   2.0000     -10.280082      -279.7352
  14   2.0000     -10.277426      -279.6630
  15   2.0000     -10.276558      -279.6394
  16   2.0000      -8.085352      -220.0136
  17   2.0000      -8.075735      -219.7519
  18   2.0000      -6.043707      -164.4576
  19   2.0000      -6.039744      -164.3498
  20   2.0000      -6.036217      -164.2538
  21   2.0000      -6.034145      -164.1974
  22   2.0000      -6.030278      -164.0922
  23   2.0000      -6.026496      -163.9893
  24   2.0000      -1.014630       -27.6095
  25   2.0000      -0.987960       -26.8837
  26   2.0000      -0.907054       -24.6822
  27   2.0000      -0.905274       -24.6338
  28   2.0000      -0.873145       -23.7595
  29   2.0000      -0.847368       -23.0581
  30   2.0000      -0.840456       -22.8700
  31   2.0000      -0.818052       -22.2603
  32   2.0000      -0.782870       -21.3030
  33   2.0000      -0.764666       -20.8076
  34   2.0000      -0.712927       -19.3997
  35   2.0000      -0.700239       -19.0545
  36   2.0000      -0.691760       -18.8238
  37   2.0000      -0.662604       -18.0304
  38   2.0000      -0.645565       -17.5667
  39   2.0000      -0.618593       -16.8328
  40   2.0000      -0.596806       -16.2399
  41   2.0000      -0.574952       -15.6452
  42   2.0000      -0.564281       -15.3549
  43   2.0000      -0.553449       -15.0601
  44   2.0000      -0.524622       -14.2757
  45   2.0000      -0.519074       -14.1247
  46   2.0000      -0.513064       -13.9612
  47   2.0000      -0.510118       -13.8810
  48   2.0000      -0.503921       -13.7124
  49   2.0000      -0.502074       -13.6621
  50   2.0000      -0.495726       -13.4894
  51   2.0000      -0.475600       -12.9417
  52   2.0000      -0.470154       -12.7935
  53   2.0000      -0.468572       -12.7505
  54   2.0000      -0.459338       -12.4992
  55   2.0000      -0.452476       -12.3125
  56   2.0000      -0.445681       -12.1276
  57   2.0000      -0.441185       -12.0053
  58   2.0000      -0.435969       -11.8633
  59   2.0000      -0.426479       -11.6051
  60   2.0000      -0.415279       -11.3003
  61   2.0000      -0.408935       -11.1277
  62   2.0000      -0.403270       -10.9735
  63   2.0000      -0.341983        -9.3058
  64   2.0000      -0.333640        -9.0788
  65   2.0000      -0.321151        -8.7390
  66   2.0000      -0.294384        -8.0106
  67   0.0000       0.034261         0.9323
  68   0.0000       0.062354         1.6967
  69   0.0000       0.105539         2.8719
  70   0.0000       0.119485         3.2514
  71   0.0000       0.142459         3.8765

MULLIKEN ATOMIC CHARGES
-----------------------
   0 S :    0.140502
   1 C :   -0.096463
   2 C :   -0.099285
   3 C :    0.034003
   4 C :   -0.148959
   5 H :    0.006488
   6 C :    0.104723
   7 H :    0.010863
   8 H :    0.040186
   9 C :   -0.116255
  10 H :    0.045840
  11 H :    0.040234
  12 C :   -0.045931
  13 H :    0.035344
  14 H :    0.026744
  15 H :    0.020222
  16 S :    0.100305
  17 C :   -0.081048
  18 C :   -0.005279
  19 C :   -0.050325
  20 C :   -0.181452
  21 H :    0.019202
  22 C :    0.060022
  23 H :    0.026927
  24 H :    0.019256
  25 C :   -0.051249
  26 H :    0.015504
  27 H :    0.019953
  28 C :   -0.054059
  29 H :    0.018672
  30 H :    0.045476
  31 H :    0.035187
  32 H :    0.013520
  33 H :    0.051133
Sum of atomic charges:   -0.0000000

LOEWDIN ATOMIC CHARGES
----------------------
   0 S :    0.457688
   1 C :   -0.198711
   2 C :   -0.062711
   3 C :   -0.061649
   4 C :   -0.215825
   5 H :    0.026070
   6 C :   -0.022941
   7 H :    0.024980
   8 H :    0.032813
   9 C :   -0.040973
  10 H :    0.029804
  11 H :    0.030377
  12 C :   -0.075128
  13 H :    0.023801
  14 H :    0.029855
  15 H :    0.020231
  16 S :    0.404758
  17 C :   -0.172209
  18 C :   -0.073931
  19 C :   -0.046223
  20 C :   -0.212051
  21 H :    0.034211
  22 C :   -0.039292
  23 H :    0.028460
  24 H :    0.032785
  25 C :   -0.041117
  26 H :    0.023580
  27 H :    0.009517
  28 C :   -0.070928
  29 H :    0.024342
  30 H :    0.025644
  31 H :    0.033301
  32 H :    0.015571
  33 H :    0.025903

  Mayer bond orders larger than 0.100000
B(  0-S ,  1-C ) :   1.1378 B(  0-S ,  4-C ) :   1.1871 B(  1-C ,  2-C ) :   1.6150
B(  1-C , 32-H ) :   0.9753 B(  2-C ,  3-C ) :   1.2393 B(  2-C ,  6-C ) :   1.0254
B(  3-C ,  4-C ) :   1.5535 B(  3-C ,  5-H ) :   1.0006 B(  4-C , 20-C ) :   1.0302
B(  6-C ,  7-H ) :   0.9363 B(  6-C ,  8-H ) :   0.9469 B(  6-C ,  9-C ) :   1.0355
B(  9-C , 10-H ) :   0.9632 B(  9-C , 11-H ) :   0.9654 B(  9-C , 12-C ) :   1.0569
B( 12-C , 13-H ) :   0.9798 B( 12-C , 14-H ) :   0.9749 B( 12-C , 15-H ) :   0.9785
B( 16-S , 17-C ) :   1.1605 B( 16-S , 20-C ) :   1.1439 B( 17-C , 18-C ) :   1.6043
B( 17-C , 20-C ) :   0.1043 B( 17-C , 33-H ) :   0.9676 B( 18-C , 19-C ) :   1.2505
B( 18-C , 21-H ) :   0.9936 B( 19-C , 20-C ) :   1.5468 B( 19-C , 22-C ) :   1.0586
B( 22-C , 23-H ) :   0.9361 B( 22-C , 24-H ) :   0.9326 B( 22-C , 25-C ) :   1.0656
B( 25-C , 26-H ) :   0.9465 B( 25-C , 27-H ) :   0.9552 B( 25-C , 28-C ) :   1.0797
B( 28-C , 29-H ) :   0.9694 B( 28-C , 30-H ) :   0.9772 B( 28-C , 31-H ) :   0.9724

Dispersion correction           -0.014334452
FINAL SINGLE POINT ENERGY     -1339.861047623343

DIPOLE MOMENT
-------------
                                X             Y             Z
Electronic contribution:    -13.53403      -1.83680     -16.41672
Nuclear contribution   :     13.73289       1.94788      16.66878
                        -----------------------------------------
Total Dipole Moment    :      0.19886       0.11109       0.25206
                        -----------------------------------------
Magnitude (a.u.)       :      0.33973
Magnitude (Debye)      :      0.86354

Rotational constants in cm-1:     0.018842     0.008234     0.006905
Rotational constants in MHz :   564.854081   246.846835   207.011054

                             ****ORCA TERMINATED NORMALLY****
TOTAL RUN TIME: 0 days 0 hours 0 minutes 21 seconds 308 msec
