                         Program Version 4.2.1 -  RELEASE  -
|  1> ! wB97X-D3 SP def2-SVP
|  2> %pal
|  3> nprocs 24
|  4> end
|  5>
|  6> * xyz 0 1
|  7> S 	 -101.913 	 -3.48659 	 -110.158
|  8> C 	 -103.329 	 -4.45987 	 -109.734
|  9> C 	 -103.564 	 -4.41813 	 -108.365
| 10> C 	 -102.516 	 -3.79268 	 -107.703
| 11> C 	 -101.669 	 -3.0018 	 -108.549
| 12> H 	 -102.502 	 -3.55328 	 -106.652
| 13> C 	 -104.766 	 -4.95583 	 -107.657
| 14> H 	 -104.439 	 -5.52311 	 -106.794
| 15> H 	 -105.145 	 -5.70182 	 -108.417
| 16> C 	 -105.793 	 -3.83088 	 -107.403
| 17> H 	 -105.848 	 -3.35932 	 -108.415
| 18> H 	 -106.797 	 -4.28024 	 -107.154
| 19> C 	 -105.552 	 -2.76289 	 -106.351
| 20> H 	 -105.398 	 -3.33399 	 -105.375
| 21> H 	 -104.732 	 -2.06084 	 -106.517
| 22> H 	 -106.454 	 -2.20664 	 -106.267
| 23> S 	 -100.033 	 -0.856173 	 -109.27
| 24> C 	 -98.9812 	 -0.180508 	 -108.046
| 25> C 	 -99.0435 	 -0.828147 	 -106.858
| 26> C 	 -99.9183 	 -1.94373 	 -106.905
| 27> C 	 -100.579 	 -2.09288 	 -108.143
| 28> H 	 -98.5869 	 -0.471902 	 -105.95
| 29> C 	 -100.19 	 -2.77526 	 -105.686
| 30> H 	 -99.2781 	 -2.84157 	 -105.137
| 31> H 	 -100.497 	 -3.7797 	 -106.044
| 32> C 	 -101.175 	 -2.22714 	 -104.717
| 33> H 	 -102.192 	 -2.05346 	 -105.171
| 34> H 	 -100.88 	 -1.28581 	 -104.231
| 35> C 	 -101.468 	 -3.18496 	 -103.547
| 36> H 	 -101.775 	 -4.14955 	 -103.828
| 37> H 	 -102.281 	 -2.83803 	 -102.833
| 38> H 	 -100.731 	 -3.25697 	 -102.835
| 39> H 	 -104.03 	 -4.92042 	 -110.384
| 40> H 	 -98.342 	 0.60266 	 -108.298
| 41> *
| 42>
| 43>                          ****END OF INPUT****

CARTESIAN COORDINATES (ANGSTROEM)
---------------------------------
  S    -101.913000   -3.486590  -110.158000
  C    -103.329000   -4.459870  -109.734000
  C    -103.564000   -4.418130  -108.365000
  C    -102.516000   -3.792680  -107.703000
  C    -101.669000   -3.001800  -108.549000
  H    -102.502000   -3.553280  -106.652000
  C    -104.766000   -4.955830  -107.657000
  H    -104.439000   -5.523110  -106.794000
  H    -105.145000   -5.701820  -108.417000
  C    -105.793000   -3.830880  -107.403000
  H    -105.848000   -3.359320  -108.415000
  H    -106.797000   -4.280240  -107.154000
  C    -105.552000   -2.762890  -106.351000
  H    -105.398000   -3.333990  -105.375000
  H    -104.732000   -2.060840  -106.517000
  H    -106.454000   -2.206640  -106.267000
  S    -100.033000   -0.856173  -109.270000
  C    -98.981200   -0.180508  -108.046000
  C    -99.043500   -0.828147  -106.858000
  C    -99.918300   -1.943730  -106.905000
  C    -100.579000   -2.092880  -108.143000
  H    -98.586900   -0.471902  -105.950000
  C    -100.190000   -2.775260  -105.686000
  H    -99.278100   -2.841570  -105.137000
  H    -100.497000   -3.779700  -106.044000
  C    -101.175000   -2.227140  -104.717000
  H    -102.192000   -2.053460  -105.171000
  H    -100.880000   -1.285810  -104.231000
  C    -101.468000   -3.184960  -103.547000
  H    -101.775000   -4.149550  -103.828000
  H    -102.281000   -2.838030  -102.833000
  H    -100.731000   -3.256970  -102.835000
  H    -104.030000   -4.920420  -110.384000
  H    -98.342000    0.602660  -108.298000

 Total Charge           Charge          ....    0
 Multiplicity           Mult            ....    1
 Number of Electrons    NEL             ....  134
 Basis Dimension        Dim             ....  322

ORBITAL ENERGIES
----------------

  NO   OCC          E(Eh)            E(eV)
   0   2.0000     -88.970288     -2421.0046
   1   2.0000     -88.967091     -2420.9176
   2   2.0000     -10.333930      -281.2005
   3   2.0000     -10.332306      -281.1563
   4   2.0000     -10.314015      -280.6586
   5   2.0000     -10.310001      -280.5494
   6   2.0000     -10.302788      -280.3531
   7   2.0000     -10.295869      -280.1648
   8   2.0000     -10.295620      -280.1581
   9   2.0000     -10.294379      -280.1243
  10   2.0000     -10.292924      -280.0847
  11   2.0000     -10.292323      -280.0683
  12   2.0000     -10.288740      -279.9709
  13   2.0000     -10.288486      -279.9639
  14   2.0000     -10.281412      -279.7714
  15   2.0000     -10.272322      -279.5241
  16   2.0000      -8.085118      -220.0073
  17   2.0000      -8.081898      -219.9196
  18   2.0000      -6.043503      -164.4521
  19   2.0000      -6.040375      -164.3670
  20   2.0000      -6.039525      -164.3438
  21   2.0000      -6.036445      -164.2600
  22   2.0000      -6.036101      -164.2506
  23   2.0000      -6.032658      -164.1570
  24   2.0000      -1.009308       -27.4647
  25   2.0000      -0.988510       -26.8987
  26   2.0000      -0.918862       -25.0035
  27   2.0000      -0.915399       -24.9093
  28   2.0000      -0.869507       -23.6605
  29   2.0000      -0.854970       -23.2649
  30   2.0000      -0.847398       -23.0589
  31   2.0000      -0.815087       -22.1796
  32   2.0000      -0.789865       -21.4933
  33   2.0000      -0.776645       -21.1336
  34   2.0000      -0.708497       -19.2792
  35   2.0000      -0.699345       -19.0301
  36   2.0000      -0.694102       -18.8875
  37   2.0000      -0.667966       -18.1763
  38   2.0000      -0.636269       -17.3138
  39   2.0000      -0.618391       -16.8273
  40   2.0000      -0.601516       -16.3681
  41   2.0000      -0.579548       -15.7703
  42   2.0000      -0.574460       -15.6319
  43   2.0000      -0.548746       -14.9321
  44   2.0000      -0.542916       -14.7735
  45   2.0000      -0.526214       -14.3190
  46   2.0000      -0.521094       -14.1797
  47   2.0000      -0.509594       -13.8668
  48   2.0000      -0.508458       -13.8359
  49   2.0000      -0.500342       -13.6150
  50   2.0000      -0.491869       -13.3844
  51   2.0000      -0.481096       -13.0913
  52   2.0000      -0.475946       -12.9512
  53   2.0000      -0.470316       -12.7980
  54   2.0000      -0.459105       -12.4929
  55   2.0000      -0.456160       -12.4127
  56   2.0000      -0.442763       -12.0482
  57   2.0000      -0.438771       -11.9396
  58   2.0000      -0.427483       -11.6324
  59   2.0000      -0.422513       -11.4972
  60   2.0000      -0.420937       -11.4543
  61   2.0000      -0.417185       -11.3522
  62   2.0000      -0.413730       -11.2582
  63   2.0000      -0.357161        -9.7188
  64   2.0000      -0.334635        -9.1059
  65   2.0000      -0.333437        -9.0733
  66   2.0000      -0.280190        -7.6244
  67   0.0000       0.017142         0.4665
  68   0.0000       0.083466         2.2712
  69   0.0000       0.104532         2.8445
  70   0.0000       0.117664         3.2018
  71   0.0000       0.127106         3.4587

MULLIKEN ATOMIC CHARGES
-----------------------
   0 S :    0.117642
   1 C :   -0.099839
   2 C :   -0.124485
   3 C :    0.020275
   4 C :   -0.137239
   5 H :   -0.015177
   6 C :    0.079027
   7 H :    0.029791
   8 H :    0.025771
   9 C :   -0.092161
  10 H :    0.030771
  11 H :    0.039796
  12 C :   -0.044127
  13 H :    0.031782
  14 H :    0.053600
  15 H :    0.033184
  16 S :    0.095253
  17 C :   -0.064601
  18 C :   -0.005967
  19 C :   -0.064549
  20 C :   -0.118876
  21 H :    0.016612
  22 C :    0.072538
  23 H :    0.010564
  24 H :    0.035515
  25 C :   -0.080495
  26 H :    0.038759
  27 H :    0.026547
  28 C :   -0.023301
  29 H :    0.015717
  30 H :    0.025908
  31 H :    0.006088
  32 H :    0.027758
  33 H :    0.037918
Sum of atomic charges:   -0.0000000

LOEWDIN ATOMIC CHARGES
----------------------
   0 S :    0.429712
   1 C :   -0.202454
   2 C :   -0.061885
   3 C :   -0.077914
   4 C :   -0.199921
   5 H :    0.022255
   6 C :   -0.033885
   7 H :    0.027563
   8 H :    0.039231
   9 C :   -0.045371
  10 H :    0.029541
  11 H :    0.030189
  12 C :   -0.067513
  13 H :    0.031601
  14 H :    0.025787
  15 H :    0.026247
  16 S :    0.397605
  17 C :   -0.164853
  18 C :   -0.067262
  19 C :   -0.051958
  20 C :   -0.195243
  21 H :    0.033854
  22 C :   -0.037130
  23 H :    0.029437
  24 H :    0.036314
  25 C :   -0.041691
  26 H :    0.026502
  27 H :    0.027399
  28 C :   -0.064122
  29 H :    0.014862
  30 H :    0.035996
  31 H :    0.010966
  32 H :    0.020224
  33 H :    0.015916

  Mayer bond orders larger than 0.100000
B(  0-S ,  1-C ) :   1.1372 B(  0-S ,  4-C ) :   1.1909 B(  1-C ,  2-C ) :   1.5795
B(  1-C ,  4-C ) :   0.1144 B(  1-C , 32-H ) :   0.9648 B(  2-C ,  3-C ) :   1.3097
B(  2-C ,  6-C ) :   1.0192 B(  3-C ,  4-C ) :   1.4984 B(  3-C ,  5-H ) :   0.9757
B(  4-C , 20-C ) :   1.0707 B(  6-C ,  7-H ) :   0.9423 B(  6-C ,  8-H ) :   0.9345
B(  6-C ,  9-C ) :   1.0575 B(  9-C , 10-H ) :   0.9484 B(  9-C , 11-H ) :   0.9573
B(  9-C , 12-C ) :   1.0856 B( 12-C , 13-H ) :   0.9729 B( 12-C , 14-H ) :   0.9692
B( 12-C , 15-H ) :   0.9685 B( 16-S , 17-C ) :   1.1578 B( 16-S , 20-C ) :   1.1318
B( 17-C , 18-C ) :   1.5913 B( 17-C , 33-H ) :   0.9749 B( 18-C , 19-C ) :   1.2596
B( 18-C , 21-H ) :   0.9941 B( 19-C , 20-C ) :   1.5705 B( 19-C , 22-C ) :   1.0576
B( 22-C , 23-H ) :   0.9181 B( 22-C , 24-H ) :   0.9269 B( 22-C , 25-C ) :   1.0768
B( 25-C , 26-H ) :   0.9487 B( 25-C , 27-H ) :   0.9471 B( 25-C , 28-C ) :   1.0822
B( 28-C , 29-H ) :   0.9740 B( 28-C , 30-H ) :   0.9701 B( 28-C , 31-H ) :   0.9728

Dispersion correction           -0.015332463
FINAL SINGLE POINT ENERGY     -1339.873168291746

DIPOLE MOMENT
-------------
                                X             Y             Z
Electronic contribution:     15.89798       5.80888     -26.15437
Nuclear contribution   :    -16.15186      -5.74860      26.85947
                        -----------------------------------------
Total Dipole Moment    :     -0.25388       0.06028       0.70510
                        -----------------------------------------
Magnitude (a.u.)       :      0.75184
Magnitude (Debye)      :      1.91101

Rotational constants in cm-1:     0.016739     0.010931     0.007503
Rotational constants in MHz :   501.832698   327.714693   224.943534

                             ****ORCA TERMINATED NORMALLY****
TOTAL RUN TIME: 0 days 0 hours 0 minutes 22 seconds 850 msec
