                         Program Version 4.2.1 -  RELEASE  -
|  1> ! wB97X-D3 SP def2-SVP
|  2> %pal
|  3> nprocs 24
|  4> end
|  5>
|  6> * xyz 0 1
|  7> S 	 -111.79 	 58.6298 	 -101.942
|  8> C 	 -112.689 	 57.2765 	 -101.356
|  9> C 	 -112.697 	 57.1562 	 -100.003
| 10> C 	 -111.966 	 58.2402 	 -99.4262
| 11> C 	 -111.605 	 59.2102 	 -100.325
| 12> H 	 -111.78 	 58.4082 	 -98.3556
| 13> C 	 -113.557 	 56.159 	 -99.1452
| 14> H 	 -113.5 	 56.4354 	 -98.1073
| 15> H 	 -113.155 	 55.1425 	 -99.1603
| 16> C 	 -115.087 	 56.1019 	 -99.489
| 17> H 	 -115.194 	 55.9495 	 -100.526
| 18> H 	 -115.676 	 55.3715 	 -98.9139
| 19> C 	 -115.68 	 57.5052 	 -99.259
| 20> H 	 -115.205 	 58.3145 	 -99.95
| 21> H 	 -116.809 	 57.5215 	 -99.4808
| 22> H 	 -115.517 	 57.8818 	 -98.2666
| 23> S 	 -109.935 	 60.4617 	 -98.6048
| 24> C 	 -109.499 	 62.1352 	 -98.8071
| 25> C 	 -110.091 	 62.6815 	 -99.9247
| 26> C 	 -111.008 	 61.803 	 -100.613
| 27> C 	 -110.984 	 60.4927 	 -100.045
| 28> H 	 -109.894 	 63.6557 	 -100.088
| 29> C 	 -111.786 	 62.3413 	 -101.777
| 30> H 	 -112.129 	 61.4897 	 -102.369
| 31> H 	 -111.031 	 62.8575 	 -102.4
| 32> C 	 -113.056 	 63.171 	 -101.458
| 33> H 	 -112.684 	 63.9744 	 -100.879
| 34> H 	 -113.823 	 62.6093 	 -100.916
| 35> C 	 -113.49 	 63.8423 	 -102.803
| 36> H 	 -112.719 	 64.4829 	 -103.188
| 37> H 	 -114.394 	 64.4974 	 -102.558
| 38> H 	 -113.994 	 63.1061 	 -103.505
| 39> H 	 -113.112 	 56.4851 	 -102.042
| 40> H 	 -108.743 	 62.6788 	 -98.271
| 41> *
| 42>
| 43>                          ****END OF INPUT****

CARTESIAN COORDINATES (ANGSTROEM)
---------------------------------
  S    -111.790000   58.629800  -101.942000
  C    -112.689000   57.276500  -101.356000
  C    -112.697000   57.156200  -100.003000
  C    -111.966000   58.240200  -99.426200
  C    -111.605000   59.210200  -100.325000
  H    -111.780000   58.408200  -98.355600
  C    -113.557000   56.159000  -99.145200
  H    -113.500000   56.435400  -98.107300
  H    -113.155000   55.142500  -99.160300
  C    -115.087000   56.101900  -99.489000
  H    -115.194000   55.949500  -100.526000
  H    -115.676000   55.371500  -98.913900
  C    -115.680000   57.505200  -99.259000
  H    -115.205000   58.314500  -99.950000
  H    -116.809000   57.521500  -99.480800
  H    -115.517000   57.881800  -98.266600
  S    -109.935000   60.461700  -98.604800
  C    -109.499000   62.135200  -98.807100
  C    -110.091000   62.681500  -99.924700
  C    -111.008000   61.803000  -100.613000
  C    -110.984000   60.492700  -100.045000
  H    -109.894000   63.655700  -100.088000
  C    -111.786000   62.341300  -101.777000
  H    -112.129000   61.489700  -102.369000
  H    -111.031000   62.857500  -102.400000
  C    -113.056000   63.171000  -101.458000
  H    -112.684000   63.974400  -100.879000
  H    -113.823000   62.609300  -100.916000
  C    -113.490000   63.842300  -102.803000
  H    -112.719000   64.482900  -103.188000
  H    -114.394000   64.497400  -102.558000
  H    -113.994000   63.106100  -103.505000
  H    -113.112000   56.485100  -102.042000
  H    -108.743000   62.678800  -98.271000

 Total Charge           Charge          ....    0
 Multiplicity           Mult            ....    1
 Number of Electrons    NEL             ....  134
 Basis Dimension        Dim             ....  322

ORBITAL ENERGIES
----------------

  NO   OCC          E(Eh)            E(eV)
   0   2.0000     -88.967692     -2420.9340
   1   2.0000     -88.964813     -2420.8556
   2   2.0000     -10.333714      -281.1947
   3   2.0000     -10.327443      -281.0240
   4   2.0000     -10.314714      -280.6776
   5   2.0000     -10.313258      -280.6380
   6   2.0000     -10.309626      -280.5392
   7   2.0000     -10.304167      -280.3906
   8   2.0000     -10.298120      -280.2261
   9   2.0000     -10.293174      -280.0915
  10   2.0000     -10.290526      -280.0194
  11   2.0000     -10.288141      -279.9545
  12   2.0000     -10.288110      -279.9537
  13   2.0000     -10.287835      -279.9462
  14   2.0000     -10.285302      -279.8773
  15   2.0000     -10.282116      -279.7906
  16   2.0000      -8.083037      -219.9506
  17   2.0000      -8.079091      -219.8432
  18   2.0000      -6.041455      -164.3963
  19   2.0000      -6.037687      -164.2938
  20   2.0000      -6.037584      -164.2910
  21   2.0000      -6.033726      -164.1860
  22   2.0000      -6.033591      -164.1824
  23   2.0000      -6.029874      -164.0812
  24   2.0000      -1.010689       -27.5022
  25   2.0000      -0.983092       -26.7513
  26   2.0000      -0.907906       -24.7054
  27   2.0000      -0.906215       -24.6594
  28   2.0000      -0.870787       -23.6953
  29   2.0000      -0.851385       -23.1674
  30   2.0000      -0.842830       -22.9346
  31   2.0000      -0.810137       -22.0450
  32   2.0000      -0.778914       -21.1953
  33   2.0000      -0.766324       -20.8527
  34   2.0000      -0.706890       -19.2355
  35   2.0000      -0.698917       -19.0185
  36   2.0000      -0.692679       -18.8488
  37   2.0000      -0.666895       -18.1471
  38   2.0000      -0.636244       -17.3131
  39   2.0000      -0.612509       -16.6672
  40   2.0000      -0.592936       -16.1346
  41   2.0000      -0.576360       -15.6835
  42   2.0000      -0.571588       -15.5537
  43   2.0000      -0.545220       -14.8362
  44   2.0000      -0.541797       -14.7430
  45   2.0000      -0.521490       -14.1905
  46   2.0000      -0.511132       -13.9086
  47   2.0000      -0.507173       -13.8009
  48   2.0000      -0.506458       -13.7814
  49   2.0000      -0.495390       -13.4803
  50   2.0000      -0.483632       -13.1603
  51   2.0000      -0.476683       -12.9712
  52   2.0000      -0.471726       -12.8363
  53   2.0000      -0.464015       -12.6265
  54   2.0000      -0.455328       -12.3901
  55   2.0000      -0.450799       -12.2669
  56   2.0000      -0.444175       -12.0866
  57   2.0000      -0.434260       -11.8168
  58   2.0000      -0.428126       -11.6499
  59   2.0000      -0.425055       -11.5663
  60   2.0000      -0.423965       -11.5367
  61   2.0000      -0.417399       -11.3580
  62   2.0000      -0.409174       -11.1342
  63   2.0000      -0.356567        -9.7027
  64   2.0000      -0.333568        -9.0768
  65   2.0000      -0.328641        -8.9428
  66   2.0000      -0.283988        -7.7277
  67   0.0000       0.022886         0.6228
  68   0.0000       0.081380         2.2145
  69   0.0000       0.107164         2.9161
  70   0.0000       0.116529         3.1709
  71   0.0000       0.127746         3.4761

MULLIKEN ATOMIC CHARGES
-----------------------
   0 S :    0.126111
   1 C :   -0.160370
   2 C :   -0.065593
   3 C :   -0.018492
   4 C :   -0.131056
   5 H :    0.024240
   6 C :    0.071076
   7 H :    0.015531
   8 H :    0.038588
   9 C :   -0.039351
  10 H :    0.021282
  11 H :    0.042063
  12 C :   -0.124418
  13 H :    0.057849
  14 H :    0.044040
  15 H :    0.025651
  16 S :    0.086189
  17 C :   -0.072272
  18 C :   -0.009329
  19 C :   -0.024808
  20 C :   -0.144705
  21 H :   -0.026222
  22 C :    0.025276
  23 H :    0.009637
  24 H :    0.036679
  25 C :   -0.032767
  26 H :    0.014720
  27 H :    0.048480
  28 C :   -0.084668
  29 H :    0.043031
  30 H :    0.035067
  31 H :    0.048324
  32 H :    0.067968
  33 H :    0.052251
Sum of atomic charges:    0.0000000

LOEWDIN ATOMIC CHARGES
----------------------
   0 S :    0.428944
   1 C :   -0.212826
   2 C :   -0.064200
   3 C :   -0.073822
   4 C :   -0.201505
   5 H :    0.028566
   6 C :   -0.024292
   7 H :    0.025210
   8 H :    0.030978
   9 C :   -0.035736
  10 H :    0.016582
  11 H :    0.029822
  12 C :   -0.079595
  13 H :    0.037747
  14 H :    0.030350
  15 H :    0.014808
  16 S :    0.401747
  17 C :   -0.182185
  18 C :   -0.060840
  19 C :   -0.053197
  20 C :   -0.185337
  21 H :    0.011120
  22 C :   -0.041676
  23 H :    0.019608
  24 H :    0.036621
  25 C :   -0.029232
  26 H :    0.017234
  27 H :    0.031712
  28 C :   -0.071831
  29 H :    0.023970
  30 H :    0.031089
  31 H :    0.032730
  32 H :    0.038155
  33 H :    0.029281

  Mayer bond orders larger than 0.100000
B(  0-S ,  1-C ) :   1.1422 B(  0-S ,  4-C ) :   1.1493 B(  1-C ,  2-C ) :   1.6309
B(  1-C , 32-H ) :   0.9559 B(  2-C ,  3-C ) :   1.2509 B(  2-C ,  6-C ) :   1.0030
B(  3-C ,  4-C ) :   1.5741 B(  3-C ,  5-H ) :   0.9826 B(  4-C , 20-C ) :   1.0732
B(  6-C ,  7-H ) :   0.9512 B(  6-C ,  8-H ) :   0.9406 B(  6-C ,  9-C ) :   1.0687
B(  9-C , 10-H ) :   0.9566 B(  9-C , 11-H ) :   0.9580 B(  9-C , 12-C ) :   1.0660
B( 12-C , 13-H ) :   0.9724 B( 12-C , 14-H ) :   0.9747 B( 12-C , 15-H ) :   0.9789
B( 16-S , 17-C ) :   1.1470 B( 16-S , 20-C ) :   1.1381 B( 17-C , 18-C ) :   1.6315
B( 17-C , 33-H ) :   0.9655 B( 18-C , 19-C ) :   1.2189 B( 18-C , 21-H ) :   1.0033
B( 19-C , 20-C ) :   1.5582 B( 19-C , 22-C ) :   1.0452 B( 22-C , 23-H ) :   0.9282
B( 22-C , 24-H ) :   0.9402 B( 22-C , 25-C ) :   1.0583 B( 25-C , 26-H ) :   0.9558
B( 25-C , 27-H ) :   0.9557 B( 25-C , 28-C ) :   1.0784 B( 28-C , 29-H ) :   0.9750
B( 28-C , 30-H ) :   0.9744 B( 28-C , 31-H ) :   0.9752

Dispersion correction           -0.014101035
FINAL SINGLE POINT ENERGY     -1339.868230631498

DIPOLE MOMENT
-------------
                                X             Y             Z
Electronic contribution:     20.82520      -4.08354       3.06640
Nuclear contribution   :    -21.10662       4.25448      -3.04265
                        -----------------------------------------
Total Dipole Moment    :     -0.28143       0.17094       0.02375
                        -----------------------------------------
Magnitude (a.u.)       :      0.33013
Magnitude (Debye)      :      0.83912

Rotational constants in cm-1:     0.018363     0.008463     0.006953
Rotational constants in MHz :   550.500766   253.701146   208.435585

                             ****ORCA TERMINATED NORMALLY****
TOTAL RUN TIME: 0 days 0 hours 0 minutes 21 seconds 287 msec
