                         Program Version 4.2.1 -  RELEASE  -
|  1> ! wB97X-D3 SP def2-SVP
|  2> %pal
|  3> nprocs 24
|  4> end
|  5>
|  6> * xyz 0 1
|  7> S 	 -33.0586 	 -35.5639 	 -89.0735
|  8> C 	 -31.8028 	 -34.3164 	 -88.95
|  9> C 	 -30.9178 	 -34.2735 	 -90.0213
| 10> C 	 -31.1835 	 -35.3843 	 -90.8721
| 11> C 	 -32.2987 	 -36.135 	 -90.5437
| 12> H 	 -30.835 	 -35.6401 	 -91.8372
| 13> C 	 -29.7896 	 -33.3162 	 -90.2245
| 14> H 	 -29.2714 	 -33.7615 	 -91.1302
| 15> H 	 -29.1251 	 -33.366 	 -89.3505
| 16> C 	 -30.0654 	 -31.8513 	 -90.5755
| 17> H 	 -30.73 	 -31.5354 	 -89.7369
| 18> H 	 -29.2461 	 -31.2462 	 -90.5139
| 19> C 	 -30.7335 	 -31.7365 	 -91.9311
| 20> H 	 -30.1402 	 -32.0762 	 -92.7953
| 21> H 	 -31.6871 	 -32.2057 	 -91.9911
| 22> H 	 -30.9323 	 -30.6415 	 -92.0707
| 23> S 	 -32.2149 	 -38.8417 	 -91.2301
| 24> C 	 -33.5086 	 -39.5838 	 -92.1845
| 25> C 	 -34.3474 	 -38.5691 	 -92.587
| 26> C 	 -34.0246 	 -37.2979 	 -91.966
| 27> C 	 -32.8664 	 -37.221 	 -91.3056
| 28> H 	 -35.2467 	 -38.8537 	 -93.0885
| 29> C 	 -34.9784 	 -36.0468 	 -92.2187
| 30> H 	 -34.7587 	 -35.3821 	 -91.4804
| 31> H 	 -35.946 	 -36.4518 	 -91.9479
| 32> C 	 -35.0277 	 -35.5561 	 -93.5324
| 33> H 	 -35.3725 	 -36.3924 	 -94.1122
| 34> H 	 -33.9534 	 -35.4945 	 -93.855
| 35> C 	 -35.8637 	 -34.3073 	 -93.7433
| 36> H 	 -36.9273 	 -34.5642 	 -93.4485
| 37> H 	 -35.8736 	 -34.1495 	 -94.8746
| 38> H 	 -35.3836 	 -33.4587 	 -93.2034
| 39> H 	 -31.7556 	 -33.5117 	 -88.139
| 40> H 	 -33.6885 	 -40.5817 	 -92.2564
| 41> *
| 42>
| 43>                          ****END OF INPUT****

CARTESIAN COORDINATES (ANGSTROEM)
---------------------------------
  S    -33.058600  -35.563900  -89.073500
  C    -31.802800  -34.316400  -88.950000
  C    -30.917800  -34.273500  -90.021300
  C    -31.183500  -35.384300  -90.872100
  C    -32.298700  -36.135000  -90.543700
  H    -30.835000  -35.640100  -91.837200
  C    -29.789600  -33.316200  -90.224500
  H    -29.271400  -33.761500  -91.130200
  H    -29.125100  -33.366000  -89.350500
  C    -30.065400  -31.851300  -90.575500
  H    -30.730000  -31.535400  -89.736900
  H    -29.246100  -31.246200  -90.513900
  C    -30.733500  -31.736500  -91.931100
  H    -30.140200  -32.076200  -92.795300
  H    -31.687100  -32.205700  -91.991100
  H    -30.932300  -30.641500  -92.070700
  S    -32.214900  -38.841700  -91.230100
  C    -33.508600  -39.583800  -92.184500
  C    -34.347400  -38.569100  -92.587000
  C    -34.024600  -37.297900  -91.966000
  C    -32.866400  -37.221000  -91.305600
  H    -35.246700  -38.853700  -93.088500
  C    -34.978400  -36.046800  -92.218700
  H    -34.758700  -35.382100  -91.480400
  H    -35.946000  -36.451800  -91.947900
  C    -35.027700  -35.556100  -93.532400
  H    -35.372500  -36.392400  -94.112200
  H    -33.953400  -35.494500  -93.855000
  C    -35.863700  -34.307300  -93.743300
  H    -36.927300  -34.564200  -93.448500
  H    -35.873600  -34.149500  -94.874600
  H    -35.383600  -33.458700  -93.203400
  H    -31.755600  -33.511700  -88.139000
  H    -33.688500  -40.581700  -92.256400

 Total Charge           Charge          ....    0
 Multiplicity           Mult            ....    1
 Number of Electrons    NEL             ....  134
 Basis Dimension        Dim             ....  322

ORBITAL ENERGIES
----------------

  NO   OCC          E(Eh)            E(eV)
   0   2.0000     -88.972681     -2421.0697
   1   2.0000     -88.958274     -2420.6777
   2   2.0000     -10.327741      -281.0321
   3   2.0000     -10.322956      -280.9019
   4   2.0000     -10.320310      -280.8299
   5   2.0000     -10.315829      -280.7080
   6   2.0000     -10.305078      -280.4154
   7   2.0000     -10.300770      -280.2982
   8   2.0000     -10.295610      -280.1578
   9   2.0000     -10.294621      -280.1309
  10   2.0000     -10.292675      -280.0779
  11   2.0000     -10.290208      -280.0108
  12   2.0000     -10.284510      -279.8557
  13   2.0000     -10.278111      -279.6816
  14   2.0000     -10.272424      -279.5269
  15   2.0000     -10.271165      -279.4926
  16   2.0000      -8.086384      -220.0417
  17   2.0000      -8.073188      -219.6826
  18   2.0000      -6.044801      -164.4874
  19   2.0000      -6.041080      -164.3862
  20   2.0000      -6.037245      -164.2818
  21   2.0000      -6.031855      -164.1351
  22   2.0000      -6.027545      -164.0178
  23   2.0000      -6.023849      -163.9173
  24   2.0000      -1.009073       -27.4583
  25   2.0000      -0.985038       -26.8043
  26   2.0000      -0.923252       -25.1230
  27   2.0000      -0.917748       -24.9732
  28   2.0000      -0.874888       -23.8069
  29   2.0000      -0.852596       -23.2003
  30   2.0000      -0.839786       -22.8517
  31   2.0000      -0.818076       -22.2610
  32   2.0000      -0.783303       -21.3148
  33   2.0000      -0.775071       -21.0908
  34   2.0000      -0.711729       -19.3671
  35   2.0000      -0.704598       -19.1731
  36   2.0000      -0.694767       -18.9056
  37   2.0000      -0.664562       -18.0836
  38   2.0000      -0.641707       -17.4617
  39   2.0000      -0.609601       -16.5881
  40   2.0000      -0.596393       -16.2287
  41   2.0000      -0.578077       -15.7303
  42   2.0000      -0.574009       -15.6196
  43   2.0000      -0.557497       -15.1703
  44   2.0000      -0.550688       -14.9850
  45   2.0000      -0.530017       -14.4225
  46   2.0000      -0.516229       -14.0473
  47   2.0000      -0.512879       -13.9562
  48   2.0000      -0.507172       -13.8009
  49   2.0000      -0.497973       -13.5505
  50   2.0000      -0.488561       -13.2944
  51   2.0000      -0.479872       -13.0580
  52   2.0000      -0.475427       -12.9370
  53   2.0000      -0.468637       -12.7522
  54   2.0000      -0.462949       -12.5975
  55   2.0000      -0.445445       -12.1212
  56   2.0000      -0.443602       -12.0710
  57   2.0000      -0.438991       -11.9455
  58   2.0000      -0.432044       -11.7565
  59   2.0000      -0.429756       -11.6943
  60   2.0000      -0.412478       -11.2241
  61   2.0000      -0.407725       -11.0948
  62   2.0000      -0.395044       -10.7497
  63   2.0000      -0.340078        -9.2540
  64   2.0000      -0.336288        -9.1509
  65   2.0000      -0.325020        -8.8442
  66   2.0000      -0.306871        -8.3504
  67   0.0000       0.040211         1.0942
  68   0.0000       0.054498         1.4830
  69   0.0000       0.107155         2.9158
  70   0.0000       0.117743         3.2039
  71   0.0000       0.127212         3.4616

MULLIKEN ATOMIC CHARGES
-----------------------
   0 S :    0.134584
   1 C :   -0.153852
   2 C :   -0.066289
   3 C :    0.057869
   4 C :   -0.197008
   5 H :   -0.002266
   6 C :    0.021926
   7 H :    0.026308
   8 H :    0.045728
   9 C :   -0.006291
  10 H :    0.021276
  11 H :    0.012477
  12 C :   -0.070594
  13 H :    0.037245
  14 H :    0.036819
  15 H :    0.034065
  16 S :    0.084742
  17 C :   -0.059919
  18 C :   -0.018466
  19 C :   -0.103096
  20 C :   -0.134280
  21 H :    0.018400
  22 C :    0.161054
  23 H :   -0.025721
  24 H :   -0.001104
  25 C :   -0.076767
  26 H :    0.007244
  27 H :    0.023575
  28 C :   -0.048314
  29 H :    0.041136
  30 H :    0.047199
  31 H :    0.053990
  32 H :    0.068318
  33 H :    0.030012
Sum of atomic charges:   -0.0000000

LOEWDIN ATOMIC CHARGES
----------------------
   0 S :    0.409537
   1 C :   -0.198569
   2 C :   -0.067124
   3 C :   -0.053142
   4 C :   -0.192258
   5 H :    0.027460
   6 C :   -0.037789
   7 H :    0.034888
   8 H :    0.036274
   9 C :   -0.032994
  10 H :    0.028147
  11 H :    0.013337
  12 C :   -0.066582
  13 H :    0.027714
  14 H :    0.022952
  15 H :    0.032347
  16 S :    0.389685
  17 C :   -0.151802
  18 C :   -0.072453
  19 C :   -0.049968
  20 C :   -0.211744
  21 H :    0.027870
  22 C :   -0.021702
  23 H :    0.002940
  24 H :    0.024554
  25 C :   -0.059793
  26 H :    0.020385
  27 H :    0.028125
  28 C :   -0.065597
  29 H :    0.033105
  30 H :    0.036697
  31 H :    0.033335
  32 H :    0.039303
  33 H :    0.012860

  Mayer bond orders larger than 0.100000
B(  0-S ,  1-C ) :   1.1451 B(  0-S ,  4-C ) :   1.1357 B(  1-C ,  2-C ) :   1.6165
B(  1-C , 32-H ) :   0.9544 B(  2-C ,  3-C ) :   1.2252 B(  2-C ,  6-C ) :   1.0078
B(  3-C ,  4-C ) :   1.6109 B(  3-C ,  5-H ) :   0.9870 B(  4-C , 20-C ) :   1.0293
B(  6-C ,  7-H ) :   0.9446 B(  6-C ,  8-H ) :   0.9385 B(  6-C ,  9-C ) :   1.0749
B(  9-C , 10-H ) :   0.9513 B(  9-C , 11-H ) :   0.9535 B(  9-C , 12-C ) :   1.0783
B( 12-C , 13-H ) :   0.9743 B( 12-C , 14-H ) :   0.9764 B( 12-C , 15-H ) :   0.9723
B( 16-S , 17-C ) :   1.1580 B( 16-S , 20-C ) :   1.1102 B( 17-C , 18-C ) :   1.6137
B( 17-C , 33-H ) :   0.9824 B( 18-C , 19-C ) :   1.2180 B( 18-C , 21-H ) :   0.9908
B( 19-C , 20-C ) :   1.6526 B( 19-C , 22-C ) :   1.0205 B( 22-C , 23-H ) :   0.9183
B( 22-C , 24-H ) :   0.9169 B( 22-C , 25-C ) :   1.0895 B( 25-C , 26-H ) :   0.9413
B( 25-C , 27-H ) :   0.9440 B( 25-C , 28-C ) :   1.0817 B( 28-C , 29-H ) :   0.9692
B( 28-C , 30-H ) :   0.9730 B( 28-C , 31-H ) :   0.9728

Dispersion correction           -0.014514234
FINAL SINGLE POINT ENERGY     -1339.847196285788

DIPOLE MOMENT
-------------
                                X             Y             Z
Electronic contribution:      2.40909     -22.99931      13.61238
Nuclear contribution   :     -2.57114      23.43861     -13.85301
                        -----------------------------------------
Total Dipole Moment    :     -0.16205       0.43931      -0.24063
                        -----------------------------------------
Magnitude (a.u.)       :      0.52645
Magnitude (Debye)      :      1.33814

Rotational constants in cm-1:     0.018111     0.008982     0.007190
Rotational constants in MHz :   542.943677   269.278277   215.555750

                             ****ORCA TERMINATED NORMALLY****
TOTAL RUN TIME: 0 days 0 hours 0 minutes 20 seconds 847 msec
