                         Program Version 4.2.1 -  RELEASE  -
|  1> ! wB97X-D3 SP def2-SVP
|  2> %pal
|  3> nprocs 24
|  4> end
|  5>
|  6> * xyz 0 1
|  7> S 	 -76.3725 	 9.03914 	 -106.824
|  8> C 	 -76.8754 	 9.74044 	 -108.418
|  9> C 	 -75.9999 	 9.48228 	 -109.389
| 10> C 	 -74.9727 	 8.59668 	 -108.96
| 11> C 	 -74.9849 	 8.27694 	 -107.577
| 12> H 	 -74.1996 	 8.13873 	 -109.515
| 13> C 	 -76.1036 	 10.0972 	 -110.811
| 14> H 	 -76.0624 	 9.13034 	 -111.399
| 15> H 	 -75.2273 	 10.5998 	 -111.106
| 16> C 	 -77.4726 	 10.723 	 -111.225
| 17> H 	 -78.2607 	 9.95547 	 -111.202
| 18> H 	 -77.7095 	 11.5781 	 -110.53
| 19> C 	 -77.4999 	 11.3559 	 -112.589
| 20> H 	 -77.0585 	 10.5613 	 -113.178
| 21> H 	 -78.4622 	 11.5869 	 -112.928
| 22> H 	 -76.9809 	 12.3697 	 -112.545
| 23> S 	 -74.6967 	 6.24953 	 -105.668
| 24> C 	 -73.0977 	 5.4661 	 -105.455
| 25> C 	 -72.1034 	 6.27538 	 -106.04
| 26> C 	 -72.6333 	 7.32676 	 -106.883
| 27> C 	 -74.0758 	 7.38687 	 -106.872
| 28> H 	 -71.0237 	 6.01757 	 -105.87
| 29> C 	 -71.7397 	 8.21974 	 -107.679
| 30> H 	 -71.0574 	 8.59354 	 -106.923
| 31> H 	 -72.2665 	 9.08544 	 -108.032
| 32> C 	 -71.0265 	 7.59096 	 -108.907
| 33> H 	 -71.6176 	 6.69947 	 -109.115
| 34> H 	 -69.9641 	 7.26969 	 -108.593
| 35> C 	 -71.121 	 8.49994 	 -110.142
| 36> H 	 -72.0954 	 8.54585 	 -110.63
| 37> H 	 -70.3817 	 8.2974 	 -110.897
| 38> H 	 -70.7458 	 9.4575 	 -109.831
| 39> H 	 -77.695 	 10.5152 	 -108.503
| 40> H 	 -72.8724 	 4.60578 	 -104.866
| 41> *
| 42>
| 43>                          ****END OF INPUT****

CARTESIAN COORDINATES (ANGSTROEM)
---------------------------------
  S    -76.372500    9.039140  -106.824000
  C    -76.875400    9.740440  -108.418000
  C    -75.999900    9.482280  -109.389000
  C    -74.972700    8.596680  -108.960000
  C    -74.984900    8.276940  -107.577000
  H    -74.199600    8.138730  -109.515000
  C    -76.103600   10.097200  -110.811000
  H    -76.062400    9.130340  -111.399000
  H    -75.227300   10.599800  -111.106000
  C    -77.472600   10.723000  -111.225000
  H    -78.260700    9.955470  -111.202000
  H    -77.709500   11.578100  -110.530000
  C    -77.499900   11.355900  -112.589000
  H    -77.058500   10.561300  -113.178000
  H    -78.462200   11.586900  -112.928000
  H    -76.980900   12.369700  -112.545000
  S    -74.696700    6.249530  -105.668000
  C    -73.097700    5.466100  -105.455000
  C    -72.103400    6.275380  -106.040000
  C    -72.633300    7.326760  -106.883000
  C    -74.075800    7.386870  -106.872000
  H    -71.023700    6.017570  -105.870000
  C    -71.739700    8.219740  -107.679000
  H    -71.057400    8.593540  -106.923000
  H    -72.266500    9.085440  -108.032000
  C    -71.026500    7.590960  -108.907000
  H    -71.617600    6.699470  -109.115000
  H    -69.964100    7.269690  -108.593000
  C    -71.121000    8.499940  -110.142000
  H    -72.095400    8.545850  -110.630000
  H    -70.381700    8.297400  -110.897000
  H    -70.745800    9.457500  -109.831000
  H    -77.695000   10.515200  -108.503000
  H    -72.872400    4.605780  -104.866000

 Total Charge           Charge          ....    0
 Multiplicity           Mult            ....    1
 Number of Electrons    NEL             ....  134
 Basis Dimension        Dim             ....  322

ORBITAL ENERGIES
----------------

  NO   OCC          E(Eh)            E(eV)
   0   2.0000     -88.968011     -2420.9427
   1   2.0000     -88.964443     -2420.8456
   2   2.0000     -10.335868      -281.2533
   3   2.0000     -10.335119      -281.2329
   4   2.0000     -10.325035      -280.9585
   5   2.0000     -10.314729      -280.6781
   6   2.0000     -10.311875      -280.6004
   7   2.0000     -10.305259      -280.4203
   8   2.0000     -10.302674      -280.3500
   9   2.0000     -10.301512      -280.3184
  10   2.0000     -10.295557      -280.1563
  11   2.0000     -10.294894      -280.1383
  12   2.0000     -10.294486      -280.1272
  13   2.0000     -10.284788      -279.8633
  14   2.0000     -10.279615      -279.7225
  15   2.0000     -10.278984      -279.7054
  16   2.0000      -8.081507      -219.9090
  17   2.0000      -8.078315      -219.8221
  18   2.0000      -6.040152      -164.3609
  19   2.0000      -6.036932      -164.2733
  20   2.0000      -6.036194      -164.2532
  21   2.0000      -6.033069      -164.1681
  22   2.0000      -6.032177      -164.1439
  23   2.0000      -6.028878      -164.0541
  24   2.0000      -0.998446       -27.1691
  25   2.0000      -0.975463       -26.5437
  26   2.0000      -0.912990       -24.8437
  27   2.0000      -0.908319       -24.7166
  28   2.0000      -0.872310       -23.7368
  29   2.0000      -0.849073       -23.1044
  30   2.0000      -0.844035       -22.9673
  31   2.0000      -0.812423       -22.1072
  32   2.0000      -0.784844       -21.3567
  33   2.0000      -0.770614       -20.9695
  34   2.0000      -0.710432       -19.3318
  35   2.0000      -0.700800       -19.0697
  36   2.0000      -0.691492       -18.8164
  37   2.0000      -0.656433       -17.8624
  38   2.0000      -0.633492       -17.2382
  39   2.0000      -0.610779       -16.6201
  40   2.0000      -0.593950       -16.1622
  41   2.0000      -0.578831       -15.7508
  42   2.0000      -0.568828       -15.4786
  43   2.0000      -0.566083       -15.4039
  44   2.0000      -0.531350       -14.4588
  45   2.0000      -0.524942       -14.2844
  46   2.0000      -0.519706       -14.1419
  47   2.0000      -0.514665       -14.0047
  48   2.0000      -0.505179       -13.7466
  49   2.0000      -0.499279       -13.5861
  50   2.0000      -0.493482       -13.4283
  51   2.0000      -0.482821       -13.1382
  52   2.0000      -0.472901       -12.8683
  53   2.0000      -0.462437       -12.5836
  54   2.0000      -0.455878       -12.4051
  55   2.0000      -0.445854       -12.1323
  56   2.0000      -0.439430       -11.9575
  57   2.0000      -0.437092       -11.8939
  58   2.0000      -0.430243       -11.7075
  59   2.0000      -0.427879       -11.6432
  60   2.0000      -0.421492       -11.4694
  61   2.0000      -0.413078       -11.2404
  62   2.0000      -0.408242       -11.1088
  63   2.0000      -0.351176        -9.5560
  64   2.0000      -0.330688        -8.9985
  65   2.0000      -0.327194        -8.9034
  66   2.0000      -0.285267        -7.7625
  67   0.0000       0.020750         0.5646
  68   0.0000       0.068858         1.8737
  69   0.0000       0.100009         2.7214
  70   0.0000       0.121270         3.2999
  71   0.0000       0.130471         3.5503

MULLIKEN ATOMIC CHARGES
-----------------------
   0 S :    0.093343
   1 C :   -0.161577
   2 C :   -0.042324
   3 C :    0.029637
   4 C :   -0.145541
   5 H :   -0.024445
   6 C :    0.064422
   7 H :    0.035195
   8 H :    0.033028
   9 C :   -0.128876
  10 H :    0.042749
  11 H :    0.035895
  12 C :   -0.015805
  13 H :    0.028687
  14 H :    0.023266
  15 H :    0.043144
  16 S :    0.101811
  17 C :   -0.094753
  18 C :   -0.042336
  19 C :   -0.070820
  20 C :   -0.144219
  21 H :    0.043128
  22 C :    0.073158
  23 H :    0.031487
  24 H :    0.017925
  25 C :   -0.080555
  26 H :    0.037473
  27 H :    0.045392
  28 C :   -0.045950
  29 H :    0.046457
  30 H :    0.023010
  31 H :    0.022463
  32 H :    0.069227
  33 H :    0.056307
Sum of atomic charges:   -0.0000000

LOEWDIN ATOMIC CHARGES
----------------------
   0 S :    0.371051
   1 C :   -0.187237
   2 C :   -0.066290
   3 C :   -0.063732
   4 C :   -0.182187
   5 H :    0.019292
   6 C :   -0.028051
   7 H :    0.042534
   8 H :    0.024544
   9 C :   -0.046817
  10 H :    0.028773
  11 H :    0.022790
  12 C :   -0.061292
  13 H :    0.025715
  14 H :    0.018486
  15 H :    0.035529
  16 S :    0.386209
  17 C :   -0.170425
  18 C :   -0.073629
  19 C :   -0.049914
  20 C :   -0.200360
  21 H :    0.041501
  22 C :   -0.040593
  23 H :    0.035579
  24 H :    0.026517
  25 C :   -0.042869
  26 H :    0.023799
  27 H :    0.034345
  28 C :   -0.067815
  29 H :    0.027288
  30 H :    0.026429
  31 H :    0.024067
  32 H :    0.039454
  33 H :    0.027310

  Mayer bond orders larger than 0.100000
B(  0-S ,  1-C ) :   1.1015 B(  0-S ,  4-C ) :   1.1422 B(  1-C ,  2-C ) :   1.6808
B(  1-C , 32-H ) :   0.9472 B(  2-C ,  3-C ) :   1.2113 B(  2-C ,  6-C ) :   0.9815
B(  3-C ,  4-C ) :   1.5710 B(  3-C ,  5-H ) :   1.0034 B(  4-C , 20-C ) :   1.0865
B(  6-C ,  7-H ) :   0.9354 B(  6-C ,  8-H ) :   0.9498 B(  6-C ,  9-C ) :   1.0695
B(  9-C , 10-H ) :   0.9556 B(  9-C , 11-H ) :   0.9510 B(  9-C , 12-C ) :   1.0854
B( 12-C , 13-H ) :   0.9738 B( 12-C , 14-H ) :   0.9711 B( 12-C , 15-H ) :   0.9749
B( 16-S , 17-C ) :   1.1501 B( 16-S , 20-C ) :   1.1300 B( 17-C , 18-C ) :   1.5981
B( 17-C , 20-C ) :   0.1066 B( 17-C , 33-H ) :   0.9727 B( 18-C , 19-C ) :   1.2451
B( 18-C , 21-H ) :   0.9807 B( 19-C , 20-C ) :   1.5376 B( 19-C , 22-C ) :   1.0716
B( 22-C , 23-H ) :   0.9239 B( 22-C , 24-H ) :   0.9345 B( 22-C , 25-C ) :   1.0251
B( 25-C , 26-H ) :   0.9675 B( 25-C , 27-H ) :   0.9530 B( 25-C , 28-C ) :   1.0847
B( 28-C , 29-H ) :   0.9731 B( 28-C , 30-H ) :   0.9694 B( 28-C , 31-H ) :   0.9720

Dispersion correction           -0.014057299
FINAL SINGLE POINT ENERGY     -1339.853595053263

DIPOLE MOMENT
-------------
                                X             Y             Z
Electronic contribution:     -7.74508     -12.19801      27.40122
Nuclear contribution   :      8.23055      12.41703     -27.99840
                        -----------------------------------------
Total Dipole Moment    :      0.48548       0.21902      -0.59718
                        -----------------------------------------
Magnitude (a.u.)       :      0.80018
Magnitude (Debye)      :      2.03389

Rotational constants in cm-1:     0.020168     0.007905     0.005948
Rotational constants in MHz :   604.634532   236.976101   178.320467

                             ****ORCA TERMINATED NORMALLY****
TOTAL RUN TIME: 0 days 0 hours 0 minutes 21 seconds 295 msec
