                         Program Version 4.2.1 -  RELEASE  -
|  1> ! wB97X-D3 SP def2-SVP
|  2> %pal
|  3> nprocs 24
|  4> end
|  5>
|  6> * xyz 0 1
|  7> S 	 -142.084 	 9.82384 	 9.39901
|  8> C 	 -142.362 	 11.1902 	 8.3922
|  9> C 	 -143.752 	 11.2444 	 8.2047
| 10> C 	 -144.513 	 10.2136 	 8.83816
| 11> C 	 -143.749 	 9.4748 	 9.66196
| 12> H 	 -145.603 	 10.0386 	 8.79043
| 13> C 	 -144.332 	 12.1645 	 7.16059
| 14> H 	 -145.022 	 11.497 	 6.56649
| 15> H 	 -143.555 	 12.5268 	 6.56314
| 16> C 	 -145.192 	 13.3491 	 7.75165
| 17> H 	 -145.692 	 12.8862 	 8.61605
| 18> H 	 -144.623 	 14.0207 	 8.3037
| 19> C 	 -146.312 	 14.0149 	 6.91024
| 20> H 	 -145.902 	 14.8244 	 6.32312
| 21> H 	 -146.705 	 13.2637 	 6.23482
| 22> H 	 -147.083 	 14.3639 	 7.58441
| 23> S 	 -143.8 	 7.04552 	 10.7178
| 24> C 	 -144.745 	 6.65406 	 12.1525
| 25> C 	 -145.347 	 7.78419 	 12.7147
| 26> C 	 -145.019 	 8.97902 	 11.9378
| 27> C 	 -144.188 	 8.73183 	 10.8119
| 28> H 	 -145.983 	 7.68746 	 13.5869
| 29> C 	 -145.663 	 10.3492 	 12.2344
| 30> H 	 -146.743 	 10.3773 	 12.2614
| 31> H 	 -145.313 	 11.0768 	 11.5252
| 32> C 	 -145.18 	 11.0826 	 13.5851
| 33> H 	 -144.103 	 11.06 	 13.7688
| 34> H 	 -145.749 	 10.6002 	 14.4256
| 35> C 	 -145.674 	 12.542 	 13.5753
| 36> H 	 -145.374 	 13.1378 	 14.4365
| 37> H 	 -146.785 	 12.5137 	 13.6753
| 38> H 	 -145.33 	 13.0389 	 12.6846
| 39> H 	 -141.724 	 11.7908 	 7.84669
| 40> H 	 -144.795 	 5.65657 	 12.5937
| 41> *
| 42>
| 43>                          ****END OF INPUT****

CARTESIAN COORDINATES (ANGSTROEM)
---------------------------------
  S    -142.084000    9.823840    9.399010
  C    -142.362000   11.190200    8.392200
  C    -143.752000   11.244400    8.204700
  C    -144.513000   10.213600    8.838160
  C    -143.749000    9.474800    9.661960
  H    -145.603000   10.038600    8.790430
  C    -144.332000   12.164500    7.160590
  H    -145.022000   11.497000    6.566490
  H    -143.555000   12.526800    6.563140
  C    -145.192000   13.349100    7.751650
  H    -145.692000   12.886200    8.616050
  H    -144.623000   14.020700    8.303700
  C    -146.312000   14.014900    6.910240
  H    -145.902000   14.824400    6.323120
  H    -146.705000   13.263700    6.234820
  H    -147.083000   14.363900    7.584410
  S    -143.800000    7.045520   10.717800
  C    -144.745000    6.654060   12.152500
  C    -145.347000    7.784190   12.714700
  C    -145.019000    8.979020   11.937800
  C    -144.188000    8.731830   10.811900
  H    -145.983000    7.687460   13.586900
  C    -145.663000   10.349200   12.234400
  H    -146.743000   10.377300   12.261400
  H    -145.313000   11.076800   11.525200
  C    -145.180000   11.082600   13.585100
  H    -144.103000   11.060000   13.768800
  H    -145.749000   10.600200   14.425600
  C    -145.674000   12.542000   13.575300
  H    -145.374000   13.137800   14.436500
  H    -146.785000   12.513700   13.675300
  H    -145.330000   13.038900   12.684600
  H    -141.724000   11.790800    7.846690
  H    -144.795000    5.656570   12.593700

 Total Charge           Charge          ....    0
 Multiplicity           Mult            ....    1
 Number of Electrons    NEL             ....  134
 Basis Dimension        Dim             ....  322

ORBITAL ENERGIES
----------------

  NO   OCC          E(Eh)            E(eV)
   0   2.0000     -88.964964     -2420.8598
   1   2.0000     -88.963345     -2420.8157
   2   2.0000     -10.329190      -281.0715
   3   2.0000     -10.323150      -280.9072
   4   2.0000     -10.322544      -280.8907
   5   2.0000     -10.317097      -280.7425
   6   2.0000     -10.311842      -280.5995
   7   2.0000     -10.302624      -280.3486
   8   2.0000     -10.300912      -280.3021
   9   2.0000     -10.294189      -280.1191
  10   2.0000     -10.293803      -280.1086
  11   2.0000     -10.291209      -280.0380
  12   2.0000     -10.290776      -280.0262
  13   2.0000     -10.280580      -279.7488
  14   2.0000     -10.278175      -279.6834
  15   2.0000     -10.278023      -279.6792
  16   2.0000      -8.079960      -219.8669
  17   2.0000      -8.079254      -219.8477
  18   2.0000      -6.038443      -164.3144
  19   2.0000      -6.037683      -164.2937
  20   2.0000      -6.034259      -164.2005
  21   2.0000      -6.033457      -164.1787
  22   2.0000      -6.030901      -164.1092
  23   2.0000      -6.030112      -164.0877
  24   2.0000      -1.014993       -27.6194
  25   2.0000      -0.983833       -26.7714
  26   2.0000      -0.906783       -24.6748
  27   2.0000      -0.898203       -24.4413
  28   2.0000      -0.874370       -23.7928
  29   2.0000      -0.850293       -23.1376
  30   2.0000      -0.844400       -22.9773
  31   2.0000      -0.821658       -22.3584
  32   2.0000      -0.778662       -21.1885
  33   2.0000      -0.765637       -20.8340
  34   2.0000      -0.709542       -19.3076
  35   2.0000      -0.701081       -19.0774
  36   2.0000      -0.690010       -18.7761
  37   2.0000      -0.659697       -17.9513
  38   2.0000      -0.647946       -17.6315
  39   2.0000      -0.622440       -16.9374
  40   2.0000      -0.593531       -16.1508
  41   2.0000      -0.572245       -15.5716
  42   2.0000      -0.567394       -15.4396
  43   2.0000      -0.556093       -15.1320
  44   2.0000      -0.528123       -14.3710
  45   2.0000      -0.525217       -14.2919
  46   2.0000      -0.521864       -14.2006
  47   2.0000      -0.512038       -13.9333
  48   2.0000      -0.505940       -13.7673
  49   2.0000      -0.501060       -13.6345
  50   2.0000      -0.491980       -13.3875
  51   2.0000      -0.487436       -13.2638
  52   2.0000      -0.470079       -12.7915
  53   2.0000      -0.466289       -12.6884
  54   2.0000      -0.457332       -12.4446
  55   2.0000      -0.448914       -12.2156
  56   2.0000      -0.447212       -12.1692
  57   2.0000      -0.436149       -11.8682
  58   2.0000      -0.430472       -11.7137
  59   2.0000      -0.421571       -11.4715
  60   2.0000      -0.413575       -11.2540
  61   2.0000      -0.411429       -11.1956
  62   2.0000      -0.409799       -11.1512
  63   2.0000      -0.343047        -9.3348
  64   2.0000      -0.330645        -8.9973
  65   2.0000      -0.324892        -8.8408
  66   2.0000      -0.299089        -8.1386
  67   0.0000       0.033237         0.9044
  68   0.0000       0.061368         1.6699
  69   0.0000       0.109034         2.9670
  70   0.0000       0.115572         3.1449
  71   0.0000       0.128536         3.4976

MULLIKEN ATOMIC CHARGES
-----------------------
   0 S :    0.118759
   1 C :   -0.057297
   2 C :   -0.156953
   3 C :    0.035954
   4 C :   -0.133574
   5 H :    0.032691
   6 C :    0.087722
   7 H :    0.032375
   8 H :    0.006424
   9 C :   -0.085015
  10 H :    0.008842
  11 H :    0.002797
  12 C :   -0.015153
  13 H :    0.036011
  14 H :    0.025134
  15 H :    0.038335
  16 S :    0.101843
  17 C :   -0.101866
  18 C :   -0.027191
  19 C :   -0.005995
  20 C :   -0.158938
  21 H :    0.028670
  22 C :    0.039129
  23 H :    0.033642
  24 H :    0.022924
  25 C :   -0.106946
  26 H :    0.046700
  27 H :    0.030487
  28 C :   -0.063767
  29 H :    0.035538
  30 H :    0.029460
  31 H :    0.034428
  32 H :    0.018941
  33 H :    0.065889
Sum of atomic charges:   -0.0000000

LOEWDIN ATOMIC CHARGES
----------------------
   0 S :    0.432032
   1 C :   -0.195296
   2 C :   -0.064642
   3 C :   -0.062605
   4 C :   -0.215557
   5 H :    0.041983
   6 C :   -0.025321
   7 H :    0.037556
   8 H :    0.015516
   9 C :   -0.047231
  10 H :    0.023497
  11 H :    0.012574
  12 C :   -0.058664
  13 H :    0.023524
  14 H :    0.024547
  15 H :    0.029524
  16 S :    0.414876
  17 C :   -0.182538
  18 C :   -0.069142
  19 C :   -0.047083
  20 C :   -0.207458
  21 H :    0.035452
  22 C :   -0.030897
  23 H :    0.029138
  24 H :    0.025607
  25 C :   -0.039241
  26 H :    0.024666
  27 H :    0.022333
  28 C :   -0.070595
  29 H :    0.026532
  30 H :    0.027917
  31 H :    0.020126
  32 H :    0.017553
  33 H :    0.031319

  Mayer bond orders larger than 0.100000
B(  0-S ,  1-C ) :   1.1428 B(  0-S ,  4-C ) :   1.1651 B(  1-C ,  2-C ) :   1.5774
B(  1-C , 32-H ) :   0.9836 B(  2-C ,  3-C ) :   1.2403 B(  2-C ,  6-C ) :   1.0382
B(  3-C ,  4-C ) :   1.5666 B(  3-C ,  5-H ) :   0.9983 B(  4-C , 20-C ) :   0.9906
B(  6-C ,  7-H ) :   0.9411 B(  6-C ,  8-H ) :   0.9454 B(  6-C ,  9-C ) :   1.0455
B(  9-C , 10-H ) :   0.9615 B(  9-C , 11-H ) :   0.9522 B(  9-C , 12-C ) :   1.0707
B( 12-C , 13-H ) :   0.9786 B( 12-C , 14-H ) :   0.9754 B( 12-C , 15-H ) :   0.9765
B( 16-S , 17-C ) :   1.1658 B( 16-S , 20-C ) :   1.1521 B( 17-C , 18-C ) :   1.6017
B( 17-C , 20-C ) :   0.1020 B( 17-C , 33-H ) :   0.9663 B( 18-C , 19-C ) :   1.2277
B( 18-C , 21-H ) :   0.9948 B( 19-C , 20-C ) :   1.5905 B( 19-C , 22-C ) :   1.0421
B( 22-C , 23-H ) :   0.9452 B( 22-C , 24-H ) :   0.9452 B( 22-C , 25-C ) :   1.0429
B( 25-C , 26-H ) :   0.9618 B( 25-C , 27-H ) :   0.9588 B( 25-C , 28-C ) :   1.0813
B( 28-C , 29-H ) :   0.9736 B( 28-C , 30-H ) :   0.9749 B( 28-C , 31-H ) :   0.9763

Dispersion correction           -0.013751842
FINAL SINGLE POINT ENERGY     -1339.857898452579

DIPOLE MOMENT
-------------
                                X             Y             Z
Electronic contribution:     16.96845     -26.58108      -1.53033
Nuclear contribution   :    -17.48933      26.98749       1.60876
                        -----------------------------------------
Total Dipole Moment    :     -0.52088       0.40642       0.07843
                        -----------------------------------------
Magnitude (a.u.)       :      0.66531
Magnitude (Debye)      :      1.69108

Rotational constants in cm-1:     0.016442     0.009054     0.006841
Rotational constants in MHz :   492.903907   271.443101   205.088606

                             ****ORCA TERMINATED NORMALLY****
TOTAL RUN TIME: 0 days 0 hours 0 minutes 21 seconds 388 msec
