                         Program Version 4.2.1 -  RELEASE  -
|  1> ! wB97X-D3 SP def2-SVP
|  2> %pal
|  3> nprocs 24
|  4> end
|  5>
|  6> * xyz 0 1
|  7> S 	 -86.9517 	 3.01572 	 -111.828
|  8> C 	 -87.115 	 4.60351 	 -111.379
|  9> C 	 -87.9666 	 5.28971 	 -112.248
| 10> C 	 -88.421 	 4.49301 	 -113.322
| 11> C 	 -88.0267 	 3.16872 	 -113.159
| 12> H 	 -89.0026 	 4.66375 	 -114.223
| 13> C 	 -88.1782 	 6.82355 	 -112.171
| 14> H 	 -88.618 	 7.0485 	 -111.275
| 15> H 	 -88.7997 	 7.13145 	 -113.024
| 16> C 	 -86.8501 	 7.67255 	 -112.212
| 17> H 	 -87.1084 	 8.71344 	 -111.953
| 18> H 	 -86.1737 	 7.34413 	 -111.48
| 19> C 	 -86.169 	 7.71727 	 -113.587
| 20> H 	 -86.7266 	 7.97023 	 -114.464
| 21> H 	 -85.2175 	 8.29606 	 -113.651
| 22> H 	 -85.8737 	 6.64806 	 -113.758
| 23> S 	 -89.8131 	 1.08978 	 -113.834
| 24> C 	 -89.3202 	 -0.182708 	 -114.953
| 25> C 	 -88.0801 	 0.139902 	 -115.538
| 26> C 	 -87.4485 	 1.28005 	 -114.912
| 27> C 	 -88.2845 	 1.97044 	 -114.032
| 28> H 	 -87.5948 	 -0.477949 	 -116.284
| 29> C 	 -85.9724 	 1.61417 	 -115.159
| 30> H 	 -85.3188 	 0.720876 	 -114.969
| 31> H 	 -85.56 	 2.26868 	 -114.378
| 32> C 	 -85.6041 	 2.1498 	 -116.591
| 33> H 	 -84.836 	 2.85518 	 -116.564
| 34> H 	 -86.4666 	 2.54604 	 -117.124
| 35> C 	 -85.0541 	 1.07963 	 -117.545
| 36> H 	 -84.2416 	 0.397197 	 -117.296
| 37> H 	 -84.7065 	 1.65468 	 -118.472
| 38> H 	 -85.8522 	 0.355346 	 -117.782
| 39> H 	 -86.5176 	 5.14538 	 -110.646
| 40> H 	 -89.8729 	 -1.09215 	 -115.14
| 41> *
| 42>
| 43>                          ****END OF INPUT****

CARTESIAN COORDINATES (ANGSTROEM)
---------------------------------
  S    -86.951700    3.015720  -111.828000
  C    -87.115000    4.603510  -111.379000
  C    -87.966600    5.289710  -112.248000
  C    -88.421000    4.493010  -113.322000
  C    -88.026700    3.168720  -113.159000
  H    -89.002600    4.663750  -114.223000
  C    -88.178200    6.823550  -112.171000
  H    -88.618000    7.048500  -111.275000
  H    -88.799700    7.131450  -113.024000
  C    -86.850100    7.672550  -112.212000
  H    -87.108400    8.713440  -111.953000
  H    -86.173700    7.344130  -111.480000
  C    -86.169000    7.717270  -113.587000
  H    -86.726600    7.970230  -114.464000
  H    -85.217500    8.296060  -113.651000
  H    -85.873700    6.648060  -113.758000
  S    -89.813100    1.089780  -113.834000
  C    -89.320200   -0.182708  -114.953000
  C    -88.080100    0.139902  -115.538000
  C    -87.448500    1.280050  -114.912000
  C    -88.284500    1.970440  -114.032000
  H    -87.594800   -0.477949  -116.284000
  C    -85.972400    1.614170  -115.159000
  H    -85.318800    0.720876  -114.969000
  H    -85.560000    2.268680  -114.378000
  C    -85.604100    2.149800  -116.591000
  H    -84.836000    2.855180  -116.564000
  H    -86.466600    2.546040  -117.124000
  C    -85.054100    1.079630  -117.545000
  H    -84.241600    0.397197  -117.296000
  H    -84.706500    1.654680  -118.472000
  H    -85.852200    0.355346  -117.782000
  H    -86.517600    5.145380  -110.646000
  H    -89.872900   -1.092150  -115.140000

 Total Charge           Charge          ....    0
 Multiplicity           Mult            ....    1
 Number of Electrons    NEL             ....  134
 Basis Dimension        Dim             ....  322

ORBITAL ENERGIES
----------------

  NO   OCC          E(Eh)            E(eV)
   0   2.0000     -88.968264     -2420.9495
   1   2.0000     -88.966123     -2420.8913
   2   2.0000     -10.331578      -281.1365
   3   2.0000     -10.327020      -281.0125
   4   2.0000     -10.325076      -280.9596
   5   2.0000     -10.309749      -280.5425
   6   2.0000     -10.308967      -280.5213
   7   2.0000     -10.301776      -280.3256
   8   2.0000     -10.300230      -280.2835
   9   2.0000     -10.296276      -280.1759
  10   2.0000     -10.295557      -280.1563
  11   2.0000     -10.289623      -279.9949
  12   2.0000     -10.287638      -279.9408
  13   2.0000     -10.284256      -279.8488
  14   2.0000     -10.281974      -279.7867
  15   2.0000     -10.277041      -279.6525
  16   2.0000      -8.084634      -219.9941
  17   2.0000      -8.080110      -219.8710
  18   2.0000      -6.042776      -164.4323
  19   2.0000      -6.038649      -164.3200
  20   2.0000      -6.038623      -164.3193
  21   2.0000      -6.035966      -164.2470
  22   2.0000      -6.034648      -164.2111
  23   2.0000      -6.030946      -164.1104
  24   2.0000      -1.012434       -27.5497
  25   2.0000      -0.982587       -26.7376
  26   2.0000      -0.905851       -24.6495
  27   2.0000      -0.900843       -24.5132
  28   2.0000      -0.863799       -23.5052
  29   2.0000      -0.851804       -23.1788
  30   2.0000      -0.845604       -23.0100
  31   2.0000      -0.813462       -22.1354
  32   2.0000      -0.780978       -21.2515
  33   2.0000      -0.768658       -20.9162
  34   2.0000      -0.704242       -19.1634
  35   2.0000      -0.700579       -19.0637
  36   2.0000      -0.689802       -18.7705
  37   2.0000      -0.660758       -17.9801
  38   2.0000      -0.649823       -17.6826
  39   2.0000      -0.610069       -16.6008
  40   2.0000      -0.596801       -16.2398
  41   2.0000      -0.576419       -15.6852
  42   2.0000      -0.552131       -15.0243
  43   2.0000      -0.549069       -14.9409
  44   2.0000      -0.537422       -14.6240
  45   2.0000      -0.531577       -14.4649
  46   2.0000      -0.516018       -14.0416
  47   2.0000      -0.511631       -13.9222
  48   2.0000      -0.505501       -13.7554
  49   2.0000      -0.495136       -13.4733
  50   2.0000      -0.484758       -13.1909
  51   2.0000      -0.479308       -13.0426
  52   2.0000      -0.474014       -12.8986
  53   2.0000      -0.466020       -12.6811
  54   2.0000      -0.458353       -12.4724
  55   2.0000      -0.453351       -12.3363
  56   2.0000      -0.440723       -11.9927
  57   2.0000      -0.434861       -11.8332
  58   2.0000      -0.432047       -11.7566
  59   2.0000      -0.426329       -11.6010
  60   2.0000      -0.421067       -11.4578
  61   2.0000      -0.409228       -11.1356
  62   2.0000      -0.407452       -11.0873
  63   2.0000      -0.339853        -9.2479
  64   2.0000      -0.331421        -9.0184
  65   2.0000      -0.321224        -8.7410
  66   2.0000      -0.306268        -8.3340
  67   0.0000       0.042236         1.1493
  68   0.0000       0.055338         1.5058
  69   0.0000       0.114994         3.1291
  70   0.0000       0.120347         3.2748
  71   0.0000       0.132948         3.6177

MULLIKEN ATOMIC CHARGES
-----------------------
   0 S :    0.150262
   1 C :   -0.119512
   2 C :   -0.105128
   3 C :    0.052950
   4 C :   -0.208556
   5 H :    0.016859
   6 C :    0.110907
   7 H :    0.015526
   8 H :    0.026526
   9 C :   -0.064576
  10 H :    0.027808
  11 H :    0.015286
  12 C :   -0.077030
  13 H :    0.027801
  14 H :    0.039753
  15 H :    0.031280
  16 S :    0.107998
  17 C :   -0.103131
  18 C :   -0.021658
  19 C :   -0.017702
  20 C :   -0.170956
  21 H :    0.022465
  22 C :    0.039299
  23 H :    0.036146
  24 H :    0.020216
  25 C :   -0.020411
  26 H :    0.020552
  27 H :    0.041332
  28 C :   -0.113694
  29 H :    0.032283
  30 H :    0.042939
  31 H :    0.025356
  32 H :    0.052841
  33 H :    0.065972
Sum of atomic charges:    0.0000000

LOEWDIN ATOMIC CHARGES
----------------------
   0 S :    0.476349
   1 C :   -0.234200
   2 C :   -0.067603
   3 C :   -0.061855
   4 C :   -0.213242
   5 H :    0.038781
   6 C :   -0.016341
   7 H :    0.019615
   8 H :    0.032509
   9 C :   -0.033118
  10 H :    0.023250
  11 H :    0.013785
  12 C :   -0.076879
  13 H :    0.019537
  14 H :    0.029893
  15 H :    0.030465
  16 S :    0.394816
  17 C :   -0.177226
  18 C :   -0.070635
  19 C :   -0.051999
  20 C :   -0.204987
  21 H :    0.029388
  22 C :   -0.039571
  23 H :    0.037507
  24 H :    0.026612
  25 C :   -0.032997
  26 H :    0.017790
  27 H :    0.031205
  28 C :   -0.078500
  29 H :    0.020370
  30 H :    0.034822
  31 H :    0.019841
  32 H :    0.031325
  33 H :    0.031292

  Mayer bond orders larger than 0.100000
B(  0-S ,  1-C ) :   1.1904 B(  0-S ,  4-C ) :   1.1967 B(  1-C ,  2-C ) :   1.5481
B(  1-C ,  4-C ) :   0.1029 B(  1-C , 32-H ) :   0.9691 B(  2-C ,  3-C ) :   1.2715
B(  2-C ,  6-C ) :   1.0163 B(  3-C ,  4-C ) :   1.5566 B(  3-C ,  5-H ) :   0.9971
B(  4-C , 20-C ) :   0.9804 B(  6-C ,  7-H ) :   0.9332 B(  6-C ,  8-H ) :   0.9504
B(  6-C ,  9-C ) :   1.0751 B(  9-C , 10-H ) :   0.9571 B(  9-C , 11-H ) :   0.9572
B(  9-C , 12-C ) :   1.0671 B( 12-C , 13-H ) :   0.9781 B( 12-C , 14-H ) :   0.9749
B( 12-C , 15-H ) :   0.9760 B( 16-S , 17-C ) :   1.1649 B( 16-S , 20-C ) :   1.1374
B( 17-C , 18-C ) :   1.5951 B( 17-C , 33-H ) :   0.9700 B( 18-C , 19-C ) :   1.2408
B( 18-C , 21-H ) :   0.9861 B( 19-C , 20-C ) :   1.6077 B( 19-C , 22-C ) :   1.0480
B( 22-C , 23-H ) :   0.9461 B( 22-C , 24-H ) :   0.9339 B( 22-C , 25-C ) :   1.0383
B( 25-C , 26-H ) :   0.9616 B( 25-C , 27-H ) :   0.9622 B( 25-C , 28-C ) :   1.0704
B( 28-C , 29-H ) :   0.9761 B( 28-C , 30-H ) :   0.9735 B( 28-C , 31-H ) :   0.9779

Dispersion correction           -0.014462358
FINAL SINGLE POINT ENERGY     -1339.869067550425

DIPOLE MOMENT
-------------
                                X             Y             Z
Electronic contribution:    -15.79920     -15.06143      13.33627
Nuclear contribution   :     16.20114      15.27138     -13.57765
                        -----------------------------------------
Total Dipole Moment    :      0.40195       0.20995      -0.24138
                        -----------------------------------------
Magnitude (a.u.)       :      0.51372
Magnitude (Debye)      :      1.30576

Rotational constants in cm-1:     0.019334     0.008230     0.006628
Rotational constants in MHz :   579.613765   246.740864   198.691354

                             ****ORCA TERMINATED NORMALLY****
TOTAL RUN TIME: 0 days 0 hours 0 minutes 21 seconds 217 msec
