                         Program Version 4.2.1 -  RELEASE  -
|  1> ! wB97X-D3 SP def2-SVP
|  2> %pal
|  3> nprocs 24
|  4> end
|  5>
|  6> * xyz 0 1
|  7> S 	 -138.194 	 8.12811 	 4.52819
|  8> C 	 -137.623 	 8.1758 	 2.85189
|  9> C 	 -138.583 	 8.81433 	 2.08145
| 10> C 	 -139.618 	 9.49191 	 2.87505
| 11> C 	 -139.374 	 9.41654 	 4.24934
| 12> H 	 -140.419 	 10.0654 	 2.55902
| 13> C 	 -138.641 	 8.92393 	 0.514501
| 14> H 	 -137.91 	 8.32872 	 0.0586055
| 15> H 	 -138.325 	 9.97287 	 0.177021
| 16> C 	 -139.88 	 8.42362 	 -0.177054
| 17> H 	 -139.811 	 7.33386 	 -0.162192
| 18> H 	 -140.801 	 8.75637 	 0.315273
| 19> C 	 -139.798 	 8.81247 	 -1.66532
| 20> H 	 -140.059 	 9.84557 	 -1.71203
| 21> H 	 -138.758 	 8.70549 	 -2.21713
| 22> H 	 -140.604 	 8.30392 	 -2.24683
| 23> S 	 -141.254 	 8.09714 	 5.78898
| 24> C 	 -142.599 	 9.0183 	 6.37772
| 25> C 	 -142.516 	 10.3358 	 6.18482
| 26> C 	 -141.319 	 10.6995 	 5.45653
| 27> C 	 -140.523 	 9.57232 	 5.16625
| 28> H 	 -143.271 	 10.9352 	 6.65296
| 29> C 	 -141.125 	 12.1171 	 5.00748
| 30> H 	 -142.136 	 12.5908 	 4.91847
| 31> H 	 -140.669 	 12.1173 	 3.98029
| 32> C 	 -140.323 	 12.956 	 5.97808
| 33> H 	 -139.395 	 12.4025 	 6.23425
| 34> H 	 -140.946 	 12.9655 	 6.82306
| 35> C 	 -140.067 	 14.4421 	 5.70585
| 36> H 	 -140.756 	 15.0794 	 6.15278
| 37> H 	 -139.784 	 14.7661 	 4.72455
| 38> H 	 -139.132 	 14.7194 	 6.25955
| 39> H 	 -136.821 	 7.64944 	 2.42329
| 40> H 	 -143.35 	 8.53358 	 7.0415
| 41> *
| 42>
| 43>                          ****END OF INPUT****

CARTESIAN COORDINATES (ANGSTROEM)
---------------------------------
  S    -138.194000    8.128110    4.528190
  C    -137.623000    8.175800    2.851890
  C    -138.583000    8.814330    2.081450
  C    -139.618000    9.491910    2.875050
  C    -139.374000    9.416540    4.249340
  H    -140.419000   10.065400    2.559020
  C    -138.641000    8.923930    0.514501
  H    -137.910000    8.328720    0.058605
  H    -138.325000    9.972870    0.177021
  C    -139.880000    8.423620   -0.177054
  H    -139.811000    7.333860   -0.162192
  H    -140.801000    8.756370    0.315273
  C    -139.798000    8.812470   -1.665320
  H    -140.059000    9.845570   -1.712030
  H    -138.758000    8.705490   -2.217130
  H    -140.604000    8.303920   -2.246830
  S    -141.254000    8.097140    5.788980
  C    -142.599000    9.018300    6.377720
  C    -142.516000   10.335800    6.184820
  C    -141.319000   10.699500    5.456530
  C    -140.523000    9.572320    5.166250
  H    -143.271000   10.935200    6.652960
  C    -141.125000   12.117100    5.007480
  H    -142.136000   12.590800    4.918470
  H    -140.669000   12.117300    3.980290
  C    -140.323000   12.956000    5.978080
  H    -139.395000   12.402500    6.234250
  H    -140.946000   12.965500    6.823060
  C    -140.067000   14.442100    5.705850
  H    -140.756000   15.079400    6.152780
  H    -139.784000   14.766100    4.724550
  H    -139.132000   14.719400    6.259550
  H    -136.821000    7.649440    2.423290
  H    -143.350000    8.533580    7.041500

 Total Charge           Charge          ....    0
 Multiplicity           Mult            ....    1
 Number of Electrons    NEL             ....  134
 Basis Dimension        Dim             ....  322

ORBITAL ENERGIES
----------------

  NO   OCC          E(Eh)            E(eV)
   0   2.0000     -88.967177     -2420.9200
   1   2.0000     -88.961913     -2420.7767
   2   2.0000     -10.332209      -281.1537
   3   2.0000     -10.330174      -281.0983
   4   2.0000     -10.320795      -280.8431
   5   2.0000     -10.312811      -280.6259
   6   2.0000     -10.309648      -280.5398
   7   2.0000     -10.304010      -280.3864
   8   2.0000     -10.299046      -280.2513
   9   2.0000     -10.295332      -280.1502
  10   2.0000     -10.291978      -280.0590
  11   2.0000     -10.289921      -280.0030
  12   2.0000     -10.289665      -279.9960
  13   2.0000     -10.287634      -279.9408
  14   2.0000     -10.278817      -279.7008
  15   2.0000     -10.271406      -279.4992
  16   2.0000      -8.081259      -219.9022
  17   2.0000      -8.077158      -219.7906
  18   2.0000      -6.039941      -164.3552
  19   2.0000      -6.036072      -164.2499
  20   2.0000      -6.035704      -164.2399
  21   2.0000      -6.031717      -164.1314
  22   2.0000      -6.031616      -164.1286
  23   2.0000      -6.027718      -164.0226
  24   2.0000      -1.005151       -27.3516
  25   2.0000      -0.981046       -26.6956
  26   2.0000      -0.914735       -24.8912
  27   2.0000      -0.909477       -24.7481
  28   2.0000      -0.873031       -23.7564
  29   2.0000      -0.850579       -23.1454
  30   2.0000      -0.841063       -22.8865
  31   2.0000      -0.816469       -22.2172
  32   2.0000      -0.781168       -21.2567
  33   2.0000      -0.772263       -21.0143
  34   2.0000      -0.707104       -19.2413
  35   2.0000      -0.694941       -18.9103
  36   2.0000      -0.688640       -18.7388
  37   2.0000      -0.658101       -17.9079
  38   2.0000      -0.645910       -17.5761
  39   2.0000      -0.621496       -16.9118
  40   2.0000      -0.593787       -16.1578
  41   2.0000      -0.572816       -15.5871
  42   2.0000      -0.566641       -15.4191
  43   2.0000      -0.562608       -15.3094
  44   2.0000      -0.522960       -14.2305
  45   2.0000      -0.518682       -14.1141
  46   2.0000      -0.512519       -13.9463
  47   2.0000      -0.510857       -13.9011
  48   2.0000      -0.505315       -13.7503
  49   2.0000      -0.502155       -13.6643
  50   2.0000      -0.493865       -13.4387
  51   2.0000      -0.477371       -12.9899
  52   2.0000      -0.468067       -12.7367
  53   2.0000      -0.467127       -12.7112
  54   2.0000      -0.454102       -12.3567
  55   2.0000      -0.451880       -12.2963
  56   2.0000      -0.448090       -12.1931
  57   2.0000      -0.438167       -11.9231
  58   2.0000      -0.426974       -11.6186
  59   2.0000      -0.421465       -11.4686
  60   2.0000      -0.420126       -11.4322
  61   2.0000      -0.411603       -11.2003
  62   2.0000      -0.410295       -11.1647
  63   2.0000      -0.351539        -9.5659
  64   2.0000      -0.328928        -8.9506
  65   2.0000      -0.324638        -8.8338
  66   2.0000      -0.294476        -8.0131
  67   0.0000       0.025207         0.6859
  68   0.0000       0.063538         1.7290
  69   0.0000       0.100692         2.7400
  70   0.0000       0.123097         3.3496
  71   0.0000       0.125733         3.4214

MULLIKEN ATOMIC CHARGES
-----------------------
   0 S :    0.083128
   1 C :   -0.074087
   2 C :   -0.074422
   3 C :    0.051372
   4 C :   -0.119379
   5 H :    0.006027
   6 C :    0.039432
   7 H :   -0.007035
   8 H :    0.045184
   9 C :   -0.063075
  10 H :    0.035269
  11 H :    0.040413
  12 C :   -0.093947
  13 H :    0.026110
  14 H :    0.053717
  15 H :    0.042736
  16 S :    0.101243
  17 C :   -0.110211
  18 C :   -0.014906
  19 C :   -0.073434
  20 C :   -0.156412
  21 H :    0.015532
  22 C :    0.060251
  23 H :    0.023670
  24 H :    0.025701
  25 C :   -0.064641
  26 H :    0.040898
  27 H :    0.005082
  28 C :   -0.006771
  29 H :    0.019626
  30 H :    0.023783
  31 H :    0.021676
  32 H :    0.033041
  33 H :    0.064427
Sum of atomic charges:   -0.0000000

LOEWDIN ATOMIC CHARGES
----------------------
   0 S :    0.385539
   1 C :   -0.175087
   2 C :   -0.055263
   3 C :   -0.032919
   4 C :   -0.194876
   5 H :    0.018628
   6 C :   -0.037837
   7 H :    0.018294
   8 H :    0.035811
   9 C :   -0.039747
  10 H :    0.027303
  11 H :    0.024605
  12 C :   -0.074788
  13 H :    0.019064
  14 H :    0.039944
  15 H :    0.030110
  16 S :    0.397565
  17 C :   -0.192116
  18 C :   -0.074595
  19 C :   -0.059701
  20 C :   -0.191950
  21 H :    0.033382
  22 C :   -0.038554
  23 H :    0.032951
  24 H :    0.028592
  25 C :   -0.041758
  26 H :    0.030400
  27 H :    0.019931
  28 C :   -0.066689
  29 H :    0.016860
  30 H :    0.020931
  31 H :    0.038618
  32 H :    0.023562
  33 H :    0.033789

  Mayer bond orders larger than 0.100000
B(  0-S ,  1-C ) :   1.1281 B(  0-S ,  4-C ) :   1.1374 B(  1-C ,  2-C ) :   1.6242
B(  1-C , 32-H ) :   0.9769 B(  2-C ,  3-C ) :   1.2208 B(  2-C ,  6-C ) :   1.0090
B(  3-C ,  4-C ) :   1.5651 B(  3-C ,  5-H ) :   0.9996 B(  4-C , 20-C ) :   1.0202
B(  6-C ,  7-H ) :   0.9425 B(  6-C ,  8-H ) :   0.9522 B(  6-C ,  9-C ) :   1.0512
B(  9-C , 10-H ) :   0.9574 B(  9-C , 11-H ) :   0.9590 B(  9-C , 12-C ) :   1.0715
B( 12-C , 13-H ) :   0.9758 B( 12-C , 14-H ) :   0.9715 B( 12-C , 15-H ) :   0.9731
B( 16-S , 17-C ) :   1.1420 B( 16-S , 20-C ) :   1.1362 B( 17-C , 18-C ) :   1.6658
B( 17-C , 33-H ) :   0.9543 B( 18-C , 19-C ) :   1.2084 B( 18-C , 21-H ) :   0.9931
B( 19-C , 20-C ) :   1.6316 B( 19-C , 22-C ) :   1.0466 B( 22-C , 23-H ) :   0.9364
B( 22-C , 24-H ) :   0.9281 B( 22-C , 25-C ) :   1.0702 B( 25-C , 26-H ) :   0.9615
B( 25-C , 27-H ) :   0.9525 B( 25-C , 28-C ) :   1.0781 B( 28-C , 29-H ) :   0.9775
B( 28-C , 30-H ) :   0.9756 B( 28-C , 31-H ) :   0.9681

Dispersion correction           -0.013350531
FINAL SINGLE POINT ENERGY     -1339.842140042440

DIPOLE MOMENT
-------------
                                X             Y             Z
Electronic contribution:      1.90416     -18.37698      17.61386
Nuclear contribution   :     -2.16497      18.65169     -18.13004
                        -----------------------------------------
Total Dipole Moment    :     -0.26081       0.27471      -0.51618
                        -----------------------------------------
Magnitude (a.u.)       :      0.64026
Magnitude (Debye)      :      1.62741

Rotational constants in cm-1:     0.016546     0.007949     0.006918
Rotational constants in MHz :   496.029279   238.305126   207.382607

                             ****ORCA TERMINATED NORMALLY****
TOTAL RUN TIME: 0 days 0 hours 0 minutes 20 seconds 893 msec
