                         Program Version 4.2.1 -  RELEASE  -
|  1> ! wB97X-D3 SP def2-SVP
|  2> %pal
|  3> nprocs 24
|  4> end
|  5>
|  6> * xyz 0 1
|  7> S 	 -51.0006 	 -49.2495 	 -76.1333
|  8> C 	 -52.1095 	 -47.9819 	 -75.6089
|  9> C 	 -51.9357 	 -46.8006 	 -76.2569
| 10> C 	 -51.0317 	 -46.9965 	 -77.3923
| 11> C 	 -50.4134 	 -48.219 	 -77.4458
| 12> H 	 -50.8315 	 -46.1911 	 -78.1021
| 13> C 	 -52.6968 	 -45.5181 	 -75.9711
| 14> H 	 -52.0915 	 -45.003 	 -75.2652
| 15> H 	 -53.6339 	 -45.7276 	 -75.3747
| 16> C 	 -52.9857 	 -44.5303 	 -77.2656
| 17> H 	 -53.4761 	 -43.6494 	 -76.909
| 18> H 	 -51.9609 	 -44.2013 	 -77.6394
| 19> C 	 -53.9946 	 -45.2291 	 -78.2804
| 20> H 	 -54.1851 	 -44.496 	 -79.087
| 21> H 	 -53.4312 	 -46.1498 	 -78.6918
| 22> H 	 -54.8504 	 -45.619 	 -77.7155
| 23> S 	 -48.1637 	 -47.7896 	 -78.8029
| 24> C 	 -47.4944 	 -48.9397 	 -79.9817
| 25> C 	 -48.2794 	 -50.0583 	 -80.0003
| 26> C 	 -49.4306 	 -49.9539 	 -79.1138
| 27> C 	 -49.5835 	 -48.7269 	 -78.5028
| 28> H 	 -47.804 	 -50.8709 	 -80.5866
| 29> C 	 -50.4568 	 -51.0382 	 -79.1825
| 30> H 	 -51.3232 	 -50.7051 	 -78.6266
| 31> H 	 -50.0806 	 -51.8491 	 -78.5459
| 32> C 	 -50.8564 	 -51.5736 	 -80.6179
| 33> H 	 -50.0294 	 -51.9846 	 -81.142
| 34> H 	 -50.9932 	 -50.7517 	 -81.1993
| 35> C 	 -52.0174 	 -52.5456 	 -80.4997
| 36> H 	 -52.8719 	 -52.179 	 -80.0468
| 37> H 	 -51.6063 	 -53.3022 	 -79.7818
| 38> H 	 -52.3223 	 -53.1036 	 -81.3567
| 39> H 	 -52.7995 	 -48.1144 	 -74.7741
| 40> H 	 -46.6073 	 -48.8253 	 -80.5538
| 41> *
| 42>
| 43>                          ****END OF INPUT****

CARTESIAN COORDINATES (ANGSTROEM)
---------------------------------
  S    -51.000600  -49.249500  -76.133300
  C    -52.109500  -47.981900  -75.608900
  C    -51.935700  -46.800600  -76.256900
  C    -51.031700  -46.996500  -77.392300
  C    -50.413400  -48.219000  -77.445800
  H    -50.831500  -46.191100  -78.102100
  C    -52.696800  -45.518100  -75.971100
  H    -52.091500  -45.003000  -75.265200
  H    -53.633900  -45.727600  -75.374700
  C    -52.985700  -44.530300  -77.265600
  H    -53.476100  -43.649400  -76.909000
  H    -51.960900  -44.201300  -77.639400
  C    -53.994600  -45.229100  -78.280400
  H    -54.185100  -44.496000  -79.087000
  H    -53.431200  -46.149800  -78.691800
  H    -54.850400  -45.619000  -77.715500
  S    -48.163700  -47.789600  -78.802900
  C    -47.494400  -48.939700  -79.981700
  C    -48.279400  -50.058300  -80.000300
  C    -49.430600  -49.953900  -79.113800
  C    -49.583500  -48.726900  -78.502800
  H    -47.804000  -50.870900  -80.586600
  C    -50.456800  -51.038200  -79.182500
  H    -51.323200  -50.705100  -78.626600
  H    -50.080600  -51.849100  -78.545900
  C    -50.856400  -51.573600  -80.617900
  H    -50.029400  -51.984600  -81.142000
  H    -50.993200  -50.751700  -81.199300
  C    -52.017400  -52.545600  -80.499700
  H    -52.871900  -52.179000  -80.046800
  H    -51.606300  -53.302200  -79.781800
  H    -52.322300  -53.103600  -81.356700
  H    -52.799500  -48.114400  -74.774100
  H    -46.607300  -48.825300  -80.553800

 Total Charge           Charge          ....    0
 Multiplicity           Mult            ....    1
 Number of Electrons    NEL             ....  134
 Basis Dimension        Dim             ....  322

ORBITAL ENERGIES
----------------

  NO   OCC          E(Eh)            E(eV)
   0   2.0000     -88.966337     -2420.8971
   1   2.0000     -88.958506     -2420.6840
   2   2.0000     -10.331200      -281.1262
   3   2.0000     -10.323878      -280.9270
   4   2.0000     -10.315191      -280.6906
   5   2.0000     -10.314288      -280.6660
   6   2.0000     -10.304711      -280.4054
   7   2.0000     -10.304296      -280.3941
   8   2.0000     -10.304211      -280.3918
   9   2.0000     -10.302819      -280.3540
  10   2.0000     -10.298284      -280.2306
  11   2.0000     -10.296088      -280.1708
  12   2.0000     -10.292076      -280.0616
  13   2.0000     -10.285058      -279.8707
  14   2.0000     -10.276455      -279.6366
  15   2.0000     -10.270058      -279.4625
  16   2.0000      -8.080478      -219.8810
  17   2.0000      -8.073570      -219.6930
  18   2.0000      -6.039125      -164.3329
  19   2.0000      -6.035150      -164.2248
  20   2.0000      -6.032205      -164.1447
  21   2.0000      -6.031036      -164.1128
  22   2.0000      -6.027936      -164.0285
  23   2.0000      -6.024243      -163.9280
  24   2.0000      -1.007876       -27.4257
  25   2.0000      -0.982597       -26.7378
  26   2.0000      -0.905286       -24.6341
  27   2.0000      -0.899752       -24.4835
  28   2.0000      -0.872254       -23.7352
  29   2.0000      -0.848702       -23.0944
  30   2.0000      -0.838415       -22.8144
  31   2.0000      -0.819178       -22.2910
  32   2.0000      -0.778586       -21.1864
  33   2.0000      -0.765794       -20.8383
  34   2.0000      -0.718565       -19.5532
  35   2.0000      -0.708630       -19.2828
  36   2.0000      -0.692554       -18.8454
  37   2.0000      -0.661299       -17.9948
  38   2.0000      -0.633507       -17.2386
  39   2.0000      -0.622274       -16.9329
  40   2.0000      -0.592575       -16.1248
  41   2.0000      -0.566206       -15.4072
  42   2.0000      -0.559240       -15.2177
  43   2.0000      -0.547371       -14.8947
  44   2.0000      -0.532102       -14.4792
  45   2.0000      -0.528318       -14.3763
  46   2.0000      -0.518569       -14.1110
  47   2.0000      -0.512440       -13.9442
  48   2.0000      -0.506659       -13.7869
  49   2.0000      -0.497050       -13.5254
  50   2.0000      -0.488671       -13.2974
  51   2.0000      -0.477714       -12.9992
  52   2.0000      -0.472706       -12.8630
  53   2.0000      -0.466577       -12.6962
  54   2.0000      -0.451433       -12.2841
  55   2.0000      -0.445710       -12.1284
  56   2.0000      -0.442122       -12.0307
  57   2.0000      -0.436040       -11.8653
  58   2.0000      -0.432364       -11.7652
  59   2.0000      -0.420527       -11.4431
  60   2.0000      -0.418309       -11.3828
  61   2.0000      -0.417732       -11.3671
  62   2.0000      -0.411462       -11.1964
  63   2.0000      -0.352978        -9.6050
  64   2.0000      -0.329911        -8.9773
  65   2.0000      -0.321782        -8.7561
  66   2.0000      -0.295791        -8.0489
  67   0.0000       0.028642         0.7794
  68   0.0000       0.079357         2.1594
  69   0.0000       0.107952         2.9375
  70   0.0000       0.120558         3.2805
  71   0.0000       0.129899         3.5347

MULLIKEN ATOMIC CHARGES
-----------------------
   0 S :    0.107970
   1 C :   -0.147534
   2 C :   -0.058918
   3 C :   -0.004397
   4 C :   -0.112050
   5 H :    0.021154
   6 C :    0.030502
   7 H :    0.036985
   8 H :    0.032193
   9 C :   -0.106282
  10 H :    0.031389
  11 H :    0.049787
  12 C :   -0.075708
  13 H :    0.056381
  14 H :    0.053337
  15 H :    0.046476
  16 S :    0.082450
  17 C :   -0.081708
  18 C :   -0.059380
  19 C :   -0.066969
  20 C :   -0.116001
  21 H :    0.040896
  22 C :    0.035619
  23 H :    0.015263
  24 H :    0.028602
  25 C :   -0.007173
  26 H :    0.012765
  27 H :    0.003664
  28 C :   -0.012039
  29 H :    0.018878
  30 H :    0.020708
  31 H :    0.027762
  32 H :    0.049427
  33 H :    0.045949
Sum of atomic charges:   -0.0000000

LOEWDIN ATOMIC CHARGES
----------------------
   0 S :    0.391476
   1 C :   -0.188645
   2 C :   -0.064791
   3 C :   -0.060640
   4 C :   -0.189930
   5 H :    0.030835
   6 C :   -0.035882
   7 H :    0.029785
   8 H :    0.034622
   9 C :   -0.039860
  10 H :    0.019023
  11 H :    0.029362
  12 C :   -0.072446
  13 H :    0.030963
  14 H :    0.036853
  15 H :    0.029688
  16 S :    0.399979
  17 C :   -0.168851
  18 C :   -0.078255
  19 C :   -0.061927
  20 C :   -0.203687
  21 H :    0.043129
  22 C :   -0.035740
  23 H :    0.020536
  24 H :    0.032313
  25 C :   -0.027382
  26 H :    0.020401
  27 H :    0.010223
  28 C :   -0.057465
  29 H :    0.016003
  30 H :    0.033787
  31 H :    0.023027
  32 H :    0.028344
  33 H :    0.025150

  Mayer bond orders larger than 0.100000
B(  0-S ,  1-C ) :   1.1283 B(  0-S ,  4-C ) :   1.1158 B(  1-C ,  2-C ) :   1.6507
B(  1-C , 32-H ) :   0.9635 B(  2-C ,  3-C ) :   1.2096 B(  2-C ,  6-C ) :   1.0085
B(  3-C ,  4-C ) :   1.5907 B(  3-C ,  5-H ) :   0.9858 B(  4-C , 20-C ) :   1.0521
B(  6-C ,  7-H ) :   0.9326 B(  6-C ,  8-H ) :   0.9493 B(  6-C ,  9-C ) :   1.0640
B(  9-C , 10-H ) :   0.9590 B(  9-C , 11-H ) :   0.9536 B(  9-C , 12-C ) :   1.0538
B( 12-C , 13-H ) :   0.9759 B( 12-C , 14-H ) :   0.9760 B( 12-C , 15-H ) :   0.9739
B( 16-S , 17-C ) :   1.1417 B( 16-S , 20-C ) :   1.1314 B( 17-C , 18-C ) :   1.6461
B( 17-C , 33-H ) :   0.9702 B( 18-C , 19-C ) :   1.1900 B( 18-C , 21-H ) :   0.9857
B( 19-C , 20-C ) :   1.5957 B( 19-C , 22-C ) :   1.0587 B( 22-C , 23-H ) :   0.9422
B( 22-C , 24-H ) :   0.9188 B( 22-C , 25-C ) :   1.0509 B( 25-C , 26-H ) :   0.9449
B( 25-C , 27-H ) :   0.9567 B( 25-C , 28-C ) :   1.0776 B( 28-C , 29-H ) :   0.9782
B( 28-C , 30-H ) :   0.9720 B( 28-C , 31-H ) :   0.9741

Dispersion correction           -0.014146349
FINAL SINGLE POINT ENERGY     -1339.858411726167

DIPOLE MOMENT
-------------
                                X             Y             Z
Electronic contribution:     17.69161       0.49943       8.77386
Nuclear contribution   :    -17.99538      -0.39063      -8.91891
                        -----------------------------------------
Total Dipole Moment    :     -0.30378       0.10880      -0.14504
                        -----------------------------------------
Magnitude (a.u.)       :      0.35377
Magnitude (Debye)      :      0.89922

Rotational constants in cm-1:     0.018208     0.008143     0.007170
Rotational constants in MHz :   545.866653   244.109657   214.946036

                             ****ORCA TERMINATED NORMALLY****
TOTAL RUN TIME: 0 days 0 hours 0 minutes 21 seconds 196 msec
