                         Program Version 4.2.1 -  RELEASE  -
|  1> ! wB97X-D3 SP def2-SVP
|  2> %pal
|  3> nprocs 24
|  4> end
|  5>
|  6> * xyz 0 1
|  7> S 	 -107.393 	 0.595538 	 -107.944
|  8> C 	 -107.592 	 1.96361 	 -109.037
|  9> C 	 -107.16 	 3.13281 	 -108.385
| 10> C 	 -106.878 	 2.92109 	 -107.004
| 11> C 	 -106.902 	 1.60933 	 -106.63
| 12> H 	 -106.55 	 3.68935 	 -106.306
| 13> C 	 -107.269 	 4.57883 	 -109.008
| 14> H 	 -106.631 	 5.35166 	 -108.593
| 15> H 	 -108.354 	 4.83883 	 -108.847
| 16> C 	 -106.943 	 4.67688 	 -110.48
| 17> H 	 -105.88 	 4.58138 	 -110.546
| 18> H 	 -107.496 	 4.01725 	 -111.063
| 19> C 	 -107.218 	 6.01575 	 -111.157
| 20> H 	 -106.505 	 6.79094 	 -110.832
| 21> H 	 -107.232 	 6.06227 	 -112.234
| 22> H 	 -108.174 	 6.37968 	 -110.724
| 23> S 	 -105.241 	 0.00719232 	 -105.215
| 24> C 	 -105.439 	 -0.0790521 	 -103.441
| 25> C 	 -106.401 	 0.798372 	 -102.985
| 26> C 	 -107.079 	 1.48425 	 -104
| 27> C 	 -106.62 	 1.08293 	 -105.319
| 28> H 	 -106.762 	 0.905972 	 -101.964
| 29> C 	 -108.129 	 2.58641 	 -103.795
| 30> H 	 -108.304 	 3.19966 	 -104.679
| 31> H 	 -107.704 	 3.24541 	 -103.059
| 32> C 	 -109.503 	 2.1528 	 -103.363
| 33> H 	 -110.082 	 2.96238 	 -102.955
| 34> H 	 -109.398 	 1.41062 	 -102.584
| 35> C 	 -110.265 	 1.38218 	 -104.486
| 36> H 	 -111.21 	 1.13329 	 -104.047
| 37> H 	 -109.683 	 0.464879 	 -104.899
| 38> H 	 -110.569 	 2.04074 	 -105.231
| 39> H 	 -108.041 	 1.93793 	 -109.959
| 40> H 	 -104.734 	 -0.68015 	 -102.782
| 41> *
| 42>
| 43>                          ****END OF INPUT****

CARTESIAN COORDINATES (ANGSTROEM)
---------------------------------
  S    -107.393000    0.595538  -107.944000
  C    -107.592000    1.963610  -109.037000
  C    -107.160000    3.132810  -108.385000
  C    -106.878000    2.921090  -107.004000
  C    -106.902000    1.609330  -106.630000
  H    -106.550000    3.689350  -106.306000
  C    -107.269000    4.578830  -109.008000
  H    -106.631000    5.351660  -108.593000
  H    -108.354000    4.838830  -108.847000
  C    -106.943000    4.676880  -110.480000
  H    -105.880000    4.581380  -110.546000
  H    -107.496000    4.017250  -111.063000
  C    -107.218000    6.015750  -111.157000
  H    -106.505000    6.790940  -110.832000
  H    -107.232000    6.062270  -112.234000
  H    -108.174000    6.379680  -110.724000
  S    -105.241000    0.007192  -105.215000
  C    -105.439000   -0.079052  -103.441000
  C    -106.401000    0.798372  -102.985000
  C    -107.079000    1.484250  -104.000000
  C    -106.620000    1.082930  -105.319000
  H    -106.762000    0.905972  -101.964000
  C    -108.129000    2.586410  -103.795000
  H    -108.304000    3.199660  -104.679000
  H    -107.704000    3.245410  -103.059000
  C    -109.503000    2.152800  -103.363000
  H    -110.082000    2.962380  -102.955000
  H    -109.398000    1.410620  -102.584000
  C    -110.265000    1.382180  -104.486000
  H    -111.210000    1.133290  -104.047000
  H    -109.683000    0.464879  -104.899000
  H    -110.569000    2.040740  -105.231000
  H    -108.041000    1.937930  -109.959000
  H    -104.734000   -0.680150  -102.782000

 Total Charge           Charge          ....    0
 Multiplicity           Mult            ....    1
 Number of Electrons    NEL             ....  134
 Basis Dimension        Dim             ....  322

ORBITAL ENERGIES
----------------

  NO   OCC          E(Eh)            E(eV)
   0   2.0000     -88.969580     -2420.9854
   1   2.0000     -88.967077     -2420.9172
   2   2.0000     -10.329525      -281.0807
   3   2.0000     -10.326584      -281.0006
   4   2.0000     -10.324810      -280.9524
   5   2.0000     -10.313170      -280.6356
   6   2.0000     -10.309065      -280.5239
   7   2.0000     -10.308561      -280.5102
   8   2.0000     -10.299688      -280.2688
   9   2.0000     -10.296592      -280.1845
  10   2.0000     -10.291779      -280.0535
  11   2.0000     -10.287475      -279.9364
  12   2.0000     -10.280099      -279.7357
  13   2.0000     -10.278873      -279.7023
  14   2.0000     -10.276788      -279.6456
  15   2.0000     -10.270881      -279.4849
  16   2.0000      -8.083514      -219.9636
  17   2.0000      -8.081825      -219.9176
  18   2.0000      -6.041917      -164.4089
  19   2.0000      -6.040356      -164.3664
  20   2.0000      -6.038108      -164.3053
  21   2.0000      -6.036221      -164.2539
  22   2.0000      -6.034457      -164.2059
  23   2.0000      -6.032660      -164.1570
  24   2.0000      -1.006308       -27.3830
  25   2.0000      -0.980360       -26.6769
  26   2.0000      -0.914948       -24.8970
  27   2.0000      -0.908681       -24.7265
  28   2.0000      -0.871869       -23.7248
  29   2.0000      -0.849446       -23.1146
  30   2.0000      -0.845127       -22.9971
  31   2.0000      -0.810841       -22.0641
  32   2.0000      -0.783861       -21.3300
  33   2.0000      -0.770140       -20.9566
  34   2.0000      -0.707003       -19.2385
  35   2.0000      -0.698509       -19.0074
  36   2.0000      -0.689022       -18.7492
  37   2.0000      -0.657466       -17.8906
  38   2.0000      -0.645851       -17.5745
  39   2.0000      -0.615309       -16.7434
  40   2.0000      -0.598747       -16.2927
  41   2.0000      -0.587886       -15.9972
  42   2.0000      -0.561981       -15.2923
  43   2.0000      -0.554998       -15.1023
  44   2.0000      -0.541357       -14.7311
  45   2.0000      -0.523497       -14.2451
  46   2.0000      -0.519119       -14.1259
  47   2.0000      -0.509467       -13.8633
  48   2.0000      -0.501358       -13.6427
  49   2.0000      -0.494296       -13.4505
  50   2.0000      -0.487887       -13.2761
  51   2.0000      -0.480129       -13.0650
  52   2.0000      -0.474721       -12.9178
  53   2.0000      -0.463458       -12.6113
  54   2.0000      -0.457306       -12.4439
  55   2.0000      -0.449603       -12.2343
  56   2.0000      -0.444565       -12.0972
  57   2.0000      -0.432107       -11.7582
  58   2.0000      -0.430639       -11.7183
  59   2.0000      -0.426399       -11.6029
  60   2.0000      -0.418768       -11.3952
  61   2.0000      -0.413103       -11.2411
  62   2.0000      -0.410281       -11.1643
  63   2.0000      -0.348392        -9.4802
  64   2.0000      -0.332122        -9.0375
  65   2.0000      -0.329842        -8.9755
  66   2.0000      -0.289008        -7.8643
  67   0.0000       0.028718         0.7815
  68   0.0000       0.061746         1.6802
  69   0.0000       0.108253         2.9457
  70   0.0000       0.119294         3.2462
  71   0.0000       0.129930         3.5356

MULLIKEN ATOMIC CHARGES
-----------------------
   0 S :    0.119541
   1 C :   -0.101473
   2 C :   -0.069432
   3 C :    0.031824
   4 C :   -0.153528
   5 H :    0.021628
   6 C :    0.026275
   7 H :    0.027925
   8 H :    0.048171
   9 C :   -0.048649
  10 H :    0.031052
  11 H :    0.014731
  12 C :   -0.064327
  13 H :    0.022076
  14 H :    0.042535
  15 H :    0.016947
  16 S :    0.111726
  17 C :   -0.115715
  18 C :   -0.020423
  19 C :   -0.047594
  20 C :   -0.173504
  21 H :    0.023713
  22 C :    0.088540
  23 H :    0.018260
  24 H :    0.021010
  25 C :   -0.068747
  26 H :    0.025864
  27 H :    0.013178
  28 C :   -0.045387
  29 H :    0.018422
  30 H :    0.066891
  31 H :    0.012988
  32 H :    0.022704
  33 H :    0.082776
Sum of atomic charges:   -0.0000000

LOEWDIN ATOMIC CHARGES
----------------------
   0 S :    0.416124
   1 C :   -0.185413
   2 C :   -0.053576
   3 C :   -0.066575
   4 C :   -0.208311
   5 H :    0.035117
   6 C :   -0.030439
   7 H :    0.029224
   8 H :    0.037739
   9 C :   -0.040624
  10 H :    0.026117
  11 H :    0.012492
  12 C :   -0.066728
  13 H :    0.022696
  14 H :    0.026145
  15 H :    0.023827
  16 S :    0.404330
  17 C :   -0.187298
  18 C :   -0.073246
  19 C :   -0.049192
  20 C :   -0.202990
  21 H :    0.036331
  22 C :   -0.033942
  23 H :    0.030018
  24 H :    0.029145
  25 C :   -0.038449
  26 H :    0.022852
  27 H :    0.017554
  28 C :   -0.064500
  29 H :    0.022499
  30 H :    0.043240
  31 H :    0.012552
  32 H :    0.010742
  33 H :    0.042544

  Mayer bond orders larger than 0.100000
B(  0-S ,  1-C ) :   1.1385 B(  0-S ,  4-C ) :   1.1580 B(  1-C ,  2-C ) :   1.5862
B(  1-C ,  4-C ) :   0.1038 B(  1-C , 32-H ) :   0.9848 B(  2-C ,  3-C ) :   1.2563
B(  2-C ,  6-C ) :   1.0068 B(  3-C ,  4-C ) :   1.5696 B(  3-C ,  5-H ) :   0.9943
B(  4-C , 20-C ) :   1.0282 B(  6-C ,  7-H ) :   0.9554 B(  6-C ,  8-H ) :   0.9375
B(  6-C ,  9-C ) :   1.0735 B(  9-C , 10-H ) :   0.9603 B(  9-C , 11-H ) :   0.9521
B(  9-C , 12-C ) :   1.0827 B( 12-C , 13-H ) :   0.9739 B( 12-C , 14-H ) :   0.9764
B( 12-C , 15-H ) :   0.9728 B( 16-S , 17-C ) :   1.1538 B( 16-S , 20-C ) :   1.1709
B( 17-C , 18-C ) :   1.5707 B( 17-C , 20-C ) :   0.1159 B( 17-C , 33-H ) :   0.9601
B( 18-C , 19-C ) :   1.2996 B( 18-C , 21-H ) :   0.9807 B( 19-C , 20-C ) :   1.5320
B( 19-C , 22-C ) :   1.0353 B( 22-C , 23-H ) :   0.9357 B( 22-C , 24-H ) :   0.9289
B( 22-C , 25-C ) :   1.0791 B( 25-C , 26-H ) :   0.9519 B( 25-C , 27-H ) :   0.9582
B( 25-C , 28-C ) :   1.0773 B( 28-C , 29-H ) :   0.9711 B( 28-C , 30-H ) :   0.9720
B( 28-C , 31-H ) :   0.9742

Dispersion correction           -0.014412207
FINAL SINGLE POINT ENERGY     -1339.863091381698

DIPOLE MOMENT
-------------
                                X             Y             Z
Electronic contribution:     13.46796     -21.11149       5.11054
Nuclear contribution   :    -13.69180      21.76633      -4.94091
                        -----------------------------------------
Total Dipole Moment    :     -0.22384       0.65484       0.16963
                        -----------------------------------------
Magnitude (a.u.)       :      0.71253
Magnitude (Debye)      :      1.81110

Rotational constants in cm-1:     0.021836     0.007467     0.006576
Rotational constants in MHz :   654.637588   223.861762   197.131783

                             ****ORCA TERMINATED NORMALLY****
TOTAL RUN TIME: 0 days 0 hours 0 minutes 21 seconds 508 msec
