                         Program Version 4.2.1 -  RELEASE  -
|  1> ! wB97X-D3 SP def2-SVP
|  2> %pal
|  3> nprocs 24
|  4> end
|  5>
|  6> * xyz 0 1
|  7> S 	 -39.0356 	 -9.07555 	 16.4858
|  8> C 	 -38.8904 	 -10.794 	 16.8518
|  9> C 	 -40.03 	 -11.4494 	 16.5609
| 10> C 	 -41.1219 	 -10.6018 	 16.2251
| 11> C 	 -40.7623 	 -9.27492 	 16.1523
| 12> H 	 -42.131 	 -10.931 	 16.027
| 13> C 	 -40.2508 	 -12.972 	 16.517
| 14> H 	 -41.1882 	 -13.1954 	 17.0395
| 15> H 	 -39.5192 	 -13.5589 	 17.183
| 16> C 	 -40.3637 	 -13.5651 	 15.1042
| 17> H 	 -40.7677 	 -14.546 	 15.1236
| 18> H 	 -41.0408 	 -12.9434 	 14.4893
| 19> C 	 -38.9687 	 -13.5991 	 14.5089
| 20> H 	 -38.2991 	 -14.3001 	 15.0474
| 21> H 	 -38.9895 	 -14.0003 	 13.5618
| 22> H 	 -38.4768 	 -12.5676 	 14.4072
| 23> S 	 -42.4092 	 -7.31697 	 17.2767
| 24> C 	 -43.3634 	 -6.23787 	 16.1899
| 25> C 	 -42.9828 	 -6.46954 	 14.8977
| 26> C 	 -42.0703 	 -7.56696 	 14.6938
| 27> C 	 -41.5898 	 -8.08301 	 15.9023
| 28> H 	 -43.542 	 -5.90825 	 14.1946
| 29> C 	 -41.6413 	 -8.0643 	 13.3377
| 30> H 	 -42.4872 	 -8.09689 	 12.6102
| 31> H 	 -41.2593 	 -9.12596 	 13.4521
| 32> C 	 -40.5574 	 -7.1324 	 12.6524
| 33> H 	 -40.8435 	 -6.09782 	 12.6718
| 34> H 	 -40.4429 	 -7.28848 	 11.5694
| 35> C 	 -39.2192 	 -7.33981 	 13.3236
| 36> H 	 -38.9538 	 -8.38631 	 13.4208
| 37> H 	 -39.2877 	 -6.93653 	 14.328
| 38> H 	 -38.4072 	 -6.85731 	 12.8534
| 39> H 	 -38.0243 	 -11.3088 	 17.0959
| 40> H 	 -43.8822 	 -5.31676 	 16.5094
| 41> *
| 42>
| 43>                          ****END OF INPUT****

CARTESIAN COORDINATES (ANGSTROEM)
---------------------------------
  S    -39.035600   -9.075550   16.485800
  C    -38.890400  -10.794000   16.851800
  C    -40.030000  -11.449400   16.560900
  C    -41.121900  -10.601800   16.225100
  C    -40.762300   -9.274920   16.152300
  H    -42.131000  -10.931000   16.027000
  C    -40.250800  -12.972000   16.517000
  H    -41.188200  -13.195400   17.039500
  H    -39.519200  -13.558900   17.183000
  C    -40.363700  -13.565100   15.104200
  H    -40.767700  -14.546000   15.123600
  H    -41.040800  -12.943400   14.489300
  C    -38.968700  -13.599100   14.508900
  H    -38.299100  -14.300100   15.047400
  H    -38.989500  -14.000300   13.561800
  H    -38.476800  -12.567600   14.407200
  S    -42.409200   -7.316970   17.276700
  C    -43.363400   -6.237870   16.189900
  C    -42.982800   -6.469540   14.897700
  C    -42.070300   -7.566960   14.693800
  C    -41.589800   -8.083010   15.902300
  H    -43.542000   -5.908250   14.194600
  C    -41.641300   -8.064300   13.337700
  H    -42.487200   -8.096890   12.610200
  H    -41.259300   -9.125960   13.452100
  C    -40.557400   -7.132400   12.652400
  H    -40.843500   -6.097820   12.671800
  H    -40.442900   -7.288480   11.569400
  C    -39.219200   -7.339810   13.323600
  H    -38.953800   -8.386310   13.420800
  H    -39.287700   -6.936530   14.328000
  H    -38.407200   -6.857310   12.853400
  H    -38.024300  -11.308800   17.095900
  H    -43.882200   -5.316760   16.509400

 Total Charge           Charge          ....    0
 Multiplicity           Mult            ....    1
 Number of Electrons    NEL             ....  134
 Basis Dimension        Dim             ....  322

ORBITAL ENERGIES
----------------

  NO   OCC          E(Eh)            E(eV)
   0   2.0000     -88.966007     -2420.8881
   1   2.0000     -88.962864     -2420.8026
   2   2.0000     -10.332603      -281.1644
   3   2.0000     -10.331320      -281.1295
   4   2.0000     -10.322734      -280.8959
   5   2.0000     -10.309570      -280.5377
   6   2.0000     -10.308800      -280.5167
   7   2.0000     -10.299842      -280.2730
   8   2.0000     -10.298606      -280.2393
   9   2.0000     -10.298396      -280.2336
  10   2.0000     -10.295835      -280.1639
  11   2.0000     -10.293721      -280.1064
  12   2.0000     -10.287428      -279.9351
  13   2.0000     -10.284054      -279.8433
  14   2.0000     -10.274360      -279.5795
  15   2.0000     -10.261229      -279.2222
  16   2.0000      -8.080041      -219.8691
  17   2.0000      -8.076551      -219.7741
  18   2.0000      -6.038648      -164.3200
  19   2.0000      -6.035231      -164.2270
  20   2.0000      -6.034691      -164.2123
  21   2.0000      -6.031135      -164.1155
  22   2.0000      -6.030666      -164.1028
  23   2.0000      -6.027232      -164.0093
  24   2.0000      -1.003673       -27.3113
  25   2.0000      -0.981042       -26.6955
  26   2.0000      -0.911466       -24.8022
  27   2.0000      -0.902274       -24.5521
  28   2.0000      -0.870914       -23.6988
  29   2.0000      -0.847056       -23.0496
  30   2.0000      -0.842401       -22.9229
  31   2.0000      -0.817728       -22.2515
  32   2.0000      -0.781198       -21.2575
  33   2.0000      -0.768260       -20.9054
  34   2.0000      -0.709969       -19.3192
  35   2.0000      -0.698016       -18.9940
  36   2.0000      -0.694578       -18.9004
  37   2.0000      -0.655291       -17.8314
  38   2.0000      -0.644449       -17.5363
  39   2.0000      -0.621492       -16.9117
  40   2.0000      -0.592003       -16.1092
  41   2.0000      -0.574387       -15.6299
  42   2.0000      -0.555115       -15.1055
  43   2.0000      -0.550061       -14.9679
  44   2.0000      -0.540142       -14.6980
  45   2.0000      -0.533218       -14.5096
  46   2.0000      -0.519401       -14.1336
  47   2.0000      -0.511457       -13.9174
  48   2.0000      -0.501804       -13.6548
  49   2.0000      -0.494256       -13.4494
  50   2.0000      -0.487141       -13.2558
  51   2.0000      -0.474583       -12.9140
  52   2.0000      -0.467223       -12.7138
  53   2.0000      -0.464277       -12.6336
  54   2.0000      -0.457382       -12.4460
  55   2.0000      -0.445977       -12.1357
  56   2.0000      -0.439781       -11.9671
  57   2.0000      -0.431592       -11.7442
  58   2.0000      -0.428324       -11.6553
  59   2.0000      -0.424013       -11.5380
  60   2.0000      -0.421920       -11.4810
  61   2.0000      -0.419257       -11.4086
  62   2.0000      -0.410655       -11.1745
  63   2.0000      -0.337644        -9.1877
  64   2.0000      -0.328876        -8.9492
  65   2.0000      -0.321246        -8.7416
  66   2.0000      -0.316198        -8.6042
  67   0.0000       0.042249         1.1497
  68   0.0000       0.049647         1.3510
  69   0.0000       0.110412         3.0045
  70   0.0000       0.116855         3.1798
  71   0.0000       0.123695         3.3659

MULLIKEN ATOMIC CHARGES
-----------------------
   0 S :    0.103890
   1 C :   -0.076545
   2 C :   -0.079964
   3 C :    0.062991
   4 C :   -0.188161
   5 H :    0.013535
   6 C :    0.019583
   7 H :    0.024354
   8 H :    0.031261
   9 C :   -0.038312
  10 H :    0.025446
  11 H :    0.031167
  12 C :   -0.053407
  13 H :    0.024672
  14 H :    0.009494
  15 H :    0.051599
  16 S :    0.093397
  17 C :   -0.114632
  18 C :   -0.016284
  19 C :   -0.012794
  20 C :   -0.155686
  21 H :    0.011933
  22 C :    0.031928
  23 H :    0.033649
  24 H :    0.044932
  25 C :   -0.061308
  26 H :    0.021209
  27 H :    0.025538
  28 C :   -0.028254
  29 H :    0.024695
  30 H :    0.027637
  31 H :    0.019529
  32 H :    0.015219
  33 H :    0.077686
Sum of atomic charges:   -0.0000000

LOEWDIN ATOMIC CHARGES
----------------------
   0 S :    0.402830
   1 C :   -0.176268
   2 C :   -0.066380
   3 C :   -0.050196
   4 C :   -0.187537
   5 H :    0.033831
   6 C :   -0.036462
   7 H :    0.027697
   8 H :    0.033940
   9 C :   -0.035973
  10 H :    0.021937
  11 H :    0.026871
  12 C :   -0.068238
  13 H :    0.026144
  14 H :    0.010904
  15 H :    0.036356
  16 S :    0.373374
  17 C :   -0.173628
  18 C :   -0.067611
  19 C :   -0.052498
  20 C :   -0.199129
  21 H :    0.027626
  22 C :   -0.033843
  23 H :    0.033698
  24 H :    0.037773
  25 C :   -0.038445
  26 H :    0.020244
  27 H :    0.022731
  28 C :   -0.065096
  29 H :    0.019686
  30 H :    0.020165
  31 H :    0.018288
  32 H :    0.016632
  33 H :    0.040578

  Mayer bond orders larger than 0.100000
B(  0-S ,  1-C ) :   1.1225 B(  0-S ,  4-C ) :   1.1484 B(  1-C ,  2-C ) :   1.6568
B(  1-C , 32-H ) :   0.9725 B(  2-C ,  3-C ) :   1.2083 B(  2-C ,  6-C ) :   1.0158
B(  3-C ,  4-C ) :   1.6053 B(  3-C ,  5-H ) :   1.0002 B(  4-C , 20-C ) :   1.0004
B(  6-C ,  7-H ) :   0.9390 B(  6-C ,  8-H ) :   0.9486 B(  6-C ,  9-C ) :   1.0726
B(  9-C , 10-H ) :   0.9516 B(  9-C , 11-H ) :   0.9532 B(  9-C , 12-C ) :   1.0828
B( 12-C , 13-H ) :   0.9727 B( 12-C , 14-H ) :   0.9701 B( 12-C , 15-H ) :   0.9737
B( 16-S , 17-C ) :   1.1335 B( 16-S , 20-C ) :   1.1402 B( 17-C , 18-C ) :   1.6562
B( 17-C , 33-H ) :   0.9570 B( 18-C , 19-C ) :   1.2096 B( 18-C , 21-H ) :   0.9882
B( 19-C , 20-C ) :   1.6020 B( 19-C , 22-C ) :   1.0556 B( 22-C , 23-H ) :   0.9358
B( 22-C , 24-H ) :   0.9366 B( 22-C , 25-C ) :   1.0570 B( 25-C , 26-H ) :   0.9574
B( 25-C , 27-H ) :   0.9577 B( 25-C , 28-C ) :   1.0770 B( 28-C , 29-H ) :   0.9738
B( 28-C , 30-H ) :   0.9735 B( 28-C , 31-H ) :   0.9704

Dispersion correction           -0.015920387
FINAL SINGLE POINT ENERGY     -1339.882659784826

DIPOLE MOMENT
-------------
                                X             Y             Z
Electronic contribution:     -6.30941      14.25428      17.37481
Nuclear contribution   :      6.12421     -14.59502     -17.89584
                        -----------------------------------------
Total Dipole Moment    :     -0.18520      -0.34074      -0.52103
                        -----------------------------------------
Magnitude (a.u.)       :      0.64952
Magnitude (Debye)      :      1.65096

Rotational constants in cm-1:     0.020927     0.008776     0.007741
Rotational constants in MHz :   627.367277   263.109408   232.081504

                             ****ORCA TERMINATED NORMALLY****
TOTAL RUN TIME: 0 days 0 hours 0 minutes 22 seconds 593 msec
