                         Program Version 4.2.1 -  RELEASE  -
|  1> ! wB97X-D3 SP def2-SVP
|  2> %pal
|  3> nprocs 24
|  4> end
|  5>
|  6> * xyz 0 1
|  7> S 	 -47.8247 	 4.47025 	 -17.6724
|  8> C 	 -48.4672 	 3.08961 	 -18.6009
|  9> C 	 -49.6049 	 2.62168 	 -18.0379
| 10> C 	 -50.0459 	 3.3837 	 -16.8675
| 11> C 	 -49.1987 	 4.35587 	 -16.4779
| 12> H 	 -51.0677 	 3.35332 	 -16.4128
| 13> C 	 -50.4683 	 1.58544 	 -18.7215
| 14> H 	 -49.688 	 1.07496 	 -19.3876
| 15> H 	 -51.1979 	 2.04406 	 -19.2866
| 16> C 	 -51.0985 	 0.540323 	 -17.7392
| 17> H 	 -50.3376 	 0.0273103 	 -17.3157
| 18> H 	 -51.7139 	 1.00263 	 -16.9863
| 19> C 	 -52.0016 	 -0.432649 	 -18.4854
| 20> H 	 -52.7702 	 0.137226 	 -18.9768
| 21> H 	 -51.3504 	 -1.13337 	 -19.0703
| 22> H 	 -52.5091 	 -1.05543 	 -17.7201
| 23> S 	 -49.5436 	 6.99322 	 -15.7215
| 24> C 	 -49.7221 	 7.3952 	 -14.0393
| 25> C 	 -49.8951 	 6.30038 	 -13.3031
| 26> C 	 -49.7674 	 5.07088 	 -14.0326
| 27> C 	 -49.4202 	 5.29069 	 -15.3779
| 28> H 	 -50.1373 	 6.41562 	 -12.1873
| 29> C 	 -49.9089 	 3.69872 	 -13.354
| 30> H 	 -50.7019 	 3.18623 	 -13.9172
| 31> H 	 -50.2179 	 3.82943 	 -12.3129
| 32> C 	 -48.6151 	 2.81855 	 -13.3156
| 33> H 	 -48.2785 	 2.62954 	 -14.3305
| 34> H 	 -48.7494 	 1.82203 	 -12.8404
| 35> C 	 -47.4643 	 3.37393 	 -12.4113
| 36> H 	 -47.7052 	 3.25797 	 -11.4035
| 37> H 	 -47.2732 	 4.45468 	 -12.6638
| 38> H 	 -46.4637 	 2.88404 	 -12.5241
| 39> H 	 -48.1682 	 2.76509 	 -19.5926
| 40> H 	 -49.7847 	 8.4813 	 -13.6275
| 41> *
| 42>
| 43>                          ****END OF INPUT****

CARTESIAN COORDINATES (ANGSTROEM)
---------------------------------
  S    -47.824700    4.470250  -17.672400
  C    -48.467200    3.089610  -18.600900
  C    -49.604900    2.621680  -18.037900
  C    -50.045900    3.383700  -16.867500
  C    -49.198700    4.355870  -16.477900
  H    -51.067700    3.353320  -16.412800
  C    -50.468300    1.585440  -18.721500
  H    -49.688000    1.074960  -19.387600
  H    -51.197900    2.044060  -19.286600
  C    -51.098500    0.540323  -17.739200
  H    -50.337600    0.027310  -17.315700
  H    -51.713900    1.002630  -16.986300
  C    -52.001600   -0.432649  -18.485400
  H    -52.770200    0.137226  -18.976800
  H    -51.350400   -1.133370  -19.070300
  H    -52.509100   -1.055430  -17.720100
  S    -49.543600    6.993220  -15.721500
  C    -49.722100    7.395200  -14.039300
  C    -49.895100    6.300380  -13.303100
  C    -49.767400    5.070880  -14.032600
  C    -49.420200    5.290690  -15.377900
  H    -50.137300    6.415620  -12.187300
  C    -49.908900    3.698720  -13.354000
  H    -50.701900    3.186230  -13.917200
  H    -50.217900    3.829430  -12.312900
  C    -48.615100    2.818550  -13.315600
  H    -48.278500    2.629540  -14.330500
  H    -48.749400    1.822030  -12.840400
  C    -47.464300    3.373930  -12.411300
  H    -47.705200    3.257970  -11.403500
  H    -47.273200    4.454680  -12.663800
  H    -46.463700    2.884040  -12.524100
  H    -48.168200    2.765090  -19.592600
  H    -49.784700    8.481300  -13.627500

 Total Charge           Charge          ....    0
 Multiplicity           Mult            ....    1
 Number of Electrons    NEL             ....  134
 Basis Dimension        Dim             ....  322

ORBITAL ENERGIES
----------------

  NO   OCC          E(Eh)            E(eV)
   0   2.0000     -88.963833     -2420.8290
   1   2.0000     -88.963585     -2420.8222
   2   2.0000     -10.334137      -281.2062
   3   2.0000     -10.328861      -281.0626
   4   2.0000     -10.319794      -280.8159
   5   2.0000     -10.315374      -280.6956
   6   2.0000     -10.309372      -280.5323
   7   2.0000     -10.299925      -280.2752
   8   2.0000     -10.298730      -280.2427
   9   2.0000     -10.297383      -280.2060
  10   2.0000     -10.296201      -280.1739
  11   2.0000     -10.292746      -280.0798
  12   2.0000     -10.286844      -279.9193
  13   2.0000     -10.281562      -279.7755
  14   2.0000     -10.278030      -279.6794
  15   2.0000     -10.273561      -279.5578
  16   2.0000      -8.079171      -219.8454
  17   2.0000      -8.076881      -219.7831
  18   2.0000      -6.037688      -164.2939
  19   2.0000      -6.035747      -164.2410
  20   2.0000      -6.033620      -164.1831
  21   2.0000      -6.031677      -164.1303
  22   2.0000      -6.029837      -164.0802
  23   2.0000      -6.027226      -164.0092
  24   2.0000      -1.006705       -27.3938
  25   2.0000      -0.982882       -26.7456
  26   2.0000      -0.912603       -24.8332
  27   2.0000      -0.898573       -24.4514
  28   2.0000      -0.876174       -23.8419
  29   2.0000      -0.844029       -22.9672
  30   2.0000      -0.841370       -22.8948
  31   2.0000      -0.820469       -22.3261
  32   2.0000      -0.778247       -21.1772
  33   2.0000      -0.767433       -20.8829
  34   2.0000      -0.712972       -19.4010
  35   2.0000      -0.697165       -18.9708
  36   2.0000      -0.685055       -18.6413
  37   2.0000      -0.652366       -17.7518
  38   2.0000      -0.637834       -17.3563
  39   2.0000      -0.615913       -16.7598
  40   2.0000      -0.586809       -15.9679
  41   2.0000      -0.583366       -15.8742
  42   2.0000      -0.563136       -15.3237
  43   2.0000      -0.549284       -14.9468
  44   2.0000      -0.542384       -14.7590
  45   2.0000      -0.522817       -14.2266
  46   2.0000      -0.517251       -14.0751
  47   2.0000      -0.508465       -13.8360
  48   2.0000      -0.502368       -13.6701
  49   2.0000      -0.497162       -13.5285
  50   2.0000      -0.488178       -13.2840
  51   2.0000      -0.474580       -12.9140
  52   2.0000      -0.469469       -12.7749
  53   2.0000      -0.461481       -12.5575
  54   2.0000      -0.458947       -12.4886
  55   2.0000      -0.448418       -12.2021
  56   2.0000      -0.443576       -12.0703
  57   2.0000      -0.439915       -11.9707
  58   2.0000      -0.433558       -11.7977
  59   2.0000      -0.422154       -11.4874
  60   2.0000      -0.417218       -11.3531
  61   2.0000      -0.411961       -11.2100
  62   2.0000      -0.406739       -11.0679
  63   2.0000      -0.350189        -9.5291
  64   2.0000      -0.330633        -8.9970
  65   2.0000      -0.326420        -8.8824
  66   2.0000      -0.300827        -8.1859
  67   0.0000       0.026144         0.7114
  68   0.0000       0.073752         2.0069
  69   0.0000       0.112477         3.0607
  70   0.0000       0.122091         3.3223
  71   0.0000       0.128032         3.4839

MULLIKEN ATOMIC CHARGES
-----------------------
   0 S :    0.087901
   1 C :   -0.111010
   2 C :   -0.091437
   3 C :    0.013789
   4 C :   -0.149062
   5 H :    0.045422
   6 C :    0.057629
   7 H :    0.029094
   8 H :    0.025335
   9 C :   -0.062338
  10 H :    0.007906
  11 H :    0.025861
  12 C :   -0.044039
  13 H :    0.032045
  14 H :    0.041405
  15 H :    0.030765
  16 S :    0.108666
  17 C :   -0.120064
  18 C :   -0.058453
  19 C :   -0.049368
  20 C :   -0.167047
  21 H :    0.047591
  22 C :    0.090463
  23 H :    0.034686
  24 H :    0.016325
  25 C :   -0.076155
  26 H :    0.043395
  27 H :    0.031259
  28 C :   -0.079912
  29 H :    0.018580
  30 H :    0.043584
  31 H :    0.039852
  32 H :    0.048705
  33 H :    0.088625
Sum of atomic charges:   -0.0000000

LOEWDIN ATOMIC CHARGES
----------------------
   0 S :    0.350239
   1 C :   -0.183093
   2 C :   -0.067499
   3 C :   -0.064803
   4 C :   -0.171268
   5 H :    0.041935
   6 C :   -0.022900
   7 H :    0.038991
   8 H :    0.018319
   9 C :   -0.029997
  10 H :    0.010531
  11 H :    0.020053
  12 C :   -0.062272
  13 H :    0.022104
  14 H :    0.030803
  15 H :    0.028154
  16 S :    0.412541
  17 C :   -0.201192
  18 C :   -0.091417
  19 C :   -0.052744
  20 C :   -0.205363
  21 H :    0.047603
  22 C :   -0.029053
  23 H :    0.033655
  24 H :    0.028791
  25 C :   -0.040203
  26 H :    0.022740
  27 H :    0.027919
  28 C :   -0.072144
  29 H :    0.011696
  30 H :    0.029169
  31 H :    0.032476
  32 H :    0.032885
  33 H :    0.053342

  Mayer bond orders larger than 0.100000
B(  0-S ,  1-C ) :   1.1015 B(  0-S ,  4-C ) :   1.1025 B(  1-C ,  2-C ) :   1.6911
B(  1-C , 32-H ) :   0.9617 B(  2-C ,  3-C ) :   1.1730 B(  2-C ,  6-C ) :   1.0196
B(  3-C ,  4-C ) :   1.6558 B(  3-C ,  5-H ) :   0.9764 B(  4-C , 20-C ) :   1.0473
B(  6-C ,  7-H ) :   0.9444 B(  6-C ,  8-H ) :   0.9424 B(  6-C ,  9-C ) :   1.0611
B(  9-C , 10-H ) :   0.9573 B(  9-C , 11-H ) :   0.9557 B(  9-C , 12-C ) :   1.0955
B( 12-C , 13-H ) :   0.9751 B( 12-C , 14-H ) :   0.9755 B( 12-C , 15-H ) :   0.9737
B( 16-S , 17-C ) :   1.1494 B( 16-S , 20-C ) :   1.1547 B( 17-C , 18-C ) :   1.6329
B( 17-C , 33-H ) :   0.9512 B( 18-C , 19-C ) :   1.2460 B( 18-C , 21-H ) :   0.9754
B( 19-C , 20-C ) :   1.5713 B( 19-C , 22-C ) :   1.0347 B( 22-C , 23-H ) :   0.9307
B( 22-C , 24-H ) :   0.9394 B( 22-C , 25-C ) :   1.0677 B( 25-C , 26-H ) :   0.9605
B( 25-C , 27-H ) :   0.9592 B( 25-C , 28-C ) :   1.0613 B( 28-C , 29-H ) :   0.9782
B( 28-C , 30-H ) :   0.9787 B( 28-C , 31-H ) :   0.9757

Dispersion correction           -0.014546377
FINAL SINGLE POINT ENERGY     -1339.866366326788

DIPOLE MOMENT
-------------
                                X             Y             Z
Electronic contribution:      7.05076      24.91573      -6.69218
Nuclear contribution   :     -7.59400     -25.33472       6.91113
                        -----------------------------------------
Total Dipole Moment    :     -0.54325      -0.41899       0.21895
                        -----------------------------------------
Magnitude (a.u.)       :      0.72015
Magnitude (Debye)      :      1.83047

Rotational constants in cm-1:     0.018796     0.008355     0.007182
Rotational constants in MHz :   563.486478   250.463027   215.319315

                             ****ORCA TERMINATED NORMALLY****
TOTAL RUN TIME: 0 days 0 hours 0 minutes 21 seconds 919 msec
