                         Program Version 4.2.1 -  RELEASE  -
|  1> ! wB97X-D3 SP def2-SVP
|  2> %pal
|  3> nprocs 24
|  4> end
|  5>
|  6> * xyz 0 1
|  7> S 	 -61.8058 	 2.66788 	 -23.226
|  8> C 	 -63.2999 	 3.46442 	 -23.4723
|  9> C 	 -63.7489 	 3.99376 	 -22.2356
| 10> C 	 -62.7464 	 3.94843 	 -21.1837
| 11> C 	 -61.5216 	 3.35082 	 -21.6457
| 12> H 	 -62.736 	 4.47942 	 -20.2409
| 13> C 	 -65.1809 	 4.38599 	 -21.8957
| 14> H 	 -65.6106 	 3.66897 	 -21.2533
| 15> H 	 -65.696 	 4.39161 	 -22.8489
| 16> C 	 -65.2485 	 5.86097 	 -21.4385
| 17> H 	 -64.5243 	 5.91007 	 -20.5504
| 18> H 	 -64.765 	 6.52619 	 -22.1579
| 19> C 	 -66.6291 	 6.43121 	 -21.1288
| 20> H 	 -67.178 	 6.54613 	 -22.0322
| 21> H 	 -67.1261 	 5.69365 	 -20.5085
| 22> H 	 -66.621 	 7.37056 	 -20.632
| 23> S 	 -59.3949 	 1.4968 	 -21.2221
| 24> C 	 -57.9251 	 1.99673 	 -20.4496
| 25> C 	 -58.0853 	 3.20631 	 -19.8485
| 26> C 	 -59.3764 	 3.77953 	 -20.0958
| 27> C 	 -60.2145 	 3.06336 	 -20.9453
| 28> H 	 -57.2925 	 3.61871 	 -19.1764
| 29> C 	 -59.7069 	 5.19302 	 -19.6127
| 30> H 	 -59.0507 	 5.44534 	 -18.7725
| 31> H 	 -60.7113 	 5.15518 	 -19.2932
| 32> C 	 -59.664 	 6.31473 	 -20.6423
| 33> H 	 -60.1502 	 6.11468 	 -21.5653
| 34> H 	 -58.6299 	 6.29865 	 -20.9879
| 35> C 	 -59.9742 	 7.70014 	 -20.1757
| 36> H 	 -59.3642 	 8.00953 	 -19.3373
| 37> H 	 -60.9959 	 7.70533 	 -19.7374
| 38> H 	 -59.8621 	 8.38837 	 -21.0635
| 39> H 	 -63.8657 	 3.26318 	 -24.3364
| 40> H 	 -57.1197 	 1.40602 	 -20.303
| 41> *
| 42>
| 43>                          ****END OF INPUT****

CARTESIAN COORDINATES (ANGSTROEM)
---------------------------------
  S    -61.805800    2.667880  -23.226000
  C    -63.299900    3.464420  -23.472300
  C    -63.748900    3.993760  -22.235600
  C    -62.746400    3.948430  -21.183700
  C    -61.521600    3.350820  -21.645700
  H    -62.736000    4.479420  -20.240900
  C    -65.180900    4.385990  -21.895700
  H    -65.610600    3.668970  -21.253300
  H    -65.696000    4.391610  -22.848900
  C    -65.248500    5.860970  -21.438500
  H    -64.524300    5.910070  -20.550400
  H    -64.765000    6.526190  -22.157900
  C    -66.629100    6.431210  -21.128800
  H    -67.178000    6.546130  -22.032200
  H    -67.126100    5.693650  -20.508500
  H    -66.621000    7.370560  -20.632000
  S    -59.394900    1.496800  -21.222100
  C    -57.925100    1.996730  -20.449600
  C    -58.085300    3.206310  -19.848500
  C    -59.376400    3.779530  -20.095800
  C    -60.214500    3.063360  -20.945300
  H    -57.292500    3.618710  -19.176400
  C    -59.706900    5.193020  -19.612700
  H    -59.050700    5.445340  -18.772500
  H    -60.711300    5.155180  -19.293200
  C    -59.664000    6.314730  -20.642300
  H    -60.150200    6.114680  -21.565300
  H    -58.629900    6.298650  -20.987900
  C    -59.974200    7.700140  -20.175700
  H    -59.364200    8.009530  -19.337300
  H    -60.995900    7.705330  -19.737400
  H    -59.862100    8.388370  -21.063500
  H    -63.865700    3.263180  -24.336400
  H    -57.119700    1.406020  -20.303000

 Total Charge           Charge          ....    0
 Multiplicity           Mult            ....    1
 Number of Electrons    NEL             ....  134
 Basis Dimension        Dim             ....  322

ORBITAL ENERGIES
----------------

  NO   OCC          E(Eh)            E(eV)
   0   2.0000     -88.968114     -2420.9455
   1   2.0000     -88.963806     -2420.8282
   2   2.0000     -10.344230      -281.4808
   3   2.0000     -10.337264      -281.2912
   4   2.0000     -10.315753      -280.7059
   5   2.0000     -10.311364      -280.5865
   6   2.0000     -10.310564      -280.5647
   7   2.0000     -10.306207      -280.4461
   8   2.0000     -10.305018      -280.4138
   9   2.0000     -10.297098      -280.1983
  10   2.0000     -10.290665      -280.0232
  11   2.0000     -10.290568      -280.0206
  12   2.0000     -10.286440      -279.9083
  13   2.0000     -10.279684      -279.7244
  14   2.0000     -10.273126      -279.5460
  15   2.0000     -10.273115      -279.5457
  16   2.0000      -8.083378      -219.9599
  17   2.0000      -8.078384      -219.8240
  18   2.0000      -6.041752      -164.4044
  19   2.0000      -6.037689      -164.2939
  20   2.0000      -6.037015      -164.2755
  21   2.0000      -6.034352      -164.2031
  22   2.0000      -6.032853      -164.1623
  23   2.0000      -6.029080      -164.0596
  24   2.0000      -1.003992       -27.3200
  25   2.0000      -0.986016       -26.8309
  26   2.0000      -0.911706       -24.8088
  27   2.0000      -0.911452       -24.8019
  28   2.0000      -0.867817       -23.6145
  29   2.0000      -0.852121       -23.1874
  30   2.0000      -0.845780       -23.0148
  31   2.0000      -0.818987       -22.2858
  32   2.0000      -0.782485       -21.2925
  33   2.0000      -0.773013       -21.0348
  34   2.0000      -0.708314       -19.2742
  35   2.0000      -0.696719       -18.9587
  36   2.0000      -0.692645       -18.8478
  37   2.0000      -0.661764       -18.0075
  38   2.0000      -0.648473       -17.6458
  39   2.0000      -0.619781       -16.8651
  40   2.0000      -0.597889       -16.2694
  41   2.0000      -0.573193       -15.5974
  42   2.0000      -0.567631       -15.4460
  43   2.0000      -0.559731       -15.2311
  44   2.0000      -0.530655       -14.4399
  45   2.0000      -0.525795       -14.3076
  46   2.0000      -0.519199       -14.1281
  47   2.0000      -0.515903       -14.0384
  48   2.0000      -0.508477       -13.8363
  49   2.0000      -0.504431       -13.7263
  50   2.0000      -0.495355       -13.4793
  51   2.0000      -0.486731       -13.2446
  52   2.0000      -0.475497       -12.9389
  53   2.0000      -0.468398       -12.7458
  54   2.0000      -0.462612       -12.5883
  55   2.0000      -0.448011       -12.1910
  56   2.0000      -0.444360       -12.0917
  57   2.0000      -0.438383       -11.9290
  58   2.0000      -0.434506       -11.8235
  59   2.0000      -0.422909       -11.5079
  60   2.0000      -0.411454       -11.1962
  61   2.0000      -0.408722       -11.1219
  62   2.0000      -0.403333       -10.9753
  63   2.0000      -0.354578        -9.6486
  64   2.0000      -0.330766        -9.0006
  65   2.0000      -0.326956        -8.8969
  66   2.0000      -0.289835        -7.8868
  67   0.0000       0.019782         0.5383
  68   0.0000       0.069316         1.8862
  69   0.0000       0.105640         2.8746
  70   0.0000       0.119121         3.2414
  71   0.0000       0.125642         3.4189

MULLIKEN ATOMIC CHARGES
-----------------------
   0 S :    0.110552
   1 C :   -0.087559
   2 C :   -0.135610
   3 C :    0.036965
   4 C :   -0.157580
   5 H :    0.027259
   6 C :    0.111747
   7 H :    0.041076
   8 H :    0.008013
   9 C :   -0.150153
  10 H :    0.026343
  11 H :    0.030558
  12 C :    0.014679
  13 H :    0.023867
  14 H :    0.021809
  15 H :    0.033061
  16 S :    0.086278
  17 C :   -0.040492
  18 C :   -0.044091
  19 C :   -0.065530
  20 C :   -0.130428
  21 H :    0.038391
  22 C :    0.093565
  23 H :    0.015654
  24 H :   -0.002476
  25 C :   -0.059450
  26 H :    0.025488
  27 H :    0.008225
  28 C :   -0.041544
  29 H :    0.023221
  30 H :    0.024239
  31 H :    0.052935
  32 H :    0.043414
  33 H :    0.017572
Sum of atomic charges:   -0.0000000

LOEWDIN ATOMIC CHARGES
----------------------
   0 S :    0.436851
   1 C :   -0.208746
   2 C :   -0.054813
   3 C :   -0.067624
   4 C :   -0.190536
   5 H :    0.028857
   6 C :   -0.025485
   7 H :    0.028610
   8 H :    0.027747
   9 C :   -0.047098
  10 H :    0.022180
  11 H :    0.024507
  12 C :   -0.059248
  13 H :    0.022101
  14 H :    0.024791
  15 H :    0.025554
  16 S :    0.391393
  17 C :   -0.165936
  18 C :   -0.077587
  19 C :   -0.056846
  20 C :   -0.187098
  21 H :    0.042170
  22 C :   -0.027076
  23 H :    0.030142
  24 H :    0.017227
  25 C :   -0.048654
  26 H :    0.022600
  27 H :    0.022685
  28 C :   -0.065459
  29 H :    0.020693
  30 H :    0.024726
  31 H :    0.039308
  32 H :    0.020527
  33 H :    0.009536

  Mayer bond orders larger than 0.100000
B(  0-S ,  1-C ) :   1.1605 B(  0-S ,  4-C ) :   1.1902 B(  1-C ,  2-C ) :   1.5634
B(  1-C ,  4-C ) :   0.1068 B(  1-C , 32-H ) :   0.9767 B(  2-C ,  3-C ) :   1.2646
B(  2-C ,  6-C ) :   1.0308 B(  3-C ,  4-C ) :   1.5211 B(  3-C ,  5-H ) :   0.9844
B(  4-C , 20-C ) :   1.0402 B(  6-C ,  7-H ) :   0.9427 B(  6-C ,  8-H ) :   0.9368
B(  6-C ,  9-C ) :   1.0500 B(  9-C , 10-H ) :   0.9594 B(  9-C , 11-H ) :   0.9572
B(  9-C , 12-C ) :   1.0811 B( 12-C , 13-H ) :   0.9729 B( 12-C , 14-H ) :   0.9730
B( 12-C , 15-H ) :   0.9722 B( 16-S , 17-C ) :   1.1604 B( 16-S , 20-C ) :   1.1261
B( 17-C , 18-C ) :   1.6026 B( 17-C , 33-H ) :   0.9777 B( 18-C , 19-C ) :   1.2543
B( 18-C , 21-H ) :   0.9840 B( 19-C , 20-C ) :   1.5954 B( 19-C , 22-C ) :   1.0489
B( 22-C , 23-H ) :   0.9334 B( 22-C , 24-H ) :   0.9273 B( 22-C , 25-C ) :   1.0666
B( 25-C , 26-H ) :   0.9522 B( 25-C , 27-H ) :   0.9440 B( 25-C , 28-C ) :   1.0926
B( 28-C , 29-H ) :   0.9724 B( 28-C , 30-H ) :   0.9719 B( 28-C , 31-H ) :   0.9706

Dispersion correction           -0.013967420
FINAL SINGLE POINT ENERGY     -1339.863658334160

DIPOLE MOMENT
-------------
                                X             Y             Z
Electronic contribution:     14.29277     -26.92326      -8.49168
Nuclear contribution   :    -14.50127      27.33971       8.75521
                        -----------------------------------------
Total Dipole Moment    :     -0.20850       0.41645       0.26353
                        -----------------------------------------
Magnitude (a.u.)       :      0.53512
Magnitude (Debye)      :      1.36016

Rotational constants in cm-1:     0.018689     0.008631     0.006464
Rotational constants in MHz :   560.286255   258.759964   193.781977

                             ****ORCA TERMINATED NORMALLY****
TOTAL RUN TIME: 0 days 0 hours 0 minutes 21 seconds 464 msec
