                         Program Version 4.2.1 -  RELEASE  -
|  1> ! wB97X-D3 SP def2-SVP
|  2> %pal
|  3> nprocs 24
|  4> end
|  5>
|  6> * xyz 0 1
|  7> S 	 43.034 	 -20.5086 	 -113.554
|  8> C 	 41.7691 	 -19.4169 	 -114.159
|  9> C 	 42.096 	 -18.0855 	 -113.94
| 10> C 	 43.3662 	 -17.9781 	 -113.224
| 11> C 	 43.9053 	 -19.1977 	 -112.875
| 12> H 	 43.8521 	 -17.0809 	 -113.038
| 13> C 	 41.3538 	 -16.9527 	 -114.608
| 14> H 	 40.8026 	 -17.1161 	 -115.558
| 15> H 	 42.0185 	 -16.1855 	 -114.865
| 16> C 	 40.3577 	 -16.2954 	 -113.665
| 17> H 	 41.0021 	 -15.956 	 -112.797
| 18> H 	 39.9488 	 -15.4031 	 -114.08
| 19> C 	 39.2322 	 -17.1414 	 -113.175
| 20> H 	 39.6451 	 -17.9956 	 -112.619
| 21> H 	 38.6279 	 -16.6197 	 -112.432
| 22> H 	 38.5708 	 -17.5194 	 -113.904
| 23> S 	 46.1318 	 -20.8124 	 -112.672
| 24> C 	 47.4127 	 -20.4868 	 -111.502
| 25> C 	 47.1655 	 -19.361 	 -110.782
| 26> C 	 45.9223 	 -18.727 	 -111.205
| 27> C 	 45.1845 	 -19.4872 	 -112.184
| 28> H 	 47.8172 	 -19.1038 	 -109.98
| 29> C 	 45.3985 	 -17.481 	 -110.577
| 30> H 	 45.1885 	 -16.6817 	 -111.316
| 31> H 	 46.1251 	 -17.0177 	 -109.947
| 32> C 	 44.1155 	 -17.6761 	 -109.708
| 33> H 	 44.1099 	 -18.4598 	 -109.001
| 34> H 	 43.2372 	 -17.763 	 -110.339
| 35> C 	 43.7978 	 -16.3522 	 -108.927
| 36> H 	 44.5201 	 -16.0998 	 -108.218
| 37> H 	 42.8383 	 -16.4092 	 -108.45
| 38> H 	 43.5913 	 -15.4804 	 -109.647
| 39> H 	 40.9436 	 -19.7775 	 -114.804
| 40> H 	 48.1633 	 -21.2431 	 -111.351
| 41> *
| 42>
| 43>                          ****END OF INPUT****

CARTESIAN COORDINATES (ANGSTROEM)
---------------------------------
  S     43.034000  -20.508600  -113.554000
  C     41.769100  -19.416900  -114.159000
  C     42.096000  -18.085500  -113.940000
  C     43.366200  -17.978100  -113.224000
  C     43.905300  -19.197700  -112.875000
  H     43.852100  -17.080900  -113.038000
  C     41.353800  -16.952700  -114.608000
  H     40.802600  -17.116100  -115.558000
  H     42.018500  -16.185500  -114.865000
  C     40.357700  -16.295400  -113.665000
  H     41.002100  -15.956000  -112.797000
  H     39.948800  -15.403100  -114.080000
  C     39.232200  -17.141400  -113.175000
  H     39.645100  -17.995600  -112.619000
  H     38.627900  -16.619700  -112.432000
  H     38.570800  -17.519400  -113.904000
  S     46.131800  -20.812400  -112.672000
  C     47.412700  -20.486800  -111.502000
  C     47.165500  -19.361000  -110.782000
  C     45.922300  -18.727000  -111.205000
  C     45.184500  -19.487200  -112.184000
  H     47.817200  -19.103800  -109.980000
  C     45.398500  -17.481000  -110.577000
  H     45.188500  -16.681700  -111.316000
  H     46.125100  -17.017700  -109.947000
  C     44.115500  -17.676100  -109.708000
  H     44.109900  -18.459800  -109.001000
  H     43.237200  -17.763000  -110.339000
  C     43.797800  -16.352200  -108.927000
  H     44.520100  -16.099800  -108.218000
  H     42.838300  -16.409200  -108.450000
  H     43.591300  -15.480400  -109.647000
  H     40.943600  -19.777500  -114.804000
  H     48.163300  -21.243100  -111.351000

 Total Charge           Charge          ....    0
 Multiplicity           Mult            ....    1
 Number of Electrons    NEL             ....  134
 Basis Dimension        Dim             ....  322

ORBITAL ENERGIES
----------------

  NO   OCC          E(Eh)            E(eV)
   0   2.0000     -88.967169     -2420.9197
   1   2.0000     -88.964376     -2420.8437
   2   2.0000     -10.333613      -281.1919
   3   2.0000     -10.330876      -281.1174
   4   2.0000     -10.319526      -280.8086
   5   2.0000     -10.317001      -280.7399
   6   2.0000     -10.309461      -280.5347
   7   2.0000     -10.308858      -280.5183
   8   2.0000     -10.297902      -280.2201
   9   2.0000     -10.295721      -280.1608
  10   2.0000     -10.290080      -280.0073
  11   2.0000     -10.290075      -280.0072
  12   2.0000     -10.282182      -279.7924
  13   2.0000     -10.281330      -279.7692
  14   2.0000     -10.274739      -279.5899
  15   2.0000     -10.267662      -279.3973
  16   2.0000      -8.082304      -219.9307
  17   2.0000      -8.079963      -219.8670
  18   2.0000      -6.040848      -164.3798
  19   2.0000      -6.038436      -164.3142
  20   2.0000      -6.036792      -164.2695
  21   2.0000      -6.034206      -164.1991
  22   2.0000      -6.032962      -164.1653
  23   2.0000      -6.030857      -164.1080
  24   2.0000      -1.008787       -27.4505
  25   2.0000      -0.984397       -26.7868
  26   2.0000      -0.919526       -25.0216
  27   2.0000      -0.904615       -24.6158
  28   2.0000      -0.871379       -23.7114
  29   2.0000      -0.848377       -23.0855
  30   2.0000      -0.844623       -22.9834
  31   2.0000      -0.819335       -22.2952
  32   2.0000      -0.789742       -21.4900
  33   2.0000      -0.768096       -20.9009
  34   2.0000      -0.707862       -19.2619
  35   2.0000      -0.696023       -18.9398
  36   2.0000      -0.688087       -18.7238
  37   2.0000      -0.665180       -18.1005
  38   2.0000      -0.642497       -17.4832
  39   2.0000      -0.627467       -17.0743
  40   2.0000      -0.599770       -16.3206
  41   2.0000      -0.577742       -15.7212
  42   2.0000      -0.565722       -15.3941
  43   2.0000      -0.552094       -15.0232
  44   2.0000      -0.548031       -14.9127
  45   2.0000      -0.518332       -14.1045
  46   2.0000      -0.517658       -14.0862
  47   2.0000      -0.513324       -13.9683
  48   2.0000      -0.502554       -13.6752
  49   2.0000      -0.500449       -13.6179
  50   2.0000      -0.490079       -13.3357
  51   2.0000      -0.488383       -13.2896
  52   2.0000      -0.476333       -12.9617
  53   2.0000      -0.463906       -12.6235
  54   2.0000      -0.459170       -12.4946
  55   2.0000      -0.450405       -12.2562
  56   2.0000      -0.438213       -11.9244
  57   2.0000      -0.436133       -11.8678
  58   2.0000      -0.431632       -11.7453
  59   2.0000      -0.425042       -11.5660
  60   2.0000      -0.418663       -11.3924
  61   2.0000      -0.415442       -11.3048
  62   2.0000      -0.412772       -11.2321
  63   2.0000      -0.358642        -9.7592
  64   2.0000      -0.332864        -9.0577
  65   2.0000      -0.326378        -8.8812
  66   2.0000      -0.286440        -7.7944
  67   0.0000       0.021287         0.5793
  68   0.0000       0.078492         2.1359
  69   0.0000       0.104679         2.8485
  70   0.0000       0.117821         3.2061
  71   0.0000       0.127150         3.4599

MULLIKEN ATOMIC CHARGES
-----------------------
   0 S :    0.098341
   1 C :   -0.130598
   2 C :   -0.083503
   3 C :    0.045407
   4 C :   -0.114467
   5 H :   -0.023342
   6 C :    0.089064
   7 H :    0.032263
   8 H :    0.009220
   9 C :   -0.096585
  10 H :    0.022865
  11 H :    0.019014
  12 C :   -0.028461
  13 H :    0.033850
  14 H :    0.028352
  15 H :    0.018140
  16 S :    0.091477
  17 C :   -0.099150
  18 C :    0.002923
  19 C :   -0.052353
  20 C :   -0.108891
  21 H :    0.017659
  22 C :    0.052390
  23 H :    0.027280
  24 H :    0.001964
  25 C :   -0.047998
  26 H :    0.027087
  27 H :    0.036926
  28 C :   -0.072829
  29 H :    0.027813
  30 H :    0.025430
  31 H :    0.026327
  32 H :    0.064800
  33 H :    0.059586
Sum of atomic charges:    0.0000000

LOEWDIN ATOMIC CHARGES
----------------------
   0 S :    0.406953
   1 C :   -0.190379
   2 C :   -0.053788
   3 C :   -0.055953
   4 C :   -0.192534
   5 H :    0.017148
   6 C :   -0.031000
   7 H :    0.034015
   8 H :    0.026154
   9 C :   -0.042926
  10 H :    0.026924
  11 H :    0.016476
  12 C :   -0.067709
  13 H :    0.028596
  14 H :    0.028519
  15 H :    0.016415
  16 S :    0.416983
  17 C :   -0.176889
  18 C :   -0.063928
  19 C :   -0.055923
  20 C :   -0.214451
  21 H :    0.033220
  22 C :   -0.037977
  23 H :    0.032709
  24 H :    0.024313
  25 C :   -0.027266
  26 H :    0.018572
  27 H :    0.025316
  28 C :   -0.066414
  29 H :    0.011145
  30 H :    0.022844
  31 H :    0.029692
  32 H :    0.034812
  33 H :    0.026331

  Mayer bond orders larger than 0.100000
B(  0-S ,  1-C ) :   1.1287 B(  0-S ,  4-C ) :   1.1629 B(  1-C ,  2-C ) :   1.6124
B(  1-C , 32-H ) :   0.9672 B(  2-C ,  3-C ) :   1.2324 B(  2-C ,  6-C ) :   1.0195
B(  3-C ,  4-C ) :   1.5574 B(  3-C ,  5-H ) :   1.0058 B(  4-C , 20-C ) :   1.0435
B(  6-C ,  7-H ) :   0.9513 B(  6-C ,  8-H ) :   0.9342 B(  6-C ,  9-C ) :   1.0740
B(  9-C , 10-H ) :   0.9535 B(  9-C , 11-H ) :   0.9547 B(  9-C , 12-C ) :   1.0909
B( 12-C , 13-H ) :   0.9678 B( 12-C , 14-H ) :   0.9701 B( 12-C , 15-H ) :   0.9727
B( 16-S , 17-C ) :   1.1589 B( 16-S , 20-C ) :   1.1626 B( 17-C , 18-C ) :   1.5908
B( 17-C , 33-H ) :   0.9692 B( 18-C , 19-C ) :   1.2528 B( 18-C , 21-H ) :   0.9992
B( 19-C , 20-C ) :   1.5395 B( 19-C , 22-C ) :   1.0648 B( 22-C , 23-H ) :   0.9279
B( 22-C , 24-H ) :   0.9356 B( 22-C , 25-C ) :   1.0581 B( 25-C , 26-H ) :   0.9614
B( 25-C , 27-H ) :   0.9519 B( 25-C , 28-C ) :   1.0833 B( 28-C , 29-H ) :   0.9791
B( 28-C , 30-H ) :   0.9741 B( 28-C , 31-H ) :   0.9740

Dispersion correction           -0.014696452
FINAL SINGLE POINT ENERGY     -1339.877078700357

DIPOLE MOMENT
-------------
                                X             Y             Z
Electronic contribution:     16.76509     -23.74182      -9.94619
Nuclear contribution   :    -16.84884      24.27032      10.08412
                        -----------------------------------------
Total Dipole Moment    :     -0.08375       0.52849       0.13794
                        -----------------------------------------
Magnitude (a.u.)       :      0.55258
Magnitude (Debye)      :      1.40455

Rotational constants in cm-1:     0.019582     0.009314     0.006843
Rotational constants in MHz :   587.057039   279.231120   205.138349

                             ****ORCA TERMINATED NORMALLY****
TOTAL RUN TIME: 0 days 0 hours 0 minutes 22 seconds 169 msec
