                         Program Version 4.2.1 -  RELEASE  -
|  1> ! wB97X-D3 SP def2-SVP
|  2> %pal
|  3> nprocs 24
|  4> end
|  5>
|  6> * xyz 0 1
|  7> S 	 -33.2621 	 -31.0841 	 -91.3468
|  8> C 	 -33.7088 	 -31.3168 	 -93.013
|  9> C 	 -32.8598 	 -32.0943 	 -93.7062
| 10> C 	 -31.6445 	 -32.3137 	 -92.9458
| 11> C 	 -31.6645 	 -31.7869 	 -91.6528
| 12> H 	 -30.7716 	 -32.9064 	 -93.3099
| 13> C 	 -32.9989 	 -32.6297 	 -95.0659
| 14> H 	 -31.975 	 -32.9269 	 -95.4169
| 15> H 	 -33.3765 	 -31.8257 	 -95.6935
| 16> C 	 -33.9152 	 -33.9091 	 -95.1841
| 17> H 	 -34.8988 	 -33.6579 	 -94.9654
| 18> H 	 -33.769 	 -34.2481 	 -96.2063
| 19> C 	 -33.4465 	 -34.889 	 -94.1421
| 20> H 	 -32.3863 	 -35.0667 	 -94.3499
| 21> H 	 -33.564 	 -34.6875 	 -93.1087
| 22> H 	 -34.0627 	 -35.7793 	 -94.2901
| 23> S 	 -30.4134 	 -33.5879 	 -89.896
| 24> C 	 -29.5107 	 -32.9047 	 -88.6188
| 25> C 	 -29.0025 	 -31.6605 	 -88.9051
| 26> C 	 -29.7029 	 -31.1261 	 -90.0249
| 27> C 	 -30.5968 	 -31.986 	 -90.6103
| 28> H 	 -28.3279 	 -31.2785 	 -88.2233
| 29> C 	 -29.4755 	 -29.6387 	 -90.3128
| 30> H 	 -29.9336 	 -29.4252 	 -91.2139
| 31> H 	 -28.4462 	 -29.512 	 -90.401
| 32> C 	 -30.0906 	 -28.557 	 -89.2934
| 33> H 	 -29.8656 	 -28.8355 	 -88.3421
| 34> H 	 -31.1369 	 -28.5859 	 -89.474
| 35> C 	 -29.6668 	 -27.1812 	 -89.5954
| 36> H 	 -30.021 	 -26.4398 	 -88.8339
| 37> H 	 -29.8936 	 -26.8618 	 -90.6173
| 38> H 	 -28.5404 	 -27.2645 	 -89.4652
| 39> H 	 -34.7057 	 -31.068 	 -93.3795
| 40> H 	 -29.0136 	 -33.4015 	 -87.8306
| 41> *
| 42>
| 43>                          ****END OF INPUT****

CARTESIAN COORDINATES (ANGSTROEM)
---------------------------------
  S    -33.262100  -31.084100  -91.346800
  C    -33.708800  -31.316800  -93.013000
  C    -32.859800  -32.094300  -93.706200
  C    -31.644500  -32.313700  -92.945800
  C    -31.664500  -31.786900  -91.652800
  H    -30.771600  -32.906400  -93.309900
  C    -32.998900  -32.629700  -95.065900
  H    -31.975000  -32.926900  -95.416900
  H    -33.376500  -31.825700  -95.693500
  C    -33.915200  -33.909100  -95.184100
  H    -34.898800  -33.657900  -94.965400
  H    -33.769000  -34.248100  -96.206300
  C    -33.446500  -34.889000  -94.142100
  H    -32.386300  -35.066700  -94.349900
  H    -33.564000  -34.687500  -93.108700
  H    -34.062700  -35.779300  -94.290100
  S    -30.413400  -33.587900  -89.896000
  C    -29.510700  -32.904700  -88.618800
  C    -29.002500  -31.660500  -88.905100
  C    -29.702900  -31.126100  -90.024900
  C    -30.596800  -31.986000  -90.610300
  H    -28.327900  -31.278500  -88.223300
  C    -29.475500  -29.638700  -90.312800
  H    -29.933600  -29.425200  -91.213900
  H    -28.446200  -29.512000  -90.401000
  C    -30.090600  -28.557000  -89.293400
  H    -29.865600  -28.835500  -88.342100
  H    -31.136900  -28.585900  -89.474000
  C    -29.666800  -27.181200  -89.595400
  H    -30.021000  -26.439800  -88.833900
  H    -29.893600  -26.861800  -90.617300
  H    -28.540400  -27.264500  -89.465200
  H    -34.705700  -31.068000  -93.379500
  H    -29.013600  -33.401500  -87.830600

 Total Charge           Charge          ....    0
 Multiplicity           Mult            ....    1
 Number of Electrons    NEL             ....  134
 Basis Dimension        Dim             ....  322

ORBITAL ENERGIES
----------------

  NO   OCC          E(Eh)            E(eV)
   0   2.0000     -88.965955     -2420.8867
   1   2.0000     -88.964045     -2420.8347
   2   2.0000     -10.333663      -281.1933
   3   2.0000     -10.326361      -280.9946
   4   2.0000     -10.309739      -280.5423
   5   2.0000     -10.307929      -280.4930
   6   2.0000     -10.302428      -280.3433
   7   2.0000     -10.297681      -280.2142
   8   2.0000     -10.294088      -280.1164
   9   2.0000     -10.290784      -280.0265
  10   2.0000     -10.284316      -279.8505
  11   2.0000     -10.282963      -279.8136
  12   2.0000     -10.279623      -279.7228
  13   2.0000     -10.278343      -279.6879
  14   2.0000     -10.271425      -279.4997
  15   2.0000     -10.269538      -279.4483
  16   2.0000      -8.080353      -219.8776
  17   2.0000      -8.079482      -219.8539
  18   2.0000      -6.038977      -164.3289
  19   2.0000      -6.037914      -164.3000
  20   2.0000      -6.034987      -164.2204
  21   2.0000      -6.034099      -164.1962
  22   2.0000      -6.030939      -164.1102
  23   2.0000      -6.030065      -164.0864
  24   2.0000      -1.006033       -27.3756
  25   2.0000      -0.988776       -26.9060
  26   2.0000      -0.915984       -24.9252
  27   2.0000      -0.908242       -24.7145
  28   2.0000      -0.867527       -23.6066
  29   2.0000      -0.855832       -23.2884
  30   2.0000      -0.846706       -23.0400
  31   2.0000      -0.815625       -22.1943
  32   2.0000      -0.780872       -21.2486
  33   2.0000      -0.770143       -20.9567
  34   2.0000      -0.706145       -19.2152
  35   2.0000      -0.700898       -19.0724
  36   2.0000      -0.693416       -18.8688
  37   2.0000      -0.661606       -18.0032
  38   2.0000      -0.637186       -17.3387
  39   2.0000      -0.612078       -16.6555
  40   2.0000      -0.592279       -16.1167
  41   2.0000      -0.583009       -15.8645
  42   2.0000      -0.573612       -15.6088
  43   2.0000      -0.558302       -15.1922
  44   2.0000      -0.544184       -14.8080
  45   2.0000      -0.519461       -14.1352
  46   2.0000      -0.517633       -14.0855
  47   2.0000      -0.510851       -13.9010
  48   2.0000      -0.509222       -13.8566
  49   2.0000      -0.493741       -13.4354
  50   2.0000      -0.490366       -13.3435
  51   2.0000      -0.477568       -12.9953
  52   2.0000      -0.470760       -12.8100
  53   2.0000      -0.468273       -12.7424
  54   2.0000      -0.465054       -12.6548
  55   2.0000      -0.447004       -12.1636
  56   2.0000      -0.443032       -12.0555
  57   2.0000      -0.431699       -11.7471
  58   2.0000      -0.427439       -11.6312
  59   2.0000      -0.425876       -11.5887
  60   2.0000      -0.422756       -11.5038
  61   2.0000      -0.414199       -11.2709
  62   2.0000      -0.410511       -11.1706
  63   2.0000      -0.331887        -9.0311
  64   2.0000      -0.330414        -8.9910
  65   2.0000      -0.323045        -8.7905
  66   2.0000      -0.308227        -8.3873
  67   0.0000       0.043318         1.1787
  68   0.0000       0.053052         1.4436
  69   0.0000       0.107668         2.9298
  70   0.0000       0.114119         3.1053
  71   0.0000       0.129078         3.5124

MULLIKEN ATOMIC CHARGES
-----------------------
   0 S :    0.113018
   1 C :   -0.126241
   2 C :   -0.079304
   3 C :    0.001857
   4 C :   -0.151495
   5 H :    0.028693
   6 C :    0.024541
   7 H :    0.026788
   8 H :    0.033508
   9 C :   -0.018063
  10 H :    0.014312
  11 H :    0.038190
  12 C :   -0.054171
  13 H :    0.022174
  14 H :    0.047144
  15 H :    0.028119
  16 S :    0.121094
  17 C :   -0.066051
  18 C :   -0.032444
  19 C :   -0.018557
  20 C :   -0.185339
  21 H :   -0.004216
  22 C :    0.098784
  23 H :   -0.000685
  24 H :    0.007439
  25 C :   -0.010382
  26 H :    0.002060
  27 H :    0.019230
  28 C :   -0.070931
  29 H :    0.047731
  30 H :    0.038846
  31 H :    0.023225
  32 H :    0.044599
  33 H :    0.036527
Sum of atomic charges:    0.0000000

LOEWDIN ATOMIC CHARGES
----------------------
   0 S :    0.398374
   1 C :   -0.195838
   2 C :   -0.072028
   3 C :   -0.062258
   4 C :   -0.194097
   5 H :    0.035972
   6 C :   -0.035514
   7 H :    0.032008
   8 H :    0.030958
   9 C :   -0.023157
  10 H :    0.012363
  11 H :    0.028093
  12 C :   -0.063071
  13 H :    0.024095
  14 H :    0.025275
  15 H :    0.027406
  16 S :    0.414293
  17 C :   -0.182571
  18 C :   -0.063981
  19 C :   -0.044363
  20 C :   -0.204251
  21 H :    0.021158
  22 C :   -0.014724
  23 H :    0.017198
  24 H :    0.019939
  25 C :   -0.025564
  26 H :    0.006503
  27 H :    0.019963
  28 C :   -0.068082
  29 H :    0.033452
  30 H :    0.025771
  31 H :    0.028055
  32 H :    0.028005
  33 H :    0.020615

  Mayer bond orders larger than 0.100000
B(  0-S ,  1-C ) :   1.1342 B(  0-S ,  4-C ) :   1.1403 B(  1-C ,  2-C ) :   1.6386
B(  1-C , 32-H ) :   0.9613 B(  2-C ,  3-C ) :   1.2191 B(  2-C ,  6-C ) :   1.0218
B(  3-C ,  4-C ) :   1.6035 B(  3-C ,  5-H ) :   0.9846 B(  4-C , 20-C ) :   1.0141
B(  6-C ,  7-H ) :   0.9444 B(  6-C ,  8-H ) :   0.9391 B(  6-C ,  9-C ) :   1.0670
B(  9-C , 10-H ) :   0.9547 B(  9-C , 11-H ) :   0.9589 B(  9-C , 12-C ) :   1.0828
B( 12-C , 13-H ) :   0.9772 B( 12-C , 14-H ) :   0.9686 B( 12-C , 15-H ) :   0.9701
B( 16-S , 17-C ) :   1.1716 B( 16-S , 20-C ) :   1.1223 B( 17-C , 18-C ) :   1.6349
B( 17-C , 33-H ) :   0.9616 B( 18-C , 19-C ) :   1.2055 B( 18-C , 21-H ) :   1.0061
B( 19-C , 20-C ) :   1.6276 B( 19-C , 22-C ) :   1.0503 B( 22-C , 23-H ) :   0.9285
B( 22-C , 24-H ) :   0.9345 B( 22-C , 25-C ) :   1.0593 B( 25-C , 26-H ) :   0.9578
B( 25-C , 27-H ) :   0.9498 B( 25-C , 28-C ) :   1.0914 B( 28-C , 29-H ) :   0.9695
B( 28-C , 30-H ) :   0.9741 B( 28-C , 31-H ) :   0.9748

Dispersion correction           -0.014575036
FINAL SINGLE POINT ENERGY     -1339.849173470379

DIPOLE MOMENT
-------------
                                X             Y             Z
Electronic contribution:     -1.19426      -7.24652       9.03717
Nuclear contribution   :      1.29473       7.26344      -9.23475
                        -----------------------------------------
Total Dipole Moment    :      0.10046       0.01691      -0.19758
                        -----------------------------------------
Magnitude (a.u.)       :      0.22230
Magnitude (Debye)      :      0.56504

Rotational constants in cm-1:     0.021687     0.008101     0.006522
Rotational constants in MHz :   650.170054   242.856367   195.531810

                             ****ORCA TERMINATED NORMALLY****
TOTAL RUN TIME: 0 days 0 hours 0 minutes 21 seconds 405 msec
