                         Program Version 4.2.1 -  RELEASE  -
|  1> ! wB97X-D3 SP def2-SVP
|  2> %pal
|  3> nprocs 24
|  4> end
|  5>
|  6> * xyz 0 1
|  7> S 	 -87.7917 	 -32.4404 	 -70.8071
|  8> C 	 -88.3394 	 -33.6216 	 -72.0381
|  9> C 	 -89.7135 	 -33.4635 	 -72.2027
| 10> C 	 -90.2534 	 -32.3856 	 -71.4642
| 11> C 	 -89.3207 	 -31.6601 	 -70.7593
| 12> H 	 -91.2062 	 -31.9123 	 -71.4268
| 13> C 	 -90.5301 	 -34.2412 	 -73.1915
| 14> H 	 -91.4568 	 -34.4846 	 -72.6277
| 15> H 	 -90.0349 	 -35.2235 	 -73.2918
| 16> C 	 -90.7656 	 -33.5747 	 -74.602
| 17> H 	 -91.1602 	 -32.543 	 -74.5945
| 18> H 	 -89.7546 	 -33.4276 	 -74.9189
| 19> C 	 -91.6636 	 -34.4496 	 -75.4992
| 20> H 	 -92.7142 	 -34.2816 	 -75.3293
| 21> H 	 -91.4145 	 -34.1265 	 -76.5468
| 22> H 	 -91.4505 	 -35.4955 	 -75.3998
| 23> S 	 -89.1376 	 -30.341 	 -68.3902
| 24> C 	 -89.8002 	 -28.6766 	 -68.2288
| 25> C 	 -90.0599 	 -28.1926 	 -69.4445
| 26> C 	 -89.8718 	 -29.0902 	 -70.5221
| 27> C 	 -89.4987 	 -30.374 	 -70.094
| 28> H 	 -90.4295 	 -27.2063 	 -69.6277
| 29> C 	 -90.1068 	 -28.6156 	 -71.954
| 30> H 	 -91.2117 	 -28.5483 	 -72.0022
| 31> H 	 -89.7032 	 -29.4084 	 -72.5107
| 32> C 	 -89.5463 	 -27.308 	 -72.4063
| 33> H 	 -90.259 	 -26.5219 	 -72.0317
| 34> H 	 -89.6479 	 -27.223 	 -73.4946
| 35> C 	 -88.0296 	 -27.0108 	 -72.1401
| 36> H 	 -87.4574 	 -27.7926 	 -72.5666
| 37> H 	 -87.8186 	 -26.8385 	 -71.096
| 38> H 	 -87.7341 	 -26.0609 	 -72.6021
| 39> H 	 -87.6591 	 -34.1759 	 -72.6992
| 40> H 	 -89.8621 	 -28.0225 	 -67.3251
| 41> *
| 42>
| 43>                          ****END OF INPUT****

CARTESIAN COORDINATES (ANGSTROEM)
---------------------------------
  S    -87.791700  -32.440400  -70.807100
  C    -88.339400  -33.621600  -72.038100
  C    -89.713500  -33.463500  -72.202700
  C    -90.253400  -32.385600  -71.464200
  C    -89.320700  -31.660100  -70.759300
  H    -91.206200  -31.912300  -71.426800
  C    -90.530100  -34.241200  -73.191500
  H    -91.456800  -34.484600  -72.627700
  H    -90.034900  -35.223500  -73.291800
  C    -90.765600  -33.574700  -74.602000
  H    -91.160200  -32.543000  -74.594500
  H    -89.754600  -33.427600  -74.918900
  C    -91.663600  -34.449600  -75.499200
  H    -92.714200  -34.281600  -75.329300
  H    -91.414500  -34.126500  -76.546800
  H    -91.450500  -35.495500  -75.399800
  S    -89.137600  -30.341000  -68.390200
  C    -89.800200  -28.676600  -68.228800
  C    -90.059900  -28.192600  -69.444500
  C    -89.871800  -29.090200  -70.522100
  C    -89.498700  -30.374000  -70.094000
  H    -90.429500  -27.206300  -69.627700
  C    -90.106800  -28.615600  -71.954000
  H    -91.211700  -28.548300  -72.002200
  H    -89.703200  -29.408400  -72.510700
  C    -89.546300  -27.308000  -72.406300
  H    -90.259000  -26.521900  -72.031700
  H    -89.647900  -27.223000  -73.494600
  C    -88.029600  -27.010800  -72.140100
  H    -87.457400  -27.792600  -72.566600
  H    -87.818600  -26.838500  -71.096000
  H    -87.734100  -26.060900  -72.602100
  H    -87.659100  -34.175900  -72.699200
  H    -89.862100  -28.022500  -67.325100

 Total Charge           Charge          ....    0
 Multiplicity           Mult            ....    1
 Number of Electrons    NEL             ....  134
 Basis Dimension        Dim             ....  322

ORBITAL ENERGIES
----------------

  NO   OCC          E(Eh)            E(eV)
   0   2.0000     -88.962211     -2420.7848
   1   2.0000     -88.962144     -2420.7830
   2   2.0000     -10.328134      -281.0428
   3   2.0000     -10.326126      -280.9882
   4   2.0000     -10.319103      -280.7971
   5   2.0000     -10.318684      -280.7857
   6   2.0000     -10.302884      -280.3557
   7   2.0000     -10.302219      -280.3376
   8   2.0000     -10.294502      -280.1276
   9   2.0000     -10.291871      -280.0561
  10   2.0000     -10.291741      -280.0525
  11   2.0000     -10.288761      -279.9714
  12   2.0000     -10.286999      -279.9235
  13   2.0000     -10.284981      -279.8686
  14   2.0000     -10.282003      -279.7875
  15   2.0000     -10.275408      -279.6081
  16   2.0000      -8.077159      -219.7907
  17   2.0000      -8.076622      -219.7760
  18   2.0000      -6.035584      -164.2366
  19   2.0000      -6.035319      -164.2294
  20   2.0000      -6.031599      -164.1282
  21   2.0000      -6.031242      -164.1184
  22   2.0000      -6.027989      -164.0299
  23   2.0000      -6.027112      -164.0061
  24   2.0000      -1.008022       -27.4297
  25   2.0000      -0.984781       -26.7973
  26   2.0000      -0.911373       -24.7997
  27   2.0000      -0.907616       -24.6975
  28   2.0000      -0.871666       -23.7192
  29   2.0000      -0.847820       -23.0704
  30   2.0000      -0.842520       -22.9261
  31   2.0000      -0.819859       -22.3095
  32   2.0000      -0.783820       -21.3288
  33   2.0000      -0.772150       -21.0113
  34   2.0000      -0.710145       -19.3240
  35   2.0000      -0.704270       -19.1641
  36   2.0000      -0.693607       -18.8740
  37   2.0000      -0.658797       -17.9268
  38   2.0000      -0.647580       -17.6215
  39   2.0000      -0.613572       -16.6961
  40   2.0000      -0.587394       -15.9838
  41   2.0000      -0.564661       -15.3652
  42   2.0000      -0.561993       -15.2926
  43   2.0000      -0.556443       -15.1416
  44   2.0000      -0.540799       -14.7159
  45   2.0000      -0.528657       -14.3855
  46   2.0000      -0.521070       -14.1790
  47   2.0000      -0.514683       -14.0052
  48   2.0000      -0.505202       -13.7472
  49   2.0000      -0.501240       -13.6394
  50   2.0000      -0.492028       -13.3888
  51   2.0000      -0.475561       -12.9407
  52   2.0000      -0.473588       -12.8870
  53   2.0000      -0.467270       -12.7151
  54   2.0000      -0.461343       -12.5538
  55   2.0000      -0.449593       -12.2341
  56   2.0000      -0.442694       -12.0463
  57   2.0000      -0.439239       -11.9523
  58   2.0000      -0.434833       -11.8324
  59   2.0000      -0.425157       -11.5691
  60   2.0000      -0.414745       -11.2858
  61   2.0000      -0.413988       -11.2652
  62   2.0000      -0.405298       -11.0287
  63   2.0000      -0.345629        -9.4050
  64   2.0000      -0.330322        -8.9885
  65   2.0000      -0.324238        -8.8230
  66   2.0000      -0.295421        -8.0388
  67   0.0000       0.034885         0.9493
  68   0.0000       0.059072         1.6074
  69   0.0000       0.105074         2.8592
  70   0.0000       0.126223         3.4347
  71   0.0000       0.130151         3.5416

MULLIKEN ATOMIC CHARGES
-----------------------
   0 S :    0.101541
   1 C :   -0.134888
   2 C :   -0.088172
   3 C :    0.060332
   4 C :   -0.172371
   5 H :   -0.001741
   6 C :    0.033420
   7 H :    0.031848
   8 H :    0.024042
   9 C :   -0.055700
  10 H :    0.032879
  11 H :    0.017172
  12 C :   -0.034339
  13 H :    0.040949
  14 H :    0.038578
  15 H :    0.029947
  16 S :    0.091734
  17 C :   -0.086891
  18 C :   -0.023342
  19 C :   -0.056457
  20 C :   -0.184295
  21 H :    0.005571
  22 C :    0.117621
  23 H :    0.043220
  24 H :    0.013735
  25 C :   -0.114569
  26 H :    0.025495
  27 H :    0.033072
  28 C :   -0.021143
  29 H :    0.034674
  30 H :    0.035223
  31 H :    0.028897
  32 H :    0.064919
  33 H :    0.069041
Sum of atomic charges:   -0.0000000

LOEWDIN ATOMIC CHARGES
----------------------
   0 S :    0.398227
   1 C :   -0.194164
   2 C :   -0.063837
   3 C :   -0.064569
   4 C :   -0.202534
   5 H :    0.031203
   6 C :   -0.039379
   7 H :    0.032908
   8 H :    0.031214
   9 C :   -0.037357
  10 H :    0.028199
  11 H :    0.019898
  12 C :   -0.062597
  13 H :    0.026164
  14 H :    0.034687
  15 H :    0.021503
  16 S :    0.386153
  17 C :   -0.173952
  18 C :   -0.075088
  19 C :   -0.056053
  20 C :   -0.203737
  21 H :    0.028055
  22 C :   -0.032264
  23 H :    0.041863
  24 H :    0.022923
  25 C :   -0.048765
  26 H :    0.023857
  27 H :    0.029951
  28 C :   -0.058695
  29 H :    0.023671
  30 H :    0.024515
  31 H :    0.029012
  32 H :    0.035312
  33 H :    0.043677

  Mayer bond orders larger than 0.100000
B(  0-S ,  1-C ) :   1.1276 B(  0-S ,  4-C ) :   1.1649 B(  1-C ,  2-C ) :   1.6012
B(  1-C ,  4-C ) :   0.1006 B(  1-C , 32-H ) :   0.9702 B(  2-C ,  3-C ) :   1.2075
B(  2-C ,  6-C ) :   1.0362 B(  3-C ,  4-C ) :   1.5911 B(  3-C ,  5-H ) :   1.0071
B(  4-C , 20-C ) :   1.0068 B(  6-C ,  7-H ) :   0.9386 B(  6-C ,  8-H ) :   0.9395
B(  6-C ,  9-C ) :   1.0433 B(  9-C , 10-H ) :   0.9592 B(  9-C , 11-H ) :   0.9564
B(  9-C , 12-C ) :   1.0707 B( 12-C , 13-H ) :   0.9776 B( 12-C , 14-H ) :   0.9747
B( 12-C , 15-H ) :   0.9767 B( 16-S , 17-C ) :   1.1261 B( 16-S , 20-C ) :   1.1402
B( 17-C , 18-C ) :   1.6339 B( 17-C , 33-H ) :   0.9606 B( 18-C , 19-C ) :   1.2375
B( 18-C , 21-H ) :   0.9878 B( 19-C , 20-C ) :   1.6022 B( 19-C , 22-C ) :   1.0230
B( 22-C , 23-H ) :   0.9327 B( 22-C , 24-H ) :   0.9275 B( 22-C , 25-C ) :   1.0907
B( 25-C , 26-H ) :   0.9474 B( 25-C , 27-H ) :   0.9533 B( 25-C , 28-C ) :   1.0730
B( 28-C , 29-H ) :   0.9759 B( 28-C , 30-H ) :   0.9743 B( 28-C , 31-H ) :   0.9740

Dispersion correction           -0.014168319
FINAL SINGLE POINT ENERGY     -1339.867691755457

DIPOLE MOMENT
-------------
                                X             Y             Z
Electronic contribution:      9.20369      -4.35779      24.82366
Nuclear contribution   :     -9.57153       4.72510     -25.53999
                        -----------------------------------------
Total Dipole Moment    :     -0.36784       0.36731      -0.71632
                        -----------------------------------------
Magnitude (a.u.)       :      0.88507
Magnitude (Debye)      :      2.24966

Rotational constants in cm-1:     0.019346     0.007982     0.006636
Rotational constants in MHz :   579.974919   239.298144   198.955135

                             ****ORCA TERMINATED NORMALLY****
TOTAL RUN TIME: 0 days 0 hours 0 minutes 21 seconds 457 msec
