                         Program Version 4.2.1 -  RELEASE  -
|  1> ! wB97X-D3 SP def2-SVP
|  2> %pal
|  3> nprocs 24
|  4> end
|  5>
|  6> * xyz 0 1
|  7> S 	 -48.627 	 13.4477 	 26.0032
|  8> C 	 -49.722 	 14.223 	 27.0809
|  9> C 	 -50.8108 	 14.8417 	 26.5328
| 10> C 	 -50.79 	 14.5827 	 25.0766
| 11> C 	 -49.6759 	 13.9089 	 24.6466
| 12> H 	 -51.4791 	 14.9824 	 24.3352
| 13> C 	 -51.9033 	 15.4879 	 27.252
| 14> H 	 -52.349 	 16.1871 	 26.4767
| 15> H 	 -51.6809 	 16.0843 	 28.1218
| 16> C 	 -52.8706 	 14.4031 	 27.6744
| 17> H 	 -52.3856 	 13.711 	 28.4392
| 18> H 	 -53.7499 	 14.7881 	 28.2487
| 19> C 	 -53.5529 	 13.6458 	 26.594
| 20> H 	 -52.8788 	 13.0133 	 26.0292
| 21> H 	 -54.3452 	 13.0306 	 26.9559
| 22> H 	 -54.1652 	 14.2257 	 25.9596
| 23> S 	 -48.9792 	 11.7803 	 23.0717
| 24> C 	 -49.1489 	 11.9202 	 21.3007
| 25> C 	 -49.6537 	 13.133 	 20.9197
| 26> C 	 -49.7341 	 14.0119 	 22.0523
| 27> C 	 -49.4358 	 13.4346 	 23.2816
| 28> H 	 -49.7173 	 13.3428 	 19.8367
| 29> C 	 -50.0083 	 15.5861 	 21.9563
| 30> H 	 -50.3974 	 15.9402 	 22.9368
| 31> H 	 -50.8236 	 15.6495 	 21.1838
| 32> C 	 -48.9492 	 16.5715 	 21.3723
| 33> H 	 -48.9368 	 16.5697 	 20.243
| 34> H 	 -47.9485 	 16.3952 	 21.7894
| 35> C 	 -49.227 	 18.1113 	 21.6018
| 36> H 	 -48.6388 	 18.8033 	 20.9818
| 37> H 	 -49.144 	 18.3623 	 22.6878
| 38> H 	 -50.2535 	 18.3634 	 21.329
| 39> H 	 -49.6512 	 14.1019 	 28.1929
| 40> H 	 -49.0072 	 11.1474 	 20.5221
| 41> *
| 42>
| 43>                          ****END OF INPUT****

CARTESIAN COORDINATES (ANGSTROEM)
---------------------------------
  S    -48.627000   13.447700   26.003200
  C    -49.722000   14.223000   27.080900
  C    -50.810800   14.841700   26.532800
  C    -50.790000   14.582700   25.076600
  C    -49.675900   13.908900   24.646600
  H    -51.479100   14.982400   24.335200
  C    -51.903300   15.487900   27.252000
  H    -52.349000   16.187100   26.476700
  H    -51.680900   16.084300   28.121800
  C    -52.870600   14.403100   27.674400
  H    -52.385600   13.711000   28.439200
  H    -53.749900   14.788100   28.248700
  C    -53.552900   13.645800   26.594000
  H    -52.878800   13.013300   26.029200
  H    -54.345200   13.030600   26.955900
  H    -54.165200   14.225700   25.959600
  S    -48.979200   11.780300   23.071700
  C    -49.148900   11.920200   21.300700
  C    -49.653700   13.133000   20.919700
  C    -49.734100   14.011900   22.052300
  C    -49.435800   13.434600   23.281600
  H    -49.717300   13.342800   19.836700
  C    -50.008300   15.586100   21.956300
  H    -50.397400   15.940200   22.936800
  H    -50.823600   15.649500   21.183800
  C    -48.949200   16.571500   21.372300
  H    -48.936800   16.569700   20.243000
  H    -47.948500   16.395200   21.789400
  C    -49.227000   18.111300   21.601800
  H    -48.638800   18.803300   20.981800
  H    -49.144000   18.362300   22.687800
  H    -50.253500   18.363400   21.329000
  H    -49.651200   14.101900   28.192900
  H    -49.007200   11.147400   20.522100

 Total Charge           Charge          ....    0
 Multiplicity           Mult            ....    1
 Number of Electrons    NEL             ....  134
 Basis Dimension        Dim             ....  322

ORBITAL ENERGIES
----------------

  NO   OCC          E(Eh)            E(eV)
   0   2.0000     -88.967783     -2420.9365
   1   2.0000     -88.967204     -2420.9207
   2   2.0000     -10.331457      -281.1332
   3   2.0000     -10.327040      -281.0131
   4   2.0000     -10.321433      -280.8605
   5   2.0000     -10.312911      -280.6286
   6   2.0000     -10.309850      -280.5453
   7   2.0000     -10.302823      -280.3541
   8   2.0000     -10.301782      -280.3257
   9   2.0000     -10.299221      -280.2561
  10   2.0000     -10.298988      -280.2497
  11   2.0000     -10.294765      -280.1348
  12   2.0000     -10.294610      -280.1306
  13   2.0000     -10.290208      -280.0108
  14   2.0000     -10.282587      -279.8034
  15   2.0000     -10.264431      -279.3094
  16   2.0000      -8.082722      -219.9421
  17   2.0000      -8.081796      -219.9169
  18   2.0000      -6.041328      -164.3929
  19   2.0000      -6.040342      -164.3661
  20   2.0000      -6.037309      -164.2835
  21   2.0000      -6.036367      -164.2579
  22   2.0000      -6.033277      -164.1738
  23   2.0000      -6.032451      -164.1513
  24   2.0000      -1.007456       -27.4143
  25   2.0000      -0.984932       -26.8014
  26   2.0000      -0.923810       -25.1381
  27   2.0000      -0.890720       -24.2377
  28   2.0000      -0.872964       -23.7546
  29   2.0000      -0.851330       -23.1659
  30   2.0000      -0.843141       -22.9430
  31   2.0000      -0.818242       -22.2655
  32   2.0000      -0.785725       -21.3807
  33   2.0000      -0.767555       -20.8862
  34   2.0000      -0.701812       -19.0973
  35   2.0000      -0.700529       -19.0624
  36   2.0000      -0.686005       -18.6671
  37   2.0000      -0.659815       -17.9545
  38   2.0000      -0.636805       -17.3284
  39   2.0000      -0.618589       -16.8327
  40   2.0000      -0.584595       -15.9076
  41   2.0000      -0.576642       -15.6912
  42   2.0000      -0.560560       -15.2536
  43   2.0000      -0.553012       -15.0482
  44   2.0000      -0.546706       -14.8766
  45   2.0000      -0.516119       -14.0443
  46   2.0000      -0.515014       -14.0142
  47   2.0000      -0.508983       -13.8501
  48   2.0000      -0.505604       -13.7582
  49   2.0000      -0.497092       -13.5266
  50   2.0000      -0.487493       -13.2653
  51   2.0000      -0.476775       -12.9737
  52   2.0000      -0.472535       -12.8583
  53   2.0000      -0.464197       -12.6314
  54   2.0000      -0.456982       -12.4351
  55   2.0000      -0.450682       -12.2637
  56   2.0000      -0.445416       -12.1204
  57   2.0000      -0.433744       -11.8028
  58   2.0000      -0.428320       -11.6552
  59   2.0000      -0.426287       -11.5999
  60   2.0000      -0.413121       -11.2416
  61   2.0000      -0.411587       -11.1998
  62   2.0000      -0.406468       -11.0606
  63   2.0000      -0.355761        -9.6807
  64   2.0000      -0.333964        -9.0876
  65   2.0000      -0.327012        -8.8984
  66   2.0000      -0.290373        -7.9014
  67   0.0000       0.028033         0.7628
  68   0.0000       0.076913         2.0929
  69   0.0000       0.103152         2.8069
  70   0.0000       0.112586         3.0636
  71   0.0000       0.132878         3.6158

MULLIKEN ATOMIC CHARGES
-----------------------
   0 S :    0.113448
   1 C :   -0.127610
   2 C :   -0.096655
   3 C :    0.016696
   4 C :   -0.155768
   5 H :    0.027129
   6 C :    0.091199
   7 H :    0.033568
   8 H :    0.031885
   9 C :   -0.109653
  10 H :    0.036580
  11 H :    0.025633
  12 C :   -0.015811
  13 H :    0.047672
  14 H :    0.013619
  15 H :    0.006845
  16 S :    0.102883
  17 C :   -0.105804
  18 C :   -0.035364
  19 C :   -0.061476
  20 C :   -0.115465
  21 H :    0.038910
  22 C :    0.037362
  23 H :    0.028341
  24 H :    0.027150
  25 C :   -0.070399
  26 H :    0.034711
  27 H :    0.043644
  28 C :   -0.089173
  29 H :    0.041633
  30 H :    0.041785
  31 H :    0.019007
  32 H :    0.058484
  33 H :    0.064997
Sum of atomic charges:    0.0000000

LOEWDIN ATOMIC CHARGES
----------------------
   0 S :    0.397777
   1 C :   -0.205937
   2 C :   -0.063537
   3 C :   -0.055151
   4 C :   -0.186863
   5 H :    0.031894
   6 C :   -0.037771
   7 H :    0.040108
   8 H :    0.033972
   9 C :   -0.046405
  10 H :    0.030373
  11 H :    0.025789
  12 C :   -0.066888
  13 H :    0.025972
  14 H :    0.027269
  15 H :    0.020416
  16 S :    0.400536
  17 C :   -0.179203
  18 C :   -0.074737
  19 C :   -0.060400
  20 C :   -0.205243
  21 H :    0.042800
  22 C :   -0.038071
  23 H :    0.028081
  24 H :    0.033356
  25 C :   -0.045328
  26 H :    0.028441
  27 H :    0.024839
  28 C :   -0.073207
  29 H :    0.028652
  30 H :    0.026604
  31 H :    0.019337
  32 H :    0.034690
  33 H :    0.037834

  Mayer bond orders larger than 0.100000
B(  0-S ,  1-C ) :   1.1348 B(  0-S ,  4-C ) :   1.1271 B(  1-C ,  2-C ) :   1.6525
B(  1-C , 32-H ) :   0.9517 B(  2-C ,  3-C ) :   1.2018 B(  2-C ,  6-C ) :   1.0312
B(  3-C ,  4-C ) :   1.6193 B(  3-C ,  5-H ) :   0.9757 B(  4-C , 20-C ) :   1.0349
B(  6-C ,  7-H ) :   0.9368 B(  6-C ,  8-H ) :   0.9367 B(  6-C ,  9-C ) :   1.0690
B(  9-C , 10-H ) :   0.9531 B(  9-C , 11-H ) :   0.9534 B(  9-C , 12-C ) :   1.0950
B( 12-C , 13-H ) :   0.9680 B( 12-C , 14-H ) :   0.9635 B( 12-C , 15-H ) :   0.9658
B( 16-S , 17-C ) :   1.1411 B( 16-S , 20-C ) :   1.1342 B( 17-C , 18-C ) :   1.6466
B( 17-C , 33-H ) :   0.9592 B( 18-C , 19-C ) :   1.2325 B( 18-C , 21-H ) :   0.9836
B( 19-C , 20-C ) :   1.6138 B( 19-C , 22-C ) :   1.0277 B( 22-C , 23-H ) :   0.9413
B( 22-C , 24-H ) :   0.9364 B( 22-C , 25-C ) :   1.0525 B( 25-C , 26-H ) :   0.9603
B( 25-C , 27-H ) :   0.9605 B( 25-C , 28-C ) :   1.0683 B( 28-C , 29-H ) :   0.9772
B( 28-C , 30-H ) :   0.9769 B( 28-C , 31-H ) :   0.9762

Dispersion correction           -0.014246125
FINAL SINGLE POINT ENERGY     -1339.863888659394

DIPOLE MOMENT
-------------
                                X             Y             Z
Electronic contribution:     15.53859     -19.11801       1.33895
Nuclear contribution   :    -16.07935      19.46411      -1.45480
                        -----------------------------------------
Total Dipole Moment    :     -0.54075       0.34609      -0.11585
                        -----------------------------------------
Magnitude (a.u.)       :      0.65239
Magnitude (Debye)      :      1.65825

Rotational constants in cm-1:     0.016744     0.009096     0.007419
Rotational constants in MHz :   501.960641   272.691625   222.414871

                             ****ORCA TERMINATED NORMALLY****
TOTAL RUN TIME: 0 days 0 hours 0 minutes 21 seconds 714 msec
