                         Program Version 4.2.1 -  RELEASE  -
|  1> ! wB97X-D3 SP def2-SVP
|  2> %pal
|  3> nprocs 24
|  4> end
|  5>
|  6> * xyz 0 1
|  7> S 	 -132.93 	 61.205 	 -59.1257
|  8> C 	 -134.135 	 59.9708 	 -59.028
|  9> C 	 -133.728 	 58.7601 	 -59.535
| 10> C 	 -132.35 	 58.7918 	 -59.9453
| 11> C 	 -131.784 	 60.0659 	 -59.8108
| 12> H 	 -131.81 	 57.9235 	 -60.3019
| 13> C 	 -134.539 	 57.4563 	 -59.4725
| 14> H 	 -134.54 	 57.139 	 -58.4587
| 15> H 	 -134.102 	 56.7979 	 -60.15
| 16> C 	 -135.932 	 57.6358 	 -59.9672
| 17> H 	 -136.512 	 58.2647 	 -59.2491
| 18> H 	 -135.93 	 58.2454 	 -60.8842
| 19> C 	 -136.771 	 56.4367 	 -60.1543
| 20> H 	 -137.523 	 56.6309 	 -60.8979
| 21> H 	 -136.274 	 55.5059 	 -60.524
| 22> H 	 -137.313 	 56.142 	 -59.2374
| 23> S 	 -130.204 	 61.4005 	 -61.4772
| 24> C 	 -128.465 	 61.2166 	 -61.2853
| 25> C 	 -128.134 	 60.2959 	 -60.3027
| 26> C 	 -129.273 	 59.7744 	 -59.5989
| 27> C 	 -130.421 	 60.3324 	 -60.109
| 28> H 	 -127.105 	 60.1416 	 -60.2192
| 29> C 	 -129.099 	 58.9119 	 -58.4304
| 30> H 	 -128.302 	 58.1941 	 -58.8117
| 31> H 	 -129.99 	 58.3234 	 -58.2827
| 32> C 	 -128.742 	 59.8048 	 -57.2046
| 33> H 	 -129.634 	 60.4069 	 -56.9212
| 34> H 	 -127.978 	 60.4985 	 -57.5162
| 35> C 	 -128.255 	 59.0652 	 -55.9522
| 36> H 	 -128.035 	 59.8054 	 -55.1456
| 37> H 	 -127.264 	 58.6434 	 -56.1429
| 38> H 	 -128.982 	 58.2583 	 -55.739
| 39> H 	 -135.104 	 60.1906 	 -58.6003
| 40> H 	 -127.734 	 61.7243 	 -61.9326
| 41> *
| 42>
| 43>                          ****END OF INPUT****

CARTESIAN COORDINATES (ANGSTROEM)
---------------------------------
  S    -132.930000   61.205000  -59.125700
  C    -134.135000   59.970800  -59.028000
  C    -133.728000   58.760100  -59.535000
  C    -132.350000   58.791800  -59.945300
  C    -131.784000   60.065900  -59.810800
  H    -131.810000   57.923500  -60.301900
  C    -134.539000   57.456300  -59.472500
  H    -134.540000   57.139000  -58.458700
  H    -134.102000   56.797900  -60.150000
  C    -135.932000   57.635800  -59.967200
  H    -136.512000   58.264700  -59.249100
  H    -135.930000   58.245400  -60.884200
  C    -136.771000   56.436700  -60.154300
  H    -137.523000   56.630900  -60.897900
  H    -136.274000   55.505900  -60.524000
  H    -137.313000   56.142000  -59.237400
  S    -130.204000   61.400500  -61.477200
  C    -128.465000   61.216600  -61.285300
  C    -128.134000   60.295900  -60.302700
  C    -129.273000   59.774400  -59.598900
  C    -130.421000   60.332400  -60.109000
  H    -127.105000   60.141600  -60.219200
  C    -129.099000   58.911900  -58.430400
  H    -128.302000   58.194100  -58.811700
  H    -129.990000   58.323400  -58.282700
  C    -128.742000   59.804800  -57.204600
  H    -129.634000   60.406900  -56.921200
  H    -127.978000   60.498500  -57.516200
  C    -128.255000   59.065200  -55.952200
  H    -128.035000   59.805400  -55.145600
  H    -127.264000   58.643400  -56.142900
  H    -128.982000   58.258300  -55.739000
  H    -135.104000   60.190600  -58.600300
  H    -127.734000   61.724300  -61.932600

 Total Charge           Charge          ....    0
 Multiplicity           Mult            ....    1
 Number of Electrons    NEL             ....  134
 Basis Dimension        Dim             ....  322

ORBITAL ENERGIES
----------------

  NO   OCC          E(Eh)            E(eV)
   0   2.0000     -88.966800     -2420.9097
   1   2.0000     -88.960955     -2420.7506
   2   2.0000     -10.322950      -280.9018
   3   2.0000     -10.316100      -280.7154
   4   2.0000     -10.315587      -280.7014
   5   2.0000     -10.309511      -280.5360
   6   2.0000     -10.299054      -280.2515
   7   2.0000     -10.297891      -280.2199
   8   2.0000     -10.293828      -280.1093
   9   2.0000     -10.292110      -280.0625
  10   2.0000     -10.288117      -279.9539
  11   2.0000     -10.286935      -279.9217
  12   2.0000     -10.282882      -279.8114
  13   2.0000     -10.281032      -279.7611
  14   2.0000     -10.280727      -279.7528
  15   2.0000     -10.275890      -279.6212
  16   2.0000      -8.081719      -219.9148
  17   2.0000      -8.075973      -219.7584
  18   2.0000      -6.040145      -164.3607
  19   2.0000      -6.036145      -164.2519
  20   2.0000      -6.034394      -164.2042
  21   2.0000      -6.032643      -164.1566
  22   2.0000      -6.030572      -164.1002
  23   2.0000      -6.026685      -163.9944
  24   2.0000      -1.007043       -27.4030
  25   2.0000      -0.982301       -26.7298
  26   2.0000      -0.920686       -25.0532
  27   2.0000      -0.909946       -24.7609
  28   2.0000      -0.871383       -23.7115
  29   2.0000      -0.853340       -23.2206
  30   2.0000      -0.849511       -23.1164
  31   2.0000      -0.811577       -22.0841
  32   2.0000      -0.785325       -21.3698
  33   2.0000      -0.768680       -20.9168
  34   2.0000      -0.705047       -19.1853
  35   2.0000      -0.696828       -18.9617
  36   2.0000      -0.688133       -18.7250
  37   2.0000      -0.664232       -18.0747
  38   2.0000      -0.642675       -17.4881
  39   2.0000      -0.614757       -16.7284
  40   2.0000      -0.593814       -16.1585
  41   2.0000      -0.580770       -15.8036
  42   2.0000      -0.565097       -15.3771
  43   2.0000      -0.554335       -15.0842
  44   2.0000      -0.530662       -14.4400
  45   2.0000      -0.523929       -14.2568
  46   2.0000      -0.520213       -14.1557
  47   2.0000      -0.517596       -14.0845
  48   2.0000      -0.506327       -13.7778
  49   2.0000      -0.500507       -13.6195
  50   2.0000      -0.491427       -13.3724
  51   2.0000      -0.477964       -13.0061
  52   2.0000      -0.471638       -12.8339
  53   2.0000      -0.458893       -12.4871
  54   2.0000      -0.454806       -12.3759
  55   2.0000      -0.450340       -12.2544
  56   2.0000      -0.443870       -12.0783
  57   2.0000      -0.434333       -11.8188
  58   2.0000      -0.429755       -11.6942
  59   2.0000      -0.424584       -11.5535
  60   2.0000      -0.423604       -11.5268
  61   2.0000      -0.418567       -11.3898
  62   2.0000      -0.410190       -11.1618
  63   2.0000      -0.337882        -9.1942
  64   2.0000      -0.329131        -8.9561
  65   2.0000      -0.326690        -8.8897
  66   2.0000      -0.294589        -8.0162
  67   0.0000       0.039869         1.0849
  68   0.0000       0.066112         1.7990
  69   0.0000       0.113671         3.0931
  70   0.0000       0.122913         3.3446
  71   0.0000       0.131492         3.5781

MULLIKEN ATOMIC CHARGES
-----------------------
   0 S :    0.127445
   1 C :   -0.140786
   2 C :   -0.105937
   3 C :    0.037702
   4 C :   -0.173839
   5 H :    0.015411
   6 C :    0.178189
   7 H :    0.037710
   8 H :   -0.003357
   9 C :   -0.141155
  10 H :    0.024489
  11 H :    0.033327
  12 C :   -0.030660
  13 H :    0.026760
  14 H :    0.025481
  15 H :    0.031166
  16 S :    0.106846
  17 C :   -0.104455
  18 C :   -0.037949
  19 C :   -0.015011
  20 C :   -0.190442
  21 H :   -0.003697
  22 C :    0.092446
  23 H :    0.036770
  24 H :    0.014477
  25 C :   -0.088593
  26 H :    0.040872
  27 H :    0.023995
  28 C :   -0.033433
  29 H :    0.042892
  30 H :    0.023454
  31 H :    0.042772
  32 H :    0.047316
  33 H :    0.059796
Sum of atomic charges:   -0.0000000

LOEWDIN ATOMIC CHARGES
----------------------
   0 S :    0.416342
   1 C :   -0.203424
   2 C :   -0.061625
   3 C :   -0.055644
   4 C :   -0.206817
   5 H :    0.031745
   6 C :   -0.017241
   7 H :    0.032642
   8 H :    0.020850
   9 C :   -0.054486
  10 H :    0.025839
  11 H :    0.027820
  12 C :   -0.071060
  13 H :    0.027872
  14 H :    0.025610
  15 H :    0.027111
  16 S :    0.397450
  17 C :   -0.182179
  18 C :   -0.066279
  19 C :   -0.052962
  20 C :   -0.201943
  21 H :    0.022805
  22 C :   -0.035159
  23 H :    0.041605
  24 H :    0.025969
  25 C :   -0.036869
  26 H :    0.032485
  27 H :    0.021505
  28 C :   -0.070482
  29 H :    0.033140
  30 H :    0.022067
  31 H :    0.029081
  32 H :    0.023975
  33 H :    0.030258

  Mayer bond orders larger than 0.100000
B(  0-S ,  1-C ) :   1.1443 B(  0-S ,  4-C ) :   1.1563 B(  1-C ,  2-C ) :   1.5988
B(  1-C , 32-H ) :   0.9713 B(  2-C ,  3-C ) :   1.2571 B(  2-C ,  6-C ) :   1.0150
B(  3-C ,  4-C ) :   1.5548 B(  3-C ,  5-H ) :   0.9958 B(  4-C , 20-C ) :   1.0385
B(  6-C ,  7-H ) :   0.9333 B(  6-C ,  8-H ) :   0.9295 B(  6-C ,  9-C ) :   1.0786
B(  9-C , 10-H ) :   0.9445 B(  9-C , 11-H ) :   0.9631 B(  9-C , 12-C ) :   1.0931
B( 12-C , 13-H ) :   0.9710 B( 12-C , 14-H ) :   0.9720 B( 12-C , 15-H ) :   0.9724
B( 16-S , 17-C ) :   1.1381 B( 16-S , 20-C ) :   1.1482 B( 17-C , 18-C ) :   1.6479
B( 17-C , 33-H ) :   0.9639 B( 18-C , 19-C ) :   1.1795 B( 18-C , 21-H ) :   0.9998
B( 19-C , 20-C ) :   1.6166 B( 19-C , 22-C ) :   1.0574 B( 22-C , 23-H ) :   0.9309
B( 22-C , 24-H ) :   0.9152 B( 22-C , 25-C ) :   1.0573 B( 25-C , 26-H ) :   0.9512
B( 25-C , 27-H ) :   0.9599 B( 25-C , 28-C ) :   1.0850 B( 28-C , 29-H ) :   0.9719
B( 28-C , 30-H ) :   0.9752 B( 28-C , 31-H ) :   0.9728

Dispersion correction           -0.013913235
FINAL SINGLE POINT ENERGY     -1339.881434115554

DIPOLE MOMENT
-------------
                                X             Y             Z
Electronic contribution:      5.47557      19.55371     -11.93222
Nuclear contribution   :     -5.40842     -20.06610      12.15359
                        -----------------------------------------
Total Dipole Moment    :      0.06715      -0.51238       0.22137
                        -----------------------------------------
Magnitude (a.u.)       :      0.56218
Magnitude (Debye)      :      1.42896

Rotational constants in cm-1:     0.020268     0.007427     0.006379
Rotational constants in MHz :   607.625309   222.668402   191.246247

                             ****ORCA TERMINATED NORMALLY****
TOTAL RUN TIME: 0 days 0 hours 0 minutes 21 seconds 167 msec
