                         Program Version 4.2.1 -  RELEASE  -
|  1> ! wB97X-D3 SP def2-SVP
|  2> %pal
|  3> nprocs 24
|  4> end
|  5>
|  6> * xyz 0 1
|  7> S 	 -115.139 	 48.5168 	 -120.869
|  8> C 	 -114.323 	 47.0752 	 -120.241
|  9> C 	 -113.093 	 47.3425 	 -119.613
| 10> C 	 -113.028 	 48.7838 	 -119.426
| 11> C 	 -114.035 	 49.5426 	 -120.073
| 12> H 	 -112.226 	 49.3034 	 -118.879
| 13> C 	 -112.213 	 46.3663 	 -118.811
| 14> H 	 -112.462 	 45.3425 	 -119.02
| 15> H 	 -112.325 	 46.6078 	 -117.81
| 16> C 	 -110.717 	 46.4489 	 -119.251
| 17> H 	 -110.441 	 47.4834 	 -119.284
| 18> H 	 -110.1 	 45.9068 	 -118.563
| 19> C 	 -110.397 	 45.9106 	 -120.641
| 20> H 	 -110.96 	 46.5774 	 -121.376
| 21> H 	 -109.35 	 45.898 	 -120.901
| 22> H 	 -110.971 	 44.9499 	 -120.794
| 23> S 	 -114.026 	 51.8647 	 -121.619
| 24> C 	 -113.848 	 53.4539 	 -120.919
| 25> C 	 -113.863 	 53.375 	 -119.541
| 26> C 	 -113.99 	 52.0106 	 -119.071
| 27> C 	 -114.042 	 51.0485 	 -120.082
| 28> H 	 -113.818 	 54.2143 	 -118.901
| 29> C 	 -113.969 	 51.8365 	 -117.539
| 30> H 	 -114.14 	 52.8245 	 -117.054
| 31> H 	 -113.001 	 51.5758 	 -117.158
| 32> C 	 -114.918 	 50.784 	 -116.923
| 33> H 	 -114.645 	 50.6659 	 -115.883
| 34> H 	 -114.7 	 49.8616 	 -117.389
| 35> C 	 -116.375 	 51.2295 	 -117.152
| 36> H 	 -116.464 	 51.4297 	 -118.215
| 37> H 	 -116.483 	 52.1227 	 -116.647
| 38> H 	 -117.009 	 50.4828 	 -116.72
| 39> H 	 -114.652 	 46.0602 	 -120.277
| 40> H 	 -113.676 	 54.4267 	 -121.397
| 41> *
| 42>
| 43>                          ****END OF INPUT****

CARTESIAN COORDINATES (ANGSTROEM)
---------------------------------
  S    -115.139000   48.516800  -120.869000
  C    -114.323000   47.075200  -120.241000
  C    -113.093000   47.342500  -119.613000
  C    -113.028000   48.783800  -119.426000
  C    -114.035000   49.542600  -120.073000
  H    -112.226000   49.303400  -118.879000
  C    -112.213000   46.366300  -118.811000
  H    -112.462000   45.342500  -119.020000
  H    -112.325000   46.607800  -117.810000
  C    -110.717000   46.448900  -119.251000
  H    -110.441000   47.483400  -119.284000
  H    -110.100000   45.906800  -118.563000
  C    -110.397000   45.910600  -120.641000
  H    -110.960000   46.577400  -121.376000
  H    -109.350000   45.898000  -120.901000
  H    -110.971000   44.949900  -120.794000
  S    -114.026000   51.864700  -121.619000
  C    -113.848000   53.453900  -120.919000
  C    -113.863000   53.375000  -119.541000
  C    -113.990000   52.010600  -119.071000
  C    -114.042000   51.048500  -120.082000
  H    -113.818000   54.214300  -118.901000
  C    -113.969000   51.836500  -117.539000
  H    -114.140000   52.824500  -117.054000
  H    -113.001000   51.575800  -117.158000
  C    -114.918000   50.784000  -116.923000
  H    -114.645000   50.665900  -115.883000
  H    -114.700000   49.861600  -117.389000
  C    -116.375000   51.229500  -117.152000
  H    -116.464000   51.429700  -118.215000
  H    -116.483000   52.122700  -116.647000
  H    -117.009000   50.482800  -116.720000
  H    -114.652000   46.060200  -120.277000
  H    -113.676000   54.426700  -121.397000

 Total Charge           Charge          ....    0
 Multiplicity           Mult            ....    1
 Number of Electrons    NEL             ....  134
 Basis Dimension        Dim             ....  322

ORBITAL ENERGIES
----------------

  NO   OCC          E(Eh)            E(eV)
   0   2.0000     -88.975978     -2421.1595
   1   2.0000     -88.966755     -2420.9085
   2   2.0000     -10.337068      -281.2859
   3   2.0000     -10.334574      -281.2181
   4   2.0000     -10.320092      -280.8240
   5   2.0000     -10.319568      -280.8097
   6   2.0000     -10.311017      -280.5770
   7   2.0000     -10.307281      -280.4754
   8   2.0000     -10.301875      -280.3283
   9   2.0000     -10.296247      -280.1751
  10   2.0000     -10.291849      -280.0555
  11   2.0000     -10.288942      -279.9763
  12   2.0000     -10.283718      -279.8342
  13   2.0000     -10.282614      -279.8041
  14   2.0000     -10.272270      -279.5227
  15   2.0000     -10.260039      -279.1899
  16   2.0000      -8.090496      -220.1536
  17   2.0000      -8.081622      -219.9121
  18   2.0000      -6.049049      -164.6030
  19   2.0000      -6.044943      -164.4913
  20   2.0000      -6.041310      -164.3924
  21   2.0000      -6.040290      -164.3646
  22   2.0000      -6.035969      -164.2471
  23   2.0000      -6.032331      -164.1481
  24   2.0000      -1.005058       -27.3490
  25   2.0000      -0.984542       -26.7907
  26   2.0000      -0.914958       -24.8973
  27   2.0000      -0.904863       -24.6226
  28   2.0000      -0.866409       -23.5762
  29   2.0000      -0.847036       -23.0490
  30   2.0000      -0.843527       -22.9535
  31   2.0000      -0.810456       -22.0536
  32   2.0000      -0.785877       -21.3848
  33   2.0000      -0.774169       -21.0662
  34   2.0000      -0.708222       -19.2717
  35   2.0000      -0.695910       -18.9367
  36   2.0000      -0.683803       -18.6072
  37   2.0000      -0.662521       -18.0281
  38   2.0000      -0.638779       -17.3821
  39   2.0000      -0.620648       -16.8887
  40   2.0000      -0.592291       -16.1171
  41   2.0000      -0.574496       -15.6328
  42   2.0000      -0.565776       -15.3955
  43   2.0000      -0.550534       -14.9808
  44   2.0000      -0.544061       -14.8046
  45   2.0000      -0.541459       -14.7339
  46   2.0000      -0.514874       -14.0104
  47   2.0000      -0.509800       -13.8724
  48   2.0000      -0.504721       -13.7342
  49   2.0000      -0.493227       -13.4214
  50   2.0000      -0.482141       -13.1197
  51   2.0000      -0.477600       -12.9961
  52   2.0000      -0.473931       -12.8963
  53   2.0000      -0.471409       -12.8277
  54   2.0000      -0.459322       -12.4988
  55   2.0000      -0.451570       -12.2878
  56   2.0000      -0.443099       -12.0573
  57   2.0000      -0.436994       -11.8912
  58   2.0000      -0.423065       -11.5122
  59   2.0000      -0.420616       -11.4456
  60   2.0000      -0.418490       -11.3877
  61   2.0000      -0.417506       -11.3609
  62   2.0000      -0.413815       -11.2605
  63   2.0000      -0.345939        -9.4135
  64   2.0000      -0.335639        -9.1332
  65   2.0000      -0.326913        -8.8957
  66   2.0000      -0.295554        -8.0424
  67   0.0000       0.033974         0.9245
  68   0.0000       0.062785         1.7085
  69   0.0000       0.108934         2.9643
  70   0.0000       0.113886         3.0990
  71   0.0000       0.133991         3.6461

MULLIKEN ATOMIC CHARGES
-----------------------
   0 S :    0.139717
   1 C :   -0.110298
   2 C :   -0.102476
   3 C :    0.004034
   4 C :   -0.151371
   5 H :    0.025818
   6 C :    0.108834
   7 H :    0.013178
   8 H :    0.033405
   9 C :   -0.075128
  10 H :    0.024090
  11 H :    0.026915
  12 C :   -0.084578
  13 H :    0.040256
  14 H :    0.051872
  15 H :    0.027063
  16 S :    0.106026
  17 C :   -0.086280
  18 C :   -0.028716
  19 C :   -0.048706
  20 C :   -0.152812
  21 H :    0.008188
  22 C :    0.029442
  23 H :    0.013748
  24 H :    0.024872
  25 C :   -0.065405
  26 H :    0.016441
  27 H :    0.024990
  28 C :    0.010309
  29 H :    0.040409
  30 H :    0.000964
  31 H :    0.032744
  32 H :    0.037699
  33 H :    0.064760
Sum of atomic charges:   -0.0000000

LOEWDIN ATOMIC CHARGES
----------------------
   0 S :    0.428546
   1 C :   -0.189385
   2 C :   -0.058803
   3 C :   -0.063077
   4 C :   -0.218188
   5 H :    0.030759
   6 C :   -0.011653
   7 H :    0.025921
   8 H :    0.027291
   9 C :   -0.039093
  10 H :    0.019389
  11 H :    0.019172
  12 C :   -0.072748
  13 H :    0.033253
  14 H :    0.026948
  15 H :    0.026324
  16 S :    0.414375
  17 C :   -0.191698
  18 C :   -0.067391
  19 C :   -0.059095
  20 C :   -0.204628
  21 H :    0.024802
  22 C :   -0.033137
  23 H :    0.028360
  24 H :    0.025862
  25 C :   -0.034851
  26 H :    0.019872
  27 H :    0.015279
  28 C :   -0.050657
  29 H :    0.029719
  30 H :    0.012032
  31 H :    0.023724
  32 H :    0.023462
  33 H :    0.039312

  Mayer bond orders larger than 0.100000
B(  0-S ,  1-C ) :   1.1486 B(  0-S ,  4-C ) :   1.1592 B(  1-C ,  2-C ) :   1.6014
B(  1-C , 32-H ) :   0.9668 B(  2-C ,  3-C ) :   1.2386 B(  2-C ,  6-C ) :   1.0249
B(  3-C ,  4-C ) :   1.5682 B(  3-C ,  5-H ) :   0.9831 B(  4-C , 20-C ) :   1.0147
B(  6-C ,  7-H ) :   0.9434 B(  6-C ,  8-H ) :   0.9466 B(  6-C ,  9-C ) :   1.0626
B(  9-C , 10-H ) :   0.9594 B(  9-C , 11-H ) :   0.9576 B(  9-C , 12-C ) :   1.0754
B( 12-C , 13-H ) :   0.9727 B( 12-C , 14-H ) :   0.9748 B( 12-C , 15-H ) :   0.9726
B( 16-S , 17-C ) :   1.1586 B( 16-S , 20-C ) :   1.1403 B( 17-C , 18-C ) :   1.6039
B( 17-C , 33-H ) :   0.9636 B( 18-C , 19-C ) :   1.2544 B( 18-C , 21-H ) :   0.9939
B( 19-C , 20-C ) :   1.5948 B( 19-C , 22-C ) :   1.0287 B( 22-C , 23-H ) :   0.9424
B( 22-C , 24-H ) :   0.9339 B( 22-C , 25-C ) :   1.0799 B( 25-C , 26-H ) :   0.9514
B( 25-C , 27-H ) :   0.9515 B( 25-C , 28-C ) :   1.0719 B( 28-C , 29-H ) :   0.9755
B( 28-C , 30-H ) :   0.9743 B( 28-C , 31-H ) :   0.9748

Dispersion correction           -0.015087794
FINAL SINGLE POINT ENERGY     -1339.867643667098

DIPOLE MOMENT
-------------
                                X             Y             Z
Electronic contribution:     -9.03599       9.28445     -16.83685
Nuclear contribution   :      9.42920      -9.38299      17.43905
                        -----------------------------------------
Total Dipole Moment    :      0.39321      -0.09854       0.60220
                        -----------------------------------------
Magnitude (a.u.)       :      0.72593
Magnitude (Debye)      :      1.84517

Rotational constants in cm-1:     0.019720     0.008372     0.007623
Rotational constants in MHz :   591.193334   250.990692   228.532514

                             ****ORCA TERMINATED NORMALLY****
TOTAL RUN TIME: 0 days 0 hours 0 minutes 22 seconds 61 msec
