                         Program Version 4.2.1 -  RELEASE  -
|  1> ! wB97X-D3 SP def2-SVP
|  2> %pal
|  3> nprocs 24
|  4> end
|  5>
|  6> * xyz 0 1
|  7> S 	 -95.3476 	 11.7998 	 -119.084
|  8> C 	 -94.6819 	 11.7712 	 -117.449
|  9> C 	 -95.3078 	 12.6591 	 -116.571
| 10> C 	 -96.3965 	 13.2946 	 -117.175
| 11> C 	 -96.6694 	 12.7289 	 -118.454
| 12> H 	 -97.0998 	 14.001 	 -116.791
| 13> C 	 -94.8531 	 13.1144 	 -115.183
| 14> H 	 -94.5057 	 14.153 	 -115.128
| 15> H 	 -93.9596 	 12.5045 	 -114.987
| 16> C 	 -95.829 	 12.9875 	 -114.099
| 17> H 	 -95.4823 	 13.5651 	 -113.278
| 18> H 	 -96.7948 	 13.4615 	 -114.324
| 19> C 	 -96.2299 	 11.5876 	 -113.595
| 20> H 	 -95.9548 	 10.9023 	 -114.414
| 21> H 	 -95.6024 	 11.2085 	 -112.709
| 22> H 	 -97.2647 	 11.5217 	 -113.402
| 23> S 	 -97.3946 	 14.1994 	 -120.61
| 24> C 	 -99.0682 	 14.4388 	 -120.933
| 25> C 	 -99.9266 	 13.8572 	 -120.077
| 26> C 	 -99.1933 	 13.0128 	 -119.187
| 27> C 	 -97.8035 	 13.1369 	 -119.286
| 28> H 	 -101.001 	 14.0027 	 -120.24
| 29> C 	 -99.9341 	 12.3005 	 -118.039
| 30> H 	 -99.1611 	 12.0638 	 -117.293
| 31> H 	 -100.364 	 11.354 	 -118.257
| 32> C 	 -101.091 	 13.0791 	 -117.35
| 33> H 	 -102.01 	 12.7352 	 -117.769
| 34> H 	 -101.021 	 14.181 	 -117.354
| 35> C 	 -101.037 	 12.6621 	 -115.883
| 36> H 	 -100.042 	 12.7732 	 -115.388
| 37> H 	 -101.507 	 11.6621 	 -115.851
| 38> H 	 -101.685 	 13.3206 	 -115.35
| 39> H 	 -93.7017 	 11.4774 	 -117.187
| 40> H 	 -99.3441 	 15.0671 	 -121.825
| 41> *
| 42>
| 43>                          ****END OF INPUT****

CARTESIAN COORDINATES (ANGSTROEM)
---------------------------------
  S    -95.347600   11.799800  -119.084000
  C    -94.681900   11.771200  -117.449000
  C    -95.307800   12.659100  -116.571000
  C    -96.396500   13.294600  -117.175000
  C    -96.669400   12.728900  -118.454000
  H    -97.099800   14.001000  -116.791000
  C    -94.853100   13.114400  -115.183000
  H    -94.505700   14.153000  -115.128000
  H    -93.959600   12.504500  -114.987000
  C    -95.829000   12.987500  -114.099000
  H    -95.482300   13.565100  -113.278000
  H    -96.794800   13.461500  -114.324000
  C    -96.229900   11.587600  -113.595000
  H    -95.954800   10.902300  -114.414000
  H    -95.602400   11.208500  -112.709000
  H    -97.264700   11.521700  -113.402000
  S    -97.394600   14.199400  -120.610000
  C    -99.068200   14.438800  -120.933000
  C    -99.926600   13.857200  -120.077000
  C    -99.193300   13.012800  -119.187000
  C    -97.803500   13.136900  -119.286000
  H    -101.001000   14.002700  -120.240000
  C    -99.934100   12.300500  -118.039000
  H    -99.161100   12.063800  -117.293000
  H    -100.364000   11.354000  -118.257000
  C    -101.091000   13.079100  -117.350000
  H    -102.010000   12.735200  -117.769000
  H    -101.021000   14.181000  -117.354000
  C    -101.037000   12.662100  -115.883000
  H    -100.042000   12.773200  -115.388000
  H    -101.507000   11.662100  -115.851000
  H    -101.685000   13.320600  -115.350000
  H    -93.701700   11.477400  -117.187000
  H    -99.344100   15.067100  -121.825000

 Total Charge           Charge          ....    0
 Multiplicity           Mult            ....    1
 Number of Electrons    NEL             ....  134
 Basis Dimension        Dim             ....  322

ORBITAL ENERGIES
----------------

  NO   OCC          E(Eh)            E(eV)
   0   2.0000     -88.974108     -2421.1086
   1   2.0000     -88.960358     -2420.7344
   2   2.0000     -10.330331      -281.1026
   3   2.0000     -10.322670      -280.8941
   4   2.0000     -10.313476      -280.6440
   5   2.0000     -10.311991      -280.6036
   6   2.0000     -10.306417      -280.4519
   7   2.0000     -10.301250      -280.3113
   8   2.0000     -10.292614      -280.0763
   9   2.0000     -10.292504      -280.0733
  10   2.0000     -10.290704      -280.0243
  11   2.0000     -10.285119      -279.8723
  12   2.0000     -10.284524      -279.8561
  13   2.0000     -10.279134      -279.7095
  14   2.0000     -10.277591      -279.6675
  15   2.0000     -10.276676      -279.6426
  16   2.0000      -8.088363      -220.0956
  17   2.0000      -8.076380      -219.7695
  18   2.0000      -6.046665      -164.5381
  19   2.0000      -6.043198      -164.4438
  20   2.0000      -6.039117      -164.3327
  21   2.0000      -6.034636      -164.2108
  22   2.0000      -6.030838      -164.1075
  23   2.0000      -6.027194      -164.0083
  24   2.0000      -1.008214       -27.4349
  25   2.0000      -0.986575       -26.8461
  26   2.0000      -0.919866       -25.0308
  27   2.0000      -0.908996       -24.7350
  28   2.0000      -0.869048       -23.6480
  29   2.0000      -0.851212       -23.1627
  30   2.0000      -0.848687       -23.0939
  31   2.0000      -0.810766       -22.0621
  32   2.0000      -0.786359       -21.3979
  33   2.0000      -0.768566       -20.9137
  34   2.0000      -0.706344       -19.2206
  35   2.0000      -0.695115       -18.9151
  36   2.0000      -0.692001       -18.8303
  37   2.0000      -0.650781       -17.7086
  38   2.0000      -0.639387       -17.3986
  39   2.0000      -0.622654       -16.9433
  40   2.0000      -0.601753       -16.3745
  41   2.0000      -0.573116       -15.5953
  42   2.0000      -0.568286       -15.4639
  43   2.0000      -0.557622       -15.1737
  44   2.0000      -0.537377       -14.6228
  45   2.0000      -0.523094       -14.2341
  46   2.0000      -0.519116       -14.1259
  47   2.0000      -0.507933       -13.8216
  48   2.0000      -0.502051       -13.6615
  49   2.0000      -0.495238       -13.4761
  50   2.0000      -0.485540       -13.2122
  51   2.0000      -0.475309       -12.9338
  52   2.0000      -0.469308       -12.7705
  53   2.0000      -0.461819       -12.5667
  54   2.0000      -0.456449       -12.4206
  55   2.0000      -0.454764       -12.3747
  56   2.0000      -0.445344       -12.1184
  57   2.0000      -0.443924       -12.0798
  58   2.0000      -0.430607       -11.7174
  59   2.0000      -0.427953       -11.6452
  60   2.0000      -0.418857       -11.3977
  61   2.0000      -0.412306       -11.2194
  62   2.0000      -0.408920       -11.1273
  63   2.0000      -0.339227        -9.2308
  64   2.0000      -0.334746        -9.1089
  65   2.0000      -0.322908        -8.7868
  66   2.0000      -0.297478        -8.0948
  67   0.0000       0.032166         0.8753
  68   0.0000       0.063027         1.7151
  69   0.0000       0.103803         2.8246
  70   0.0000       0.118609         3.2275
  71   0.0000       0.125000         3.4014

MULLIKEN ATOMIC CHARGES
-----------------------
   0 S :    0.132393
   1 C :   -0.075618
   2 C :   -0.104630
   3 C :    0.049223
   4 C :   -0.185419
   5 H :    0.013374
   6 C :    0.092737
   7 H :    0.042358
   8 H :    0.009638
   9 C :   -0.080481
  10 H :    0.016830
  11 H :    0.021632
  12 C :   -0.054446
  13 H :    0.030503
  14 H :    0.040705
  15 H :    0.030009
  16 S :    0.103421
  17 C :   -0.108344
  18 C :   -0.033609
  19 C :   -0.012519
  20 C :   -0.179139
  21 H :    0.033439
  22 C :    0.063923
  23 H :    0.022592
  24 H :    0.022040
  25 C :   -0.089316
  26 H :    0.026643
  27 H :    0.040780
  28 C :   -0.065604
  29 H :    0.047800
  30 H :    0.036907
  31 H :    0.016512
  32 H :    0.027127
  33 H :    0.068538
Sum of atomic charges:    0.0000000

LOEWDIN ATOMIC CHARGES
----------------------
   0 S :    0.421856
   1 C :   -0.197605
   2 C :   -0.061115
   3 C :   -0.050593
   4 C :   -0.200986
   5 H :    0.028509
   6 C :   -0.032069
   7 H :    0.041445
   8 H :    0.029062
   9 C :   -0.050838
  10 H :    0.021463
  11 H :    0.024629
  12 C :   -0.067663
  13 H :    0.028292
  14 H :    0.033151
  15 H :    0.019284
  16 S :    0.410220
  17 C :   -0.189031
  18 C :   -0.081776
  19 C :   -0.048961
  20 C :   -0.212582
  21 H :    0.041793
  22 C :   -0.030512
  23 H :    0.028025
  24 H :    0.027749
  25 C :   -0.039095
  26 H :    0.020429
  27 H :    0.024439
  28 C :   -0.064199
  29 H :    0.029430
  30 H :    0.029529
  31 H :    0.017107
  32 H :    0.016645
  33 H :    0.033967

  Mayer bond orders larger than 0.100000
B(  0-S ,  1-C ) :   1.1385 B(  0-S ,  4-C ) :   1.1791 B(  1-C ,  2-C ) :   1.6023
B(  1-C ,  4-C ) :   0.1065 B(  1-C , 32-H ) :   0.9590 B(  2-C ,  3-C ) :   1.2571
B(  2-C ,  6-C ) :   1.0170 B(  3-C ,  4-C ) :   1.5358 B(  3-C ,  5-H ) :   0.9974
B(  4-C , 20-C ) :   1.0196 B(  6-C ,  7-H ) :   0.9383 B(  6-C ,  8-H ) :   0.9349
B(  6-C ,  9-C ) :   1.0909 B(  9-C , 10-H ) :   0.9503 B(  9-C , 11-H ) :   0.9575
B(  9-C , 12-C ) :   1.0616 B( 12-C , 13-H ) :   0.9795 B( 12-C , 14-H ) :   0.9752
B( 12-C , 15-H ) :   0.9788 B( 16-S , 17-C ) :   1.1667 B( 16-S , 20-C ) :   1.1460
B( 17-C , 18-C ) :   1.6300 B( 17-C , 33-H ) :   0.9555 B( 18-C , 19-C ) :   1.2157
B( 18-C , 21-H ) :   0.9926 B( 19-C , 20-C ) :   1.6239 B( 19-C , 22-C ) :   1.0368
B( 22-C , 23-H ) :   0.9524 B( 22-C , 24-H ) :   0.9267 B( 22-C , 25-C ) :   1.0495
B( 25-C , 26-H ) :   0.9526 B( 25-C , 27-H ) :   0.9662 B( 25-C , 28-C ) :   1.0886
B( 28-C , 29-H ) :   0.9754 B( 28-C , 30-H ) :   0.9755 B( 28-C , 31-H ) :   0.9732

Dispersion correction           -0.014380458
FINAL SINGLE POINT ENERGY     -1339.854005705911

DIPOLE MOMENT
-------------
                                X             Y             Z
Electronic contribution:     12.16553       2.71687     -28.82283
Nuclear contribution   :    -12.50206      -2.41413      29.27622
                        -----------------------------------------
Total Dipole Moment    :     -0.33653       0.30274       0.45339
                        -----------------------------------------
Magnitude (a.u.)       :      0.64068
Magnitude (Debye)      :      1.62848

Rotational constants in cm-1:     0.016526     0.010211     0.007014
Rotational constants in MHz :   495.448802   306.113017   210.275973

                             ****ORCA TERMINATED NORMALLY****
TOTAL RUN TIME: 0 days 0 hours 0 minutes 22 seconds 245 msec
