                         Program Version 4.2.1 -  RELEASE  -
|  1> ! wB97X-D3 SP def2-SVP
|  2> %pal
|  3> nprocs 24
|  4> end
|  5>
|  6> * xyz 0 1
|  7> S 	 -111.484 	 59.0434 	 -20.2792
|  8> C 	 -111.439 	 60.4299 	 -19.3085
|  9> C 	 -110.259 	 60.5932 	 -18.6472
| 10> C 	 -109.275 	 59.6079 	 -18.9924
| 11> C 	 -109.75 	 58.8139 	 -19.9702
| 12> H 	 -108.25 	 59.4358 	 -18.6134
| 13> C 	 -109.865 	 61.6595 	 -17.6993
| 14> H 	 -109.398 	 61.3179 	 -16.8139
| 15> H 	 -110.818 	 62.1647 	 -17.4038
| 16> C 	 -108.901 	 62.728 	 -18.3228
| 17> H 	 -108.149 	 62.239 	 -18.8995
| 18> H 	 -109.36 	 63.3253 	 -19.0919
| 19> C 	 -108.232 	 63.5923 	 -17.2861
| 20> H 	 -107.739 	 62.9825 	 -16.4496
| 21> H 	 -107.473 	 64.2361 	 -17.6827
| 22> H 	 -108.906 	 64.235 	 -16.6887
| 23> S 	 -109.486 	 56.0863 	 -20.6083
| 24> C 	 -108.118 	 55.5471 	 -21.5211
| 25> C 	 -107.293 	 56.6374 	 -21.8071
| 26> C 	 -107.814 	 57.8643 	 -21.3333
| 27> C 	 -108.977 	 57.798 	 -20.652
| 28> H 	 -106.357 	 56.541 	 -22.3906
| 29> C 	 -107.074 	 59.1457 	 -21.5002
| 30> H 	 -106.707 	 59.3322 	 -20.4511
| 31> H 	 -107.804 	 60.016 	 -21.6435
| 32> C 	 -106.155 	 59.4341 	 -22.6875
| 33> H 	 -106.706 	 59.3455 	 -23.6716
| 34> H 	 -105.35 	 58.6734 	 -22.7471
| 35> C 	 -105.532 	 60.8477 	 -22.7174
| 36> H 	 -106.467 	 61.5152 	 -22.8798
| 37> H 	 -104.907 	 60.9665 	 -23.5423
| 38> H 	 -105.041 	 61.1699 	 -21.8269
| 39> H 	 -112.325 	 61.0499 	 -19.236
| 40> H 	 -107.747 	 54.6322 	 -21.7758
| 41> *
| 42>
| 43>                          ****END OF INPUT****

CARTESIAN COORDINATES (ANGSTROEM)
---------------------------------
  S    -111.484000   59.043400  -20.279200
  C    -111.439000   60.429900  -19.308500
  C    -110.259000   60.593200  -18.647200
  C    -109.275000   59.607900  -18.992400
  C    -109.750000   58.813900  -19.970200
  H    -108.250000   59.435800  -18.613400
  C    -109.865000   61.659500  -17.699300
  H    -109.398000   61.317900  -16.813900
  H    -110.818000   62.164700  -17.403800
  C    -108.901000   62.728000  -18.322800
  H    -108.149000   62.239000  -18.899500
  H    -109.360000   63.325300  -19.091900
  C    -108.232000   63.592300  -17.286100
  H    -107.739000   62.982500  -16.449600
  H    -107.473000   64.236100  -17.682700
  H    -108.906000   64.235000  -16.688700
  S    -109.486000   56.086300  -20.608300
  C    -108.118000   55.547100  -21.521100
  C    -107.293000   56.637400  -21.807100
  C    -107.814000   57.864300  -21.333300
  C    -108.977000   57.798000  -20.652000
  H    -106.357000   56.541000  -22.390600
  C    -107.074000   59.145700  -21.500200
  H    -106.707000   59.332200  -20.451100
  H    -107.804000   60.016000  -21.643500
  C    -106.155000   59.434100  -22.687500
  H    -106.706000   59.345500  -23.671600
  H    -105.350000   58.673400  -22.747100
  C    -105.532000   60.847700  -22.717400
  H    -106.467000   61.515200  -22.879800
  H    -104.907000   60.966500  -23.542300
  H    -105.041000   61.169900  -21.826900
  H    -112.325000   61.049900  -19.236000
  H    -107.747000   54.632200  -21.775800

 Total Charge           Charge          ....    0
 Multiplicity           Mult            ....    1
 Number of Electrons    NEL             ....  134
 Basis Dimension        Dim             ....  322

ORBITAL ENERGIES
----------------

  NO   OCC          E(Eh)            E(eV)
   0   2.0000     -88.964605     -2420.8500
   1   2.0000     -88.963761     -2420.8270
   2   2.0000     -10.325465      -280.9702
   3   2.0000     -10.319320      -280.8030
   4   2.0000     -10.311343      -280.5859
   5   2.0000     -10.310537      -280.5640
   6   2.0000     -10.297955      -280.2216
   7   2.0000     -10.295700      -280.1603
   8   2.0000     -10.295504      -280.1549
   9   2.0000     -10.295364      -280.1511
  10   2.0000     -10.294539      -280.1287
  11   2.0000     -10.291644      -280.0499
  12   2.0000     -10.289899      -280.0024
  13   2.0000     -10.283296      -279.8227
  14   2.0000     -10.282262      -279.7946
  15   2.0000     -10.281244      -279.7669
  16   2.0000      -8.080568      -219.8834
  17   2.0000      -8.078046      -219.8148
  18   2.0000      -6.038934      -164.3277
  19   2.0000      -6.036677      -164.2663
  20   2.0000      -6.035143      -164.2246
  21   2.0000      -6.032504      -164.1528
  22   2.0000      -6.031151      -164.1160
  23   2.0000      -6.028817      -164.0524
  24   2.0000      -1.013234       -27.5715
  25   2.0000      -0.990096       -26.9419
  26   2.0000      -0.912669       -24.8350
  27   2.0000      -0.907702       -24.6998
  28   2.0000      -0.876928       -23.8624
  29   2.0000      -0.856327       -23.3018
  30   2.0000      -0.850324       -23.1385
  31   2.0000      -0.818208       -22.2646
  32   2.0000      -0.779480       -21.2107
  33   2.0000      -0.769788       -20.9470
  34   2.0000      -0.709584       -19.3088
  35   2.0000      -0.704108       -19.1598
  36   2.0000      -0.700340       -19.0572
  37   2.0000      -0.656510       -17.8645
  38   2.0000      -0.651137       -17.7183
  39   2.0000      -0.620049       -16.8724
  40   2.0000      -0.597446       -16.2573
  41   2.0000      -0.574497       -15.6329
  42   2.0000      -0.561814       -15.2877
  43   2.0000      -0.553714       -15.0673
  44   2.0000      -0.532152       -14.4806
  45   2.0000      -0.527680       -14.3589
  46   2.0000      -0.522151       -14.2085
  47   2.0000      -0.513275       -13.9669
  48   2.0000      -0.510863       -13.9013
  49   2.0000      -0.500753       -13.6262
  50   2.0000      -0.495612       -13.4863
  51   2.0000      -0.482064       -13.1176
  52   2.0000      -0.468512       -12.7489
  53   2.0000      -0.462995       -12.5987
  54   2.0000      -0.458684       -12.4814
  55   2.0000      -0.451795       -12.2940
  56   2.0000      -0.446065       -12.1381
  57   2.0000      -0.440466       -11.9857
  58   2.0000      -0.433987       -11.8094
  59   2.0000      -0.430840       -11.7237
  60   2.0000      -0.415353       -11.3023
  61   2.0000      -0.412865       -11.2346
  62   2.0000      -0.405257       -11.0276
  63   2.0000      -0.349202        -9.5023
  64   2.0000      -0.329358        -8.9623
  65   2.0000      -0.327815        -8.9203
  66   2.0000      -0.294611        -8.0168
  67   0.0000       0.034787         0.9466
  68   0.0000       0.067336         1.8323
  69   0.0000       0.112460         3.0602
  70   0.0000       0.126869         3.4523
  71   0.0000       0.132617         3.6087

MULLIKEN ATOMIC CHARGES
-----------------------
   0 S :    0.121119
   1 C :   -0.123102
   2 C :   -0.061761
   3 C :    0.007446
   4 C :   -0.160425
   5 H :    0.037946
   6 C :    0.089248
   7 H :    0.014221
   8 H :    0.019529
   9 C :   -0.045713
  10 H :    0.013357
  11 H :    0.020240
  12 C :   -0.063998
  13 H :    0.028314
  14 H :    0.033432
  15 H :    0.028681
  16 S :    0.103787
  17 C :   -0.023011
  18 C :   -0.084052
  19 C :   -0.002614
  20 C :   -0.161850
  21 H :    0.029632
  22 C :    0.002867
  23 H :    0.040744
  24 H :    0.038154
  25 C :   -0.095832
  26 H :    0.045345
  27 H :    0.025197
  28 C :   -0.032666
  29 H :    0.034569
  30 H :    0.028304
  31 H :    0.032858
  32 H :    0.046774
  33 H :    0.013259
Sum of atomic charges:    0.0000000

LOEWDIN ATOMIC CHARGES
----------------------
   0 S :    0.411673
   1 C :   -0.205976
   2 C :   -0.067337
   3 C :   -0.052202
   4 C :   -0.180851
   5 H :    0.043294
   6 C :   -0.026412
   7 H :    0.024564
   8 H :    0.032836
   9 C :   -0.038928
  10 H :    0.019050
  11 H :    0.024091
  12 C :   -0.072331
  13 H :    0.029602
  14 H :    0.023470
  15 H :    0.025007
  16 S :    0.398275
  17 C :   -0.176386
  18 C :   -0.077048
  19 C :   -0.064858
  20 C :   -0.194699
  21 H :    0.035249
  22 C :   -0.049675
  23 H :    0.037691
  24 H :    0.040353
  25 C :   -0.047978
  26 H :    0.035540
  27 H :    0.014050
  28 C :   -0.057280
  29 H :    0.035427
  30 H :    0.018992
  31 H :    0.019887
  32 H :    0.028075
  33 H :    0.014834

  Mayer bond orders larger than 0.100000
B(  0-S ,  1-C ) :   1.1369 B(  0-S ,  4-C ) :   1.1378 B(  1-C ,  2-C ) :   1.6356
B(  1-C , 32-H ) :   0.9677 B(  2-C ,  3-C ) :   1.1868 B(  2-C ,  6-C ) :   1.0508
B(  3-C ,  4-C ) :   1.6144 B(  3-C ,  5-H ) :   0.9908 B(  4-C , 20-C ) :   1.0369
B(  6-C ,  7-H ) :   0.9397 B(  6-C ,  8-H ) :   0.9328 B(  6-C ,  9-C ) :   1.0501
B(  9-C , 10-H ) :   0.9569 B(  9-C , 11-H ) :   0.9495 B(  9-C , 12-C ) :   1.0853
B( 12-C , 13-H ) :   0.9723 B( 12-C , 14-H ) :   0.9734 B( 12-C , 15-H ) :   0.9739
B( 16-S , 17-C ) :   1.1639 B( 16-S , 20-C ) :   1.1119 B( 17-C , 18-C ) :   1.5933
B( 17-C , 33-H ) :   0.9724 B( 18-C , 19-C ) :   1.2551 B( 18-C , 21-H ) :   0.9824
B( 19-C , 20-C ) :   1.6218 B( 19-C , 22-C ) :   1.0395 B( 22-C , 23-H ) :   0.9288
B( 22-C , 24-H ) :   0.9333 B( 22-C , 25-C ) :   1.0523 B( 25-C , 26-H ) :   0.9580
B( 25-C , 27-H ) :   0.9465 B( 25-C , 28-C ) :   1.0843 B( 28-C , 29-H ) :   0.9737
B( 28-C , 30-H ) :   0.9733 B( 28-C , 31-H ) :   0.9779

Dispersion correction           -0.014038654
FINAL SINGLE POINT ENERGY     -1339.868508288165

DIPOLE MOMENT
-------------
                                X             Y             Z
Electronic contribution:    -19.60962     -25.85433      -2.28439
Nuclear contribution   :     20.16093      26.38408       2.33764
                        -----------------------------------------
Total Dipole Moment    :      0.55131       0.52975       0.05325
                        -----------------------------------------
Magnitude (a.u.)       :      0.76643
Magnitude (Debye)      :      1.94811

Rotational constants in cm-1:     0.016175     0.009519     0.006681
Rotational constants in MHz :   484.906196   285.378662   200.286695

                             ****ORCA TERMINATED NORMALLY****
TOTAL RUN TIME: 0 days 0 hours 0 minutes 20 seconds 393 msec
