                         Program Version 4.2.1 -  RELEASE  -
|  1> ! wB97X-D3 SP def2-SVP
|  2> %pal
|  3> nprocs 24
|  4> end
|  5>
|  6> * xyz 0 1
|  7> S 	 -120.459 	 20.5766 	 -112.426
|  8> C 	 -121.086 	 20.7007 	 -114.032
|  9> C 	 -121.002 	 19.4889 	 -114.685
| 10> C 	 -120.28 	 18.4828 	 -113.849
| 11> C 	 -119.918 	 18.925 	 -112.596
| 12> H 	 -120.184 	 17.3937 	 -113.977
| 13> C 	 -121.718 	 19.1362 	 -115.959
| 14> H 	 -122.585 	 19.8574 	 -116.053
| 15> H 	 -122.201 	 18.1453 	 -115.84
| 16> C 	 -120.943 	 19.1284 	 -117.253
| 17> H 	 -120.476 	 20.1891 	 -117.291
| 18> H 	 -120.056 	 18.473 	 -117.279
| 19> C 	 -121.817 	 18.9767 	 -118.496
| 20> H 	 -122.168 	 17.9289 	 -118.427
| 21> H 	 -122.682 	 19.6779 	 -118.472
| 22> H 	 -121.174 	 19.2125 	 -119.358
| 23> S 	 -118.068 	 18.1237 	 -110.801
| 24> C 	 -118.537 	 17.1383 	 -109.505
| 25> C 	 -119.897 	 16.7751 	 -109.583
| 26> C 	 -120.528 	 17.2377 	 -110.791
| 27> C 	 -119.67 	 18.0812 	 -111.49
| 28> H 	 -120.384 	 16.1549 	 -108.827
| 29> C 	 -121.96 	 17.0762 	 -111.07
| 30> H 	 -122.322 	 17.646 	 -111.918
| 31> H 	 -122.442 	 17.5942 	 -110.233
| 32> C 	 -122.617 	 15.71 	 -111.198
| 33> H 	 -122.319 	 15.035 	 -110.348
| 34> H 	 -122.192 	 15.0958 	 -112.085
| 35> C 	 -124.145 	 15.7703 	 -111.227
| 36> H 	 -124.75 	 15.9926 	 -110.32
| 37> H 	 -124.525 	 14.7669 	 -111.567
| 38> H 	 -124.447 	 16.508 	 -111.941
| 39> H 	 -121.654 	 21.4682 	 -114.49
| 40> H 	 -117.837 	 16.9676 	 -108.668
| 41> *
| 42>
| 43>                          ****END OF INPUT****

CARTESIAN COORDINATES (ANGSTROEM)
---------------------------------
  S    -120.459000   20.576600  -112.426000
  C    -121.086000   20.700700  -114.032000
  C    -121.002000   19.488900  -114.685000
  C    -120.280000   18.482800  -113.849000
  C    -119.918000   18.925000  -112.596000
  H    -120.184000   17.393700  -113.977000
  C    -121.718000   19.136200  -115.959000
  H    -122.585000   19.857400  -116.053000
  H    -122.201000   18.145300  -115.840000
  C    -120.943000   19.128400  -117.253000
  H    -120.476000   20.189100  -117.291000
  H    -120.056000   18.473000  -117.279000
  C    -121.817000   18.976700  -118.496000
  H    -122.168000   17.928900  -118.427000
  H    -122.682000   19.677900  -118.472000
  H    -121.174000   19.212500  -119.358000
  S    -118.068000   18.123700  -110.801000
  C    -118.537000   17.138300  -109.505000
  C    -119.897000   16.775100  -109.583000
  C    -120.528000   17.237700  -110.791000
  C    -119.670000   18.081200  -111.490000
  H    -120.384000   16.154900  -108.827000
  C    -121.960000   17.076200  -111.070000
  H    -122.322000   17.646000  -111.918000
  H    -122.442000   17.594200  -110.233000
  C    -122.617000   15.710000  -111.198000
  H    -122.319000   15.035000  -110.348000
  H    -122.192000   15.095800  -112.085000
  C    -124.145000   15.770300  -111.227000
  H    -124.750000   15.992600  -110.320000
  H    -124.525000   14.766900  -111.567000
  H    -124.447000   16.508000  -111.941000
  H    -121.654000   21.468200  -114.490000
  H    -117.837000   16.967600  -108.668000

 Total Charge           Charge          ....    0
 Multiplicity           Mult            ....    1
 Number of Electrons    NEL             ....  134
 Basis Dimension        Dim             ....  322

ORBITAL ENERGIES
----------------

  NO   OCC          E(Eh)            E(eV)
   0   2.0000     -88.964091     -2420.8360
   1   2.0000     -88.963115     -2420.8094
   2   2.0000     -10.320367      -280.8315
   3   2.0000     -10.319716      -280.8137
   4   2.0000     -10.319321      -280.8030
   5   2.0000     -10.313048      -280.6323
   6   2.0000     -10.306004      -280.4406
   7   2.0000     -10.305759      -280.4339
   8   2.0000     -10.298728      -280.2426
   9   2.0000     -10.298623      -280.2398
  10   2.0000     -10.298497      -280.2363
  11   2.0000     -10.297422      -280.2071
  12   2.0000     -10.290369      -280.0152
  13   2.0000     -10.287647      -279.9411
  14   2.0000     -10.285475      -279.8820
  15   2.0000     -10.284272      -279.8493
  16   2.0000      -8.080236      -219.8744
  17   2.0000      -8.078206      -219.8192
  18   2.0000      -6.038410      -164.3135
  19   2.0000      -6.036830      -164.2705
  20   2.0000      -6.034483      -164.2066
  21   2.0000      -6.032580      -164.1548
  22   2.0000      -6.031322      -164.1206
  23   2.0000      -6.028863      -164.0537
  24   2.0000      -1.011126       -27.5141
  25   2.0000      -0.985140       -26.8070
  26   2.0000      -0.914871       -24.8949
  27   2.0000      -0.913967       -24.8703
  28   2.0000      -0.876352       -23.8468
  29   2.0000      -0.855927       -23.2910
  30   2.0000      -0.843507       -22.9530
  31   2.0000      -0.811476       -22.0814
  32   2.0000      -0.783624       -21.3235
  33   2.0000      -0.770775       -20.9739
  34   2.0000      -0.705977       -19.2106
  35   2.0000      -0.695696       -18.9309
  36   2.0000      -0.689936       -18.7741
  37   2.0000      -0.660152       -17.9636
  38   2.0000      -0.645265       -17.5586
  39   2.0000      -0.616043       -16.7634
  40   2.0000      -0.601530       -16.3685
  41   2.0000      -0.572951       -15.5908
  42   2.0000      -0.560945       -15.2641
  43   2.0000      -0.554284       -15.0828
  44   2.0000      -0.527921       -14.3654
  45   2.0000      -0.527271       -14.3478
  46   2.0000      -0.520651       -14.1676
  47   2.0000      -0.510144       -13.8817
  48   2.0000      -0.507378       -13.8065
  49   2.0000      -0.503021       -13.6879
  50   2.0000      -0.501042       -13.6341
  51   2.0000      -0.473724       -12.8907
  52   2.0000      -0.468391       -12.7456
  53   2.0000      -0.464979       -12.6527
  54   2.0000      -0.460329       -12.5262
  55   2.0000      -0.453409       -12.3379
  56   2.0000      -0.443018       -12.0551
  57   2.0000      -0.440159       -11.9773
  58   2.0000      -0.434085       -11.8120
  59   2.0000      -0.425416       -11.5762
  60   2.0000      -0.420153       -11.4329
  61   2.0000      -0.408368       -11.1122
  62   2.0000      -0.403582       -10.9820
  63   2.0000      -0.331338        -9.0162
  64   2.0000      -0.329077        -8.9546
  65   2.0000      -0.323883        -8.8133
  66   2.0000      -0.307422        -8.3654
  67   0.0000       0.043377         1.1804
  68   0.0000       0.056430         1.5355
  69   0.0000       0.107258         2.9186
  70   0.0000       0.116553         3.1716
  71   0.0000       0.129567         3.5257

MULLIKEN ATOMIC CHARGES
-----------------------
   0 S :    0.111279
   1 C :   -0.078049
   2 C :   -0.104030
   3 C :    0.032200
   4 C :   -0.148298
   5 H :    0.024249
   6 C :    0.035100
   7 H :    0.021608
   8 H :    0.026559
   9 C :   -0.111455
  10 H :    0.023872
  11 H :    0.039628
  12 C :   -0.040322
  13 H :    0.038453
  14 H :    0.035464
  15 H :    0.049004
  16 S :    0.127369
  17 C :   -0.106344
  18 C :   -0.046603
  19 C :    0.033057
  20 C :   -0.215234
  21 H :    0.027009
  22 C :    0.046687
  23 H :    0.024100
  24 H :    0.035632
  25 C :   -0.104261
  26 H :    0.027396
  27 H :    0.041887
  28 C :   -0.057678
  29 H :    0.043654
  30 H :    0.037454
  31 H :    0.022780
  32 H :    0.034113
  33 H :    0.073720
Sum of atomic charges:    0.0000000

LOEWDIN ATOMIC CHARGES
----------------------
   0 S :    0.413224
   1 C :   -0.196400
   2 C :   -0.064331
   3 C :   -0.055495
   4 C :   -0.215958
   5 H :    0.034504
   6 C :   -0.043345
   7 H :    0.033797
   8 H :    0.030629
   9 C :   -0.054360
  10 H :    0.026455
  11 H :    0.025605
  12 C :   -0.066172
  13 H :    0.028438
  14 H :    0.027243
  15 H :    0.032606
  16 S :    0.439499
  17 C :   -0.204540
  18 C :   -0.073465
  19 C :   -0.044495
  20 C :   -0.215089
  21 H :    0.032119
  22 C :   -0.044221
  23 H :    0.031787
  24 H :    0.042164
  25 C :   -0.049274
  26 H :    0.023426
  27 H :    0.033245
  28 C :   -0.072527
  29 H :    0.030722
  30 H :    0.034010
  31 H :    0.019639
  32 H :    0.026427
  33 H :    0.034135

  Mayer bond orders larger than 0.100000
B(  0-S ,  1-C ) :   1.1385 B(  0-S ,  4-C ) :   1.1350 B(  1-C ,  2-C ) :   1.6348
B(  1-C , 32-H ) :   0.9682 B(  2-C ,  3-C ) :   1.1998 B(  2-C ,  6-C ) :   1.0308
B(  3-C ,  4-C ) :   1.6050 B(  3-C ,  5-H ) :   0.9930 B(  4-C , 20-C ) :   1.0315
B(  6-C ,  7-H ) :   0.9421 B(  6-C ,  8-H ) :   0.9373 B(  6-C ,  9-C ) :   1.0609
B(  9-C , 10-H ) :   0.9519 B(  9-C , 11-H ) :   0.9553 B(  9-C , 12-C ) :   1.0757
B( 12-C , 13-H ) :   0.9744 B( 12-C , 14-H ) :   0.9738 B( 12-C , 15-H ) :   0.9739
B( 16-S , 17-C ) :   1.1920 B( 16-S , 20-C ) :   1.1551 B( 17-C , 18-C ) :   1.5663
B( 17-C , 33-H ) :   0.9666 B( 18-C , 19-C ) :   1.2482 B( 18-C , 21-H ) :   0.9901
B( 19-C , 20-C ) :   1.5655 B( 19-C , 22-C ) :   1.0585 B( 22-C , 23-H ) :   0.9264
B( 22-C , 24-H ) :   0.9310 B( 22-C , 25-C ) :   1.0545 B( 25-C , 26-H ) :   0.9547
B( 25-C , 27-H ) :   0.9521 B( 25-C , 28-C ) :   1.0749 B( 28-C , 29-H ) :   0.9749
B( 28-C , 30-H ) :   0.9731 B( 28-C , 31-H ) :   0.9747

Dispersion correction           -0.013962167
FINAL SINGLE POINT ENERGY     -1339.874941023361

DIPOLE MOMENT
-------------
                                X             Y             Z
Electronic contribution:     21.12907      11.17659      17.53982
Nuclear contribution   :    -21.76154     -11.53218     -17.66712
                        -----------------------------------------
Total Dipole Moment    :     -0.63247      -0.35558      -0.12730
                        -----------------------------------------
Magnitude (a.u.)       :      0.73665
Magnitude (Debye)      :      1.87242

Rotational constants in cm-1:     0.017741     0.008141     0.006499
Rotational constants in MHz :   531.870677   244.053913   194.843606

                             ****ORCA TERMINATED NORMALLY****
TOTAL RUN TIME: 0 days 0 hours 0 minutes 21 seconds 114 msec
