                         Program Version 4.2.1 -  RELEASE  -
|  1> ! wB97X-D3 SP def2-SVP
|  2> %pal
|  3> nprocs 24
|  4> end
|  5>
|  6> * xyz 0 1
|  7> S 	 -44.3894 	 -2.82456 	 -8.96127
|  8> C 	 -45.9004 	 -2.34171 	 -8.42154
|  9> C 	 -46.7708 	 -2.06669 	 -9.50051
| 10> C 	 -46.0422 	 -2.04685 	 -10.7208
| 11> C 	 -44.6991 	 -2.38992 	 -10.6243
| 12> H 	 -46.595 	 -1.71728 	 -11.604
| 13> C 	 -48.3064 	 -1.77272 	 -9.47933
| 14> H 	 -48.3771 	 -1.13602 	 -10.3661
| 15> H 	 -48.5307 	 -1.36513 	 -8.54347
| 16> C 	 -49.219 	 -2.93122 	 -9.67053
| 17> H 	 -49.1499 	 -3.54728 	 -8.76155
| 18> H 	 -50.2541 	 -2.59395 	 -9.78626
| 19> C 	 -48.9541 	 -3.68668 	 -10.9921
| 20> H 	 -49.6047 	 -4.52702 	 -11.0187
| 21> H 	 -49.1264 	 -3.11224 	 -11.8762
| 22> H 	 -47.9431 	 -4.06081 	 -11.1353
| 23> S 	 -42.7053 	 -0.759652 	 -11.5293
| 24> C 	 -41.8608 	 -1.25347 	 -12.9922
| 25> C 	 -42.4619 	 -2.3065 	 -13.6456
| 26> C 	 -43.4737 	 -2.87268 	 -12.7952
| 27> C 	 -43.7144 	 -2.15995 	 -11.6375
| 28> H 	 -42.0596 	 -2.79298 	 -14.5382
| 29> C 	 -44.3681 	 -3.99829 	 -13.3373
| 30> H 	 -44.6445 	 -4.57212 	 -12.4513
| 31> H 	 -43.732 	 -4.69364 	 -13.9608
| 32> C 	 -45.5894 	 -3.45109 	 -14.2099
| 33> H 	 -45.1731 	 -3.10634 	 -15.2329
| 34> H 	 -45.9655 	 -2.47275 	 -13.9096
| 35> C 	 -46.6807 	 -4.38862 	 -14.5154
| 36> H 	 -47.4684 	 -3.95785 	 -15.1333
| 37> H 	 -47.2531 	 -4.88447 	 -13.7184
| 38> H 	 -46.2179 	 -5.29868 	 -14.9834
| 39> H 	 -46.1585 	 -2.40958 	 -7.39713
| 40> H 	 -41.0528 	 -0.625884 	 -13.3286
| 41> *
| 42>
| 43>                          ****END OF INPUT****

CARTESIAN COORDINATES (ANGSTROEM)
---------------------------------
  S    -44.389400   -2.824560   -8.961270
  C    -45.900400   -2.341710   -8.421540
  C    -46.770800   -2.066690   -9.500510
  C    -46.042200   -2.046850  -10.720800
  C    -44.699100   -2.389920  -10.624300
  H    -46.595000   -1.717280  -11.604000
  C    -48.306400   -1.772720   -9.479330
  H    -48.377100   -1.136020  -10.366100
  H    -48.530700   -1.365130   -8.543470
  C    -49.219000   -2.931220   -9.670530
  H    -49.149900   -3.547280   -8.761550
  H    -50.254100   -2.593950   -9.786260
  C    -48.954100   -3.686680  -10.992100
  H    -49.604700   -4.527020  -11.018700
  H    -49.126400   -3.112240  -11.876200
  H    -47.943100   -4.060810  -11.135300
  S    -42.705300   -0.759652  -11.529300
  C    -41.860800   -1.253470  -12.992200
  C    -42.461900   -2.306500  -13.645600
  C    -43.473700   -2.872680  -12.795200
  C    -43.714400   -2.159950  -11.637500
  H    -42.059600   -2.792980  -14.538200
  C    -44.368100   -3.998290  -13.337300
  H    -44.644500   -4.572120  -12.451300
  H    -43.732000   -4.693640  -13.960800
  C    -45.589400   -3.451090  -14.209900
  H    -45.173100   -3.106340  -15.232900
  H    -45.965500   -2.472750  -13.909600
  C    -46.680700   -4.388620  -14.515400
  H    -47.468400   -3.957850  -15.133300
  H    -47.253100   -4.884470  -13.718400
  H    -46.217900   -5.298680  -14.983400
  H    -46.158500   -2.409580   -7.397130
  H    -41.052800   -0.625884  -13.328600

 Total Charge           Charge          ....    0
 Multiplicity           Mult            ....    1
 Number of Electrons    NEL             ....  134
 Basis Dimension        Dim             ....  322

ORBITAL ENERGIES
----------------

  NO   OCC          E(Eh)            E(eV)
   0   2.0000     -88.965619     -2420.8776
   1   2.0000     -88.963145     -2420.8102
   2   2.0000     -10.323340      -280.9124
   3   2.0000     -10.318788      -280.7885
   4   2.0000     -10.317231      -280.7461
   5   2.0000     -10.311177      -280.5814
   6   2.0000     -10.300291      -280.2852
   7   2.0000     -10.299840      -280.2729
   8   2.0000     -10.299668      -280.2682
   9   2.0000     -10.295023      -280.1418
  10   2.0000     -10.294500      -280.1276
  11   2.0000     -10.292794      -280.0812
  12   2.0000     -10.287799      -279.9452
  13   2.0000     -10.286247      -279.9030
  14   2.0000     -10.278080      -279.6808
  15   2.0000     -10.269594      -279.4499
  16   2.0000      -8.081658      -219.9131
  17   2.0000      -8.078450      -219.8258
  18   2.0000      -6.039957      -164.3556
  19   2.0000      -6.036814      -164.2701
  20   2.0000      -6.035760      -164.2414
  21   2.0000      -6.032946      -164.1648
  22   2.0000      -6.032794      -164.1607
  23   2.0000      -6.029257      -164.0644
  24   2.0000      -1.010295       -27.4915
  25   2.0000      -0.987232       -26.8640
  26   2.0000      -0.916038       -24.9267
  27   2.0000      -0.900962       -24.5164
  28   2.0000      -0.872460       -23.7408
  29   2.0000      -0.853116       -23.2145
  30   2.0000      -0.846942       -23.0465
  31   2.0000      -0.812559       -22.1109
  32   2.0000      -0.785646       -21.3785
  33   2.0000      -0.767960       -20.8973
  34   2.0000      -0.702279       -19.1100
  35   2.0000      -0.699120       -19.0240
  36   2.0000      -0.693997       -18.8846
  37   2.0000      -0.664203       -18.0739
  38   2.0000      -0.645142       -17.5552
  39   2.0000      -0.615654       -16.7528
  40   2.0000      -0.592479       -16.1222
  41   2.0000      -0.573074       -15.5941
  42   2.0000      -0.557741       -15.1769
  43   2.0000      -0.549553       -14.9541
  44   2.0000      -0.545771       -14.8512
  45   2.0000      -0.527569       -14.3559
  46   2.0000      -0.524975       -14.2853
  47   2.0000      -0.513541       -13.9741
  48   2.0000      -0.503279       -13.6949
  49   2.0000      -0.495719       -13.4892
  50   2.0000      -0.484859       -13.1937
  51   2.0000      -0.481093       -13.0912
  52   2.0000      -0.470515       -12.8034
  53   2.0000      -0.462971       -12.5981
  54   2.0000      -0.461984       -12.5712
  55   2.0000      -0.442880       -12.0514
  56   2.0000      -0.441364       -12.0101
  57   2.0000      -0.440467       -11.9857
  58   2.0000      -0.436663       -11.8822
  59   2.0000      -0.430523       -11.7151
  60   2.0000      -0.424341       -11.5469
  61   2.0000      -0.408285       -11.1100
  62   2.0000      -0.397671       -10.8212
  63   2.0000      -0.341893        -9.3034
  64   2.0000      -0.328082        -8.9276
  65   2.0000      -0.317883        -8.6500
  66   2.0000      -0.303588        -8.2611
  67   0.0000       0.036789         1.0011
  68   0.0000       0.062610         1.7037
  69   0.0000       0.114456         3.1145
  70   0.0000       0.121456         3.3050
  71   0.0000       0.125900         3.4259

MULLIKEN ATOMIC CHARGES
-----------------------
   0 S :    0.134942
   1 C :   -0.121169
   2 C :   -0.132042
   3 C :    0.038325
   4 C :   -0.180149
   5 H :    0.012206
   6 C :    0.124509
   7 H :    0.017171
   8 H :    0.008851
   9 C :   -0.053174
  10 H :    0.029560
  11 H :    0.034369
  12 C :   -0.063785
  13 H :    0.023986
  14 H :    0.018053
  15 H :    0.045351
  16 S :    0.117661
  17 C :   -0.098331
  18 C :   -0.013804
  19 C :   -0.065967
  20 C :   -0.159519
  21 H :    0.031792
  22 C :    0.065441
  23 H :    0.035717
  24 H :    0.029897
  25 C :   -0.066339
  26 H :    0.025949
  27 H :    0.021998
  28 C :   -0.045625
  29 H :    0.036571
  30 H :    0.026784
  31 H :    0.025683
  32 H :    0.038794
  33 H :    0.056291
Sum of atomic charges:   -0.0000000

LOEWDIN ATOMIC CHARGES
----------------------
   0 S :    0.447869
   1 C :   -0.212593
   2 C :   -0.066973
   3 C :   -0.054833
   4 C :   -0.217936
   5 H :    0.029393
   6 C :   -0.022613
   7 H :    0.030368
   8 H :    0.022641
   9 C :   -0.037336
  10 H :    0.025532
  11 H :    0.029111
  12 C :   -0.065756
  13 H :    0.022585
  14 H :    0.020257
  15 H :    0.025047
  16 S :    0.413276
  17 C :   -0.170297
  18 C :   -0.072926
  19 C :   -0.053840
  20 C :   -0.215341
  21 H :    0.037313
  22 C :   -0.029885
  23 H :    0.029782
  24 H :    0.033080
  25 C :   -0.047716
  26 H :    0.034508
  27 H :    0.019406
  28 C :   -0.077926
  29 H :    0.029542
  30 H :    0.023742
  31 H :    0.030549
  32 H :    0.019615
  33 H :    0.022357

  Mayer bond orders larger than 0.100000
B(  0-S ,  1-C ) :   1.1952 B(  0-S ,  4-C ) :   1.1618 B(  1-C ,  2-C ) :   1.5395
B(  1-C ,  4-C ) :   0.1025 B(  1-C , 32-H ) :   0.9759 B(  2-C ,  3-C ) :   1.3132
B(  2-C ,  6-C ) :   1.0062 B(  3-C ,  4-C ) :   1.5243 B(  3-C ,  5-H ) :   0.9822
B(  4-C , 20-C ) :   1.0403 B(  6-C ,  7-H ) :   0.9375 B(  6-C ,  8-H ) :   0.9373
B(  6-C ,  9-C ) :   1.0923 B(  9-C , 10-H ) :   0.9527 B(  9-C , 11-H ) :   0.9519
B(  9-C , 12-C ) :   1.0778 B( 12-C , 13-H ) :   0.9721 B( 12-C , 14-H ) :   0.9737
B( 12-C , 15-H ) :   0.9709 B( 16-S , 17-C ) :   1.1657 B( 16-S , 20-C ) :   1.1445
B( 17-C , 18-C ) :   1.5991 B( 17-C , 33-H ) :   0.9696 B( 18-C , 19-C ) :   1.2373
B( 18-C , 21-H ) :   0.9866 B( 19-C , 20-C ) :   1.6155 B( 19-C , 22-C ) :   1.0594
B( 22-C , 23-H ) :   0.9348 B( 22-C , 24-H ) :   0.9358 B( 22-C , 25-C ) :   1.0338
B( 25-C , 26-H ) :   0.9440 B( 25-C , 27-H ) :   0.9598 B( 25-C , 28-C ) :   1.0929
B( 28-C , 29-H ) :   0.9695 B( 28-C , 30-H ) :   0.9720 B( 28-C , 31-H ) :   0.9665

Dispersion correction           -0.015883349
FINAL SINGLE POINT ENERGY     -1339.870713265059

DIPOLE MOMENT
-------------
                                X             Y             Z
Electronic contribution:     24.86054      11.16045      13.29551
Nuclear contribution   :    -25.36244     -11.27468     -13.58755
                        -----------------------------------------
Total Dipole Moment    :     -0.50190      -0.11422      -0.29205
                        -----------------------------------------
Magnitude (a.u.)       :      0.59182
Magnitude (Debye)      :      1.50428

Rotational constants in cm-1:     0.017875     0.010521     0.007424
Rotational constants in MHz :   535.888166   315.426391   222.570595

                             ****ORCA TERMINATED NORMALLY****
TOTAL RUN TIME: 0 days 0 hours 0 minutes 21 seconds 598 msec
