                         Program Version 4.2.1 -  RELEASE  -
|  1> ! wB97X-D3 SP def2-SVP
|  2> %pal
|  3> nprocs 24
|  4> end
|  5>
|  6> * xyz 0 1
|  7> S 	 -90.9884 	 -29.9769 	 -57.1369
|  8> C 	 -90.2069 	 -31.5027 	 -56.8128
|  9> C 	 -89.1369 	 -31.3663 	 -55.9469
| 10> C 	 -88.9388 	 -30.0064 	 -55.4595
| 11> C 	 -89.986 	 -29.2032 	 -55.8822
| 12> H 	 -88.2534 	 -29.5703 	 -54.7443
| 13> C 	 -88.3189 	 -32.532 	 -55.505
| 14> H 	 -87.2781 	 -32.429 	 -55.9275
| 15> H 	 -88.6972 	 -33.4144 	 -56.0408
| 16> C 	 -88.2242 	 -32.9491 	 -53.962
| 17> H 	 -89.1465 	 -32.8674 	 -53.4946
| 18> H 	 -87.8827 	 -33.9473 	 -53.8047
| 19> C 	 -87.2764 	 -32.1062 	 -53.1787
| 20> H 	 -87.4165 	 -31.0034 	 -53.1322
| 21> H 	 -87.3395 	 -32.4125 	 -52.1741
| 22> H 	 -86.3048 	 -32.4604 	 -53.4731
| 23> S 	 -89.7365 	 -26.6559 	 -56.7546
| 24> C 	 -90.4317 	 -25.3618 	 -55.8526
| 25> C 	 -90.6467 	 -25.8229 	 -54.5162
| 26> C 	 -90.3963 	 -27.2107 	 -54.3471
| 27> C 	 -90.2038 	 -27.8482 	 -55.5571
| 28> H 	 -91.0766 	 -25.1784 	 -53.7768
| 29> C 	 -90.5309 	 -28.0091 	 -53.0057
| 30> H 	 -90.6277 	 -29.108 	 -53.2416
| 31> H 	 -91.5112 	 -27.8421 	 -52.6339
| 32> C 	 -89.5153 	 -27.5948 	 -51.9503
| 33> H 	 -89.3766 	 -26.456 	 -51.9855
| 34> H 	 -88.5605 	 -28.0101 	 -52.2479
| 35> C 	 -89.942 	 -28.0542 	 -50.5482
| 36> H 	 -90.0254 	 -29.1416 	 -50.599
| 37> H 	 -90.9034 	 -27.7414 	 -50.1288
| 38> H 	 -89.1758 	 -27.8795 	 -49.798
| 39> H 	 -90.5559 	 -32.3882 	 -57.2065
| 40> H 	 -90.5803 	 -24.4189 	 -56.3647
| 41> *
| 42>
| 43>                          ****END OF INPUT****

CARTESIAN COORDINATES (ANGSTROEM)
---------------------------------
  S    -90.988400  -29.976900  -57.136900
  C    -90.206900  -31.502700  -56.812800
  C    -89.136900  -31.366300  -55.946900
  C    -88.938800  -30.006400  -55.459500
  C    -89.986000  -29.203200  -55.882200
  H    -88.253400  -29.570300  -54.744300
  C    -88.318900  -32.532000  -55.505000
  H    -87.278100  -32.429000  -55.927500
  H    -88.697200  -33.414400  -56.040800
  C    -88.224200  -32.949100  -53.962000
  H    -89.146500  -32.867400  -53.494600
  H    -87.882700  -33.947300  -53.804700
  C    -87.276400  -32.106200  -53.178700
  H    -87.416500  -31.003400  -53.132200
  H    -87.339500  -32.412500  -52.174100
  H    -86.304800  -32.460400  -53.473100
  S    -89.736500  -26.655900  -56.754600
  C    -90.431700  -25.361800  -55.852600
  C    -90.646700  -25.822900  -54.516200
  C    -90.396300  -27.210700  -54.347100
  C    -90.203800  -27.848200  -55.557100
  H    -91.076600  -25.178400  -53.776800
  C    -90.530900  -28.009100  -53.005700
  H    -90.627700  -29.108000  -53.241600
  H    -91.511200  -27.842100  -52.633900
  C    -89.515300  -27.594800  -51.950300
  H    -89.376600  -26.456000  -51.985500
  H    -88.560500  -28.010100  -52.247900
  C    -89.942000  -28.054200  -50.548200
  H    -90.025400  -29.141600  -50.599000
  H    -90.903400  -27.741400  -50.128800
  H    -89.175800  -27.879500  -49.798000
  H    -90.555900  -32.388200  -57.206500
  H    -90.580300  -24.418900  -56.364700

 Total Charge           Charge          ....    0
 Multiplicity           Mult            ....    1
 Number of Electrons    NEL             ....  134
 Basis Dimension        Dim             ....  322

ORBITAL ENERGIES
----------------

  NO   OCC          E(Eh)            E(eV)
   0   2.0000     -88.964120     -2420.8368
   1   2.0000     -88.957935     -2420.6685
   2   2.0000     -10.325483      -280.9707
   3   2.0000     -10.319934      -280.8197
   4   2.0000     -10.316246      -280.7193
   5   2.0000     -10.310079      -280.5515
   6   2.0000     -10.305961      -280.4394
   7   2.0000     -10.304739      -280.4062
   8   2.0000     -10.299984      -280.2768
   9   2.0000     -10.298235      -280.2292
  10   2.0000     -10.296352      -280.1780
  11   2.0000     -10.295102      -280.1440
  12   2.0000     -10.292691      -280.0783
  13   2.0000     -10.281531      -279.7747
  14   2.0000     -10.280769      -279.7539
  15   2.0000     -10.271442      -279.5001
  16   2.0000      -8.078756      -219.8341
  17   2.0000      -8.073683      -219.6961
  18   2.0000      -6.037191      -164.2803
  19   2.0000      -6.033394      -164.1770
  20   2.0000      -6.032058      -164.1406
  21   2.0000      -6.029478      -164.0704
  22   2.0000      -6.028125      -164.0336
  23   2.0000      -6.024437      -163.9333
  24   2.0000      -1.007265       -27.4091
  25   2.0000      -0.981109       -26.6973
  26   2.0000      -0.910025       -24.7631
  27   2.0000      -0.907495       -24.6942
  28   2.0000      -0.875857       -23.8333
  29   2.0000      -0.853218       -23.2172
  30   2.0000      -0.846574       -23.0364
  31   2.0000      -0.813278       -22.1304
  32   2.0000      -0.782716       -21.2988
  33   2.0000      -0.768389       -20.9089
  34   2.0000      -0.706528       -19.2256
  35   2.0000      -0.701412       -19.0864
  36   2.0000      -0.698824       -19.0160
  37   2.0000      -0.661926       -18.0119
  38   2.0000      -0.650792       -17.7090
  39   2.0000      -0.612624       -16.6704
  40   2.0000      -0.596675       -16.2363
  41   2.0000      -0.572247       -15.5716
  42   2.0000      -0.559783       -15.2325
  43   2.0000      -0.548126       -14.9153
  44   2.0000      -0.541836       -14.7441
  45   2.0000      -0.525690       -14.3047
  46   2.0000      -0.522060       -14.2060
  47   2.0000      -0.515178       -14.0187
  48   2.0000      -0.511415       -13.9163
  49   2.0000      -0.501187       -13.6380
  50   2.0000      -0.493700       -13.4343
  51   2.0000      -0.487163       -13.2564
  52   2.0000      -0.468366       -12.7449
  53   2.0000      -0.461261       -12.5516
  54   2.0000      -0.458093       -12.4653
  55   2.0000      -0.444241       -12.0884
  56   2.0000      -0.441789       -12.0217
  57   2.0000      -0.438214       -11.9244
  58   2.0000      -0.433256       -11.7895
  59   2.0000      -0.424223       -11.5437
  60   2.0000      -0.419866       -11.4251
  61   2.0000      -0.418269       -11.3817
  62   2.0000      -0.412476       -11.2241
  63   2.0000      -0.337415        -9.1815
  64   2.0000      -0.326951        -8.8968
  65   2.0000      -0.321319        -8.7435
  66   2.0000      -0.297275        -8.0893
  67   0.0000       0.028137         0.7657
  68   0.0000       0.060076         1.6348
  69   0.0000       0.108023         2.9394
  70   0.0000       0.117064         3.1855
  71   0.0000       0.121387         3.3031

MULLIKEN ATOMIC CHARGES
-----------------------
   0 S :    0.110748
   1 C :   -0.077269
   2 C :   -0.073162
   3 C :    0.063785
   4 C :   -0.203566
   5 H :    0.019750
   6 C :    0.033617
   7 H :    0.040249
   8 H :    0.012406
   9 C :   -0.018982
  10 H :    0.012441
  11 H :    0.019964
  12 C :   -0.043068
  13 H :    0.039714
  14 H :    0.010074
  15 H :    0.018173
  16 S :    0.101141
  17 C :   -0.102738
  18 C :   -0.034990
  19 C :   -0.003587
  20 C :   -0.176718
  21 H :    0.017389
  22 C :    0.051875
  23 H :    0.042239
  24 H :    0.011813
  25 C :   -0.075039
  26 H :    0.044596
  27 H :    0.023719
  28 C :   -0.043967
  29 H :    0.020660
  30 H :    0.037684
  31 H :    0.034453
  32 H :    0.017663
  33 H :    0.068931
Sum of atomic charges:   -0.0000000

LOEWDIN ATOMIC CHARGES
----------------------
   0 S :    0.394457
   1 C :   -0.179977
   2 C :   -0.060339
   3 C :   -0.049029
   4 C :   -0.187191
   5 H :    0.034506
   6 C :   -0.039127
   7 H :    0.037730
   8 H :    0.029064
   9 C :   -0.028696
  10 H :    0.014062
  11 H :    0.026311
  12 C :   -0.065897
  13 H :    0.025821
  14 H :    0.020527
  15 H :    0.022856
  16 S :    0.412259
  17 C :   -0.190337
  18 C :   -0.071394
  19 C :   -0.051395
  20 C :   -0.209824
  21 H :    0.026972
  22 C :   -0.034461
  23 H :    0.037574
  24 H :    0.022660
  25 C :   -0.041083
  26 H :    0.032510
  27 H :    0.022116
  28 C :   -0.070279
  29 H :    0.026105
  30 H :    0.027081
  31 H :    0.026497
  32 H :    0.011313
  33 H :    0.028607

  Mayer bond orders larger than 0.100000
B(  0-S ,  1-C ) :   1.1300 B(  0-S ,  4-C ) :   1.1391 B(  1-C ,  2-C ) :   1.6314
B(  1-C , 32-H ) :   0.9774 B(  2-C ,  3-C ) :   1.1771 B(  2-C ,  6-C ) :   1.0461
B(  3-C ,  4-C ) :   1.5993 B(  3-C ,  5-H ) :   0.9932 B(  4-C , 20-C ) :   1.0513
B(  6-C ,  7-H ) :   0.9363 B(  6-C ,  8-H ) :   0.9382 B(  6-C ,  9-C ) :   1.0509
B(  9-C , 10-H ) :   0.9592 B(  9-C , 11-H ) :   0.9547 B(  9-C , 12-C ) :   1.0895
B( 12-C , 13-H ) :   0.9727 B( 12-C , 14-H ) :   0.9659 B( 12-C , 15-H ) :   0.9750
B( 16-S , 17-C ) :   1.1765 B( 16-S , 20-C ) :   1.1602 B( 17-C , 18-C ) :   1.5449
B( 17-C , 20-C ) :   0.1194 B( 17-C , 33-H ) :   0.9767 B( 18-C , 19-C ) :   1.2477
B( 18-C , 21-H ) :   0.9974 B( 19-C , 20-C ) :   1.5754 B( 19-C , 22-C ) :   1.0302
B( 22-C , 23-H ) :   0.9349 B( 22-C , 24-H ) :   0.9432 B( 22-C , 25-C ) :   1.0417
B( 25-C , 26-H ) :   0.9610 B( 25-C , 27-H ) :   0.9509 B( 25-C , 28-C ) :   1.0771
B( 28-C , 29-H ) :   0.9705 B( 28-C , 30-H ) :   0.9770 B( 28-C , 31-H ) :   0.9743

Dispersion correction           -0.014667310
FINAL SINGLE POINT ENERGY     -1339.855305840901

DIPOLE MOMENT
-------------
                                X             Y             Z
Electronic contribution:     -9.70842      12.19560     -27.24873
Nuclear contribution   :      9.84885     -12.52571      27.90217
                        -----------------------------------------
Total Dipole Moment    :      0.14043      -0.33011       0.65344
                        -----------------------------------------
Magnitude (a.u.)       :      0.74544
Magnitude (Debye)      :      1.89475

Rotational constants in cm-1:     0.015723     0.010579     0.007054
Rotational constants in MHz :   471.350148   317.146077   211.469334

                             ****ORCA TERMINATED NORMALLY****
TOTAL RUN TIME: 0 days 0 hours 0 minutes 22 seconds 34 msec
