                         Program Version 4.2.1 -  RELEASE  -
|  1> ! wB97X-D3 SP def2-SVP
|  2> %pal
|  3> nprocs 24
|  4> end
|  5>
|  6> * xyz 0 1
|  7> S 	 -97.3946 	 -24.6265 	 -63.3721
|  8> C 	 -99.103 	 -24.8815 	 -63.6033
|  9> C 	 -99.7969 	 -23.7396 	 -63.3015
| 10> C 	 -98.9747 	 -22.6159 	 -62.9008
| 11> C 	 -97.6543 	 -22.8958 	 -62.866
| 12> H 	 -99.2655 	 -21.6686 	 -62.4501
| 13> C 	 -101.337 	 -23.5746 	 -63.1999
| 14> H 	 -101.515 	 -23.0026 	 -62.2812
| 15> H 	 -101.591 	 -24.6784 	 -63.0852
| 16> C 	 -102.081 	 -22.8229 	 -64.3572
| 17> H 	 -101.727 	 -21.82 	 -64.5181
| 18> H 	 -101.759 	 -23.1512 	 -65.365
| 19> C 	 -103.569 	 -22.8425 	 -64.215
| 20> H 	 -103.951 	 -23.8607 	 -64.0871
| 21> H 	 -103.775 	 -22.3747 	 -63.2243
| 22> H 	 -104.065 	 -22.3206 	 -65.0425
| 23> S 	 -95.8602 	 -22.476 	 -60.8652
| 24> C 	 -95.0306 	 -20.9664 	 -60.8319
| 25> C 	 -95.2803 	 -20.2261 	 -61.9717
| 26> C 	 -96.2473 	 -20.8129 	 -62.7991
| 27> C 	 -96.6247 	 -22.0065 	 -62.3513
| 28> H 	 -94.893 	 -19.1995 	 -62.1411
| 29> C 	 -96.6386 	 -20.268 	 -64.1224
| 30> H 	 -96.8621 	 -21.1004 	 -64.7847
| 31> H 	 -95.659 	 -20.0114 	 -64.5859
| 32> C 	 -97.5867 	 -18.9831 	 -64.144
| 33> H 	 -97.0797 	 -18.3829 	 -63.4272
| 34> H 	 -98.5956 	 -19.1476 	 -63.7297
| 35> C 	 -97.6659 	 -18.3106 	 -65.5475
| 36> H 	 -97.8276 	 -19.0701 	 -66.2985
| 37> H 	 -96.7598 	 -17.8015 	 -65.9046
| 38> H 	 -98.4036 	 -17.5467 	 -65.412
| 39> H 	 -99.531 	 -25.7754 	 -64.033
| 40> H 	 -94.4215 	 -20.7341 	 -59.9937
| 41> *
| 42>
| 43>                          ****END OF INPUT****

CARTESIAN COORDINATES (ANGSTROEM)
---------------------------------
  S    -97.394600  -24.626500  -63.372100
  C    -99.103000  -24.881500  -63.603300
  C    -99.796900  -23.739600  -63.301500
  C    -98.974700  -22.615900  -62.900800
  C    -97.654300  -22.895800  -62.866000
  H    -99.265500  -21.668600  -62.450100
  C    -101.337000  -23.574600  -63.199900
  H    -101.515000  -23.002600  -62.281200
  H    -101.591000  -24.678400  -63.085200
  C    -102.081000  -22.822900  -64.357200
  H    -101.727000  -21.820000  -64.518100
  H    -101.759000  -23.151200  -65.365000
  C    -103.569000  -22.842500  -64.215000
  H    -103.951000  -23.860700  -64.087100
  H    -103.775000  -22.374700  -63.224300
  H    -104.065000  -22.320600  -65.042500
  S    -95.860200  -22.476000  -60.865200
  C    -95.030600  -20.966400  -60.831900
  C    -95.280300  -20.226100  -61.971700
  C    -96.247300  -20.812900  -62.799100
  C    -96.624700  -22.006500  -62.351300
  H    -94.893000  -19.199500  -62.141100
  C    -96.638600  -20.268000  -64.122400
  H    -96.862100  -21.100400  -64.784700
  H    -95.659000  -20.011400  -64.585900
  C    -97.586700  -18.983100  -64.144000
  H    -97.079700  -18.382900  -63.427200
  H    -98.595600  -19.147600  -63.729700
  C    -97.665900  -18.310600  -65.547500
  H    -97.827600  -19.070100  -66.298500
  H    -96.759800  -17.801500  -65.904600
  H    -98.403600  -17.546700  -65.412000
  H    -99.531000  -25.775400  -64.033000
  H    -94.421500  -20.734100  -59.993700

 Total Charge           Charge          ....    0
 Multiplicity           Mult            ....    1
 Number of Electrons    NEL             ....  134
 Basis Dimension        Dim             ....  322

ORBITAL ENERGIES
----------------

  NO   OCC          E(Eh)            E(eV)
   0   2.0000     -88.962797     -2420.8008
   1   2.0000     -88.961524     -2420.7661
   2   2.0000     -10.326874      -281.0085
   3   2.0000     -10.315486      -280.6986
   4   2.0000     -10.315349      -280.6949
   5   2.0000     -10.314657      -280.6761
   6   2.0000     -10.302042      -280.3328
   7   2.0000     -10.301460      -280.3170
   8   2.0000     -10.294064      -280.1157
   9   2.0000     -10.293960      -280.1129
  10   2.0000     -10.291181      -280.0373
  11   2.0000     -10.290926      -280.0303
  12   2.0000     -10.290371      -280.0152
  13   2.0000     -10.285583      -279.8849
  14   2.0000     -10.280122      -279.7363
  15   2.0000     -10.280040      -279.7341
  16   2.0000      -8.078914      -219.8384
  17   2.0000      -8.075585      -219.7478
  18   2.0000      -6.037208      -164.2808
  19   2.0000      -6.034286      -164.2013
  20   2.0000      -6.033298      -164.1744
  21   2.0000      -6.030248      -164.0914
  22   2.0000      -6.029739      -164.0775
  23   2.0000      -6.026117      -163.9790
  24   2.0000      -1.014375       -27.6026
  25   2.0000      -0.984065       -26.7778
  26   2.0000      -0.906198       -24.6589
  27   2.0000      -0.904192       -24.6043
  28   2.0000      -0.874254       -23.7897
  29   2.0000      -0.856937       -23.3184
  30   2.0000      -0.845859       -23.0170
  31   2.0000      -0.815682       -22.1958
  32   2.0000      -0.781257       -21.2591
  33   2.0000      -0.765189       -20.8219
  34   2.0000      -0.709850       -19.3160
  35   2.0000      -0.701722       -19.0948
  36   2.0000      -0.698757       -19.0142
  37   2.0000      -0.667836       -18.1728
  38   2.0000      -0.644885       -17.5482
  39   2.0000      -0.611788       -16.6476
  40   2.0000      -0.599821       -16.3220
  41   2.0000      -0.567629       -15.4460
  42   2.0000      -0.554054       -15.0766
  43   2.0000      -0.547901       -14.9092
  44   2.0000      -0.537808       -14.6345
  45   2.0000      -0.528268       -14.3749
  46   2.0000      -0.517198       -14.0737
  47   2.0000      -0.516676       -14.0595
  48   2.0000      -0.506378       -13.7792
  49   2.0000      -0.495451       -13.4819
  50   2.0000      -0.493789       -13.4367
  51   2.0000      -0.479728       -13.0541
  52   2.0000      -0.469949       -12.7880
  53   2.0000      -0.467212       -12.7135
  54   2.0000      -0.456681       -12.4269
  55   2.0000      -0.450622       -12.2621
  56   2.0000      -0.443739       -12.0748
  57   2.0000      -0.440241       -11.9796
  58   2.0000      -0.435498       -11.8505
  59   2.0000      -0.424179       -11.5425
  60   2.0000      -0.415055       -11.2942
  61   2.0000      -0.411145       -11.1878
  62   2.0000      -0.405208       -11.0263
  63   2.0000      -0.346711        -9.4345
  64   2.0000      -0.334217        -9.0945
  65   2.0000      -0.324472        -8.8293
  66   2.0000      -0.300803        -8.1853
  67   0.0000       0.041616         1.1324
  68   0.0000       0.064620         1.7584
  69   0.0000       0.118058         3.2125
  70   0.0000       0.120629         3.2825
  71   0.0000       0.130207         3.5431

MULLIKEN ATOMIC CHARGES
-----------------------
   0 S :    0.086353
   1 C :   -0.119478
   2 C :   -0.085361
   3 C :    0.045894
   4 C :   -0.165419
   5 H :    0.021500
   6 C :    0.031315
   7 H :    0.034541
   8 H :    0.034979
   9 C :   -0.052153
  10 H :    0.011680
  11 H :    0.013132
  12 C :   -0.033786
  13 H :    0.029046
  14 H :    0.024516
  15 H :    0.046299
  16 S :    0.116854
  17 C :   -0.090133
  18 C :   -0.027075
  19 C :   -0.012467
  20 C :   -0.187059
  21 H :    0.029317
  22 C :    0.029574
  23 H :    0.026980
  24 H :    0.021369
  25 C :   -0.055855
  26 H :    0.014617
  27 H :    0.036913
  28 C :   -0.029689
  29 H :    0.037721
  30 H :    0.028770
  31 H :    0.035958
  32 H :    0.052056
  33 H :    0.049089
Sum of atomic charges:   -0.0000000

LOEWDIN ATOMIC CHARGES
----------------------
   0 S :    0.363772
   1 C :   -0.197561
   2 C :   -0.066516
   3 C :   -0.061422
   4 C :   -0.169367
   5 H :    0.035572
   6 C :   -0.031094
   7 H :    0.032199
   8 H :    0.037889
   9 C :   -0.053215
  10 H :    0.021662
  11 H :    0.023319
  12 C :   -0.066387
  13 H :    0.024937
  14 H :    0.027853
  15 H :    0.030731
  16 S :    0.421825
  17 C :   -0.179517
  18 C :   -0.073238
  19 C :   -0.068368
  20 C :   -0.202343
  21 H :    0.036566
  22 C :   -0.037211
  23 H :    0.029323
  24 H :    0.037395
  25 C :   -0.031011
  26 H :    0.018051
  27 H :    0.025656
  28 C :   -0.062883
  29 H :    0.027196
  30 H :    0.026993
  31 H :    0.026387
  32 H :    0.031727
  33 H :    0.021077

  Mayer bond orders larger than 0.100000
B(  0-S ,  1-C ) :   1.1176 B(  0-S ,  4-C ) :   1.1135 B(  1-C ,  2-C ) :   1.6580
B(  1-C , 32-H ) :   0.9674 B(  2-C ,  3-C ) :   1.1928 B(  2-C ,  6-C ) :   1.0092
B(  3-C ,  4-C ) :   1.6471 B(  3-C ,  5-H ) :   0.9860 B(  4-C , 20-C ) :   1.0112
B(  6-C ,  7-H ) :   0.9426 B(  6-C ,  8-H ) :   0.9496 B(  6-C ,  9-C ) :   1.0508
B(  9-C , 10-H ) :   0.9482 B(  9-C , 11-H ) :   0.9503 B(  9-C , 12-C ) :   1.0876
B( 12-C , 13-H ) :   0.9750 B( 12-C , 14-H ) :   0.9711 B( 12-C , 15-H ) :   0.9717
B( 16-S , 17-C ) :   1.1696 B( 16-S , 20-C ) :   1.1439 B( 17-C , 18-C ) :   1.5828
B( 17-C , 33-H ) :   0.9771 B( 18-C , 19-C ) :   1.2416 B( 18-C , 21-H ) :   0.9830
B( 19-C , 20-C ) :   1.6381 B( 19-C , 22-C ) :   1.0397 B( 22-C , 23-H ) :   0.9308
B( 22-C , 24-H ) :   0.9409 B( 22-C , 25-C ) :   1.0297 B( 25-C , 26-H ) :   0.9579
B( 25-C , 27-H ) :   0.9594 B( 25-C , 28-C ) :   1.0751 B( 28-C , 29-H ) :   0.9770
B( 28-C , 30-H ) :   0.9753 B( 28-C , 31-H ) :   0.9760

Dispersion correction           -0.013912364
FINAL SINGLE POINT ENERGY     -1339.870819466147

DIPOLE MOMENT
-------------
                                X             Y             Z
Electronic contribution:     21.76761     -16.22945      14.54579
Nuclear contribution   :    -22.09511      16.80342     -14.69302
                        -----------------------------------------
Total Dipole Moment    :     -0.32750       0.57397      -0.14723
                        -----------------------------------------
Magnitude (a.u.)       :      0.67703
Magnitude (Debye)      :      1.72087

Rotational constants in cm-1:     0.016397     0.008875     0.006571
Rotational constants in MHz :   491.557883   266.079267   197.001475

                             ****ORCA TERMINATED NORMALLY****
TOTAL RUN TIME: 0 days 0 hours 0 minutes 21 seconds 246 msec
