                         Program Version 4.2.1 -  RELEASE  -
|  1> ! wB97X-D3 SP def2-SVP
|  2> %pal
|  3> nprocs 24
|  4> end
|  5>
|  6> * xyz 0 1
|  7> S 	 -74.4445 	 7.65612 	 -103.549
|  8> C 	 -75.6559 	 8.933 	 -103.739
|  9> C 	 -76.0045 	 9.04892 	 -105.049
| 10> C 	 -75.3925 	 8.03362 	 -105.913
| 11> C 	 -74.4627 	 7.25776 	 -105.262
| 12> H 	 -75.5552 	 8.07398 	 -106.981
| 13> C 	 -76.9722 	 10.0422 	 -105.59
| 14> H 	 -76.7331 	 10.2095 	 -106.607
| 15> H 	 -76.8269 	 11.0165 	 -105.139
| 16> C 	 -78.4516 	 9.54604 	 -105.544
| 17> H 	 -78.798 	 9.47483 	 -104.505
| 18> H 	 -78.9873 	 10.2451 	 -106.131
| 19> C 	 -78.763 	 8.22842 	 -106.225
| 20> H 	 -78.2389 	 7.37456 	 -105.814
| 21> H 	 -79.783 	 7.7953 	 -106.114
| 22> H 	 -78.4172 	 8.30955 	 -107.333
| 23> S 	 -72.7397 	 5.12881 	 -104.772
| 24> C 	 -72.2403 	 4.1085 	 -106.085
| 25> C 	 -72.7832 	 4.5248 	 -107.198
| 26> C 	 -73.5668 	 5.71379 	 -107.121
| 27> C 	 -73.7014 	 6.13668 	 -105.788
| 28> H 	 -72.5657 	 4.03189 	 -108.16
| 29> C 	 -74.1152 	 6.32821 	 -108.41
| 30> H 	 -73.5344 	 6.03003 	 -109.276
| 31> H 	 -74.0512 	 7.39898 	 -108.415
| 32> C 	 -75.5622 	 5.87097 	 -108.672
| 33> H 	 -76.0122 	 5.93208 	 -107.718
| 34> H 	 -75.5298 	 4.76233 	 -108.906
| 35> C 	 -76.241 	 6.68826 	 -109.766
| 36> H 	 -75.775 	 6.72009 	 -110.742
| 37> H 	 -76.3975 	 7.63068 	 -109.216
| 38> H 	 -77.2701 	 6.23487 	 -109.896
| 39> H 	 -75.9951 	 9.4873 	 -102.86
| 40> H 	 -71.5414 	 3.2951 	 -106.064
| 41> *
| 42>
| 43>                          ****END OF INPUT****

CARTESIAN COORDINATES (ANGSTROEM)
---------------------------------
  S    -74.444500    7.656120  -103.549000
  C    -75.655900    8.933000  -103.739000
  C    -76.004500    9.048920  -105.049000
  C    -75.392500    8.033620  -105.913000
  C    -74.462700    7.257760  -105.262000
  H    -75.555200    8.073980  -106.981000
  C    -76.972200   10.042200  -105.590000
  H    -76.733100   10.209500  -106.607000
  H    -76.826900   11.016500  -105.139000
  C    -78.451600    9.546040  -105.544000
  H    -78.798000    9.474830  -104.505000
  H    -78.987300   10.245100  -106.131000
  C    -78.763000    8.228420  -106.225000
  H    -78.238900    7.374560  -105.814000
  H    -79.783000    7.795300  -106.114000
  H    -78.417200    8.309550  -107.333000
  S    -72.739700    5.128810  -104.772000
  C    -72.240300    4.108500  -106.085000
  C    -72.783200    4.524800  -107.198000
  C    -73.566800    5.713790  -107.121000
  C    -73.701400    6.136680  -105.788000
  H    -72.565700    4.031890  -108.160000
  C    -74.115200    6.328210  -108.410000
  H    -73.534400    6.030030  -109.276000
  H    -74.051200    7.398980  -108.415000
  C    -75.562200    5.870970  -108.672000
  H    -76.012200    5.932080  -107.718000
  H    -75.529800    4.762330  -108.906000
  C    -76.241000    6.688260  -109.766000
  H    -75.775000    6.720090  -110.742000
  H    -76.397500    7.630680  -109.216000
  H    -77.270100    6.234870  -109.896000
  H    -75.995100    9.487300  -102.860000
  H    -71.541400    3.295100  -106.064000

 Total Charge           Charge          ....    0
 Multiplicity           Mult            ....    1
 Number of Electrons    NEL             ....  134
 Basis Dimension        Dim             ....  322

ORBITAL ENERGIES
----------------

  NO   OCC          E(Eh)            E(eV)
   0   2.0000     -88.964474     -2420.8464
   1   2.0000     -88.962107     -2420.7820
   2   2.0000     -10.334810      -281.2245
   3   2.0000     -10.330099      -281.0963
   4   2.0000     -10.315589      -280.7015
   5   2.0000     -10.308591      -280.5110
   6   2.0000     -10.303041      -280.3600
   7   2.0000     -10.300586      -280.2932
   8   2.0000     -10.296359      -280.1782
   9   2.0000     -10.289989      -280.0048
  10   2.0000     -10.289289      -279.9858
  11   2.0000     -10.287019      -279.9240
  12   2.0000     -10.286948      -279.9221
  13   2.0000     -10.285428      -279.8807
  14   2.0000     -10.285178      -279.8739
  15   2.0000     -10.283767      -279.8355
  16   2.0000      -8.080053      -219.8694
  17   2.0000      -8.076828      -219.7817
  18   2.0000      -6.038659      -164.3203
  19   2.0000      -6.035564      -164.2360
  20   2.0000      -6.034438      -164.2054
  21   2.0000      -6.031342      -164.1212
  22   2.0000      -6.030663      -164.1027
  23   2.0000      -6.027351      -164.0126
  24   2.0000      -1.013096       -27.5677
  25   2.0000      -0.987846       -26.8807
  26   2.0000      -0.915128       -24.9019
  27   2.0000      -0.913993       -24.8710
  28   2.0000      -0.875474       -23.8229
  29   2.0000      -0.851703       -23.1760
  30   2.0000      -0.841999       -22.9119
  31   2.0000      -0.822196       -22.3731
  32   2.0000      -0.784112       -21.3368
  33   2.0000      -0.774665       -21.0797
  34   2.0000      -0.708379       -19.2760
  35   2.0000      -0.701729       -19.0950
  36   2.0000      -0.693717       -18.8770
  37   2.0000      -0.664627       -18.0854
  38   2.0000      -0.636051       -17.3078
  39   2.0000      -0.624228       -16.9861
  40   2.0000      -0.602255       -16.3882
  41   2.0000      -0.580451       -15.7949
  42   2.0000      -0.572059       -15.5665
  43   2.0000      -0.553619       -15.0647
  44   2.0000      -0.538802       -14.6616
  45   2.0000      -0.522942       -14.2300
  46   2.0000      -0.518226       -14.1016
  47   2.0000      -0.512162       -13.9366
  48   2.0000      -0.509617       -13.8674
  49   2.0000      -0.505656       -13.7596
  50   2.0000      -0.495325       -13.4785
  51   2.0000      -0.482494       -13.1293
  52   2.0000      -0.474519       -12.9123
  53   2.0000      -0.464978       -12.6527
  54   2.0000      -0.455970       -12.4076
  55   2.0000      -0.453974       -12.3533
  56   2.0000      -0.449640       -12.2353
  57   2.0000      -0.435933       -11.8623
  58   2.0000      -0.429082       -11.6759
  59   2.0000      -0.423520       -11.5246
  60   2.0000      -0.415078       -11.2949
  61   2.0000      -0.413973       -11.2648
  62   2.0000      -0.409339       -11.1387
  63   2.0000      -0.369279       -10.0486
  64   2.0000      -0.334612        -9.1053
  65   2.0000      -0.324431        -8.8282
  66   2.0000      -0.285995        -7.7823
  67   0.0000       0.020476         0.5572
  68   0.0000       0.092822         2.5258
  69   0.0000       0.101247         2.7551
  70   0.0000       0.118835         3.2337
  71   0.0000       0.126673         3.4469

MULLIKEN ATOMIC CHARGES
-----------------------
   0 S :    0.079012
   1 C :   -0.138757
   2 C :   -0.082948
   3 C :   -0.012500
   4 C :   -0.076823
   5 H :   -0.017432
   6 C :    0.090839
   7 H :   -0.000238
   8 H :    0.029805
   9 C :   -0.027024
  10 H :    0.033984
  11 H :    0.025949
  12 C :   -0.110893
  13 H :    0.036988
  14 H :    0.044612
  15 H :    0.034423
  16 S :    0.098301
  17 C :   -0.060345
  18 C :   -0.022154
  19 C :   -0.089281
  20 C :   -0.098677
  21 H :    0.017824
  22 C :    0.058782
  23 H :    0.013842
  24 H :    0.022031
  25 C :   -0.103507
  26 H :    0.026397
  27 H :    0.028231
  28 C :   -0.023161
  29 H :    0.047805
  30 H :    0.028608
  31 H :    0.042024
  32 H :    0.058762
  33 H :    0.045521
Sum of atomic charges:   -0.0000000

LOEWDIN ATOMIC CHARGES
----------------------
   0 S :    0.379041
   1 C :   -0.187273
   2 C :   -0.060586
   3 C :   -0.069709
   4 C :   -0.173660
   5 H :    0.025275
   6 C :   -0.028837
   7 H :    0.022681
   8 H :    0.034333
   9 C :   -0.032338
  10 H :    0.025667
  11 H :    0.021098
  12 C :   -0.082030
  13 H :    0.022179
  14 H :    0.034797
  15 H :    0.030402
  16 S :    0.413471
  17 C :   -0.184355
  18 C :   -0.075843
  19 C :   -0.052982
  20 C :   -0.201937
  21 H :    0.035177
  22 C :   -0.031702
  23 H :    0.027409
  24 H :    0.021508
  25 C :   -0.043850
  26 H :    0.017012
  27 H :    0.026109
  28 C :   -0.066631
  29 H :    0.027126
  30 H :    0.026017
  31 H :    0.036166
  32 H :    0.032916
  33 H :    0.033348

  Mayer bond orders larger than 0.100000
B(  0-S ,  1-C ) :   1.1128 B(  0-S ,  4-C ) :   1.1355 B(  1-C ,  2-C ) :   1.6272
B(  1-C , 32-H ) :   0.9734 B(  2-C ,  3-C ) :   1.2240 B(  2-C ,  6-C ) :   1.0357
B(  3-C ,  4-C ) :   1.5745 B(  3-C ,  5-H ) :   0.9817 B(  4-C , 20-C ) :   1.0967
B(  6-C ,  7-H ) :   0.9290 B(  6-C ,  8-H ) :   0.9403 B(  6-C ,  9-C ) :   1.0694
B(  9-C , 10-H ) :   0.9562 B(  9-C , 11-H ) :   0.9562 B(  9-C , 12-C ) :   1.0816
B( 12-C , 13-H ) :   0.9671 B( 12-C , 14-H ) :   0.9699 B( 12-C , 15-H ) :   0.9716
B( 16-S , 17-C ) :   1.1339 B( 16-S , 20-C ) :   1.1360 B( 17-C , 18-C ) :   1.6337
B( 17-C , 33-H ) :   0.9673 B( 18-C , 19-C ) :   1.2676 B( 18-C , 21-H ) :   0.9819
B( 19-C , 20-C ) :   1.5677 B( 19-C , 22-C ) :   1.0448 B( 22-C , 23-H ) :   0.9293
B( 22-C , 24-H ) :   0.9373 B( 22-C , 25-C ) :   1.0523 B( 25-C , 26-H ) :   0.9609
B( 25-C , 27-H ) :   0.9494 B( 25-C , 28-C ) :   1.0727 B( 28-C , 29-H ) :   0.9721
B( 28-C , 30-H ) :   0.9724 B( 28-C , 31-H ) :   0.9694

Dispersion correction           -0.015667470
FINAL SINGLE POINT ENERGY     -1339.881095439078

DIPOLE MOMENT
-------------
                                X             Y             Z
Electronic contribution:     21.82298      -7.51120      21.31358
Nuclear contribution   :    -22.15023       7.64970     -21.94032
                        -----------------------------------------
Total Dipole Moment    :     -0.32725       0.13851      -0.62674
                        -----------------------------------------
Magnitude (a.u.)       :      0.72047
Magnitude (Debye)      :      1.83129

Rotational constants in cm-1:     0.018155     0.010677     0.007188
Rotational constants in MHz :   544.282671   320.078074   215.488215

                             ****ORCA TERMINATED NORMALLY****
TOTAL RUN TIME: 0 days 0 hours 0 minutes 23 seconds 149 msec
