                         Program Version 4.2.1 -  RELEASE  -
|  1> ! wB97X-D3 SP def2-SVP
|  2> %pal
|  3> nprocs 24
|  4> end
|  5>
|  6> * xyz 0 1
|  7> S 	 -47.3494 	 7.10288 	 -19.6448
|  8> C 	 -47.5444 	 6.09613 	 -18.3145
|  9> C 	 -48.1908 	 6.76476 	 -17.2877
| 10> C 	 -48.4933 	 8.13396 	 -17.6288
| 11> C 	 -48.0479 	 8.55715 	 -18.8901
| 12> H 	 -49.06 	 8.75112 	 -16.9454
| 13> C 	 -48.5466 	 6.08799 	 -15.9657
| 14> H 	 -48.4763 	 5.01467 	 -16.2277
| 15> H 	 -49.5184 	 6.39869 	 -15.6782
| 16> C 	 -47.5853 	 6.28955 	 -14.8303
| 17> H 	 -47.7752 	 7.28107 	 -14.4225
| 18> H 	 -47.8692 	 5.58766 	 -13.9903
| 19> C 	 -46.1143 	 6.09758 	 -15.2437
| 20> H 	 -45.4767 	 6.09645 	 -14.3341
| 21> H 	 -45.8521 	 5.1625 	 -15.7328
| 22> H 	 -45.7197 	 6.98879 	 -15.7806
| 23> S 	 -48.4117 	 9.71234 	 -21.2367
| 24> C 	 -48.4119 	 11.4355 	 -21.4495
| 25> C 	 -48.1005 	 12.0579 	 -20.2851
| 26> C 	 -48.0163 	 11.2099 	 -19.1711
| 27> C 	 -48.0824 	 9.88666 	 -19.5319
| 28> H 	 -47.9396 	 13.1206 	 -20.3547
| 29> C 	 -47.7962 	 11.7097 	 -17.7903
| 30> H 	 -47.2602 	 12.6477 	 -18.0031
| 31> H 	 -47.0939 	 10.9406 	 -17.4292
| 32> C 	 -48.9264 	 11.9519 	 -16.8027
| 33> H 	 -49.6256 	 11.0737 	 -16.8612
| 34> H 	 -49.4838 	 12.9027 	 -17.0161
| 35> C 	 -48.424 	 12.0457 	 -15.3482
| 36> H 	 -47.8621 	 11.206 	 -15.0574
| 37> H 	 -49.3151 	 12.1573 	 -14.6701
| 38> H 	 -47.7714 	 12.8788 	 -15.1678
| 39> H 	 -47.4417 	 5.06025 	 -18.2807
| 40> H 	 -48.4621 	 11.9944 	 -22.3545
| 41> *
| 42>
| 43>                          ****END OF INPUT****

CARTESIAN COORDINATES (ANGSTROEM)
---------------------------------
  S    -47.349400    7.102880  -19.644800
  C    -47.544400    6.096130  -18.314500
  C    -48.190800    6.764760  -17.287700
  C    -48.493300    8.133960  -17.628800
  C    -48.047900    8.557150  -18.890100
  H    -49.060000    8.751120  -16.945400
  C    -48.546600    6.087990  -15.965700
  H    -48.476300    5.014670  -16.227700
  H    -49.518400    6.398690  -15.678200
  C    -47.585300    6.289550  -14.830300
  H    -47.775200    7.281070  -14.422500
  H    -47.869200    5.587660  -13.990300
  C    -46.114300    6.097580  -15.243700
  H    -45.476700    6.096450  -14.334100
  H    -45.852100    5.162500  -15.732800
  H    -45.719700    6.988790  -15.780600
  S    -48.411700    9.712340  -21.236700
  C    -48.411900   11.435500  -21.449500
  C    -48.100500   12.057900  -20.285100
  C    -48.016300   11.209900  -19.171100
  C    -48.082400    9.886660  -19.531900
  H    -47.939600   13.120600  -20.354700
  C    -47.796200   11.709700  -17.790300
  H    -47.260200   12.647700  -18.003100
  H    -47.093900   10.940600  -17.429200
  C    -48.926400   11.951900  -16.802700
  H    -49.625600   11.073700  -16.861200
  H    -49.483800   12.902700  -17.016100
  C    -48.424000   12.045700  -15.348200
  H    -47.862100   11.206000  -15.057400
  H    -49.315100   12.157300  -14.670100
  H    -47.771400   12.878800  -15.167800
  H    -47.441700    5.060250  -18.280700
  H    -48.462100   11.994400  -22.354500

 Total Charge           Charge          ....    0
 Multiplicity           Mult            ....    1
 Number of Electrons    NEL             ....  134
 Basis Dimension        Dim             ....  322

ORBITAL ENERGIES
----------------

  NO   OCC          E(Eh)            E(eV)
   0   2.0000     -88.965834     -2420.8834
   1   2.0000     -88.962680     -2420.7976
   2   2.0000     -10.338559      -281.3265
   3   2.0000     -10.328468      -281.0519
   4   2.0000     -10.310187      -280.5545
   5   2.0000     -10.306164      -280.4450
   6   2.0000     -10.300741      -280.2974
   7   2.0000     -10.298199      -280.2282
   8   2.0000     -10.297683      -280.2142
   9   2.0000     -10.296954      -280.1943
  10   2.0000     -10.290220      -280.0111
  11   2.0000     -10.289482      -279.9910
  12   2.0000     -10.288345      -279.9601
  13   2.0000     -10.287094      -279.9261
  14   2.0000     -10.279548      -279.7207
  15   2.0000     -10.278043      -279.6798
  16   2.0000      -8.081121      -219.8985
  17   2.0000      -8.078086      -219.8159
  18   2.0000      -6.039627      -164.3466
  19   2.0000      -6.036627      -164.2650
  20   2.0000      -6.035375      -164.2309
  21   2.0000      -6.032465      -164.1517
  22   2.0000      -6.031978      -164.1385
  23   2.0000      -6.028785      -164.0516
  24   2.0000      -1.012602       -27.5543
  25   2.0000      -0.991509       -26.9803
  26   2.0000      -0.915015       -24.8988
  27   2.0000      -0.912439       -24.8287
  28   2.0000      -0.873638       -23.7729
  29   2.0000      -0.857243       -23.3268
  30   2.0000      -0.842008       -22.9122
  31   2.0000      -0.819172       -22.2908
  32   2.0000      -0.782406       -21.2903
  33   2.0000      -0.775946       -21.1146
  34   2.0000      -0.713419       -19.4131
  35   2.0000      -0.698644       -19.0111
  36   2.0000      -0.692863       -18.8538
  37   2.0000      -0.667397       -18.1608
  38   2.0000      -0.640240       -17.4218
  39   2.0000      -0.623972       -16.9791
  40   2.0000      -0.590322       -16.0635
  41   2.0000      -0.570743       -15.5307
  42   2.0000      -0.566446       -15.4138
  43   2.0000      -0.559277       -15.2187
  44   2.0000      -0.543048       -14.7771
  45   2.0000      -0.529941       -14.4204
  46   2.0000      -0.520426       -14.1615
  47   2.0000      -0.515012       -14.0142
  48   2.0000      -0.507782       -13.8175
  49   2.0000      -0.504744       -13.7348
  50   2.0000      -0.487297       -13.2600
  51   2.0000      -0.481682       -13.1072
  52   2.0000      -0.472189       -12.8489
  53   2.0000      -0.467071       -12.7096
  54   2.0000      -0.458926       -12.4880
  55   2.0000      -0.448042       -12.1918
  56   2.0000      -0.442825       -12.0499
  57   2.0000      -0.438425       -11.9302
  58   2.0000      -0.430065       -11.7027
  59   2.0000      -0.424684       -11.5562
  60   2.0000      -0.423336       -11.5196
  61   2.0000      -0.414038       -11.2666
  62   2.0000      -0.408293       -11.1102
  63   2.0000      -0.357915        -9.7394
  64   2.0000      -0.331829        -9.0295
  65   2.0000      -0.326699        -8.8899
  66   2.0000      -0.289499        -7.8777
  67   0.0000       0.024851         0.6762
  68   0.0000       0.078535         2.1370
  69   0.0000       0.114728         3.1219
  70   0.0000       0.120580         3.2811
  71   0.0000       0.126346         3.4380

MULLIKEN ATOMIC CHARGES
-----------------------
   0 S :    0.115130
   1 C :   -0.076532
   2 C :   -0.154501
   3 C :    0.024042
   4 C :   -0.112291
   5 H :   -0.005808
   6 C :    0.097536
   7 H :    0.017045
   8 H :    0.018946
   9 C :   -0.071033
  10 H :    0.021067
  11 H :    0.038645
  12 C :   -0.066303
  13 H :    0.026305
  14 H :    0.032575
  15 H :    0.052498
  16 S :    0.091397
  17 C :   -0.062763
  18 C :   -0.053528
  19 C :   -0.034405
  20 C :   -0.140746
  21 H :    0.012078
  22 C :    0.041433
  23 H :    0.020253
  24 H :    0.034361
  25 C :   -0.057015
  26 H :    0.035637
  27 H :    0.039660
  28 C :   -0.042166
  29 H :    0.018695
  30 H :    0.041724
  31 H :    0.026130
  32 H :    0.030271
  33 H :    0.041663
Sum of atomic charges:    0.0000000

LOEWDIN ATOMIC CHARGES
----------------------
   0 S :    0.426080
   1 C :   -0.210772
   2 C :   -0.065253
   3 C :   -0.069918
   4 C :   -0.192359
   5 H :    0.024251
   6 C :   -0.029530
   7 H :    0.031439
   8 H :    0.024674
   9 C :   -0.044278
  10 H :    0.021052
  11 H :    0.030430
  12 C :   -0.074248
  13 H :    0.028531
  14 H :    0.023138
  15 H :    0.034910
  16 S :    0.412798
  17 C :   -0.182662
  18 C :   -0.073850
  19 C :   -0.062211
  20 C :   -0.189300
  21 H :    0.032080
  22 C :   -0.040606
  23 H :    0.034179
  24 H :    0.038422
  25 C :   -0.040490
  26 H :    0.025992
  27 H :    0.031588
  28 C :   -0.062421
  29 H :    0.015720
  30 H :    0.033861
  31 H :    0.022057
  32 H :    0.020093
  33 H :    0.026603

  Mayer bond orders larger than 0.100000
B(  0-S ,  1-C ) :   1.1642 B(  0-S ,  4-C ) :   1.1558 B(  1-C ,  2-C ) :   1.5767
B(  1-C ,  4-C ) :   0.1003 B(  1-C , 32-H ) :   0.9678 B(  2-C ,  3-C ) :   1.2800
B(  2-C ,  6-C ) :   1.0248 B(  3-C ,  4-C ) :   1.5265 B(  3-C ,  5-H ) :   0.9995
B(  4-C , 20-C ) :   1.0362 B(  6-C ,  7-H ) :   0.9377 B(  6-C ,  8-H ) :   0.9401
B(  6-C ,  9-C ) :   1.0804 B(  9-C , 10-H ) :   0.9524 B(  9-C , 11-H ) :   0.9573
B(  9-C , 12-C ) :   1.0781 B( 12-C , 13-H ) :   0.9714 B( 12-C , 14-H ) :   0.9770
B( 12-C , 15-H ) :   0.9679 B( 16-S , 17-C ) :   1.1513 B( 16-S , 20-C ) :   1.1419
B( 17-C , 18-C ) :   1.6336 B( 17-C , 33-H ) :   0.9653 B( 18-C , 19-C ) :   1.2311
B( 18-C , 21-H ) :   0.9911 B( 19-C , 20-C ) :   1.5951 B( 19-C , 22-C ) :   1.0325
B( 22-C , 23-H ) :   0.9255 B( 22-C , 24-H ) :   0.9359 B( 22-C , 25-C ) :   1.0689
B( 25-C , 26-H ) :   0.9540 B( 25-C , 27-H ) :   0.9496 B( 25-C , 28-C ) :   1.0799
B( 28-C , 29-H ) :   0.9751 B( 28-C , 30-H ) :   0.9741 B( 28-C , 31-H ) :   0.9750

Dispersion correction           -0.014487444
FINAL SINGLE POINT ENERGY     -1339.879021009837

DIPOLE MOMENT
-------------
                                X             Y             Z
Electronic contribution:     -1.48177      -3.27034     -29.63660
Nuclear contribution   :      1.44278       3.55100      30.23028
                        -----------------------------------------
Total Dipole Moment    :     -0.03898       0.28066       0.59368
                        -----------------------------------------
Magnitude (a.u.)       :      0.65783
Magnitude (Debye)      :      1.67208

Rotational constants in cm-1:     0.018152     0.009690     0.006746
Rotational constants in MHz :   544.172767   290.510216   202.247606

                             ****ORCA TERMINATED NORMALLY****
TOTAL RUN TIME: 0 days 0 hours 0 minutes 22 seconds 34 msec
