                         Program Version 4.2.1 -  RELEASE  -
|  1> ! wB97X-D3 SP def2-SVP
|  2> %pal
|  3> nprocs 24
|  4> end
|  5>
|  6> * xyz 0 1
|  7> S 	 -114.846 	 48.6932 	 -117.44
|  8> C 	 -114.317 	 46.9941 	 -117.539
|  9> C 	 -114.899 	 46.2213 	 -116.6
| 10> C 	 -115.806 	 46.921 	 -115.726
| 11> C 	 -115.833 	 48.2788 	 -115.981
| 12> H 	 -116.467 	 46.5974 	 -114.875
| 13> C 	 -114.667 	 44.7567 	 -116.376
| 14> H 	 -114.051 	 44.299 	 -117.177
| 15> H 	 -115.613 	 44.3128 	 -116.577
| 16> C 	 -113.961 	 44.3964 	 -115.009
| 17> H 	 -114.495 	 44.8001 	 -114.236
| 18> H 	 -114.039 	 43.35 	 -114.863
| 19> C 	 -112.553 	 44.914 	 -114.851
| 20> H 	 -112.515 	 45.9842 	 -114.96
| 21> H 	 -112.149 	 44.7499 	 -113.904
| 22> H 	 -111.982 	 44.4742 	 -115.654
| 23> S 	 -115.486 	 50.6472 	 -114.616
| 24> C 	 -116.9 	 51.5948 	 -114.17
| 25> C 	 -118.088 	 50.8596 	 -114.309
| 26> C 	 -117.819 	 49.5413 	 -114.814
| 27> C 	 -116.505 	 49.2781 	 -115.158
| 28> H 	 -119.063 	 51.3036 	 -113.94
| 29> C 	 -118.97 	 48.5101 	 -115.048
| 30> H 	 -118.73 	 47.7448 	 -115.787
| 31> H 	 -119.701 	 49.2196 	 -115.383
| 32> C 	 -119.584 	 47.8682 	 -113.824
| 33> H 	 -120.443 	 47.247 	 -114.002
| 34> H 	 -119.861 	 48.6919 	 -113.131
| 35> C 	 -118.57 	 47.0547 	 -112.982
| 36> H 	 -117.671 	 47.6481 	 -112.738
| 37> H 	 -118.199 	 46.2053 	 -113.549
| 38> H 	 -119.03 	 46.6662 	 -112.041
| 39> H 	 -113.527 	 46.7168 	 -118.19
| 40> H 	 -116.756 	 52.6145 	 -113.835
| 41> *
| 42>
| 43>                          ****END OF INPUT****

CARTESIAN COORDINATES (ANGSTROEM)
---------------------------------
  S    -114.846000   48.693200  -117.440000
  C    -114.317000   46.994100  -117.539000
  C    -114.899000   46.221300  -116.600000
  C    -115.806000   46.921000  -115.726000
  C    -115.833000   48.278800  -115.981000
  H    -116.467000   46.597400  -114.875000
  C    -114.667000   44.756700  -116.376000
  H    -114.051000   44.299000  -117.177000
  H    -115.613000   44.312800  -116.577000
  C    -113.961000   44.396400  -115.009000
  H    -114.495000   44.800100  -114.236000
  H    -114.039000   43.350000  -114.863000
  C    -112.553000   44.914000  -114.851000
  H    -112.515000   45.984200  -114.960000
  H    -112.149000   44.749900  -113.904000
  H    -111.982000   44.474200  -115.654000
  S    -115.486000   50.647200  -114.616000
  C    -116.900000   51.594800  -114.170000
  C    -118.088000   50.859600  -114.309000
  C    -117.819000   49.541300  -114.814000
  C    -116.505000   49.278100  -115.158000
  H    -119.063000   51.303600  -113.940000
  C    -118.970000   48.510100  -115.048000
  H    -118.730000   47.744800  -115.787000
  H    -119.701000   49.219600  -115.383000
  C    -119.584000   47.868200  -113.824000
  H    -120.443000   47.247000  -114.002000
  H    -119.861000   48.691900  -113.131000
  C    -118.570000   47.054700  -112.982000
  H    -117.671000   47.648100  -112.738000
  H    -118.199000   46.205300  -113.549000
  H    -119.030000   46.666200  -112.041000
  H    -113.527000   46.716800  -118.190000
  H    -116.756000   52.614500  -113.835000

 Total Charge           Charge          ....    0
 Multiplicity           Mult            ....    1
 Number of Electrons    NEL             ....  134
 Basis Dimension        Dim             ....  322

ORBITAL ENERGIES
----------------

  NO   OCC          E(Eh)            E(eV)
   0   2.0000     -88.964351     -2420.8431
   1   2.0000     -88.963219     -2420.8123
   2   2.0000     -10.334178      -281.2073
   3   2.0000     -10.328808      -281.0612
   4   2.0000     -10.325271      -280.9649
   5   2.0000     -10.312265      -280.6110
   6   2.0000     -10.311684      -280.5952
   7   2.0000     -10.307931      -280.4931
   8   2.0000     -10.300561      -280.2925
   9   2.0000     -10.299672      -280.2683
  10   2.0000     -10.291169      -280.0369
  11   2.0000     -10.290727      -280.0249
  12   2.0000     -10.287487      -279.9368
  13   2.0000     -10.279148      -279.7098
  14   2.0000     -10.276335      -279.6333
  15   2.0000     -10.266178      -279.3569
  16   2.0000      -8.077863      -219.8098
  17   2.0000      -8.077606      -219.8028
  18   2.0000      -6.036520      -164.2621
  19   2.0000      -6.036088      -164.2503
  20   2.0000      -6.032725      -164.1588
  21   2.0000      -6.032127      -164.1425
  22   2.0000      -6.028442      -164.0422
  23   2.0000      -6.028343      -164.0396
  24   2.0000      -0.999847       -27.2072
  25   2.0000      -0.978824       -26.6351
  26   2.0000      -0.909951       -24.7610
  27   2.0000      -0.908461       -24.7205
  28   2.0000      -0.870075       -23.6759
  29   2.0000      -0.847715       -23.0675
  30   2.0000      -0.843373       -22.9493
  31   2.0000      -0.813968       -22.1492
  32   2.0000      -0.782831       -21.3019
  33   2.0000      -0.775156       -21.0931
  34   2.0000      -0.710688       -19.3388
  35   2.0000      -0.701130       -19.0787
  36   2.0000      -0.692173       -18.8350
  37   2.0000      -0.659644       -17.9498
  38   2.0000      -0.643476       -17.5099
  39   2.0000      -0.616518       -16.7763
  40   2.0000      -0.596290       -16.2259
  41   2.0000      -0.565982       -15.4012
  42   2.0000      -0.558811       -15.2060
  43   2.0000      -0.552874       -15.0445
  44   2.0000      -0.546784       -14.8788
  45   2.0000      -0.538024       -14.6404
  46   2.0000      -0.518506       -14.1093
  47   2.0000      -0.517255       -14.0752
  48   2.0000      -0.499288       -13.5863
  49   2.0000      -0.490903       -13.3581
  50   2.0000      -0.487379       -13.2623
  51   2.0000      -0.473920       -12.8960
  52   2.0000      -0.473493       -12.8844
  53   2.0000      -0.467838       -12.7305
  54   2.0000      -0.455968       -12.4075
  55   2.0000      -0.448248       -12.1974
  56   2.0000      -0.445218       -12.1150
  57   2.0000      -0.440926       -11.9982
  58   2.0000      -0.435127       -11.8404
  59   2.0000      -0.421635       -11.4733
  60   2.0000      -0.417708       -11.3664
  61   2.0000      -0.414535       -11.2801
  62   2.0000      -0.408975       -11.1288
  63   2.0000      -0.343023        -9.3341
  64   2.0000      -0.333570        -9.0769
  65   2.0000      -0.326218        -8.8768
  66   2.0000      -0.297486        -8.0950
  67   0.0000       0.026127         0.7110
  68   0.0000       0.064490         1.7549
  69   0.0000       0.105737         2.8772
  70   0.0000       0.119063         3.2399
  71   0.0000       0.128218         3.4890

MULLIKEN ATOMIC CHARGES
-----------------------
   0 S :    0.097902
   1 C :   -0.121257
   2 C :   -0.060008
   3 C :    0.015978
   4 C :   -0.138600
   5 H :    0.015061
   6 C :    0.064858
   7 H :    0.011243
   8 H :    0.027411
   9 C :   -0.028613
  10 H :    0.000892
  11 H :    0.019541
  12 C :   -0.014335
  13 H :    0.031745
  14 H :    0.023749
  15 H :    0.020916
  16 S :    0.090078
  17 C :   -0.111039
  18 C :   -0.046889
  19 C :   -0.050143
  20 C :   -0.180238
  21 H :    0.052755
  22 C :    0.085876
  23 H :    0.036854
  24 H :    0.021627
  25 C :   -0.062418
  26 H :    0.037272
  27 H :    0.024155
  28 C :   -0.096912
  29 H :    0.049831
  30 H :    0.034605
  31 H :    0.041131
  32 H :    0.039339
  33 H :    0.067632
Sum of atomic charges:   -0.0000000

LOEWDIN ATOMIC CHARGES
----------------------
   0 S :    0.360382
   1 C :   -0.176569
   2 C :   -0.065771
   3 C :   -0.063611
   4 C :   -0.173050
   5 H :    0.042258
   6 C :   -0.028936
   7 H :    0.028170
   8 H :    0.030610
   9 C :   -0.027684
  10 H :    0.009628
  11 H :    0.020396
  12 C :   -0.052629
  13 H :    0.027819
  14 H :    0.020770
  15 H :    0.022782
  16 S :    0.384829
  17 C :   -0.172461
  18 C :   -0.085437
  19 C :   -0.049529
  20 C :   -0.193462
  21 H :    0.046705
  22 C :   -0.028417
  23 H :    0.030167
  24 H :    0.032115
  25 C :   -0.040803
  26 H :    0.024526
  27 H :    0.026198
  28 C :   -0.074439
  29 H :    0.028411
  30 H :    0.015171
  31 H :    0.030539
  32 H :    0.023185
  33 H :    0.028137

  Mayer bond orders larger than 0.100000
B(  0-S ,  1-C ) :   1.1066 B(  0-S ,  4-C ) :   1.1232 B(  1-C ,  2-C ) :   1.6576
B(  1-C , 32-H ) :   0.9719 B(  2-C ,  3-C ) :   1.1722 B(  2-C ,  6-C ) :   1.0252
B(  3-C ,  4-C ) :   1.6204 B(  3-C ,  5-H ) :   0.9791 B(  4-C , 20-C ) :   1.0573
B(  6-C ,  7-H ) :   0.9443 B(  6-C ,  8-H ) :   0.9353 B(  6-C ,  9-C ) :   1.0596
B(  9-C , 10-H ) :   0.9557 B(  9-C , 11-H ) :   0.9555 B(  9-C , 12-C ) :   1.0784
B( 12-C , 13-H ) :   0.9727 B( 12-C , 14-H ) :   0.9714 B( 12-C , 15-H ) :   0.9764
B( 16-S , 17-C ) :   1.1729 B( 16-S , 20-C ) :   1.1203 B( 17-C , 18-C ) :   1.5889
B( 17-C , 33-H ) :   0.9686 B( 18-C , 19-C ) :   1.2412 B( 18-C , 21-H ) :   0.9796
B( 19-C , 20-C ) :   1.6009 B( 19-C , 22-C ) :   1.0194 B( 22-C , 23-H ) :   0.9435
B( 22-C , 24-H ) :   0.9285 B( 22-C , 25-C ) :   1.0784 B( 25-C , 26-H ) :   0.9572
B( 25-C , 27-H ) :   0.9528 B( 25-C , 28-C ) :   1.0787 B( 28-C , 29-H ) :   0.9728
B( 28-C , 30-H ) :   0.9645 B( 28-C , 31-H ) :   0.9701

Dispersion correction           -0.015373954
FINAL SINGLE POINT ENERGY     -1339.871740908699

DIPOLE MOMENT
-------------
                                X             Y             Z
Electronic contribution:      5.16436      21.64644     -10.59574
Nuclear contribution   :     -5.50912     -22.01571      10.90582
                        -----------------------------------------
Total Dipole Moment    :     -0.34476      -0.36928       0.31008
                        -----------------------------------------
Magnitude (a.u.)       :      0.59277
Magnitude (Debye)      :      1.50670

Rotational constants in cm-1:     0.018886     0.009231     0.007495
Rotational constants in MHz :   566.199276   276.728814   224.699653

                             ****ORCA TERMINATED NORMALLY****
TOTAL RUN TIME: 0 days 0 hours 0 minutes 21 seconds 117 msec
