                         Program Version 4.2.1 -  RELEASE  -
|  1> ! wB97X-D3 SP def2-SVP
|  2> %pal
|  3> nprocs 24
|  4> end
|  5>
|  6> * xyz 0 1
|  7> S 	 -134.647 	 5.23859 	 -11.931
|  8> C 	 -135.037 	 6.61394 	 -11.0709
|  9> C 	 -135.03 	 7.7255 	 -11.8595
| 10> C 	 -134.922 	 7.40386 	 -13.1917
| 11> C 	 -134.542 	 6.09661 	 -13.4093
| 12> H 	 -134.832 	 8.10345 	 -14.045
| 13> C 	 -135.215 	 9.11463 	 -11.4233
| 14> H 	 -135.161 	 9.00036 	 -10.3333
| 15> H 	 -136.231 	 9.32549 	 -11.7944
| 16> C 	 -134.216 	 10.1201 	 -12.0731
| 17> H 	 -133.18 	 9.82826 	 -11.8886
| 18> H 	 -134.317 	 10.009 	 -13.1873
| 19> C 	 -134.45 	 11.6276 	 -11.6927
| 20> H 	 -135.494 	 11.9648 	 -11.7449
| 21> H 	 -134.02 	 11.6999 	 -10.6872
| 22> H 	 -133.865 	 12.2635 	 -12.3091
| 23> S 	 -135.179 	 4.4113 	 -15.3258
| 24> C 	 -134.076 	 3.98447 	 -16.5557
| 25> C 	 -132.854 	 4.62531 	 -16.3629
| 26> C 	 -132.884 	 5.52158 	 -15.2527
| 27> C 	 -134.089 	 5.52753 	 -14.6145
| 28> H 	 -131.99 	 4.33266 	 -16.9141
| 29> C 	 -131.68 	 6.32136 	 -14.8291
| 30> H 	 -130.716 	 6.06122 	 -15.1833
| 31> H 	 -131.699 	 6.35216 	 -13.7803
| 32> C 	 -131.775 	 7.74005 	 -15.2943
| 33> H 	 -132.728 	 8.12279 	 -14.9567
| 34> H 	 -131.782 	 7.80997 	 -16.3998
| 35> C 	 -130.576 	 8.51823 	 -14.8378
| 36> H 	 -130.513 	 8.37637 	 -13.7131
| 37> H 	 -130.774 	 9.5598 	 -15.0416
| 38> H 	 -129.562 	 8.42259 	 -15.2967
| 39> H 	 -135.015 	 6.78194 	 -10.002
| 40> H 	 -134.341 	 3.25431 	 -17.2956
| 41> *
| 42>
| 43>                          ****END OF INPUT****

CARTESIAN COORDINATES (ANGSTROEM)
---------------------------------
  S    -134.647000    5.238590  -11.931000
  C    -135.037000    6.613940  -11.070900
  C    -135.030000    7.725500  -11.859500
  C    -134.922000    7.403860  -13.191700
  C    -134.542000    6.096610  -13.409300
  H    -134.832000    8.103450  -14.045000
  C    -135.215000    9.114630  -11.423300
  H    -135.161000    9.000360  -10.333300
  H    -136.231000    9.325490  -11.794400
  C    -134.216000   10.120100  -12.073100
  H    -133.180000    9.828260  -11.888600
  H    -134.317000   10.009000  -13.187300
  C    -134.450000   11.627600  -11.692700
  H    -135.494000   11.964800  -11.744900
  H    -134.020000   11.699900  -10.687200
  H    -133.865000   12.263500  -12.309100
  S    -135.179000    4.411300  -15.325800
  C    -134.076000    3.984470  -16.555700
  C    -132.854000    4.625310  -16.362900
  C    -132.884000    5.521580  -15.252700
  C    -134.089000    5.527530  -14.614500
  H    -131.990000    4.332660  -16.914100
  C    -131.680000    6.321360  -14.829100
  H    -130.716000    6.061220  -15.183300
  H    -131.699000    6.352160  -13.780300
  C    -131.775000    7.740050  -15.294300
  H    -132.728000    8.122790  -14.956700
  H    -131.782000    7.809970  -16.399800
  C    -130.576000    8.518230  -14.837800
  H    -130.513000    8.376370  -13.713100
  H    -130.774000    9.559800  -15.041600
  H    -129.562000    8.422590  -15.296700
  H    -135.015000    6.781940  -10.002000
  H    -134.341000    3.254310  -17.295600

 Total Charge           Charge          ....    0
 Multiplicity           Mult            ....    1
 Number of Electrons    NEL             ....  134
 Basis Dimension        Dim             ....  322

ORBITAL ENERGIES
----------------

  NO   OCC          E(Eh)            E(eV)
   0   2.0000     -88.965769     -2420.8816
   1   2.0000     -88.959959     -2420.7235
   2   2.0000     -10.317445      -280.7520
   3   2.0000     -10.312937      -280.6293
   4   2.0000     -10.312898      -280.6282
   5   2.0000     -10.300722      -280.2969
   6   2.0000     -10.299294      -280.2580
   7   2.0000     -10.296696      -280.1873
   8   2.0000     -10.291928      -280.0576
   9   2.0000     -10.290635      -280.0224
  10   2.0000     -10.284994      -279.8689
  11   2.0000     -10.284291      -279.8498
  12   2.0000     -10.281253      -279.7671
  13   2.0000     -10.280318      -279.7417
  14   2.0000     -10.279305      -279.7141
  15   2.0000     -10.277011      -279.6517
  16   2.0000      -8.082422      -219.9339
  17   2.0000      -8.076584      -219.7750
  18   2.0000      -6.040664      -164.3748
  19   2.0000      -6.036562      -164.2632
  20   2.0000      -6.034856      -164.2168
  21   2.0000      -6.033429      -164.1780
  22   2.0000      -6.030692      -164.1035
  23   2.0000      -6.027611      -164.0196
  24   2.0000      -1.025117       -27.8949
  25   2.0000      -0.999010       -27.1844
  26   2.0000      -0.922871       -25.1126
  27   2.0000      -0.915601       -24.9148
  28   2.0000      -0.876608       -23.8537
  29   2.0000      -0.854249       -23.2453
  30   2.0000      -0.852068       -23.1860
  31   2.0000      -0.817371       -22.2418
  32   2.0000      -0.784377       -21.3440
  33   2.0000      -0.772833       -21.0298
  34   2.0000      -0.714340       -19.4382
  35   2.0000      -0.696839       -18.9620
  36   2.0000      -0.690498       -18.7894
  37   2.0000      -0.670532       -18.2461
  38   2.0000      -0.641334       -17.4516
  39   2.0000      -0.623260       -16.9598
  40   2.0000      -0.604775       -16.4568
  41   2.0000      -0.577847       -15.7240
  42   2.0000      -0.574089       -15.6218
  43   2.0000      -0.558078       -15.1861
  44   2.0000      -0.529990       -14.4218
  45   2.0000      -0.525546       -14.3008
  46   2.0000      -0.519982       -14.1494
  47   2.0000      -0.516173       -14.0458
  48   2.0000      -0.508132       -13.8270
  49   2.0000      -0.504746       -13.7348
  50   2.0000      -0.496334       -13.5059
  51   2.0000      -0.478308       -13.0154
  52   2.0000      -0.474060       -12.8998
  53   2.0000      -0.465702       -12.6724
  54   2.0000      -0.462471       -12.5845
  55   2.0000      -0.452447       -12.3117
  56   2.0000      -0.445033       -12.1100
  57   2.0000      -0.441128       -12.0037
  58   2.0000      -0.430728       -11.7207
  59   2.0000      -0.429080       -11.6759
  60   2.0000      -0.425643       -11.5823
  61   2.0000      -0.416464       -11.3326
  62   2.0000      -0.405592       -11.0367
  63   2.0000      -0.338345        -9.2068
  64   2.0000      -0.327499        -8.9117
  65   2.0000      -0.325518        -8.8578
  66   2.0000      -0.303128        -8.2485
  67   0.0000       0.047347         1.2884
  68   0.0000       0.060608         1.6492
  69   0.0000       0.121558         3.3078
  70   0.0000       0.128212         3.4888
  71   0.0000       0.131224         3.5708

MULLIKEN ATOMIC CHARGES
-----------------------
   0 S :    0.151455
   1 C :   -0.104032
   2 C :   -0.136139
   3 C :    0.036361
   4 C :   -0.186019
   5 H :    0.027106
   6 C :    0.114869
   7 H :    0.013436
   8 H :    0.043399
   9 C :   -0.136522
  10 H :    0.033227
  11 H :    0.032608
  12 C :   -0.018728
  13 H :    0.040419
  14 H :    0.034304
  15 H :    0.025754
  16 S :    0.116578
  17 C :   -0.089134
  18 C :   -0.031851
  19 C :   -0.007584
  20 C :   -0.214073
  21 H :    0.010211
  22 C :    0.147713
  23 H :    0.000776
  24 H :    0.007867
  25 C :   -0.076787
  26 H :    0.004506
  27 H :    0.024592
  28 C :   -0.061709
  29 H :    0.033241
  30 H :    0.024675
  31 H :    0.045843
  32 H :    0.038453
  33 H :    0.055187
Sum of atomic charges:    0.0000000

LOEWDIN ATOMIC CHARGES
----------------------
   0 S :    0.463281
   1 C :   -0.234684
   2 C :   -0.076957
   3 C :   -0.064054
   4 C :   -0.218163
   5 H :    0.032180
   6 C :   -0.030698
   7 H :    0.028607
   8 H :    0.041787
   9 C :   -0.041166
  10 H :    0.024373
  11 H :    0.023550
  12 C :   -0.062379
  13 H :    0.028422
  14 H :    0.028963
  15 H :    0.021078
  16 S :    0.444536
  17 C :   -0.192768
  18 C :   -0.070596
  19 C :   -0.044126
  20 C :   -0.224178
  21 H :    0.027667
  22 C :   -0.022156
  23 H :    0.025492
  24 H :    0.023820
  25 C :   -0.038011
  26 H :    0.016571
  27 H :    0.025055
  28 C :   -0.077241
  29 H :    0.029993
  30 H :    0.025227
  31 H :    0.032108
  32 H :    0.029555
  33 H :    0.024912

  Mayer bond orders larger than 0.100000
B(  0-S ,  1-C ) :   1.1597 B(  0-S ,  4-C ) :   1.1823 B(  1-C ,  2-C ) :   1.5919
B(  1-C , 32-H ) :   0.9557 B(  2-C ,  3-C ) :   1.2782 B(  2-C ,  6-C ) :   1.0200
B(  3-C ,  4-C ) :   1.5544 B(  3-C ,  5-H ) :   0.9773 B(  4-C , 20-C ) :   1.0251
B(  6-C ,  7-H ) :   0.9369 B(  6-C ,  8-H ) :   0.9286 B(  6-C ,  9-C ) :   1.0562
B(  9-C , 10-H ) :   0.9606 B(  9-C , 11-H ) :   0.9533 B(  9-C , 12-C ) :   1.0787
B( 12-C , 13-H ) :   0.9764 B( 12-C , 14-H ) :   0.9768 B( 12-C , 15-H ) :   0.9749
B( 16-S , 17-C ) :   1.1858 B( 16-S , 20-C ) :   1.1677 B( 17-C , 18-C ) :   1.5622
B( 17-C , 20-C ) :   0.1058 B( 17-C , 33-H ) :   0.9737 B( 18-C , 19-C ) :   1.2564
B( 18-C , 21-H ) :   1.0010 B( 19-C , 20-C ) :   1.5893 B( 19-C , 22-C ) :   1.0551
B( 22-C , 23-H ) :   0.9365 B( 22-C , 24-H ) :   0.9109 B( 22-C , 25-C ) :   1.0790
B( 25-C , 26-H ) :   0.9462 B( 25-C , 27-H ) :   0.9481 B( 25-C , 28-C ) :   1.0910
B( 28-C , 29-H ) :   0.9695 B( 28-C , 30-H ) :   0.9686 B( 28-C , 31-H ) :   0.9710

Dispersion correction           -0.014987379
FINAL SINGLE POINT ENERGY     -1339.867764350020

DIPOLE MOMENT
-------------
                                X             Y             Z
Electronic contribution:    -13.53135     -28.62453      -2.04431
Nuclear contribution   :     13.96589      29.11946       1.99049
                        -----------------------------------------
Total Dipole Moment    :      0.43454       0.49492      -0.05382
                        -----------------------------------------
Magnitude (a.u.)       :      0.66081
Magnitude (Debye)      :      1.67964

Rotational constants in cm-1:     0.018431     0.009852     0.007323
Rotational constants in MHz :   552.559244   295.356774   219.550629

                             ****ORCA TERMINATED NORMALLY****
TOTAL RUN TIME: 0 days 0 hours 0 minutes 21 seconds 664 msec
