                         Program Version 4.2.1 -  RELEASE  -
|  1> ! wB97X-D3 SP def2-SVP
|  2> %pal
|  3> nprocs 24
|  4> end
|  5>
|  6> * xyz 0 1
|  7> S 	 21.267 	 -7.03877 	 -115.547
|  8> C 	 21.8082 	 -6.30027 	 -114.135
|  9> C 	 22.2368 	 -5.01345 	 -114.32
| 10> C 	 22.1132 	 -4.60289 	 -115.665
| 11> C 	 21.4168 	 -5.51393 	 -116.445
| 12> H 	 22.4272 	 -3.62123 	 -115.983
| 13> C 	 22.7618 	 -4.12483 	 -113.245
| 14> H 	 23.8186 	 -4.33304 	 -113.115
| 15> H 	 22.3698 	 -4.40125 	 -112.234
| 16> C 	 22.5108 	 -2.57932 	 -113.386
| 17> H 	 22.8365 	 -2.36969 	 -114.451
| 18> H 	 21.4409 	 -2.49317 	 -113.288
| 19> C 	 23.2868 	 -1.69537 	 -112.467
| 20> H 	 23.0355 	 -0.614781 	 -112.556
| 21> H 	 23.165 	 -1.88138 	 -111.423
| 22> H 	 24.3699 	 -1.82795 	 -112.806
| 23> S 	 20.9198 	 -6.7143 	 -118.827
| 24> C 	 20.5093 	 -5.78146 	 -120.261
| 25> C 	 20.5756 	 -4.43771 	 -120.011
| 26> C 	 20.8491 	 -4.14484 	 -118.644
| 27> C 	 21.1619 	 -5.30842 	 -117.851
| 28> H 	 20.4726 	 -3.73104 	 -120.779
| 29> C 	 20.8761 	 -2.68478 	 -118.185
| 30> H 	 20.9197 	 -2.68744 	 -117.064
| 31> H 	 19.8917 	 -2.18864 	 -118.428
| 32> C 	 22.0602 	 -1.85296 	 -118.708
| 33> H 	 22.0046 	 -1.79532 	 -119.863
| 34> H 	 23.0317 	 -2.32204 	 -118.47
| 35> C 	 22.1206 	 -0.35954 	 -118.279
| 36> H 	 22.2571 	 -0.251343 	 -117.227
| 37> H 	 21.2855 	 0.271957 	 -118.583
| 38> H 	 23.084 	 -0.0627999 	 -118.612
| 39> H 	 21.71 	 -6.82802 	 -113.179
| 40> H 	 20.2657 	 -6.19885 	 -121.254
| 41> *
| 42>
| 43>                          ****END OF INPUT****

CARTESIAN COORDINATES (ANGSTROEM)
---------------------------------
  S     21.267000   -7.038770  -115.547000
  C     21.808200   -6.300270  -114.135000
  C     22.236800   -5.013450  -114.320000
  C     22.113200   -4.602890  -115.665000
  C     21.416800   -5.513930  -116.445000
  H     22.427200   -3.621230  -115.983000
  C     22.761800   -4.124830  -113.245000
  H     23.818600   -4.333040  -113.115000
  H     22.369800   -4.401250  -112.234000
  C     22.510800   -2.579320  -113.386000
  H     22.836500   -2.369690  -114.451000
  H     21.440900   -2.493170  -113.288000
  C     23.286800   -1.695370  -112.467000
  H     23.035500   -0.614781  -112.556000
  H     23.165000   -1.881380  -111.423000
  H     24.369900   -1.827950  -112.806000
  S     20.919800   -6.714300  -118.827000
  C     20.509300   -5.781460  -120.261000
  C     20.575600   -4.437710  -120.011000
  C     20.849100   -4.144840  -118.644000
  C     21.161900   -5.308420  -117.851000
  H     20.472600   -3.731040  -120.779000
  C     20.876100   -2.684780  -118.185000
  H     20.919700   -2.687440  -117.064000
  H     19.891700   -2.188640  -118.428000
  C     22.060200   -1.852960  -118.708000
  H     22.004600   -1.795320  -119.863000
  H     23.031700   -2.322040  -118.470000
  C     22.120600   -0.359540  -118.279000
  H     22.257100   -0.251343  -117.227000
  H     21.285500    0.271957  -118.583000
  H     23.084000   -0.062800  -118.612000
  H     21.710000   -6.828020  -113.179000
  H     20.265700   -6.198850  -121.254000

 Total Charge           Charge          ....    0
 Multiplicity           Mult            ....    1
 Number of Electrons    NEL             ....  134
 Basis Dimension        Dim             ....  322

ORBITAL ENERGIES
----------------

  NO   OCC          E(Eh)            E(eV)
   0   2.0000     -88.968845     -2420.9654
   1   2.0000     -88.964769     -2420.8544
   2   2.0000     -10.332067      -281.1498
   3   2.0000     -10.331094      -281.1234
   4   2.0000     -10.317656      -280.7577
   5   2.0000     -10.309410      -280.5333
   6   2.0000     -10.307078      -280.4698
   7   2.0000     -10.298130      -280.2264
   8   2.0000     -10.298024      -280.2235
   9   2.0000     -10.296655      -280.1862
  10   2.0000     -10.293204      -280.0923
  11   2.0000     -10.292772      -280.0806
  12   2.0000     -10.292021      -280.0601
  13   2.0000     -10.289043      -279.9791
  14   2.0000     -10.286086      -279.8986
  15   2.0000     -10.276024      -279.6248
  16   2.0000      -8.084368      -219.9868
  17   2.0000      -8.079761      -219.8615
  18   2.0000      -6.042856      -164.4345
  19   2.0000      -6.038834      -164.3250
  20   2.0000      -6.038298      -164.3104
  21   2.0000      -6.035034      -164.2216
  22   2.0000      -6.034162      -164.1979
  23   2.0000      -6.030572      -164.1002
  24   2.0000      -1.011688       -27.5294
  25   2.0000      -0.987482       -26.8708
  26   2.0000      -0.913432       -24.8558
  27   2.0000      -0.902205       -24.5502
  28   2.0000      -0.876761       -23.8579
  29   2.0000      -0.858135       -23.3510
  30   2.0000      -0.847888       -23.0722
  31   2.0000      -0.817829       -22.2543
  32   2.0000      -0.781301       -21.2603
  33   2.0000      -0.768446       -20.9105
  34   2.0000      -0.712248       -19.3813
  35   2.0000      -0.692267       -18.8376
  36   2.0000      -0.690005       -18.7760
  37   2.0000      -0.662141       -18.0178
  38   2.0000      -0.638536       -17.3755
  39   2.0000      -0.630547       -17.1581
  40   2.0000      -0.592235       -16.1155
  41   2.0000      -0.574954       -15.6453
  42   2.0000      -0.567492       -15.4422
  43   2.0000      -0.560826       -15.2608
  44   2.0000      -0.529005       -14.3950
  45   2.0000      -0.520269       -14.1573
  46   2.0000      -0.517676       -14.0867
  47   2.0000      -0.510946       -13.9035
  48   2.0000      -0.503941       -13.7129
  49   2.0000      -0.498693       -13.5701
  50   2.0000      -0.493311       -13.4237
  51   2.0000      -0.488739       -13.2993
  52   2.0000      -0.480348       -13.0709
  53   2.0000      -0.466525       -12.6948
  54   2.0000      -0.462832       -12.5943
  55   2.0000      -0.452023       -12.3002
  56   2.0000      -0.446619       -12.1531
  57   2.0000      -0.439763       -11.9666
  58   2.0000      -0.431791       -11.7496
  59   2.0000      -0.427185       -11.6243
  60   2.0000      -0.415167       -11.2973
  61   2.0000      -0.410032       -11.1576
  62   2.0000      -0.408516       -11.1163
  63   2.0000      -0.364513        -9.9189
  64   2.0000      -0.335586        -9.1318
  65   2.0000      -0.326002        -8.8710
  66   2.0000      -0.277698        -7.5566
  67   0.0000       0.019153         0.5212
  68   0.0000       0.086372         2.3503
  69   0.0000       0.100716         2.7406
  70   0.0000       0.118642         3.2284
  71   0.0000       0.125679         3.4199

MULLIKEN ATOMIC CHARGES
-----------------------
   0 S :    0.118292
   1 C :   -0.135193
   2 C :   -0.042488
   3 C :   -0.010718
   4 C :   -0.098783
   5 H :    0.003053
   6 C :    0.043072
   7 H :    0.030536
   8 H :    0.018450
   9 C :   -0.104777
  10 H :    0.036796
  11 H :    0.037642
  12 C :   -0.047493
  13 H :    0.041857
  14 H :    0.030392
  15 H :    0.040723
  16 S :    0.088719
  17 C :   -0.097314
  18 C :   -0.003411
  19 C :   -0.052536
  20 C :   -0.134647
  21 H :    0.002932
  22 C :    0.038306
  23 H :    0.020976
  24 H :    0.038517
  25 C :   -0.128755
  26 H :    0.036916
  27 H :    0.037831
  28 C :   -0.007678
  29 H :    0.011749
  30 H :    0.045025
  31 H :    0.020885
  32 H :    0.055493
  33 H :    0.065631
Sum of atomic charges:   -0.0000000

LOEWDIN ATOMIC CHARGES
----------------------
   0 S :    0.423131
   1 C :   -0.214128
   2 C :   -0.069845
   3 C :   -0.057551
   4 C :   -0.185291
   5 H :    0.025059
   6 C :   -0.037614
   7 H :    0.029775
   8 H :    0.031062
   9 C :   -0.044589
  10 H :    0.026174
  11 H :    0.022594
  12 C :   -0.070209
  13 H :    0.033270
  14 H :    0.020064
  15 H :    0.036888
  16 S :    0.408590
  17 C :   -0.186479
  18 C :   -0.064281
  19 C :   -0.057952
  20 C :   -0.199713
  21 H :    0.025092
  22 C :   -0.045757
  23 H :    0.028568
  24 H :    0.036517
  25 C :   -0.046165
  26 H :    0.029009
  27 H :    0.026426
  28 C :   -0.063983
  29 H :    0.018253
  30 H :    0.027858
  31 H :    0.026511
  32 H :    0.032322
  33 H :    0.036393

  Mayer bond orders larger than 0.100000
B(  0-S ,  1-C ) :   1.1554 B(  0-S ,  4-C ) :   1.1473 B(  1-C ,  2-C ) :   1.5826
B(  1-C , 32-H ) :   0.9652 B(  2-C ,  3-C ) :   1.2775 B(  2-C ,  6-C ) :   1.0225
B(  3-C ,  4-C ) :   1.5240 B(  3-C ,  5-H ) :   0.9869 B(  4-C , 20-C ) :   1.1089
B(  6-C ,  7-H ) :   0.9320 B(  6-C ,  8-H ) :   0.9416 B(  6-C ,  9-C ) :   1.0515
B(  9-C , 10-H ) :   0.9518 B(  9-C , 11-H ) :   0.9607 B(  9-C , 12-C ) :   1.0875
B( 12-C , 13-H ) :   0.9710 B( 12-C , 14-H ) :   0.9745 B( 12-C , 15-H ) :   0.9725
B( 16-S , 17-C ) :   1.1548 B( 16-S , 20-C ) :   1.1416 B( 17-C , 18-C ) :   1.5933
B( 17-C , 33-H ) :   0.9643 B( 18-C , 19-C ) :   1.2659 B( 18-C , 21-H ) :   0.9981
B( 19-C , 20-C ) :   1.5327 B( 19-C , 22-C ) :   1.0487 B( 22-C , 23-H ) :   0.9328
B( 22-C , 24-H ) :   0.9342 B( 22-C , 25-C ) :   1.0577 B( 25-C , 26-H ) :   0.9551
B( 25-C , 27-H ) :   0.9544 B( 25-C , 28-C ) :   1.0808 B( 28-C , 29-H ) :   0.9713
B( 28-C , 30-H ) :   0.9756 B( 28-C , 31-H ) :   0.9704

Dispersion correction           -0.013976030
FINAL SINGLE POINT ENERGY     -1339.880001272870

DIPOLE MOMENT
-------------
                                X             Y             Z
Electronic contribution:     -8.86622     -32.04214      -9.96674
Nuclear contribution   :      9.03300      32.73868      10.17539
                        -----------------------------------------
Total Dipole Moment    :      0.16678       0.69654       0.20865
                        -----------------------------------------
Magnitude (a.u.)       :      0.74600
Magnitude (Debye)      :      1.89619

Rotational constants in cm-1:     0.015913     0.010178     0.006338
Rotational constants in MHz :   477.047482   305.117816   190.016955

                             ****ORCA TERMINATED NORMALLY****
TOTAL RUN TIME: 0 days 0 hours 0 minutes 21 seconds 957 msec
