                         Program Version 4.2.1 -  RELEASE  -
|  1> ! wB97X-D3 SP def2-SVP
|  2> %pal
|  3> nprocs 24
|  4> end
|  5>
|  6> * xyz 0 1
|  7> S 	 -36.1776 	 -9.02861 	 20.1149
|  8> C 	 -35.006 	 -10.2377 	 19.4717
|  9> C 	 -35.6909 	 -11.2996 	 18.936
| 10> C 	 -37.1274 	 -11.0426 	 18.9212
| 11> C 	 -37.4988 	 -9.79257 	 19.3339
| 12> H 	 -37.727 	 -11.6835 	 18.3561
| 13> C 	 -35.089 	 -12.5283 	 18.4234
| 14> H 	 -34.2401 	 -12.2756 	 17.7554
| 15> H 	 -35.7872 	 -13.0381 	 17.7859
| 16> C 	 -34.6908 	 -13.5769 	 19.5099
| 17> H 	 -34.2735 	 -13.0774 	 20.3281
| 18> H 	 -35.5534 	 -14.1236 	 19.8559
| 19> C 	 -33.6566 	 -14.5772 	 18.9895
| 20> H 	 -33.4235 	 -15.3488 	 19.695
| 21> H 	 -33.9179 	 -15.0477 	 18.0024
| 22> H 	 -32.7579 	 -14.003 	 18.7541
| 23> S 	 -39.2744 	 -8.55122 	 20.8916
| 24> C 	 -40.7064 	 -7.96742 	 20.1857
| 25> C 	 -40.9541 	 -8.4618 	 18.9506
| 26> C 	 -39.8348 	 -9.18832 	 18.4365
| 27> C 	 -38.8046 	 -9.20266 	 19.3946
| 28> H 	 -41.8091 	 -8.15253 	 18.4057
| 29> C 	 -39.7332 	 -9.45256 	 16.9567
| 30> H 	 -40.7692 	 -9.56982 	 16.7227
| 31> H 	 -39.2955 	 -10.4582 	 16.706
| 32> C 	 -39.2499 	 -8.25778 	 16.2096
| 33> H 	 -38.25 	 -8.07507 	 16.6182
| 34> H 	 -39.896 	 -7.47034 	 16.3417
| 35> C 	 -38.8781 	 -8.63045 	 14.748
| 36> H 	 -39.7878 	 -8.86083 	 14.185
| 37> H 	 -38.2913 	 -9.55174 	 14.8192
| 38> H 	 -38.4744 	 -7.70807 	 14.2421
| 39> H 	 -33.9353 	 -10.1863 	 19.4209
| 40> H 	 -41.4681 	 -7.35636 	 20.7159
| 41> *
| 42>
| 43>                          ****END OF INPUT****

CARTESIAN COORDINATES (ANGSTROEM)
---------------------------------
  S    -36.177600   -9.028610   20.114900
  C    -35.006000  -10.237700   19.471700
  C    -35.690900  -11.299600   18.936000
  C    -37.127400  -11.042600   18.921200
  C    -37.498800   -9.792570   19.333900
  H    -37.727000  -11.683500   18.356100
  C    -35.089000  -12.528300   18.423400
  H    -34.240100  -12.275600   17.755400
  H    -35.787200  -13.038100   17.785900
  C    -34.690800  -13.576900   19.509900
  H    -34.273500  -13.077400   20.328100
  H    -35.553400  -14.123600   19.855900
  C    -33.656600  -14.577200   18.989500
  H    -33.423500  -15.348800   19.695000
  H    -33.917900  -15.047700   18.002400
  H    -32.757900  -14.003000   18.754100
  S    -39.274400   -8.551220   20.891600
  C    -40.706400   -7.967420   20.185700
  C    -40.954100   -8.461800   18.950600
  C    -39.834800   -9.188320   18.436500
  C    -38.804600   -9.202660   19.394600
  H    -41.809100   -8.152530   18.405700
  C    -39.733200   -9.452560   16.956700
  H    -40.769200   -9.569820   16.722700
  H    -39.295500  -10.458200   16.706000
  C    -39.249900   -8.257780   16.209600
  H    -38.250000   -8.075070   16.618200
  H    -39.896000   -7.470340   16.341700
  C    -38.878100   -8.630450   14.748000
  H    -39.787800   -8.860830   14.185000
  H    -38.291300   -9.551740   14.819200
  H    -38.474400   -7.708070   14.242100
  H    -33.935300  -10.186300   19.420900
  H    -41.468100   -7.356360   20.715900

 Total Charge           Charge          ....    0
 Multiplicity           Mult            ....    1
 Number of Electrons    NEL             ....  134
 Basis Dimension        Dim             ....  322

ORBITAL ENERGIES
----------------

  NO   OCC          E(Eh)            E(eV)
   0   2.0000     -88.966216     -2420.8938
   1   2.0000     -88.962294     -2420.7871
   2   2.0000     -10.324146      -280.9343
   3   2.0000     -10.319976      -280.8208
   4   2.0000     -10.312415      -280.6151
   5   2.0000     -10.310441      -280.5614
   6   2.0000     -10.300371      -280.2873
   7   2.0000     -10.297191      -280.2008
   8   2.0000     -10.290374      -280.0153
   9   2.0000     -10.287230      -279.9298
  10   2.0000     -10.286944      -279.9220
  11   2.0000     -10.286412      -279.9075
  12   2.0000     -10.281868      -279.7838
  13   2.0000     -10.281858      -279.7836
  14   2.0000     -10.279266      -279.7130
  15   2.0000     -10.275885      -279.6210
  16   2.0000      -8.083001      -219.9496
  17   2.0000      -8.077132      -219.7899
  18   2.0000      -6.041191      -164.3892
  19   2.0000      -6.037318      -164.2838
  20   2.0000      -6.035850      -164.2438
  21   2.0000      -6.033877      -164.1901
  22   2.0000      -6.031681      -164.1304
  23   2.0000      -6.027593      -164.0191
  24   2.0000      -1.017778       -27.6951
  25   2.0000      -0.988219       -26.8908
  26   2.0000      -0.920849       -25.0576
  27   2.0000      -0.916557       -24.9408
  28   2.0000      -0.873869       -23.7792
  29   2.0000      -0.853536       -23.2259
  30   2.0000      -0.845193       -22.9989
  31   2.0000      -0.815037       -22.1783
  32   2.0000      -0.782381       -21.2897
  33   2.0000      -0.771154       -20.9842
  34   2.0000      -0.707928       -19.2637
  35   2.0000      -0.705445       -19.1961
  36   2.0000      -0.693816       -18.8797
  37   2.0000      -0.666237       -18.1292
  38   2.0000      -0.636561       -17.3217
  39   2.0000      -0.623852       -16.9759
  40   2.0000      -0.598771       -16.2934
  41   2.0000      -0.576055       -15.6752
  42   2.0000      -0.574397       -15.6301
  43   2.0000      -0.558849       -15.2071
  44   2.0000      -0.530312       -14.4305
  45   2.0000      -0.525524       -14.3002
  46   2.0000      -0.522002       -14.2044
  47   2.0000      -0.507721       -13.8158
  48   2.0000      -0.506406       -13.7800
  49   2.0000      -0.500438       -13.6176
  50   2.0000      -0.498375       -13.5615
  51   2.0000      -0.481271       -13.0960
  52   2.0000      -0.469572       -12.7777
  53   2.0000      -0.461008       -12.5447
  54   2.0000      -0.457979       -12.4622
  55   2.0000      -0.451446       -12.2845
  56   2.0000      -0.447924       -12.1886
  57   2.0000      -0.443397       -12.0655
  58   2.0000      -0.438446       -11.9307
  59   2.0000      -0.425067       -11.5667
  60   2.0000      -0.420706       -11.4480
  61   2.0000      -0.418294       -11.3824
  62   2.0000      -0.404100       -10.9961
  63   2.0000      -0.350363        -9.5339
  64   2.0000      -0.332950        -9.0600
  65   2.0000      -0.325944        -8.8694
  66   2.0000      -0.287734        -7.8296
  67   0.0000       0.028097         0.7646
  68   0.0000       0.073882         2.0104
  69   0.0000       0.105468         2.8699
  70   0.0000       0.118013         3.2113
  71   0.0000       0.139800         3.8042

MULLIKEN ATOMIC CHARGES
-----------------------
   0 S :    0.088150
   1 C :   -0.105141
   2 C :   -0.106203
   3 C :    0.065344
   4 C :   -0.131073
   5 H :   -0.017298
   6 C :    0.043808
   7 H :    0.032724
   8 H :    0.009309
   9 C :   -0.027396
  10 H :    0.017548
  11 H :    0.028261
  12 C :   -0.061344
  13 H :    0.038498
  14 H :    0.030518
  15 H :    0.024176
  16 S :    0.130872
  17 C :   -0.092495
  18 C :   -0.039184
  19 C :   -0.037571
  20 C :   -0.157782
  21 H :    0.007553
  22 C :    0.053034
  23 H :    0.002605
  24 H :    0.027643
  25 C :   -0.024554
  26 H :    0.033670
  27 H :    0.010055
  28 C :   -0.048859
  29 H :    0.019599
  30 H :    0.039359
  31 H :    0.049406
  32 H :    0.036402
  33 H :    0.060366
Sum of atomic charges:    0.0000000

LOEWDIN ATOMIC CHARGES
----------------------
   0 S :    0.390016
   1 C :   -0.181821
   2 C :   -0.058611
   3 C :   -0.061226
   4 C :   -0.198172
   5 H :    0.015861
   6 C :   -0.035588
   7 H :    0.036116
   8 H :    0.026674
   9 C :   -0.026603
  10 H :    0.015869
  11 H :    0.023728
  12 C :   -0.066474
  13 H :    0.023434
  14 H :    0.027333
  15 H :    0.023231
  16 S :    0.448270
  17 C :   -0.203804
  18 C :   -0.069504
  19 C :   -0.053151
  20 C :   -0.214691
  21 H :    0.026879
  22 C :   -0.036866
  23 H :    0.025388
  24 H :    0.031703
  25 C :   -0.029586
  26 H :    0.030982
  27 H :    0.012938
  28 C :   -0.064748
  29 H :    0.018226
  30 H :    0.028795
  31 H :    0.034444
  32 H :    0.026285
  33 H :    0.034672

  Mayer bond orders larger than 0.100000
B(  0-S ,  1-C ) :   1.1067 B(  0-S ,  4-C ) :   1.1431 B(  1-C ,  2-C ) :   1.6322
B(  1-C , 32-H ) :   0.9726 B(  2-C ,  3-C ) :   1.2260 B(  2-C ,  6-C ) :   1.0456
B(  3-C ,  4-C ) :   1.5794 B(  3-C ,  5-H ) :   0.9958 B(  4-C , 20-C ) :   1.0446
B(  6-C ,  7-H ) :   0.9444 B(  6-C ,  8-H ) :   0.9305 B(  6-C ,  9-C ) :   1.0500
B(  9-C , 10-H ) :   0.9624 B(  9-C , 11-H ) :   0.9543 B(  9-C , 12-C ) :   1.0815
B( 12-C , 13-H ) :   0.9744 B( 12-C , 14-H ) :   0.9741 B( 12-C , 15-H ) :   0.9763
B( 16-S , 17-C ) :   1.1578 B( 16-S , 20-C ) :   1.1751 B( 17-C , 18-C ) :   1.6217
B( 17-C , 33-H ) :   0.9598 B( 18-C , 19-C ) :   1.2476 B( 18-C , 21-H ) :   0.9930
B( 19-C , 20-C ) :   1.5659 B( 19-C , 22-C ) :   1.0596 B( 22-C , 23-H ) :   0.9178
B( 22-C , 24-H ) :   0.9313 B( 22-C , 25-C ) :   1.0681 B( 25-C , 26-H ) :   0.9587
B( 25-C , 27-H ) :   0.9521 B( 25-C , 28-C ) :   1.0736 B( 28-C , 29-H ) :   0.9758
B( 28-C , 30-H ) :   0.9751 B( 28-C , 31-H ) :   0.9736

Dispersion correction           -0.013800065
FINAL SINGLE POINT ENERGY     -1339.862644638698

DIPOLE MOMENT
-------------
                                X             Y             Z
Electronic contribution:     -7.29867      15.51353      20.25479
Nuclear contribution   :      7.18781     -15.79709     -20.75657
                        -----------------------------------------
Total Dipole Moment    :     -0.11085      -0.28356      -0.50179
                        -----------------------------------------
Magnitude (a.u.)       :      0.58693
Magnitude (Debye)      :      1.49185

Rotational constants in cm-1:     0.020135     0.007844     0.006467
Rotational constants in MHz :   603.637882   235.155683   193.872291

                             ****ORCA TERMINATED NORMALLY****
TOTAL RUN TIME: 0 days 0 hours 0 minutes 21 seconds 471 msec
