                         Program Version 4.2.1 -  RELEASE  -
|  1> ! wB97X-D3 SP def2-SVP
|  2> %pal
|  3> nprocs 24
|  4> end
|  5>
|  6> * xyz 0 1
|  7> S 	 -41.0363 	 -1.9666 	 -5.01626
|  8> C 	 -40.6523 	 -2.49658 	 -3.36333
|  9> C 	 -39.3046 	 -2.33171 	 -3.03292
| 10> C 	 -38.5756 	 -1.75984 	 -4.16913
| 11> C 	 -39.3676 	 -1.52065 	 -5.28505
| 12> H 	 -37.51 	 -1.63581 	 -4.24568
| 13> C 	 -38.6312 	 -2.50178 	 -1.66157
| 14> H 	 -39.1512 	 -2.02113 	 -0.896263
| 15> H 	 -37.7606 	 -1.84842 	 -1.75343
| 16> C 	 -38.1662 	 -3.90313 	 -1.35039
| 17> H 	 -39.0867 	 -4.41502 	 -1.05896
| 18> H 	 -37.7566 	 -4.21781 	 -2.25596
| 19> C 	 -37.2235 	 -3.86053 	 -0.129347
| 20> H 	 -36.3265 	 -3.23954 	 -0.182932
| 21> H 	 -37.7995 	 -3.51397 	 0.762921
| 22> H 	 -36.8388 	 -4.90692 	 -0.0109489
| 23> S 	 -37.4446 	 -1.40295 	 -7.2393
| 24> C 	 -37.7201 	 -0.583074 	 -8.83334
| 25> C 	 -38.9369 	 0.0699273 	 -8.73053
| 26> C 	 -39.6231 	 -0.0885712 	 -7.47704
| 27> C 	 -38.9678 	 -0.897603 	 -6.53926
| 28> H 	 -39.2062 	 0.695397 	 -9.59954
| 29> C 	 -40.9749 	 0.51852 	 -7.23004
| 30> H 	 -41.0994 	 0.85457 	 -6.1992
| 31> H 	 -41.7039 	 -0.292496 	 -7.33165
| 32> C 	 -41.3506 	 1.68502 	 -8.06667
| 33> H 	 -41.2593 	 1.46813 	 -9.11236
| 34> H 	 -40.758 	 2.57579 	 -7.80748
| 35> C 	 -42.8401 	 2.0341 	 -7.72588
| 36> H 	 -43.1625 	 3.02522 	 -8.04141
| 37> H 	 -43.0212 	 2.07258 	 -6.63033
| 38> H 	 -43.5193 	 1.32524 	 -8.17354
| 39> H 	 -41.4412 	 -2.92994 	 -2.65657
| 40> H 	 -37.0497 	 -0.544373 	 -9.68275
| 41> *
| 42>
| 43>                          ****END OF INPUT****

CARTESIAN COORDINATES (ANGSTROEM)
---------------------------------
  S    -41.036300   -1.966600   -5.016260
  C    -40.652300   -2.496580   -3.363330
  C    -39.304600   -2.331710   -3.032920
  C    -38.575600   -1.759840   -4.169130
  C    -39.367600   -1.520650   -5.285050
  H    -37.510000   -1.635810   -4.245680
  C    -38.631200   -2.501780   -1.661570
  H    -39.151200   -2.021130   -0.896263
  H    -37.760600   -1.848420   -1.753430
  C    -38.166200   -3.903130   -1.350390
  H    -39.086700   -4.415020   -1.058960
  H    -37.756600   -4.217810   -2.255960
  C    -37.223500   -3.860530   -0.129347
  H    -36.326500   -3.239540   -0.182932
  H    -37.799500   -3.513970    0.762921
  H    -36.838800   -4.906920   -0.010949
  S    -37.444600   -1.402950   -7.239300
  C    -37.720100   -0.583074   -8.833340
  C    -38.936900    0.069927   -8.730530
  C    -39.623100   -0.088571   -7.477040
  C    -38.967800   -0.897603   -6.539260
  H    -39.206200    0.695397   -9.599540
  C    -40.974900    0.518520   -7.230040
  H    -41.099400    0.854570   -6.199200
  H    -41.703900   -0.292496   -7.331650
  C    -41.350600    1.685020   -8.066670
  H    -41.259300    1.468130   -9.112360
  H    -40.758000    2.575790   -7.807480
  C    -42.840100    2.034100   -7.725880
  H    -43.162500    3.025220   -8.041410
  H    -43.021200    2.072580   -6.630330
  H    -43.519300    1.325240   -8.173540
  H    -41.441200   -2.929940   -2.656570
  H    -37.049700   -0.544373   -9.682750

 Total Charge           Charge          ....    0
 Multiplicity           Mult            ....    1
 Number of Electrons    NEL             ....  134
 Basis Dimension        Dim             ....  322

ORBITAL ENERGIES
----------------

  NO   OCC          E(Eh)            E(eV)
   0   2.0000     -88.970349     -2421.0063
   1   2.0000     -88.961668     -2420.7700
   2   2.0000     -10.333779      -281.1964
   3   2.0000     -10.329408      -281.0775
   4   2.0000     -10.324550      -280.9453
   5   2.0000     -10.323709      -280.9224
   6   2.0000     -10.309173      -280.5269
   7   2.0000     -10.304827      -280.4086
   8   2.0000     -10.299050      -280.2514
   9   2.0000     -10.298424      -280.2344
  10   2.0000     -10.286198      -279.9017
  11   2.0000     -10.284890      -279.8661
  12   2.0000     -10.284277      -279.8494
  13   2.0000     -10.284026      -279.8426
  14   2.0000     -10.282988      -279.8143
  15   2.0000     -10.277784      -279.6727
  16   2.0000      -8.084162      -219.9812
  17   2.0000      -8.075433      -219.7437
  18   2.0000      -6.042766      -164.4320
  19   2.0000      -6.038804      -164.3242
  20   2.0000      -6.034879      -164.2174
  21   2.0000      -6.034180      -164.1984
  22   2.0000      -6.029897      -164.0818
  23   2.0000      -6.026174      -163.9805
  24   2.0000      -1.001658       -27.2565
  25   2.0000      -0.976487       -26.5716
  26   2.0000      -0.917332       -24.9619
  27   2.0000      -0.913799       -24.8657
  28   2.0000      -0.869354       -23.6563
  29   2.0000      -0.849053       -23.1039
  30   2.0000      -0.838289       -22.8110
  31   2.0000      -0.812074       -22.0977
  32   2.0000      -0.779958       -21.2237
  33   2.0000      -0.766791       -20.8654
  34   2.0000      -0.707662       -19.2564
  35   2.0000      -0.704896       -19.1812
  36   2.0000      -0.698578       -19.0093
  37   2.0000      -0.655718       -17.8430
  38   2.0000      -0.634295       -17.2600
  39   2.0000      -0.618611       -16.8333
  40   2.0000      -0.599911       -16.3244
  41   2.0000      -0.573830       -15.6147
  42   2.0000      -0.571895       -15.5621
  43   2.0000      -0.565499       -15.3880
  44   2.0000      -0.527544       -14.3552
  45   2.0000      -0.524064       -14.2605
  46   2.0000      -0.515689       -14.0326
  47   2.0000      -0.509431       -13.8623
  48   2.0000      -0.504824       -13.7370
  49   2.0000      -0.498864       -13.5748
  50   2.0000      -0.484712       -13.1897
  51   2.0000      -0.476258       -12.9596
  52   2.0000      -0.468921       -12.7600
  53   2.0000      -0.463634       -12.6161
  54   2.0000      -0.455916       -12.4061
  55   2.0000      -0.451043       -12.2735
  56   2.0000      -0.443463       -12.0672
  57   2.0000      -0.441397       -12.0110
  58   2.0000      -0.432835       -11.7780
  59   2.0000      -0.426032       -11.5929
  60   2.0000      -0.422319       -11.4919
  61   2.0000      -0.415073       -11.2947
  62   2.0000      -0.405121       -11.0239
  63   2.0000      -0.355686        -9.6787
  64   2.0000      -0.331698        -9.0259
  65   2.0000      -0.324910        -8.8413
  66   2.0000      -0.287113        -7.8127
  67   0.0000       0.021787         0.5928
  68   0.0000       0.076458         2.0805
  69   0.0000       0.104739         2.8501
  70   0.0000       0.116183         3.1615
  71   0.0000       0.127629         3.4730

MULLIKEN ATOMIC CHARGES
-----------------------
   0 S :    0.103680
   1 C :   -0.152112
   2 C :   -0.085530
   3 C :    0.011914
   4 C :   -0.132254
   5 H :    0.016955
   6 C :    0.058729
   7 H :    0.013027
   8 H :    0.007964
   9 C :   -0.020263
  10 H :    0.033433
  11 H :    0.023098
  12 C :   -0.071977
  13 H :    0.035262
  14 H :    0.038883
  15 H :    0.043773
  16 S :    0.071518
  17 C :   -0.097765
  18 C :   -0.052792
  19 C :   -0.040080
  20 C :   -0.105251
  21 H :    0.036195
  22 C :    0.020173
  23 H :    0.031785
  24 H :    0.039224
  25 C :   -0.068644
  26 H :    0.031030
  27 H :    0.039786
  28 C :   -0.052523
  29 H :    0.023406
  30 H :    0.028957
  31 H :    0.032494
  32 H :    0.076043
  33 H :    0.061860
Sum of atomic charges:    0.0000000

LOEWDIN ATOMIC CHARGES
----------------------
   0 S :    0.407368
   1 C :   -0.202971
   2 C :   -0.057462
   3 C :   -0.063598
   4 C :   -0.189957
   5 H :    0.027496
   6 C :   -0.030070
   7 H :    0.019763
   8 H :    0.029311
   9 C :   -0.030272
  10 H :    0.029648
  11 H :    0.018939
  12 C :   -0.070099
  13 H :    0.023466
  14 H :    0.031417
  15 H :    0.032166
  16 S :    0.380073
  17 C :   -0.168544
  18 C :   -0.076786
  19 C :   -0.064279
  20 C :   -0.194566
  21 H :    0.038262
  22 C :   -0.047149
  23 H :    0.031335
  24 H :    0.029442
  25 C :   -0.036633
  26 H :    0.018431
  27 H :    0.029666
  28 C :   -0.063560
  29 H :    0.021933
  30 H :    0.027633
  31 H :    0.022583
  32 H :    0.043138
  33 H :    0.033872

  Mayer bond orders larger than 0.100000
B(  0-S ,  1-C ) :   1.1310 B(  0-S ,  4-C ) :   1.1409 B(  1-C ,  2-C ) :   1.6270
B(  1-C , 32-H ) :   0.9582 B(  2-C ,  3-C ) :   1.2331 B(  2-C ,  6-C ) :   1.0082
B(  3-C ,  4-C ) :   1.5764 B(  3-C ,  5-H ) :   0.9876 B(  4-C , 20-C ) :   1.0539
B(  6-C ,  7-H ) :   0.9428 B(  6-C ,  8-H ) :   0.9427 B(  6-C ,  9-C ) :   1.0546
B(  9-C , 10-H ) :   0.9548 B(  9-C , 11-H ) :   0.9568 B(  9-C , 12-C ) :   1.0805
B( 12-C , 13-H ) :   0.9776 B( 12-C , 14-H ) :   0.9722 B( 12-C , 15-H ) :   0.9754
B( 16-S , 17-C ) :   1.1417 B( 16-S , 20-C ) :   1.1306 B( 17-C , 18-C ) :   1.6063
B( 17-C , 20-C ) :   0.1019 B( 17-C , 33-H ) :   0.9675 B( 18-C , 19-C ) :   1.2420
B( 18-C , 21-H ) :   0.9822 B( 19-C , 20-C ) :   1.5737 B( 19-C , 22-C ) :   1.0251
B( 22-C , 23-H ) :   0.9365 B( 22-C , 24-H ) :   0.9288 B( 22-C , 25-C ) :   1.0852
B( 25-C , 26-H ) :   0.9444 B( 25-C , 27-H ) :   0.9572 B( 25-C , 28-C ) :   1.0827
B( 28-C , 29-H ) :   0.9741 B( 28-C , 30-H ) :   0.9739 B( 28-C , 31-H ) :   0.9768

Dispersion correction           -0.013245986
FINAL SINGLE POINT ENERGY     -1339.875763832127

DIPOLE MOMENT
-------------
                                X             Y             Z
Electronic contribution:      4.57688      -4.50122     -12.08382
Nuclear contribution   :     -4.67418       4.70395      12.28659
                        -----------------------------------------
Total Dipole Moment    :     -0.09730       0.20273       0.20276
                        -----------------------------------------
Magnitude (a.u.)       :      0.30279
Magnitude (Debye)      :      0.76963

Rotational constants in cm-1:     0.023340     0.006957     0.005663
Rotational constants in MHz :   699.710641   208.572811   169.772296

                             ****ORCA TERMINATED NORMALLY****
TOTAL RUN TIME: 0 days 0 hours 0 minutes 19 seconds 570 msec
