                         Program Version 4.2.1 -  RELEASE  -
|  1> ! wB97X-D3 SP def2-SVP
|  2> %pal
|  3> nprocs 24
|  4> end
|  5>
|  6> * xyz 0 1
|  7> S 	 -133.652 	 66.4835 	 -56.6793
|  8> C 	 -135.375 	 66.7641 	 -56.5704
|  9> C 	 -136.1 	 66.1832 	 -57.5586
| 10> C 	 -135.232 	 65.615 	 -58.5044
| 11> C 	 -133.845 	 65.6308 	 -58.2277
| 12> H 	 -135.614 	 65.1054 	 -59.4124
| 13> C 	 -137.601 	 66.1149 	 -57.6362
| 14> H 	 -137.822 	 66.4191 	 -56.613
| 15> H 	 -137.913 	 65.0517 	 -57.6318
| 16> C 	 -138.311 	 66.8587 	 -58.6956
| 17> H 	 -138.092 	 66.418 	 -59.6706
| 18> H 	 -139.405 	 66.7136 	 -58.6116
| 19> C 	 -137.97 	 68.3661 	 -58.6051
| 20> H 	 -138.229 	 68.6533 	 -57.6054
| 21> H 	 -136.911 	 68.6114 	 -58.8607
| 22> H 	 -138.641 	 68.9115 	 -59.2739
| 23> S 	 -132.305 	 66.2016 	 -60.3593
| 24> C 	 -131.049 	 65.0127 	 -60.8168
| 25> C 	 -131.023 	 63.9277 	 -60.0118
| 26> C 	 -132.039 	 63.9661 	 -58.9745
| 27> C 	 -132.773 	 65.1644 	 -59.053
| 28> H 	 -130.181 	 63.1442 	 -60.0615
| 29> C 	 -131.896 	 62.9869 	 -57.8343
| 30> H 	 -132.466 	 63.3327 	 -56.8684
| 31> H 	 -130.8 	 63.0244 	 -57.6109
| 32> C 	 -132.206 	 61.5635 	 -58.1949
| 33> H 	 -131.936 	 60.9556 	 -57.2389
| 34> H 	 -131.541 	 61.309 	 -59.0024
| 35> C 	 -133.68 	 61.1765 	 -58.4818
| 36> H 	 -134.407 	 61.2823 	 -57.6486
| 37> H 	 -133.688 	 60.1732 	 -58.9003
| 38> H 	 -134.075 	 61.78 	 -59.2383
| 39> H 	 -135.769 	 67.3817 	 -55.7696
| 40> H 	 -130.38 	 65.0842 	 -61.619
| 41> *
| 42>
| 43>                          ****END OF INPUT****

CARTESIAN COORDINATES (ANGSTROEM)
---------------------------------
  S    -133.652000   66.483500  -56.679300
  C    -135.375000   66.764100  -56.570400
  C    -136.100000   66.183200  -57.558600
  C    -135.232000   65.615000  -58.504400
  C    -133.845000   65.630800  -58.227700
  H    -135.614000   65.105400  -59.412400
  C    -137.601000   66.114900  -57.636200
  H    -137.822000   66.419100  -56.613000
  H    -137.913000   65.051700  -57.631800
  C    -138.311000   66.858700  -58.695600
  H    -138.092000   66.418000  -59.670600
  H    -139.405000   66.713600  -58.611600
  C    -137.970000   68.366100  -58.605100
  H    -138.229000   68.653300  -57.605400
  H    -136.911000   68.611400  -58.860700
  H    -138.641000   68.911500  -59.273900
  S    -132.305000   66.201600  -60.359300
  C    -131.049000   65.012700  -60.816800
  C    -131.023000   63.927700  -60.011800
  C    -132.039000   63.966100  -58.974500
  C    -132.773000   65.164400  -59.053000
  H    -130.181000   63.144200  -60.061500
  C    -131.896000   62.986900  -57.834300
  H    -132.466000   63.332700  -56.868400
  H    -130.800000   63.024400  -57.610900
  C    -132.206000   61.563500  -58.194900
  H    -131.936000   60.955600  -57.238900
  H    -131.541000   61.309000  -59.002400
  C    -133.680000   61.176500  -58.481800
  H    -134.407000   61.282300  -57.648600
  H    -133.688000   60.173200  -58.900300
  H    -134.075000   61.780000  -59.238300
  H    -135.769000   67.381700  -55.769600
  H    -130.380000   65.084200  -61.619000

 Total Charge           Charge          ....    0
 Multiplicity           Mult            ....    1
 Number of Electrons    NEL             ....  134
 Basis Dimension        Dim             ....  322

ORBITAL ENERGIES
----------------

  NO   OCC          E(Eh)            E(eV)
   0   2.0000     -88.967497     -2420.9287
   1   2.0000     -88.964596     -2420.8497
   2   2.0000     -10.328079      -281.0413
   3   2.0000     -10.325064      -280.9593
   4   2.0000     -10.314153      -280.6624
   5   2.0000     -10.312110      -280.6068
   6   2.0000     -10.305309      -280.4217
   7   2.0000     -10.299238      -280.2565
   8   2.0000     -10.298604      -280.2393
   9   2.0000     -10.294144      -280.1179
  10   2.0000     -10.293738      -280.1069
  11   2.0000     -10.290599      -280.0214
  12   2.0000     -10.289234      -279.9843
  13   2.0000     -10.287176      -279.9283
  14   2.0000     -10.277379      -279.6617
  15   2.0000     -10.271717      -279.5076
  16   2.0000      -8.081972      -219.9216
  17   2.0000      -8.078891      -219.8378
  18   2.0000      -6.040608      -164.3733
  19   2.0000      -6.037295      -164.2831
  20   2.0000      -6.036600      -164.2642
  21   2.0000      -6.033465      -164.1789
  22   2.0000      -6.032509      -164.1529
  23   2.0000      -6.029788      -164.0789
  24   2.0000      -1.004140       -27.3240
  25   2.0000      -0.983447       -26.7610
  26   2.0000      -0.918389       -24.9906
  27   2.0000      -0.908988       -24.7348
  28   2.0000      -0.872702       -23.7474
  29   2.0000      -0.846202       -23.0263
  30   2.0000      -0.841788       -22.9062
  31   2.0000      -0.811507       -22.0822
  32   2.0000      -0.785094       -21.3635
  33   2.0000      -0.774154       -21.0658
  34   2.0000      -0.714535       -19.4435
  35   2.0000      -0.696197       -18.9445
  36   2.0000      -0.685585       -18.6557
  37   2.0000      -0.656723       -17.8703
  38   2.0000      -0.635772       -17.3002
  39   2.0000      -0.617260       -16.7965
  40   2.0000      -0.595575       -16.2064
  41   2.0000      -0.565547       -15.3893
  42   2.0000      -0.554329       -15.0841
  43   2.0000      -0.545679       -14.8487
  44   2.0000      -0.543379       -14.7861
  45   2.0000      -0.538784       -14.6611
  46   2.0000      -0.516055       -14.0426
  47   2.0000      -0.513149       -13.9635
  48   2.0000      -0.499771       -13.5995
  49   2.0000      -0.495473       -13.4825
  50   2.0000      -0.485182       -13.2025
  51   2.0000      -0.475415       -12.9367
  52   2.0000      -0.466100       -12.6832
  53   2.0000      -0.463447       -12.6110
  54   2.0000      -0.459907       -12.5147
  55   2.0000      -0.446081       -12.1385
  56   2.0000      -0.443910       -12.0794
  57   2.0000      -0.438673       -11.9369
  58   2.0000      -0.432982       -11.7820
  59   2.0000      -0.422589       -11.4992
  60   2.0000      -0.421262       -11.4631
  61   2.0000      -0.414507       -11.2793
  62   2.0000      -0.406171       -11.0525
  63   2.0000      -0.338749        -9.2178
  64   2.0000      -0.330210        -8.9855
  65   2.0000      -0.320229        -8.7139
  66   2.0000      -0.305357        -8.3092
  67   0.0000       0.045135         1.2282
  68   0.0000       0.051609         1.4044
  69   0.0000       0.104581         2.8458
  70   0.0000       0.114619         3.1189
  71   0.0000       0.125996         3.4285

MULLIKEN ATOMIC CHARGES
-----------------------
   0 S :    0.110853
   1 C :   -0.147181
   2 C :   -0.080434
   3 C :    0.021305
   4 C :   -0.178478
   5 H :    0.018710
   6 C :    0.075847
   7 H :    0.003324
   8 H :    0.036342
   9 C :   -0.054404
  10 H :    0.026317
  11 H :    0.032350
  12 C :   -0.048070
  13 H :    0.018208
  14 H :    0.061136
  15 H :    0.029949
  16 S :    0.124238
  17 C :   -0.063257
  18 C :   -0.068769
  19 C :    0.008352
  20 C :   -0.193505
  21 H :    0.054391
  22 C :    0.019671
  23 H :    0.044271
  24 H :    0.044747
  25 C :   -0.106123
  26 H :    0.042834
  27 H :    0.024097
  28 C :   -0.020614
  29 H :    0.038713
  30 H :    0.032322
  31 H :    0.012855
  32 H :    0.049060
  33 H :    0.030943
Sum of atomic charges:    0.0000000

LOEWDIN ATOMIC CHARGES
----------------------
   0 S :    0.395693
   1 C :   -0.188995
   2 C :   -0.075741
   3 C :   -0.056858
   4 C :   -0.202373
   5 H :    0.032884
   6 C :   -0.035549
   7 H :    0.027884
   8 H :    0.037424
   9 C :   -0.044306
  10 H :    0.022758
  11 H :    0.030380
  12 C :   -0.061223
  13 H :    0.020012
  14 H :    0.034830
  15 H :    0.025073
  16 S :    0.404810
  17 C :   -0.166101
  18 C :   -0.077505
  19 C :   -0.054304
  20 C :   -0.213039
  21 H :    0.045943
  22 C :   -0.043124
  23 H :    0.038098
  24 H :    0.041135
  25 C :   -0.047292
  26 H :    0.035490
  27 H :    0.019516
  28 C :   -0.065474
  29 H :    0.031381
  30 H :    0.028943
  31 H :    0.014925
  32 H :    0.025942
  33 H :    0.018762

  Mayer bond orders larger than 0.100000
B(  0-S ,  1-C ) :   1.1599 B(  0-S ,  4-C ) :   1.1351 B(  1-C ,  2-C ) :   1.5977
B(  1-C ,  4-C ) :   0.1008 B(  1-C , 32-H ) :   0.9595 B(  2-C ,  3-C ) :   1.2600
B(  2-C ,  6-C ) :   1.0044 B(  3-C ,  4-C ) :   1.5766 B(  3-C ,  5-H ) :   0.9884
B(  4-C , 20-C ) :   1.0382 B(  6-C ,  7-H ) :   0.9368 B(  6-C ,  8-H ) :   0.9343
B(  6-C ,  9-C ) :   1.0828 B(  9-C , 10-H ) :   0.9504 B(  9-C , 11-H ) :   0.9508
B(  9-C , 12-C ) :   1.0687 B( 12-C , 13-H ) :   0.9764 B( 12-C , 14-H ) :   0.9735
B( 12-C , 15-H ) :   0.9746 B( 16-S , 17-C ) :   1.1248 B( 16-S , 20-C ) :   1.1438
B( 17-C , 18-C ) :   1.6767 B( 17-C , 33-H ) :   0.9688 B( 18-C , 19-C ) :   1.2045
B( 18-C , 21-H ) :   0.9642 B( 19-C , 20-C ) :   1.6089 B( 19-C , 22-C ) :   1.0304
B( 22-C , 23-H ) :   0.9384 B( 22-C , 24-H ) :   0.9413 B( 22-C , 25-C ) :   1.0718
B( 25-C , 26-H ) :   0.9537 B( 25-C , 27-H ) :   0.9553 B( 25-C , 28-C ) :   1.0768
B( 28-C , 29-H ) :   0.9741 B( 28-C , 30-H ) :   0.9723 B( 28-C , 31-H ) :   0.9730

Dispersion correction           -0.014622763
FINAL SINGLE POINT ENERGY     -1339.876104380899

DIPOLE MOMENT
-------------
                                X             Y             Z
Electronic contribution:     15.54295      10.80512      -1.45275
Nuclear contribution   :    -15.77244     -11.10992       1.40369
                        -----------------------------------------
Total Dipole Moment    :     -0.22949      -0.30480      -0.04906
                        -----------------------------------------
Magnitude (a.u.)       :      0.38467
Magnitude (Debye)      :      0.97777

Rotational constants in cm-1:     0.020412     0.008116     0.007219
Rotational constants in MHz :   611.940568   243.305717   216.420120

                             ****ORCA TERMINATED NORMALLY****
TOTAL RUN TIME: 0 days 0 hours 0 minutes 21 seconds 601 msec
