                         Program Version 4.2.1 -  RELEASE  -
|  1> ! wB97X-D3 SP def2-SVP
|  2> %pal
|  3> nprocs 24
|  4> end
|  5>
|  6> * xyz 0 1
|  7> S 	 -108.143 	 52.5647 	 -111.742
|  8> C 	 -107.314 	 54.0276 	 -111.198
|  9> C 	 -107.669 	 54.4134 	 -109.968
| 10> C 	 -108.689 	 53.5892 	 -109.423
| 11> C 	 -108.911 	 52.4501 	 -110.17
| 12> H 	 -109.417 	 53.8033 	 -108.637
| 13> C 	 -107.192 	 55.6323 	 -109.326
| 14> H 	 -107.887 	 55.797 	 -108.547
| 15> H 	 -107.263 	 56.467 	 -109.995
| 16> C 	 -105.718 	 55.6378 	 -108.856
| 17> H 	 -105.163 	 55.5226 	 -109.781
| 18> H 	 -105.351 	 56.5913 	 -108.461
| 19> C 	 -105.485 	 54.5864 	 -107.781
| 20> H 	 -104.556 	 54.8508 	 -107.241
| 21> H 	 -106.184 	 54.5484 	 -106.958
| 22> H 	 -105.323 	 53.6578 	 -108.202
| 23> S 	 -109.669 	 50.9536 	 -108.148
| 24> C 	 -111.149 	 50.0444 	 -108.194
| 25> C 	 -111.752 	 50.1545 	 -109.451
| 26> C 	 -111.143 	 51.1642 	 -110.29
| 27> C 	 -109.917 	 51.5389 	 -109.742
| 28> H 	 -112.766 	 49.7573 	 -109.661
| 29> C 	 -111.747 	 51.6213 	 -111.623
| 30> H 	 -112.353 	 50.833 	 -112.013
| 31> H 	 -110.819 	 51.7654 	 -112.164
| 32> C 	 -112.62 	 52.8849 	 -111.53
| 33> H 	 -112.864 	 53.2017 	 -112.542
| 34> H 	 -112.026 	 53.7149 	 -111.079
| 35> C 	 -114.012 	 52.5834 	 -110.941
| 36> H 	 -113.972 	 52.5338 	 -109.886
| 37> H 	 -114.454 	 51.7097 	 -111.426
| 38> H 	 -114.618 	 53.433 	 -111.169
| 39> H 	 -106.469 	 54.4501 	 -111.794
| 40> H 	 -111.576 	 49.6201 	 -107.249
| 41> *
| 42>
| 43>                          ****END OF INPUT****

CARTESIAN COORDINATES (ANGSTROEM)
---------------------------------
  S    -108.143000   52.564700  -111.742000
  C    -107.314000   54.027600  -111.198000
  C    -107.669000   54.413400  -109.968000
  C    -108.689000   53.589200  -109.423000
  C    -108.911000   52.450100  -110.170000
  H    -109.417000   53.803300  -108.637000
  C    -107.192000   55.632300  -109.326000
  H    -107.887000   55.797000  -108.547000
  H    -107.263000   56.467000  -109.995000
  C    -105.718000   55.637800  -108.856000
  H    -105.163000   55.522600  -109.781000
  H    -105.351000   56.591300  -108.461000
  C    -105.485000   54.586400  -107.781000
  H    -104.556000   54.850800  -107.241000
  H    -106.184000   54.548400  -106.958000
  H    -105.323000   53.657800  -108.202000
  S    -109.669000   50.953600  -108.148000
  C    -111.149000   50.044400  -108.194000
  C    -111.752000   50.154500  -109.451000
  C    -111.143000   51.164200  -110.290000
  C    -109.917000   51.538900  -109.742000
  H    -112.766000   49.757300  -109.661000
  C    -111.747000   51.621300  -111.623000
  H    -112.353000   50.833000  -112.013000
  H    -110.819000   51.765400  -112.164000
  C    -112.620000   52.884900  -111.530000
  H    -112.864000   53.201700  -112.542000
  H    -112.026000   53.714900  -111.079000
  C    -114.012000   52.583400  -110.941000
  H    -113.972000   52.533800  -109.886000
  H    -114.454000   51.709700  -111.426000
  H    -114.618000   53.433000  -111.169000
  H    -106.469000   54.450100  -111.794000
  H    -111.576000   49.620100  -107.249000

 Total Charge           Charge          ....    0
 Multiplicity           Mult            ....    1
 Number of Electrons    NEL             ....  134
 Basis Dimension        Dim             ....  322

ORBITAL ENERGIES
----------------

  NO   OCC          E(Eh)            E(eV)
   0   2.0000     -88.968162     -2420.9468
   1   2.0000     -88.963659     -2420.8242
   2   2.0000     -10.323327      -280.9120
   3   2.0000     -10.318489      -280.7804
   4   2.0000     -10.316853      -280.7358
   5   2.0000     -10.312147      -280.6078
   6   2.0000     -10.301017      -280.3049
   7   2.0000     -10.296839      -280.1912
   8   2.0000     -10.291846      -280.0554
   9   2.0000     -10.291000      -280.0323
  10   2.0000     -10.287388      -279.9341
  11   2.0000     -10.286655      -279.9141
  12   2.0000     -10.286501      -279.9099
  13   2.0000     -10.279487      -279.7191
  14   2.0000     -10.272754      -279.5359
  15   2.0000     -10.267257      -279.3863
  16   2.0000      -8.082337      -219.9316
  17   2.0000      -8.079163      -219.8452
  18   2.0000      -6.040880      -164.3807
  19   2.0000      -6.037540      -164.2898
  20   2.0000      -6.037052      -164.2765
  21   2.0000      -6.033466      -164.1790
  22   2.0000      -6.032970      -164.1655
  23   2.0000      -6.030100      -164.0874
  24   2.0000      -1.012670       -27.5562
  25   2.0000      -0.986568       -26.8459
  26   2.0000      -0.917716       -24.9723
  27   2.0000      -0.908469       -24.7207
  28   2.0000      -0.872471       -23.7411
  29   2.0000      -0.853662       -23.2293
  30   2.0000      -0.846247       -23.0275
  31   2.0000      -0.808967       -22.0131
  32   2.0000      -0.786382       -21.3985
  33   2.0000      -0.773079       -21.0366
  34   2.0000      -0.711655       -19.3651
  35   2.0000      -0.703475       -19.1425
  36   2.0000      -0.687625       -18.7112
  37   2.0000      -0.664038       -18.0694
  38   2.0000      -0.639266       -17.3953
  39   2.0000      -0.604357       -16.4454
  40   2.0000      -0.588114       -16.0034
  41   2.0000      -0.573426       -15.6037
  42   2.0000      -0.559545       -15.2260
  43   2.0000      -0.552853       -15.0439
  44   2.0000      -0.548339       -14.9211
  45   2.0000      -0.541668       -14.7395
  46   2.0000      -0.518997       -14.1226
  47   2.0000      -0.513179       -13.9643
  48   2.0000      -0.501354       -13.6425
  49   2.0000      -0.496651       -13.5146
  50   2.0000      -0.486771       -13.2457
  51   2.0000      -0.477592       -12.9959
  52   2.0000      -0.470749       -12.8097
  53   2.0000      -0.466954       -12.7065
  54   2.0000      -0.458172       -12.4675
  55   2.0000      -0.447630       -12.1806
  56   2.0000      -0.443801       -12.0764
  57   2.0000      -0.437498       -11.9049
  58   2.0000      -0.433138       -11.7863
  59   2.0000      -0.431271       -11.7355
  60   2.0000      -0.422676       -11.5016
  61   2.0000      -0.414929       -11.2908
  62   2.0000      -0.407674       -11.0934
  63   2.0000      -0.340200        -9.2573
  64   2.0000      -0.332430        -9.0459
  65   2.0000      -0.327735        -8.9181
  66   2.0000      -0.289896        -7.8885
  67   0.0000       0.029145         0.7931
  68   0.0000       0.072448         1.9714
  69   0.0000       0.101272         2.7558
  70   0.0000       0.120951         3.2912
  71   0.0000       0.123432         3.3588

MULLIKEN ATOMIC CHARGES
-----------------------
   0 S :    0.105970
   1 C :   -0.159225
   2 C :   -0.042495
   3 C :   -0.027454
   4 C :   -0.130073
   5 H :    0.040253
   6 C :    0.099293
   7 H :    0.001790
   8 H :    0.022875
   9 C :   -0.066677
  10 H :    0.018496
  11 H :    0.025819
  12 C :   -0.021896
  13 H :    0.020290
  14 H :    0.028284
  15 H :    0.030751
  16 S :    0.116704
  17 C :   -0.129358
  18 C :   -0.021750
  19 C :   -0.080739
  20 C :   -0.194438
  21 H :    0.028189
  22 C :    0.110947
  23 H :    0.010750
  24 H :    0.017603
  25 C :   -0.078134
  26 H :    0.026110
  27 H :    0.040315
  28 C :   -0.028006
  29 H :    0.034348
  30 H :    0.030754
  31 H :    0.025535
  32 H :    0.064532
  33 H :    0.080636
Sum of atomic charges:    0.0000000

LOEWDIN ATOMIC CHARGES
----------------------
   0 S :    0.395646
   1 C :   -0.189090
   2 C :   -0.070180
   3 C :   -0.065478
   4 C :   -0.198095
   5 H :    0.034753
   6 C :   -0.027786
   7 H :    0.021847
   8 H :    0.030537
   9 C :   -0.033144
  10 H :    0.021769
  11 H :    0.023835
  12 C :   -0.061687
  13 H :    0.029593
  14 H :    0.025958
  15 H :    0.018062
  16 S :    0.439025
  17 C :   -0.206758
  18 C :   -0.075726
  19 C :   -0.056671
  20 C :   -0.213173
  21 H :    0.032756
  22 C :   -0.027520
  23 H :    0.024888
  24 H :    0.023461
  25 C :   -0.037240
  26 H :    0.023273
  27 H :    0.030423
  28 C :   -0.058835
  29 H :    0.020087
  30 H :    0.026961
  31 H :    0.025278
  32 H :    0.034945
  33 H :    0.038286

  Mayer bond orders larger than 0.100000
B(  0-S ,  1-C ) :   1.1195 B(  0-S ,  4-C ) :   1.1384 B(  1-C ,  2-C ) :   1.6373
B(  1-C , 32-H ) :   0.9592 B(  2-C ,  3-C ) :   1.2107 B(  2-C ,  6-C ) :   1.0208
B(  3-C ,  4-C ) :   1.5778 B(  3-C ,  5-H ) :   0.9857 B(  4-C , 20-C ) :   1.0494
B(  6-C ,  7-H ) :   0.9387 B(  6-C ,  8-H ) :   0.9366 B(  6-C ,  9-C ) :   1.0708
B(  9-C , 10-H ) :   0.9567 B(  9-C , 11-H ) :   0.9609 B(  9-C , 12-C ) :   1.0715
B( 12-C , 13-H ) :   0.9729 B( 12-C , 14-H ) :   0.9764 B( 12-C , 15-H ) :   0.9757
B( 16-S , 17-C ) :   1.1624 B( 16-S , 20-C ) :   1.1664 B( 17-C , 18-C ) :   1.5777
B( 17-C , 20-C ) :   0.1000 B( 17-C , 33-H ) :   0.9633 B( 18-C , 19-C ) :   1.2653
B( 18-C , 21-H ) :   0.9745 B( 19-C , 20-C ) :   1.5654 B( 19-C , 22-C ) :   1.0222
B( 22-C , 23-H ) :   0.9355 B( 22-C , 24-H ) :   0.9275 B( 22-C , 25-C ) :   1.0823
B( 25-C , 26-H ) :   0.9571 B( 25-C , 27-H ) :   0.9553 B( 25-C , 28-C ) :   1.0697
B( 28-C , 29-H ) :   0.9765 B( 28-C , 30-H ) :   0.9729 B( 28-C , 31-H ) :   0.9733

Dispersion correction           -0.014953875
FINAL SINGLE POINT ENERGY     -1339.864611497144

DIPOLE MOMENT
-------------
                                X             Y             Z
Electronic contribution:      3.87761     -13.40668      -1.26437
Nuclear contribution   :     -4.13131      13.95553       1.32440
                        -----------------------------------------
Total Dipole Moment    :     -0.25371       0.54885       0.06003
                        -----------------------------------------
Magnitude (a.u.)       :      0.60762
Magnitude (Debye)      :      1.54446

Rotational constants in cm-1:     0.022219     0.008329     0.007172
Rotational constants in MHz :   666.094570   249.698710   215.006498

                             ****ORCA TERMINATED NORMALLY****
TOTAL RUN TIME: 0 days 0 hours 0 minutes 20 seconds 802 msec
