                         Program Version 4.2.1 -  RELEASE  -
|  1> ! wB97X-D3 SP def2-SVP
|  2> %pal
|  3> nprocs 24
|  4> end
|  5>
|  6> * xyz 0 1
|  7> S 	 -96.1648 	 -27.5403 	 -60.2693
|  8> C 	 -97.5072 	 -26.5388 	 -59.9031
|  9> C 	 -97.3677 	 -25.2972 	 -60.4211
| 10> C 	 -95.9988 	 -25.0718 	 -60.8049
| 11> C 	 -95.1761 	 -26.2012 	 -60.7457
| 12> H 	 -95.5963 	 -24.0989 	 -61.0508
| 13> C 	 -98.3449 	 -24.1571 	 -60.2269
| 14> H 	 -99.3545 	 -24.4258 	 -60.6062
| 15> H 	 -98.0983 	 -23.3528 	 -60.9068
| 16> C 	 -98.5177 	 -23.7472 	 -58.8002
| 17> H 	 -99.0891 	 -22.8419 	 -59.0108
| 18> H 	 -99.012 	 -24.4002 	 -58.2221
| 19> C 	 -97.2949 	 -23.3862 	 -57.9877
| 20> H 	 -97.6668 	 -23.2903 	 -56.9756
| 21> H 	 -96.6704 	 -24.2467 	 -57.8729
| 22> H 	 -96.8059 	 -22.5036 	 -58.4802
| 23> S 	 -93.3207 	 -26.8325 	 -62.5839
| 24> C 	 -91.6453 	 -26.4388 	 -62.2825
| 25> C 	 -91.4003 	 -26.0177 	 -61.0153
| 26> C 	 -92.6738 	 -25.8097 	 -60.325
| 27> C 	 -93.7489 	 -26.2849 	 -61.0291
| 28> H 	 -90.3705 	 -25.8831 	 -60.7066
| 29> C 	 -92.751 	 -25.3731 	 -58.9066
| 30> H 	 -93.1191 	 -26.1886 	 -58.2864
| 31> H 	 -93.5957 	 -24.6596 	 -58.8742
| 32> C 	 -91.4051 	 -24.804 	 -58.3439
| 33> H 	 -90.8813 	 -24.1788 	 -59.0891
| 34> H 	 -90.7513 	 -25.5929 	 -58.014
| 35> C 	 -91.6438 	 -24.0491 	 -56.9958
| 36> H 	 -92.4211 	 -23.337 	 -57.1778
| 37> H 	 -90.7394 	 -23.4882 	 -56.5553
| 38> H 	 -91.9973 	 -24.7424 	 -56.2338
| 39> H 	 -98.4645 	 -26.8244 	 -59.5602
| 40> H 	 -90.8658 	 -26.8121 	 -62.9429
| 41> *
| 42>
| 43>                          ****END OF INPUT****

CARTESIAN COORDINATES (ANGSTROEM)
---------------------------------
  S    -96.164800  -27.540300  -60.269300
  C    -97.507200  -26.538800  -59.903100
  C    -97.367700  -25.297200  -60.421100
  C    -95.998800  -25.071800  -60.804900
  C    -95.176100  -26.201200  -60.745700
  H    -95.596300  -24.098900  -61.050800
  C    -98.344900  -24.157100  -60.226900
  H    -99.354500  -24.425800  -60.606200
  H    -98.098300  -23.352800  -60.906800
  C    -98.517700  -23.747200  -58.800200
  H    -99.089100  -22.841900  -59.010800
  H    -99.012000  -24.400200  -58.222100
  C    -97.294900  -23.386200  -57.987700
  H    -97.666800  -23.290300  -56.975600
  H    -96.670400  -24.246700  -57.872900
  H    -96.805900  -22.503600  -58.480200
  S    -93.320700  -26.832500  -62.583900
  C    -91.645300  -26.438800  -62.282500
  C    -91.400300  -26.017700  -61.015300
  C    -92.673800  -25.809700  -60.325000
  C    -93.748900  -26.284900  -61.029100
  H    -90.370500  -25.883100  -60.706600
  C    -92.751000  -25.373100  -58.906600
  H    -93.119100  -26.188600  -58.286400
  H    -93.595700  -24.659600  -58.874200
  C    -91.405100  -24.804000  -58.343900
  H    -90.881300  -24.178800  -59.089100
  H    -90.751300  -25.592900  -58.014000
  C    -91.643800  -24.049100  -56.995800
  H    -92.421100  -23.337000  -57.177800
  H    -90.739400  -23.488200  -56.555300
  H    -91.997300  -24.742400  -56.233800
  H    -98.464500  -26.824400  -59.560200
  H    -90.865800  -26.812100  -62.942900

 Total Charge           Charge          ....    0
 Multiplicity           Mult            ....    1
 Number of Electrons    NEL             ....  134
 Basis Dimension        Dim             ....  322

ORBITAL ENERGIES
----------------

  NO   OCC          E(Eh)            E(eV)
   0   2.0000     -88.965040     -2420.8618
   1   2.0000     -88.959925     -2420.7226
   2   2.0000     -10.326297      -280.9928
   3   2.0000     -10.316966      -280.7389
   4   2.0000     -10.311514      -280.5906
   5   2.0000     -10.304289      -280.3940
   6   2.0000     -10.301686      -280.3231
   7   2.0000     -10.294255      -280.1209
   8   2.0000     -10.293486      -280.1000
   9   2.0000     -10.293132      -280.0904
  10   2.0000     -10.290366      -280.0151
  11   2.0000     -10.290238      -280.0116
  12   2.0000     -10.289972      -280.0044
  13   2.0000     -10.281111      -279.7633
  14   2.0000     -10.274015      -279.5702
  15   2.0000     -10.273018      -279.5430
  16   2.0000      -8.080582      -219.8838
  17   2.0000      -8.076060      -219.7608
  18   2.0000      -6.039071      -164.3315
  19   2.0000      -6.034892      -164.2178
  20   2.0000      -6.034478      -164.2065
  21   2.0000      -6.031399      -164.1227
  22   2.0000      -6.030396      -164.0954
  23   2.0000      -6.026810      -163.9978
  24   2.0000      -1.012582       -27.5537
  25   2.0000      -0.991355       -26.9761
  26   2.0000      -0.922576       -25.1046
  27   2.0000      -0.905429       -24.6380
  28   2.0000      -0.874481       -23.7958
  29   2.0000      -0.847929       -23.0733
  30   2.0000      -0.846346       -23.0302
  31   2.0000      -0.817896       -22.2561
  32   2.0000      -0.789637       -21.4871
  33   2.0000      -0.767468       -20.8839
  34   2.0000      -0.706800       -19.2330
  35   2.0000      -0.701339       -19.0844
  36   2.0000      -0.697355       -18.9760
  37   2.0000      -0.651087       -17.7170
  38   2.0000      -0.641143       -17.4464
  39   2.0000      -0.613334       -16.6897
  40   2.0000      -0.597440       -16.2572
  41   2.0000      -0.588433       -16.0121
  42   2.0000      -0.566798       -15.4234
  43   2.0000      -0.562157       -15.2971
  44   2.0000      -0.544225       -14.8091
  45   2.0000      -0.521840       -14.2000
  46   2.0000      -0.513229       -13.9657
  47   2.0000      -0.512126       -13.9357
  48   2.0000      -0.507193       -13.8014
  49   2.0000      -0.500538       -13.6203
  50   2.0000      -0.488762       -13.2999
  51   2.0000      -0.470539       -12.8040
  52   2.0000      -0.468027       -12.7357
  53   2.0000      -0.464554       -12.6412
  54   2.0000      -0.460601       -12.5336
  55   2.0000      -0.457208       -12.4413
  56   2.0000      -0.451909       -12.2971
  57   2.0000      -0.431944       -11.7538
  58   2.0000      -0.430416       -11.7122
  59   2.0000      -0.425848       -11.5879
  60   2.0000      -0.417886       -11.3713
  61   2.0000      -0.416642       -11.3374
  62   2.0000      -0.408948       -11.1280
  63   2.0000      -0.338469        -9.2102
  64   2.0000      -0.328008        -8.9256
  65   2.0000      -0.321065        -8.7366
  66   2.0000      -0.306788        -8.3481
  67   0.0000       0.047654         1.2967
  68   0.0000       0.057957         1.5771
  69   0.0000       0.118191         3.2161
  70   0.0000       0.124257         3.3812
  71   0.0000       0.131309         3.5731

MULLIKEN ATOMIC CHARGES
-----------------------
   0 S :    0.126097
   1 C :   -0.101542
   2 C :   -0.097437
   3 C :    0.043388
   4 C :   -0.191038
   5 H :    0.005669
   6 C :    0.061789
   7 H :    0.024734
   8 H :    0.016902
   9 C :   -0.038707
  10 H :    0.026209
  11 H :   -0.001918
  12 C :   -0.033288
  13 H :    0.025696
  14 H :    0.032194
  15 H :    0.042599
  16 S :    0.112029
  17 C :   -0.086742
  18 C :   -0.044058
  19 C :   -0.049659
  20 C :   -0.147310
  21 H :    0.029970
  22 C :    0.062873
  23 H :    0.039911
  24 H :    0.026108
  25 C :   -0.090579
  26 H :    0.044237
  27 H :    0.034092
  28 C :   -0.058774
  29 H :    0.023680
  30 H :    0.047110
  31 H :    0.031724
  32 H :    0.027640
  33 H :    0.056399
Sum of atomic charges:   -0.0000000

LOEWDIN ATOMIC CHARGES
----------------------
   0 S :    0.429205
   1 C :   -0.202287
   2 C :   -0.069560
   3 C :   -0.055494
   4 C :   -0.211947
   5 H :    0.026889
   6 C :   -0.034844
   7 H :    0.035955
   8 H :    0.028022
   9 C :   -0.033788
  10 H :    0.030625
  11 H :    0.006408
  12 C :   -0.061547
  13 H :    0.029181
  14 H :    0.022201
  15 H :    0.031538
  16 S :    0.423718
  17 C :   -0.183908
  18 C :   -0.071978
  19 C :   -0.052017
  20 C :   -0.223755
  21 H :    0.037165
  22 C :   -0.036395
  23 H :    0.037644
  24 H :    0.034982
  25 C :   -0.041200
  26 H :    0.025874
  27 H :    0.024270
  28 C :   -0.069085
  29 H :    0.016877
  30 H :    0.034388
  31 H :    0.024174
  32 H :    0.021248
  33 H :    0.027440

  Mayer bond orders larger than 0.100000
B(  0-S ,  1-C ) :   1.1536 B(  0-S ,  4-C ) :   1.1568 B(  1-C ,  2-C ) :   1.6070
B(  1-C , 32-H ) :   0.9701 B(  2-C ,  3-C ) :   1.2378 B(  2-C ,  6-C ) :   1.0345
B(  3-C ,  4-C ) :   1.5792 B(  3-C ,  5-H ) :   0.9984 B(  4-C , 20-C ) :   0.9934
B(  6-C ,  7-H ) :   0.9299 B(  6-C ,  8-H ) :   0.9420 B(  6-C ,  9-C ) :   1.0725
B(  9-C , 10-H ) :   0.9535 B(  9-C , 11-H ) :   0.9542 B(  9-C , 12-C ) :   1.0941
B( 12-C , 13-H ) :   0.9692 B( 12-C , 14-H ) :   0.9665 B( 12-C , 15-H ) :   0.9760
B( 16-S , 17-C ) :   1.1605 B( 16-S , 20-C ) :   1.1540 B( 17-C , 18-C ) :   1.6373
B( 17-C , 33-H ) :   0.9561 B( 18-C , 19-C ) :   1.2011 B( 18-C , 21-H ) :   0.9898
B( 19-C , 20-C ) :   1.6372 B( 19-C , 22-C ) :   1.0484 B( 22-C , 23-H ) :   0.9293
B( 22-C , 24-H ) :   0.9241 B( 22-C , 25-C ) :   1.0687 B( 25-C , 26-H ) :   0.9592
B( 25-C , 27-H ) :   0.9498 B( 25-C , 28-C ) :   1.0725 B( 28-C , 29-H ) :   0.9797
B( 28-C , 30-H ) :   0.9748 B( 28-C , 31-H ) :   0.9746

Dispersion correction           -0.014773237
FINAL SINGLE POINT ENERGY     -1339.862807006603

DIPOLE MOMENT
-------------
                                X             Y             Z
Electronic contribution:      0.80864     -19.65699     -20.95062
Nuclear contribution   :     -0.85802      20.06187      21.36065
                        -----------------------------------------
Total Dipole Moment    :     -0.04938       0.40487       0.41003
                        -----------------------------------------
Magnitude (a.u.)       :      0.57835
Magnitude (Debye)      :      1.47004

Rotational constants in cm-1:     0.017232     0.009626     0.006998
Rotational constants in MHz :   516.607338   288.594695   209.802806

                             ****ORCA TERMINATED NORMALLY****
TOTAL RUN TIME: 0 days 0 hours 0 minutes 22 seconds 251 msec
