                         Program Version 4.2.1 -  RELEASE  -
|  1> ! wB97X-D3 SP def2-SVP
|  2> %pal
|  3> nprocs 24
|  4> end
|  5>
|  6> * xyz 0 1
|  7> S 	 -71.5445 	 16.9257 	 -74.1692
|  8> C 	 -69.9506 	 16.3716 	 -73.8408
|  9> C 	 -69.0854 	 16.9018 	 -74.8154
| 10> C 	 -69.766 	 17.5609 	 -75.9348
| 11> C 	 -71.117 	 17.5152 	 -75.7796
| 12> H 	 -69.3038 	 17.9322 	 -76.8471
| 13> C 	 -67.5857 	 16.9566 	 -74.7025
| 14> H 	 -67.2289 	 17.0305 	 -75.7264
| 15> H 	 -67.2387 	 16.0129 	 -74.1769
| 16> C 	 -66.9588 	 18.1283 	 -73.8967
| 17> H 	 -65.9125 	 18.1345 	 -74.1119
| 18> H 	 -67.3071 	 19.0609 	 -74.2621
| 19> C 	 -67.2506 	 18.088 	 -72.3822
| 20> H 	 -66.7637 	 17.2714 	 -71.8728
| 21> H 	 -66.9857 	 19.0516 	 -71.8246
| 22> H 	 -68.2689 	 18.1343 	 -72.2558
| 23> S 	 -73.5676 	 17.107 	 -76.6616
| 24> C 	 -74.2329 	 17.9773 	 -78.0238
| 25> C 	 -73.4046 	 18.9862 	 -78.4193
| 26> C 	 -72.1457 	 18.9319 	 -77.7763
| 27> C 	 -72.0874 	 18.0734 	 -76.7153
| 28> H 	 -73.6614 	 19.657 	 -79.2283
| 29> C 	 -70.9321 	 19.7634 	 -78.2373
| 30> H 	 -70.1905 	 19.8119 	 -77.4238
| 31> H 	 -71.2439 	 20.7624 	 -78.577
| 32> C 	 -70.0925 	 19.0867 	 -79.2316
| 33> H 	 -70.7503 	 18.9632 	 -80.0909
| 34> H 	 -70.0746 	 18.0384 	 -78.8999
| 35> C 	 -68.7756 	 19.7873 	 -79.5318
| 36> H 	 -68.0987 	 19.1408 	 -79.9817
| 37> H 	 -68.2795 	 19.9857 	 -78.53
| 38> H 	 -68.9467 	 20.6562 	 -80.1151
| 39> H 	 -69.717 	 15.9607 	 -72.8841
| 40> H 	 -75.1564 	 17.6467 	 -78.4477
| 41> *
| 42>
| 43>                          ****END OF INPUT****

CARTESIAN COORDINATES (ANGSTROEM)
---------------------------------
  S    -71.544500   16.925700  -74.169200
  C    -69.950600   16.371600  -73.840800
  C    -69.085400   16.901800  -74.815400
  C    -69.766000   17.560900  -75.934800
  C    -71.117000   17.515200  -75.779600
  H    -69.303800   17.932200  -76.847100
  C    -67.585700   16.956600  -74.702500
  H    -67.228900   17.030500  -75.726400
  H    -67.238700   16.012900  -74.176900
  C    -66.958800   18.128300  -73.896700
  H    -65.912500   18.134500  -74.111900
  H    -67.307100   19.060900  -74.262100
  C    -67.250600   18.088000  -72.382200
  H    -66.763700   17.271400  -71.872800
  H    -66.985700   19.051600  -71.824600
  H    -68.268900   18.134300  -72.255800
  S    -73.567600   17.107000  -76.661600
  C    -74.232900   17.977300  -78.023800
  C    -73.404600   18.986200  -78.419300
  C    -72.145700   18.931900  -77.776300
  C    -72.087400   18.073400  -76.715300
  H    -73.661400   19.657000  -79.228300
  C    -70.932100   19.763400  -78.237300
  H    -70.190500   19.811900  -77.423800
  H    -71.243900   20.762400  -78.577000
  C    -70.092500   19.086700  -79.231600
  H    -70.750300   18.963200  -80.090900
  H    -70.074600   18.038400  -78.899900
  C    -68.775600   19.787300  -79.531800
  H    -68.098700   19.140800  -79.981700
  H    -68.279500   19.985700  -78.530000
  H    -68.946700   20.656200  -80.115100
  H    -69.717000   15.960700  -72.884100
  H    -75.156400   17.646700  -78.447700

 Total Charge           Charge          ....    0
 Multiplicity           Mult            ....    1
 Number of Electrons    NEL             ....  134
 Basis Dimension        Dim             ....  322

ORBITAL ENERGIES
----------------

  NO   OCC          E(Eh)            E(eV)
   0   2.0000     -88.965678     -2420.8792
   1   2.0000     -88.959561     -2420.7127
   2   2.0000     -10.332341      -281.1573
   3   2.0000     -10.326847      -281.0078
   4   2.0000     -10.317138      -280.7436
   5   2.0000     -10.314755      -280.6788
   6   2.0000     -10.306675      -280.4589
   7   2.0000     -10.305569      -280.4288
   8   2.0000     -10.295945      -280.1669
   9   2.0000     -10.295714      -280.1606
  10   2.0000     -10.294618      -280.1308
  11   2.0000     -10.290107      -280.0080
  12   2.0000     -10.282961      -279.8136
  13   2.0000     -10.281682      -279.7788
  14   2.0000     -10.281378      -279.7705
  15   2.0000     -10.274485      -279.5830
  16   2.0000      -8.080699      -219.8870
  17   2.0000      -8.074853      -219.7279
  18   2.0000      -6.039320      -164.3382
  19   2.0000      -6.035200      -164.2261
  20   2.0000      -6.033285      -164.1740
  21   2.0000      -6.031278      -164.1194
  22   2.0000      -6.029255      -164.0644
  23   2.0000      -6.025647      -163.9662
  24   2.0000      -1.011548       -27.5256
  25   2.0000      -0.987252       -26.8645
  26   2.0000      -0.924453       -25.1556
  27   2.0000      -0.908777       -24.7291
  28   2.0000      -0.874323       -23.7916
  29   2.0000      -0.855130       -23.2693
  30   2.0000      -0.845890       -23.0178
  31   2.0000      -0.817581       -22.2475
  32   2.0000      -0.787305       -21.4237
  33   2.0000      -0.774860       -21.0850
  34   2.0000      -0.708085       -19.2680
  35   2.0000      -0.701082       -19.0774
  36   2.0000      -0.693324       -18.8663
  37   2.0000      -0.671584       -18.2747
  38   2.0000      -0.645752       -17.5718
  39   2.0000      -0.621089       -16.9007
  40   2.0000      -0.604335       -16.4448
  41   2.0000      -0.579932       -15.7807
  42   2.0000      -0.568005       -15.4562
  43   2.0000      -0.548357       -14.9215
  44   2.0000      -0.544314       -14.8115
  45   2.0000      -0.527644       -14.3579
  46   2.0000      -0.522759       -14.2250
  47   2.0000      -0.516517       -14.0551
  48   2.0000      -0.512458       -13.9447
  49   2.0000      -0.504324       -13.7234
  50   2.0000      -0.494799       -13.4642
  51   2.0000      -0.480006       -13.0616
  52   2.0000      -0.474650       -12.9159
  53   2.0000      -0.464409       -12.6372
  54   2.0000      -0.461598       -12.5607
  55   2.0000      -0.452686       -12.3182
  56   2.0000      -0.444206       -12.0875
  57   2.0000      -0.437717       -11.9109
  58   2.0000      -0.432763       -11.7761
  59   2.0000      -0.425476       -11.5778
  60   2.0000      -0.418341       -11.3836
  61   2.0000      -0.414601       -11.2819
  62   2.0000      -0.408502       -11.1159
  63   2.0000      -0.362126        -9.8540
  64   2.0000      -0.332464        -9.0468
  65   2.0000      -0.324610        -8.8331
  66   2.0000      -0.288069        -7.8388
  67   0.0000       0.024939         0.6786
  68   0.0000       0.073248         1.9932
  69   0.0000       0.103321         2.8115
  70   0.0000       0.115894         3.1536
  71   0.0000       0.125612         3.4181

MULLIKEN ATOMIC CHARGES
-----------------------
   0 S :    0.103646
   1 C :   -0.100551
   2 C :   -0.098364
   3 C :   -0.021384
   4 C :   -0.065863
   5 H :    0.007213
   6 C :    0.036103
   7 H :    0.021911
   8 H :    0.034342
   9 C :   -0.018883
  10 H :    0.024898
  11 H :    0.007719
  12 C :   -0.056438
  13 H :    0.034642
  14 H :    0.033414
  15 H :    0.018654
  16 S :    0.071467
  17 C :   -0.082973
  18 C :   -0.002171
  19 C :   -0.087117
  20 C :   -0.114811
  21 H :    0.018557
  22 C :    0.053707
  23 H :    0.005866
  24 H :    0.024223
  25 C :   -0.100987
  26 H :    0.004635
  27 H :    0.027013
  28 C :    0.027294
  29 H :    0.023740
  30 H :    0.026037
  31 H :    0.039627
  32 H :    0.050616
  33 H :    0.054217
Sum of atomic charges:   -0.0000000

LOEWDIN ATOMIC CHARGES
----------------------
   0 S :    0.405573
   1 C :   -0.204626
   2 C :   -0.058081
   3 C :   -0.073039
   4 C :   -0.183842
   5 H :    0.031443
   6 C :   -0.036568
   7 H :    0.028666
   8 H :    0.036697
   9 C :   -0.030948
  10 H :    0.020925
  11 H :    0.017721
  12 C :   -0.066504
  13 H :    0.022008
  14 H :    0.037392
  15 H :    0.013393
  16 S :    0.394490
  17 C :   -0.168403
  18 C :   -0.071889
  19 C :   -0.056118
  20 C :   -0.179589
  21 H :    0.034116
  22 C :   -0.030523
  23 H :    0.023980
  24 H :    0.027046
  25 C :   -0.055712
  26 H :    0.019177
  27 H :    0.025046
  28 C :   -0.051172
  29 H :    0.021146
  30 H :    0.032403
  31 H :    0.027311
  32 H :    0.024628
  33 H :    0.023852

  Mayer bond orders larger than 0.100000
B(  0-S ,  1-C ) :   1.1265 B(  0-S ,  4-C ) :   1.1468 B(  1-C ,  2-C ) :   1.5923
B(  1-C , 32-H ) :   0.9756 B(  2-C ,  3-C ) :   1.2211 B(  2-C ,  6-C ) :   1.0426
B(  3-C ,  4-C ) :   1.5855 B(  3-C ,  5-H ) :   0.9909 B(  4-C , 20-C ) :   1.0324
B(  6-C ,  7-H ) :   0.9361 B(  6-C ,  8-H ) :   0.9423 B(  6-C ,  9-C ) :   1.0694
B(  9-C , 10-H ) :   0.9572 B(  9-C , 11-H ) :   0.9513 B(  9-C , 12-C ) :   1.0775
B( 12-C , 13-H ) :   0.9782 B( 12-C , 14-H ) :   0.9701 B( 12-C , 15-H ) :   0.9723
B( 16-S , 17-C ) :   1.1688 B( 16-S , 20-C ) :   1.1219 B( 17-C , 18-C ) :   1.5870
B( 17-C , 33-H ) :   0.9736 B( 18-C , 19-C ) :   1.2362 B( 18-C , 21-H ) :   0.9949
B( 19-C , 20-C ) :   1.6275 B( 19-C , 22-C ) :   1.0419 B( 22-C , 23-H ) :   0.9334
B( 22-C , 24-H ) :   0.9344 B( 22-C , 25-C ) :   1.0637 B( 25-C , 26-H ) :   0.9403
B( 25-C , 27-H ) :   0.9451 B( 25-C , 28-C ) :   1.0713 B( 28-C , 29-H ) :   0.9709
B( 28-C , 30-H ) :   0.9689 B( 28-C , 31-H ) :   0.9720

Dispersion correction           -0.014714786
FINAL SINGLE POINT ENERGY     -1339.864661200266

DIPOLE MOMENT
-------------
                                X             Y             Z
Electronic contribution:    -26.35868     -10.30791       4.20232
Nuclear contribution   :     26.83955      10.63011      -4.60097
                        -----------------------------------------
Total Dipole Moment    :      0.48087       0.32221      -0.39866
                        -----------------------------------------
Magnitude (a.u.)       :      0.70284
Magnitude (Debye)      :      1.78647

Rotational constants in cm-1:     0.019109     0.009413     0.006684
Rotational constants in MHz :   572.866203   282.208103   200.394021

                             ****ORCA TERMINATED NORMALLY****
TOTAL RUN TIME: 0 days 0 hours 0 minutes 22 seconds 308 msec
