                         Program Version 4.2.1 -  RELEASE  -
|  1> ! wB97X-D3 SP def2-SVP
|  2> %pal
|  3> nprocs 24
|  4> end
|  5>
|  6> * xyz 0 1
|  7> S 	 -50.2942 	 23.2535 	 -90.9828
|  8> C 	 -48.6426 	 23.5931 	 -90.5219
|  9> C 	 -47.8036 	 23.3409 	 -91.5867
| 10> C 	 -48.4652 	 22.6979 	 -92.6693
| 11> C 	 -49.7708 	 22.3723 	 -92.3876
| 12> H 	 -47.8725 	 22.4798 	 -93.5426
| 13> C 	 -46.322 	 23.7025 	 -91.523
| 14> H 	 -46.171 	 24.0625 	 -90.5334
| 15> H 	 -46.255 	 24.5145 	 -92.2407
| 16> C 	 -45.2637 	 22.7273 	 -91.9936
| 17> H 	 -45.2763 	 22.4383 	 -93.08
| 18> H 	 -44.3115 	 23.2008 	 -91.8611
| 19> C 	 -45.2116 	 21.4872 	 -91.0495
| 20> H 	 -46.1288 	 20.9506 	 -91.1457
| 21> H 	 -44.3214 	 20.8315 	 -91.1058
| 22> H 	 -45.1746 	 21.8278 	 -90.0374
| 23> S 	 -52.2452 	 22.3473 	 -93.5353
| 24> C 	 -52.7182 	 21.0204 	 -94.5624
| 25> C 	 -51.7038 	 20.1156 	 -94.6009
| 26> C 	 -50.5357 	 20.4632 	 -93.8967
| 27> C 	 -50.7017 	 21.6139 	 -93.1526
| 28> H 	 -51.8724 	 19.2619 	 -95.2216
| 29> C 	 -49.3229 	 19.651 	 -94.1316
| 30> H 	 -48.6779 	 20.1915 	 -94.8522
| 31> H 	 -49.6907 	 18.729 	 -94.5212
| 32> C 	 -48.506 	 19.1143 	 -92.9468
| 33> H 	 -48.1143 	 19.947 	 -92.3751
| 34> H 	 -47.7334 	 18.4234 	 -93.2755
| 35> C 	 -49.3347 	 18.3642 	 -91.8894
| 36> H 	 -48.6637 	 17.9709 	 -91.1754
| 37> H 	 -49.7962 	 17.5327 	 -92.4291
| 38> H 	 -50.1713 	 18.8908 	 -91.3737
| 39> H 	 -48.3888 	 24.023 	 -89.5657
| 40> H 	 -53.4999 	 20.9751 	 -95.2443
| 41> *
| 42>
| 43>                          ****END OF INPUT****

CARTESIAN COORDINATES (ANGSTROEM)
---------------------------------
  S    -50.294200   23.253500  -90.982800
  C    -48.642600   23.593100  -90.521900
  C    -47.803600   23.340900  -91.586700
  C    -48.465200   22.697900  -92.669300
  C    -49.770800   22.372300  -92.387600
  H    -47.872500   22.479800  -93.542600
  C    -46.322000   23.702500  -91.523000
  H    -46.171000   24.062500  -90.533400
  H    -46.255000   24.514500  -92.240700
  C    -45.263700   22.727300  -91.993600
  H    -45.276300   22.438300  -93.080000
  H    -44.311500   23.200800  -91.861100
  C    -45.211600   21.487200  -91.049500
  H    -46.128800   20.950600  -91.145700
  H    -44.321400   20.831500  -91.105800
  H    -45.174600   21.827800  -90.037400
  S    -52.245200   22.347300  -93.535300
  C    -52.718200   21.020400  -94.562400
  C    -51.703800   20.115600  -94.600900
  C    -50.535700   20.463200  -93.896700
  C    -50.701700   21.613900  -93.152600
  H    -51.872400   19.261900  -95.221600
  C    -49.322900   19.651000  -94.131600
  H    -48.677900   20.191500  -94.852200
  H    -49.690700   18.729000  -94.521200
  C    -48.506000   19.114300  -92.946800
  H    -48.114300   19.947000  -92.375100
  H    -47.733400   18.423400  -93.275500
  C    -49.334700   18.364200  -91.889400
  H    -48.663700   17.970900  -91.175400
  H    -49.796200   17.532700  -92.429100
  H    -50.171300   18.890800  -91.373700
  H    -48.388800   24.023000  -89.565700
  H    -53.499900   20.975100  -95.244300

 Total Charge           Charge          ....    0
 Multiplicity           Mult            ....    1
 Number of Electrons    NEL             ....  134
 Basis Dimension        Dim             ....  322

ORBITAL ENERGIES
----------------

  NO   OCC          E(Eh)            E(eV)
   0   2.0000     -88.964438     -2420.8454
   1   2.0000     -88.961995     -2420.7790
   2   2.0000     -10.328968      -281.0655
   3   2.0000     -10.323601      -280.9195
   4   2.0000     -10.310508      -280.5632
   5   2.0000     -10.309216      -280.5280
   6   2.0000     -10.298983      -280.2496
   7   2.0000     -10.298306      -280.2311
   8   2.0000     -10.293072      -280.0887
   9   2.0000     -10.291285      -280.0401
  10   2.0000     -10.291123      -280.0357
  11   2.0000     -10.287423      -279.9350
  12   2.0000     -10.285670      -279.8873
  13   2.0000     -10.280134      -279.7367
  14   2.0000     -10.272488      -279.5286
  15   2.0000     -10.269024      -279.4344
  16   2.0000      -8.079362      -219.8506
  17   2.0000      -8.077433      -219.7981
  18   2.0000      -6.037903      -164.2997
  19   2.0000      -6.035915      -164.2456
  20   2.0000      -6.033795      -164.1879
  21   2.0000      -6.032001      -164.1391
  22   2.0000      -6.030116      -164.0878
  23   2.0000      -6.028020      -164.0308
  24   2.0000      -1.014407       -27.6034
  25   2.0000      -0.990084       -26.9416
  26   2.0000      -0.915762       -24.9192
  27   2.0000      -0.911981       -24.8163
  28   2.0000      -0.875608       -23.8265
  29   2.0000      -0.851656       -23.1747
  30   2.0000      -0.844081       -22.9686
  31   2.0000      -0.819122       -22.2894
  32   2.0000      -0.784840       -21.3566
  33   2.0000      -0.775511       -21.1027
  34   2.0000      -0.719616       -19.5817
  35   2.0000      -0.700356       -19.0577
  36   2.0000      -0.687378       -18.7045
  37   2.0000      -0.664683       -18.0870
  38   2.0000      -0.637627       -17.3507
  39   2.0000      -0.630587       -17.1592
  40   2.0000      -0.589473       -16.0404
  41   2.0000      -0.567197       -15.4342
  42   2.0000      -0.563752       -15.3405
  43   2.0000      -0.555531       -15.1168
  44   2.0000      -0.551304       -15.0017
  45   2.0000      -0.547472       -14.8975
  46   2.0000      -0.521180       -14.1820
  47   2.0000      -0.515146       -14.0178
  48   2.0000      -0.506646       -13.7865
  49   2.0000      -0.496600       -13.5132
  50   2.0000      -0.485827       -13.2200
  51   2.0000      -0.483446       -13.1552
  52   2.0000      -0.476061       -12.9543
  53   2.0000      -0.465267       -12.6606
  54   2.0000      -0.457163       -12.4400
  55   2.0000      -0.446898       -12.1607
  56   2.0000      -0.441582       -12.0161
  57   2.0000      -0.435625       -11.8540
  58   2.0000      -0.434114       -11.8129
  59   2.0000      -0.431829       -11.7507
  60   2.0000      -0.421264       -11.4632
  61   2.0000      -0.408946       -11.1280
  62   2.0000      -0.402810       -10.9610
  63   2.0000      -0.353928        -9.6309
  64   2.0000      -0.330972        -9.0062
  65   2.0000      -0.326886        -8.8950
  66   2.0000      -0.286511        -7.7964
  67   0.0000       0.023878         0.6497
  68   0.0000       0.069230         1.8838
  69   0.0000       0.106826         2.9069
  70   0.0000       0.125234         3.4078
  71   0.0000       0.133591         3.6352

MULLIKEN ATOMIC CHARGES
-----------------------
   0 S :    0.099726
   1 C :   -0.131988
   2 C :   -0.124909
   3 C :    0.050050
   4 C :   -0.148354
   5 H :    0.002675
   6 C :    0.101960
   7 H :    0.008349
   8 H :    0.036527
   9 C :   -0.074193
  10 H :    0.039476
  11 H :    0.023256
  12 C :   -0.044976
  13 H :    0.035529
  14 H :    0.037250
  15 H :    0.009073
  16 S :    0.097129
  17 C :   -0.053904
  18 C :   -0.052641
  19 C :   -0.043204
  20 C :   -0.114492
  21 H :    0.009704
  22 C :    0.082358
  23 H :    0.051571
  24 H :    0.002392
  25 C :   -0.085561
  26 H :    0.045387
  27 H :    0.034586
  28 C :   -0.063927
  29 H :    0.027541
  30 H :    0.012652
  31 H :    0.053289
  32 H :    0.045509
  33 H :    0.032158
Sum of atomic charges:   -0.0000000

LOEWDIN ATOMIC CHARGES
----------------------
   0 S :    0.403861
   1 C :   -0.199294
   2 C :   -0.062301
   3 C :   -0.064397
   4 C :   -0.187283
   5 H :    0.029559
   6 C :   -0.025664
   7 H :    0.027027
   8 H :    0.038746
   9 C :   -0.043683
  10 H :    0.028333
  11 H :    0.024386
  12 C :   -0.066303
  13 H :    0.020327
  14 H :    0.027958
  15 H :    0.020258
  16 S :    0.407698
  17 C :   -0.177167
  18 C :   -0.068203
  19 C :   -0.059116
  20 C :   -0.197196
  21 H :    0.028507
  22 C :   -0.032047
  23 H :    0.038859
  24 H :    0.027018
  25 C :   -0.040121
  26 H :    0.019089
  27 H :    0.027354
  28 C :   -0.063920
  29 H :    0.020672
  30 H :    0.018352
  31 H :    0.032566
  32 H :    0.025240
  33 H :    0.020884

  Mayer bond orders larger than 0.100000
B(  0-S ,  1-C ) :   1.1274 B(  0-S ,  4-C ) :   1.1605 B(  1-C ,  2-C ) :   1.5995
B(  1-C ,  4-C ) :   0.1023 B(  1-C , 32-H ) :   0.9737 B(  2-C ,  3-C ) :   1.2560
B(  2-C ,  6-C ) :   1.0182 B(  3-C ,  4-C ) :   1.5245 B(  3-C ,  5-H ) :   1.0011
B(  4-C , 20-C ) :   1.0668 B(  6-C ,  7-H ) :   0.9409 B(  6-C ,  8-H ) :   0.9255
B(  6-C ,  9-C ) :   1.0856 B(  9-C , 10-H ) :   0.9524 B(  9-C , 11-H ) :   0.9492
B(  9-C , 12-C ) :   1.0656 B( 12-C , 13-H ) :   0.9783 B( 12-C , 14-H ) :   0.9754
B( 12-C , 15-H ) :   0.9692 B( 16-S , 17-C ) :   1.1489 B( 16-S , 20-C ) :   1.1408
B( 17-C , 18-C ) :   1.6165 B( 17-C , 33-H ) :   0.9720 B( 18-C , 19-C ) :   1.2546
B( 18-C , 21-H ) :   0.9914 B( 19-C , 20-C ) :   1.5702 B( 19-C , 22-C ) :   1.0477
B( 22-C , 23-H ) :   0.9267 B( 22-C , 24-H ) :   0.9270 B( 22-C , 25-C ) :   1.0783
B( 25-C , 26-H ) :   0.9441 B( 25-C , 27-H ) :   0.9563 B( 25-C , 28-C ) :   1.0809
B( 28-C , 29-H ) :   0.9740 B( 28-C , 30-H ) :   0.9764 B( 28-C , 31-H ) :   0.9723

Dispersion correction           -0.015855691
FINAL SINGLE POINT ENERGY     -1339.870395193463

DIPOLE MOMENT
-------------
                                X             Y             Z
Electronic contribution:    -25.17540      14.23915      -2.04112
Nuclear contribution   :     25.84621     -14.44088       1.72670
                        -----------------------------------------
Total Dipole Moment    :      0.67081      -0.20174      -0.31442
                        -----------------------------------------
Magnitude (a.u.)       :      0.76782
Magnitude (Debye)      :      1.95164

Rotational constants in cm-1:     0.020270     0.010045     0.007732
Rotational constants in MHz :   607.665959   301.134202   231.811721

                             ****ORCA TERMINATED NORMALLY****
TOTAL RUN TIME: 0 days 0 hours 0 minutes 22 seconds 297 msec
