                         Program Version 4.2.1 -  RELEASE  -
|  1> ! wB97X-D3 SP def2-SVP
|  2> %pal
|  3> nprocs 24
|  4> end
|  5>
|  6> * xyz 0 1
|  7> S 	 -144.26 	 1.11249 	 13.1923
|  8> C 	 -145.881 	 0.966645 	 12.6604
|  9> C 	 -146.521 	 2.22446 	 12.6984
| 10> C 	 -145.67 	 3.20583 	 13.2339
| 11> C 	 -144.357 	 2.8012 	 13.4979
| 12> H 	 -145.918 	 4.26484 	 13.4407
| 13> C 	 -147.92 	 2.46032 	 12.3522
| 14> H 	 -148.304 	 2.84495 	 13.369
| 15> H 	 -148.479 	 1.53704 	 12.1916
| 16> C 	 -148.141 	 3.54687 	 11.2948
| 17> H 	 -147.361 	 4.27587 	 11.4186
| 18> H 	 -147.839 	 3.15996 	 10.2882
| 19> C 	 -149.534 	 4.09561 	 11.2132
| 20> H 	 -150.095 	 3.21958 	 11.0221
| 21> H 	 -149.843 	 4.58592 	 12.157
| 22> H 	 -149.644 	 4.76559 	 10.4149
| 23> S 	 -141.761 	 3.37352 	 13.5847
| 24> C 	 -141.215 	 4.51843 	 14.8354
| 25> C 	 -142.273 	 4.99771 	 15.6281
| 26> C 	 -143.513 	 4.41501 	 15.2013
| 27> C 	 -143.346 	 3.56543 	 14.1911
| 28> H 	 -142.126 	 5.53737 	 16.5246
| 29> C 	 -144.781 	 4.5949 	 15.965
| 30> H 	 -144.514 	 4.75327 	 17.0475
| 31> H 	 -145.406 	 3.67952 	 15.9517
| 32> C 	 -145.583 	 5.8762 	 15.5734
| 33> H 	 -145.117 	 6.40435 	 14.6923
| 34> H 	 -145.353 	 6.53684 	 16.3994
| 35> C 	 -147.083 	 5.68311 	 15.4697
| 36> H 	 -147.548 	 5.32111 	 16.4103
| 37> H 	 -147.44 	 4.9483 	 14.7055
| 38> H 	 -147.647 	 6.53994 	 15.2409
| 39> H 	 -146.267 	 0.0748905 	 12.2495
| 40> H 	 -140.182 	 4.75636 	 15.0378
| 41> *
| 42>
| 43>                          ****END OF INPUT****

CARTESIAN COORDINATES (ANGSTROEM)
---------------------------------
  S    -144.260000    1.112490   13.192300
  C    -145.881000    0.966645   12.660400
  C    -146.521000    2.224460   12.698400
  C    -145.670000    3.205830   13.233900
  C    -144.357000    2.801200   13.497900
  H    -145.918000    4.264840   13.440700
  C    -147.920000    2.460320   12.352200
  H    -148.304000    2.844950   13.369000
  H    -148.479000    1.537040   12.191600
  C    -148.141000    3.546870   11.294800
  H    -147.361000    4.275870   11.418600
  H    -147.839000    3.159960   10.288200
  C    -149.534000    4.095610   11.213200
  H    -150.095000    3.219580   11.022100
  H    -149.843000    4.585920   12.157000
  H    -149.644000    4.765590   10.414900
  S    -141.761000    3.373520   13.584700
  C    -141.215000    4.518430   14.835400
  C    -142.273000    4.997710   15.628100
  C    -143.513000    4.415010   15.201300
  C    -143.346000    3.565430   14.191100
  H    -142.126000    5.537370   16.524600
  C    -144.781000    4.594900   15.965000
  H    -144.514000    4.753270   17.047500
  H    -145.406000    3.679520   15.951700
  C    -145.583000    5.876200   15.573400
  H    -145.117000    6.404350   14.692300
  H    -145.353000    6.536840   16.399400
  C    -147.083000    5.683110   15.469700
  H    -147.548000    5.321110   16.410300
  H    -147.440000    4.948300   14.705500
  H    -147.647000    6.539940   15.240900
  H    -146.267000    0.074890   12.249500
  H    -140.182000    4.756360   15.037800

 Total Charge           Charge          ....    0
 Multiplicity           Mult            ....    1
 Number of Electrons    NEL             ....  134
 Basis Dimension        Dim             ....  322

ORBITAL ENERGIES
----------------

  NO   OCC          E(Eh)            E(eV)
   0   2.0000     -88.967532     -2420.9296
   1   2.0000     -88.963655     -2420.8241
   2   2.0000     -10.321539      -280.8633
   3   2.0000     -10.320983      -280.8482
   4   2.0000     -10.315381      -280.6958
   5   2.0000     -10.308170      -280.4996
   6   2.0000     -10.298125      -280.2262
   7   2.0000     -10.296344      -280.1778
   8   2.0000     -10.294235      -280.1204
   9   2.0000     -10.294042      -280.1151
  10   2.0000     -10.293895      -280.1111
  11   2.0000     -10.292100      -280.0623
  12   2.0000     -10.289882      -280.0019
  13   2.0000     -10.283681      -279.8332
  14   2.0000     -10.281314      -279.7688
  15   2.0000     -10.272045      -279.5165
  16   2.0000      -8.082679      -219.9409
  17   2.0000      -8.079355      -219.8504
  18   2.0000      -6.041168      -164.3885
  19   2.0000      -6.037684      -164.2937
  20   2.0000      -6.037260      -164.2822
  21   2.0000      -6.033518      -164.1804
  22   2.0000      -6.033309      -164.1747
  23   2.0000      -6.030476      -164.0976
  24   2.0000      -1.015222       -27.6256
  25   2.0000      -0.989104       -26.9149
  26   2.0000      -0.919071       -25.0092
  27   2.0000      -0.909347       -24.7446
  28   2.0000      -0.872475       -23.7413
  29   2.0000      -0.856674       -23.3113
  30   2.0000      -0.853072       -23.2133
  31   2.0000      -0.814680       -22.1686
  32   2.0000      -0.783373       -21.3167
  33   2.0000      -0.772573       -21.0228
  34   2.0000      -0.709041       -19.2940
  35   2.0000      -0.700660       -19.0659
  36   2.0000      -0.693875       -18.8813
  37   2.0000      -0.672110       -18.2890
  38   2.0000      -0.643032       -17.4978
  39   2.0000      -0.622364       -16.9354
  40   2.0000      -0.597700       -16.2643
  41   2.0000      -0.569409       -15.4944
  42   2.0000      -0.561446       -15.2777
  43   2.0000      -0.553000       -15.0479
  44   2.0000      -0.538548       -14.6546
  45   2.0000      -0.527748       -14.3607
  46   2.0000      -0.521876       -14.2010
  47   2.0000      -0.515276       -14.0214
  48   2.0000      -0.504779       -13.7357
  49   2.0000      -0.501668       -13.6511
  50   2.0000      -0.490278       -13.3411
  51   2.0000      -0.485153       -13.2017
  52   2.0000      -0.478668       -13.0252
  53   2.0000      -0.462336       -12.5808
  54   2.0000      -0.461749       -12.5648
  55   2.0000      -0.448876       -12.2145
  56   2.0000      -0.446545       -12.1511
  57   2.0000      -0.439617       -11.9626
  58   2.0000      -0.437695       -11.9103
  59   2.0000      -0.429935       -11.6991
  60   2.0000      -0.419805       -11.4235
  61   2.0000      -0.411309       -11.1923
  62   2.0000      -0.408105       -11.1051
  63   2.0000      -0.348116        -9.4727
  64   2.0000      -0.332711        -9.0535
  65   2.0000      -0.326639        -8.8883
  66   2.0000      -0.288217        -7.8428
  67   0.0000       0.032267         0.8780
  68   0.0000       0.075875         2.0647
  69   0.0000       0.107477         2.9246
  70   0.0000       0.113524         3.0892
  71   0.0000       0.127761         3.4766

MULLIKEN ATOMIC CHARGES
-----------------------
   0 S :    0.114297
   1 C :   -0.117152
   2 C :   -0.065545
   3 C :   -0.017823
   4 C :   -0.132576
   5 H :    0.016990
   6 C :    0.049968
   7 H :    0.038822
   8 H :    0.017655
   9 C :   -0.087746
  10 H :    0.015860
  11 H :    0.023009
  12 C :    0.011026
  13 H :    0.021970
  14 H :    0.033536
  15 H :    0.025608
  16 S :    0.116274
  17 C :   -0.090791
  18 C :   -0.012199
  19 C :   -0.044543
  20 C :   -0.142098
  21 H :    0.008756
  22 C :    0.010565
  23 H :    0.030195
  24 H :    0.053978
  25 C :   -0.071086
  26 H :    0.052045
  27 H :    0.024965
  28 C :   -0.041183
  29 H :    0.029002
  30 H :    0.020035
  31 H :    0.021977
  32 H :    0.033283
  33 H :    0.052926
Sum of atomic charges:    0.0000000

LOEWDIN ATOMIC CHARGES
----------------------
   0 S :    0.437108
   1 C :   -0.210013
   2 C :   -0.064932
   3 C :   -0.072247
   4 C :   -0.210536
   5 H :    0.035156
   6 C :   -0.037355
   7 H :    0.041964
   8 H :    0.027612
   9 C :   -0.044627
  10 H :    0.017659
  11 H :    0.029084
  12 C :   -0.054189
  13 H :    0.024201
  14 H :    0.028124
  15 H :    0.021339
  16 S :    0.411368
  17 C :   -0.171410
  18 C :   -0.055704
  19 C :   -0.064336
  20 C :   -0.207007
  21 H :    0.026632
  22 C :   -0.033488
  23 H :    0.035384
  24 H :    0.035569
  25 C :   -0.049656
  26 H :    0.030964
  27 H :    0.026577
  28 C :   -0.071498
  29 H :    0.030233
  30 H :    0.024513
  31 H :    0.020067
  32 H :    0.018919
  33 H :    0.024525

  Mayer bond orders larger than 0.100000
B(  0-S ,  1-C ) :   1.1674 B(  0-S ,  4-C ) :   1.1800 B(  1-C ,  2-C ) :   1.5292
B(  1-C ,  4-C ) :   0.1094 B(  1-C , 32-H ) :   0.9796 B(  2-C ,  3-C ) :   1.2832
B(  2-C ,  6-C ) :   1.0346 B(  3-C ,  4-C ) :   1.5310 B(  3-C ,  5-H ) :   0.9868
B(  4-C , 20-C ) :   1.0110 B(  6-C ,  7-H ) :   0.9375 B(  6-C ,  8-H ) :   0.9362
B(  6-C ,  9-C ) :   1.0477 B(  9-C , 10-H ) :   0.9585 B(  9-C , 11-H ) :   0.9457
B(  9-C , 12-C ) :   1.0820 B( 12-C , 13-H ) :   0.9712 B( 12-C , 14-H ) :   0.9755
B( 12-C , 15-H ) :   0.9712 B( 16-S , 17-C ) :   1.1407 B( 16-S , 20-C ) :   1.1315
B( 17-C , 18-C ) :   1.6272 B( 17-C , 33-H ) :   0.9695 B( 18-C , 19-C ) :   1.2105
B( 18-C , 21-H ) :   0.9922 B( 19-C , 20-C ) :   1.6538 B( 19-C , 22-C ) :   1.0502
B( 22-C , 23-H ) :   0.9412 B( 22-C , 24-H ) :   0.9479 B( 22-C , 25-C ) :   1.0132
B( 25-C , 26-H ) :   0.9644 B( 25-C , 27-H ) :   0.9527 B( 25-C , 28-C ) :   1.0829
B( 28-C , 29-H ) :   0.9685 B( 28-C , 30-H ) :   0.9721 B( 28-C , 31-H ) :   0.9696

Dispersion correction           -0.015432667
FINAL SINGLE POINT ENERGY     -1339.877527297219

DIPOLE MOMENT
-------------
                                X             Y             Z
Electronic contribution:     28.79154     -14.31038      -1.15580
Nuclear contribution   :    -29.30684      14.66469       1.44145
                        -----------------------------------------
Total Dipole Moment    :     -0.51531       0.35430       0.28565
                        -----------------------------------------
Magnitude (a.u.)       :      0.68751
Magnitude (Debye)      :      1.74750

Rotational constants in cm-1:     0.019376     0.009663     0.007190
Rotational constants in MHz :   580.867566   289.703527   215.553029

                             ****ORCA TERMINATED NORMALLY****
TOTAL RUN TIME: 0 days 0 hours 0 minutes 21 seconds 846 msec
