                         Program Version 4.2.1 -  RELEASE  -
|  1> ! wB97X-D3 SP def2-SVP
|  2> %pal
|  3> nprocs 24
|  4> end
|  5>
|  6> * xyz 0 1
|  7> S 	 -99.7375 	 -3.48245 	 -102.267
|  8> C 	 -99.4107 	 -3.3984 	 -103.942
|  9> C 	 -100.501 	 -2.89398 	 -104.681
| 10> C 	 -101.661 	 -2.77328 	 -103.831
| 11> C 	 -101.357 	 -2.90733 	 -102.45
| 12> H 	 -102.676 	 -2.53667 	 -104.178
| 13> C 	 -100.456 	 -2.49797 	 -106.142
| 14> H 	 -101.153 	 -1.68619 	 -106.202
| 15> H 	 -100.923 	 -3.25864 	 -106.795
| 16> C 	 -99.0881 	 -1.99904 	 -106.68
| 17> H 	 -98.9194 	 -1.09385 	 -106.047
| 18> H 	 -98.2125 	 -2.67512 	 -106.503
| 19> C 	 -98.9674 	 -1.80161 	 -108.21
| 20> H 	 -99.2806 	 -2.72118 	 -108.75
| 21> H 	 -99.7373 	 -0.998538 	 -108.418
| 22> H 	 -98.0133 	 -1.3123 	 -108.484
| 23> S 	 -101.549 	 -1.65408 	 -99.9858
| 24> C 	 -103.044 	 -1.71775 	 -99.0711
| 25> C 	 -104.008 	 -2.3197 	 -99.8628
| 26> C 	 -103.542 	 -2.80776 	 -101.09
| 27> C 	 -102.198 	 -2.64925 	 -101.274
| 28> H 	 -104.979 	 -2.4212 	 -99.373
| 29> C 	 -104.476 	 -3.46817 	 -102.088
| 30> H 	 -104.386 	 -2.934 	 -102.989
| 31> H 	 -105.553 	 -3.36958 	 -101.909
| 32> C 	 -104.135 	 -4.94531 	 -102.413
| 33> H 	 -104.235 	 -5.48779 	 -101.41
| 34> H 	 -103.098 	 -5.16414 	 -102.718
| 35> C 	 -105.156 	 -5.65302 	 -103.384
| 36> H 	 -105.105 	 -6.7196 	 -103.215
| 37> H 	 -104.976 	 -5.44563 	 -104.413
| 38> H 	 -106.215 	 -5.32557 	 -103.203
| 39> H 	 -98.4676 	 -3.53114 	 -104.35
| 40> H 	 -103.107 	 -1.43611 	 -98.0481
| 41> *
| 42>
| 43>                          ****END OF INPUT****

CARTESIAN COORDINATES (ANGSTROEM)
---------------------------------
  S    -99.737500   -3.482450  -102.267000
  C    -99.410700   -3.398400  -103.942000
  C    -100.501000   -2.893980  -104.681000
  C    -101.661000   -2.773280  -103.831000
  C    -101.357000   -2.907330  -102.450000
  H    -102.676000   -2.536670  -104.178000
  C    -100.456000   -2.497970  -106.142000
  H    -101.153000   -1.686190  -106.202000
  H    -100.923000   -3.258640  -106.795000
  C    -99.088100   -1.999040  -106.680000
  H    -98.919400   -1.093850  -106.047000
  H    -98.212500   -2.675120  -106.503000
  C    -98.967400   -1.801610  -108.210000
  H    -99.280600   -2.721180  -108.750000
  H    -99.737300   -0.998538  -108.418000
  H    -98.013300   -1.312300  -108.484000
  S    -101.549000   -1.654080  -99.985800
  C    -103.044000   -1.717750  -99.071100
  C    -104.008000   -2.319700  -99.862800
  C    -103.542000   -2.807760  -101.090000
  C    -102.198000   -2.649250  -101.274000
  H    -104.979000   -2.421200  -99.373000
  C    -104.476000   -3.468170  -102.088000
  H    -104.386000   -2.934000  -102.989000
  H    -105.553000   -3.369580  -101.909000
  C    -104.135000   -4.945310  -102.413000
  H    -104.235000   -5.487790  -101.410000
  H    -103.098000   -5.164140  -102.718000
  C    -105.156000   -5.653020  -103.384000
  H    -105.105000   -6.719600  -103.215000
  H    -104.976000   -5.445630  -104.413000
  H    -106.215000   -5.325570  -103.203000
  H    -98.467600   -3.531140  -104.350000
  H    -103.107000   -1.436110  -98.048100

 Total Charge           Charge          ....    0
 Multiplicity           Mult            ....    1
 Number of Electrons    NEL             ....  134
 Basis Dimension        Dim             ....  322

ORBITAL ENERGIES
----------------

  NO   OCC          E(Eh)            E(eV)
   0   2.0000     -88.968525     -2420.9566
   1   2.0000     -88.962903     -2420.8037
   2   2.0000     -10.333226      -281.1814
   3   2.0000     -10.325928      -280.9828
   4   2.0000     -10.315479      -280.6985
   5   2.0000     -10.307931      -280.4931
   6   2.0000     -10.307289      -280.4756
   7   2.0000     -10.302974      -280.3582
   8   2.0000     -10.300044      -280.2784
   9   2.0000     -10.297251      -280.2024
  10   2.0000     -10.296801      -280.1902
  11   2.0000     -10.293095      -280.0893
  12   2.0000     -10.291510      -280.0462
  13   2.0000     -10.291272      -280.0397
  14   2.0000     -10.289093      -279.9805
  15   2.0000     -10.278685      -279.6972
  16   2.0000      -8.083978      -219.9762
  17   2.0000      -8.077739      -219.8065
  18   2.0000      -6.042340      -164.4204
  19   2.0000      -6.038198      -164.3077
  20   2.0000      -6.036217      -164.2538
  21   2.0000      -6.035047      -164.2220
  22   2.0000      -6.032178      -164.1439
  23   2.0000      -6.028567      -164.0457
  24   2.0000      -1.009638       -27.4737
  25   2.0000      -0.987551       -26.8726
  26   2.0000      -0.910205       -24.7679
  27   2.0000      -0.902488       -24.5579
  28   2.0000      -0.867130       -23.5958
  29   2.0000      -0.851519       -23.1710
  30   2.0000      -0.844674       -22.9847
  31   2.0000      -0.812923       -22.1208
  32   2.0000      -0.783259       -21.3136
  33   2.0000      -0.773850       -21.0575
  34   2.0000      -0.708786       -19.2871
  35   2.0000      -0.697974       -18.9928
  36   2.0000      -0.688447       -18.7336
  37   2.0000      -0.666282       -18.1305
  38   2.0000      -0.642126       -17.4731
  39   2.0000      -0.614519       -16.7219
  40   2.0000      -0.597398       -16.2560
  41   2.0000      -0.572003       -15.5650
  42   2.0000      -0.566734       -15.4216
  43   2.0000      -0.556551       -15.1445
  44   2.0000      -0.526052       -14.3146
  45   2.0000      -0.522708       -14.2236
  46   2.0000      -0.519793       -14.1443
  47   2.0000      -0.514837       -14.0094
  48   2.0000      -0.508672       -13.8417
  49   2.0000      -0.502374       -13.6703
  50   2.0000      -0.487843       -13.2749
  51   2.0000      -0.485930       -13.2228
  52   2.0000      -0.476503       -12.9663
  53   2.0000      -0.462171       -12.5763
  54   2.0000      -0.458046       -12.4641
  55   2.0000      -0.445843       -12.1320
  56   2.0000      -0.439737       -11.9659
  57   2.0000      -0.437360       -11.9012
  58   2.0000      -0.431471       -11.7409
  59   2.0000      -0.429840       -11.6965
  60   2.0000      -0.420178       -11.4336
  61   2.0000      -0.408957       -11.1283
  62   2.0000      -0.407926       -11.1002
  63   2.0000      -0.348839        -9.4924
  64   2.0000      -0.330564        -8.9951
  65   2.0000      -0.328870        -8.9490
  66   2.0000      -0.289268        -7.8714
  67   0.0000       0.024410         0.6642
  68   0.0000       0.076407         2.0791
  69   0.0000       0.113469         3.0877
  70   0.0000       0.118421         3.2224
  71   0.0000       0.130763         3.5582

MULLIKEN ATOMIC CHARGES
-----------------------
   0 S :    0.128888
   1 C :   -0.085554
   2 C :   -0.117725
   3 C :    0.022956
   4 C :   -0.175981
   5 H :    0.016628
   6 C :    0.094144
   7 H :    0.017516
   8 H :    0.037240
   9 C :   -0.143559
  10 H :    0.045389
  11 H :    0.040597
  12 C :   -0.061416
  13 H :    0.052644
  14 H :    0.026407
  15 H :    0.051477
  16 S :    0.095285
  17 C :   -0.101072
  18 C :   -0.047389
  19 C :   -0.009770
  20 C :   -0.118214
  21 H :    0.023891
  22 C :    0.102633
  23 H :    0.000468
  24 H :    0.014916
  25 C :   -0.124830
  26 H :    0.033518
  27 H :    0.055188
  28 C :   -0.045673
  29 H :    0.038640
  30 H :    0.028841
  31 H :    0.026661
  32 H :    0.022196
  33 H :    0.055061
Sum of atomic charges:   -0.0000000

LOEWDIN ATOMIC CHARGES
----------------------
   0 S :    0.443873
   1 C :   -0.204680
   2 C :   -0.058064
   3 C :   -0.062128
   4 C :   -0.204739
   5 H :    0.030367
   6 C :   -0.035743
   7 H :    0.029660
   8 H :    0.033192
   9 C :   -0.051926
  10 H :    0.031645
  11 H :    0.023279
  12 C :   -0.072756
  13 H :    0.032574
  14 H :    0.027066
  15 H :    0.033687
  16 S :    0.402760
  17 C :   -0.179162
  18 C :   -0.072134
  19 C :   -0.060140
  20 C :   -0.198034
  21 H :    0.035834
  22 C :   -0.031442
  23 H :    0.018610
  24 H :    0.032425
  25 C :   -0.043221
  26 H :    0.028943
  27 H :    0.028243
  28 C :   -0.067173
  29 H :    0.027701
  30 H :    0.017842
  31 H :    0.027045
  32 H :    0.011110
  33 H :    0.025484

  Mayer bond orders larger than 0.100000
B(  0-S ,  1-C ) :   1.1610 B(  0-S ,  4-C ) :   1.1797 B(  1-C ,  2-C ) :   1.5743
B(  1-C ,  4-C ) :   0.1035 B(  1-C , 32-H ) :   0.9731 B(  2-C ,  3-C ) :   1.2839
B(  2-C ,  6-C ) :   1.0155 B(  3-C ,  4-C ) :   1.5273 B(  3-C ,  5-H ) :   0.9849
B(  4-C , 20-C ) :   1.0344 B(  6-C ,  7-H ) :   0.9392 B(  6-C ,  8-H ) :   0.9310
B(  6-C ,  9-C ) :   1.0524 B(  9-C , 10-H ) :   0.9599 B(  9-C , 11-H ) :   0.9577
B(  9-C , 12-C ) :   1.0727 B( 12-C , 13-H ) :   0.9728 B( 12-C , 14-H ) :   0.9761
B( 12-C , 15-H ) :   0.9728 B( 16-S , 17-C ) :   1.1604 B( 16-S , 20-C ) :   1.1488
B( 17-C , 18-C ) :   1.5818 B( 17-C , 20-C ) :   0.1087 B( 17-C , 33-H ) :   0.9741
B( 18-C , 19-C ) :   1.2523 B( 18-C , 21-H ) :   0.9969 B( 19-C , 20-C ) :   1.5819
B( 19-C , 22-C ) :   1.0368 B( 22-C , 23-H ) :   0.9242 B( 22-C , 24-H ) :   0.9357
B( 22-C , 25-C ) :   1.0549 B( 25-C , 26-H ) :   0.9598 B( 25-C , 27-H ) :   0.9563
B( 25-C , 28-C ) :   1.0722 B( 28-C , 29-H ) :   0.9775 B( 28-C , 30-H ) :   0.9775
B( 28-C , 31-H ) :   0.9746

Dispersion correction           -0.014103635
FINAL SINGLE POINT ENERGY     -1339.875262977554

DIPOLE MOMENT
-------------
                                X             Y             Z
Electronic contribution:      8.22194       5.62666      25.22010
Nuclear contribution   :     -8.56810      -5.60436     -25.68899
                        -----------------------------------------
Total Dipole Moment    :     -0.34616       0.02230      -0.46890
                        -----------------------------------------
Magnitude (a.u.)       :      0.58326
Magnitude (Debye)      :      1.48252

Rotational constants in cm-1:     0.019778     0.007834     0.006350
Rotational constants in MHz :   592.938238   234.862391   190.375313

                             ****ORCA TERMINATED NORMALLY****
TOTAL RUN TIME: 0 days 0 hours 0 minutes 21 seconds 221 msec
