                         Program Version 4.2.1 -  RELEASE  -
|  1> ! wB97X-D3 SP def2-SVP
|  2> %pal
|  3> nprocs 24
|  4> end
|  5>
|  6> * xyz 0 1
|  7> S 	 -40.4991 	 -46.7527 	 -72.415
|  8> C 	 -40.1343 	 -45.3331 	 -73.3382
|  9> C 	 -38.7713 	 -45.2064 	 -73.4938
| 10> C 	 -38.0864 	 -46.2503 	 -72.7274
| 11> C 	 -38.8508 	 -47.2526 	 -72.1651
| 12> H 	 -37.0329 	 -46.2246 	 -72.7301
| 13> C 	 -38.1145 	 -43.9442 	 -74.0396
| 14> H 	 -37.3054 	 -43.552 	 -73.3636
| 15> H 	 -38.917 	 -43.2371 	 -73.9614
| 16> C 	 -37.7239 	 -43.9996 	 -75.5275
| 17> H 	 -38.5707 	 -44.1014 	 -76.1804
| 18> H 	 -37.2632 	 -43.0087 	 -75.794
| 19> C 	 -36.7089 	 -45.059 	 -75.904
| 20> H 	 -35.8719 	 -45.0756 	 -75.2971
| 21> H 	 -37.1111 	 -46.0409 	 -75.8906
| 22> H 	 -36.406 	 -44.933 	 -76.9541
| 23> S 	 -39.8733 	 -49.2733 	 -70.6098
| 24> C 	 -38.9748 	 -50.66 	 -70.2839
| 25> C 	 -37.5998 	 -50.4665 	 -70.5785
| 26> C 	 -37.3511 	 -49.1398 	 -71.1002
| 27> C 	 -38.5215 	 -48.4169 	 -71.3312
| 28> H 	 -36.8211 	 -51.2261 	 -70.2118
| 29> C 	 -35.982 	 -48.7674 	 -71.6028
| 30> H 	 -35.3705 	 -49.0145 	 -70.737
| 31> H 	 -35.8734 	 -47.6865 	 -71.8136
| 32> C 	 -35.4943 	 -49.5713 	 -72.8341
| 33> H 	 -36.1538 	 -49.4729 	 -73.6944
| 34> H 	 -35.6597 	 -50.6646 	 -72.5669
| 35> C 	 -34.04 	 -49.2081 	 -73.1907
| 36> H 	 -33.677 	 -49.8606 	 -74.0151
| 37> H 	 -33.3397 	 -49.2291 	 -72.3393
| 38> H 	 -34.0312 	 -48.2555 	 -73.6291
| 39> H 	 -40.795 	 -44.5438 	 -73.7249
| 40> H 	 -39.2988 	 -51.5233 	 -69.771
| 41> *
| 42>
| 43>                          ****END OF INPUT****

CARTESIAN COORDINATES (ANGSTROEM)
---------------------------------
  S    -40.499100  -46.752700  -72.415000
  C    -40.134300  -45.333100  -73.338200
  C    -38.771300  -45.206400  -73.493800
  C    -38.086400  -46.250300  -72.727400
  C    -38.850800  -47.252600  -72.165100
  H    -37.032900  -46.224600  -72.730100
  C    -38.114500  -43.944200  -74.039600
  H    -37.305400  -43.552000  -73.363600
  H    -38.917000  -43.237100  -73.961400
  C    -37.723900  -43.999600  -75.527500
  H    -38.570700  -44.101400  -76.180400
  H    -37.263200  -43.008700  -75.794000
  C    -36.708900  -45.059000  -75.904000
  H    -35.871900  -45.075600  -75.297100
  H    -37.111100  -46.040900  -75.890600
  H    -36.406000  -44.933000  -76.954100
  S    -39.873300  -49.273300  -70.609800
  C    -38.974800  -50.660000  -70.283900
  C    -37.599800  -50.466500  -70.578500
  C    -37.351100  -49.139800  -71.100200
  C    -38.521500  -48.416900  -71.331200
  H    -36.821100  -51.226100  -70.211800
  C    -35.982000  -48.767400  -71.602800
  H    -35.370500  -49.014500  -70.737000
  H    -35.873400  -47.686500  -71.813600
  C    -35.494300  -49.571300  -72.834100
  H    -36.153800  -49.472900  -73.694400
  H    -35.659700  -50.664600  -72.566900
  C    -34.040000  -49.208100  -73.190700
  H    -33.677000  -49.860600  -74.015100
  H    -33.339700  -49.229100  -72.339300
  H    -34.031200  -48.255500  -73.629100
  H    -40.795000  -44.543800  -73.724900
  H    -39.298800  -51.523300  -69.771000

 Total Charge           Charge          ....    0
 Multiplicity           Mult            ....    1
 Number of Electrons    NEL             ....  134
 Basis Dimension        Dim             ....  322

ORBITAL ENERGIES
----------------

  NO   OCC          E(Eh)            E(eV)
   0   2.0000     -88.968326     -2420.9512
   1   2.0000     -88.963995     -2420.8334
   2   2.0000     -10.335424      -281.2412
   3   2.0000     -10.332714      -281.1674
   4   2.0000     -10.318125      -280.7704
   5   2.0000     -10.314360      -280.6680
   6   2.0000     -10.308544      -280.5097
   7   2.0000     -10.305940      -280.4389
   8   2.0000     -10.300137      -280.2810
   9   2.0000     -10.296593      -280.1845
  10   2.0000     -10.293550      -280.1017
  11   2.0000     -10.291962      -280.0585
  12   2.0000     -10.291830      -280.0549
  13   2.0000     -10.287698      -279.9425
  14   2.0000     -10.280030      -279.7338
  15   2.0000     -10.266074      -279.3541
  16   2.0000      -8.084129      -219.9803
  17   2.0000      -8.079104      -219.8436
  18   2.0000      -6.042589      -164.4272
  19   2.0000      -6.038340      -164.3116
  20   2.0000      -6.037801      -164.2969
  21   2.0000      -6.035012      -164.2210
  22   2.0000      -6.033455      -164.1787
  23   2.0000      -6.029710      -164.0768
  24   2.0000      -1.010966       -27.5098
  25   2.0000      -0.988337       -26.8940
  26   2.0000      -0.912476       -24.8297
  27   2.0000      -0.910646       -24.7799
  28   2.0000      -0.871064       -23.7029
  29   2.0000      -0.854033       -23.2394
  30   2.0000      -0.839924       -22.8555
  31   2.0000      -0.817466       -22.2444
  32   2.0000      -0.784573       -21.3493
  33   2.0000      -0.775833       -21.1115
  34   2.0000      -0.707886       -19.2626
  35   2.0000      -0.699552       -19.0358
  36   2.0000      -0.697762       -18.9871
  37   2.0000      -0.662503       -18.0276
  38   2.0000      -0.633676       -17.2432
  39   2.0000      -0.624943       -17.0056
  40   2.0000      -0.595732       -16.2107
  41   2.0000      -0.575159       -15.6509
  42   2.0000      -0.559824       -15.2336
  43   2.0000      -0.548611       -14.9285
  44   2.0000      -0.541969       -14.7477
  45   2.0000      -0.523866       -14.2551
  46   2.0000      -0.519278       -14.1303
  47   2.0000      -0.514564       -14.0020
  48   2.0000      -0.510030       -13.8786
  49   2.0000      -0.504101       -13.7173
  50   2.0000      -0.489997       -13.3335
  51   2.0000      -0.480722       -13.0811
  52   2.0000      -0.472511       -12.8577
  53   2.0000      -0.467370       -12.7178
  54   2.0000      -0.459402       -12.5010
  55   2.0000      -0.452463       -12.3121
  56   2.0000      -0.444518       -12.0959
  57   2.0000      -0.441175       -12.0050
  58   2.0000      -0.434002       -11.8098
  59   2.0000      -0.427939       -11.6448
  60   2.0000      -0.419955       -11.4276
  61   2.0000      -0.411579       -11.1996
  62   2.0000      -0.403416       -10.9775
  63   2.0000      -0.365487        -9.9454
  64   2.0000      -0.332528        -9.0485
  65   2.0000      -0.324055        -8.8180
  66   2.0000      -0.283880        -7.7248
  67   0.0000       0.019392         0.5277
  68   0.0000       0.086355         2.3498
  69   0.0000       0.097877         2.6634
  70   0.0000       0.115777         3.1505
  71   0.0000       0.126741         3.4488

MULLIKEN ATOMIC CHARGES
-----------------------
   0 S :    0.090940
   1 C :   -0.107147
   2 C :   -0.117495
   3 C :   -0.002351
   4 C :   -0.062414
   5 H :   -0.022261
   6 C :    0.047461
   7 H :    0.047541
   8 H :    0.010369
   9 C :   -0.065692
  10 H :    0.023470
  11 H :    0.029619
  12 C :   -0.021421
  13 H :    0.010922
  14 H :    0.026806
  15 H :    0.029016
  16 S :    0.112832
  17 C :   -0.071518
  18 C :   -0.085210
  19 C :   -0.057832
  20 C :   -0.112622
  21 H :    0.055464
  22 C :    0.037576
  23 H :    0.027695
  24 H :    0.026142
  25 C :   -0.090789
  26 H :    0.034347
  27 H :    0.029166
  28 C :   -0.022378
  29 H :    0.037849
  30 H :    0.037466
  31 H :    0.019223
  32 H :    0.056334
  33 H :    0.048894
Sum of atomic charges:    0.0000000

LOEWDIN ATOMIC CHARGES
----------------------
   0 S :    0.410343
   1 C :   -0.205646
   2 C :   -0.067894
   3 C :   -0.071125
   4 C :   -0.188541
   5 H :    0.013247
   6 C :   -0.033548
   7 H :    0.039522
   8 H :    0.028488
   9 C :   -0.039031
  10 H :    0.022260
  11 H :    0.027848
  12 C :   -0.062071
  13 H :    0.011613
  14 H :    0.022133
  15 H :    0.031263
  16 S :    0.435685
  17 C :   -0.197928
  18 C :   -0.085439
  19 C :   -0.055525
  20 C :   -0.197070
  21 H :    0.046050
  22 C :   -0.035877
  23 H :    0.034337
  24 H :    0.027708
  25 C :   -0.041184
  26 H :    0.026352
  27 H :    0.026741
  28 C :   -0.064627
  29 H :    0.033027
  30 H :    0.027857
  31 H :    0.018434
  32 H :    0.038177
  33 H :    0.024421

  Mayer bond orders larger than 0.100000
B(  0-S ,  1-C ) :   1.1467 B(  0-S ,  4-C ) :   1.1358 B(  1-C ,  2-C ) :   1.6209
B(  1-C , 32-H ) :   0.9557 B(  2-C ,  3-C ) :   1.2574 B(  2-C ,  6-C ) :   1.0107
B(  3-C ,  4-C ) :   1.5521 B(  3-C ,  5-H ) :   0.9985 B(  4-C , 20-C ) :   1.0810
B(  6-C ,  7-H ) :   0.9500 B(  6-C ,  8-H ) :   0.9407 B(  6-C ,  9-C ) :   1.0733
B(  9-C , 10-H ) :   0.9541 B(  9-C , 11-H ) :   0.9551 B(  9-C , 12-C ) :   1.0890
B( 12-C , 13-H ) :   0.9746 B( 12-C , 14-H ) :   0.9704 B( 12-C , 15-H ) :   0.9705
B( 16-S , 17-C ) :   1.1912 B( 16-S , 20-C ) :   1.1317 B( 17-C , 18-C ) :   1.5697
B( 17-C , 33-H ) :   0.9728 B( 18-C , 19-C ) :   1.2696 B( 18-C , 21-H ) :   0.9724
B( 19-C , 20-C ) :   1.5650 B( 19-C , 22-C ) :   1.0500 B( 22-C , 23-H ) :   0.9231
B( 22-C , 24-H ) :   0.9451 B( 22-C , 25-C ) :   1.0554 B( 25-C , 26-H ) :   0.9561
B( 25-C , 27-H ) :   0.9528 B( 25-C , 28-C ) :   1.0748 B( 28-C , 29-H ) :   0.9721
B( 28-C , 30-H ) :   0.9760 B( 28-C , 31-H ) :   0.9727

Dispersion correction           -0.014058765
FINAL SINGLE POINT ENERGY     -1339.874417652487

DIPOLE MOMENT
-------------
                                X             Y             Z
Electronic contribution:    -25.70540      -7.13177      17.00288
Nuclear contribution   :     26.31656       7.24557     -17.18128
                        -----------------------------------------
Total Dipole Moment    :      0.61115       0.11380      -0.17841
                        -----------------------------------------
Magnitude (a.u.)       :      0.64675
Magnitude (Debye)      :      1.64391

Rotational constants in cm-1:     0.017190     0.009812     0.006517
Rotational constants in MHz :   515.342769   294.162790   195.381118

                             ****ORCA TERMINATED NORMALLY****
TOTAL RUN TIME: 0 days 0 hours 0 minutes 21 seconds 679 msec
