                         Program Version 4.2.1 -  RELEASE  -
|  1> ! wB97X-D3 SP def2-SVP
|  2> %pal
|  3> nprocs 24
|  4> end
|  5>
|  6> * xyz 0 1
|  7> S 	 -123.027 	 46.2154 	 -28.3421
|  8> C 	 -122.166 	 44.761 	 -27.7174
|  9> C 	 -121.264 	 44.3028 	 -28.6894
| 10> C 	 -121.512 	 44.8683 	 -29.9578
| 11> C 	 -122.438 	 45.9094 	 -29.9906
| 12> H 	 -121.027 	 44.5415 	 -30.8588
| 13> C 	 -120.14 	 43.2524 	 -28.4703
| 14> H 	 -120.37 	 42.8036 	 -27.4794
| 15> H 	 -119.248 	 43.7668 	 -28.3584
| 16> C 	 -120.037 	 42.087 	 -29.4082
| 17> H 	 -121.086 	 41.6628 	 -29.3787
| 18> H 	 -119.853 	 42.5925 	 -30.3884
| 19> C 	 -119.019 	 41.0457 	 -28.9222
| 20> H 	 -119.017 	 40.1518 	 -29.4934
| 21> H 	 -118.004 	 41.3978 	 -28.8672
| 22> H 	 -119.253 	 40.6442 	 -27.9904
| 23> S 	 -123.918 	 45.9649 	 -32.2039
| 24> C 	 -123.591 	 47.1051 	 -33.5114
| 25> C 	 -122.588 	 47.9744 	 -33.1432
| 26> C 	 -122.022 	 47.6939 	 -31.8636
| 27> C 	 -122.694 	 46.6247 	 -31.2332
| 28> H 	 -122.261 	 48.653 	 -33.8972
| 29> C 	 -120.747 	 48.4187 	 -31.4123
| 30> H 	 -120.342 	 47.9662 	 -30.497
| 31> H 	 -121.004 	 49.4375 	 -31.1755
| 32> C 	 -119.619 	 48.225 	 -32.4178
| 33> H 	 -119.888 	 48.754 	 -33.3776
| 34> H 	 -119.573 	 47.1548 	 -32.7489
| 35> C 	 -118.216 	 48.7918 	 -31.9428
| 36> H 	 -118.22 	 49.8369 	 -31.7128
| 37> H 	 -117.429 	 48.5583 	 -32.7193
| 38> H 	 -117.991 	 48.2004 	 -31.0192
| 39> H 	 -122.148 	 44.3135 	 -26.722
| 40> H 	 -124.083 	 47.1693 	 -34.5087
| 41> *
| 42>
| 43>                          ****END OF INPUT****

CARTESIAN COORDINATES (ANGSTROEM)
---------------------------------
  S    -123.027000   46.215400  -28.342100
  C    -122.166000   44.761000  -27.717400
  C    -121.264000   44.302800  -28.689400
  C    -121.512000   44.868300  -29.957800
  C    -122.438000   45.909400  -29.990600
  H    -121.027000   44.541500  -30.858800
  C    -120.140000   43.252400  -28.470300
  H    -120.370000   42.803600  -27.479400
  H    -119.248000   43.766800  -28.358400
  C    -120.037000   42.087000  -29.408200
  H    -121.086000   41.662800  -29.378700
  H    -119.853000   42.592500  -30.388400
  C    -119.019000   41.045700  -28.922200
  H    -119.017000   40.151800  -29.493400
  H    -118.004000   41.397800  -28.867200
  H    -119.253000   40.644200  -27.990400
  S    -123.918000   45.964900  -32.203900
  C    -123.591000   47.105100  -33.511400
  C    -122.588000   47.974400  -33.143200
  C    -122.022000   47.693900  -31.863600
  C    -122.694000   46.624700  -31.233200
  H    -122.261000   48.653000  -33.897200
  C    -120.747000   48.418700  -31.412300
  H    -120.342000   47.966200  -30.497000
  H    -121.004000   49.437500  -31.175500
  C    -119.619000   48.225000  -32.417800
  H    -119.888000   48.754000  -33.377600
  H    -119.573000   47.154800  -32.748900
  C    -118.216000   48.791800  -31.942800
  H    -118.220000   49.836900  -31.712800
  H    -117.429000   48.558300  -32.719300
  H    -117.991000   48.200400  -31.019200
  H    -122.148000   44.313500  -26.722000
  H    -124.083000   47.169300  -34.508700

 Total Charge           Charge          ....    0
 Multiplicity           Mult            ....    1
 Number of Electrons    NEL             ....  134
 Basis Dimension        Dim             ....  322

ORBITAL ENERGIES
----------------

  NO   OCC          E(Eh)            E(eV)
   0   2.0000     -88.971257     -2421.0310
   1   2.0000     -88.965279     -2420.8683
   2   2.0000     -10.330498      -281.1072
   3   2.0000     -10.324296      -280.9384
   4   2.0000     -10.321779      -280.8699
   5   2.0000     -10.318039      -280.7681
   6   2.0000     -10.305774      -280.4344
   7   2.0000     -10.302229      -280.3379
   8   2.0000     -10.294348      -280.1234
   9   2.0000     -10.294271      -280.1213
  10   2.0000     -10.290930      -280.0304
  11   2.0000     -10.290582      -280.0210
  12   2.0000     -10.290038      -280.0062
  13   2.0000     -10.287538      -279.9381
  14   2.0000     -10.287504      -279.9372
  15   2.0000     -10.274088      -279.5722
  16   2.0000      -8.084017      -219.9773
  17   2.0000      -8.080608      -219.8845
  18   2.0000      -6.042730      -164.4310
  19   2.0000      -6.039099      -164.3322
  20   2.0000      -6.038834      -164.3250
  21   2.0000      -6.034814      -164.2156
  22   2.0000      -6.034622      -164.2104
  23   2.0000      -6.031551      -164.1269
  24   2.0000      -1.005156       -27.3517
  25   2.0000      -0.979061       -26.6416
  26   2.0000      -0.914824       -24.8936
  27   2.0000      -0.904917       -24.6240
  28   2.0000      -0.870640       -23.6913
  29   2.0000      -0.846498       -23.0344
  30   2.0000      -0.841311       -22.8932
  31   2.0000      -0.812252       -22.1025
  32   2.0000      -0.786597       -21.4044
  33   2.0000      -0.770114       -20.9559
  34   2.0000      -0.709214       -19.2987
  35   2.0000      -0.696618       -18.9559
  36   2.0000      -0.691928       -18.8283
  37   2.0000      -0.655306       -17.8318
  38   2.0000      -0.634339       -17.2612
  39   2.0000      -0.620847       -16.8941
  40   2.0000      -0.593746       -16.1566
  41   2.0000      -0.577988       -15.7279
  42   2.0000      -0.564851       -15.3704
  43   2.0000      -0.558487       -15.1972
  44   2.0000      -0.524197       -14.2641
  45   2.0000      -0.520680       -14.1684
  46   2.0000      -0.514685       -14.0053
  47   2.0000      -0.507986       -13.8230
  48   2.0000      -0.505646       -13.7593
  49   2.0000      -0.502142       -13.6640
  50   2.0000      -0.495708       -13.4889
  51   2.0000      -0.475982       -12.9521
  52   2.0000      -0.474080       -12.9004
  53   2.0000      -0.463146       -12.6028
  54   2.0000      -0.461190       -12.5496
  55   2.0000      -0.448317       -12.1993
  56   2.0000      -0.441470       -12.0130
  57   2.0000      -0.440128       -11.9765
  58   2.0000      -0.433450       -11.7948
  59   2.0000      -0.422172       -11.4879
  60   2.0000      -0.419717       -11.4211
  61   2.0000      -0.416127       -11.3234
  62   2.0000      -0.408979       -11.1289
  63   2.0000      -0.338088        -9.1998
  64   2.0000      -0.330919        -9.0048
  65   2.0000      -0.316137        -8.6025
  66   2.0000      -0.308793        -8.4027
  67   0.0000       0.042349         1.1524
  68   0.0000       0.051746         1.4081
  69   0.0000       0.109941         2.9916
  70   0.0000       0.127571         3.4714
  71   0.0000       0.128204         3.4886

MULLIKEN ATOMIC CHARGES
-----------------------
   0 S :    0.119428
   1 C :   -0.125140
   2 C :   -0.087255
   3 C :    0.034698
   4 C :   -0.147577
   5 H :    0.009745
   6 C :    0.075797
   7 H :    0.002511
   8 H :    0.024789
   9 C :   -0.105439
  10 H :    0.043407
  11 H :    0.041355
  12 C :    0.012453
  13 H :    0.022923
  14 H :    0.027966
  15 H :    0.007029
  16 S :    0.126762
  17 C :   -0.122024
  18 C :   -0.036534
  19 C :   -0.019070
  20 C :   -0.210949
  21 H :    0.015170
  22 C :    0.121159
  23 H :    0.017737
  24 H :    0.033247
  25 C :   -0.148935
  26 H :    0.029585
  27 H :    0.043991
  28 C :   -0.053735
  29 H :    0.038761
  30 H :    0.049082
  31 H :    0.036989
  32 H :    0.052337
  33 H :    0.069733
Sum of atomic charges:    0.0000000

LOEWDIN ATOMIC CHARGES
----------------------
   0 S :    0.384481
   1 C :   -0.188749
   2 C :   -0.060777
   3 C :   -0.057237
   4 C :   -0.200602
   5 H :    0.027232
   6 C :   -0.029840
   7 H :    0.026917
   8 H :    0.019757
   9 C :   -0.044671
  10 H :    0.035780
  11 H :    0.025822
  12 C :   -0.057720
  13 H :    0.026390
  14 H :    0.026406
  15 H :    0.020275
  16 S :    0.435444
  17 C :   -0.194060
  18 C :   -0.071283
  19 C :   -0.052309
  20 C :   -0.221469
  21 H :    0.028608
  22 C :   -0.030712
  23 H :    0.030087
  24 H :    0.030658
  25 C :   -0.049084
  26 H :    0.019941
  27 H :    0.030777
  28 C :   -0.068535
  29 H :    0.021837
  30 H :    0.034556
  31 H :    0.028549
  32 H :    0.033611
  33 H :    0.039920

  Mayer bond orders larger than 0.100000
B(  0-S ,  1-C ) :   1.1324 B(  0-S ,  4-C ) :   1.1286 B(  1-C ,  2-C ) :   1.6133
B(  1-C ,  4-C ) :   0.1032 B(  1-C , 32-H ) :   0.9620 B(  2-C ,  3-C ) :   1.2515
B(  2-C ,  6-C ) :   1.0111 B(  3-C ,  4-C ) :   1.5738 B(  3-C ,  5-H ) :   0.9918
B(  4-C , 20-C ) :   1.0259 B(  6-C ,  7-H ) :   0.9398 B(  6-C ,  8-H ) :   0.9375
B(  6-C ,  9-C ) :   1.0562 B(  9-C , 10-H ) :   0.9585 B(  9-C , 11-H ) :   0.9527
B(  9-C , 12-C ) :   1.0838 B( 12-C , 13-H ) :   0.9710 B( 12-C , 14-H ) :   0.9741
B( 12-C , 15-H ) :   0.9677 B( 16-S , 17-C ) :   1.1544 B( 16-S , 20-C ) :   1.1776
B( 17-C , 18-C ) :   1.6174 B( 17-C , 20-C ) :   0.1009 B( 17-C , 33-H ) :   0.9618
B( 18-C , 19-C ) :   1.2370 B( 18-C , 21-H ) :   0.9911 B( 19-C , 20-C ) :   1.5781
B( 19-C , 22-C ) :   1.0425 B( 22-C , 23-H ) :   0.9343 B( 22-C , 24-H ) :   0.9312
B( 22-C , 25-C ) :   1.0540 B( 25-C , 26-H ) :   0.9520 B( 25-C , 27-H ) :   0.9577
B( 25-C , 28-C ) :   1.0739 B( 28-C , 29-H ) :   0.9759 B( 28-C , 30-H ) :   0.9755
B( 28-C , 31-H ) :   0.9761

Dispersion correction           -0.013835634
FINAL SINGLE POINT ENERGY     -1339.866201357771

DIPOLE MOMENT
-------------
                                X             Y             Z
Electronic contribution:    -26.71054       6.89041       1.37585
Nuclear contribution   :     27.42882      -7.06894      -1.54385
                        -----------------------------------------
Total Dipole Moment    :      0.71829      -0.17854      -0.16800
                        -----------------------------------------
Magnitude (a.u.)       :      0.75897
Magnitude (Debye)      :      1.92914

Rotational constants in cm-1:     0.016018     0.008151     0.006997
Rotational constants in MHz :   480.193963   244.374957   209.754061

                             ****ORCA TERMINATED NORMALLY****
TOTAL RUN TIME: 0 days 0 hours 0 minutes 21 seconds 114 msec
