                         Program Version 4.2.1 -  RELEASE  -
|  1> ! wB97X-D3 SP def2-SVP
|  2> %pal
|  3> nprocs 24
|  4> end
|  5>
|  6> * xyz 0 1
|  7> S 	 -96.8581 	 11.1635 	 -113.758
|  8> C 	 -97.1855 	 12.8866 	 -113.352
|  9> C 	 -97.7503 	 13.5424 	 -114.452
| 10> C 	 -98.1952 	 12.5777 	 -115.383
| 11> C 	 -97.8142 	 11.259 	 -115.195
| 12> H 	 -98.7321 	 12.8433 	 -116.305
| 13> C 	 -97.916 	 15.0571 	 -114.618
| 14> H 	 -98.5601 	 15.3559 	 -113.773
| 15> H 	 -98.3491 	 15.2591 	 -115.585
| 16> C 	 -96.5162 	 15.6818 	 -114.559
| 17> H 	 -96.6252 	 16.7492 	 -114.539
| 18> H 	 -95.9196 	 15.4155 	 -113.661
| 19> C 	 -95.7394 	 15.3232 	 -115.868
| 20> H 	 -96.2463 	 15.7227 	 -116.755
| 21> H 	 -94.7038 	 15.6179 	 -115.888
| 22> H 	 -95.6604 	 14.2576 	 -116.049
| 23> S 	 -99.3287 	 8.93773 	 -115.22
| 24> C 	 -99.2029 	 7.8898 	 -116.62
| 25> C 	 -98.307 	 8.37343 	 -117.548
| 26> C 	 -97.63 	 9.52118 	 -117.134
| 27> C 	 -98.1065 	 10.0344 	 -115.922
| 28> H 	 -98.2393 	 7.71851 	 -118.313
| 29> C 	 -96.5983 	 10.161 	 -117.96
| 30> H 	 -96.0887 	 9.54385 	 -118.665
| 31> H 	 -95.8141 	 10.6309 	 -117.39
| 32> C 	 -97.2356 	 11.1606 	 -118.885
| 33> H 	 -97.8682 	 11.7188 	 -118.222
| 34> H 	 -97.9136 	 10.6868 	 -119.564
| 35> C 	 -96.2939 	 12.0171 	 -119.733
| 36> H 	 -95.4964 	 11.443 	 -120.203
| 37> H 	 -95.7645 	 12.5158 	 -118.985
| 38> H 	 -96.7489 	 12.5929 	 -120.48
| 39> H 	 -96.9687 	 13.4303 	 -112.502
| 40> H 	 -99.9617 	 7.07896 	 -116.765
| 41> *
| 42>
| 43>                          ****END OF INPUT****

CARTESIAN COORDINATES (ANGSTROEM)
---------------------------------
  S    -96.858100   11.163500  -113.758000
  C    -97.185500   12.886600  -113.352000
  C    -97.750300   13.542400  -114.452000
  C    -98.195200   12.577700  -115.383000
  C    -97.814200   11.259000  -115.195000
  H    -98.732100   12.843300  -116.305000
  C    -97.916000   15.057100  -114.618000
  H    -98.560100   15.355900  -113.773000
  H    -98.349100   15.259100  -115.585000
  C    -96.516200   15.681800  -114.559000
  H    -96.625200   16.749200  -114.539000
  H    -95.919600   15.415500  -113.661000
  C    -95.739400   15.323200  -115.868000
  H    -96.246300   15.722700  -116.755000
  H    -94.703800   15.617900  -115.888000
  H    -95.660400   14.257600  -116.049000
  S    -99.328700    8.937730  -115.220000
  C    -99.202900    7.889800  -116.620000
  C    -98.307000    8.373430  -117.548000
  C    -97.630000    9.521180  -117.134000
  C    -98.106500   10.034400  -115.922000
  H    -98.239300    7.718510  -118.313000
  C    -96.598300   10.161000  -117.960000
  H    -96.088700    9.543850  -118.665000
  H    -95.814100   10.630900  -117.390000
  C    -97.235600   11.160600  -118.885000
  H    -97.868200   11.718800  -118.222000
  H    -97.913600   10.686800  -119.564000
  C    -96.293900   12.017100  -119.733000
  H    -95.496400   11.443000  -120.203000
  H    -95.764500   12.515800  -118.985000
  H    -96.748900   12.592900  -120.480000
  H    -96.968700   13.430300  -112.502000
  H    -99.961700    7.078960  -116.765000

 Total Charge           Charge          ....    0
 Multiplicity           Mult            ....    1
 Number of Electrons    NEL             ....  134
 Basis Dimension        Dim             ....  322

ORBITAL ENERGIES
----------------

  NO   OCC          E(Eh)            E(eV)
   0   2.0000     -88.965380     -2420.8711
   1   2.0000     -88.963587     -2420.8223
   2   2.0000     -10.328511      -281.0531
   3   2.0000     -10.326434      -280.9966
   4   2.0000     -10.320335      -280.8306
   5   2.0000     -10.311621      -280.5935
   6   2.0000     -10.305028      -280.4141
   7   2.0000     -10.300581      -280.2931
   8   2.0000     -10.298829      -280.2454
   9   2.0000     -10.292932      -280.0849
  10   2.0000     -10.291800      -280.0541
  11   2.0000     -10.284988      -279.8687
  12   2.0000     -10.280499      -279.7466
  13   2.0000     -10.275876      -279.6208
  14   2.0000     -10.274344      -279.5791
  15   2.0000     -10.267679      -279.3977
  16   2.0000      -8.079475      -219.8537
  17   2.0000      -8.077965      -219.8126
  18   2.0000      -6.038050      -164.3037
  19   2.0000      -6.036297      -164.2560
  20   2.0000      -6.033995      -164.1934
  21   2.0000      -6.032461      -164.1516
  22   2.0000      -6.030254      -164.0916
  23   2.0000      -6.028992      -164.0572
  24   2.0000      -1.005277       -27.3550
  25   2.0000      -0.983567       -26.7642
  26   2.0000      -0.920819       -25.0568
  27   2.0000      -0.914970       -24.8976
  28   2.0000      -0.866707       -23.5843
  29   2.0000      -0.853832       -23.2339
  30   2.0000      -0.839450       -22.8426
  31   2.0000      -0.814508       -22.1639
  32   2.0000      -0.787969       -21.4417
  33   2.0000      -0.775387       -21.0994
  34   2.0000      -0.711281       -19.3549
  35   2.0000      -0.705987       -19.2109
  36   2.0000      -0.696212       -18.9449
  37   2.0000      -0.662974       -18.0404
  38   2.0000      -0.639268       -17.3954
  39   2.0000      -0.617181       -16.7944
  40   2.0000      -0.603066       -16.4102
  41   2.0000      -0.581430       -15.8215
  42   2.0000      -0.572700       -15.5840
  43   2.0000      -0.557386       -15.1672
  44   2.0000      -0.544788       -14.8244
  45   2.0000      -0.535960       -14.5842
  46   2.0000      -0.517964       -14.0945
  47   2.0000      -0.508726       -13.8431
  48   2.0000      -0.508350       -13.8329
  49   2.0000      -0.496569       -13.5123
  50   2.0000      -0.485618       -13.2143
  51   2.0000      -0.473566       -12.8864
  52   2.0000      -0.467639       -12.7251
  53   2.0000      -0.465658       -12.6712
  54   2.0000      -0.455891       -12.4054
  55   2.0000      -0.451190       -12.2775
  56   2.0000      -0.442757       -12.0480
  57   2.0000      -0.437141       -11.8952
  58   2.0000      -0.436033       -11.8651
  59   2.0000      -0.431337       -11.7373
  60   2.0000      -0.426139       -11.5958
  61   2.0000      -0.418754       -11.3949
  62   2.0000      -0.404900       -11.0179
  63   2.0000      -0.337909        -9.1950
  64   2.0000      -0.327255        -8.9050
  65   2.0000      -0.320459        -8.7201
  66   2.0000      -0.303828        -8.2676
  67   0.0000       0.034206         0.9308
  68   0.0000       0.051781         1.4090
  69   0.0000       0.110190         2.9984
  70   0.0000       0.119758         3.2588
  71   0.0000       0.132079         3.5941

MULLIKEN ATOMIC CHARGES
-----------------------
   0 S :    0.118773
   1 C :   -0.094145
   2 C :   -0.134905
   3 C :    0.044387
   4 C :   -0.181648
   5 H :    0.017377
   6 C :    0.097871
   7 H :    0.050069
   8 H :    0.020798
   9 C :   -0.067424
  10 H :    0.027146
  11 H :    0.039565
  12 C :   -0.065979
  13 H :    0.028112
  14 H :    0.030531
  15 H :    0.036596
  16 S :    0.109781
  17 C :   -0.129670
  18 C :   -0.000401
  19 C :    0.026703
  20 C :   -0.185228
  21 H :   -0.021675
  22 C :    0.113851
  23 H :    0.001646
  24 H :    0.018767
  25 C :   -0.087279
  26 H :   -0.003137
  27 H :    0.009691
  28 C :    0.034457
  29 H :    0.012611
  30 H :    0.007970
  31 H :    0.033647
  32 H :    0.012738
  33 H :    0.078405
Sum of atomic charges:    0.0000000

LOEWDIN ATOMIC CHARGES
----------------------
   0 S :    0.405500
   1 C :   -0.176094
   2 C :   -0.058961
   3 C :   -0.068354
   4 C :   -0.212178
   5 H :    0.029363
   6 C :   -0.022554
   7 H :    0.038915
   8 H :    0.028885
   9 C :   -0.036210
  10 H :    0.019635
  11 H :    0.027169
  12 C :   -0.067573
  13 H :    0.025218
  14 H :    0.024376
  15 H :    0.025307
  16 S :    0.396316
  17 C :   -0.179255
  18 C :   -0.063859
  19 C :   -0.040669
  20 C :   -0.199213
  21 H :    0.018135
  22 C :   -0.028079
  23 H :    0.026694
  24 H :    0.028670
  25 C :   -0.032221
  26 H :    0.014066
  27 H :    0.015827
  28 C :   -0.054801
  29 H :    0.025533
  30 H :    0.020108
  31 H :    0.021815
  32 H :    0.010402
  33 H :    0.038089

  Mayer bond orders larger than 0.100000
B(  0-S ,  1-C ) :   1.1447 B(  0-S ,  4-C ) :   1.1575 B(  1-C ,  2-C ) :   1.5857
B(  1-C ,  4-C ) :   0.1109 B(  1-C , 32-H ) :   0.9756 B(  2-C ,  3-C ) :   1.2637
B(  2-C ,  6-C ) :   1.0050 B(  3-C ,  4-C ) :   1.5769 B(  3-C ,  5-H ) :   0.9840
B(  4-C , 20-C ) :   1.0188 B(  6-C ,  7-H ) :   0.9372 B(  6-C ,  8-H ) :   0.9453
B(  6-C ,  9-C ) :   1.0686 B(  9-C , 10-H ) :   0.9575 B(  9-C , 11-H ) :   0.9594
B(  9-C , 12-C ) :   1.0627 B( 12-C , 13-H ) :   0.9753 B( 12-C , 14-H ) :   0.9738
B( 12-C , 15-H ) :   0.9773 B( 16-S , 17-C ) :   1.1709 B( 16-S , 20-C ) :   1.1471
B( 17-C , 18-C ) :   1.6040 B( 17-C , 20-C ) :   0.1097 B( 17-C , 33-H ) :   0.9574
B( 18-C , 19-C ) :   1.2172 B( 18-C , 21-H ) :   1.0150 B( 19-C , 20-C ) :   1.5718
B( 19-C , 22-C ) :   1.0749 B( 22-C , 23-H ) :   0.9227 B( 22-C , 24-H ) :   0.9227
B( 22-C , 25-C ) :   1.0569 B( 25-C , 26-H ) :   0.9534 B( 25-C , 27-H ) :   0.9534
B( 25-C , 28-C ) :   1.0755 B( 28-C , 29-H ) :   0.9675 B( 28-C , 30-H ) :   0.9711
B( 28-C , 31-H ) :   0.9742

Dispersion correction           -0.015299037
FINAL SINGLE POINT ENERGY     -1339.856352849388

DIPOLE MOMENT
-------------
                                X             Y             Z
Electronic contribution:    -10.24912     -21.08684      17.09642
Nuclear contribution   :     10.30980      21.49389     -17.60927
                        -----------------------------------------
Total Dipole Moment    :      0.06068       0.40705      -0.51285
                        -----------------------------------------
Magnitude (a.u.)       :      0.65756
Magnitude (Debye)      :      1.67139

Rotational constants in cm-1:     0.019208     0.009721     0.007168
Rotational constants in MHz :   575.854665   291.425261   214.894798

                             ****ORCA TERMINATED NORMALLY****
TOTAL RUN TIME: 0 days 0 hours 0 minutes 22 seconds 542 msec
