                         Program Version 4.2.1 -  RELEASE  -
|  1> ! wB97X-D3 SP def2-SVP
|  2> %pal
|  3> nprocs 24
|  4> end
|  5>
|  6> * xyz 0 1
|  7> S 	 -123.748 	 67.1653 	 -42.0939
|  8> C 	 -125.386 	 67.1953 	 -41.5712
|  9> C 	 -125.842 	 68.4722 	 -41.3476
| 10> C 	 -124.734 	 69.4315 	 -41.3167
| 11> C 	 -123.521 	 68.8879 	 -41.8297
| 12> H 	 -124.782 	 70.4392 	 -40.9944
| 13> C 	 -127.212 	 68.9485 	 -40.9491
| 14> H 	 -127.944 	 68.3452 	 -41.5515
| 15> H 	 -127.35 	 69.9306 	 -41.3498
| 16> C 	 -127.521 	 68.9458 	 -39.4477
| 17> H 	 -127.339 	 67.9012 	 -39.1024
| 18> H 	 -126.74 	 69.5821 	 -38.9814
| 19> C 	 -128.915 	 69.4509 	 -39.077
| 20> H 	 -129 	 70.4601 	 -39.4503
| 21> H 	 -129.732 	 68.8753 	 -39.6254
| 22> H 	 -129.102 	 69.5861 	 -38.0153
| 23> S 	 -121.38 	 70.3519 	 -40.8224
| 24> C 	 -120.105 	 70.8667 	 -41.8016
| 25> C 	 -120.322 	 70.3734 	 -43.1321
| 26> C 	 -121.532 	 69.6168 	 -43.3106
| 27> C 	 -122.264 	 69.5768 	 -42.1057
| 28> H 	 -119.516 	 70.4948 	 -43.7462
| 29> C 	 -121.994 	 69.1529 	 -44.7193
| 30> H 	 -122.686 	 69.9589 	 -45.1334
| 31> H 	 -122.487 	 68.2078 	 -44.4869
| 32> C 	 -120.858 	 68.7579 	 -45.5883
| 33> H 	 -120.066 	 68.2998 	 -45.0047
| 34> H 	 -120.55 	 69.7737 	 -45.9185
| 35> C 	 -121.317 	 67.8748 	 -46.7507
| 36> H 	 -122.084 	 68.3667 	 -47.3687
| 37> H 	 -121.702 	 66.9562 	 -46.3755
| 38> H 	 -120.462 	 67.6424 	 -47.3083
| 39> H 	 -126.159 	 66.4618 	 -41.5847
| 40> H 	 -119.274 	 71.538 	 -41.5775
| 41> *
| 42>
| 43>                          ****END OF INPUT****

CARTESIAN COORDINATES (ANGSTROEM)
---------------------------------
  S    -123.748000   67.165300  -42.093900
  C    -125.386000   67.195300  -41.571200
  C    -125.842000   68.472200  -41.347600
  C    -124.734000   69.431500  -41.316700
  C    -123.521000   68.887900  -41.829700
  H    -124.782000   70.439200  -40.994400
  C    -127.212000   68.948500  -40.949100
  H    -127.944000   68.345200  -41.551500
  H    -127.350000   69.930600  -41.349800
  C    -127.521000   68.945800  -39.447700
  H    -127.339000   67.901200  -39.102400
  H    -126.740000   69.582100  -38.981400
  C    -128.915000   69.450900  -39.077000
  H    -129.000000   70.460100  -39.450300
  H    -129.732000   68.875300  -39.625400
  H    -129.102000   69.586100  -38.015300
  S    -121.380000   70.351900  -40.822400
  C    -120.105000   70.866700  -41.801600
  C    -120.322000   70.373400  -43.132100
  C    -121.532000   69.616800  -43.310600
  C    -122.264000   69.576800  -42.105700
  H    -119.516000   70.494800  -43.746200
  C    -121.994000   69.152900  -44.719300
  H    -122.686000   69.958900  -45.133400
  H    -122.487000   68.207800  -44.486900
  C    -120.858000   68.757900  -45.588300
  H    -120.066000   68.299800  -45.004700
  H    -120.550000   69.773700  -45.918500
  C    -121.317000   67.874800  -46.750700
  H    -122.084000   68.366700  -47.368700
  H    -121.702000   66.956200  -46.375500
  H    -120.462000   67.642400  -47.308300
  H    -126.159000   66.461800  -41.584700
  H    -119.274000   71.538000  -41.577500

 Total Charge           Charge          ....    0
 Multiplicity           Mult            ....    1
 Number of Electrons    NEL             ....  134
 Basis Dimension        Dim             ....  322

ORBITAL ENERGIES
----------------

  NO   OCC          E(Eh)            E(eV)
   0   2.0000     -88.969742     -2420.9897
   1   2.0000     -88.968462     -2420.9549
   2   2.0000     -10.333051      -281.1766
   3   2.0000     -10.326402      -280.9957
   4   2.0000     -10.317145      -280.7438
   5   2.0000     -10.310335      -280.5585
   6   2.0000     -10.306271      -280.4479
   7   2.0000     -10.300846      -280.3003
   8   2.0000     -10.296833      -280.1911
   9   2.0000     -10.292292      -280.0675
  10   2.0000     -10.292234      -280.0659
  11   2.0000     -10.291447      -280.0445
  12   2.0000     -10.288274      -279.9582
  13   2.0000     -10.283737      -279.8347
  14   2.0000     -10.281629      -279.7774
  15   2.0000     -10.271507      -279.5019
  16   2.0000      -8.083949      -219.9754
  17   2.0000      -8.083778      -219.9708
  18   2.0000      -6.042585      -164.4271
  19   2.0000      -6.042127      -164.4146
  20   2.0000      -6.038422      -164.3138
  21   2.0000      -6.037894      -164.2995
  22   2.0000      -6.034978      -164.2201
  23   2.0000      -6.034697      -164.2125
  24   2.0000      -1.004176       -27.3250
  25   2.0000      -0.984226       -26.7822
  26   2.0000      -0.917072       -24.9548
  27   2.0000      -0.911838       -24.8124
  28   2.0000      -0.868412       -23.6307
  29   2.0000      -0.849075       -23.1045
  30   2.0000      -0.846313       -23.0293
  31   2.0000      -0.809124       -22.0174
  32   2.0000      -0.783844       -21.3295
  33   2.0000      -0.774163       -21.0660
  34   2.0000      -0.704489       -19.1701
  35   2.0000      -0.700660       -19.0659
  36   2.0000      -0.695449       -18.9241
  37   2.0000      -0.651302       -17.7228
  38   2.0000      -0.637270       -17.3410
  39   2.0000      -0.615681       -16.7535
  40   2.0000      -0.593555       -16.1515
  41   2.0000      -0.578809       -15.7502
  42   2.0000      -0.573941       -15.6177
  43   2.0000      -0.558932       -15.2093
  44   2.0000      -0.528072       -14.3696
  45   2.0000      -0.526847       -14.3362
  46   2.0000      -0.520468       -14.1627
  47   2.0000      -0.507398       -13.8070
  48   2.0000      -0.501977       -13.6595
  49   2.0000      -0.498186       -13.5563
  50   2.0000      -0.496103       -13.4997
  51   2.0000      -0.482039       -13.1170
  52   2.0000      -0.478304       -13.0153
  53   2.0000      -0.464809       -12.6481
  54   2.0000      -0.458661       -12.4808
  55   2.0000      -0.445918       -12.1340
  56   2.0000      -0.444037       -12.0829
  57   2.0000      -0.436061       -11.8658
  58   2.0000      -0.433819       -11.8048
  59   2.0000      -0.426095       -11.5946
  60   2.0000      -0.415056       -11.2943
  61   2.0000      -0.413570       -11.2538
  62   2.0000      -0.407382       -11.0854
  63   2.0000      -0.339394        -9.2354
  64   2.0000      -0.329197        -8.9579
  65   2.0000      -0.327011        -8.8984
  66   2.0000      -0.293848        -7.9960
  67   0.0000       0.031748         0.8639
  68   0.0000       0.068423         1.8619
  69   0.0000       0.108156         2.9431
  70   0.0000       0.113055         3.0764
  71   0.0000       0.134124         3.6497

MULLIKEN ATOMIC CHARGES
-----------------------
   0 S :    0.128608
   1 C :   -0.074715
   2 C :   -0.130256
   3 C :    0.036469
   4 C :   -0.157346
   5 H :    0.001740
   6 C :    0.050437
   7 H :    0.021907
   8 H :    0.012974
   9 C :   -0.067991
  10 H :    0.031612
  11 H :    0.030978
  12 C :   -0.034845
  13 H :    0.016255
  14 H :    0.041333
  15 H :    0.042938
  16 S :    0.139821
  17 C :   -0.109117
  18 C :   -0.043653
  19 C :   -0.059274
  20 C :   -0.168104
  21 H :   -0.010930
  22 C :    0.093485
  23 H :    0.070843
  24 H :    0.004438
  25 C :   -0.133717
  26 H :    0.038617
  27 H :    0.030878
  28 C :    0.018470
  29 H :    0.035170
  30 H :    0.024341
  31 H :    0.021353
  32 H :    0.029898
  33 H :    0.067381
Sum of atomic charges:    0.0000000

LOEWDIN ATOMIC CHARGES
----------------------
   0 S :    0.427153
   1 C :   -0.207963
   2 C :   -0.062664
   3 C :   -0.050494
   4 C :   -0.195923
   5 H :    0.022499
   6 C :   -0.038479
   7 H :    0.031188
   8 H :    0.025200
   9 C :   -0.042417
  10 H :    0.025854
  11 H :    0.028383
  12 C :   -0.071911
  13 H :    0.022853
  14 H :    0.033992
  15 H :    0.029160
  16 S :    0.452722
  17 C :   -0.216148
  18 C :   -0.071209
  19 C :   -0.054033
  20 C :   -0.220243
  21 H :    0.011091
  22 C :   -0.034240
  23 H :    0.046892
  24 H :    0.017908
  25 C :   -0.047824
  26 H :    0.026583
  27 H :    0.026306
  28 C :   -0.051737
  29 H :    0.030585
  30 H :    0.021955
  31 H :    0.020312
  32 H :    0.027442
  33 H :    0.037205

  Mayer bond orders larger than 0.100000
B(  0-S ,  1-C ) :   1.1413 B(  0-S ,  4-C ) :   1.1427 B(  1-C ,  2-C ) :   1.6306
B(  1-C , 32-H ) :   0.9615 B(  2-C ,  3-C ) :   1.2282 B(  2-C ,  6-C ) :   1.0427
B(  3-C ,  4-C ) :   1.5669 B(  3-C ,  5-H ) :   0.9961 B(  4-C , 20-C ) :   1.0525
B(  6-C ,  7-H ) :   0.9340 B(  6-C ,  8-H ) :   0.9343 B(  6-C ,  9-C ) :   1.0570
B(  9-C , 10-H ) :   0.9557 B(  9-C , 11-H ) :   0.9529 B(  9-C , 12-C ) :   1.0796
B( 12-C , 13-H ) :   0.9697 B( 12-C , 14-H ) :   0.9732 B( 12-C , 15-H ) :   0.9735
B( 16-S , 17-C ) :   1.1939 B( 16-S , 20-C ) :   1.1706 B( 17-C , 18-C ) :   1.5510
B( 17-C , 20-C ) :   0.1083 B( 17-C , 33-H ) :   0.9655 B( 18-C , 19-C ) :   1.2762
B( 18-C , 21-H ) :   1.0005 B( 19-C , 20-C ) :   1.5334 B( 19-C , 22-C ) :   1.0232
B( 22-C , 23-H ) :   0.9362 B( 22-C , 24-H ) :   0.9222 B( 22-C , 25-C ) :   1.0671
B( 25-C , 26-H ) :   0.9600 B( 25-C , 27-H ) :   0.9441 B( 25-C , 28-C ) :   1.0869
B( 28-C , 29-H ) :   0.9710 B( 28-C , 30-H ) :   0.9721 B( 28-C , 31-H ) :   0.9710

Dispersion correction           -0.013567938
FINAL SINGLE POINT ENERGY     -1339.866457293463

DIPOLE MOMENT
-------------
                                X             Y             Z
Electronic contribution:     13.98321      -0.28378       8.21067
Nuclear contribution   :    -14.21533       0.51559      -8.44804
                        -----------------------------------------
Total Dipole Moment    :     -0.23212       0.23181      -0.23737
                        -----------------------------------------
Magnitude (a.u.)       :      0.40492
Magnitude (Debye)      :      1.02923

Rotational constants in cm-1:     0.021918     0.007067     0.005844
Rotational constants in MHz :   657.079150   211.866244   175.207590

                             ****ORCA TERMINATED NORMALLY****
TOTAL RUN TIME: 0 days 0 hours 0 minutes 20 seconds 774 msec
