                         Program Version 4.2.1 -  RELEASE  -
|  1> ! wB97X-D3 SP def2-SVP
|  2> %pal
|  3> nprocs 24
|  4> end
|  5>
|  6> * xyz 0 1
|  7> S 	 40.0963 	 -34.4046 	 -112.966
|  8> C 	 39.4856 	 -35.7767 	 -113.778
|  9> C 	 40.1509 	 -36.1073 	 -114.969
| 10> C 	 41.1094 	 -35.0914 	 -115.228
| 11> C 	 41.3035 	 -34.145 	 -114.272
| 12> H 	 41.5639 	 -35.0266 	 -116.261
| 13> C 	 39.7862 	 -37.0813 	 -116.026
| 14> H 	 39.7974 	 -38.0334 	 -115.48
| 15> H 	 40.6481 	 -37.1956 	 -116.708
| 16> C 	 38.5267 	 -36.8483 	 -116.874
| 17> H 	 37.8174 	 -36.7405 	 -116.121
| 18> H 	 38.6351 	 -35.9577 	 -117.516
| 19> C 	 38.2112 	 -38.0435 	 -117.836
| 20> H 	 37.6567 	 -38.8606 	 -117.286
| 21> H 	 37.5377 	 -37.7977 	 -118.691
| 22> H 	 39.1264 	 -38.3621 	 -118.362
| 23> S 	 41.3434 	 -31.5529 	 -114.959
| 24> C 	 42.7582 	 -30.632 	 -114.765
| 25> C 	 43.74 	 -31.3643 	 -114.129
| 26> C 	 43.4508 	 -32.765 	 -113.962
| 27> C 	 42.101 	 -32.9381 	 -114.308
| 28> H 	 44.6838 	 -30.9142 	 -113.854
| 29> C 	 44.466 	 -33.7513 	 -113.443
| 30> H 	 44.0106 	 -34.6185 	 -112.983
| 31> H 	 45.1106 	 -33.4118 	 -112.659
| 32> C 	 45.4189 	 -34.2412 	 -114.497
| 33> H 	 46.3642 	 -34.4695 	 -114.029
| 34> H 	 45.6331 	 -33.4727 	 -115.223
| 35> C 	 44.9635 	 -35.4788 	 -115.276
| 36> H 	 44.5141 	 -36.2103 	 -114.624
| 37> H 	 45.7348 	 -35.9559 	 -115.93
| 38> H 	 44.1331 	 -35.1492 	 -115.982
| 39> H 	 38.7551 	 -36.3506 	 -113.262
| 40> H 	 42.8402 	 -29.6025 	 -115.138
| 41> *
| 42>
| 43>                          ****END OF INPUT****

CARTESIAN COORDINATES (ANGSTROEM)
---------------------------------
  S     40.096300  -34.404600  -112.966000
  C     39.485600  -35.776700  -113.778000
  C     40.150900  -36.107300  -114.969000
  C     41.109400  -35.091400  -115.228000
  C     41.303500  -34.145000  -114.272000
  H     41.563900  -35.026600  -116.261000
  C     39.786200  -37.081300  -116.026000
  H     39.797400  -38.033400  -115.480000
  H     40.648100  -37.195600  -116.708000
  C     38.526700  -36.848300  -116.874000
  H     37.817400  -36.740500  -116.121000
  H     38.635100  -35.957700  -117.516000
  C     38.211200  -38.043500  -117.836000
  H     37.656700  -38.860600  -117.286000
  H     37.537700  -37.797700  -118.691000
  H     39.126400  -38.362100  -118.362000
  S     41.343400  -31.552900  -114.959000
  C     42.758200  -30.632000  -114.765000
  C     43.740000  -31.364300  -114.129000
  C     43.450800  -32.765000  -113.962000
  C     42.101000  -32.938100  -114.308000
  H     44.683800  -30.914200  -113.854000
  C     44.466000  -33.751300  -113.443000
  H     44.010600  -34.618500  -112.983000
  H     45.110600  -33.411800  -112.659000
  C     45.418900  -34.241200  -114.497000
  H     46.364200  -34.469500  -114.029000
  H     45.633100  -33.472700  -115.223000
  C     44.963500  -35.478800  -115.276000
  H     44.514100  -36.210300  -114.624000
  H     45.734800  -35.955900  -115.930000
  H     44.133100  -35.149200  -115.982000
  H     38.755100  -36.350600  -113.262000
  H     42.840200  -29.602500  -115.138000

 Total Charge           Charge          ....    0
 Multiplicity           Mult            ....    1
 Number of Electrons    NEL             ....  134
 Basis Dimension        Dim             ....  322

ORBITAL ENERGIES
----------------

  NO   OCC          E(Eh)            E(eV)
   0   2.0000     -88.964970     -2420.8599
   1   2.0000     -88.963044     -2420.8075
   2   2.0000     -10.322451      -280.8882
   3   2.0000     -10.320572      -280.8370
   4   2.0000     -10.312789      -280.6253
   5   2.0000     -10.312206      -280.6094
   6   2.0000     -10.305888      -280.4375
   7   2.0000     -10.297208      -280.2013
   8   2.0000     -10.292670      -280.0778
   9   2.0000     -10.291227      -280.0385
  10   2.0000     -10.290343      -280.0145
  11   2.0000     -10.288873      -279.9745
  12   2.0000     -10.287492      -279.9369
  13   2.0000     -10.286695      -279.9152
  14   2.0000     -10.277405      -279.6624
  15   2.0000     -10.276609      -279.6408
  16   2.0000      -8.081462      -219.9078
  17   2.0000      -8.078139      -219.8173
  18   2.0000      -6.039679      -164.3480
  19   2.0000      -6.036416      -164.2592
  20   2.0000      -6.035700      -164.2398
  21   2.0000      -6.032620      -164.1559
  22   2.0000      -6.032442      -164.1511
  23   2.0000      -6.029103      -164.0602
  24   2.0000      -1.010813       -27.5056
  25   2.0000      -0.987356       -26.8673
  26   2.0000      -0.915487       -24.9117
  27   2.0000      -0.910752       -24.7828
  28   2.0000      -0.867728       -23.6121
  29   2.0000      -0.849785       -23.1238
  30   2.0000      -0.848851       -23.0984
  31   2.0000      -0.809575       -22.0297
  32   2.0000      -0.783812       -21.3286
  33   2.0000      -0.767914       -20.8960
  34   2.0000      -0.705760       -19.2047
  35   2.0000      -0.699585       -19.0367
  36   2.0000      -0.690296       -18.7839
  37   2.0000      -0.656915       -17.8756
  38   2.0000      -0.644147       -17.5281
  39   2.0000      -0.622141       -16.9293
  40   2.0000      -0.606802       -16.5119
  41   2.0000      -0.573777       -15.6133
  42   2.0000      -0.557705       -15.1759
  43   2.0000      -0.550362       -14.9761
  44   2.0000      -0.536177       -14.5901
  45   2.0000      -0.520815       -14.1721
  46   2.0000      -0.514369       -13.9967
  47   2.0000      -0.509873       -13.8744
  48   2.0000      -0.500884       -13.6297
  49   2.0000      -0.493995       -13.4423
  50   2.0000      -0.488424       -13.2907
  51   2.0000      -0.479990       -13.0612
  52   2.0000      -0.474143       -12.9021
  53   2.0000      -0.464577       -12.6418
  54   2.0000      -0.452558       -12.3147
  55   2.0000      -0.451838       -12.2951
  56   2.0000      -0.441720       -12.0198
  57   2.0000      -0.438457       -11.9310
  58   2.0000      -0.430816       -11.7231
  59   2.0000      -0.422370       -11.4933
  60   2.0000      -0.421057       -11.4575
  61   2.0000      -0.416559       -11.3351
  62   2.0000      -0.411051       -11.1853
  63   2.0000      -0.340226        -9.2580
  64   2.0000      -0.328001        -8.9254
  65   2.0000      -0.317490        -8.6394
  66   2.0000      -0.305827        -8.3220
  67   0.0000       0.048255         1.3131
  68   0.0000       0.054401         1.4803
  69   0.0000       0.115002         3.1294
  70   0.0000       0.121690         3.3113
  71   0.0000       0.126354         3.4383

MULLIKEN ATOMIC CHARGES
-----------------------
   0 S :    0.109097
   1 C :   -0.131542
   2 C :   -0.073639
   3 C :    0.018283
   4 C :   -0.175262
   5 H :    0.038740
   6 C :    0.028469
   7 H :    0.029486
   8 H :    0.012809
   9 C :   -0.010502
  10 H :    0.014301
  11 H :    0.038252
  12 C :   -0.088788
  13 H :    0.046948
  14 H :    0.038567
  15 H :    0.036626
  16 S :    0.143069
  17 C :   -0.107380
  18 C :   -0.029698
  19 C :    0.000192
  20 C :   -0.200625
  21 H :    0.010650
  22 C :    0.105116
  23 H :    0.018981
  24 H :    0.017806
  25 C :   -0.070294
  26 H :    0.018709
  27 H :    0.024557
  28 C :   -0.068893
  29 H :    0.027212
  30 H :    0.042353
  31 H :    0.028056
  32 H :    0.041444
  33 H :    0.066902
Sum of atomic charges:   -0.0000000

LOEWDIN ATOMIC CHARGES
----------------------
   0 S :    0.405638
   1 C :   -0.195247
   2 C :   -0.074225
   3 C :   -0.057893
   4 C :   -0.198877
   5 H :    0.040319
   6 C :   -0.040834
   7 H :    0.035326
   8 H :    0.027254
   9 C :   -0.029982
  10 H :    0.015227
  11 H :    0.030671
  12 C :   -0.076178
  13 H :    0.032536
  14 H :    0.029584
  15 H :    0.026703
  16 S :    0.453563
  17 C :   -0.209942
  18 C :   -0.070175
  19 C :   -0.043665
  20 C :   -0.223267
  21 H :    0.026732
  22 C :   -0.029375
  23 H :    0.032504
  24 H :    0.034314
  25 C :   -0.040080
  26 H :    0.020164
  27 H :    0.023241
  28 C :   -0.071306
  29 H :    0.019124
  30 H :    0.029187
  31 H :    0.028701
  32 H :    0.016237
  33 H :    0.034021

  Mayer bond orders larger than 0.100000
B(  0-S ,  1-C ) :   1.1810 B(  0-S ,  4-C ) :   1.1337 B(  1-C ,  2-C ) :   1.5629
B(  1-C , 32-H ) :   0.9718 B(  2-C ,  3-C ) :   1.2670 B(  2-C ,  6-C ) :   1.0385
B(  3-C ,  4-C ) :   1.6084 B(  3-C ,  5-H ) :   0.9743 B(  4-C , 20-C ) :   1.0030
B(  6-C ,  7-H ) :   0.9327 B(  6-C ,  8-H ) :   0.9345 B(  6-C ,  9-C ) :   1.0520
B(  9-C , 10-H ) :   0.9593 B(  9-C , 11-H ) :   0.9566 B(  9-C , 12-C ) :   1.0721
B( 12-C , 13-H ) :   0.9765 B( 12-C , 14-H ) :   0.9773 B( 12-C , 15-H ) :   0.9748
B( 16-S , 17-C ) :   1.1692 B( 16-S , 20-C ) :   1.1883 B( 17-C , 18-C ) :   1.5838
B( 17-C , 33-H ) :   0.9678 B( 18-C , 19-C ) :   1.2550 B( 18-C , 21-H ) :   0.9885
B( 19-C , 20-C ) :   1.5671 B( 19-C , 22-C ) :   1.0584 B( 22-C , 23-H ) :   0.9284
B( 22-C , 24-H ) :   0.9341 B( 22-C , 25-C ) :   1.0650 B( 25-C , 26-H ) :   0.9550
B( 25-C , 27-H ) :   0.9560 B( 25-C , 28-C ) :   1.0827 B( 28-C , 29-H ) :   0.9748
B( 28-C , 30-H ) :   0.9735 B( 28-C , 31-H ) :   0.9728

Dispersion correction           -0.014632790
FINAL SINGLE POINT ENERGY     -1339.878754975628

DIPOLE MOMENT
-------------
                                X             Y             Z
Electronic contribution:     -6.16583      20.30948      13.55102
Nuclear contribution   :      6.37975     -20.53296     -13.84423
                        -----------------------------------------
Total Dipole Moment    :      0.21392      -0.22348      -0.29322
                        -----------------------------------------
Magnitude (a.u.)       :      0.42624
Magnitude (Debye)      :      1.08342

Rotational constants in cm-1:     0.020054     0.007953     0.007024
Rotational constants in MHz :   601.204331   238.415690   210.574907

                             ****ORCA TERMINATED NORMALLY****
TOTAL RUN TIME: 0 days 0 hours 0 minutes 20 seconds 492 msec
