                         Program Version 4.2.1 -  RELEASE  -
|  1> ! wB97X-D3 SP def2-SVP
|  2> %pal
|  3> nprocs 24
|  4> end
|  5>
|  6> * xyz 0 1
|  7> S 	 -111.712 	 24.803 	 -110.069
|  8> C 	 -110.453 	 23.8788 	 -109.379
|  9> C 	 -109.767 	 23.0717 	 -110.298
| 10> C 	 -110.351 	 23.2827 	 -111.581
| 11> C 	 -111.413 	 24.2162 	 -111.664
| 12> H 	 -109.964 	 22.8665 	 -112.473
| 13> C 	 -108.586 	 22.1264 	 -110
| 14> H 	 -107.724 	 22.7674 	 -110.123
| 15> H 	 -108.597 	 21.2919 	 -110.732
| 16> C 	 -108.595 	 21.4435 	 -108.64
| 17> H 	 -109.64 	 21.3487 	 -108.278
| 18> H 	 -108.14 	 20.4481 	 -108.735
| 19> C 	 -107.773 	 22.1767 	 -107.538
| 20> H 	 -106.696 	 22.1053 	 -107.798
| 21> H 	 -107.943 	 23.2344 	 -107.552
| 22> H 	 -107.911 	 21.8039 	 -106.571
| 23> S 	 -113.792 	 25.2334 	 -112.352
| 24> C 	 -114.262 	 25.3878 	 -114.073
| 25> C 	 -113.136 	 25.1156 	 -114.862
| 26> C 	 -111.988 	 24.7079 	 -114.158
| 27> C 	 -112.2 	 24.577 	 -112.759
| 28> H 	 -113.211 	 25.2966 	 -115.942
| 29> C 	 -110.694 	 24.3119 	 -114.945
| 30> H 	 -110.455 	 23.2711 	 -115.037
| 31> H 	 -109.792 	 24.5218 	 -114.411
| 32> C 	 -110.336 	 25.0439 	 -116.322
| 33> H 	 -111.054 	 24.7185 	 -117.102
| 34> H 	 -109.311 	 24.6598 	 -116.507
| 35> C 	 -110.162 	 26.5374 	 -116.513
| 36> H 	 -111.128 	 27.056 	 -116.314
| 37> H 	 -109.84 	 26.8005 	 -117.486
| 38> H 	 -109.438 	 26.9557 	 -115.869
| 39> H 	 -110.106 	 23.8617 	 -108.28
| 40> H 	 -115.284 	 25.6712 	 -114.426
| 41> *
| 42>
| 43>                          ****END OF INPUT****

CARTESIAN COORDINATES (ANGSTROEM)
---------------------------------
  S    -111.712000   24.803000  -110.069000
  C    -110.453000   23.878800  -109.379000
  C    -109.767000   23.071700  -110.298000
  C    -110.351000   23.282700  -111.581000
  C    -111.413000   24.216200  -111.664000
  H    -109.964000   22.866500  -112.473000
  C    -108.586000   22.126400  -110.000000
  H    -107.724000   22.767400  -110.123000
  H    -108.597000   21.291900  -110.732000
  C    -108.595000   21.443500  -108.640000
  H    -109.640000   21.348700  -108.278000
  H    -108.140000   20.448100  -108.735000
  C    -107.773000   22.176700  -107.538000
  H    -106.696000   22.105300  -107.798000
  H    -107.943000   23.234400  -107.552000
  H    -107.911000   21.803900  -106.571000
  S    -113.792000   25.233400  -112.352000
  C    -114.262000   25.387800  -114.073000
  C    -113.136000   25.115600  -114.862000
  C    -111.988000   24.707900  -114.158000
  C    -112.200000   24.577000  -112.759000
  H    -113.211000   25.296600  -115.942000
  C    -110.694000   24.311900  -114.945000
  H    -110.455000   23.271100  -115.037000
  H    -109.792000   24.521800  -114.411000
  C    -110.336000   25.043900  -116.322000
  H    -111.054000   24.718500  -117.102000
  H    -109.311000   24.659800  -116.507000
  C    -110.162000   26.537400  -116.513000
  H    -111.128000   27.056000  -116.314000
  H    -109.840000   26.800500  -117.486000
  H    -109.438000   26.955700  -115.869000
  H    -110.106000   23.861700  -108.280000
  H    -115.284000   25.671200  -114.426000

 Total Charge           Charge          ....    0
 Multiplicity           Mult            ....    1
 Number of Electrons    NEL             ....  134
 Basis Dimension        Dim             ....  322

ORBITAL ENERGIES
----------------

  NO   OCC          E(Eh)            E(eV)
   0   2.0000     -88.970299     -2421.0049
   1   2.0000     -88.965850     -2420.8838
   2   2.0000     -10.332316      -281.1566
   3   2.0000     -10.327421      -281.0234
   4   2.0000     -10.326807      -281.0067
   5   2.0000     -10.317817      -280.7621
   6   2.0000     -10.312561      -280.6190
   7   2.0000     -10.304138      -280.3898
   8   2.0000     -10.299544      -280.2648
   9   2.0000     -10.298916      -280.2478
  10   2.0000     -10.297248      -280.2024
  11   2.0000     -10.295023      -280.1418
  12   2.0000     -10.292981      -280.0862
  13   2.0000     -10.292075      -280.0616
  14   2.0000     -10.277321      -279.6601
  15   2.0000     -10.272215      -279.5212
  16   2.0000      -8.085721      -220.0236
  17   2.0000      -8.079816      -219.8630
  18   2.0000      -6.044220      -164.4716
  19   2.0000      -6.040017      -164.3572
  20   2.0000      -6.038431      -164.3141
  21   2.0000      -6.036568      -164.2634
  22   2.0000      -6.034429      -164.2052
  23   2.0000      -6.030515      -164.0986
  24   2.0000      -1.010856       -27.5068
  25   2.0000      -0.980400       -26.6780
  26   2.0000      -0.914635       -24.8885
  27   2.0000      -0.899586       -24.4790
  28   2.0000      -0.873352       -23.7651
  29   2.0000      -0.854095       -23.2411
  30   2.0000      -0.844628       -22.9835
  31   2.0000      -0.810060       -22.0428
  32   2.0000      -0.790775       -21.5181
  33   2.0000      -0.778378       -21.1807
  34   2.0000      -0.707809       -19.2605
  35   2.0000      -0.704402       -19.1677
  36   2.0000      -0.690462       -18.7884
  37   2.0000      -0.660094       -17.9621
  38   2.0000      -0.631057       -17.1719
  39   2.0000      -0.618308       -16.8250
  40   2.0000      -0.600900       -16.3513
  41   2.0000      -0.576640       -15.6912
  42   2.0000      -0.552972       -15.0471
  43   2.0000      -0.548523       -14.9261
  44   2.0000      -0.537670       -14.6307
  45   2.0000      -0.534715       -14.5503
  46   2.0000      -0.525769       -14.3069
  47   2.0000      -0.514885       -14.0107
  48   2.0000      -0.506282       -13.7766
  49   2.0000      -0.499716       -13.5980
  50   2.0000      -0.489959       -13.3325
  51   2.0000      -0.479677       -13.0527
  52   2.0000      -0.475086       -12.9278
  53   2.0000      -0.468734       -12.7549
  54   2.0000      -0.459200       -12.4955
  55   2.0000      -0.450105       -12.2480
  56   2.0000      -0.445114       -12.1122
  57   2.0000      -0.439374       -11.9560
  58   2.0000      -0.431042       -11.7292
  59   2.0000      -0.426927       -11.6173
  60   2.0000      -0.419361       -11.4114
  61   2.0000      -0.414499       -11.2791
  62   2.0000      -0.398890       -10.8544
  63   2.0000      -0.361885        -9.8474
  64   2.0000      -0.336714        -9.1625
  65   2.0000      -0.329101        -8.9553
  66   2.0000      -0.274167        -7.4605
  67   0.0000       0.012575         0.3422
  68   0.0000       0.077226         2.1014
  69   0.0000       0.101432         2.7601
  70   0.0000       0.124579         3.3900
  71   0.0000       0.136117         3.7039

MULLIKEN ATOMIC CHARGES
-----------------------
   0 S :    0.129722
   1 C :   -0.149882
   2 C :   -0.110747
   3 C :    0.016587
   4 C :   -0.139438
   5 H :   -0.019413
   6 C :    0.084597
   7 H :    0.046211
   8 H :    0.038423
   9 C :   -0.103065
  10 H :    0.044676
  11 H :    0.037976
  12 C :   -0.047665
  13 H :    0.028798
  14 H :    0.019587
  15 H :    0.032249
  16 S :    0.075142
  17 C :   -0.113164
  18 C :   -0.044701
  19 C :    0.011452
  20 C :   -0.124697
  21 H :    0.031615
  22 C :    0.059884
  23 H :    0.036963
  24 H :    0.005405
  25 C :   -0.133177
  26 H :    0.037406
  27 H :    0.029768
  28 C :   -0.007696
  29 H :    0.030689
  30 H :    0.025572
  31 H :    0.017278
  32 H :    0.075028
  33 H :    0.078616
Sum of atomic charges:    0.0000000

LOEWDIN ATOMIC CHARGES
----------------------
   0 S :    0.440805
   1 C :   -0.231837
   2 C :   -0.064593
   3 C :   -0.060679
   4 C :   -0.209024
   5 H :    0.017931
   6 C :   -0.028551
   7 H :    0.035934
   8 H :    0.038491
   9 C :   -0.044391
  10 H :    0.028523
  11 H :    0.028610
  12 C :   -0.064117
  13 H :    0.028942
  14 H :    0.016972
  15 H :    0.018886
  16 S :    0.380968
  17 C :   -0.183277
  18 C :   -0.072576
  19 C :   -0.057577
  20 C :   -0.181396
  21 H :    0.036490
  22 C :   -0.039559
  23 H :    0.033132
  24 H :    0.027779
  25 C :   -0.043825
  26 H :    0.021037
  27 H :    0.030727
  28 C :   -0.061923
  29 H :    0.027975
  30 H :    0.024577
  31 H :    0.018581
  32 H :    0.045885
  33 H :    0.041079

  Mayer bond orders larger than 0.100000
B(  0-S ,  1-C ) :   1.1654 B(  0-S ,  4-C ) :   1.1491 B(  1-C ,  2-C ) :   1.5738
B(  1-C , 32-H ) :   0.9481 B(  2-C ,  3-C ) :   1.3076 B(  2-C ,  6-C ) :   1.0059
B(  3-C ,  4-C ) :   1.5018 B(  3-C ,  5-H ) :   0.9988 B(  4-C , 20-C ) :   1.1557
B(  6-C ,  7-H ) :   0.9376 B(  6-C ,  8-H ) :   0.9473 B(  6-C ,  9-C ) :   1.0554
B(  9-C , 10-H ) :   0.9624 B(  9-C , 11-H ) :   0.9622 B(  9-C , 12-C ) :   1.0721
B( 12-C , 13-H ) :   0.9731 B( 12-C , 14-H ) :   0.9774 B( 12-C , 15-H ) :   0.9764
B( 16-S , 17-C ) :   1.1458 B( 16-S , 20-C ) :   1.1339 B( 17-C , 18-C ) :   1.5776
B( 17-C , 20-C ) :   0.1146 B( 17-C , 33-H ) :   0.9651 B( 18-C , 19-C ) :   1.2776
B( 18-C , 21-H ) :   0.9822 B( 19-C , 20-C ) :   1.5264 B( 19-C , 22-C ) :   1.0196
B( 22-C , 23-H ) :   0.9374 B( 22-C , 24-H ) :   0.9267 B( 22-C , 25-C ) :   1.0648
B( 25-C , 26-H ) :   0.9551 B( 25-C , 27-H ) :   0.9565 B( 25-C , 28-C ) :   1.0878
B( 28-C , 29-H ) :   0.9713 B( 28-C , 30-H ) :   0.9695 B( 28-C , 31-H ) :   0.9726

Dispersion correction           -0.013560274
FINAL SINGLE POINT ENERGY     -1339.856853242143

DIPOLE MOMENT
-------------
                                X             Y             Z
Electronic contribution:    -22.51256       6.97526       5.98829
Nuclear contribution   :     23.13894      -7.23829      -6.27478
                        -----------------------------------------
Total Dipole Moment    :      0.62638      -0.26303      -0.28649
                        -----------------------------------------
Magnitude (a.u.)       :      0.73730
Magnitude (Debye)      :      1.87407

Rotational constants in cm-1:     0.022674     0.007060     0.005741
Rotational constants in MHz :   679.762850   211.662697   172.113314

                             ****ORCA TERMINATED NORMALLY****
TOTAL RUN TIME: 0 days 0 hours 0 minutes 20 seconds 799 msec
