                         Program Version 4.2.1 -  RELEASE  -
|  1> ! wB97X-D3 SP def2-SVP
|  2> %pal
|  3> nprocs 24
|  4> end
|  5>
|  6> * xyz 0 1
|  7> S 	 -95.5584 	 6.06477 	 -2.8946
|  8> C 	 -94.6457 	 6.93397 	 -4.03217
|  9> C 	 -95.3235 	 7.47334 	 -5.08255
| 10> C 	 -96.7065 	 7.23142 	 -4.99452
| 11> C 	 -97.0618 	 6.60749 	 -3.72097
| 12> H 	 -97.576 	 7.53016 	 -5.59922
| 13> C 	 -94.6861 	 8.19753 	 -6.24794
| 14> H 	 -95.1228 	 7.67237 	 -7.10057
| 15> H 	 -93.6983 	 7.8945 	 -6.34224
| 16> C 	 -94.7604 	 9.72369 	 -6.2531
| 17> H 	 -94.2331 	 10.0195 	 -5.32151
| 18> H 	 -94.1929 	 10.288 	 -6.99138
| 19> C 	 -96.1251 	 10.412 	 -6.4362
| 20> H 	 -96.4267 	 10.3308 	 -7.48401
| 21> H 	 -96.9968 	 9.89988 	 -5.82413
| 22> H 	 -96.0421 	 11.4354 	 -6.12939
| 23> S 	 -98.5828 	 4.73922 	 -2.31016
| 24> C 	 -100.256 	 5.08184 	 -1.99607
| 25> C 	 -100.596 	 6.30046 	 -2.50862
| 26> C 	 -99.5824 	 6.94093 	 -3.22959
| 27> C 	 -98.3701 	 6.2391 	 -3.19834
| 28> H 	 -101.573 	 6.78004 	 -2.37143
| 29> C 	 -99.8385 	 8.31153 	 -3.78825
| 30> H 	 -99.012 	 8.93707 	 -3.67366
| 31> H 	 -100.55 	 8.66699 	 -3.06232
| 32> C 	 -100.32 	 8.32171 	 -5.2977
| 33> H 	 -100.753 	 7.32557 	 -5.48147
| 34> H 	 -99.5329 	 8.30883 	 -6.05015
| 35> C 	 -101.339 	 9.30619 	 -5.76641
| 36> H 	 -101.049 	 10.3258 	 -5.82466
| 37> H 	 -102.168 	 9.13946 	 -5.10278
| 38> H 	 -101.641 	 9.09166 	 -6.80992
| 39> H 	 -93.5086 	 7.04267 	 -3.98016
| 40> H 	 -100.895 	 4.51687 	 -1.33665
| 41> *
| 42>
| 43>                          ****END OF INPUT****

CARTESIAN COORDINATES (ANGSTROEM)
---------------------------------
  S    -95.558400    6.064770   -2.894600
  C    -94.645700    6.933970   -4.032170
  C    -95.323500    7.473340   -5.082550
  C    -96.706500    7.231420   -4.994520
  C    -97.061800    6.607490   -3.720970
  H    -97.576000    7.530160   -5.599220
  C    -94.686100    8.197530   -6.247940
  H    -95.122800    7.672370   -7.100570
  H    -93.698300    7.894500   -6.342240
  C    -94.760400    9.723690   -6.253100
  H    -94.233100   10.019500   -5.321510
  H    -94.192900   10.288000   -6.991380
  C    -96.125100   10.412000   -6.436200
  H    -96.426700   10.330800   -7.484010
  H    -96.996800    9.899880   -5.824130
  H    -96.042100   11.435400   -6.129390
  S    -98.582800    4.739220   -2.310160
  C    -100.256000    5.081840   -1.996070
  C    -100.596000    6.300460   -2.508620
  C    -99.582400    6.940930   -3.229590
  C    -98.370100    6.239100   -3.198340
  H    -101.573000    6.780040   -2.371430
  C    -99.838500    8.311530   -3.788250
  H    -99.012000    8.937070   -3.673660
  H    -100.550000    8.666990   -3.062320
  C    -100.320000    8.321710   -5.297700
  H    -100.753000    7.325570   -5.481470
  H    -99.532900    8.308830   -6.050150
  C    -101.339000    9.306190   -5.766410
  H    -101.049000   10.325800   -5.824660
  H    -102.168000    9.139460   -5.102780
  H    -101.641000    9.091660   -6.809920
  H    -93.508600    7.042670   -3.980160
  H    -100.895000    4.516870   -1.336650

 Total Charge           Charge          ....    0
 Multiplicity           Mult            ....    1
 Number of Electrons    NEL             ....  134
 Basis Dimension        Dim             ....  322

ORBITAL ENERGIES
----------------

  NO   OCC          E(Eh)            E(eV)
   0   2.0000     -88.970115     -2420.9999
   1   2.0000     -88.966305     -2420.8962
   2   2.0000     -10.337663      -281.3021
   3   2.0000     -10.328018      -281.0397
   4   2.0000     -10.315123      -280.6888
   5   2.0000     -10.313558      -280.6462
   6   2.0000     -10.303088      -280.3613
   7   2.0000     -10.298364      -280.2327
   8   2.0000     -10.297349      -280.2051
   9   2.0000     -10.290096      -280.0077
  10   2.0000     -10.289971      -280.0044
  11   2.0000     -10.288494      -279.9641
  12   2.0000     -10.288301      -279.9589
  13   2.0000     -10.288172      -279.9554
  14   2.0000     -10.285310      -279.8775
  15   2.0000     -10.274199      -279.5752
  16   2.0000      -8.084820      -219.9991
  17   2.0000      -8.081202      -219.9007
  18   2.0000      -6.043142      -164.4423
  19   2.0000      -6.039732      -164.3495
  20   2.0000      -6.039413      -164.3408
  21   2.0000      -6.035710      -164.2400
  22   2.0000      -6.035647      -164.2383
  23   2.0000      -6.031976      -164.1384
  24   2.0000      -1.006763       -27.3954
  25   2.0000      -0.987680       -26.8761
  26   2.0000      -0.911758       -24.8102
  27   2.0000      -0.909342       -24.7444
  28   2.0000      -0.868477       -23.6325
  29   2.0000      -0.860697       -23.4208
  30   2.0000      -0.849935       -23.1279
  31   2.0000      -0.813646       -22.1404
  32   2.0000      -0.788060       -21.4442
  33   2.0000      -0.771877       -21.0039
  34   2.0000      -0.707237       -19.2449
  35   2.0000      -0.699450       -19.0330
  36   2.0000      -0.697068       -18.9682
  37   2.0000      -0.666061       -18.1244
  38   2.0000      -0.635131       -17.2828
  39   2.0000      -0.613975       -16.7071
  40   2.0000      -0.597592       -16.2613
  41   2.0000      -0.569185       -15.4883
  42   2.0000      -0.564980       -15.3739
  43   2.0000      -0.550126       -14.9697
  44   2.0000      -0.541622       -14.7383
  45   2.0000      -0.525098       -14.2886
  46   2.0000      -0.519710       -14.1420
  47   2.0000      -0.516127       -14.0445
  48   2.0000      -0.510775       -13.8989
  49   2.0000      -0.493454       -13.4276
  50   2.0000      -0.490256       -13.3405
  51   2.0000      -0.482743       -13.1361
  52   2.0000      -0.472330       -12.8528
  53   2.0000      -0.467091       -12.7102
  54   2.0000      -0.457430       -12.4473
  55   2.0000      -0.455253       -12.3881
  56   2.0000      -0.442991       -12.0544
  57   2.0000      -0.441127       -12.0037
  58   2.0000      -0.432332       -11.7644
  59   2.0000      -0.427311       -11.6277
  60   2.0000      -0.416983       -11.3467
  61   2.0000      -0.410671       -11.1749
  62   2.0000      -0.407240       -11.0816
  63   2.0000      -0.354985        -9.6596
  64   2.0000      -0.336842        -9.1659
  65   2.0000      -0.332925        -9.0594
  66   2.0000      -0.279220        -7.5980
  67   0.0000       0.018194         0.4951
  68   0.0000       0.075729         2.0607
  69   0.0000       0.107347         2.9211
  70   0.0000       0.125934         3.4268
  71   0.0000       0.129296         3.5183

MULLIKEN ATOMIC CHARGES
-----------------------
   0 S :    0.118262
   1 C :   -0.127295
   2 C :   -0.095424
   3 C :    0.033853
   4 C :   -0.185304
   5 H :    0.004689
   6 C :    0.128109
   7 H :    0.023444
   8 H :   -0.007507
   9 C :   -0.061178
  10 H :    0.025543
  11 H :    0.028110
  12 C :   -0.084580
  13 H :    0.035431
  14 H :    0.042003
  15 H :    0.039690
  16 S :    0.102813
  17 C :   -0.078935
  18 C :   -0.038894
  19 C :   -0.078207
  20 C :   -0.141307
  21 H :    0.021361
  22 C :    0.119913
  23 H :    0.016370
  24 H :    0.012785
  25 C :   -0.089282
  26 H :    0.027422
  27 H :    0.029300
  28 C :   -0.026030
  29 H :    0.028395
  30 H :    0.026778
  31 H :    0.029384
  32 H :    0.065389
  33 H :    0.054897
Sum of atomic charges:    0.0000000

LOEWDIN ATOMIC CHARGES
----------------------
   0 S :    0.411142
   1 C :   -0.219461
   2 C :   -0.072659
   3 C :   -0.056014
   4 C :   -0.177626
   5 H :    0.033116
   6 C :   -0.027720
   7 H :    0.034457
   8 H :    0.022193
   9 C :   -0.047007
  10 H :    0.027641
  11 H :    0.027525
  12 C :   -0.071450
  13 H :    0.023965
  14 H :    0.031255
  15 H :    0.025309
  16 S :    0.407373
  17 C :   -0.188373
  18 C :   -0.075278
  19 C :   -0.061697
  20 C :   -0.201012
  21 H :    0.034236
  22 C :   -0.022403
  23 H :    0.022789
  24 H :    0.032736
  25 C :   -0.045202
  26 H :    0.028727
  27 H :    0.018542
  28 C :   -0.061743
  29 H :    0.018578
  30 H :    0.023350
  31 H :    0.032676
  32 H :    0.041809
  33 H :    0.030223

  Mayer bond orders larger than 0.100000
B(  0-S ,  1-C ) :   1.1565 B(  0-S ,  4-C ) :   1.1527 B(  1-C ,  2-C ) :   1.6152
B(  1-C ,  4-C ) :   0.1004 B(  1-C , 32-H ) :   0.9473 B(  2-C ,  3-C ) :   1.2543
B(  2-C ,  6-C ) :   1.0116 B(  3-C ,  4-C ) :   1.5207 B(  3-C ,  5-H ) :   0.9876
B(  4-C , 20-C ) :   1.0996 B(  6-C ,  7-H ) :   0.9396 B(  6-C ,  8-H ) :   0.9293
B(  6-C ,  9-C ) :   1.0599 B(  9-C , 10-H ) :   0.9529 B(  9-C , 11-H ) :   0.9570
B(  9-C , 12-C ) :   1.0728 B( 12-C , 13-H ) :   0.9763 B( 12-C , 14-H ) :   0.9720
B( 12-C , 15-H ) :   0.9725 B( 16-S , 17-C ) :   1.1547 B( 16-S , 20-C ) :   1.1410
B( 17-C , 18-C ) :   1.5833 B( 17-C , 33-H ) :   0.9686 B( 18-C , 19-C ) :   1.2906
B( 18-C , 21-H ) :   0.9821 B( 19-C , 20-C ) :   1.5473 B( 19-C , 22-C ) :   1.0428
B( 22-C , 23-H ) :   0.9291 B( 22-C , 24-H ) :   0.9399 B( 22-C , 25-C ) :   1.0257
B( 25-C , 26-H ) :   0.9609 B( 25-C , 27-H ) :   0.9449 B( 25-C , 28-C ) :   1.0960
B( 28-C , 29-H ) :   0.9753 B( 28-C , 30-H ) :   0.9761 B( 28-C , 31-H ) :   0.9680

Dispersion correction           -0.014838315
FINAL SINGLE POINT ENERGY     -1339.863313682432

DIPOLE MOMENT
-------------
                                X             Y             Z
Electronic contribution:      6.69553     -24.54244      20.02805
Nuclear contribution   :     -6.83243      25.06981     -20.38668
                        -----------------------------------------
Total Dipole Moment    :     -0.13690       0.52737      -0.35863
                        -----------------------------------------
Magnitude (a.u.)       :      0.65229
Magnitude (Debye)      :      1.65798

Rotational constants in cm-1:     0.016473     0.010525     0.006688
Rotational constants in MHz :   493.852834   315.545982   200.494742

                             ****ORCA TERMINATED NORMALLY****
TOTAL RUN TIME: 0 days 0 hours 0 minutes 22 seconds 227 msec
