                         Program Version 4.2.1 -  RELEASE  -
|  1> ! wB97X-D3 SP def2-SVP
|  2> %pal
|  3> nprocs 24
|  4> end
|  5>
|  6> * xyz 0 1
|  7> S 	 -97.5064 	 39.1388 	 -81.7498
|  8> C 	 -97.2622 	 37.4828 	 -82.364
|  9> C 	 -98.3776 	 37.0969 	 -83.046
| 10> C 	 -99.3538 	 38.1071 	 -83.1136
| 11> C 	 -98.9961 	 39.3356 	 -82.5911
| 12> H 	 -100.355 	 38.0931 	 -83.3783
| 13> C 	 -98.6836 	 35.6378 	 -83.472
| 14> H 	 -99.6747 	 35.6604 	 -83.8662
| 15> H 	 -98.7465 	 35.1014 	 -82.5247
| 16> C 	 -97.557 	 34.9603 	 -84.3353
| 17> H 	 -97.3336 	 35.6512 	 -85.1216
| 18> H 	 -96.6492 	 34.9628 	 -83.6824
| 19> C 	 -97.9742 	 33.5974 	 -84.91
| 20> H 	 -98.3177 	 32.9967 	 -84.0985
| 21> H 	 -98.9153 	 33.7229 	 -85.545
| 22> H 	 -97.1821 	 33.0549 	 -85.4018
| 23> S 	 -99.6906 	 41.6541 	 -81.1917
| 24> C 	 -100.641 	 42.8877 	 -81.9724
| 25> C 	 -101.024 	 42.4591 	 -83.2352
| 26> C 	 -100.445 	 41.1904 	 -83.6491
| 27> C 	 -99.7048 	 40.6201 	 -82.6708
| 28> H 	 -101.568 	 43.2362 	 -83.8205
| 29> C 	 -100.637 	 40.6101 	 -85.0312
| 30> H 	 -101.23 	 41.3764 	 -85.6105
| 31> H 	 -101.231 	 39.7058 	 -84.9476
| 32> C 	 -99.3372 	 40.2144 	 -85.8768
| 33> H 	 -98.6725 	 39.7437 	 -85.1539
| 34> H 	 -98.7927 	 41.093 	 -86.2297
| 35> C 	 -99.6301 	 39.3609 	 -87.1288
| 36> H 	 -100.283 	 39.9518 	 -87.7917
| 37> H 	 -100.165 	 38.5102 	 -86.7161
| 38> H 	 -98.7985 	 39.0313 	 -87.7212
| 39> H 	 -96.4109 	 36.8427 	 -81.9725
| 40> H 	 -101.058 	 43.7767 	 -81.5882
| 41> *
| 42>
| 43>                          ****END OF INPUT****

CARTESIAN COORDINATES (ANGSTROEM)
---------------------------------
  S    -97.506400   39.138800  -81.749800
  C    -97.262200   37.482800  -82.364000
  C    -98.377600   37.096900  -83.046000
  C    -99.353800   38.107100  -83.113600
  C    -98.996100   39.335600  -82.591100
  H    -100.355000   38.093100  -83.378300
  C    -98.683600   35.637800  -83.472000
  H    -99.674700   35.660400  -83.866200
  H    -98.746500   35.101400  -82.524700
  C    -97.557000   34.960300  -84.335300
  H    -97.333600   35.651200  -85.121600
  H    -96.649200   34.962800  -83.682400
  C    -97.974200   33.597400  -84.910000
  H    -98.317700   32.996700  -84.098500
  H    -98.915300   33.722900  -85.545000
  H    -97.182100   33.054900  -85.401800
  S    -99.690600   41.654100  -81.191700
  C    -100.641000   42.887700  -81.972400
  C    -101.024000   42.459100  -83.235200
  C    -100.445000   41.190400  -83.649100
  C    -99.704800   40.620100  -82.670800
  H    -101.568000   43.236200  -83.820500
  C    -100.637000   40.610100  -85.031200
  H    -101.230000   41.376400  -85.610500
  H    -101.231000   39.705800  -84.947600
  C    -99.337200   40.214400  -85.876800
  H    -98.672500   39.743700  -85.153900
  H    -98.792700   41.093000  -86.229700
  C    -99.630100   39.360900  -87.128800
  H    -100.283000   39.951800  -87.791700
  H    -100.165000   38.510200  -86.716100
  H    -98.798500   39.031300  -87.721200
  H    -96.410900   36.842700  -81.972500
  H    -101.058000   43.776700  -81.588200

 Total Charge           Charge          ....    0
 Multiplicity           Mult            ....    1
 Number of Electrons    NEL             ....  134
 Basis Dimension        Dim             ....  322

ORBITAL ENERGIES
----------------

  NO   OCC          E(Eh)            E(eV)
   0   2.0000     -88.966310     -2420.8964
   1   2.0000     -88.963748     -2420.8267
   2   2.0000     -10.331813      -281.1429
   3   2.0000     -10.330160      -281.0979
   4   2.0000     -10.319879      -280.8182
   5   2.0000     -10.317744      -280.7601
   6   2.0000     -10.308732      -280.5149
   7   2.0000     -10.303361      -280.3687
   8   2.0000     -10.300363      -280.2871
   9   2.0000     -10.300007      -280.2774
  10   2.0000     -10.294494      -280.1274
  11   2.0000     -10.292855      -280.0828
  12   2.0000     -10.287206      -279.9291
  13   2.0000     -10.284782      -279.8632
  14   2.0000     -10.283821      -279.8370
  15   2.0000     -10.277072      -279.6533
  16   2.0000      -8.080405      -219.8790
  17   2.0000      -8.078662      -219.8316
  18   2.0000      -6.039106      -164.3324
  19   2.0000      -6.037135      -164.2788
  20   2.0000      -6.034987      -164.2203
  21   2.0000      -6.033099      -164.1690
  22   2.0000      -6.031008      -164.1121
  23   2.0000      -6.029472      -164.0703
  24   2.0000      -1.009439       -27.4682
  25   2.0000      -0.985709       -26.8225
  26   2.0000      -0.908387       -24.7185
  27   2.0000      -0.901222       -24.5235
  28   2.0000      -0.869584       -23.6626
  29   2.0000      -0.852763       -23.2049
  30   2.0000      -0.843982       -22.9659
  31   2.0000      -0.817616       -22.2485
  32   2.0000      -0.781733       -21.2720
  33   2.0000      -0.773062       -21.0361
  34   2.0000      -0.711472       -19.3601
  35   2.0000      -0.705036       -19.1850
  36   2.0000      -0.689818       -18.7709
  37   2.0000      -0.664163       -18.0728
  38   2.0000      -0.645792       -17.5729
  39   2.0000      -0.615244       -16.7416
  40   2.0000      -0.589598       -16.0438
  41   2.0000      -0.567819       -15.4511
  42   2.0000      -0.561476       -15.2785
  43   2.0000      -0.558813       -15.2061
  44   2.0000      -0.526493       -14.3266
  45   2.0000      -0.523674       -14.2499
  46   2.0000      -0.520297       -14.1580
  47   2.0000      -0.517541       -14.0830
  48   2.0000      -0.504449       -13.7268
  49   2.0000      -0.502516       -13.6741
  50   2.0000      -0.495254       -13.4766
  51   2.0000      -0.481612       -13.1053
  52   2.0000      -0.476326       -12.9615
  53   2.0000      -0.467325       -12.7166
  54   2.0000      -0.457694       -12.4545
  55   2.0000      -0.449035       -12.2189
  56   2.0000      -0.444957       -12.1079
  57   2.0000      -0.435570       -11.8525
  58   2.0000      -0.427853       -11.6425
  59   2.0000      -0.422826       -11.5057
  60   2.0000      -0.419567       -11.4170
  61   2.0000      -0.417218       -11.3531
  62   2.0000      -0.409806       -11.1514
  63   2.0000      -0.354442        -9.6448
  64   2.0000      -0.332375        -9.0444
  65   2.0000      -0.329426        -8.9641
  66   2.0000      -0.292521        -7.9599
  67   0.0000       0.020803         0.5661
  68   0.0000       0.074050         2.0150
  69   0.0000       0.102037         2.7766
  70   0.0000       0.123448         3.3592
  71   0.0000       0.126479         3.4417

MULLIKEN ATOMIC CHARGES
-----------------------
   0 S :    0.098950
   1 C :   -0.167213
   2 C :   -0.053945
   3 C :    0.018058
   4 C :   -0.158627
   5 H :   -0.017057
   6 C :    0.068927
   7 H :    0.011047
   8 H :    0.040408
   9 C :   -0.090801
  10 H :    0.031571
  11 H :    0.033520
  12 C :   -0.028896
  13 H :    0.018032
  14 H :    0.040897
  15 H :    0.044673
  16 S :    0.094204
  17 C :   -0.063593
  18 C :   -0.072186
  19 C :   -0.024903
  20 C :   -0.132440
  21 H :    0.036865
  22 C :    0.036293
  23 H :    0.028400
  24 H :    0.030469
  25 C :   -0.083303
  26 H :    0.049926
  27 H :    0.028174
  28 C :   -0.036275
  29 H :    0.030974
  30 H :    0.021724
  31 H :    0.040249
  32 H :    0.082435
  33 H :    0.043441
Sum of atomic charges:   -0.0000000

LOEWDIN ATOMIC CHARGES
----------------------
   0 S :    0.404256
   1 C :   -0.199152
   2 C :   -0.064951
   3 C :   -0.070492
   4 C :   -0.195861
   5 H :    0.020035
   6 C :   -0.023679
   7 H :    0.021437
   8 H :    0.033893
   9 C :   -0.039227
  10 H :    0.020287
  11 H :    0.026747
  12 C :   -0.067028
  13 H :    0.020502
  14 H :    0.036828
  15 H :    0.026998
  16 S :    0.380843
  17 C :   -0.178413
  18 C :   -0.077538
  19 C :   -0.058258
  20 C :   -0.176602
  21 H :    0.038982
  22 C :   -0.031903
  23 H :    0.034522
  24 H :    0.027420
  25 C :   -0.038549
  26 H :    0.024148
  27 H :    0.021902
  28 C :   -0.062260
  29 H :    0.026728
  30 H :    0.022053
  31 H :    0.026174
  32 H :    0.043634
  33 H :    0.026527

  Mayer bond orders larger than 0.100000
B(  0-S ,  1-C ) :   1.1342 B(  0-S ,  4-C ) :   1.1692 B(  1-C ,  2-C ) :   1.5916
B(  1-C ,  4-C ) :   0.1058 B(  1-C , 32-H ) :   0.9645 B(  2-C ,  3-C ) :   1.2433
B(  2-C ,  6-C ) :   1.0063 B(  3-C ,  4-C ) :   1.5491 B(  3-C ,  5-H ) :   1.0147
B(  4-C , 20-C ) :   1.0412 B(  6-C ,  7-H ) :   0.9485 B(  6-C ,  8-H ) :   0.9389
B(  6-C ,  9-C ) :   1.0454 B(  9-C , 10-H ) :   0.9652 B(  9-C , 11-H ) :   0.9536
B(  9-C , 12-C ) :   1.0795 B( 12-C , 13-H ) :   0.9729 B( 12-C , 14-H ) :   0.9733
B( 12-C , 15-H ) :   0.9747 B( 16-S , 17-C ) :   1.1427 B( 16-S , 20-C ) :   1.1107
B( 17-C , 18-C ) :   1.6567 B( 17-C , 33-H ) :   0.9671 B( 18-C , 19-C ) :   1.2059
B( 18-C , 21-H ) :   0.9788 B( 19-C , 20-C ) :   1.6390 B( 19-C , 22-C ) :   1.0440
B( 22-C , 23-H ) :   0.9343 B( 22-C , 24-H ) :   0.9351 B( 22-C , 25-C ) :   1.0447
B( 25-C , 26-H ) :   0.9610 B( 25-C , 27-H ) :   0.9559 B( 25-C , 28-C ) :   1.0743
B( 28-C , 29-H ) :   0.9767 B( 28-C , 30-H ) :   0.9765 B( 28-C , 31-H ) :   0.9746

Dispersion correction           -0.014447853
FINAL SINGLE POINT ENERGY     -1339.871966066659

DIPOLE MOMENT
-------------
                                X             Y             Z
Electronic contribution:      1.48752      20.74044      24.19329
Nuclear contribution   :     -1.77371     -21.09303     -24.61106
                        -----------------------------------------
Total Dipole Moment    :     -0.28619      -0.35259      -0.41778
                        -----------------------------------------
Magnitude (a.u.)       :      0.61706
Magnitude (Debye)      :      1.56844

Rotational constants in cm-1:     0.021464     0.008286     0.006446
Rotational constants in MHz :   643.485851   248.405961   193.243425

                             ****ORCA TERMINATED NORMALLY****
TOTAL RUN TIME: 0 days 0 hours 0 minutes 20 seconds 939 msec
