                         Program Version 4.2.1 -  RELEASE  -
|  1> ! wB97X-D3 SP def2-SVP
|  2> %pal
|  3> nprocs 24
|  4> end
|  5>
|  6> * xyz 0 1
|  7> S 	 17.1794 	 -10.2863 	 -125.754
|  8> C 	 16.0913 	 -9.14512 	 -126.398
|  9> C 	 15.0908 	 -9.76525 	 -127.068
| 10> C 	 15.1616 	 -11.2163 	 -126.971
| 11> C 	 16.3516 	 -11.6775 	 -126.374
| 12> H 	 14.5388 	 -11.8842 	 -127.452
| 13> C 	 14.0461 	 -9.02225 	 -127.919
| 14> H 	 13.0638 	 -8.83383 	 -127.428
| 15> H 	 13.9693 	 -9.68133 	 -128.788
| 16> C 	 14.4308 	 -7.67833 	 -128.511
| 17> H 	 14.3325 	 -6.92648 	 -127.679
| 18> H 	 15.5233 	 -7.63079 	 -128.697
| 19> C 	 13.677 	 -7.1213 	 -129.777
| 20> H 	 12.6564 	 -7.12212 	 -129.473
| 21> H 	 13.9295 	 -6.16476 	 -130.183
| 22> H 	 13.7232 	 -7.8868 	 -130.514
| 23> S 	 18.4946 	 -13.4493 	 -126.342
| 24> C 	 18.3724 	 -15.0758 	 -125.916
| 25> C 	 17.0581 	 -15.3476 	 -125.524
| 26> C 	 16.1879 	 -14.1647 	 -125.599
| 27> C 	 16.8469 	 -13.0421 	 -126.152
| 28> H 	 16.8143 	 -16.3125 	 -125.175
| 29> C 	 14.836 	 -14.1387 	 -124.896
| 30> H 	 14.4634 	 -13.106 	 -125.168
| 31> H 	 15.1544 	 -14.1656 	 -123.835
| 32> C 	 13.819 	 -15.2462 	 -125.318
| 33> H 	 13.0317 	 -15.3664 	 -124.5
| 34> H 	 14.2475 	 -16.23 	 -125.414
| 35> C 	 13.1085 	 -14.9985 	 -126.605
| 36> H 	 13.7948 	 -14.8901 	 -127.334
| 37> H 	 12.5422 	 -14.0841 	 -126.477
| 38> H 	 12.3871 	 -15.796 	 -126.793
| 39> H 	 16.1968 	 -8.08357 	 -126.353
| 40> H 	 19.2635 	 -15.5971 	 -125.825
| 41> *
| 42>
| 43>                          ****END OF INPUT****

CARTESIAN COORDINATES (ANGSTROEM)
---------------------------------
  S     17.179400  -10.286300  -125.754000
  C     16.091300   -9.145120  -126.398000
  C     15.090800   -9.765250  -127.068000
  C     15.161600  -11.216300  -126.971000
  C     16.351600  -11.677500  -126.374000
  H     14.538800  -11.884200  -127.452000
  C     14.046100   -9.022250  -127.919000
  H     13.063800   -8.833830  -127.428000
  H     13.969300   -9.681330  -128.788000
  C     14.430800   -7.678330  -128.511000
  H     14.332500   -6.926480  -127.679000
  H     15.523300   -7.630790  -128.697000
  C     13.677000   -7.121300  -129.777000
  H     12.656400   -7.122120  -129.473000
  H     13.929500   -6.164760  -130.183000
  H     13.723200   -7.886800  -130.514000
  S     18.494600  -13.449300  -126.342000
  C     18.372400  -15.075800  -125.916000
  C     17.058100  -15.347600  -125.524000
  C     16.187900  -14.164700  -125.599000
  C     16.846900  -13.042100  -126.152000
  H     16.814300  -16.312500  -125.175000
  C     14.836000  -14.138700  -124.896000
  H     14.463400  -13.106000  -125.168000
  H     15.154400  -14.165600  -123.835000
  C     13.819000  -15.246200  -125.318000
  H     13.031700  -15.366400  -124.500000
  H     14.247500  -16.230000  -125.414000
  C     13.108500  -14.998500  -126.605000
  H     13.794800  -14.890100  -127.334000
  H     12.542200  -14.084100  -126.477000
  H     12.387100  -15.796000  -126.793000
  H     16.196800   -8.083570  -126.353000
  H     19.263500  -15.597100  -125.825000

 Total Charge           Charge          ....    0
 Multiplicity           Mult            ....    1
 Number of Electrons    NEL             ....  134
 Basis Dimension        Dim             ....  322

ORBITAL ENERGIES
----------------

  NO   OCC          E(Eh)            E(eV)
   0   2.0000     -88.963792     -2420.8279
   1   2.0000     -88.962732     -2420.7990
   2   2.0000     -10.335944      -281.2553
   3   2.0000     -10.328928      -281.0644
   4   2.0000     -10.314957      -280.6843
   5   2.0000     -10.310425      -280.5609
   6   2.0000     -10.307427      -280.4793
   7   2.0000     -10.303745      -280.3792
   8   2.0000     -10.298188      -280.2280
   9   2.0000     -10.298036      -280.2238
  10   2.0000     -10.297812      -280.2177
  11   2.0000     -10.295953      -280.1671
  12   2.0000     -10.292182      -280.0645
  13   2.0000     -10.288087      -279.9531
  14   2.0000     -10.277739      -279.6715
  15   2.0000     -10.265008      -279.3251
  16   2.0000      -8.079749      -219.8611
  17   2.0000      -8.079636      -219.8581
  18   2.0000      -6.038249      -164.3091
  19   2.0000      -6.037994      -164.3022
  20   2.0000      -6.033884      -164.1903
  21   2.0000      -6.033536      -164.1809
  22   2.0000      -6.030725      -164.1044
  23   2.0000      -6.030621      -164.1015
  24   2.0000      -1.013203       -27.5707
  25   2.0000      -0.993280       -27.0285
  26   2.0000      -0.910931       -24.7877
  27   2.0000      -0.910005       -24.7625
  28   2.0000      -0.873608       -23.7721
  29   2.0000      -0.854683       -23.2571
  30   2.0000      -0.846023       -23.0215
  31   2.0000      -0.819895       -22.3105
  32   2.0000      -0.785212       -21.3667
  33   2.0000      -0.775249       -21.0956
  34   2.0000      -0.707759       -19.2591
  35   2.0000      -0.703857       -19.1529
  36   2.0000      -0.694634       -18.9019
  37   2.0000      -0.660630       -17.9767
  38   2.0000      -0.645615       -17.5681
  39   2.0000      -0.613429       -16.6923
  40   2.0000      -0.598307       -16.2808
  41   2.0000      -0.578346       -15.7376
  42   2.0000      -0.568298       -15.4642
  43   2.0000      -0.560225       -15.2445
  44   2.0000      -0.545411       -14.8414
  45   2.0000      -0.530483       -14.4352
  46   2.0000      -0.524847       -14.2818
  47   2.0000      -0.515197       -14.0192
  48   2.0000      -0.510410       -13.8890
  49   2.0000      -0.504933       -13.7399
  50   2.0000      -0.492634       -13.4053
  51   2.0000      -0.488781       -13.3004
  52   2.0000      -0.472810       -12.8658
  53   2.0000      -0.464480       -12.6391
  54   2.0000      -0.457594       -12.4518
  55   2.0000      -0.453248       -12.3335
  56   2.0000      -0.446136       -12.1400
  57   2.0000      -0.439516       -11.9598
  58   2.0000      -0.432781       -11.7766
  59   2.0000      -0.421761       -11.4767
  60   2.0000      -0.415052       -11.2941
  61   2.0000      -0.410109       -11.1596
  62   2.0000      -0.405589       -11.0366
  63   2.0000      -0.354251        -9.6397
  64   2.0000      -0.328869        -8.9490
  65   2.0000      -0.325195        -8.8490
  66   2.0000      -0.295945        -8.0531
  67   0.0000       0.030595         0.8325
  68   0.0000       0.077644         2.1128
  69   0.0000       0.116341         3.1658
  70   0.0000       0.121489         3.3059
  71   0.0000       0.131961         3.5908

MULLIKEN ATOMIC CHARGES
-----------------------
   0 S :    0.113433
   1 C :   -0.099584
   2 C :   -0.110843
   3 C :    0.063900
   4 C :   -0.158313
   5 H :   -0.020753
   6 C :    0.082961
   7 H :    0.055162
   8 H :    0.026793
   9 C :   -0.167486
  10 H :    0.026751
  11 H :    0.031718
  12 C :    0.006261
  13 H :    0.016166
  14 H :    0.042971
  15 H :    0.020634
  16 S :    0.106849
  17 C :   -0.073283
  18 C :   -0.016461
  19 C :   -0.080903
  20 C :   -0.138450
  21 H :    0.009440
  22 C :    0.048891
  23 H :    0.033768
  24 H :    0.057793
  25 C :   -0.095893
  26 H :    0.032003
  27 H :    0.023713
  28 C :    0.002896
  29 H :    0.014952
  30 H :    0.020136
  31 H :    0.035936
  32 H :    0.042316
  33 H :    0.046525
Sum of atomic charges:   -0.0000000

LOEWDIN ATOMIC CHARGES
----------------------
   0 S :    0.431733
   1 C :   -0.206470
   2 C :   -0.064757
   3 C :   -0.056933
   4 C :   -0.193458
   5 H :    0.015391
   6 C :   -0.035548
   7 H :    0.039228
   8 H :    0.032168
   9 C :   -0.053983
  10 H :    0.019993
  11 H :    0.020296
  12 C :   -0.053936
  13 H :    0.022257
  14 H :    0.028335
  15 H :    0.020804
  16 S :    0.453416
  17 C :   -0.189739
  18 C :   -0.070192
  19 C :   -0.054326
  20 C :   -0.231575
  21 H :    0.022080
  22 C :   -0.036151
  23 H :    0.036950
  24 H :    0.043509
  25 C :   -0.044167
  26 H :    0.028754
  27 H :    0.018379
  28 C :   -0.051245
  29 H :    0.008458
  30 H :    0.023788
  31 H :    0.031312
  32 H :    0.028181
  33 H :    0.017447

  Mayer bond orders larger than 0.100000
B(  0-S ,  1-C ) :   1.1433 B(  0-S ,  4-C ) :   1.1723 B(  1-C ,  2-C ) :   1.6173
B(  1-C , 32-H ) :   0.9675 B(  2-C ,  3-C ) :   1.2589 B(  2-C ,  6-C ) :   1.0033
B(  3-C ,  4-C ) :   1.5502 B(  3-C ,  5-H ) :   1.0060 B(  4-C , 20-C ) :   1.0401
B(  6-C ,  7-H ) :   0.9335 B(  6-C ,  8-H ) :   0.9468 B(  6-C ,  9-C ) :   1.0692
B(  9-C , 10-H ) :   0.9507 B(  9-C , 11-H ) :   0.9601 B(  9-C , 12-C ) :   1.0702
B( 12-C , 13-H ) :   0.9745 B( 12-C , 14-H ) :   0.9761 B( 12-C , 15-H ) :   0.9761
B( 16-S , 17-C ) :   1.2052 B( 16-S , 20-C ) :   1.1638 B( 17-C , 18-C ) :   1.5324
B( 17-C , 33-H ) :   0.9831 B( 18-C , 19-C ) :   1.2694 B( 18-C , 21-H ) :   1.0033
B( 19-C , 20-C ) :   1.5281 B( 19-C , 22-C ) :   1.0269 B( 22-C , 23-H ) :   0.9376
B( 22-C , 24-H ) :   0.9373 B( 22-C , 25-C ) :   1.0505 B( 25-C , 26-H ) :   0.9567
B( 25-C , 27-H ) :   0.9608 B( 25-C , 28-C ) :   1.0831 B( 28-C , 29-H ) :   0.9762
B( 28-C , 30-H ) :   0.9714 B( 28-C , 31-H ) :   0.9695

Dispersion correction           -0.013844970
FINAL SINGLE POINT ENERGY     -1339.863021264450

DIPOLE MOMENT
-------------
                                X             Y             Z
Electronic contribution:     25.06310      -4.66677       9.08494
Nuclear contribution   :    -25.51253       4.56185      -9.11786
                        -----------------------------------------
Total Dipole Moment    :     -0.44943      -0.10493      -0.03291
                        -----------------------------------------
Magnitude (a.u.)       :      0.46269
Magnitude (Debye)      :      1.17606

Rotational constants in cm-1:     0.020891     0.007481     0.006022
Rotational constants in MHz :   626.287861   224.276389   180.534966

                             ****ORCA TERMINATED NORMALLY****
TOTAL RUN TIME: 0 days 0 hours 0 minutes 21 seconds 196 msec
