                         Program Version 4.2.1 -  RELEASE  -
|  1> ! wB97X-D3 SP def2-SVP
|  2> %pal
|  3> nprocs 24
|  4> end
|  5>
|  6> * xyz 0 1
|  7> S 	 -46.3554 	 28.2182 	 30.6901
|  8> C 	 -46.4077 	 29.0872 	 32.1214
|  9> C 	 -46.8316 	 28.3643 	 33.2553
| 10> C 	 -47.1262 	 27.0065 	 32.8061
| 11> C 	 -46.9888 	 26.7914 	 31.4487
| 12> H 	 -47.56 	 26.1841 	 33.4169
| 13> C 	 -47.2364 	 28.9605 	 34.6161
| 14> H 	 -48.3268 	 28.9386 	 34.6948
| 15> H 	 -47.0198 	 30.0233 	 34.5575
| 16> C 	 -46.491 	 28.3283 	 35.7937
| 17> H 	 -46.7878 	 28.9927 	 36.6771
| 18> H 	 -46.8255 	 27.3518 	 36.0802
| 19> C 	 -44.9532 	 27.9852 	 35.544
| 20> H 	 -44.8754 	 27.342 	 34.6846
| 21> H 	 -44.4005 	 28.8924 	 35.4468
| 22> H 	 -44.4714 	 27.5619 	 36.4057
| 23> S 	 -48.1632 	 25.4375 	 29.2758
| 24> C 	 -47.9051 	 23.6879 	 29.0257
| 25> C 	 -47.0889 	 23.2299 	 30.0755
| 26> C 	 -46.5912 	 24.1938 	 30.9778
| 27> C 	 -47.1061 	 25.4699 	 30.7026
| 28> H 	 -46.9042 	 22.1711 	 30.0661
| 29> C 	 -45.6358 	 23.8401 	 32.1015
| 30> H 	 -46.0117 	 22.8514 	 32.5278
| 31> H 	 -45.8811 	 24.4948 	 32.8814
| 32> C 	 -44.1091 	 23.8919 	 31.8974
| 33> H 	 -43.8369 	 24.7489 	 31.4098
| 34> H 	 -43.8366 	 23.0813 	 31.2116
| 35> C 	 -43.3018 	 23.8811 	 33.2462
| 36> H 	 -43.7392 	 24.6331 	 33.844
| 37> H 	 -42.2795 	 24.1044 	 33.2396
| 38> H 	 -43.4555 	 22.9882 	 33.8206
| 39> H 	 -46.0568 	 30.1383 	 32.1443
| 40> H 	 -48.3051 	 23.1295 	 28.185
| 41> *
| 42>
| 43>                          ****END OF INPUT****

CARTESIAN COORDINATES (ANGSTROEM)
---------------------------------
  S    -46.355400   28.218200   30.690100
  C    -46.407700   29.087200   32.121400
  C    -46.831600   28.364300   33.255300
  C    -47.126200   27.006500   32.806100
  C    -46.988800   26.791400   31.448700
  H    -47.560000   26.184100   33.416900
  C    -47.236400   28.960500   34.616100
  H    -48.326800   28.938600   34.694800
  H    -47.019800   30.023300   34.557500
  C    -46.491000   28.328300   35.793700
  H    -46.787800   28.992700   36.677100
  H    -46.825500   27.351800   36.080200
  C    -44.953200   27.985200   35.544000
  H    -44.875400   27.342000   34.684600
  H    -44.400500   28.892400   35.446800
  H    -44.471400   27.561900   36.405700
  S    -48.163200   25.437500   29.275800
  C    -47.905100   23.687900   29.025700
  C    -47.088900   23.229900   30.075500
  C    -46.591200   24.193800   30.977800
  C    -47.106100   25.469900   30.702600
  H    -46.904200   22.171100   30.066100
  C    -45.635800   23.840100   32.101500
  H    -46.011700   22.851400   32.527800
  H    -45.881100   24.494800   32.881400
  C    -44.109100   23.891900   31.897400
  H    -43.836900   24.748900   31.409800
  H    -43.836600   23.081300   31.211600
  C    -43.301800   23.881100   33.246200
  H    -43.739200   24.633100   33.844000
  H    -42.279500   24.104400   33.239600
  H    -43.455500   22.988200   33.820600
  H    -46.056800   30.138300   32.144300
  H    -48.305100   23.129500   28.185000

 Total Charge           Charge          ....    0
 Multiplicity           Mult            ....    1
 Number of Electrons    NEL             ....  134
 Basis Dimension        Dim             ....  322

ORBITAL ENERGIES
----------------

  NO   OCC          E(Eh)            E(eV)
   0   2.0000     -88.967254     -2420.9221
   1   2.0000     -88.965200     -2420.8662
   2   2.0000     -10.336008      -281.2571
   3   2.0000     -10.331675      -281.1392
   4   2.0000     -10.323456      -280.9155
   5   2.0000     -10.315762      -280.7062
   6   2.0000     -10.308237      -280.5014
   7   2.0000     -10.306554      -280.4556
   8   2.0000     -10.300572      -280.2928
   9   2.0000     -10.298913      -280.2477
  10   2.0000     -10.295049      -280.1425
  11   2.0000     -10.294086      -280.1163
  12   2.0000     -10.291451      -280.0446
  13   2.0000     -10.283058      -279.8162
  14   2.0000     -10.276154      -279.6284
  15   2.0000     -10.270024      -279.4616
  16   2.0000      -8.083704      -219.9688
  17   2.0000      -8.078885      -219.8376
  18   2.0000      -6.041927      -164.4092
  19   2.0000      -6.037917      -164.3001
  20   2.0000      -6.037374      -164.2853
  21   2.0000      -6.034702      -164.2126
  22   2.0000      -6.033390      -164.1769
  23   2.0000      -6.029877      -164.0813
  24   2.0000      -1.005433       -27.3592
  25   2.0000      -0.981522       -26.7086
  26   2.0000      -0.907211       -24.6865
  27   2.0000      -0.904086       -24.6014
  28   2.0000      -0.861132       -23.4326
  29   2.0000      -0.850020       -23.1302
  30   2.0000      -0.843006       -22.9394
  31   2.0000      -0.812943       -22.1213
  32   2.0000      -0.786023       -21.3888
  33   2.0000      -0.774986       -21.0884
  34   2.0000      -0.713346       -19.4111
  35   2.0000      -0.702366       -19.1123
  36   2.0000      -0.687038       -18.6953
  37   2.0000      -0.657840       -17.9007
  38   2.0000      -0.643673       -17.5152
  39   2.0000      -0.619557       -16.8590
  40   2.0000      -0.593941       -16.1619
  41   2.0000      -0.565758       -15.3951
  42   2.0000      -0.559981       -15.2379
  43   2.0000      -0.550671       -14.9845
  44   2.0000      -0.538705       -14.6589
  45   2.0000      -0.524486       -14.2720
  46   2.0000      -0.514659       -14.0046
  47   2.0000      -0.512455       -13.9446
  48   2.0000      -0.500555       -13.6208
  49   2.0000      -0.495861       -13.4931
  50   2.0000      -0.491691       -13.3796
  51   2.0000      -0.479497       -13.0478
  52   2.0000      -0.466762       -12.7012
  53   2.0000      -0.462399       -12.5825
  54   2.0000      -0.458337       -12.4720
  55   2.0000      -0.450799       -12.2669
  56   2.0000      -0.447613       -12.1802
  57   2.0000      -0.443440       -12.0666
  58   2.0000      -0.436160       -11.8685
  59   2.0000      -0.425480       -11.5779
  60   2.0000      -0.420630       -11.4459
  61   2.0000      -0.414577       -11.2812
  62   2.0000      -0.409117       -11.1326
  63   2.0000      -0.344695        -9.3796
  64   2.0000      -0.331955        -9.0329
  65   2.0000      -0.329477        -8.9655
  66   2.0000      -0.295607        -8.0439
  67   0.0000       0.031946         0.8693
  68   0.0000       0.068344         1.8597
  69   0.0000       0.109524         2.9803
  70   0.0000       0.121154         3.2968
  71   0.0000       0.127390         3.4664

MULLIKEN ATOMIC CHARGES
-----------------------
   0 S :    0.134200
   1 C :   -0.135467
   2 C :   -0.132608
   3 C :    0.007397
   4 C :   -0.154246
   5 H :    0.037506
   6 C :    0.103865
   7 H :    0.049895
   8 H :    0.014578
   9 C :   -0.113868
  10 H :    0.039756
  11 H :    0.025509
  12 C :   -0.038229
  13 H :    0.058554
  14 H :    0.020649
  15 H :    0.027951
  16 S :    0.090331
  17 C :   -0.111935
  18 C :   -0.040355
  19 C :   -0.025424
  20 C :   -0.164474
  21 H :    0.015944
  22 C :    0.080995
  23 H :    0.027338
  24 H :   -0.024566
  25 C :   -0.000693
  26 H :    0.011046
  27 H :    0.026188
  28 C :   -0.021357
  29 H :    0.009202
  30 H :    0.028479
  31 H :    0.021495
  32 H :    0.063990
  33 H :    0.068354
Sum of atomic charges:    0.0000000

LOEWDIN ATOMIC CHARGES
----------------------
   0 S :    0.447179
   1 C :   -0.222681
   2 C :   -0.068737
   3 C :   -0.068348
   4 C :   -0.210686
   5 H :    0.037201
   6 C :   -0.029793
   7 H :    0.039011
   8 H :    0.029803
   9 C :   -0.047139
  10 H :    0.032682
  11 H :    0.017598
  12 C :   -0.058575
  13 H :    0.027352
  14 H :    0.019870
  15 H :    0.025433
  16 S :    0.383819
  17 C :   -0.179478
  18 C :   -0.069149
  19 C :   -0.060859
  20 C :   -0.188353
  21 H :    0.029266
  22 C :   -0.032013
  23 H :    0.038098
  24 H :    0.017205
  25 C :   -0.023303
  26 H :    0.015333
  27 H :    0.024214
  28 C :   -0.056823
  29 H :    0.021264
  30 H :    0.021630
  31 H :    0.022928
  32 H :    0.032878
  33 H :    0.033172

  Mayer bond orders larger than 0.100000
B(  0-S ,  1-C ) :   1.1870 B(  0-S ,  4-C ) :   1.1633 B(  1-C ,  2-C ) :   1.5824
B(  1-C , 32-H ) :   0.9569 B(  2-C ,  3-C ) :   1.2403 B(  2-C ,  6-C ) :   1.0214
B(  3-C ,  4-C ) :   1.6003 B(  3-C ,  5-H ) :   0.9811 B(  4-C , 20-C ) :   0.9870
B(  6-C ,  7-H ) :   0.9462 B(  6-C ,  8-H ) :   0.9385 B(  6-C ,  9-C ) :   1.0521
B(  9-C , 10-H ) :   0.9605 B(  9-C , 11-H ) :   0.9610 B(  9-C , 12-C ) :   1.0656
B( 12-C , 13-H ) :   0.9654 B( 12-C , 14-H ) :   0.9779 B( 12-C , 15-H ) :   0.9756
B( 16-S , 17-C ) :   1.1511 B( 16-S , 20-C ) :   1.1599 B( 17-C , 18-C ) :   1.5834
B( 17-C , 20-C ) :   0.1112 B( 17-C , 33-H ) :   0.9715 B( 18-C , 19-C ) :   1.2564
B( 18-C , 21-H ) :   0.9934 B( 19-C , 20-C ) :   1.5721 B( 19-C , 22-C ) :   1.0381
B( 22-C , 23-H ) :   0.9306 B( 22-C , 24-H ) :   0.9207 B( 22-C , 25-C ) :   1.0614
B( 25-C , 26-H ) :   0.9529 B( 25-C , 27-H ) :   0.9563 B( 25-C , 28-C ) :   1.0724
B( 28-C , 29-H ) :   0.9734 B( 28-C , 30-H ) :   0.9761 B( 28-C , 31-H ) :   0.9767

Dispersion correction           -0.014803554
FINAL SINGLE POINT ENERGY     -1339.868213660994

DIPOLE MOMENT
-------------
                                X             Y             Z
Electronic contribution:    -14.83384       4.41194     -25.74163
Nuclear contribution   :     15.00893      -4.51882      26.29519
                        -----------------------------------------
Total Dipole Moment    :      0.17510      -0.10688       0.55356
                        -----------------------------------------
Magnitude (a.u.)       :      0.59035
Magnitude (Debye)      :      1.50055

Rotational constants in cm-1:     0.017576     0.009556     0.007121
Rotational constants in MHz :   526.909911   286.493620   213.482194

                             ****ORCA TERMINATED NORMALLY****
TOTAL RUN TIME: 0 days 0 hours 0 minutes 22 seconds 19 msec
