                         Program Version 4.2.1 -  RELEASE  -
|  1> ! wB97X-D3 SP def2-SVP
|  2> %pal
|  3> nprocs 24
|  4> end
|  5>
|  6> * xyz 0 1
|  7> S 	 -100.92 	 29.5961 	 -116.371
|  8> C 	 -102.501 	 29.847 	 -115.993
|  9> C 	 -103.31 	 29.1844 	 -116.962
| 10> C 	 -102.44 	 28.4654 	 -117.9
| 11> C 	 -101.071 	 28.6577 	 -117.771
| 12> H 	 -102.819 	 27.8347 	 -118.691
| 13> C 	 -104.847 	 29.1797 	 -117.031
| 14> H 	 -105.147 	 28.2137 	 -116.845
| 15> H 	 -105.181 	 29.3208 	 -118.125
| 16> C 	 -105.484 	 30.1409 	 -116.095
| 17> H 	 -105.143 	 29.8128 	 -115.105
| 18> H 	 -104.957 	 31.059 	 -116.21
| 19> C 	 -106.921 	 30.369 	 -116.233
| 20> H 	 -107.23 	 30.933 	 -117.111
| 21> H 	 -107.391 	 29.4187 	 -116.228
| 22> H 	 -107.254 	 30.8959 	 -115.367
| 23> S 	 -98.6204 	 29.3997 	 -118.686
| 24> C 	 -97.7207 	 28.4339 	 -119.892
| 25> C 	 -98.4064 	 27.2958 	 -120.262
| 26> C 	 -99.653 	 27.1255 	 -119.514
| 27> C 	 -99.9486 	 28.2371 	 -118.678
| 28> H 	 -97.9529 	 26.6428 	 -121.065
| 29> C 	 -100.539 	 25.9647 	 -119.671
| 30> H 	 -100.648 	 25.5328 	 -120.681
| 31> H 	 -101.532 	 26.3153 	 -119.605
| 32> C 	 -100.294 	 24.7806 	 -118.671
| 33> H 	 -99.278 	 24.2142 	 -118.72
| 34> H 	 -100.967 	 23.9509 	 -118.887
| 35> C 	 -100.63 	 25.329 	 -117.273
| 36> H 	 -100.787 	 24.4421 	 -116.586
| 37> H 	 -101.51 	 25.9264 	 -117.367
| 38> H 	 -99.8725 	 25.9815 	 -116.853
| 39> H 	 -102.856 	 30.3853 	 -115.155
| 40> H 	 -96.7468 	 28.7522 	 -120.187
| 41> *
| 42>
| 43>                          ****END OF INPUT****

CARTESIAN COORDINATES (ANGSTROEM)
---------------------------------
  S    -100.920000   29.596100  -116.371000
  C    -102.501000   29.847000  -115.993000
  C    -103.310000   29.184400  -116.962000
  C    -102.440000   28.465400  -117.900000
  C    -101.071000   28.657700  -117.771000
  H    -102.819000   27.834700  -118.691000
  C    -104.847000   29.179700  -117.031000
  H    -105.147000   28.213700  -116.845000
  H    -105.181000   29.320800  -118.125000
  C    -105.484000   30.140900  -116.095000
  H    -105.143000   29.812800  -115.105000
  H    -104.957000   31.059000  -116.210000
  C    -106.921000   30.369000  -116.233000
  H    -107.230000   30.933000  -117.111000
  H    -107.391000   29.418700  -116.228000
  H    -107.254000   30.895900  -115.367000
  S    -98.620400   29.399700  -118.686000
  C    -97.720700   28.433900  -119.892000
  C    -98.406400   27.295800  -120.262000
  C    -99.653000   27.125500  -119.514000
  C    -99.948600   28.237100  -118.678000
  H    -97.952900   26.642800  -121.065000
  C    -100.539000   25.964700  -119.671000
  H    -100.648000   25.532800  -120.681000
  H    -101.532000   26.315300  -119.605000
  C    -100.294000   24.780600  -118.671000
  H    -99.278000   24.214200  -118.720000
  H    -100.967000   23.950900  -118.887000
  C    -100.630000   25.329000  -117.273000
  H    -100.787000   24.442100  -116.586000
  H    -101.510000   25.926400  -117.367000
  H    -99.872500   25.981500  -116.853000
  H    -102.856000   30.385300  -115.155000
  H    -96.746800   28.752200  -120.187000

 Total Charge           Charge          ....    0
 Multiplicity           Mult            ....    1
 Number of Electrons    NEL             ....  134
 Basis Dimension        Dim             ....  322

ORBITAL ENERGIES
----------------

  NO   OCC          E(Eh)            E(eV)
   0   2.0000     -88.964694     -2420.8524
   1   2.0000     -88.964620     -2420.8504
   2   2.0000     -10.341492      -281.4063
   3   2.0000     -10.332778      -281.1692
   4   2.0000     -10.320590      -280.8375
   5   2.0000     -10.313587      -280.6470
   6   2.0000     -10.311987      -280.6034
   7   2.0000     -10.310039      -280.5504
   8   2.0000     -10.306052      -280.4419
   9   2.0000     -10.295764      -280.1620
  10   2.0000     -10.292480      -280.0726
  11   2.0000     -10.290621      -280.0220
  12   2.0000     -10.288438      -279.9626
  13   2.0000     -10.277343      -279.6607
  14   2.0000     -10.271283      -279.4958
  15   2.0000     -10.268279      -279.4141
  16   2.0000      -8.081985      -219.9220
  17   2.0000      -8.078824      -219.8360
  18   2.0000      -6.040224      -164.3629
  19   2.0000      -6.037382      -164.2855
  20   2.0000      -6.035744      -164.2409
  21   2.0000      -6.033368      -164.1763
  22   2.0000      -6.033200      -164.1717
  23   2.0000      -6.029615      -164.0742
  24   2.0000      -1.015799       -27.6413
  25   2.0000      -0.983279       -26.7564
  26   2.0000      -0.926205       -25.2033
  27   2.0000      -0.907821       -24.7031
  28   2.0000      -0.871859       -23.7245
  29   2.0000      -0.852499       -23.1977
  30   2.0000      -0.841020       -22.8853
  31   2.0000      -0.820156       -22.3176
  32   2.0000      -0.783800       -21.3283
  33   2.0000      -0.770730       -20.9726
  34   2.0000      -0.712664       -19.3926
  35   2.0000      -0.699406       -19.0318
  36   2.0000      -0.688480       -18.7345
  37   2.0000      -0.662328       -18.0229
  38   2.0000      -0.646688       -17.5973
  39   2.0000      -0.615103       -16.7378
  40   2.0000      -0.598454       -16.2848
  41   2.0000      -0.577664       -15.7190
  42   2.0000      -0.575551       -15.6616
  43   2.0000      -0.550284       -14.9740
  44   2.0000      -0.537588       -14.6285
  45   2.0000      -0.531266       -14.4565
  46   2.0000      -0.521080       -14.1793
  47   2.0000      -0.513598       -13.9757
  48   2.0000      -0.512639       -13.9496
  49   2.0000      -0.505776       -13.7629
  50   2.0000      -0.493216       -13.4211
  51   2.0000      -0.478919       -13.0320
  52   2.0000      -0.475032       -12.9263
  53   2.0000      -0.461669       -12.5626
  54   2.0000      -0.460153       -12.5214
  55   2.0000      -0.452795       -12.3212
  56   2.0000      -0.444799       -12.1036
  57   2.0000      -0.432325       -11.7642
  58   2.0000      -0.431749       -11.7485
  59   2.0000      -0.419850       -11.4247
  60   2.0000      -0.415544       -11.3075
  61   2.0000      -0.408534       -11.1168
  62   2.0000      -0.404814       -11.0156
  63   2.0000      -0.359106        -9.7718
  64   2.0000      -0.330597        -8.9960
  65   2.0000      -0.321029        -8.7356
  66   2.0000      -0.290051        -7.8927
  67   0.0000       0.025707         0.6995
  68   0.0000       0.081857         2.2274
  69   0.0000       0.105601         2.8735
  70   0.0000       0.116510         3.1704
  71   0.0000       0.134327         3.6552

MULLIKEN ATOMIC CHARGES
-----------------------
   0 S :    0.124400
   1 C :   -0.106757
   2 C :   -0.144235
   3 C :    0.010921
   4 C :   -0.116969
   5 H :    0.005056
   6 C :    0.094046
   7 H :    0.009754
   8 H :    0.034463
   9 C :   -0.114891
  10 H :    0.020857
  11 H :    0.017206
  12 C :    0.042132
  13 H :    0.036938
  14 H :    0.013229
  15 H :    0.022628
  16 S :    0.079977
  17 C :   -0.091538
  18 C :   -0.031676
  19 C :   -0.024546
  20 C :   -0.134574
  21 H :    0.050222
  22 C :    0.048231
  23 H :    0.018858
  24 H :   -0.002839
  25 C :   -0.083321
  26 H :    0.042923
  27 H :    0.024210
  28 C :   -0.045891
  29 H :    0.036680
  30 H :    0.017149
  31 H :    0.049985
  32 H :    0.044820
  33 H :    0.052549
Sum of atomic charges:   -0.0000000

LOEWDIN ATOMIC CHARGES
----------------------
   0 S :    0.479050
   1 C :   -0.234648
   2 C :   -0.058115
   3 C :   -0.074338
   4 C :   -0.224211
   5 H :    0.021225
   6 C :   -0.030083
   7 H :    0.018929
   8 H :    0.038358
   9 C :   -0.050550
  10 H :    0.025285
  11 H :    0.019861
  12 C :   -0.052652
  13 H :    0.030133
  14 H :    0.021717
  15 H :    0.028536
  16 S :    0.382262
  17 C :   -0.166873
  18 C :   -0.069952
  19 C :   -0.054367
  20 C :   -0.179722
  21 H :    0.048060
  22 C :   -0.043432
  23 H :    0.034025
  24 H :    0.024165
  25 C :   -0.041666
  26 H :    0.032291
  27 H :    0.020727
  28 C :   -0.067155
  29 H :    0.030156
  30 H :    0.018785
  31 H :    0.026200
  32 H :    0.025741
  33 H :    0.022257

  Mayer bond orders larger than 0.100000
B(  0-S ,  1-C ) :   1.1891 B(  0-S ,  4-C ) :   1.1877 B(  1-C ,  2-C ) :   1.5162
B(  1-C , 32-H ) :   0.9769 B(  2-C ,  3-C ) :   1.3184 B(  2-C ,  6-C ) :   1.0122
B(  3-C ,  4-C ) :   1.5134 B(  3-C ,  5-H ) :   0.9933 B(  4-C , 20-C ) :   1.0314
B(  6-C ,  7-H ) :   0.9217 B(  6-C ,  8-H ) :   0.9410 B(  6-C ,  9-C ) :   1.0862
B(  9-C , 10-H ) :   0.9396 B(  9-C , 11-H ) :   0.9510 B(  9-C , 12-C ) :   1.0961
B( 12-C , 13-H ) :   0.9698 B( 12-C , 14-H ) :   0.9674 B( 12-C , 15-H ) :   0.9634
B( 16-S , 17-C ) :   1.1427 B( 16-S , 20-C ) :   1.1415 B( 17-C , 18-C ) :   1.6244
B( 17-C , 33-H ) :   0.9730 B( 18-C , 19-C ) :   1.2162 B( 18-C , 21-H ) :   0.9825
B( 19-C , 20-C ) :   1.5844 B( 19-C , 22-C ) :   1.0489 B( 22-C , 23-H ) :   0.9274
B( 22-C , 24-H ) :   0.9396 B( 22-C , 25-C ) :   1.0662 B( 25-C , 26-H ) :   0.9573
B( 25-C , 27-H ) :   0.9554 B( 25-C , 28-C ) :   1.0678 B( 28-C , 29-H ) :   0.9719
B( 28-C , 30-H ) :   0.9723 B( 28-C , 31-H ) :   0.9722

Dispersion correction           -0.014688844
FINAL SINGLE POINT ENERGY     -1339.856034953742

DIPOLE MOMENT
-------------
                                X             Y             Z
Electronic contribution:     22.47035      10.84043      -2.60549
Nuclear contribution   :    -22.96730     -11.15923       2.43404
                        -----------------------------------------
Total Dipole Moment    :     -0.49695      -0.31880      -0.17145
                        -----------------------------------------
Magnitude (a.u.)       :      0.61481
Magnitude (Debye)      :      1.56272

Rotational constants in cm-1:     0.024463     0.007472     0.006430
Rotational constants in MHz :   733.373813   224.005364   192.764739

                             ****ORCA TERMINATED NORMALLY****
TOTAL RUN TIME: 0 days 0 hours 0 minutes 21 seconds 976 msec
