                         Program Version 4.2.1 -  RELEASE  -
|  1> ! wB97X-D3 SP def2-SVP
|  2> %pal
|  3> nprocs 24
|  4> end
|  5>
|  6> * xyz 0 1
|  7> S 	 -69.9289 	 20.3507 	 -115.702
|  8> C 	 -70.1224 	 20.6931 	 -114.006
|  9> C 	 -69.0622 	 20.1159 	 -113.284
| 10> C 	 -68.2521 	 19.266 	 -114.101
| 11> C 	 -68.5803 	 19.237 	 -115.421
| 12> H 	 -67.4708 	 18.6658 	 -113.853
| 13> C 	 -68.8687 	 20.1758 	 -111.763
| 14> H 	 -68.5971 	 19.2681 	 -111.379
| 15> H 	 -69.7737 	 20.515 	 -111.29
| 16> C 	 -67.7389 	 21.226 	 -111.432
| 17> H 	 -66.9098 	 21.0806 	 -112.085
| 18> H 	 -67.9967 	 22.2187 	 -111.777
| 19> C 	 -67.3415 	 21.1012 	 -109.931
| 20> H 	 -66.7367 	 20.2298 	 -109.666
| 21> H 	 -66.5906 	 21.8378 	 -109.728
| 22> H 	 -68.1683 	 21.1465 	 -109.194
| 23> S 	 -69.0551 	 17.0334 	 -117.045
| 24> C 	 -67.8587 	 16.6044 	 -118.208
| 25> C 	 -66.7819 	 17.4742 	 -118.213
| 26> C 	 -66.971 	 18.4932 	 -117.213
| 27> C 	 -68.0715 	 18.3266 	 -116.414
| 28> H 	 -65.9404 	 17.3129 	 -118.946
| 29> C 	 -65.9155 	 19.6163 	 -117.131
| 30> H 	 -66.4616 	 20.4606 	 -116.782
| 31> H 	 -65.5017 	 19.8868 	 -118.133
| 32> C 	 -64.7431 	 19.3978 	 -116.257
| 33> H 	 -64.1894 	 18.7125 	 -116.827
| 34> H 	 -65.0365 	 18.8942 	 -115.338
| 35> C 	 -64.0459 	 20.6687 	 -115.931
| 36> H 	 -64.6373 	 21.1108 	 -115.112
| 37> H 	 -63.9337 	 21.3033 	 -116.826
| 38> H 	 -63.0293 	 20.4344 	 -115.549
| 39> H 	 -70.8077 	 21.4389 	 -113.734
| 40> H 	 -68.0429 	 15.854 	 -118.957
| 41> *
| 42>
| 43>                          ****END OF INPUT****

CARTESIAN COORDINATES (ANGSTROEM)
---------------------------------
  S    -69.928900   20.350700  -115.702000
  C    -70.122400   20.693100  -114.006000
  C    -69.062200   20.115900  -113.284000
  C    -68.252100   19.266000  -114.101000
  C    -68.580300   19.237000  -115.421000
  H    -67.470800   18.665800  -113.853000
  C    -68.868700   20.175800  -111.763000
  H    -68.597100   19.268100  -111.379000
  H    -69.773700   20.515000  -111.290000
  C    -67.738900   21.226000  -111.432000
  H    -66.909800   21.080600  -112.085000
  H    -67.996700   22.218700  -111.777000
  C    -67.341500   21.101200  -109.931000
  H    -66.736700   20.229800  -109.666000
  H    -66.590600   21.837800  -109.728000
  H    -68.168300   21.146500  -109.194000
  S    -69.055100   17.033400  -117.045000
  C    -67.858700   16.604400  -118.208000
  C    -66.781900   17.474200  -118.213000
  C    -66.971000   18.493200  -117.213000
  C    -68.071500   18.326600  -116.414000
  H    -65.940400   17.312900  -118.946000
  C    -65.915500   19.616300  -117.131000
  H    -66.461600   20.460600  -116.782000
  H    -65.501700   19.886800  -118.133000
  C    -64.743100   19.397800  -116.257000
  H    -64.189400   18.712500  -116.827000
  H    -65.036500   18.894200  -115.338000
  C    -64.045900   20.668700  -115.931000
  H    -64.637300   21.110800  -115.112000
  H    -63.933700   21.303300  -116.826000
  H    -63.029300   20.434400  -115.549000
  H    -70.807700   21.438900  -113.734000
  H    -68.042900   15.854000  -118.957000

 Total Charge           Charge          ....    0
 Multiplicity           Mult            ....    1
 Number of Electrons    NEL             ....  134
 Basis Dimension        Dim             ....  322

ORBITAL ENERGIES
----------------

  NO   OCC          E(Eh)            E(eV)
   0   2.0000     -88.964580     -2420.8493
   1   2.0000     -88.961277     -2420.7594
   2   2.0000     -10.324532      -280.9448
   3   2.0000     -10.320900      -280.8460
   4   2.0000     -10.316177      -280.7174
   5   2.0000     -10.315122      -280.6887
   6   2.0000     -10.306331      -280.4495
   7   2.0000     -10.303374      -280.3691
   8   2.0000     -10.298192      -280.2281
   9   2.0000     -10.287303      -279.9317
  10   2.0000     -10.286616      -279.9131
  11   2.0000     -10.286066      -279.8981
  12   2.0000     -10.282845      -279.8105
  13   2.0000     -10.280706      -279.7522
  14   2.0000     -10.279130      -279.7094
  15   2.0000     -10.270115      -279.4640
  16   2.0000      -8.080103      -219.8708
  17   2.0000      -8.076117      -219.7623
  18   2.0000      -6.038527      -164.3167
  19   2.0000      -6.034507      -164.2073
  20   2.0000      -6.034485      -164.2067
  21   2.0000      -6.030906      -164.1093
  22   2.0000      -6.030532      -164.0991
  23   2.0000      -6.027061      -164.0047
  24   2.0000      -1.009013       -27.4566
  25   2.0000      -0.985173       -26.8079
  26   2.0000      -0.920932       -25.0598
  27   2.0000      -0.906155       -24.6577
  28   2.0000      -0.872658       -23.7462
  29   2.0000      -0.851248       -23.1636
  30   2.0000      -0.846045       -23.0221
  31   2.0000      -0.816936       -22.2300
  32   2.0000      -0.781199       -21.2575
  33   2.0000      -0.770067       -20.9546
  34   2.0000      -0.711465       -19.3599
  35   2.0000      -0.701948       -19.1010
  36   2.0000      -0.691796       -18.8247
  37   2.0000      -0.661216       -17.9926
  38   2.0000      -0.658911       -17.9299
  39   2.0000      -0.619549       -16.8588
  40   2.0000      -0.597263       -16.2524
  41   2.0000      -0.580020       -15.7831
  42   2.0000      -0.568463       -15.4687
  43   2.0000      -0.555624       -15.1193
  44   2.0000      -0.526611       -14.3298
  45   2.0000      -0.522227       -14.2105
  46   2.0000      -0.515809       -14.0359
  47   2.0000      -0.514001       -13.9867
  48   2.0000      -0.506413       -13.7802
  49   2.0000      -0.504007       -13.7147
  50   2.0000      -0.492257       -13.3950
  51   2.0000      -0.480201       -13.0669
  52   2.0000      -0.474893       -12.9225
  53   2.0000      -0.470162       -12.7938
  54   2.0000      -0.463300       -12.6070
  55   2.0000      -0.453245       -12.3334
  56   2.0000      -0.443256       -12.0616
  57   2.0000      -0.436256       -11.8711
  58   2.0000      -0.430771       -11.7219
  59   2.0000      -0.422771       -11.5042
  60   2.0000      -0.417581       -11.3630
  61   2.0000      -0.414839       -11.2884
  62   2.0000      -0.408966       -11.1285
  63   2.0000      -0.338917        -9.2224
  64   2.0000      -0.330110        -8.9827
  65   2.0000      -0.322548        -8.7770
  66   2.0000      -0.307989        -8.3808
  67   0.0000       0.039753         1.0817
  68   0.0000       0.058122         1.5816
  69   0.0000       0.116330         3.1655
  70   0.0000       0.124103         3.3770
  71   0.0000       0.132497         3.6054

MULLIKEN ATOMIC CHARGES
-----------------------
   0 S :    0.103163
   1 C :   -0.113431
   2 C :   -0.085347
   3 C :    0.075810
   4 C :   -0.176816
   5 H :   -0.031286
   6 C :    0.132840
   7 H :    0.003453
   8 H :    0.018468
   9 C :   -0.072959
  10 H :    0.011771
  11 H :    0.018429
  12 C :   -0.040300
  13 H :    0.027212
  14 H :    0.022313
  15 H :    0.042177
  16 S :    0.118780
  17 C :   -0.094804
  18 C :   -0.044708
  19 C :   -0.047833
  20 C :   -0.163753
  21 H :    0.044518
  22 C :    0.061912
  23 H :    0.007466
  24 H :    0.022950
  25 C :   -0.025843
  26 H :    0.001050
  27 H :    0.017394
  28 C :   -0.048028
  29 H :    0.044002
  30 H :    0.036155
  31 H :    0.035426
  32 H :    0.042968
  33 H :    0.056852
Sum of atomic charges:    0.0000000

LOEWDIN ATOMIC CHARGES
----------------------
   0 S :    0.395638
   1 C :   -0.187983
   2 C :   -0.056190
   3 C :   -0.047860
   4 C :   -0.187981
   5 H :    0.015837
   6 C :   -0.012449
   7 H :    0.016163
   8 H :    0.028012
   9 C :   -0.034523
  10 H :    0.018682
  11 H :    0.022749
  12 C :   -0.073224
  13 H :    0.027706
  14 H :    0.024647
  15 H :    0.028796
  16 S :    0.424079
  17 C :   -0.185567
  18 C :   -0.083100
  19 C :   -0.043893
  20 C :   -0.218746
  21 H :    0.043804
  22 C :   -0.028927
  23 H :    0.019471
  24 H :    0.032331
  25 C :   -0.044507
  26 H :    0.013316
  27 H :    0.021655
  28 C :   -0.061605
  29 H :    0.032523
  30 H :    0.026794
  31 H :    0.029601
  32 H :    0.018031
  33 H :    0.026721

  Mayer bond orders larger than 0.100000
B(  0-S ,  1-C ) :   1.1541 B(  0-S ,  4-C ) :   1.1378 B(  1-C ,  2-C ) :   1.5848
B(  1-C , 32-H ) :   0.9789 B(  2-C ,  3-C ) :   1.2156 B(  2-C ,  6-C ) :   1.0358
B(  3-C ,  4-C ) :   1.6020 B(  3-C ,  5-H ) :   1.0072 B(  4-C , 20-C ) :   1.0396
B(  6-C ,  7-H ) :   0.9471 B(  6-C ,  8-H ) :   0.9440 B(  6-C ,  9-C ) :   1.0450
B(  9-C , 10-H ) :   0.9588 B(  9-C , 11-H ) :   0.9571 B(  9-C , 12-C ) :   1.0715
B( 12-C , 13-H ) :   0.9732 B( 12-C , 14-H ) :   0.9714 B( 12-C , 15-H ) :   0.9764
B( 16-S , 17-C ) :   1.1819 B( 16-S , 20-C ) :   1.1282 B( 17-C , 18-C ) :   1.5981
B( 17-C , 33-H ) :   0.9662 B( 18-C , 19-C ) :   1.2409 B( 18-C , 21-H ) :   0.9852
B( 19-C , 20-C ) :   1.6141 B( 19-C , 22-C ) :   1.0374 B( 22-C , 23-H ) :   0.9238
B( 22-C , 24-H ) :   0.9354 B( 22-C , 25-C ) :   1.0716 B( 25-C , 26-H ) :   0.9484
B( 25-C , 27-H ) :   0.9510 B( 25-C , 28-C ) :   1.0870 B( 28-C , 29-H ) :   0.9747
B( 28-C , 30-H ) :   0.9713 B( 28-C , 31-H ) :   0.9711

Dispersion correction           -0.014207619
FINAL SINGLE POINT ENERGY     -1339.868127800012

DIPOLE MOMENT
-------------
                                X             Y             Z
Electronic contribution:    -20.87928     -12.05048     -18.13547
Nuclear contribution   :     21.38704      12.17233      18.34048
                        -----------------------------------------
Total Dipole Moment    :      0.50775       0.12185       0.20501
                        -----------------------------------------
Magnitude (a.u.)       :      0.56097
Magnitude (Debye)      :      1.42588

Rotational constants in cm-1:     0.018072     0.008715     0.006757
Rotational constants in MHz :   541.789431   261.263248   202.580587

                             ****ORCA TERMINATED NORMALLY****
TOTAL RUN TIME: 0 days 0 hours 0 minutes 20 seconds 352 msec
