                         Program Version 4.2.1 -  RELEASE  -
|  1> ! wB97X-D3 SP def2-SVP
|  2> %pal
|  3> nprocs 24
|  4> end
|  5>
|  6> * xyz 0 1
|  7> S 	 -37.3874 	 -10.3778 	 19.5268
|  8> C 	 -37.724 	 -11.4713 	 20.8099
|  9> C 	 -38.1395 	 -12.703 	 20.2589
| 10> C 	 -38.1129 	 -12.7651 	 18.8365
| 11> C 	 -37.8076 	 -11.5472 	 18.2644
| 12> H 	 -38.4584 	 -13.6012 	 18.2528
| 13> C 	 -38.5336 	 -13.8398 	 21.1904
| 14> H 	 -39.5445 	 -14.3105 	 20.8003
| 15> H 	 -38.5779 	 -13.4188 	 22.2448
| 16> C 	 -37.6408 	 -15.091 	 21.3628
| 17> H 	 -38.1141 	 -15.8657 	 21.9919
| 18> H 	 -37.437 	 -15.3696 	 20.3551
| 19> C 	 -36.2592 	 -14.7414 	 22.0286
| 20> H 	 -36.3488 	 -14.1385 	 22.9429
| 21> H 	 -35.5729 	 -15.5661 	 22.2068
| 22> H 	 -35.6429 	 -14.0641 	 21.4795
| 23> S 	 -38.7789 	 -11.817 	 15.6858
| 24> C 	 -37.9505 	 -11.0813 	 14.3755
| 25> C 	 -36.7582 	 -10.615 	 14.8402
| 26> C 	 -36.4306 	 -10.9314 	 16.1519
| 27> C 	 -37.5405 	 -11.413 	 16.8356
| 28> H 	 -36.0998 	 -10.1924 	 14.1433
| 29> C 	 -35.091 	 -10.5397 	 16.7723
| 30> H 	 -34.3024 	 -11.0839 	 16.1732
| 31> H 	 -35.1976 	 -10.8794 	 17.855
| 32> C 	 -34.8182 	 -8.93273 	 16.7873
| 33> H 	 -34.7756 	 -8.59626 	 15.7484
| 34> H 	 -33.8781 	 -8.64203 	 17.1752
| 35> C 	 -35.8301 	 -8.02578 	 17.5289
| 36> H 	 -36.8982 	 -8.12956 	 17.2359
| 37> H 	 -35.5025 	 -6.99297 	 17.506
| 38> H 	 -35.7651 	 -8.35155 	 18.5379
| 39> H 	 -37.636 	 -11.2279 	 21.8178
| 40> H 	 -38.4155 	 -10.9624 	 13.3947
| 41> *
| 42>
| 43>                          ****END OF INPUT****

CARTESIAN COORDINATES (ANGSTROEM)
---------------------------------
  S    -37.387400  -10.377800   19.526800
  C    -37.724000  -11.471300   20.809900
  C    -38.139500  -12.703000   20.258900
  C    -38.112900  -12.765100   18.836500
  C    -37.807600  -11.547200   18.264400
  H    -38.458400  -13.601200   18.252800
  C    -38.533600  -13.839800   21.190400
  H    -39.544500  -14.310500   20.800300
  H    -38.577900  -13.418800   22.244800
  C    -37.640800  -15.091000   21.362800
  H    -38.114100  -15.865700   21.991900
  H    -37.437000  -15.369600   20.355100
  C    -36.259200  -14.741400   22.028600
  H    -36.348800  -14.138500   22.942900
  H    -35.572900  -15.566100   22.206800
  H    -35.642900  -14.064100   21.479500
  S    -38.778900  -11.817000   15.685800
  C    -37.950500  -11.081300   14.375500
  C    -36.758200  -10.615000   14.840200
  C    -36.430600  -10.931400   16.151900
  C    -37.540500  -11.413000   16.835600
  H    -36.099800  -10.192400   14.143300
  C    -35.091000  -10.539700   16.772300
  H    -34.302400  -11.083900   16.173200
  H    -35.197600  -10.879400   17.855000
  C    -34.818200   -8.932730   16.787300
  H    -34.775600   -8.596260   15.748400
  H    -33.878100   -8.642030   17.175200
  C    -35.830100   -8.025780   17.528900
  H    -36.898200   -8.129560   17.235900
  H    -35.502500   -6.992970   17.506000
  H    -35.765100   -8.351550   18.537900
  H    -37.636000  -11.227900   21.817800
  H    -38.415500  -10.962400   13.394700

 Total Charge           Charge          ....    0
 Multiplicity           Mult            ....    1
 Number of Electrons    NEL             ....  134
 Basis Dimension        Dim             ....  322

ORBITAL ENERGIES
----------------

  NO   OCC          E(Eh)            E(eV)
   0   2.0000     -88.972941     -2421.0768
   1   2.0000     -88.962314     -2420.7876
   2   2.0000     -10.333976      -281.2018
   3   2.0000     -10.325502      -280.9712
   4   2.0000     -10.315923      -280.7105
   5   2.0000     -10.313762      -280.6517
   6   2.0000     -10.307000      -280.4677
   7   2.0000     -10.305297      -280.4214
   8   2.0000     -10.304747      -280.4064
   9   2.0000     -10.297936      -280.2211
  10   2.0000     -10.297091      -280.1981
  11   2.0000     -10.290606      -280.0216
  12   2.0000     -10.287144      -279.9274
  13   2.0000     -10.282629      -279.8045
  14   2.0000     -10.273086      -279.5449
  15   2.0000     -10.271007      -279.4883
  16   2.0000      -8.086888      -220.0554
  17   2.0000      -8.078199      -219.8190
  18   2.0000      -6.045466      -164.5055
  19   2.0000      -6.041218      -164.3899
  20   2.0000      -6.037861      -164.2986
  21   2.0000      -6.036551      -164.2629
  22   2.0000      -6.032485      -164.1523
  23   2.0000      -6.029117      -164.0606
  24   2.0000      -1.013580       -27.5809
  25   2.0000      -0.991957       -26.9925
  26   2.0000      -0.905553       -24.6413
  27   2.0000      -0.895871       -24.3779
  28   2.0000      -0.874973       -23.8092
  29   2.0000      -0.849622       -23.1194
  30   2.0000      -0.846716       -23.0403
  31   2.0000      -0.815767       -22.1982
  32   2.0000      -0.778894       -21.1948
  33   2.0000      -0.768945       -20.9240
  34   2.0000      -0.710780       -19.3413
  35   2.0000      -0.701282       -19.0829
  36   2.0000      -0.691311       -18.8115
  37   2.0000      -0.664005       -18.0685
  38   2.0000      -0.643111       -17.4999
  39   2.0000      -0.618319       -16.8253
  40   2.0000      -0.592730       -16.1290
  41   2.0000      -0.570073       -15.5125
  42   2.0000      -0.552309       -15.0291
  43   2.0000      -0.544176       -14.8078
  44   2.0000      -0.542008       -14.7488
  45   2.0000      -0.538937       -14.6652
  46   2.0000      -0.523267       -14.2388
  47   2.0000      -0.516053       -14.0425
  48   2.0000      -0.506786       -13.7904
  49   2.0000      -0.497151       -13.5282
  50   2.0000      -0.485973       -13.2240
  51   2.0000      -0.479422       -13.0457
  52   2.0000      -0.470178       -12.7942
  53   2.0000      -0.462222       -12.5777
  54   2.0000      -0.455121       -12.3845
  55   2.0000      -0.446035       -12.1372
  56   2.0000      -0.440739       -11.9931
  57   2.0000      -0.437165       -11.8959
  58   2.0000      -0.432490       -11.7687
  59   2.0000      -0.420888       -11.4530
  60   2.0000      -0.418156       -11.3786
  61   2.0000      -0.414794       -11.2871
  62   2.0000      -0.403869       -10.9898
  63   2.0000      -0.353659        -9.6236
  64   2.0000      -0.332736        -9.0542
  65   2.0000      -0.326051        -8.8723
  66   2.0000      -0.292965        -7.9720
  67   0.0000       0.027558         0.7499
  68   0.0000       0.067021         1.8237
  69   0.0000       0.107098         2.9143
  70   0.0000       0.116454         3.1689
  71   0.0000       0.135631         3.6907

MULLIKEN ATOMIC CHARGES
-----------------------
   0 S :    0.107484
   1 C :   -0.093159
   2 C :   -0.065572
   3 C :    0.024401
   4 C :   -0.119582
   5 H :    0.022672
   6 C :   -0.016488
   7 H :    0.052534
   8 H :    0.027600
   9 C :   -0.025237
  10 H :    0.049481
  11 H :    0.022396
  12 C :   -0.075625
  13 H :    0.014248
  14 H :    0.035378
  15 H :    0.018958
  16 S :    0.100688
  17 C :   -0.096458
  18 C :   -0.016858
  19 C :   -0.044842
  20 C :   -0.177889
  21 H :   -0.000669
  22 C :    0.033234
  23 H :    0.053619
  24 H :    0.044315
  25 C :   -0.064228
  26 H :    0.020507
  27 H :    0.019947
  28 C :   -0.060224
  29 H :    0.048695
  30 H :    0.035806
  31 H :    0.021856
  32 H :    0.034326
  33 H :    0.068687
Sum of atomic charges:   -0.0000000

LOEWDIN ATOMIC CHARGES
----------------------
   0 S :    0.443435
   1 C :   -0.195893
   2 C :   -0.064850
   3 C :   -0.057250
   4 C :   -0.187766
   5 H :    0.032672
   6 C :   -0.042986
   7 H :    0.043433
   8 H :    0.031690
   9 C :   -0.036111
  10 H :    0.031830
  11 H :    0.019215
  12 C :   -0.079662
  13 H :    0.021776
  14 H :    0.025929
  15 H :    0.021257
  16 S :    0.422556
  17 C :   -0.193689
  18 C :   -0.070243
  19 C :   -0.068444
  20 C :   -0.201354
  21 H :    0.022002
  22 C :   -0.034899
  23 H :    0.042281
  24 H :    0.029759
  25 C :   -0.036325
  26 H :    0.017011
  27 H :    0.018355
  28 C :   -0.071553
  29 H :    0.027419
  30 H :    0.028388
  31 H :    0.008435
  32 H :    0.018171
  33 H :    0.035411

  Mayer bond orders larger than 0.100000
B(  0-S ,  1-C ) :   1.1516 B(  0-S ,  4-C ) :   1.1549 B(  1-C ,  2-C ) :   1.5557
B(  1-C , 32-H ) :   0.9817 B(  2-C ,  3-C ) :   1.2710 B(  2-C ,  6-C ) :   1.0328
B(  3-C ,  4-C ) :   1.5425 B(  3-C ,  5-H ) :   0.9914 B(  4-C , 20-C ) :   1.0258
B(  6-C ,  7-H ) :   0.9400 B(  6-C ,  8-H ) :   0.9460 B(  6-C ,  9-C ) :   1.0618
B(  9-C , 10-H ) :   0.9587 B(  9-C , 11-H ) :   0.9551 B(  9-C , 12-C ) :   1.0631
B( 12-C , 13-H ) :   0.9749 B( 12-C , 14-H ) :   0.9776 B( 12-C , 15-H ) :   0.9744
B( 16-S , 17-C ) :   1.1635 B( 16-S , 20-C ) :   1.1667 B( 17-C , 18-C ) :   1.5757
B( 17-C , 20-C ) :   0.1035 B( 17-C , 33-H ) :   0.9705 B( 18-C , 19-C ) :   1.2629
B( 18-C , 21-H ) :   0.9983 B( 19-C , 20-C ) :   1.5432 B( 19-C , 22-C ) :   1.0405
B( 22-C , 23-H ) :   0.9337 B( 22-C , 24-H ) :   0.9376 B( 22-C , 25-C ) :   1.0484
B( 25-C , 26-H ) :   0.9593 B( 25-C , 27-H ) :   0.9607 B( 25-C , 28-C ) :   1.0719
B( 28-C , 29-H ) :   0.9764 B( 28-C , 30-H ) :   0.9708 B( 28-C , 31-H ) :   0.9708

Dispersion correction           -0.015317669
FINAL SINGLE POINT ENERGY     -1339.864247894892

DIPOLE MOMENT
-------------
                                X             Y             Z
Electronic contribution:    -11.77745       3.33457     -12.20077
Nuclear contribution   :     12.06198      -3.40430      12.26205
                        -----------------------------------------
Total Dipole Moment    :      0.28453      -0.06973       0.06127
                        -----------------------------------------
Magnitude (a.u.)       :      0.29929
Magnitude (Debye)      :      0.76073

Rotational constants in cm-1:     0.021583     0.008481     0.007094
Rotational constants in MHz :   647.036950   254.242114   212.680277

                             ****ORCA TERMINATED NORMALLY****
TOTAL RUN TIME: 0 days 0 hours 0 minutes 20 seconds 898 msec
