                         Program Version 4.2.1 -  RELEASE  -
|  1> ! wB97X-D3 SP def2-SVP
|  2> %pal
|  3> nprocs 24
|  4> end
|  5>
|  6> * xyz 0 1
|  7> S 	 -101.765 	 15.816 	 -123.001
|  8> C 	 -100.887 	 16.859 	 -124.087
|  9> C 	 -100.199 	 16.1535 	 -125.062
| 10> C 	 -100.325 	 14.7244 	 -124.861
| 11> C 	 -101.201 	 14.3624 	 -123.835
| 12> H 	 -99.9425 	 13.8602 	 -125.476
| 13> C 	 -99.4463 	 16.8088 	 -126.2
| 14> H 	 -98.3494 	 16.6286 	 -126.399
| 15> H 	 -99.5697 	 17.8414 	 -126.077
| 16> C 	 -100.093 	 16.5763 	 -127.519
| 17> H 	 -100.201 	 15.5452 	 -127.709
| 18> H 	 -101.114 	 16.9014 	 -127.491
| 19> C 	 -99.3977 	 17.2357 	 -128.626
| 20> H 	 -98.3696 	 16.9839 	 -128.652
| 21> H 	 -99.8286 	 16.861 	 -129.589
| 22> H 	 -99.5568 	 18.3523 	 -128.556
| 23> S 	 -103.294 	 12.5319 	 -123.68
| 24> C 	 -102.838 	 10.8954 	 -123.165
| 25> C 	 -101.616 	 10.9552 	 -122.485
| 26> C 	 -100.779 	 12.069 	 -122.812
| 27> C 	 -101.581 	 13.0093 	 -123.453
| 28> H 	 -101.305 	 10.0082 	 -122.022
| 29> C 	 -99.294 	 12.2932 	 -122.418
| 30> H 	 -98.802 	 12.975 	 -123.111
| 31> H 	 -98.9048 	 11.2883 	 -122.401
| 32> C 	 -99.0857 	 12.7936 	 -120.979
| 33> H 	 -97.9896 	 13.0531 	 -120.826
| 34> H 	 -99.3124 	 11.9724 	 -120.332
| 35> C 	 -99.7764 	 14.0792 	 -120.614
| 36> H 	 -99.4402 	 14.7732 	 -121.332
| 37> H 	 -99.4793 	 14.3763 	 -119.591
| 38> H 	 -100.823 	 14.1379 	 -120.661
| 39> H 	 -100.977 	 17.9382 	 -124.075
| 40> H 	 -103.522 	 10.0834 	 -123.058
| 41> *
| 42>
| 43>                          ****END OF INPUT****

CARTESIAN COORDINATES (ANGSTROEM)
---------------------------------
  S    -101.765000   15.816000  -123.001000
  C    -100.887000   16.859000  -124.087000
  C    -100.199000   16.153500  -125.062000
  C    -100.325000   14.724400  -124.861000
  C    -101.201000   14.362400  -123.835000
  H    -99.942500   13.860200  -125.476000
  C    -99.446300   16.808800  -126.200000
  H    -98.349400   16.628600  -126.399000
  H    -99.569700   17.841400  -126.077000
  C    -100.093000   16.576300  -127.519000
  H    -100.201000   15.545200  -127.709000
  H    -101.114000   16.901400  -127.491000
  C    -99.397700   17.235700  -128.626000
  H    -98.369600   16.983900  -128.652000
  H    -99.828600   16.861000  -129.589000
  H    -99.556800   18.352300  -128.556000
  S    -103.294000   12.531900  -123.680000
  C    -102.838000   10.895400  -123.165000
  C    -101.616000   10.955200  -122.485000
  C    -100.779000   12.069000  -122.812000
  C    -101.581000   13.009300  -123.453000
  H    -101.305000   10.008200  -122.022000
  C    -99.294000   12.293200  -122.418000
  H    -98.802000   12.975000  -123.111000
  H    -98.904800   11.288300  -122.401000
  C    -99.085700   12.793600  -120.979000
  H    -97.989600   13.053100  -120.826000
  H    -99.312400   11.972400  -120.332000
  C    -99.776400   14.079200  -120.614000
  H    -99.440200   14.773200  -121.332000
  H    -99.479300   14.376300  -119.591000
  H    -100.823000   14.137900  -120.661000
  H    -100.977000   17.938200  -124.075000
  H    -103.522000   10.083400  -123.058000

 Total Charge           Charge          ....    0
 Multiplicity           Mult            ....    1
 Number of Electrons    NEL             ....  134
 Basis Dimension        Dim             ....  322

ORBITAL ENERGIES
----------------

  NO   OCC          E(Eh)            E(eV)
   0   2.0000     -88.968012     -2420.9427
   1   2.0000     -88.966623     -2420.9049
   2   2.0000     -10.329246      -281.0731
   3   2.0000     -10.328842      -281.0621
   4   2.0000     -10.321041      -280.8498
   5   2.0000     -10.315886      -280.7095
   6   2.0000     -10.310865      -280.5729
   7   2.0000     -10.306643      -280.4580
   8   2.0000     -10.300618      -280.2941
   9   2.0000     -10.300532      -280.2917
  10   2.0000     -10.295383      -280.1516
  11   2.0000     -10.286761      -279.9170
  12   2.0000     -10.284156      -279.8461
  13   2.0000     -10.276393      -279.6349
  14   2.0000     -10.266764      -279.3729
  15   2.0000     -10.260248      -279.1955
  16   2.0000      -8.081739      -219.9153
  17   2.0000      -8.080803      -219.8898
  18   2.0000      -6.040265      -164.3640
  19   2.0000      -6.039355      -164.3392
  20   2.0000      -6.036666      -164.2660
  21   2.0000      -6.035287      -164.2285
  22   2.0000      -6.032254      -164.1460
  23   2.0000      -6.031642      -164.1293
  24   2.0000      -1.001530       -27.2530
  25   2.0000      -0.979707       -26.6592
  26   2.0000      -0.926180       -25.2026
  27   2.0000      -0.908806       -24.7299
  28   2.0000      -0.869705       -23.6659
  29   2.0000      -0.850500       -23.1433
  30   2.0000      -0.844773       -22.9875
  31   2.0000      -0.811266       -22.0757
  32   2.0000      -0.788344       -21.4519
  33   2.0000      -0.771780       -21.0012
  34   2.0000      -0.705738       -19.2041
  35   2.0000      -0.693371       -18.8676
  36   2.0000      -0.690132       -18.7795
  37   2.0000      -0.654398       -17.8071
  38   2.0000      -0.646889       -17.6027
  39   2.0000      -0.614238       -16.7143
  40   2.0000      -0.594566       -16.1790
  41   2.0000      -0.580735       -15.8026
  42   2.0000      -0.562572       -15.3084
  43   2.0000      -0.558947       -15.2097
  44   2.0000      -0.542369       -14.7586
  45   2.0000      -0.522016       -14.2048
  46   2.0000      -0.514290       -13.9946
  47   2.0000      -0.510649       -13.8955
  48   2.0000      -0.502058       -13.6617
  49   2.0000      -0.496580       -13.5126
  50   2.0000      -0.494759       -13.4631
  51   2.0000      -0.475633       -12.9426
  52   2.0000      -0.473011       -12.8713
  53   2.0000      -0.461754       -12.5650
  54   2.0000      -0.458405       -12.4738
  55   2.0000      -0.447777       -12.1846
  56   2.0000      -0.441868       -12.0238
  57   2.0000      -0.434086       -11.8121
  58   2.0000      -0.428754       -11.6670
  59   2.0000      -0.424190       -11.5428
  60   2.0000      -0.422146       -11.4872
  61   2.0000      -0.415159       -11.2970
  62   2.0000      -0.413036       -11.2393
  63   2.0000      -0.337825        -9.1927
  64   2.0000      -0.332225        -9.0403
  65   2.0000      -0.327396        -8.9089
  66   2.0000      -0.298000        -8.1090
  67   0.0000       0.032847         0.8938
  68   0.0000       0.054028         1.4702
  69   0.0000       0.106410         2.8956
  70   0.0000       0.117641         3.2012
  71   0.0000       0.123837         3.3698

MULLIKEN ATOMIC CHARGES
-----------------------
   0 S :    0.109631
   1 C :   -0.119620
   2 C :   -0.072414
   3 C :    0.028951
   4 C :   -0.191991
   5 H :    0.039658
   6 C :    0.092691
   7 H :    0.037503
   8 H :   -0.012284
   9 C :   -0.075380
  10 H :    0.010065
  11 H :    0.013329
  12 C :   -0.032472
  13 H :    0.019177
  14 H :    0.035198
  15 H :    0.038288
  16 S :    0.109008
  17 C :   -0.090349
  18 C :   -0.048768
  19 C :   -0.040897
  20 C :   -0.184169
  21 H :    0.027291
  22 C :    0.126259
  23 H :    0.031343
  24 H :    0.020653
  25 C :   -0.095439
  26 H :    0.039017
  27 H :    0.019637
  28 C :   -0.012352
  29 H :    0.020318
  30 H :    0.031156
  31 H :    0.021676
  32 H :    0.050708
  33 H :    0.054581
Sum of atomic charges:    0.0000000

LOEWDIN ATOMIC CHARGES
----------------------
   0 S :    0.408662
   1 C :   -0.198090
   2 C :   -0.059331
   3 C :   -0.068867
   4 C :   -0.194926
   5 H :    0.042797
   6 C :   -0.031860
   7 H :    0.036872
   8 H :    0.021031
   9 C :   -0.047974
  10 H :    0.014594
  11 H :    0.022833
  12 C :   -0.061194
  13 H :    0.016492
  14 H :    0.033772
  15 H :    0.031273
  16 S :    0.378997
  17 C :   -0.172592
  18 C :   -0.069538
  19 C :   -0.045606
  20 C :   -0.190469
  21 H :    0.030866
  22 C :   -0.022185
  23 H :    0.032406
  24 H :    0.032608
  25 C :   -0.039236
  26 H :    0.034880
  27 H :    0.014898
  28 C :   -0.063189
  29 H :    0.018960
  30 H :    0.030388
  31 H :    0.010115
  32 H :    0.028739
  33 H :    0.023878

  Mayer bond orders larger than 0.100000
B(  0-S ,  1-C ) :   1.1387 B(  0-S ,  4-C ) :   1.1450 B(  1-C ,  2-C ) :   1.6207
B(  1-C , 32-H ) :   0.9638 B(  2-C ,  3-C ) :   1.2131 B(  2-C ,  6-C ) :   1.0308
B(  3-C ,  4-C ) :   1.6051 B(  3-C ,  5-H ) :   0.9797 B(  4-C , 20-C ) :   1.0407
B(  6-C ,  7-H ) :   0.9431 B(  6-C ,  8-H ) :   0.9301 B(  6-C ,  9-C ) :   1.0633
B(  9-C , 10-H ) :   0.9518 B(  9-C , 11-H ) :   0.9429 B(  9-C , 12-C ) :   1.1037
B( 12-C , 13-H ) :   0.9684 B( 12-C , 14-H ) :   0.9687 B( 12-C , 15-H ) :   0.9725
B( 16-S , 17-C ) :   1.1363 B( 16-S , 20-C ) :   1.1379 B( 17-C , 18-C ) :   1.6446
B( 17-C , 20-C ) :   0.1074 B( 17-C , 33-H ) :   0.9687 B( 18-C , 19-C ) :   1.2195
B( 18-C , 21-H ) :   0.9717 B( 19-C , 20-C ) :   1.5951 B( 19-C , 22-C ) :   1.0342
B( 22-C , 23-H ) :   0.9291 B( 22-C , 24-H ) :   0.9249 B( 22-C , 25-C ) :   1.0873
B( 25-C , 26-H ) :   0.9547 B( 25-C , 27-H ) :   0.9554 B( 25-C , 28-C ) :   1.0782
B( 28-C , 29-H ) :   0.9703 B( 28-C , 30-H ) :   0.9706 B( 28-C , 31-H ) :   0.9733

Dispersion correction           -0.015268405
FINAL SINGLE POINT ENERGY     -1339.864384104899

DIPOLE MOMENT
-------------
                                X             Y             Z
Electronic contribution:    -18.09290      -7.16719       7.32355
Nuclear contribution   :     18.49618       7.04772      -7.45023
                        -----------------------------------------
Total Dipole Moment    :      0.40328      -0.11947      -0.12668
                        -----------------------------------------
Magnitude (a.u.)       :      0.43926
Magnitude (Debye)      :      1.11652

Rotational constants in cm-1:     0.021007     0.008092     0.007313
Rotational constants in MHz :   629.769058   242.603082   219.230388

                             ****ORCA TERMINATED NORMALLY****
TOTAL RUN TIME: 0 days 0 hours 0 minutes 20 seconds 973 msec
