                         Program Version 4.2.1 -  RELEASE  -
|  1> ! wB97X-D3 SP def2-SVP
|  2> %pal
|  3> nprocs 24
|  4> end
|  5>
|  6> * xyz 0 1
|  7> S 	 -43.9561 	 -5.41489 	 20.1098
|  8> C 	 -45.6406 	 -5.15832 	 19.7458
|  9> C 	 -46.3102 	 -4.54015 	 20.7872
| 10> C 	 -45.3641 	 -4.24542 	 21.8631
| 11> C 	 -44.0675 	 -4.56916 	 21.6117
| 12> H 	 -45.5976 	 -3.75523 	 22.806
| 13> C 	 -47.799 	 -4.17036 	 20.7933
| 14> H 	 -48.1167 	 -4.18603 	 21.8183
| 15> H 	 -48.3926 	 -4.97433 	 20.3894
| 16> C 	 -48.0969 	 -2.78615 	 20.1445
| 17> H 	 -47.5272 	 -1.98515 	 20.6044
| 18> H 	 -47.6672 	 -2.65029 	 19.1853
| 19> C 	 -49.6022 	 -2.40072 	 20.0094
| 20> H 	 -50.3666 	 -2.63067 	 20.8498
| 21> H 	 -49.692 	 -1.3013 	 19.8897
| 22> H 	 -49.956 	 -2.68702 	 19.0201
| 23> S 	 -41.7339 	 -5.35644 	 22.7544
| 24> C 	 -40.7494 	 -4.22584 	 23.7145
| 25> C 	 -41.229 	 -2.97687 	 23.6207
| 26> C 	 -42.5106 	 -2.92128 	 22.9459
| 27> C 	 -42.8761 	 -4.06997 	 22.2979
| 28> H 	 -40.6731 	 -2.08308 	 23.8759
| 29> C 	 -43.2658 	 -1.56318 	 22.7425
| 30> H 	 -43.1841 	 -0.927093 	 23.6018
| 31> H 	 -44.3266 	 -1.85203 	 22.5942
| 32> C 	 -42.8112 	 -0.897314 	 21.441
| 33> H 	 -42.9153 	 -1.63214 	 20.5921
| 34> H 	 -41.7287 	 -0.776244 	 21.4449
| 35> C 	 -43.3658 	 0.489221 	 21.0787
| 36> H 	 -43.0984 	 1.21205 	 21.8177
| 37> H 	 -44.4724 	 0.586329 	 20.9876
| 38> H 	 -43.0165 	 0.861029 	 20.1532
| 39> H 	 -46.1576 	 -5.53092 	 18.8934
| 40> H 	 -39.7796 	 -4.33523 	 24.1105
| 41> *
| 42>
| 43>                          ****END OF INPUT****

CARTESIAN COORDINATES (ANGSTROEM)
---------------------------------
  S    -43.956100   -5.414890   20.109800
  C    -45.640600   -5.158320   19.745800
  C    -46.310200   -4.540150   20.787200
  C    -45.364100   -4.245420   21.863100
  C    -44.067500   -4.569160   21.611700
  H    -45.597600   -3.755230   22.806000
  C    -47.799000   -4.170360   20.793300
  H    -48.116700   -4.186030   21.818300
  H    -48.392600   -4.974330   20.389400
  C    -48.096900   -2.786150   20.144500
  H    -47.527200   -1.985150   20.604400
  H    -47.667200   -2.650290   19.185300
  C    -49.602200   -2.400720   20.009400
  H    -50.366600   -2.630670   20.849800
  H    -49.692000   -1.301300   19.889700
  H    -49.956000   -2.687020   19.020100
  S    -41.733900   -5.356440   22.754400
  C    -40.749400   -4.225840   23.714500
  C    -41.229000   -2.976870   23.620700
  C    -42.510600   -2.921280   22.945900
  C    -42.876100   -4.069970   22.297900
  H    -40.673100   -2.083080   23.875900
  C    -43.265800   -1.563180   22.742500
  H    -43.184100   -0.927093   23.601800
  H    -44.326600   -1.852030   22.594200
  C    -42.811200   -0.897314   21.441000
  H    -42.915300   -1.632140   20.592100
  H    -41.728700   -0.776244   21.444900
  C    -43.365800    0.489221   21.078700
  H    -43.098400    1.212050   21.817700
  H    -44.472400    0.586329   20.987600
  H    -43.016500    0.861029   20.153200
  H    -46.157600   -5.530920   18.893400
  H    -39.779600   -4.335230   24.110500

 Total Charge           Charge          ....    0
 Multiplicity           Mult            ....    1
 Number of Electrons    NEL             ....  134
 Basis Dimension        Dim             ....  322

ORBITAL ENERGIES
----------------

  NO   OCC          E(Eh)            E(eV)
   0   2.0000     -88.966043     -2420.8891
   1   2.0000     -88.960929     -2420.7499
   2   2.0000     -10.329947      -281.0922
   3   2.0000     -10.327725      -281.0317
   4   2.0000     -10.314378      -280.6685
   5   2.0000     -10.314108      -280.6612
   6   2.0000     -10.307554      -280.4828
   7   2.0000     -10.306891      -280.4648
   8   2.0000     -10.296932      -280.1938
   9   2.0000     -10.296343      -280.1777
  10   2.0000     -10.293824      -280.1092
  11   2.0000     -10.293007      -280.0870
  12   2.0000     -10.290260      -280.0122
  13   2.0000     -10.290171      -280.0098
  14   2.0000     -10.287498      -279.9371
  15   2.0000     -10.274255      -279.5767
  16   2.0000      -8.081490      -219.9085
  17   2.0000      -8.075173      -219.7366
  18   2.0000      -6.040044      -164.3580
  19   2.0000      -6.035863      -164.2442
  20   2.0000      -6.033978      -164.1929
  21   2.0000      -6.032175      -164.1438
  22   2.0000      -6.029773      -164.0785
  23   2.0000      -6.025595      -163.9648
  24   2.0000      -1.009162       -27.4607
  25   2.0000      -0.984749       -26.7964
  26   2.0000      -0.907661       -24.6987
  27   2.0000      -0.902279       -24.5523
  28   2.0000      -0.873424       -23.7671
  29   2.0000      -0.848225       -23.0814
  30   2.0000      -0.840813       -22.8797
  31   2.0000      -0.821673       -22.3589
  32   2.0000      -0.783598       -21.3228
  33   2.0000      -0.774887       -21.0857
  34   2.0000      -0.710921       -19.3452
  35   2.0000      -0.705909       -19.2088
  36   2.0000      -0.693751       -18.8779
  37   2.0000      -0.666036       -18.1238
  38   2.0000      -0.647632       -17.6230
  39   2.0000      -0.618104       -16.8195
  40   2.0000      -0.591400       -16.0928
  41   2.0000      -0.571085       -15.5400
  42   2.0000      -0.558441       -15.1960
  43   2.0000      -0.550701       -14.9853
  44   2.0000      -0.525265       -14.2932
  45   2.0000      -0.523717       -14.2511
  46   2.0000      -0.517861       -14.0917
  47   2.0000      -0.510732       -13.8977
  48   2.0000      -0.505101       -13.7445
  49   2.0000      -0.504004       -13.7146
  50   2.0000      -0.493762       -13.4359
  51   2.0000      -0.489466       -13.3190
  52   2.0000      -0.469530       -12.7766
  53   2.0000      -0.465286       -12.6611
  54   2.0000      -0.458204       -12.4684
  55   2.0000      -0.449844       -12.2409
  56   2.0000      -0.445990       -12.1360
  57   2.0000      -0.437686       -11.9101
  58   2.0000      -0.435536       -11.8515
  59   2.0000      -0.426299       -11.6002
  60   2.0000      -0.413905       -11.2629
  61   2.0000      -0.411300       -11.1920
  62   2.0000      -0.407683       -11.0936
  63   2.0000      -0.353143        -9.6095
  64   2.0000      -0.331742        -9.0272
  65   2.0000      -0.326978        -8.8975
  66   2.0000      -0.299537        -8.1508
  67   0.0000       0.030012         0.8167
  68   0.0000       0.071436         1.9439
  69   0.0000       0.109783         2.9873
  70   0.0000       0.119498         3.2517
  71   0.0000       0.128881         3.5070

MULLIKEN ATOMIC CHARGES
-----------------------
   0 S :    0.113311
   1 C :   -0.101398
   2 C :   -0.121144
   3 C :    0.006335
   4 C :   -0.116653
   5 H :    0.021400
   6 C :    0.111741
   7 H :    0.015985
   8 H :    0.023393
   9 C :   -0.045025
  10 H :    0.018983
  11 H :    0.012133
  12 C :   -0.080359
  13 H :    0.055538
  14 H :    0.025405
  15 H :    0.031822
  16 S :    0.072836
  17 C :   -0.039873
  18 C :   -0.037197
  19 C :   -0.095090
  20 C :   -0.119629
  21 H :    0.026389
  22 C :    0.085452
  23 H :    0.019587
  24 H :    0.019729
  25 C :   -0.088967
  26 H :    0.036663
  27 H :    0.015555
  28 C :   -0.011791
  29 H :    0.019505
  30 H :    0.025155
  31 H :    0.021893
  32 H :    0.038409
  33 H :    0.039908
Sum of atomic charges:   -0.0000000

LOEWDIN ATOMIC CHARGES
----------------------
   0 S :    0.416001
   1 C :   -0.189746
   2 C :   -0.059222
   3 C :   -0.062065
   4 C :   -0.209286
   5 H :    0.031674
   6 C :   -0.026501
   7 H :    0.029963
   8 H :    0.030131
   9 C :   -0.042529
  10 H :    0.025212
  11 H :    0.023372
  12 C :   -0.083179
  13 H :    0.037017
  14 H :    0.030223
  15 H :    0.024999
  16 S :    0.371581
  17 C :   -0.164995
  18 C :   -0.069609
  19 C :   -0.051643
  20 C :   -0.183119
  21 H :    0.034299
  22 C :   -0.027395
  23 H :    0.023079
  24 H :    0.031099
  25 C :   -0.047069
  26 H :    0.032359
  27 H :    0.021739
  28 C :   -0.065870
  29 H :    0.020736
  30 H :    0.025929
  31 H :    0.022669
  32 H :    0.024426
  33 H :    0.025717

  Mayer bond orders larger than 0.100000
B(  0-S ,  1-C ) :   1.1430 B(  0-S ,  4-C ) :   1.1424 B(  1-C ,  2-C ) :   1.6218
B(  1-C , 32-H ) :   0.9723 B(  2-C ,  3-C ) :   1.2269 B(  2-C ,  6-C ) :   1.0252
B(  3-C ,  4-C ) :   1.6076 B(  3-C ,  5-H ) :   0.9909 B(  4-C , 20-C ) :   0.9856
B(  6-C ,  7-H ) :   0.9363 B(  6-C ,  8-H ) :   0.9432 B(  6-C ,  9-C ) :   1.0488
B(  9-C , 10-H ) :   0.9577 B(  9-C , 11-H ) :   0.9538 B(  9-C , 12-C ) :   1.0711
B( 12-C , 13-H ) :   0.9768 B( 12-C , 14-H ) :   0.9719 B( 12-C , 15-H ) :   0.9778
B( 16-S , 17-C ) :   1.1292 B( 16-S , 20-C ) :   1.1065 B( 17-C , 18-C ) :   1.6680
B( 17-C , 33-H ) :   0.9624 B( 18-C , 19-C ) :   1.2013 B( 18-C , 21-H ) :   0.9827
B( 19-C , 20-C ) :   1.6721 B( 19-C , 22-C ) :   1.0417 B( 22-C , 23-H ) :   0.9384
B( 22-C , 24-H ) :   0.9331 B( 22-C , 25-C ) :   1.0621 B( 25-C , 26-H ) :   0.9547
B( 25-C , 27-H ) :   0.9535 B( 25-C , 28-C ) :   1.0787 B( 28-C , 29-H ) :   0.9727
B( 28-C , 30-H ) :   0.9750 B( 28-C , 31-H ) :   0.9723

Dispersion correction           -0.014175943
FINAL SINGLE POINT ENERGY     -1339.869622874277

DIPOLE MOMENT
-------------
                                X             Y             Z
Electronic contribution:     19.94262     -24.69892       4.90362
Nuclear contribution   :    -20.30996      25.42489      -4.95342
                        -----------------------------------------
Total Dipole Moment    :     -0.36734       0.72597      -0.04980
                        -----------------------------------------
Magnitude (a.u.)       :      0.81514
Magnitude (Debye)      :      2.07192

Rotational constants in cm-1:     0.018660     0.008615     0.006601
Rotational constants in MHz :   559.404567   258.285335   197.888823

                             ****ORCA TERMINATED NORMALLY****
TOTAL RUN TIME: 0 days 0 hours 0 minutes 21 seconds 530 msec
