                         Program Version 4.2.1 -  RELEASE  -
|  1> ! wB97X-D3 SP def2-SVP
|  2> %pal
|  3> nprocs 24
|  4> end
|  5>
|  6> * xyz 0 1
|  7> S 	 -116.868 	 60.185 	 -33.0321
|  8> C 	 -116.809 	 59.7508 	 -31.2626
|  9> C 	 -117.861 	 60.3861 	 -30.5496
| 10> C 	 -118.528 	 61.3231 	 -31.449
| 11> C 	 -118.192 	 61.2406 	 -32.8018
| 12> H 	 -119.349 	 61.8308 	 -31.1456
| 13> C 	 -118.172 	 60.2826 	 -29.0155
| 14> H 	 -117.893 	 61.212 	 -28.4726
| 15> H 	 -117.537 	 59.621 	 -28.4594
| 16> C 	 -119.682 	 60.0632 	 -28.5918
| 17> H 	 -119.97 	 60.4473 	 -27.6223
| 18> H 	 -120.397 	 60.5498 	 -29.2455
| 19> C 	 -120.089 	 58.6285 	 -28.6141
| 20> H 	 -121.151 	 58.5314 	 -28.8139
| 21> H 	 -119.585 	 58.1495 	 -29.4312
| 22> H 	 -119.89 	 58.0998 	 -27.6742
| 23> S 	 -117.94 	 62.4464 	 -35.2709
| 24> C 	 -119.282 	 63.1458 	 -36.0757
| 25> C 	 -120.452 	 62.8996 	 -35.4182
| 26> C 	 -120.236 	 62.2381 	 -34.1388
| 27> C 	 -118.87 	 61.9458 	 -33.8939
| 28> H 	 -121.347 	 63.167 	 -35.8243
| 29> C 	 -121.394 	 61.9821 	 -33.274
| 30> H 	 -121.048 	 61.2075 	 -32.5363
| 31> H 	 -122.201 	 61.4981 	 -33.822
| 32> C 	 -121.916 	 63.1765 	 -32.4245
| 33> H 	 -122.406 	 63.9205 	 -33.0957
| 34> H 	 -120.96 	 63.6081 	 -32.1323
| 35> C 	 -122.737 	 62.6267 	 -31.2177
| 36> H 	 -122.12 	 61.9373 	 -30.7294
| 37> H 	 -123.655 	 62.168 	 -31.4651
| 38> H 	 -122.959 	 63.3414 	 -30.4524
| 39> H 	 -116.144 	 59.0262 	 -30.861
| 40> H 	 -119.207 	 63.5459 	 -37.0681
| 41> *
| 42>
| 43>                          ****END OF INPUT****

CARTESIAN COORDINATES (ANGSTROEM)
---------------------------------
  S    -116.868000   60.185000  -33.032100
  C    -116.809000   59.750800  -31.262600
  C    -117.861000   60.386100  -30.549600
  C    -118.528000   61.323100  -31.449000
  C    -118.192000   61.240600  -32.801800
  H    -119.349000   61.830800  -31.145600
  C    -118.172000   60.282600  -29.015500
  H    -117.893000   61.212000  -28.472600
  H    -117.537000   59.621000  -28.459400
  C    -119.682000   60.063200  -28.591800
  H    -119.970000   60.447300  -27.622300
  H    -120.397000   60.549800  -29.245500
  C    -120.089000   58.628500  -28.614100
  H    -121.151000   58.531400  -28.813900
  H    -119.585000   58.149500  -29.431200
  H    -119.890000   58.099800  -27.674200
  S    -117.940000   62.446400  -35.270900
  C    -119.282000   63.145800  -36.075700
  C    -120.452000   62.899600  -35.418200
  C    -120.236000   62.238100  -34.138800
  C    -118.870000   61.945800  -33.893900
  H    -121.347000   63.167000  -35.824300
  C    -121.394000   61.982100  -33.274000
  H    -121.048000   61.207500  -32.536300
  H    -122.201000   61.498100  -33.822000
  C    -121.916000   63.176500  -32.424500
  H    -122.406000   63.920500  -33.095700
  H    -120.960000   63.608100  -32.132300
  C    -122.737000   62.626700  -31.217700
  H    -122.120000   61.937300  -30.729400
  H    -123.655000   62.168000  -31.465100
  H    -122.959000   63.341400  -30.452400
  H    -116.144000   59.026200  -30.861000
  H    -119.207000   63.545900  -37.068100

 Total Charge           Charge          ....    0
 Multiplicity           Mult            ....    1
 Number of Electrons    NEL             ....  134
 Basis Dimension        Dim             ....  322

ORBITAL ENERGIES
----------------

  NO   OCC          E(Eh)            E(eV)
   0   2.0000     -88.970710     -2421.0161
   1   2.0000     -88.964744     -2420.8537
   2   2.0000     -10.334768      -281.2233
   3   2.0000     -10.332531      -281.1625
   4   2.0000     -10.324867      -280.9539
   5   2.0000     -10.319698      -280.8133
   6   2.0000     -10.314562      -280.6735
   7   2.0000     -10.306967      -280.4668
   8   2.0000     -10.306148      -280.4446
   9   2.0000     -10.293910      -280.1115
  10   2.0000     -10.290947      -280.0309
  11   2.0000     -10.288719      -279.9703
  12   2.0000     -10.288281      -279.9583
  13   2.0000     -10.287483      -279.9367
  14   2.0000     -10.274889      -279.5939
  15   2.0000     -10.269072      -279.4357
  16   2.0000      -8.084917      -220.0018
  17   2.0000      -8.080653      -219.8858
  18   2.0000      -6.043492      -164.4518
  19   2.0000      -6.039500      -164.3431
  20   2.0000      -6.039142      -164.3334
  21   2.0000      -6.035620      -164.2376
  22   2.0000      -6.034881      -164.2175
  23   2.0000      -6.031488      -164.1251
  24   2.0000      -1.008247       -27.4358
  25   2.0000      -0.981496       -26.7079
  26   2.0000      -0.912564       -24.8321
  27   2.0000      -0.909264       -24.7423
  28   2.0000      -0.872122       -23.7317
  29   2.0000      -0.853345       -23.2207
  30   2.0000      -0.845764       -23.0144
  31   2.0000      -0.816536       -22.2191
  32   2.0000      -0.786475       -21.4011
  33   2.0000      -0.775129       -21.0923
  34   2.0000      -0.713086       -19.4041
  35   2.0000      -0.700636       -19.0653
  36   2.0000      -0.694718       -18.9042
  37   2.0000      -0.667849       -18.1731
  38   2.0000      -0.644387       -17.5347
  39   2.0000      -0.628907       -17.1134
  40   2.0000      -0.599762       -16.3204
  41   2.0000      -0.574970       -15.6457
  42   2.0000      -0.567314       -15.4374
  43   2.0000      -0.554405       -15.0861
  44   2.0000      -0.537759       -14.6332
  45   2.0000      -0.522397       -14.2151
  46   2.0000      -0.517873       -14.0921
  47   2.0000      -0.516867       -14.0647
  48   2.0000      -0.509858       -13.8739
  49   2.0000      -0.504150       -13.7186
  50   2.0000      -0.494576       -13.4581
  51   2.0000      -0.479933       -13.0596
  52   2.0000      -0.471458       -12.8290
  53   2.0000      -0.465977       -12.6799
  54   2.0000      -0.464977       -12.6527
  55   2.0000      -0.452227       -12.3057
  56   2.0000      -0.444644       -12.0994
  57   2.0000      -0.432015       -11.7557
  58   2.0000      -0.430236       -11.7073
  59   2.0000      -0.429376       -11.6839
  60   2.0000      -0.423422       -11.5219
  61   2.0000      -0.419553       -11.4166
  62   2.0000      -0.417037       -11.3481
  63   2.0000      -0.354966        -9.6591
  64   2.0000      -0.332000        -9.0342
  65   2.0000      -0.328054        -8.9268
  66   2.0000      -0.289609        -7.8807
  67   0.0000       0.023642         0.6433
  68   0.0000       0.076846         2.0911
  69   0.0000       0.098460         2.6792
  70   0.0000       0.115695         3.1482
  71   0.0000       0.122522         3.3340

MULLIKEN ATOMIC CHARGES
-----------------------
   0 S :    0.107264
   1 C :   -0.116735
   2 C :   -0.067091
   3 C :    0.069895
   4 C :   -0.113061
   5 H :   -0.054975
   6 C :    0.053963
   7 H :    0.042830
   8 H :    0.014280
   9 C :   -0.073568
  10 H :    0.021024
  11 H :    0.021276
  12 C :   -0.048924
  13 H :    0.023185
  14 H :    0.028271
  15 H :    0.033832
  16 S :    0.099512
  17 C :   -0.076215
  18 C :    0.016696
  19 C :   -0.054852
  20 C :   -0.129287
  21 H :   -0.020496
  22 C :    0.008460
  23 H :    0.016271
  24 H :    0.028642
  25 C :   -0.069993
  26 H :    0.038017
  27 H :    0.031346
  28 C :    0.016043
  29 H :    0.000506
  30 H :    0.027127
  31 H :    0.026301
  32 H :    0.043556
  33 H :    0.056899
Sum of atomic charges:    0.0000000

LOEWDIN ATOMIC CHARGES
----------------------
   0 S :    0.399232
   1 C :   -0.174507
   2 C :   -0.047006
   3 C :   -0.058378
   4 C :   -0.198024
   5 H :    0.003907
   6 C :   -0.032333
   7 H :    0.041995
   8 H :    0.027053
   9 C :   -0.044525
  10 H :    0.023968
  11 H :    0.022051
  12 C :   -0.066146
  13 H :    0.024664
  14 H :    0.023330
  15 H :    0.023779
  16 S :    0.423156
  17 C :   -0.186041
  18 C :   -0.057108
  19 C :   -0.051465
  20 C :   -0.204585
  21 H :    0.015496
  22 C :   -0.044846
  23 H :    0.031055
  24 H :    0.028702
  25 C :   -0.033901
  26 H :    0.025867
  27 H :    0.023901
  28 C :   -0.054442
  29 H :    0.016994
  30 H :    0.022845
  31 H :    0.025967
  32 H :    0.020971
  33 H :    0.028373

  Mayer bond orders larger than 0.100000
B(  0-S ,  1-C ) :   1.1268 B(  0-S ,  4-C ) :   1.1544 B(  1-C ,  2-C ) :   1.6011
B(  1-C , 32-H ) :   0.9731 B(  2-C ,  3-C ) :   1.2392 B(  2-C ,  6-C ) :   1.0195
B(  3-C ,  4-C ) :   1.5580 B(  3-C ,  5-H ) :   0.9991 B(  4-C , 20-C ) :   1.0583
B(  6-C ,  7-H ) :   0.9441 B(  6-C ,  8-H ) :   0.9517 B(  6-C ,  9-C ) :   1.0507
B(  9-C , 10-H ) :   0.9551 B(  9-C , 11-H ) :   0.9642 B(  9-C , 12-C ) :   1.0811
B( 12-C , 13-H ) :   0.9745 B( 12-C , 14-H ) :   0.9770 B( 12-C , 15-H ) :   0.9765
B( 16-S , 17-C ) :   1.1696 B( 16-S , 20-C ) :   1.1421 B( 17-C , 18-C ) :   1.5899
B( 17-C , 33-H ) :   0.9680 B( 18-C , 19-C ) :   1.2415 B( 18-C , 21-H ) :   1.0108
B( 19-C , 20-C ) :   1.5493 B( 19-C , 22-C ) :   1.0789 B( 22-C , 23-H ) :   0.9311
B( 22-C , 24-H ) :   0.9276 B( 22-C , 25-C ) :   1.0413 B( 25-C , 26-H ) :   0.9564
B( 25-C , 27-H ) :   0.9557 B( 25-C , 28-C ) :   1.0731 B( 28-C , 29-H ) :   0.9743
B( 28-C , 30-H ) :   0.9733 B( 28-C , 31-H ) :   0.9712

Dispersion correction           -0.014801252
FINAL SINGLE POINT ENERGY     -1339.863827141679

DIPOLE MOMENT
-------------
                                X             Y             Z
Electronic contribution:     22.19646       2.62435     -24.50867
Nuclear contribution   :    -22.80842      -2.60996      24.90955
                        -----------------------------------------
Total Dipole Moment    :     -0.61196       0.01439       0.40088
                        -----------------------------------------
Magnitude (a.u.)       :      0.73171
Magnitude (Debye)      :      1.85986

Rotational constants in cm-1:     0.017591     0.009979     0.006713
Rotational constants in MHz :   527.357997   299.148187   201.239702

                             ****ORCA TERMINATED NORMALLY****
TOTAL RUN TIME: 0 days 0 hours 0 minutes 22 seconds 194 msec
