                         Program Version 4.2.1 -  RELEASE  -
|  1> ! wB97X-D3 SP def2-SVP
|  2> %pal
|  3> nprocs 24
|  4> end
|  5>
|  6> * xyz 0 1
|  7> S 	 -76.4916 	 0.510458 	 9.48825
|  8> C 	 -77.0649 	 -0.542352 	 10.8092
|  9> C 	 -78.4575 	 -0.782357 	 10.6348
| 10> C 	 -78.9482 	 -0.193748 	 9.4342
| 11> C 	 -78.1092 	 0.51721 	 8.70161
| 12> H 	 -79.8713 	 -0.425798 	 9.01902
| 13> C 	 -79.3504 	 -1.57713 	 11.6055
| 14> H 	 -78.8864 	 -2.35033 	 12.1142
| 15> H 	 -80.141 	 -1.91445 	 11.132
| 16> C 	 -79.9854 	 -0.852933 	 12.7653
| 17> H 	 -80.7141 	 -1.66058 	 13.1605
| 18> H 	 -79.225 	 -0.738671 	 13.507
| 19> C 	 -80.719 	 0.441669 	 12.2683
| 20> H 	 -80.1336 	 1.07539 	 11.6224
| 21> H 	 -81.5922 	 0.162734 	 11.6705
| 22> H 	 -80.9514 	 1.05772 	 13.2118
| 23> S 	 -78.7634 	 2.91583 	 7.39204
| 24> C 	 -78.9319 	 2.82693 	 5.66325
| 25> C 	 -78.8714 	 1.52994 	 5.18692
| 26> C 	 -78.6564 	 0.546413 	 6.1835
| 27> C 	 -78.5079 	 1.11898 	 7.44607
| 28> H 	 -78.9028 	 1.29114 	 4.16152
| 29> C 	 -78.6104 	 -0.908778 	 5.90291
| 30> H 	 -79.5145 	 -1.22855 	 5.32695
| 31> H 	 -78.6758 	 -1.41068 	 6.83047
| 32> C 	 -77.2786 	 -1.3971 	 5.27386
| 33> H 	 -77.0211 	 -0.789296 	 4.38457
| 34> H 	 -77.4252 	 -2.43188 	 4.90184
| 35> C 	 -76.0876 	 -1.51708 	 6.24342
| 36> H 	 -75.8049 	 -0.563503 	 6.65379
| 37> H 	 -75.3261 	 -2.05549 	 5.71988
| 38> H 	 -76.5212 	 -2.24974 	 6.97895
| 39> H 	 -76.4364 	 -0.802297 	 11.6704
| 40> H 	 -79.1392 	 3.6006 	 5.04213
| 41> *
| 42>
| 43>                          ****END OF INPUT****

CARTESIAN COORDINATES (ANGSTROEM)
---------------------------------
  S    -76.491600    0.510458    9.488250
  C    -77.064900   -0.542352   10.809200
  C    -78.457500   -0.782357   10.634800
  C    -78.948200   -0.193748    9.434200
  C    -78.109200    0.517210    8.701610
  H    -79.871300   -0.425798    9.019020
  C    -79.350400   -1.577130   11.605500
  H    -78.886400   -2.350330   12.114200
  H    -80.141000   -1.914450   11.132000
  C    -79.985400   -0.852933   12.765300
  H    -80.714100   -1.660580   13.160500
  H    -79.225000   -0.738671   13.507000
  C    -80.719000    0.441669   12.268300
  H    -80.133600    1.075390   11.622400
  H    -81.592200    0.162734   11.670500
  H    -80.951400    1.057720   13.211800
  S    -78.763400    2.915830    7.392040
  C    -78.931900    2.826930    5.663250
  C    -78.871400    1.529940    5.186920
  C    -78.656400    0.546413    6.183500
  C    -78.507900    1.118980    7.446070
  H    -78.902800    1.291140    4.161520
  C    -78.610400   -0.908778    5.902910
  H    -79.514500   -1.228550    5.326950
  H    -78.675800   -1.410680    6.830470
  C    -77.278600   -1.397100    5.273860
  H    -77.021100   -0.789296    4.384570
  H    -77.425200   -2.431880    4.901840
  C    -76.087600   -1.517080    6.243420
  H    -75.804900   -0.563503    6.653790
  H    -75.326100   -2.055490    5.719880
  H    -76.521200   -2.249740    6.978950
  H    -76.436400   -0.802297   11.670400
  H    -79.139200    3.600600    5.042130

 Total Charge           Charge          ....    0
 Multiplicity           Mult            ....    1
 Number of Electrons    NEL             ....  134
 Basis Dimension        Dim             ....  322

ORBITAL ENERGIES
----------------

  NO   OCC          E(Eh)            E(eV)
   0   2.0000     -88.966546     -2420.9028
   1   2.0000     -88.966151     -2420.8920
   2   2.0000     -10.328250      -281.0460
   3   2.0000     -10.325870      -280.9812
   4   2.0000     -10.324446      -280.9425
   5   2.0000     -10.312494      -280.6172
   6   2.0000     -10.307180      -280.4726
   7   2.0000     -10.302378      -280.3420
   8   2.0000     -10.289503      -279.9916
   9   2.0000     -10.288567      -279.9661
  10   2.0000     -10.288496      -279.9642
  11   2.0000     -10.287069      -279.9254
  12   2.0000     -10.283785      -279.8360
  13   2.0000     -10.281838      -279.7830
  14   2.0000     -10.272570      -279.5309
  15   2.0000     -10.272374      -279.5255
  16   2.0000      -8.080532      -219.8825
  17   2.0000      -8.079287      -219.8486
  18   2.0000      -6.039025      -164.3302
  19   2.0000      -6.037940      -164.3007
  20   2.0000      -6.035232      -164.2270
  21   2.0000      -6.034005      -164.1936
  22   2.0000      -6.031281      -164.1195
  23   2.0000      -6.029966      -164.0837
  24   2.0000      -1.002373       -27.2760
  25   2.0000      -0.979625       -26.6569
  26   2.0000      -0.916837       -24.9484
  27   2.0000      -0.909126       -24.7386
  28   2.0000      -0.870430       -23.6856
  29   2.0000      -0.850199       -23.1351
  30   2.0000      -0.839449       -22.8426
  31   2.0000      -0.812819       -22.1179
  32   2.0000      -0.787099       -21.4181
  33   2.0000      -0.773809       -21.0564
  34   2.0000      -0.705705       -19.2032
  35   2.0000      -0.697192       -18.9716
  36   2.0000      -0.692923       -18.8554
  37   2.0000      -0.659568       -17.9477
  38   2.0000      -0.647767       -17.6266
  39   2.0000      -0.617019       -16.7899
  40   2.0000      -0.602285       -16.3890
  41   2.0000      -0.579440       -15.7674
  42   2.0000      -0.556233       -15.1359
  43   2.0000      -0.555245       -15.1090
  44   2.0000      -0.542186       -14.7536
  45   2.0000      -0.534004       -14.5310
  46   2.0000      -0.517077       -14.0704
  47   2.0000      -0.512113       -13.9353
  48   2.0000      -0.503976       -13.7139
  49   2.0000      -0.498099       -13.5540
  50   2.0000      -0.494312       -13.4509
  51   2.0000      -0.474214       -12.9040
  52   2.0000      -0.471412       -12.8278
  53   2.0000      -0.463396       -12.6097
  54   2.0000      -0.456625       -12.4254
  55   2.0000      -0.443330       -12.0636
  56   2.0000      -0.442700       -12.0465
  57   2.0000      -0.436506       -11.8779
  58   2.0000      -0.433550       -11.7975
  59   2.0000      -0.419656       -11.4194
  60   2.0000      -0.414881       -11.2895
  61   2.0000      -0.413356       -11.2480
  62   2.0000      -0.411513       -11.1978
  63   2.0000      -0.339201        -9.2301
  64   2.0000      -0.332589        -9.0502
  65   2.0000      -0.321216        -8.7407
  66   2.0000      -0.305286        -8.3073
  67   0.0000       0.037636         1.0241
  68   0.0000       0.050071         1.3625
  69   0.0000       0.110024         2.9939
  70   0.0000       0.117912         3.2086
  71   0.0000       0.125433         3.4132

MULLIKEN ATOMIC CHARGES
-----------------------
   0 S :    0.100383
   1 C :   -0.139213
   2 C :   -0.100048
   3 C :    0.064468
   4 C :   -0.146920
   5 H :   -0.008032
   6 C :    0.178006
   7 H :    0.001387
   8 H :   -0.031046
   9 C :   -0.100144
  10 H :    0.039809
  11 H :    0.020797
  12 C :   -0.076008
  13 H :    0.050876
  14 H :    0.033129
  15 H :    0.049542
  16 S :    0.107749
  17 C :   -0.035511
  18 C :   -0.022189
  19 C :   -0.018335
  20 C :   -0.214424
  21 H :    0.000207
  22 C :    0.103371
  23 H :    0.041846
  24 H :   -0.005520
  25 C :   -0.114137
  26 H :    0.026932
  27 H :    0.025100
  28 C :   -0.025685
  29 H :    0.046318
  30 H :    0.031711
  31 H :    0.032338
  32 H :    0.065977
  33 H :    0.017264
Sum of atomic charges:    0.0000000

LOEWDIN ATOMIC CHARGES
----------------------
   0 S :    0.375680
   1 C :   -0.184015
   2 C :   -0.055764
   3 C :   -0.055141
   4 C :   -0.186959
   5 H :    0.022649
   6 C :   -0.022126
   7 H :    0.024465
   8 H :    0.006375
   9 C :   -0.032598
  10 H :    0.034731
  11 H :    0.012847
  12 C :   -0.071930
  13 H :    0.024626
  14 H :    0.026559
  15 H :    0.037082
  16 S :    0.386418
  17 C :   -0.163720
  18 C :   -0.064280
  19 C :   -0.045648
  20 C :   -0.181807
  21 H :    0.023898
  22 C :   -0.034756
  23 H :    0.040276
  24 H :    0.022873
  25 C :   -0.040727
  26 H :    0.017487
  27 H :    0.024357
  28 C :   -0.058702
  29 H :    0.017561
  30 H :    0.024218
  31 H :    0.032983
  32 H :    0.034082
  33 H :    0.009004

  Mayer bond orders larger than 0.100000
B(  0-S ,  1-C ) :   1.1416 B(  0-S ,  4-C ) :   1.1069 B(  1-C ,  2-C ) :   1.5952
B(  1-C , 32-H ) :   0.9701 B(  2-C ,  3-C ) :   1.2223 B(  2-C ,  6-C ) :   1.0292
B(  3-C ,  4-C ) :   1.6182 B(  3-C ,  5-H ) :   0.9964 B(  4-C , 20-C ) :   1.0459
B(  6-C ,  7-H ) :   0.9370 B(  6-C ,  8-H ) :   0.9291 B(  6-C ,  9-C ) :   1.0638
B(  9-C , 10-H ) :   0.9592 B(  9-C , 11-H ) :   0.9632 B(  9-C , 12-C ) :   1.0627
B( 12-C , 13-H ) :   0.9743 B( 12-C , 14-H ) :   0.9750 B( 12-C , 15-H ) :   0.9755
B( 16-S , 17-C ) :   1.1553 B( 16-S , 20-C ) :   1.1255 B( 17-C , 18-C ) :   1.6066
B( 17-C , 33-H ) :   0.9764 B( 18-C , 19-C ) :   1.2426 B( 18-C , 21-H ) :   0.9931
B( 19-C , 20-C ) :   1.5944 B( 19-C , 22-C ) :   1.0522 B( 22-C , 23-H ) :   0.9323
B( 22-C , 24-H ) :   0.9189 B( 22-C , 25-C ) :   1.0656 B( 25-C , 26-H ) :   0.9592
B( 25-C , 27-H ) :   0.9568 B( 25-C , 28-C ) :   1.0713 B( 28-C , 29-H ) :   0.9764
B( 28-C , 30-H ) :   0.9728 B( 28-C , 31-H ) :   0.9734

Dispersion correction           -0.015855379
FINAL SINGLE POINT ENERGY     -1339.849339893599

DIPOLE MOMENT
-------------
                                X             Y             Z
Electronic contribution:      5.90170      16.25408      -4.63109
Nuclear contribution   :     -6.20000     -16.79572       4.54833
                        -----------------------------------------
Total Dipole Moment    :     -0.29830      -0.54165      -0.08275
                        -----------------------------------------
Magnitude (a.u.)       :      0.62387
Magnitude (Debye)      :      1.58574

Rotational constants in cm-1:     0.019864     0.009083     0.007727
Rotational constants in MHz :   595.519517   272.289462   231.663883

                             ****ORCA TERMINATED NORMALLY****
TOTAL RUN TIME: 0 days 0 hours 0 minutes 22 seconds 610 msec
