                         Program Version 4.2.1 -  RELEASE  -
|  1> ! wB97X-D3 SP def2-SVP
|  2> %pal
|  3> nprocs 24
|  4> end
|  5>
|  6> * xyz 0 1
|  7> S 	 21.1904 	 -8.70503 	 -118.891
|  8> C 	 21.8574 	 -9.11017 	 -117.349
|  9> C 	 21.8643 	 -8.10288 	 -116.456
| 10> C 	 21.1096 	 -7.01655 	 -117.004
| 11> C 	 20.6395 	 -7.1104 	 -118.288
| 12> H 	 21.0105 	 -6.05321 	 -116.484
| 13> C 	 22.3746 	 -8.05526 	 -115.011
| 14> H 	 22.2994 	 -7.02845 	 -114.789
| 15> H 	 23.406 	 -8.41661 	 -115.042
| 16> C 	 21.473 	 -8.82246 	 -114.039
| 17> H 	 20.4682 	 -8.37864 	 -114.004
| 18> H 	 21.2554 	 -9.91872 	 -114.303
| 19> C 	 22.1223 	 -8.80501 	 -112.655
| 20> H 	 22.1344 	 -7.80293 	 -112.298
| 21> H 	 21.672 	 -9.6352 	 -112.014
| 22> H 	 23.1276 	 -9.09088 	 -112.819
| 23> S 	 20.6241 	 -5.79295 	 -120.82
| 24> C 	 19.4966 	 -4.51647 	 -121.089
| 25> C 	 18.6102 	 -4.38982 	 -120.05
| 26> C 	 18.8819 	 -5.26445 	 -118.928
| 27> C 	 19.9374 	 -6.13122 	 -119.187
| 28> H 	 17.9694 	 -3.53305 	 -120.198
| 29> C 	 18.0135 	 -5.20354 	 -117.655
| 30> H 	 18.2282 	 -6.15815 	 -117.108
| 31> H 	 16.9719 	 -5.21566 	 -117.754
| 32> C 	 18.4831 	 -3.94826 	 -116.899
| 33> H 	 18.2177 	 -3.01532 	 -117.531
| 34> H 	 19.5811 	 -3.85935 	 -116.757
| 35> C 	 17.7444 	 -3.83762 	 -115.5
| 36> H 	 18.014 	 -2.82292 	 -115.053
| 37> H 	 17.9951 	 -4.62725 	 -114.864
| 38> H 	 16.715 	 -4.04071 	 -115.835
| 39> H 	 22.2745 	 -10.0868 	 -117.128
| 40> H 	 19.4973 	 -3.97323 	 -122.055
| 41> *
| 42>
| 43>                          ****END OF INPUT****

CARTESIAN COORDINATES (ANGSTROEM)
---------------------------------
  S     21.190400   -8.705030  -118.891000
  C     21.857400   -9.110170  -117.349000
  C     21.864300   -8.102880  -116.456000
  C     21.109600   -7.016550  -117.004000
  C     20.639500   -7.110400  -118.288000
  H     21.010500   -6.053210  -116.484000
  C     22.374600   -8.055260  -115.011000
  H     22.299400   -7.028450  -114.789000
  H     23.406000   -8.416610  -115.042000
  C     21.473000   -8.822460  -114.039000
  H     20.468200   -8.378640  -114.004000
  H     21.255400   -9.918720  -114.303000
  C     22.122300   -8.805010  -112.655000
  H     22.134400   -7.802930  -112.298000
  H     21.672000   -9.635200  -112.014000
  H     23.127600   -9.090880  -112.819000
  S     20.624100   -5.792950  -120.820000
  C     19.496600   -4.516470  -121.089000
  C     18.610200   -4.389820  -120.050000
  C     18.881900   -5.264450  -118.928000
  C     19.937400   -6.131220  -119.187000
  H     17.969400   -3.533050  -120.198000
  C     18.013500   -5.203540  -117.655000
  H     18.228200   -6.158150  -117.108000
  H     16.971900   -5.215660  -117.754000
  C     18.483100   -3.948260  -116.899000
  H     18.217700   -3.015320  -117.531000
  H     19.581100   -3.859350  -116.757000
  C     17.744400   -3.837620  -115.500000
  H     18.014000   -2.822920  -115.053000
  H     17.995100   -4.627250  -114.864000
  H     16.715000   -4.040710  -115.835000
  H     22.274500  -10.086800  -117.128000
  H     19.497300   -3.973230  -122.055000

 Total Charge           Charge          ....    0
 Multiplicity           Mult            ....    1
 Number of Electrons    NEL             ....  134
 Basis Dimension        Dim             ....  322

ORBITAL ENERGIES
----------------

  NO   OCC          E(Eh)            E(eV)
   0   2.0000     -88.962766     -2420.7999
   1   2.0000     -88.962121     -2420.7824
   2   2.0000     -10.336447      -281.2690
   3   2.0000     -10.334623      -281.2194
   4   2.0000     -10.318466      -280.7797
   5   2.0000     -10.312639      -280.6212
   6   2.0000     -10.309832      -280.5448
   7   2.0000     -10.297609      -280.2122
   8   2.0000     -10.295864      -280.1647
   9   2.0000     -10.295285      -280.1489
  10   2.0000     -10.295279      -280.1488
  11   2.0000     -10.294067      -280.1158
  12   2.0000     -10.294005      -280.1141
  13   2.0000     -10.293103      -280.0896
  14   2.0000     -10.283458      -279.8271
  15   2.0000     -10.277710      -279.6707
  16   2.0000      -8.077541      -219.8011
  17   2.0000      -8.076874      -219.7829
  18   2.0000      -6.036073      -164.2499
  19   2.0000      -6.035435      -164.2325
  20   2.0000      -6.032039      -164.1401
  21   2.0000      -6.031415      -164.1232
  22   2.0000      -6.028271      -164.0376
  23   2.0000      -6.027542      -164.0178
  24   2.0000      -1.002550       -27.2808
  25   2.0000      -0.985039       -26.8043
  26   2.0000      -0.915345       -24.9078
  27   2.0000      -0.907144       -24.6846
  28   2.0000      -0.867726       -23.6120
  29   2.0000      -0.848937       -23.1008
  30   2.0000      -0.841917       -22.9097
  31   2.0000      -0.814863       -22.1735
  32   2.0000      -0.782031       -21.2802
  33   2.0000      -0.772981       -21.0339
  34   2.0000      -0.700511       -19.0619
  35   2.0000      -0.698179       -18.9984
  36   2.0000      -0.694117       -18.8879
  37   2.0000      -0.657717       -17.8974
  38   2.0000      -0.638662       -17.3789
  39   2.0000      -0.622191       -16.9307
  40   2.0000      -0.596375       -16.2282
  41   2.0000      -0.575152       -15.6507
  42   2.0000      -0.566520       -15.4158
  43   2.0000      -0.556891       -15.1538
  44   2.0000      -0.531068       -14.4511
  45   2.0000      -0.527034       -14.3413
  46   2.0000      -0.518028       -14.0963
  47   2.0000      -0.513223       -13.9655
  48   2.0000      -0.504701       -13.7336
  49   2.0000      -0.494569       -13.4579
  50   2.0000      -0.489278       -13.3139
  51   2.0000      -0.477477       -12.9928
  52   2.0000      -0.469803       -12.7840
  53   2.0000      -0.466892       -12.7048
  54   2.0000      -0.463516       -12.6129
  55   2.0000      -0.447183       -12.1685
  56   2.0000      -0.444396       -12.0926
  57   2.0000      -0.435464       -11.8496
  58   2.0000      -0.427979       -11.6459
  59   2.0000      -0.426668       -11.6102
  60   2.0000      -0.418143       -11.3782
  61   2.0000      -0.415356       -11.3024
  62   2.0000      -0.411174       -11.1886
  63   2.0000      -0.352094        -9.5810
  64   2.0000      -0.330074        -8.9818
  65   2.0000      -0.329249        -8.9593
  66   2.0000      -0.293976        -7.9995
  67   0.0000       0.033655         0.9158
  68   0.0000       0.069552         1.8926
  69   0.0000       0.113796         3.0965
  70   0.0000       0.123889         3.3712
  71   0.0000       0.130123         3.5408

MULLIKEN ATOMIC CHARGES
-----------------------
   0 S :    0.095953
   1 C :   -0.128251
   2 C :   -0.089183
   3 C :    0.000656
   4 C :   -0.147509
   5 H :    0.010386
   6 C :    0.106318
   7 H :    0.010827
   8 H :    0.038692
   9 C :   -0.119634
  10 H :    0.030768
  11 H :    0.037191
  12 C :   -0.005936
  13 H :    0.027913
  14 H :    0.049105
  15 H :    0.010374
  16 S :    0.092736
  17 C :   -0.123643
  18 C :   -0.025187
  19 C :   -0.037103
  20 C :   -0.128917
  21 H :    0.022549
  22 C :    0.087141
  23 H :    0.035311
  24 H :    0.021306
  25 C :   -0.162159
  26 H :    0.043306
  27 H :    0.042492
  28 C :   -0.021549
  29 H :    0.057035
  30 H :    0.023699
  31 H :    0.027687
  32 H :    0.041666
  33 H :    0.075961
Sum of atomic charges:   -0.0000000

LOEWDIN ATOMIC CHARGES
----------------------
   0 S :    0.389476
   1 C :   -0.191037
   2 C :   -0.071355
   3 C :   -0.068545
   4 C :   -0.181883
   5 H :    0.029363
   6 C :   -0.020781
   7 H :    0.026658
   8 H :    0.034875
   9 C :   -0.044840
  10 H :    0.024252
  11 H :    0.028781
  12 C :   -0.064312
  13 H :    0.021275
  14 H :    0.037907
  15 H :    0.017045
  16 S :    0.387077
  17 C :   -0.189836
  18 C :   -0.081239
  19 C :   -0.044246
  20 C :   -0.185729
  21 H :    0.033478
  22 C :   -0.028968
  23 H :    0.036195
  24 H :    0.022498
  25 C :   -0.045217
  26 H :    0.030718
  27 H :    0.021631
  28 C :   -0.066943
  29 H :    0.037488
  30 H :    0.013631
  31 H :    0.027649
  32 H :    0.027154
  33 H :    0.037779

  Mayer bond orders larger than 0.100000
B(  0-S ,  1-C ) :   1.1483 B(  0-S ,  4-C ) :   1.1301 B(  1-C ,  2-C ) :   1.6332
B(  1-C , 32-H ) :   0.9640 B(  2-C ,  3-C ) :   1.2453 B(  2-C ,  6-C ) :   1.0081
B(  3-C ,  4-C ) :   1.6077 B(  3-C ,  5-H ) :   0.9827 B(  4-C , 20-C ) :   1.0196
B(  6-C ,  7-H ) :   0.9340 B(  6-C ,  8-H ) :   0.9361 B(  6-C ,  9-C ) :   1.0706
B(  9-C , 10-H ) :   0.9535 B(  9-C , 11-H ) :   0.9614 B(  9-C , 12-C ) :   1.0749
B( 12-C , 13-H ) :   0.9734 B( 12-C , 14-H ) :   0.9728 B( 12-C , 15-H ) :   0.9725
B( 16-S , 17-C ) :   1.1602 B( 16-S , 20-C ) :   1.1269 B( 17-C , 18-C ) :   1.6331
B( 17-C , 33-H ) :   0.9605 B( 18-C , 19-C ) :   1.1942 B( 18-C , 21-H ) :   0.9925
B( 19-C , 20-C ) :   1.6315 B( 19-C , 22-C ) :   1.0374 B( 22-C , 23-H ) :   0.9368
B( 22-C , 24-H ) :   0.9416 B( 22-C , 25-C ) :   1.0418 B( 25-C , 26-H ) :   0.9585
B( 25-C , 27-H ) :   0.9569 B( 25-C , 28-C ) :   1.0614 B( 28-C , 29-H ) :   0.9748
B( 28-C , 30-H ) :   0.9783 B( 28-C , 31-H ) :   0.9727

Dispersion correction           -0.013798718
FINAL SINGLE POINT ENERGY     -1339.867298793830

DIPOLE MOMENT
-------------
                                X             Y             Z
Electronic contribution:      5.23436      -5.31938     -30.95108
Nuclear contribution   :     -5.33786       5.62703      31.55069
                        -----------------------------------------
Total Dipole Moment    :     -0.10350       0.30765       0.59961
                        -----------------------------------------
Magnitude (a.u.)       :      0.68183
Magnitude (Debye)      :      1.73307

Rotational constants in cm-1:     0.018005     0.008585     0.006134
Rotational constants in MHz :   539.785864   257.384887   183.904844

                             ****ORCA TERMINATED NORMALLY****
TOTAL RUN TIME: 0 days 0 hours 0 minutes 21 seconds 211 msec
