                         Program Version 4.2.1 -  RELEASE  -
|  1> ! wB97X-D3 SP def2-SVP
|  2> %pal
|  3> nprocs 24
|  4> end
|  5>
|  6> * xyz 0 1
|  7> S 	 -105.925 	 51.0096 	 -97.1412
|  8> C 	 -105.654 	 51.4817 	 -95.4173
|  9> C 	 -106.734 	 52.1259 	 -94.8664
| 10> C 	 -107.818 	 52.2149 	 -95.8604
| 11> C 	 -107.534 	 51.7233 	 -97.1187
| 12> H 	 -108.733 	 52.7408 	 -95.6909
| 13> C 	 -106.852 	 52.5432 	 -93.422
| 14> H 	 -107.049 	 53.6232 	 -93.3973
| 15> H 	 -105.883 	 52.5226 	 -92.9784
| 16> C 	 -107.74 	 51.6747 	 -92.423
| 17> H 	 -107.813 	 52.1222 	 -91.4297
| 18> H 	 -108.788 	 51.4641 	 -92.7414
| 19> C 	 -107.07 	 50.3055 	 -92.2103
| 20> H 	 -107.175 	 49.5821 	 -93.0532
| 21> H 	 -106.059 	 50.3348 	 -91.9013
| 22> H 	 -107.598 	 49.8328 	 -91.3667
| 23> S 	 -108.739 	 50.2453 	 -99.0687
| 24> C 	 -110.053 	 50.9225 	 -100.014
| 25> C 	 -110.292 	 52.1979 	 -99.7163
| 26> C 	 -109.395 	 52.7334 	 -98.6824
| 27> C 	 -108.473 	 51.7683 	 -98.2245
| 28> H 	 -111.073 	 52.7179 	 -100.113
| 29> C 	 -109.49 	 54.1421 	 -98.2004
| 30> H 	 -108.509 	 54.3466 	 -97.7172
| 31> H 	 -110.258 	 54.2024 	 -97.4357
| 32> C 	 -109.656 	 55.2628 	 -99.2298
| 33> H 	 -110.749 	 55.2707 	 -99.6097
| 34> H 	 -109.031 	 55.0353 	 -100.04
| 35> C 	 -109.291 	 56.6223 	 -98.6957
| 36> H 	 -108.351 	 56.5606 	 -98.3119
| 37> H 	 -109.988 	 56.9693 	 -97.906
| 38> H 	 -109.109 	 57.3366 	 -99.5423
| 39> H 	 -104.774 	 51.3082 	 -94.8258
| 40> H 	 -110.601 	 50.4986 	 -100.778
| 41> *
| 42>
| 43>                          ****END OF INPUT****

CARTESIAN COORDINATES (ANGSTROEM)
---------------------------------
  S    -105.925000   51.009600  -97.141200
  C    -105.654000   51.481700  -95.417300
  C    -106.734000   52.125900  -94.866400
  C    -107.818000   52.214900  -95.860400
  C    -107.534000   51.723300  -97.118700
  H    -108.733000   52.740800  -95.690900
  C    -106.852000   52.543200  -93.422000
  H    -107.049000   53.623200  -93.397300
  H    -105.883000   52.522600  -92.978400
  C    -107.740000   51.674700  -92.423000
  H    -107.813000   52.122200  -91.429700
  H    -108.788000   51.464100  -92.741400
  C    -107.070000   50.305500  -92.210300
  H    -107.175000   49.582100  -93.053200
  H    -106.059000   50.334800  -91.901300
  H    -107.598000   49.832800  -91.366700
  S    -108.739000   50.245300  -99.068700
  C    -110.053000   50.922500  -100.014000
  C    -110.292000   52.197900  -99.716300
  C    -109.395000   52.733400  -98.682400
  C    -108.473000   51.768300  -98.224500
  H    -111.073000   52.717900  -100.113000
  C    -109.490000   54.142100  -98.200400
  H    -108.509000   54.346600  -97.717200
  H    -110.258000   54.202400  -97.435700
  C    -109.656000   55.262800  -99.229800
  H    -110.749000   55.270700  -99.609700
  H    -109.031000   55.035300  -100.040000
  C    -109.291000   56.622300  -98.695700
  H    -108.351000   56.560600  -98.311900
  H    -109.988000   56.969300  -97.906000
  H    -109.109000   57.336600  -99.542300
  H    -104.774000   51.308200  -94.825800
  H    -110.601000   50.498600  -100.778000

 Total Charge           Charge          ....    0
 Multiplicity           Mult            ....    1
 Number of Electrons    NEL             ....  134
 Basis Dimension        Dim             ....  322

ORBITAL ENERGIES
----------------

  NO   OCC          E(Eh)            E(eV)
   0   2.0000     -88.968295     -2420.9504
   1   2.0000     -88.962184     -2420.7841
   2   2.0000     -10.332119      -281.1513
   3   2.0000     -10.330060      -281.0952
   4   2.0000     -10.318218      -280.7730
   5   2.0000     -10.307772      -280.4887
   6   2.0000     -10.307370      -280.4778
   7   2.0000     -10.305926      -280.4385
   8   2.0000     -10.298033      -280.2237
   9   2.0000     -10.297387      -280.2061
  10   2.0000     -10.294997      -280.1411
  11   2.0000     -10.289316      -279.9865
  12   2.0000     -10.286199      -279.9017
  13   2.0000     -10.284195      -279.8472
  14   2.0000     -10.275552      -279.6120
  15   2.0000     -10.274912      -279.5946
  16   2.0000      -8.081862      -219.9187
  17   2.0000      -8.076928      -219.7844
  18   2.0000      -6.040659      -164.3747
  19   2.0000      -6.036651      -164.2656
  20   2.0000      -6.035637      -164.2380
  21   2.0000      -6.032247      -164.1458
  22   2.0000      -6.031410      -164.1230
  23   2.0000      -6.027496      -164.0165
  24   2.0000      -1.001900       -27.2631
  25   2.0000      -0.978065       -26.6145
  26   2.0000      -0.914196       -24.8765
  27   2.0000      -0.907631       -24.6979
  28   2.0000      -0.873180       -23.7604
  29   2.0000      -0.852439       -23.1960
  30   2.0000      -0.842796       -22.9336
  31   2.0000      -0.819470       -22.2989
  32   2.0000      -0.782371       -21.2894
  33   2.0000      -0.771381       -20.9903
  34   2.0000      -0.711539       -19.3620
  35   2.0000      -0.699841       -19.0436
  36   2.0000      -0.698388       -19.0041
  37   2.0000      -0.659003       -17.9324
  38   2.0000      -0.639864       -17.4116
  39   2.0000      -0.619429       -16.8555
  40   2.0000      -0.598450       -16.2846
  41   2.0000      -0.575087       -15.6489
  42   2.0000      -0.570079       -15.5126
  43   2.0000      -0.548519       -14.9260
  44   2.0000      -0.540853       -14.7174
  45   2.0000      -0.527079       -14.3426
  46   2.0000      -0.521378       -14.1874
  47   2.0000      -0.509006       -13.8508
  48   2.0000      -0.504955       -13.7405
  49   2.0000      -0.499665       -13.5966
  50   2.0000      -0.489813       -13.3285
  51   2.0000      -0.479577       -13.0500
  52   2.0000      -0.468298       -12.7430
  53   2.0000      -0.463568       -12.6143
  54   2.0000      -0.458005       -12.4630
  55   2.0000      -0.449920       -12.2429
  56   2.0000      -0.442337       -12.0366
  57   2.0000      -0.433612       -11.7992
  58   2.0000      -0.431416       -11.7394
  59   2.0000      -0.428486       -11.6597
  60   2.0000      -0.423257       -11.5174
  61   2.0000      -0.418131       -11.3779
  62   2.0000      -0.412830       -11.2337
  63   2.0000      -0.353159        -9.6099
  64   2.0000      -0.329540        -8.9672
  65   2.0000      -0.326083        -8.8732
  66   2.0000      -0.294297        -8.0082
  67   0.0000       0.029863         0.8126
  68   0.0000       0.076779         2.0893
  69   0.0000       0.108381         2.9492
  70   0.0000       0.119866         3.2617
  71   0.0000       0.132921         3.6170

MULLIKEN ATOMIC CHARGES
-----------------------
   0 S :    0.104329
   1 C :   -0.106865
   2 C :   -0.094053
   3 C :    0.027496
   4 C :   -0.132688
   5 H :    0.002765
   6 C :    0.079757
   7 H :    0.034480
   8 H :    0.000846
   9 C :   -0.063183
  10 H :    0.035632
  11 H :    0.043308
  12 C :   -0.077469
  13 H :    0.053362
  14 H :    0.018684
  15 H :    0.026574
  16 S :    0.089802
  17 C :   -0.026776
  18 C :    0.001509
  19 C :   -0.056474
  20 C :   -0.141892
  21 H :   -0.020064
  22 C :    0.027527
  23 H :    0.030609
  24 H :    0.039336
  25 C :   -0.082077
  26 H :    0.036461
  27 H :    0.020013
  28 C :   -0.012453
  29 H :    0.000931
  30 H :    0.041474
  31 H :    0.038159
  32 H :    0.039180
  33 H :    0.021760
Sum of atomic charges:   -0.0000000

LOEWDIN ATOMIC CHARGES
----------------------
   0 S :    0.372985
   1 C :   -0.172835
   2 C :   -0.060711
   3 C :   -0.053572
   4 C :   -0.195163
   5 H :    0.025182
   6 C :   -0.035467
   7 H :    0.033745
   8 H :    0.025994
   9 C :   -0.035514
  10 H :    0.027360
  11 H :    0.029470
  12 C :   -0.071012
  13 H :    0.032182
  14 H :    0.014647
  15 H :    0.028228
  16 S :    0.391467
  17 C :   -0.165016
  18 C :   -0.057912
  19 C :   -0.048947
  20 C :   -0.192100
  21 H :    0.015938
  22 C :   -0.042802
  23 H :    0.035501
  24 H :    0.029755
  25 C :   -0.040896
  26 H :    0.027546
  27 H :    0.018558
  28 C :   -0.061123
  29 H :    0.010660
  30 H :    0.031159
  31 H :    0.037078
  32 H :    0.026744
  33 H :    0.018869

  Mayer bond orders larger than 0.100000
B(  0-S ,  1-C ) :   1.1101 B(  0-S ,  4-C ) :   1.1194 B(  1-C ,  2-C ) :   1.6564
B(  1-C , 32-H ) :   0.9630 B(  2-C ,  3-C ) :   1.1957 B(  2-C ,  6-C ) :   1.0382
B(  3-C ,  4-C ) :   1.6015 B(  3-C ,  5-H ) :   0.9965 B(  4-C , 20-C ) :   1.0507
B(  6-C ,  7-H ) :   0.9354 B(  6-C ,  8-H ) :   0.9369 B(  6-C ,  9-C ) :   1.0516
B(  9-C , 10-H ) :   0.9586 B(  9-C , 11-H ) :   0.9612 B(  9-C , 12-C ) :   1.0719
B( 12-C , 13-H ) :   0.9771 B( 12-C , 14-H ) :   0.9764 B( 12-C , 15-H ) :   0.9731
B( 16-S , 17-C ) :   1.1306 B( 16-S , 20-C ) :   1.1211 B( 17-C , 18-C ) :   1.6548
B( 17-C , 33-H ) :   0.9690 B( 18-C , 19-C ) :   1.2031 B( 18-C , 21-H ) :   1.0047
B( 19-C , 20-C ) :   1.6130 B( 19-C , 22-C ) :   1.0557 B( 22-C , 23-H ) :   0.9370
B( 22-C , 24-H ) :   0.9215 B( 22-C , 25-C ) :   1.0687 B( 25-C , 26-H ) :   0.9441
B( 25-C , 27-H ) :   0.9560 B( 25-C , 28-C ) :   1.1020 B( 28-C , 29-H ) :   0.9672
B( 28-C , 30-H ) :   0.9728 B( 28-C , 31-H ) :   0.9700

Dispersion correction           -0.013821728
FINAL SINGLE POINT ENERGY     -1339.870376209914

DIPOLE MOMENT
-------------
                                X             Y             Z
Electronic contribution:      5.89519     -17.03958     -16.14031
Nuclear contribution   :     -6.21038      17.58041      16.60010
                        -----------------------------------------
Total Dipole Moment    :     -0.31520       0.54083       0.45979
                        -----------------------------------------
Magnitude (a.u.)       :      0.77670
Magnitude (Debye)      :      1.97421

Rotational constants in cm-1:     0.017984     0.008055     0.006583
Rotational constants in MHz :   539.148374   241.488786   197.342609

                             ****ORCA TERMINATED NORMALLY****
TOTAL RUN TIME: 0 days 0 hours 0 minutes 21 seconds 52 msec
