                         Program Version 4.2.1 -  RELEASE  -
|  1> ! wB97X-D3 SP def2-SVP
|  2> %pal
|  3> nprocs 24
|  4> end
|  5>
|  6> * xyz 0 1
|  7> S 	 -140.447 	 8.62199 	 3.40687
|  8> C 	 -141.957 	 7.73906 	 3.26832
|  9> C 	 -142.778 	 8.01362 	 4.33581
| 10> C 	 -142.059 	 8.74371 	 5.37332
| 11> C 	 -140.773 	 9.02943 	 5.09323
| 12> H 	 -142.551 	 9.06568 	 6.3496
| 13> C 	 -144.267 	 7.71616 	 4.38686
| 14> H 	 -144.512 	 6.74403 	 3.92199
| 15> H 	 -144.73 	 8.39387 	 3.74359
| 16> C 	 -144.902 	 7.82269 	 5.75884
| 17> H 	 -144.752 	 8.72174 	 6.33192
| 18> H 	 -145.949 	 7.62101 	 5.73192
| 19> C 	 -144.428 	 6.6852 	 6.75878
| 20> H 	 -143.358 	 6.63695 	 6.93328
| 21> H 	 -144.972 	 6.68203 	 7.64714
| 22> H 	 -144.704 	 5.73124 	 6.44614
| 23> S 	 -139.195 	 11.3681 	 5.33089
| 24> C 	 -138.389 	 11.6806 	 6.85347
| 25> C 	 -138.466 	 10.5406 	 7.66028
| 26> C 	 -139.344 	 9.49324 	 7.20593
| 27> C 	 -139.891 	 9.81815 	 5.97654
| 28> H 	 -137.781 	 10.4633 	 8.4905
| 29> C 	 -139.346 	 8.16103 	 7.94156
| 30> H 	 -138.379 	 7.99723 	 8.34672
| 31> H 	 -139.543 	 7.49385 	 7.1159
| 32> C 	 -140.399 	 8.10648 	 9.06029
| 33> H 	 -141.387 	 8.5507 	 8.70102
| 34> H 	 -139.905 	 8.67943 	 9.86009
| 35> C 	 -140.6 	 6.64848 	 9.54554
| 36> H 	 -139.592 	 6.33425 	 9.88723
| 37> H 	 -141.067 	 6.01726 	 8.76655
| 38> H 	 -141.243 	 6.66696 	 10.3249
| 39> H 	 -142.355 	 7.23341 	 2.44517
| 40> H 	 -137.773 	 12.5544 	 7.0716
| 41> *
| 42>
| 43>                          ****END OF INPUT****

CARTESIAN COORDINATES (ANGSTROEM)
---------------------------------
  S    -140.447000    8.621990    3.406870
  C    -141.957000    7.739060    3.268320
  C    -142.778000    8.013620    4.335810
  C    -142.059000    8.743710    5.373320
  C    -140.773000    9.029430    5.093230
  H    -142.551000    9.065680    6.349600
  C    -144.267000    7.716160    4.386860
  H    -144.512000    6.744030    3.921990
  H    -144.730000    8.393870    3.743590
  C    -144.902000    7.822690    5.758840
  H    -144.752000    8.721740    6.331920
  H    -145.949000    7.621010    5.731920
  C    -144.428000    6.685200    6.758780
  H    -143.358000    6.636950    6.933280
  H    -144.972000    6.682030    7.647140
  H    -144.704000    5.731240    6.446140
  S    -139.195000   11.368100    5.330890
  C    -138.389000   11.680600    6.853470
  C    -138.466000   10.540600    7.660280
  C    -139.344000    9.493240    7.205930
  C    -139.891000    9.818150    5.976540
  H    -137.781000   10.463300    8.490500
  C    -139.346000    8.161030    7.941560
  H    -138.379000    7.997230    8.346720
  H    -139.543000    7.493850    7.115900
  C    -140.399000    8.106480    9.060290
  H    -141.387000    8.550700    8.701020
  H    -139.905000    8.679430    9.860090
  C    -140.600000    6.648480    9.545540
  H    -139.592000    6.334250    9.887230
  H    -141.067000    6.017260    8.766550
  H    -141.243000    6.666960   10.324900
  H    -142.355000    7.233410    2.445170
  H    -137.773000   12.554400    7.071600

 Total Charge           Charge          ....    0
 Multiplicity           Mult            ....    1
 Number of Electrons    NEL             ....  134
 Basis Dimension        Dim             ....  322

ORBITAL ENERGIES
----------------

  NO   OCC          E(Eh)            E(eV)
   0   2.0000     -88.965542     -2420.8755
   1   2.0000     -88.964558     -2420.8487
   2   2.0000     -10.332437      -281.1599
   3   2.0000     -10.328731      -281.0591
   4   2.0000     -10.319748      -280.8146
   5   2.0000     -10.309360      -280.5319
   6   2.0000     -10.304043      -280.3873
   7   2.0000     -10.302315      -280.3402
   8   2.0000     -10.297403      -280.2066
   9   2.0000     -10.293332      -280.0958
  10   2.0000     -10.292781      -280.0808
  11   2.0000     -10.292234      -280.0659
  12   2.0000     -10.288382      -279.9611
  13   2.0000     -10.286449      -279.9085
  14   2.0000     -10.273925      -279.5677
  15   2.0000     -10.266514      -279.3660
  16   2.0000      -8.079901      -219.8653
  17   2.0000      -8.078288      -219.8214
  18   2.0000      -6.038666      -164.3205
  19   2.0000      -6.036922      -164.2730
  20   2.0000      -6.034592      -164.2096
  21   2.0000      -6.033043      -164.1674
  22   2.0000      -6.030258      -164.0917
  23   2.0000      -6.028865      -164.0538
  24   2.0000      -1.002323       -27.2746
  25   2.0000      -0.979233       -26.6463
  26   2.0000      -0.913031       -24.8448
  27   2.0000      -0.909225       -24.7413
  28   2.0000      -0.868907       -23.6442
  29   2.0000      -0.849546       -23.1173
  30   2.0000      -0.839702       -22.8494
  31   2.0000      -0.814490       -22.1634
  32   2.0000      -0.787122       -21.4187
  33   2.0000      -0.777828       -21.1658
  34   2.0000      -0.712033       -19.3754
  35   2.0000      -0.699245       -19.0274
  36   2.0000      -0.690321       -18.7846
  37   2.0000      -0.658902       -17.9296
  38   2.0000      -0.639100       -17.3908
  39   2.0000      -0.621225       -16.9044
  40   2.0000      -0.590636       -16.0720
  41   2.0000      -0.575200       -15.6520
  42   2.0000      -0.564450       -15.3595
  43   2.0000      -0.557108       -15.1597
  44   2.0000      -0.537064       -14.6143
  45   2.0000      -0.524569       -14.2742
  46   2.0000      -0.519972       -14.1492
  47   2.0000      -0.512703       -13.9513
  48   2.0000      -0.506278       -13.7765
  49   2.0000      -0.497604       -13.5405
  50   2.0000      -0.491448       -13.3730
  51   2.0000      -0.484081       -13.1725
  52   2.0000      -0.472681       -12.8623
  53   2.0000      -0.463663       -12.6169
  54   2.0000      -0.455089       -12.3836
  55   2.0000      -0.446948       -12.1621
  56   2.0000      -0.438725       -11.9383
  57   2.0000      -0.435639       -11.8543
  58   2.0000      -0.432414       -11.7666
  59   2.0000      -0.428885       -11.6705
  60   2.0000      -0.427287       -11.6271
  61   2.0000      -0.416306       -11.3283
  62   2.0000      -0.413631       -11.2555
  63   2.0000      -0.345533        -9.4024
  64   2.0000      -0.327807        -8.9201
  65   2.0000      -0.324522        -8.8307
  66   2.0000      -0.295206        -8.0330
  67   0.0000       0.032942         0.8964
  68   0.0000       0.059942         1.6311
  69   0.0000       0.105298         2.8653
  70   0.0000       0.119264         3.2453
  71   0.0000       0.124246         3.3809

MULLIKEN ATOMIC CHARGES
-----------------------
   0 S :    0.104814
   1 C :   -0.087118
   2 C :   -0.116864
   3 C :   -0.003702
   4 C :   -0.134950
   5 H :    0.040783
   6 C :    0.123420
   7 H :    0.026326
   8 H :    0.029416
   9 C :   -0.081109
  10 H :    0.036494
  11 H :    0.024266
  12 C :   -0.038307
  13 H :    0.036607
  14 H :    0.012255
  15 H :   -0.002930
  16 S :    0.095146
  17 C :   -0.100014
  18 C :   -0.039253
  19 C :   -0.028099
  20 C :   -0.182215
  21 H :    0.015038
  22 C :    0.096564
  23 H :    0.016836
  24 H :    0.028498
  25 C :   -0.125274
  26 H :    0.044955
  27 H :    0.031571
  28 C :    0.007431
  29 H :    0.028897
  30 H :    0.044279
  31 H :    0.009623
  32 H :    0.020457
  33 H :    0.066161
Sum of atomic charges:   -0.0000000

LOEWDIN ATOMIC CHARGES
----------------------
   0 S :    0.391024
   1 C :   -0.186427
   2 C :   -0.058514
   3 C :   -0.068605
   4 C :   -0.194819
   5 H :    0.041810
   6 C :   -0.028084
   7 H :    0.037679
   8 H :    0.029437
   9 C :   -0.034885
  10 H :    0.022848
  11 H :    0.026279
  12 C :   -0.063617
  13 H :    0.022094
  14 H :    0.019090
  15 H :    0.015153
  16 S :    0.374855
  17 C :   -0.186985
  18 C :   -0.073852
  19 C :   -0.048791
  20 C :   -0.177276
  21 H :    0.026435
  22 C :   -0.023347
  23 H :    0.026073
  24 H :    0.030134
  25 C :   -0.038068
  26 H :    0.027768
  27 H :    0.026062
  28 C :   -0.055396
  29 H :    0.029761
  30 H :    0.030506
  31 H :    0.008453
  32 H :    0.019258
  33 H :    0.033946

  Mayer bond orders larger than 0.100000
B(  0-S ,  1-C ) :   1.1222 B(  0-S ,  4-C ) :   1.1229 B(  1-C ,  2-C ) :   1.6516
B(  1-C , 32-H ) :   0.9738 B(  2-C ,  3-C ) :   1.2235 B(  2-C ,  6-C ) :   1.0067
B(  3-C ,  4-C ) :   1.6085 B(  3-C ,  5-H ) :   0.9756 B(  4-C , 20-C ) :   1.0338
B(  6-C ,  7-H ) :   0.9373 B(  6-C ,  8-H ) :   0.9280 B(  6-C ,  9-C ) :   1.0887
B(  9-C , 10-H ) :   0.9544 B(  9-C , 11-H ) :   0.9516 B(  9-C , 12-C ) :   1.0724
B( 12-C , 13-H ) :   0.9776 B( 12-C , 14-H ) :   0.9722 B( 12-C , 15-H ) :   0.9688
B( 16-S , 17-C ) :   1.1476 B( 16-S , 20-C ) :   1.1222 B( 17-C , 18-C ) :   1.6187
B( 17-C , 20-C ) :   0.1003 B( 17-C , 33-H ) :   0.9667 B( 18-C , 19-C ) :   1.2276
B( 18-C , 21-H ) :   0.9847 B( 19-C , 20-C ) :   1.6201 B( 19-C , 22-C ) :   1.0287
B( 22-C , 23-H ) :   0.9386 B( 22-C , 24-H ) :   0.9342 B( 22-C , 25-C ) :   1.0547
B( 25-C , 26-H ) :   0.9573 B( 25-C , 27-H ) :   0.9546 B( 25-C , 28-C ) :   1.0859
B( 28-C , 29-H ) :   0.9691 B( 28-C , 30-H ) :   0.9749 B( 28-C , 31-H ) :   0.9734

Dispersion correction           -0.014916590
FINAL SINGLE POINT ENERGY     -1339.856656266758

DIPOLE MOMENT
-------------
                                X             Y             Z
Electronic contribution:     16.24048      17.11626     -19.97285
Nuclear contribution   :    -16.65197     -17.43031      20.41965
                        -----------------------------------------
Total Dipole Moment    :     -0.41149      -0.31405       0.44680
                        -----------------------------------------
Magnitude (a.u.)       :      0.68379
Magnitude (Debye)      :      1.73807

Rotational constants in cm-1:     0.016126     0.010474     0.007270
Rotational constants in MHz :   483.446533   314.007930   217.954691

                             ****ORCA TERMINATED NORMALLY****
TOTAL RUN TIME: 0 days 0 hours 0 minutes 21 seconds 176 msec
