                         Program Version 4.2.1 -  RELEASE  -
|  1> ! wB97X-D3 SP def2-SVP
|  2> %pal
|  3> nprocs 24
|  4> end
|  5>
|  6> * xyz 0 1
|  7> S 	 19.3759 	 -17.4013 	 -123.234
|  8> C 	 19.2501 	 -18.2405 	 -124.779
|  9> C 	 19.9086 	 -19.466 	 -124.721
| 10> C 	 20.506 	 -19.7941 	 -123.474
| 11> C 	 20.3858 	 -18.7315 	 -122.559
| 12> H 	 20.894 	 -20.7612 	 -123.157
| 13> C 	 19.8408 	 -20.446 	 -125.872
| 14> H 	 19.7094 	 -19.7932 	 -126.69
| 15> H 	 18.9052 	 -21.0558 	 -125.747
| 16> C 	 21.0357 	 -21.371 	 -126.232
| 17> H 	 21.9545 	 -20.7562 	 -126.317
| 18> H 	 21.1514 	 -22.2161 	 -125.548
| 19> C 	 20.9572 	 -22.0796 	 -127.61
| 20> H 	 20.0776 	 -22.7208 	 -127.723
| 21> H 	 20.7924 	 -21.2689 	 -128.365
| 22> H 	 21.836 	 -22.6369 	 -127.897
| 23> S 	 19.7371 	 -18.2759 	 -119.98
| 24> C 	 20.9633 	 -18.4783 	 -118.748
| 25> C 	 22.1973 	 -18.7891 	 -119.259
| 26> C 	 22.1527 	 -18.8308 	 -120.674
| 27> C 	 20.9023 	 -18.5727 	 -121.201
| 28> H 	 22.9453 	 -19.122 	 -118.591
| 29> C 	 23.376 	 -19.2686 	 -121.485
| 30> H 	 23.1697 	 -19.2875 	 -122.528
| 31> H 	 23.6617 	 -20.2853 	 -121.17
| 32> C 	 24.5622 	 -18.3203 	 -121.283
| 33> H 	 24.7483 	 -18.122 	 -120.235
| 34> H 	 24.4092 	 -17.3661 	 -121.822
| 35> C 	 25.8981 	 -18.8857 	 -121.674
| 36> H 	 26.0742 	 -19.8303 	 -121.141
| 37> H 	 26.7396 	 -18.2538 	 -121.445
| 38> H 	 25.9401 	 -19.0275 	 -122.757
| 39> H 	 18.7186 	 -17.7719 	 -125.635
| 40> H 	 20.7782 	 -18.4671 	 -117.683
| 41> *
| 42>
| 43>                          ****END OF INPUT****

CARTESIAN COORDINATES (ANGSTROEM)
---------------------------------
  S     19.375900  -17.401300  -123.234000
  C     19.250100  -18.240500  -124.779000
  C     19.908600  -19.466000  -124.721000
  C     20.506000  -19.794100  -123.474000
  C     20.385800  -18.731500  -122.559000
  H     20.894000  -20.761200  -123.157000
  C     19.840800  -20.446000  -125.872000
  H     19.709400  -19.793200  -126.690000
  H     18.905200  -21.055800  -125.747000
  C     21.035700  -21.371000  -126.232000
  H     21.954500  -20.756200  -126.317000
  H     21.151400  -22.216100  -125.548000
  C     20.957200  -22.079600  -127.610000
  H     20.077600  -22.720800  -127.723000
  H     20.792400  -21.268900  -128.365000
  H     21.836000  -22.636900  -127.897000
  S     19.737100  -18.275900  -119.980000
  C     20.963300  -18.478300  -118.748000
  C     22.197300  -18.789100  -119.259000
  C     22.152700  -18.830800  -120.674000
  C     20.902300  -18.572700  -121.201000
  H     22.945300  -19.122000  -118.591000
  C     23.376000  -19.268600  -121.485000
  H     23.169700  -19.287500  -122.528000
  H     23.661700  -20.285300  -121.170000
  C     24.562200  -18.320300  -121.283000
  H     24.748300  -18.122000  -120.235000
  H     24.409200  -17.366100  -121.822000
  C     25.898100  -18.885700  -121.674000
  H     26.074200  -19.830300  -121.141000
  H     26.739600  -18.253800  -121.445000
  H     25.940100  -19.027500  -122.757000
  H     18.718600  -17.771900  -125.635000
  H     20.778200  -18.467100  -117.683000

 Total Charge           Charge          ....    0
 Multiplicity           Mult            ....    1
 Number of Electrons    NEL             ....  134
 Basis Dimension        Dim             ....  322

ORBITAL ENERGIES
----------------

  NO   OCC          E(Eh)            E(eV)
   0   2.0000     -88.965345     -2420.8701
   1   2.0000     -88.965300     -2420.8689
   2   2.0000     -10.336383      -281.2673
   3   2.0000     -10.321649      -280.8664
   4   2.0000     -10.318885      -280.7911
   5   2.0000     -10.315464      -280.6980
   6   2.0000     -10.303985      -280.3857
   7   2.0000     -10.301988      -280.3313
   8   2.0000     -10.299422      -280.2615
   9   2.0000     -10.292994      -280.0866
  10   2.0000     -10.292421      -280.0710
  11   2.0000     -10.290091      -280.0076
  12   2.0000     -10.288473      -279.9636
  13   2.0000     -10.281957      -279.7863
  14   2.0000     -10.279530      -279.7202
  15   2.0000     -10.272118      -279.5185
  16   2.0000      -8.080939      -219.8935
  17   2.0000      -8.079207      -219.8464
  18   2.0000      -6.039407      -164.3406
  19   2.0000      -6.037697      -164.2941
  20   2.0000      -6.035321      -164.2294
  21   2.0000      -6.033819      -164.1885
  22   2.0000      -6.031683      -164.1304
  23   2.0000      -6.030057      -164.0862
  24   2.0000      -1.008490       -27.4424
  25   2.0000      -0.981007       -26.6946
  26   2.0000      -0.911045       -24.7908
  27   2.0000      -0.905986       -24.6531
  28   2.0000      -0.870466       -23.6866
  29   2.0000      -0.853795       -23.2330
  30   2.0000      -0.846255       -23.0278
  31   2.0000      -0.818140       -22.2627
  32   2.0000      -0.781260       -21.2592
  33   2.0000      -0.766479       -20.8569
  34   2.0000      -0.708298       -19.2738
  35   2.0000      -0.691566       -18.8185
  36   2.0000      -0.687670       -18.7125
  37   2.0000      -0.661850       -18.0099
  38   2.0000      -0.640148       -17.4193
  39   2.0000      -0.620743       -16.8913
  40   2.0000      -0.598029       -16.2732
  41   2.0000      -0.572430       -15.5766
  42   2.0000      -0.570732       -15.5304
  43   2.0000      -0.560741       -15.2585
  44   2.0000      -0.528661       -14.3856
  45   2.0000      -0.519502       -14.1364
  46   2.0000      -0.517957       -14.0943
  47   2.0000      -0.512467       -13.9449
  48   2.0000      -0.509801       -13.8724
  49   2.0000      -0.496794       -13.5185
  50   2.0000      -0.490429       -13.3453
  51   2.0000      -0.480737       -13.0815
  52   2.0000      -0.469276       -12.7697
  53   2.0000      -0.463884       -12.6229
  54   2.0000      -0.456626       -12.4254
  55   2.0000      -0.453587       -12.3427
  56   2.0000      -0.449523       -12.2321
  57   2.0000      -0.429250       -11.6805
  58   2.0000      -0.428201       -11.6519
  59   2.0000      -0.425864       -11.5883
  60   2.0000      -0.422373       -11.4934
  61   2.0000      -0.414010       -11.2658
  62   2.0000      -0.412004       -11.2112
  63   2.0000      -0.347911        -9.4672
  64   2.0000      -0.331440        -9.0189
  65   2.0000      -0.329910        -8.9773
  66   2.0000      -0.290239        -7.8978
  67   0.0000       0.030064         0.8181
  68   0.0000       0.067204         1.8287
  69   0.0000       0.107538         2.9263
  70   0.0000       0.121961         3.3187
  71   0.0000       0.130438         3.5494

MULLIKEN ATOMIC CHARGES
-----------------------
   0 S :    0.093884
   1 C :   -0.142601
   2 C :   -0.096922
   3 C :    0.048788
   4 C :   -0.169073
   5 H :    0.028151
   6 C :    0.071707
   7 H :    0.002967
   8 H :    0.053428
   9 C :   -0.087290
  10 H :    0.038942
  11 H :    0.034943
  12 C :   -0.071488
  13 H :    0.029667
  14 H :    0.023895
  15 H :    0.043240
  16 S :    0.115019
  17 C :   -0.091160
  18 C :   -0.028867
  19 C :   -0.027844
  20 C :   -0.146328
  21 H :    0.014314
  22 C :    0.101540
  23 H :    0.018394
  24 H :    0.024810
  25 C :   -0.098707
  26 H :    0.023267
  27 H :    0.039344
  28 C :   -0.044705
  29 H :    0.024781
  30 H :    0.029331
  31 H :    0.023944
  32 H :    0.068993
  33 H :    0.051636
Sum of atomic charges:   -0.0000000

LOEWDIN ATOMIC CHARGES
----------------------
   0 S :    0.379725
   1 C :   -0.203425
   2 C :   -0.065384
   3 C :   -0.063014
   4 C :   -0.168535
   5 H :    0.038131
   6 C :   -0.035237
   7 H :    0.023387
   8 H :    0.041143
   9 C :   -0.045152
  10 H :    0.030108
  11 H :    0.021826
  12 C :   -0.068418
  13 H :    0.022148
  14 H :    0.025002
  15 H :    0.026415
  16 S :    0.422269
  17 C :   -0.177318
  18 C :   -0.066502
  19 C :   -0.051002
  20 C :   -0.221528
  21 H :    0.029832
  22 C :   -0.024112
  23 H :    0.025122
  24 H :    0.030972
  25 C :   -0.044255
  26 H :    0.020519
  27 H :    0.030046
  28 C :   -0.065770
  29 H :    0.023492
  30 H :    0.024043
  31 H :    0.020977
  32 H :    0.037177
  33 H :    0.027320

  Mayer bond orders larger than 0.100000
B(  0-S ,  1-C ) :   1.1294 B(  0-S ,  4-C ) :   1.1610 B(  1-C ,  2-C ) :   1.6039
B(  1-C ,  4-C ) :   0.1074 B(  1-C , 32-H ) :   0.9667 B(  2-C ,  3-C ) :   1.2365
B(  2-C ,  6-C ) :   1.0218 B(  3-C ,  4-C ) :   1.5625 B(  3-C ,  5-H ) :   0.9944
B(  4-C , 20-C ) :   1.0125 B(  6-C ,  7-H ) :   0.9377 B(  6-C ,  8-H ) :   0.9344
B(  6-C ,  9-C ) :   1.0674 B(  9-C , 10-H ) :   0.9594 B(  9-C , 11-H ) :   0.9518
B(  9-C , 12-C ) :   1.0816 B( 12-C , 13-H ) :   0.9762 B( 12-C , 14-H ) :   0.9753
B( 12-C , 15-H ) :   0.9761 B( 16-S , 17-C ) :   1.1597 B( 16-S , 20-C ) :   1.1486
B( 17-C , 18-C ) :   1.6219 B( 17-C , 33-H ) :   0.9659 B( 18-C , 19-C ) :   1.2263
B( 18-C , 21-H ) :   0.9961 B( 19-C , 20-C ) :   1.6092 B( 19-C , 22-C ) :   1.0434
B( 22-C , 23-H ) :   0.9301 B( 22-C , 24-H ) :   0.9378 B( 22-C , 25-C ) :   1.0618
B( 25-C , 26-H ) :   0.9611 B( 25-C , 27-H ) :   0.9518 B( 25-C , 28-C ) :   1.0900
B( 28-C , 29-H ) :   0.9731 B( 28-C , 30-H ) :   0.9731 B( 28-C , 31-H ) :   0.9726

Dispersion correction           -0.013330418
FINAL SINGLE POINT ENERGY     -1339.885725120234

DIPOLE MOMENT
-------------
                                X             Y             Z
Electronic contribution:    -20.84909      14.86630      17.00024
Nuclear contribution   :     21.22821     -15.38793     -17.14091
                        -----------------------------------------
Total Dipole Moment    :      0.37911      -0.52163      -0.14067
                        -----------------------------------------
Magnitude (a.u.)       :      0.66001
Magnitude (Debye)      :      1.67761

Rotational constants in cm-1:     0.016579     0.008400     0.006278
Rotational constants in MHz :   497.021875   251.838577   188.201653

                             ****ORCA TERMINATED NORMALLY****
TOTAL RUN TIME: 0 days 0 hours 0 minutes 20 seconds 894 msec
