                         Program Version 4.2.1 -  RELEASE  -
|  1> ! wB97X-D3 SP def2-SVP
|  2> %pal
|  3> nprocs 24
|  4> end
|  5>
|  6> * xyz 0 1
|  7> S 	 21.4583 	 -9.66794 	 -115.608
|  8> C 	 22.8428 	 -9.67431 	 -114.551
|  9> C 	 23.602 	 -8.53625 	 -114.584
| 10> C 	 23.0558 	 -7.59061 	 -115.514
| 11> C 	 21.9234 	 -8.09091 	 -116.146
| 12> H 	 23.3977 	 -6.54605 	 -115.636
| 13> C 	 24.6817 	 -8.18258 	 -113.614
| 14> H 	 25.4713 	 -7.57921 	 -114.095
| 15> H 	 25.2143 	 -9.10036 	 -113.264
| 16> C 	 24.2445 	 -7.52812 	 -112.245
| 17> H 	 24.065 	 -6.43393 	 -112.364
| 18> H 	 23.2743 	 -7.99088 	 -111.946
| 19> C 	 25.2438 	 -7.73865 	 -111.034
| 20> H 	 24.8502 	 -7.34089 	 -110.035
| 21> H 	 25.5147 	 -8.76122 	 -110.87
| 22> H 	 26.1344 	 -7.27172 	 -111.356
| 23> S 	 20.3389 	 -7.989 	 -118.391
| 24> C 	 19.476 	 -6.52894 	 -118.778
| 25> C 	 19.5738 	 -5.56134 	 -117.761
| 26> C 	 20.4656 	 -5.98532 	 -116.717
| 27> C 	 21.0397 	 -7.24126 	 -116.932
| 28> H 	 19.0871 	 -4.54922 	 -117.711
| 29> C 	 20.6138 	 -5.01174 	 -115.539
| 30> H 	 21.2046 	 -5.56346 	 -114.846
| 31> H 	 19.7077 	 -4.82924 	 -115.025
| 32> C 	 21.2545 	 -3.651 	 -115.879
| 33> H 	 20.4521 	 -2.96544 	 -116.197
| 34> H 	 21.8532 	 -3.86809 	 -116.81
| 35> C 	 22.0917 	 -3.15139 	 -114.751
| 36> H 	 22.7572 	 -4.0246 	 -114.567
| 37> H 	 21.4137 	 -3.04518 	 -113.854
| 38> H 	 22.7573 	 -2.29424 	 -114.949
| 39> H 	 22.9616 	 -10.4201 	 -113.759
| 40> H 	 18.7266 	 -6.42691 	 -119.539
| 41> *
| 42>
| 43>                          ****END OF INPUT****

CARTESIAN COORDINATES (ANGSTROEM)
---------------------------------
  S     21.458300   -9.667940  -115.608000
  C     22.842800   -9.674310  -114.551000
  C     23.602000   -8.536250  -114.584000
  C     23.055800   -7.590610  -115.514000
  C     21.923400   -8.090910  -116.146000
  H     23.397700   -6.546050  -115.636000
  C     24.681700   -8.182580  -113.614000
  H     25.471300   -7.579210  -114.095000
  H     25.214300   -9.100360  -113.264000
  C     24.244500   -7.528120  -112.245000
  H     24.065000   -6.433930  -112.364000
  H     23.274300   -7.990880  -111.946000
  C     25.243800   -7.738650  -111.034000
  H     24.850200   -7.340890  -110.035000
  H     25.514700   -8.761220  -110.870000
  H     26.134400   -7.271720  -111.356000
  S     20.338900   -7.989000  -118.391000
  C     19.476000   -6.528940  -118.778000
  C     19.573800   -5.561340  -117.761000
  C     20.465600   -5.985320  -116.717000
  C     21.039700   -7.241260  -116.932000
  H     19.087100   -4.549220  -117.711000
  C     20.613800   -5.011740  -115.539000
  H     21.204600   -5.563460  -114.846000
  H     19.707700   -4.829240  -115.025000
  C     21.254500   -3.651000  -115.879000
  H     20.452100   -2.965440  -116.197000
  H     21.853200   -3.868090  -116.810000
  C     22.091700   -3.151390  -114.751000
  H     22.757200   -4.024600  -114.567000
  H     21.413700   -3.045180  -113.854000
  H     22.757300   -2.294240  -114.949000
  H     22.961600  -10.420100  -113.759000
  H     18.726600   -6.426910  -119.539000

 Total Charge           Charge          ....    0
 Multiplicity           Mult            ....    1
 Number of Electrons    NEL             ....  134
 Basis Dimension        Dim             ....  322

ORBITAL ENERGIES
----------------

  NO   OCC          E(Eh)            E(eV)
   0   2.0000     -88.972697     -2421.0702
   1   2.0000     -88.966213     -2420.8937
   2   2.0000     -10.330072      -281.0955
   3   2.0000     -10.329078      -281.0685
   4   2.0000     -10.318805      -280.7890
   5   2.0000     -10.313935      -280.6564
   6   2.0000     -10.304845      -280.4091
   7   2.0000     -10.301811      -280.3265
   8   2.0000     -10.300106      -280.2801
   9   2.0000     -10.298858      -280.2462
  10   2.0000     -10.298467      -280.2355
  11   2.0000     -10.298463      -280.2354
  12   2.0000     -10.288861      -279.9741
  13   2.0000     -10.287068      -279.9254
  14   2.0000     -10.284508      -279.8557
  15   2.0000     -10.284325      -279.8507
  16   2.0000      -8.087820      -220.0808
  17   2.0000      -8.080665      -219.8861
  18   2.0000      -6.046207      -164.5257
  19   2.0000      -6.042391      -164.4218
  20   2.0000      -6.039168      -164.3341
  21   2.0000      -6.038560      -164.3176
  22   2.0000      -6.035241      -164.2273
  23   2.0000      -6.031426      -164.1235
  24   2.0000      -1.008598       -27.4454
  25   2.0000      -0.982272       -26.7290
  26   2.0000      -0.914686       -24.8899
  27   2.0000      -0.906520       -24.6677
  28   2.0000      -0.865967       -23.5642
  29   2.0000      -0.854776       -23.2596
  30   2.0000      -0.848310       -23.0837
  31   2.0000      -0.809413       -22.0252
  32   2.0000      -0.781369       -21.2621
  33   2.0000      -0.770649       -20.9704
  34   2.0000      -0.702484       -19.1156
  35   2.0000      -0.698973       -19.0200
  36   2.0000      -0.695097       -18.9145
  37   2.0000      -0.660572       -17.9751
  38   2.0000      -0.640007       -17.4155
  39   2.0000      -0.619438       -16.8558
  40   2.0000      -0.597090       -16.2477
  41   2.0000      -0.569734       -15.5032
  42   2.0000      -0.568668       -15.4742
  43   2.0000      -0.550111       -14.9693
  44   2.0000      -0.528968       -14.3939
  45   2.0000      -0.523001       -14.2316
  46   2.0000      -0.518510       -14.1094
  47   2.0000      -0.510089       -13.8802
  48   2.0000      -0.504414       -13.7258
  49   2.0000      -0.491956       -13.3868
  50   2.0000      -0.490827       -13.3561
  51   2.0000      -0.480784       -13.0828
  52   2.0000      -0.475066       -12.9272
  53   2.0000      -0.470069       -12.7912
  54   2.0000      -0.460256       -12.5242
  55   2.0000      -0.451544       -12.2871
  56   2.0000      -0.440064       -11.9748
  57   2.0000      -0.437409       -11.9025
  58   2.0000      -0.429523       -11.6879
  59   2.0000      -0.425091       -11.5673
  60   2.0000      -0.421742       -11.4762
  61   2.0000      -0.420818       -11.4510
  62   2.0000      -0.415676       -11.3111
  63   2.0000      -0.346203        -9.4207
  64   2.0000      -0.336424        -9.1546
  65   2.0000      -0.330614        -8.9965
  66   2.0000      -0.290083        -7.8936
  67   0.0000       0.029188         0.7943
  68   0.0000       0.065187         1.7738
  69   0.0000       0.104310         2.8384
  70   0.0000       0.112518         3.0618
  71   0.0000       0.120552         3.2804

MULLIKEN ATOMIC CHARGES
-----------------------
   0 S :    0.131956
   1 C :   -0.125219
   2 C :   -0.060156
   3 C :    0.000218
   4 C :   -0.120849
   5 H :    0.024788
   6 C :    0.035540
   7 H :    0.034860
   8 H :    0.022370
   9 C :   -0.095030
  10 H :    0.039834
  11 H :    0.033979
  12 C :   -0.058891
  13 H :    0.054902
  14 H :    0.026493
  15 H :    0.025397
  16 S :    0.096694
  17 C :   -0.068446
  18 C :   -0.057245
  19 C :   -0.059694
  20 C :   -0.179885
  21 H :    0.041823
  22 C :    0.083590
  23 H :   -0.000994
  24 H :    0.027127
  25 C :   -0.100217
  26 H :    0.033314
  27 H :    0.042906
  28 C :   -0.052395
  29 H :    0.025115
  30 H :    0.043400
  31 H :    0.050141
  32 H :    0.049442
  33 H :    0.055133
Sum of atomic charges:   -0.0000000

LOEWDIN ATOMIC CHARGES
----------------------
   0 S :    0.423353
   1 C :   -0.197251
   2 C :   -0.066432
   3 C :   -0.058625
   4 C :   -0.204155
   5 H :    0.036704
   6 C :   -0.040504
   7 H :    0.032260
   8 H :    0.034265
   9 C :   -0.041304
  10 H :    0.024538
  11 H :    0.024234
  12 C :   -0.067711
  13 H :    0.039284
  14 H :    0.018863
  15 H :    0.018444
  16 S :    0.395965
  17 C :   -0.187150
  18 C :   -0.074863
  19 C :   -0.053952
  20 C :   -0.191863
  21 H :    0.041275
  22 C :   -0.028141
  23 H :    0.020137
  24 H :    0.027333
  25 C :   -0.050013
  26 H :    0.020365
  27 H :    0.029222
  28 C :   -0.069895
  29 H :    0.027480
  30 H :    0.033625
  31 H :    0.029858
  32 H :    0.028692
  33 H :    0.025962

  Mayer bond orders larger than 0.100000
B(  0-S ,  1-C ) :   1.1357 B(  0-S ,  4-C ) :   1.1627 B(  1-C ,  2-C ) :   1.6247
B(  1-C , 32-H ) :   0.9617 B(  2-C ,  3-C ) :   1.2246 B(  2-C ,  6-C ) :   1.0531
B(  3-C ,  4-C ) :   1.5626 B(  3-C ,  5-H ) :   0.9992 B(  4-C , 20-C ) :   1.0369
B(  6-C ,  7-H ) :   0.9374 B(  6-C ,  8-H ) :   0.9398 B(  6-C ,  9-C ) :   1.0382
B(  9-C , 10-H ) :   0.9578 B(  9-C , 11-H ) :   0.9617 B(  9-C , 12-C ) :   1.0698
B( 12-C , 13-H ) :   0.9754 B( 12-C , 14-H ) :   0.9758 B( 12-C , 15-H ) :   0.9783
B( 16-S , 17-C ) :   1.1620 B( 16-S , 20-C ) :   1.1250 B( 17-C , 18-C ) :   1.5942
B( 17-C , 33-H ) :   0.9665 B( 18-C , 19-C ) :   1.2505 B( 18-C , 21-H ) :   0.9799
B( 19-C , 20-C ) :   1.5990 B( 19-C , 22-C ) :   1.0458 B( 22-C , 23-H ) :   0.9371
B( 22-C , 24-H ) :   0.9311 B( 22-C , 25-C ) :   1.0351 B( 25-C , 26-H ) :   0.9486
B( 25-C , 27-H ) :   0.9635 B( 25-C , 28-C ) :   1.0820 B( 28-C , 29-H ) :   0.9752
B( 28-C , 30-H ) :   0.9706 B( 28-C , 31-H ) :   0.9718

Dispersion correction           -0.014349568
FINAL SINGLE POINT ENERGY     -1339.875549385316

DIPOLE MOMENT
-------------
                                X             Y             Z
Electronic contribution:    -14.20609     -19.43614     -22.84629
Nuclear contribution   :     14.28641      19.92563      23.46677
                        -----------------------------------------
Total Dipole Moment    :      0.08033       0.48949       0.62047
                        -----------------------------------------
Magnitude (a.u.)       :      0.79438
Magnitude (Debye)      :      2.01915

Rotational constants in cm-1:     0.018001     0.009115     0.006360
Rotational constants in MHz :   539.643934   273.256808   190.675101

                             ****ORCA TERMINATED NORMALLY****
TOTAL RUN TIME: 0 days 0 hours 0 minutes 21 seconds 481 msec
