                         Program Version 4.2.1 -  RELEASE  -
|  1> ! wB97X-D3 SP def2-SVP
|  2> %pal
|  3> nprocs 24
|  4> end
|  5>
|  6> * xyz 0 1
|  7> S 	 -60.9982 	 -3.42082 	 -16.9676
|  8> C 	 -62.2356 	 -3.19763 	 -15.7676
|  9> C 	 -61.7132 	 -2.5958 	 -14.6482
| 10> C 	 -60.3257 	 -2.37254 	 -14.7542
| 11> C 	 -59.7627 	 -2.83432 	 -15.9055
| 12> H 	 -59.6683 	 -2.10132 	 -13.9314
| 13> C 	 -62.5095 	 -1.99553 	 -13.5389
| 14> H 	 -63.5196 	 -2.00732 	 -13.731
| 15> H 	 -62.2029 	 -0.944844 	 -13.5168
| 16> C 	 -62.4412 	 -2.67007 	 -12.1674
| 17> H 	 -61.3719 	 -2.69712 	 -11.8011
| 18> H 	 -62.9071 	 -2.12878 	 -11.4203
| 19> C 	 -63.0899 	 -4.12156 	 -12.3024
| 20> H 	 -63.3012 	 -4.55706 	 -11.3404
| 21> H 	 -64.0691 	 -4.14882 	 -12.7155
| 22> H 	 -62.4382 	 -4.80706 	 -12.9167
| 23> S 	 -57.5034 	 -1.39011 	 -15.5835
| 24> C 	 -56.0704 	 -1.83147 	 -16.3842
| 25> C 	 -56.2311 	 -3.04405 	 -17.0402
| 26> C 	 -57.542 	 -3.556 	 -16.97
| 27> C 	 -58.3369 	 -2.75252 	 -16.2489
| 28> H 	 -55.4839 	 -3.52261 	 -17.5385
| 29> C 	 -57.9326 	 -4.93866 	 -17.5533
| 30> H 	 -58.9815 	 -4.85332 	 -17.5206
| 31> H 	 -57.5486 	 -5.74615 	 -16.9496
| 32> C 	 -57.4943 	 -5.07041 	 -18.9935
| 33> H 	 -57.8364 	 -6.02022 	 -19.3478
| 34> H 	 -56.3921 	 -5.12265 	 -19.1638
| 35> C 	 -58.1053 	 -3.97591 	 -19.9416
| 36> H 	 -59.0045 	 -4.29315 	 -20.3249
| 37> H 	 -57.6557 	 -3.94971 	 -20.8689
| 38> H 	 -58.5047 	 -3.03596 	 -19.3489
| 39> H 	 -63.2296 	 -3.41212 	 -15.8762
| 40> H 	 -55.1164 	 -1.33278 	 -16.2474
| 41> *
| 42>
| 43>                          ****END OF INPUT****

CARTESIAN COORDINATES (ANGSTROEM)
---------------------------------
  S    -60.998200   -3.420820  -16.967600
  C    -62.235600   -3.197630  -15.767600
  C    -61.713200   -2.595800  -14.648200
  C    -60.325700   -2.372540  -14.754200
  C    -59.762700   -2.834320  -15.905500
  H    -59.668300   -2.101320  -13.931400
  C    -62.509500   -1.995530  -13.538900
  H    -63.519600   -2.007320  -13.731000
  H    -62.202900   -0.944844  -13.516800
  C    -62.441200   -2.670070  -12.167400
  H    -61.371900   -2.697120  -11.801100
  H    -62.907100   -2.128780  -11.420300
  C    -63.089900   -4.121560  -12.302400
  H    -63.301200   -4.557060  -11.340400
  H    -64.069100   -4.148820  -12.715500
  H    -62.438200   -4.807060  -12.916700
  S    -57.503400   -1.390110  -15.583500
  C    -56.070400   -1.831470  -16.384200
  C    -56.231100   -3.044050  -17.040200
  C    -57.542000   -3.556000  -16.970000
  C    -58.336900   -2.752520  -16.248900
  H    -55.483900   -3.522610  -17.538500
  C    -57.932600   -4.938660  -17.553300
  H    -58.981500   -4.853320  -17.520600
  H    -57.548600   -5.746150  -16.949600
  C    -57.494300   -5.070410  -18.993500
  H    -57.836400   -6.020220  -19.347800
  H    -56.392100   -5.122650  -19.163800
  C    -58.105300   -3.975910  -19.941600
  H    -59.004500   -4.293150  -20.324900
  H    -57.655700   -3.949710  -20.868900
  H    -58.504700   -3.035960  -19.348900
  H    -63.229600   -3.412120  -15.876200
  H    -55.116400   -1.332780  -16.247400

 Total Charge           Charge          ....    0
 Multiplicity           Mult            ....    1
 Number of Electrons    NEL             ....  134
 Basis Dimension        Dim             ....  322

ORBITAL ENERGIES
----------------

  NO   OCC          E(Eh)            E(eV)
   0   2.0000     -88.967247     -2420.9219
   1   2.0000     -88.964208     -2420.8392
   2   2.0000     -10.326297      -280.9928
   3   2.0000     -10.318842      -280.7900
   4   2.0000     -10.312870      -280.6275
   5   2.0000     -10.305025      -280.4140
   6   2.0000     -10.295370      -280.1513
   7   2.0000     -10.292994      -280.0866
   8   2.0000     -10.288546      -279.9656
   9   2.0000     -10.287174      -279.9282
  10   2.0000     -10.285844      -279.8921
  11   2.0000     -10.284919      -279.8669
  12   2.0000     -10.282000      -279.7874
  13   2.0000     -10.281766      -279.7811
  14   2.0000     -10.278556      -279.6937
  15   2.0000     -10.268650      -279.4242
  16   2.0000      -8.081954      -219.9212
  17   2.0000      -8.080226      -219.8741
  18   2.0000      -6.040543      -164.3715
  19   2.0000      -6.038659      -164.3203
  20   2.0000      -6.036382      -164.2583
  21   2.0000      -6.034530      -164.2079
  22   2.0000      -6.032740      -164.1592
  23   2.0000      -6.031020      -164.1124
  24   2.0000      -1.017552       -27.6890
  25   2.0000      -0.994554       -27.0632
  26   2.0000      -0.913982       -24.8707
  27   2.0000      -0.910921       -24.7874
  28   2.0000      -0.870610       -23.6905
  29   2.0000      -0.851820       -23.1792
  30   2.0000      -0.843399       -22.9501
  31   2.0000      -0.813531       -22.1373
  32   2.0000      -0.789589       -21.4858
  33   2.0000      -0.778817       -21.1927
  34   2.0000      -0.711192       -19.3525
  35   2.0000      -0.709369       -19.3029
  36   2.0000      -0.695316       -18.9205
  37   2.0000      -0.672392       -18.2967
  38   2.0000      -0.637836       -17.3564
  39   2.0000      -0.623008       -16.9529
  40   2.0000      -0.599332       -16.3087
  41   2.0000      -0.571629       -15.5548
  42   2.0000      -0.567444       -15.4409
  43   2.0000      -0.556123       -15.1329
  44   2.0000      -0.540920       -14.7192
  45   2.0000      -0.532713       -14.4959
  46   2.0000      -0.517890       -14.0925
  47   2.0000      -0.511285       -13.9128
  48   2.0000      -0.503873       -13.7111
  49   2.0000      -0.493902       -13.4398
  50   2.0000      -0.488917       -13.3041
  51   2.0000      -0.479201       -13.0397
  52   2.0000      -0.472701       -12.8629
  53   2.0000      -0.467035       -12.7087
  54   2.0000      -0.455970       -12.4076
  55   2.0000      -0.451683       -12.2909
  56   2.0000      -0.446844       -12.1593
  57   2.0000      -0.438115       -11.9217
  58   2.0000      -0.435092       -11.8395
  59   2.0000      -0.428415       -11.6578
  60   2.0000      -0.422590       -11.4993
  61   2.0000      -0.414802       -11.2873
  62   2.0000      -0.399653       -10.8751
  63   2.0000      -0.356635        -9.7045
  64   2.0000      -0.334180        -9.0935
  65   2.0000      -0.329564        -8.9679
  66   2.0000      -0.288982        -7.8636
  67   0.0000       0.031176         0.8483
  68   0.0000       0.083392         2.2692
  69   0.0000       0.113655         3.0927
  70   0.0000       0.116436         3.1684
  71   0.0000       0.139305         3.7907

MULLIKEN ATOMIC CHARGES
-----------------------
   0 S :    0.100715
   1 C :   -0.084812
   2 C :   -0.070196
   3 C :   -0.027990
   4 C :   -0.109771
   5 H :    0.021183
   6 C :    0.089668
   7 H :   -0.009557
   8 H :    0.038358
   9 C :   -0.044357
  10 H :    0.031406
  11 H :    0.013574
  12 C :   -0.073692
  13 H :    0.025476
  14 H :    0.016428
  15 H :    0.057292
  16 S :    0.110653
  17 C :   -0.079057
  18 C :    0.011258
  19 C :   -0.116167
  20 C :   -0.143117
  21 H :   -0.032061
  22 C :    0.171238
  23 H :   -0.008327
  24 H :    0.044508
  25 C :   -0.095288
  26 H :    0.017003
  27 H :    0.035225
  28 C :   -0.019283
  29 H :   -0.008384
  30 H :    0.010244
  31 H :    0.063553
  32 H :    0.005918
  33 H :    0.058359
Sum of atomic charges:   -0.0000000

LOEWDIN ATOMIC CHARGES
----------------------
   0 S :    0.424032
   1 C :   -0.187416
   2 C :   -0.057039
   3 C :   -0.081640
   4 C :   -0.186728
   5 H :    0.028312
   6 C :   -0.027146
   7 H :    0.016616
   8 H :    0.037416
   9 C :   -0.029784
  10 H :    0.027375
  11 H :    0.012459
  12 C :   -0.069258
  13 H :    0.022934
  14 H :    0.018236
  15 H :    0.035635
  16 S :    0.440002
  17 C :   -0.195835
  18 C :   -0.055018
  19 C :   -0.062254
  20 C :   -0.201907
  21 H :    0.011852
  22 C :   -0.015999
  23 H :    0.007270
  24 H :    0.036197
  25 C :   -0.040817
  26 H :    0.020862
  27 H :    0.022693
  28 C :   -0.077915
  29 H :    0.016736
  30 H :    0.021080
  31 H :    0.048082
  32 H :    0.010238
  33 H :    0.030730

  Mayer bond orders larger than 0.100000
B(  0-S ,  1-C ) :   1.1306 B(  0-S ,  4-C ) :   1.1489 B(  1-C ,  2-C ) :   1.6033
B(  1-C , 32-H ) :   0.9800 B(  2-C ,  3-C ) :   1.2468 B(  2-C ,  6-C ) :   1.0273
B(  3-C ,  4-C ) :   1.5810 B(  3-C ,  5-H ) :   0.9853 B(  4-C , 20-C ) :   1.0350
B(  6-C ,  7-H ) :   0.9388 B(  6-C ,  8-H ) :   0.9395 B(  6-C ,  9-C ) :   1.0718
B(  9-C , 10-H ) :   0.9587 B(  9-C , 11-H ) :   0.9577 B(  9-C , 12-C ) :   1.0583
B( 12-C , 13-H ) :   0.9760 B( 12-C , 14-H ) :   0.9760 B( 12-C , 15-H ) :   0.9773
B( 16-S , 17-C ) :   1.1667 B( 16-S , 20-C ) :   1.1507 B( 17-C , 18-C ) :   1.5777
B( 17-C , 33-H ) :   0.9698 B( 18-C , 19-C ) :   1.2519 B( 18-C , 21-H ) :   1.0079
B( 19-C , 20-C ) :   1.6065 B( 19-C , 22-C ) :   1.0138 B( 22-C , 23-H ) :   0.9189
B( 22-C , 24-H ) :   0.9319 B( 22-C , 25-C ) :   1.0825 B( 25-C , 26-H ) :   0.9539
B( 25-C , 27-H ) :   0.9611 B( 25-C , 28-C ) :   1.0630 B( 28-C , 29-H ) :   0.9610
B( 28-C , 30-H ) :   0.9659 B( 28-C , 31-H ) :   0.9725

Dispersion correction           -0.014963465
FINAL SINGLE POINT ENERGY     -1339.851409489415

DIPOLE MOMENT
-------------
                                X             Y             Z
Electronic contribution:      7.52592       9.26966      -2.58138
Nuclear contribution   :     -7.61542      -9.50702       2.75769
                        -----------------------------------------
Total Dipole Moment    :     -0.08950      -0.23736       0.17631
                        -----------------------------------------
Magnitude (a.u.)       :      0.30893
Magnitude (Debye)      :      0.78524

Rotational constants in cm-1:     0.024081     0.008159     0.006768
Rotational constants in MHz :   721.935175   244.586498   202.887258

                             ****ORCA TERMINATED NORMALLY****
TOTAL RUN TIME: 0 days 0 hours 0 minutes 20 seconds 958 msec
