                         Program Version 4.2.1 -  RELEASE  -
|  1> ! wB97X-D3 SP def2-SVP
|  2> %pal
|  3> nprocs 24
|  4> end
|  5>
|  6> * xyz 0 1
|  7> S 	 -107.385 	 3.08183 	 -106.209
|  8> C 	 -106.767 	 4.59865 	 -106.711
|  9> C 	 -105.435 	 4.77128 	 -106.354
| 10> C 	 -104.934 	 3.68264 	 -105.52
| 11> C 	 -105.903 	 2.75503 	 -105.287
| 12> H 	 -103.993 	 3.66261 	 -104.971
| 13> C 	 -104.619 	 6.01341 	 -106.719
| 14> H 	 -103.974 	 5.74445 	 -107.595
| 15> H 	 -104.007 	 6.10436 	 -105.82
| 16> C 	 -105.295 	 7.37506 	 -107.185
| 17> H 	 -105.774 	 7.21863 	 -108.166
| 18> H 	 -106.102 	 7.5395 	 -106.459
| 19> C 	 -104.416 	 8.63016 	 -107.078
| 20> H 	 -103.513 	 8.57754 	 -107.652
| 21> H 	 -105.001 	 9.37923 	 -107.674
| 22> H 	 -104.214 	 8.95207 	 -106.032
| 23> S 	 -106.538 	 0.0586245 	 -105.051
| 24> C 	 -105.948 	 -0.816631 	 -103.672
| 25> C 	 -105.174 	 -0.0484127 	 -102.873
| 26> C 	 -105.043 	 1.28814 	 -103.29
| 27> C 	 -105.833 	 1.54657 	 -104.472
| 28> H 	 -104.837 	 -0.477037 	 -101.968
| 29> C 	 -104.214 	 2.28819 	 -102.54
| 30> H 	 -103.677 	 2.90985 	 -103.161
| 31> H 	 -103.483 	 1.75954 	 -101.976
| 32> C 	 -104.974 	 3.21838 	 -101.55
| 33> H 	 -104.231 	 3.69378 	 -100.95
| 34> H 	 -105.516 	 2.56498 	 -100.848
| 35> C 	 -105.854 	 4.26776 	 -102.129
| 36> H 	 -106.552 	 4.68937 	 -101.408
| 37> H 	 -106.529 	 3.84884 	 -102.861
| 38> H 	 -105.278 	 5.08215 	 -102.625
| 39> H 	 -107.193 	 5.31521 	 -107.349
| 40> H 	 -106.2 	 -1.8885 	 -103.488
| 41> *
| 42>
| 43>                          ****END OF INPUT****

CARTESIAN COORDINATES (ANGSTROEM)
---------------------------------
  S    -107.385000    3.081830  -106.209000
  C    -106.767000    4.598650  -106.711000
  C    -105.435000    4.771280  -106.354000
  C    -104.934000    3.682640  -105.520000
  C    -105.903000    2.755030  -105.287000
  H    -103.993000    3.662610  -104.971000
  C    -104.619000    6.013410  -106.719000
  H    -103.974000    5.744450  -107.595000
  H    -104.007000    6.104360  -105.820000
  C    -105.295000    7.375060  -107.185000
  H    -105.774000    7.218630  -108.166000
  H    -106.102000    7.539500  -106.459000
  C    -104.416000    8.630160  -107.078000
  H    -103.513000    8.577540  -107.652000
  H    -105.001000    9.379230  -107.674000
  H    -104.214000    8.952070  -106.032000
  S    -106.538000    0.058625  -105.051000
  C    -105.948000   -0.816631  -103.672000
  C    -105.174000   -0.048413  -102.873000
  C    -105.043000    1.288140  -103.290000
  C    -105.833000    1.546570  -104.472000
  H    -104.837000   -0.477037  -101.968000
  C    -104.214000    2.288190  -102.540000
  H    -103.677000    2.909850  -103.161000
  H    -103.483000    1.759540  -101.976000
  C    -104.974000    3.218380  -101.550000
  H    -104.231000    3.693780  -100.950000
  H    -105.516000    2.564980  -100.848000
  C    -105.854000    4.267760  -102.129000
  H    -106.552000    4.689370  -101.408000
  H    -106.529000    3.848840  -102.861000
  H    -105.278000    5.082150  -102.625000
  H    -107.193000    5.315210  -107.349000
  H    -106.200000   -1.888500  -103.488000

 Total Charge           Charge          ....    0
 Multiplicity           Mult            ....    1
 Number of Electrons    NEL             ....  134
 Basis Dimension        Dim             ....  322

ORBITAL ENERGIES
----------------

  NO   OCC          E(Eh)            E(eV)
   0   2.0000     -88.967109     -2420.9181
   1   2.0000     -88.964848     -2420.8566
   2   2.0000     -10.330340      -281.1029
   3   2.0000     -10.330092      -281.0961
   4   2.0000     -10.315508      -280.6992
   5   2.0000     -10.305258      -280.4203
   6   2.0000     -10.305180      -280.4182
   7   2.0000     -10.303383      -280.3693
   8   2.0000     -10.297403      -280.2066
   9   2.0000     -10.297296      -280.2037
  10   2.0000     -10.295964      -280.1674
  11   2.0000     -10.287690      -279.9423
  12   2.0000     -10.286898      -279.9207
  13   2.0000     -10.283367      -279.8246
  14   2.0000     -10.280195      -279.7383
  15   2.0000     -10.268239      -279.4130
  16   2.0000      -8.082083      -219.9247
  17   2.0000      -8.079727      -219.8606
  18   2.0000      -6.040549      -164.3717
  19   2.0000      -6.038273      -164.3098
  20   2.0000      -6.036459      -164.2604
  21   2.0000      -6.034311      -164.2019
  22   2.0000      -6.032988      -164.1659
  23   2.0000      -6.030356      -164.0943
  24   2.0000      -1.006884       -27.3987
  25   2.0000      -0.984883       -26.8000
  26   2.0000      -0.912374       -24.8270
  27   2.0000      -0.903208       -24.5775
  28   2.0000      -0.870712       -23.6933
  29   2.0000      -0.854382       -23.2489
  30   2.0000      -0.848666       -23.0934
  31   2.0000      -0.818162       -22.2633
  32   2.0000      -0.785724       -21.3806
  33   2.0000      -0.768139       -20.9021
  34   2.0000      -0.709793       -19.3144
  35   2.0000      -0.703143       -19.1335
  36   2.0000      -0.689335       -18.7578
  37   2.0000      -0.660108       -17.9624
  38   2.0000      -0.635919       -17.3042
  39   2.0000      -0.617424       -16.8010
  40   2.0000      -0.597865       -16.2687
  41   2.0000      -0.570379       -15.5208
  42   2.0000      -0.565524       -15.3887
  43   2.0000      -0.548535       -14.9264
  44   2.0000      -0.546391       -14.8681
  45   2.0000      -0.521044       -14.1783
  46   2.0000      -0.516450       -14.0533
  47   2.0000      -0.509685       -13.8692
  48   2.0000      -0.503539       -13.7020
  49   2.0000      -0.500458       -13.6181
  50   2.0000      -0.489728       -13.3262
  51   2.0000      -0.481962       -13.1148
  52   2.0000      -0.475602       -12.9418
  53   2.0000      -0.471211       -12.8223
  54   2.0000      -0.463771       -12.6199
  55   2.0000      -0.451186       -12.2774
  56   2.0000      -0.446415       -12.1476
  57   2.0000      -0.435216       -11.8428
  58   2.0000      -0.430837       -11.7237
  59   2.0000      -0.423232       -11.5167
  60   2.0000      -0.419496       -11.4151
  61   2.0000      -0.415305       -11.3010
  62   2.0000      -0.407591       -11.0911
  63   2.0000      -0.357898        -9.7389
  64   2.0000      -0.335199        -9.1212
  65   2.0000      -0.324073        -8.8185
  66   2.0000      -0.282179        -7.6785
  67   0.0000       0.024465         0.6657
  68   0.0000       0.079009         2.1500
  69   0.0000       0.109450         2.9783
  70   0.0000       0.120415         3.2767
  71   0.0000       0.133824         3.6415

MULLIKEN ATOMIC CHARGES
-----------------------
   0 S :    0.107061
   1 C :   -0.076013
   2 C :   -0.126606
   3 C :    0.022262
   4 C :   -0.147138
   5 H :    0.015790
   6 C :    0.039092
   7 H :    0.050337
   8 H :    0.025136
   9 C :   -0.115585
  10 H :    0.043803
  11 H :    0.033192
  12 C :   -0.041527
  13 H :    0.027004
  14 H :    0.037018
  15 H :    0.053962
  16 S :    0.109083
  17 C :   -0.110354
  18 C :   -0.016252
  19 C :   -0.049856
  20 C :   -0.131284
  21 H :    0.001588
  22 C :    0.127734
  23 H :   -0.016595
  24 H :    0.004146
  25 C :   -0.052945
  26 H :    0.016528
  27 H :    0.018318
  28 C :   -0.035558
  29 H :    0.029462
  30 H :    0.034754
  31 H :    0.030492
  32 H :    0.021500
  33 H :    0.071452
Sum of atomic charges:   -0.0000000

LOEWDIN ATOMIC CHARGES
----------------------
   0 S :    0.400345
   1 C :   -0.209549
   2 C :   -0.058827
   3 C :   -0.064731
   4 C :   -0.178012
   5 H :    0.032694
   6 C :   -0.042883
   7 H :    0.039010
   8 H :    0.028509
   9 C :   -0.047136
  10 H :    0.025769
  11 H :    0.025082
  12 C :   -0.065566
  13 H :    0.019649
  14 H :    0.037271
  15 H :    0.033740
  16 S :    0.416406
  17 C :   -0.194510
  18 C :   -0.071178
  19 C :   -0.051129
  20 C :   -0.204023
  21 H :    0.027945
  22 C :   -0.022633
  23 H :    0.013077
  24 H :    0.030128
  25 C :   -0.033264
  26 H :    0.018893
  27 H :    0.023521
  28 C :   -0.069092
  29 H :    0.028626
  30 H :    0.026922
  31 H :    0.027081
  32 H :    0.018615
  33 H :    0.039247

  Mayer bond orders larger than 0.100000
B(  0-S ,  1-C ) :   1.1198 B(  0-S ,  4-C ) :   1.1336 B(  1-C ,  2-C ) :   1.6527
B(  1-C , 32-H ) :   0.9638 B(  2-C ,  3-C ) :   1.2148 B(  2-C ,  6-C ) :   1.0081
B(  3-C ,  4-C ) :   1.6048 B(  3-C ,  5-H ) :   0.9867 B(  4-C , 20-C ) :   1.0547
B(  6-C ,  7-H ) :   0.9318 B(  6-C ,  8-H ) :   0.9486 B(  6-C ,  9-C ) :   1.0623
B(  9-C , 10-H ) :   0.9526 B(  9-C , 11-H ) :   0.9579 B(  9-C , 12-C ) :   1.0842
B( 12-C , 13-H ) :   0.9755 B( 12-C , 14-H ) :   0.9703 B( 12-C , 15-H ) :   0.9750
B( 16-S , 17-C ) :   1.1584 B( 16-S , 20-C ) :   1.1623 B( 17-C , 18-C ) :   1.5933
B( 17-C , 20-C ) :   0.1045 B( 17-C , 33-H ) :   0.9604 B( 18-C , 19-C ) :   1.2762
B( 18-C , 21-H ) :   0.9982 B( 19-C , 20-C ) :   1.5267 B( 19-C , 22-C ) :   1.0504
B( 22-C , 23-H ) :   0.9279 B( 22-C , 24-H ) :   0.9195 B( 22-C , 25-C ) :   1.0772
B( 25-C , 26-H ) :   0.9521 B( 25-C , 27-H ) :   0.9522 B( 25-C , 28-C ) :   1.0944
B( 28-C , 29-H ) :   0.9674 B( 28-C , 30-H ) :   0.9697 B( 28-C , 31-H ) :   0.9697

Dispersion correction           -0.015143661
FINAL SINGLE POINT ENERGY     -1339.880443105765

DIPOLE MOMENT
-------------
                                X             Y             Z
Electronic contribution:    -11.58798     -26.43583      -6.58595
Nuclear contribution   :     12.06052      26.83519       6.85330
                        -----------------------------------------
Total Dipole Moment    :      0.47254       0.39936       0.26735
                        -----------------------------------------
Magnitude (a.u.)       :      0.67399
Magnitude (Debye)      :      1.71314

Rotational constants in cm-1:     0.023586     0.007955     0.006539
Rotational constants in MHz :   707.075811   238.470808   196.039966

                             ****ORCA TERMINATED NORMALLY****
TOTAL RUN TIME: 0 days 0 hours 0 minutes 22 seconds 243 msec
