                         Program Version 4.2.1 -  RELEASE  -
|  1> ! wB97X-D3 SP def2-SVP
|  2> %pal
|  3> nprocs 24
|  4> end
|  5>
|  6> * xyz 0 1
|  7> S 	 -118.495 	 49.1574 	 -27.5939
|  8> C 	 -118.98 	 48.6382 	 -29.2441
|  9> C 	 -120.365 	 48.6091 	 -29.319
| 10> C 	 -121.041 	 49.1522 	 -28.1361
| 11> C 	 -120.153 	 49.3822 	 -27.069
| 12> H 	 -122.05 	 49.3096 	 -28.1265
| 13> C 	 -121.154 	 48.1865 	 -30.5645
| 14> H 	 -120.493 	 47.8806 	 -31.388
| 15> H 	 -121.666 	 49.0381 	 -31.1218
| 16> C 	 -122.178 	 47.0817 	 -30.3974
| 17> H 	 -122.811 	 47.3316 	 -29.5587
| 18> H 	 -122.638 	 46.9529 	 -31.4225
| 19> C 	 -121.588 	 45.6593 	 -30.1128
| 20> H 	 -122.328 	 44.8618 	 -29.7453
| 21> H 	 -121.192 	 45.2637 	 -31.0038
| 22> H 	 -120.876 	 45.7429 	 -29.2614
| 23> S 	 -119.447 	 50.7735 	 -24.749
| 24> C 	 -120.356 	 50.5161 	 -23.3024
| 25> C 	 -121.328 	 49.5712 	 -23.5103
| 26> C 	 -121.437 	 49.0485 	 -24.8413
| 27> C 	 -120.488 	 49.6726 	 -25.6646
| 28> H 	 -121.942 	 49.2686 	 -22.668
| 29> C 	 -122.404 	 47.9124 	 -25.0781
| 30> H 	 -122.277 	 47.0535 	 -24.3923
| 31> H 	 -122.305 	 47.5892 	 -26.1071
| 32> C 	 -123.99 	 48.2809 	 -25.0084
| 33> H 	 -124.228 	 48.9579 	 -24.1254
| 34> H 	 -124.6 	 47.4228 	 -25.003
| 35> C 	 -124.412 	 49.2253 	 -26.1547
| 36> H 	 -124.01 	 48.8858 	 -27.1226
| 37> H 	 -124.194 	 50.2616 	 -25.9534
| 38> H 	 -125.486 	 49.24 	 -26.3361
| 39> H 	 -118.255 	 48.2661 	 -29.9955
| 40> H 	 -120.244 	 51.1543 	 -22.3737
| 41> *
| 42>
| 43>                          ****END OF INPUT****

CARTESIAN COORDINATES (ANGSTROEM)
---------------------------------
  S    -118.495000   49.157400  -27.593900
  C    -118.980000   48.638200  -29.244100
  C    -120.365000   48.609100  -29.319000
  C    -121.041000   49.152200  -28.136100
  C    -120.153000   49.382200  -27.069000
  H    -122.050000   49.309600  -28.126500
  C    -121.154000   48.186500  -30.564500
  H    -120.493000   47.880600  -31.388000
  H    -121.666000   49.038100  -31.121800
  C    -122.178000   47.081700  -30.397400
  H    -122.811000   47.331600  -29.558700
  H    -122.638000   46.952900  -31.422500
  C    -121.588000   45.659300  -30.112800
  H    -122.328000   44.861800  -29.745300
  H    -121.192000   45.263700  -31.003800
  H    -120.876000   45.742900  -29.261400
  S    -119.447000   50.773500  -24.749000
  C    -120.356000   50.516100  -23.302400
  C    -121.328000   49.571200  -23.510300
  C    -121.437000   49.048500  -24.841300
  C    -120.488000   49.672600  -25.664600
  H    -121.942000   49.268600  -22.668000
  C    -122.404000   47.912400  -25.078100
  H    -122.277000   47.053500  -24.392300
  H    -122.305000   47.589200  -26.107100
  C    -123.990000   48.280900  -25.008400
  H    -124.228000   48.957900  -24.125400
  H    -124.600000   47.422800  -25.003000
  C    -124.412000   49.225300  -26.154700
  H    -124.010000   48.885800  -27.122600
  H    -124.194000   50.261600  -25.953400
  H    -125.486000   49.240000  -26.336100
  H    -118.255000   48.266100  -29.995500
  H    -120.244000   51.154300  -22.373700

 Total Charge           Charge          ....    0
 Multiplicity           Mult            ....    1
 Number of Electrons    NEL             ....  134
 Basis Dimension        Dim             ....  322

ORBITAL ENERGIES
----------------

  NO   OCC          E(Eh)            E(eV)
   0   2.0000     -88.968354     -2420.9520
   1   2.0000     -88.965894     -2420.8851
   2   2.0000     -10.338027      -281.3120
   3   2.0000     -10.336431      -281.2686
   4   2.0000     -10.322682      -280.8944
   5   2.0000     -10.322463      -280.8885
   6   2.0000     -10.311451      -280.5888
   7   2.0000     -10.308916      -280.5199
   8   2.0000     -10.302328      -280.3406
   9   2.0000     -10.297457      -280.2081
  10   2.0000     -10.296314      -280.1770
  11   2.0000     -10.294884      -280.1380
  12   2.0000     -10.293545      -280.1016
  13   2.0000     -10.291773      -280.0534
  14   2.0000     -10.279533      -279.7203
  15   2.0000     -10.277650      -279.6691
  16   2.0000      -8.083266      -219.9568
  17   2.0000      -8.079937      -219.8663
  18   2.0000      -6.041783      -164.4053
  19   2.0000      -6.038630      -164.3195
  20   2.0000      -6.037728      -164.2949
  21   2.0000      -6.034492      -164.2069
  22   2.0000      -6.034020      -164.1940
  23   2.0000      -6.030576      -164.1003
  24   2.0000      -1.004022       -27.3208
  25   2.0000      -0.978968       -26.6391
  26   2.0000      -0.908560       -24.7232
  27   2.0000      -0.902719       -24.5642
  28   2.0000      -0.865881       -23.5618
  29   2.0000      -0.852027       -23.1848
  30   2.0000      -0.838322       -22.8119
  31   2.0000      -0.811970       -22.0948
  32   2.0000      -0.782781       -21.3006
  33   2.0000      -0.773764       -21.0552
  34   2.0000      -0.709382       -19.3033
  35   2.0000      -0.694343       -18.8940
  36   2.0000      -0.686321       -18.6757
  37   2.0000      -0.656220       -17.8566
  38   2.0000      -0.639037       -17.3891
  39   2.0000      -0.629176       -17.1208
  40   2.0000      -0.600276       -16.3343
  41   2.0000      -0.571051       -15.5391
  42   2.0000      -0.551030       -14.9943
  43   2.0000      -0.548422       -14.9233
  44   2.0000      -0.543256       -14.7827
  45   2.0000      -0.534567       -14.5463
  46   2.0000      -0.518218       -14.1014
  47   2.0000      -0.510636       -13.8951
  48   2.0000      -0.500521       -13.6199
  49   2.0000      -0.497446       -13.5362
  50   2.0000      -0.491535       -13.3753
  51   2.0000      -0.472610       -12.8604
  52   2.0000      -0.467667       -12.7259
  53   2.0000      -0.464357       -12.6358
  54   2.0000      -0.458657       -12.4807
  55   2.0000      -0.449383       -12.2283
  56   2.0000      -0.444858       -12.1052
  57   2.0000      -0.435937       -11.8625
  58   2.0000      -0.432957       -11.7814
  59   2.0000      -0.426510       -11.6059
  60   2.0000      -0.422491       -11.4966
  61   2.0000      -0.414950       -11.2914
  62   2.0000      -0.398714       -10.8496
  63   2.0000      -0.352425        -9.5900
  64   2.0000      -0.332433        -9.0460
  65   2.0000      -0.328498        -8.9389
  66   2.0000      -0.291636        -7.9358
  67   0.0000       0.023698         0.6449
  68   0.0000       0.072045         1.9604
  69   0.0000       0.103412         2.8140
  70   0.0000       0.116242         3.1631
  71   0.0000       0.122791         3.3413

MULLIKEN ATOMIC CHARGES
-----------------------
   0 S :    0.092275
   1 C :   -0.135678
   2 C :   -0.080143
   3 C :    0.073876
   4 C :   -0.112483
   5 H :   -0.044107
   6 C :    0.028429
   7 H :    0.006313
   8 H :    0.049689
   9 C :   -0.081743
  10 H :    0.032685
  11 H :    0.041612
  12 C :   -0.082468
  13 H :    0.040375
  14 H :    0.023370
  15 H :    0.044972
  16 S :    0.107030
  17 C :   -0.111774
  18 C :   -0.043208
  19 C :   -0.007659
  20 C :   -0.160599
  21 H :    0.021155
  22 C :    0.057153
  23 H :    0.051915
  24 H :    0.019019
  25 C :   -0.081495
  26 H :    0.039921
  27 H :    0.031892
  28 C :   -0.072682
  29 H :    0.024446
  30 H :    0.044329
  31 H :    0.026743
  32 H :    0.070698
  33 H :    0.086141
Sum of atomic charges:   -0.0000000

LOEWDIN ATOMIC CHARGES
----------------------
   0 S :    0.382841
   1 C :   -0.190275
   2 C :   -0.059736
   3 C :   -0.056178
   4 C :   -0.178982
   5 H :    0.009714
   6 C :   -0.046516
   7 H :    0.027351
   8 H :    0.042293
   9 C :   -0.043982
  10 H :    0.018686
  11 H :    0.034921
  12 C :   -0.074105
  13 H :    0.033742
  14 H :    0.013986
  15 H :    0.028373
  16 S :    0.405741
  17 C :   -0.200068
  18 C :   -0.072681
  19 C :   -0.052444
  20 C :   -0.191752
  21 H :    0.030999
  22 C :   -0.026653
  23 H :    0.038934
  24 H :    0.026337
  25 C :   -0.034222
  26 H :    0.031108
  27 H :    0.016912
  28 C :   -0.072207
  29 H :    0.017637
  30 H :    0.026685
  31 H :    0.027265
  32 H :    0.039250
  33 H :    0.047025

  Mayer bond orders larger than 0.100000
B(  0-S ,  1-C ) :   1.1145 B(  0-S ,  4-C ) :   1.1559 B(  1-C ,  2-C ) :   1.6250
B(  1-C , 32-H ) :   0.9646 B(  2-C ,  3-C ) :   1.2207 B(  2-C ,  6-C ) :   1.0245
B(  3-C ,  4-C ) :   1.5538 B(  3-C ,  5-H ) :   1.0103 B(  4-C , 20-C ) :   1.0482
B(  6-C ,  7-H ) :   0.9414 B(  6-C ,  8-H ) :   0.9422 B(  6-C ,  9-C ) :   1.0674
B(  9-C , 10-H ) :   0.9601 B(  9-C , 11-H ) :   0.9564 B(  9-C , 12-C ) :   1.0677
B( 12-C , 13-H ) :   0.9762 B( 12-C , 14-H ) :   0.9781 B( 12-C , 15-H ) :   0.9770
B( 16-S , 17-C ) :   1.1506 B( 16-S , 20-C ) :   1.1462 B( 17-C , 18-C ) :   1.6155
B( 17-C , 33-H ) :   0.9587 B( 18-C , 19-C ) :   1.2357 B( 18-C , 21-H ) :   0.9888
B( 19-C , 20-C ) :   1.5663 B( 19-C , 22-C ) :   1.0474 B( 22-C , 23-H ) :   0.9439
B( 22-C , 24-H ) :   0.9335 B( 22-C , 25-C ) :   1.0543 B( 25-C , 26-H ) :   0.9630
B( 25-C , 27-H ) :   0.9625 B( 25-C , 28-C ) :   1.0666 B( 28-C , 29-H ) :   0.9703
B( 28-C , 30-H ) :   0.9798 B( 28-C , 31-H ) :   0.9693

Dispersion correction           -0.015087028
FINAL SINGLE POINT ENERGY     -1339.870657437334

DIPOLE MOMENT
-------------
                                X             Y             Z
Electronic contribution:     24.02913      15.06427      11.71727
Nuclear contribution   :    -24.65720     -15.37784     -11.74092
                        -----------------------------------------
Total Dipole Moment    :     -0.62807      -0.31357      -0.02365
                        -----------------------------------------
Magnitude (a.u.)       :      0.70240
Magnitude (Debye)      :      1.78535

Rotational constants in cm-1:     0.018254     0.009915     0.007038
Rotational constants in MHz :   547.241881   297.233158   210.985207

                             ****ORCA TERMINATED NORMALLY****
TOTAL RUN TIME: 0 days 0 hours 0 minutes 22 seconds 186 msec
