                         Program Version 4.2.1 -  RELEASE  -
|  1> ! wB97X-D3 SP def2-SVP
|  2> %pal
|  3> nprocs 24
|  4> end
|  5>
|  6> * xyz 0 1
|  7> S 	 -54.0945 	 12.9103 	 -90.5858
|  8> C 	 -53.0397 	 12.3029 	 -91.8502
|  9> C 	 -53.1871 	 12.9672 	 -93.1086
| 10> C 	 -53.9541 	 14.1469 	 -92.7949
| 11> C 	 -54.5231 	 14.2302 	 -91.5504
| 12> H 	 -53.9871 	 15.0468 	 -93.3943
| 13> C 	 -52.3018 	 12.901 	 -94.292
| 14> H 	 -52.9156 	 12.9033 	 -95.1967
| 15> H 	 -51.8389 	 11.9151 	 -94.2366
| 16> C 	 -51.2036 	 14.015 	 -94.5333
| 17> H 	 -51.6392 	 14.9694 	 -94.8198
| 18> H 	 -50.6323 	 14.2116 	 -93.6916
| 19> C 	 -50.2393 	 13.6101 	 -95.6807
| 20> H 	 -50.848 	 13.6489 	 -96.582
| 21> H 	 -49.3489 	 14.3584 	 -95.8636
| 22> H 	 -49.8496 	 12.5618 	 -95.5673
| 23> S 	 -55.4961 	 15.5175 	 -89.1577
| 24> C 	 -56.6459 	 16.7958 	 -89.3116
| 25> C 	 -56.9674 	 17.0747 	 -90.5907
| 26> C 	 -56.236 	 16.2125 	 -91.5139
| 27> C 	 -55.3489 	 15.2998 	 -90.9301
| 28> H 	 -57.6013 	 17.8746 	 -90.7765
| 29> C 	 -56.5974 	 16.305 	 -92.9932
| 30> H 	 -57.6224 	 16.5038 	 -93.182
| 31> H 	 -56.4039 	 15.3302 	 -93.4034
| 32> C 	 -55.8539 	 17.4831 	 -93.6827
| 33> H 	 -54.8391 	 17.1331 	 -93.5884
| 34> H 	 -56.0506 	 18.3132 	 -93.0226
| 35> C 	 -56.2421 	 17.8276 	 -95.1106
| 36> H 	 -55.7096 	 17.1678 	 -95.8402
| 37> H 	 -55.8917 	 18.8402 	 -95.2645
| 38> H 	 -57.3104 	 17.5674 	 -95.2701
| 39> H 	 -52.4207 	 11.4219 	 -91.8747
| 40> H 	 -56.9689 	 17.2841 	 -88.4433
| 41> *
| 42>
| 43>                          ****END OF INPUT****

CARTESIAN COORDINATES (ANGSTROEM)
---------------------------------
  S    -54.094500   12.910300  -90.585800
  C    -53.039700   12.302900  -91.850200
  C    -53.187100   12.967200  -93.108600
  C    -53.954100   14.146900  -92.794900
  C    -54.523100   14.230200  -91.550400
  H    -53.987100   15.046800  -93.394300
  C    -52.301800   12.901000  -94.292000
  H    -52.915600   12.903300  -95.196700
  H    -51.838900   11.915100  -94.236600
  C    -51.203600   14.015000  -94.533300
  H    -51.639200   14.969400  -94.819800
  H    -50.632300   14.211600  -93.691600
  C    -50.239300   13.610100  -95.680700
  H    -50.848000   13.648900  -96.582000
  H    -49.348900   14.358400  -95.863600
  H    -49.849600   12.561800  -95.567300
  S    -55.496100   15.517500  -89.157700
  C    -56.645900   16.795800  -89.311600
  C    -56.967400   17.074700  -90.590700
  C    -56.236000   16.212500  -91.513900
  C    -55.348900   15.299800  -90.930100
  H    -57.601300   17.874600  -90.776500
  C    -56.597400   16.305000  -92.993200
  H    -57.622400   16.503800  -93.182000
  H    -56.403900   15.330200  -93.403400
  C    -55.853900   17.483100  -93.682700
  H    -54.839100   17.133100  -93.588400
  H    -56.050600   18.313200  -93.022600
  C    -56.242100   17.827600  -95.110600
  H    -55.709600   17.167800  -95.840200
  H    -55.891700   18.840200  -95.264500
  H    -57.310400   17.567400  -95.270100
  H    -52.420700   11.421900  -91.874700
  H    -56.968900   17.284100  -88.443300

 Total Charge           Charge          ....    0
 Multiplicity           Mult            ....    1
 Number of Electrons    NEL             ....  134
 Basis Dimension        Dim             ....  322

ORBITAL ENERGIES
----------------

  NO   OCC          E(Eh)            E(eV)
   0   2.0000     -88.971979     -2421.0506
   1   2.0000     -88.963394     -2420.8170
   2   2.0000     -10.335620      -281.2465
   3   2.0000     -10.328295      -281.0472
   4   2.0000     -10.319775      -280.8154
   5   2.0000     -10.313201      -280.6365
   6   2.0000     -10.307784      -280.4891
   7   2.0000     -10.306869      -280.4642
   8   2.0000     -10.299633      -280.2673
   9   2.0000     -10.293136      -280.0905
  10   2.0000     -10.291870      -280.0560
  11   2.0000     -10.290458      -280.0176
  12   2.0000     -10.289473      -279.9908
  13   2.0000     -10.283644      -279.8322
  14   2.0000     -10.282202      -279.7930
  15   2.0000     -10.281146      -279.7642
  16   2.0000      -8.087406      -220.0695
  17   2.0000      -8.078261      -219.8207
  18   2.0000      -6.045860      -164.5162
  19   2.0000      -6.041820      -164.4063
  20   2.0000      -6.038167      -164.3069
  21   2.0000      -6.036895      -164.2723
  22   2.0000      -6.032737      -164.1591
  23   2.0000      -6.028904      -164.0548
  24   2.0000      -1.009774       -27.4774
  25   2.0000      -0.986727       -26.8502
  26   2.0000      -0.913906       -24.8687
  27   2.0000      -0.910034       -24.7633
  28   2.0000      -0.869737       -23.6668
  29   2.0000      -0.853567       -23.2267
  30   2.0000      -0.845042       -22.9948
  31   2.0000      -0.817980       -22.2584
  32   2.0000      -0.783869       -21.3302
  33   2.0000      -0.772178       -21.0120
  34   2.0000      -0.709751       -19.3133
  35   2.0000      -0.698582       -19.0094
  36   2.0000      -0.693164       -18.8619
  37   2.0000      -0.665483       -18.1087
  38   2.0000      -0.642077       -17.4718
  39   2.0000      -0.622618       -16.9423
  40   2.0000      -0.600088       -16.3292
  41   2.0000      -0.577542       -15.7157
  42   2.0000      -0.571848       -15.5608
  43   2.0000      -0.562890       -15.3170
  44   2.0000      -0.535936       -14.5836
  45   2.0000      -0.528464       -14.3802
  46   2.0000      -0.512939       -13.9578
  47   2.0000      -0.507888       -13.8203
  48   2.0000      -0.504058       -13.7161
  49   2.0000      -0.500919       -13.6307
  50   2.0000      -0.495127       -13.4731
  51   2.0000      -0.476866       -12.9762
  52   2.0000      -0.473672       -12.8893
  53   2.0000      -0.459222       -12.4961
  54   2.0000      -0.458591       -12.4789
  55   2.0000      -0.453426       -12.3383
  56   2.0000      -0.445254       -12.1160
  57   2.0000      -0.437251       -11.8982
  58   2.0000      -0.430725       -11.7206
  59   2.0000      -0.428311       -11.6549
  60   2.0000      -0.427806       -11.6412
  61   2.0000      -0.416679       -11.3384
  62   2.0000      -0.412459       -11.2236
  63   2.0000      -0.358574        -9.7573
  64   2.0000      -0.333195        -9.0667
  65   2.0000      -0.327839        -8.9210
  66   2.0000      -0.286851        -7.8056
  67   0.0000       0.025036         0.6813
  68   0.0000       0.078595         2.1387
  69   0.0000       0.098679         2.6852
  70   0.0000       0.115904         3.1539
  71   0.0000       0.127251         3.4627

MULLIKEN ATOMIC CHARGES
-----------------------
   0 S :    0.125103
   1 C :   -0.101744
   2 C :   -0.071595
   3 C :   -0.021604
   4 C :   -0.124412
   5 H :    0.000040
   6 C :    0.039122
   7 H :    0.032417
   8 H :    0.018258
   9 C :   -0.025437
  10 H :    0.028549
  11 H :    0.022292
  12 C :   -0.112076
  13 H :    0.029222
  14 H :    0.057432
  15 H :    0.044244
  16 S :    0.079367
  17 C :   -0.065229
  18 C :    0.016250
  19 C :   -0.092834
  20 C :   -0.096490
  21 H :   -0.000881
  22 C :    0.067313
  23 H :    0.003046
  24 H :    0.021297
  25 C :   -0.090720
  26 H :    0.019817
  27 H :    0.022328
  28 C :   -0.014179
  29 H :    0.028686
  30 H :    0.045239
  31 H :    0.035251
  32 H :    0.040307
  33 H :    0.041620
Sum of atomic charges:    0.0000000

LOEWDIN ATOMIC CHARGES
----------------------
   0 S :    0.436284
   1 C :   -0.191348
   2 C :   -0.061856
   3 C :   -0.068431
   4 C :   -0.206741
   5 H :    0.025123
   6 C :   -0.033830
   7 H :    0.035310
   8 H :    0.030491
   9 C :   -0.029568
  10 H :    0.024817
  11 H :    0.014055
  12 C :   -0.075564
  13 H :    0.021105
  14 H :    0.040023
  15 H :    0.027795
  16 S :    0.382464
  17 C :   -0.166147
  18 C :   -0.065382
  19 C :   -0.046186
  20 C :   -0.190838
  21 H :    0.023908
  22 C :   -0.030334
  23 H :    0.018948
  24 H :    0.022534
  25 C :   -0.040449
  26 H :    0.017794
  27 H :    0.021314
  28 C :   -0.067744
  29 H :    0.029216
  30 H :    0.030785
  31 H :    0.029864
  32 H :    0.023237
  33 H :    0.019350

  Mayer bond orders larger than 0.100000
B(  0-S ,  1-C ) :   1.1577 B(  0-S ,  4-C ) :   1.1431 B(  1-C ,  2-C ) :   1.5883
B(  1-C , 32-H ) :   0.9619 B(  2-C ,  3-C ) :   1.2221 B(  2-C ,  6-C ) :   1.0690
B(  3-C ,  4-C ) :   1.6018 B(  3-C ,  5-H ) :   0.9842 B(  4-C , 20-C ) :   1.0492
B(  6-C ,  7-H ) :   0.9276 B(  6-C ,  8-H ) :   0.9414 B(  6-C ,  9-C ) :   1.0486
B(  9-C , 10-H ) :   0.9523 B(  9-C , 11-H ) :   0.9616 B(  9-C , 12-C ) :   1.0711
B( 12-C , 13-H ) :   0.9784 B( 12-C , 14-H ) :   0.9737 B( 12-C , 15-H ) :   0.9764
B( 16-S , 17-C ) :   1.1584 B( 16-S , 20-C ) :   1.1088 B( 17-C , 18-C ) :   1.6202
B( 17-C , 33-H ) :   0.9718 B( 18-C , 19-C ) :   1.2103 B( 18-C , 21-H ) :   1.0065
B( 19-C , 20-C ) :   1.6110 B( 19-C , 22-C ) :   1.0554 B( 22-C , 23-H ) :   0.9328
B( 22-C , 24-H ) :   0.9340 B( 22-C , 25-C ) :   1.0519 B( 25-C , 26-H ) :   0.9536
B( 25-C , 27-H ) :   0.9591 B( 25-C , 28-C ) :   1.0773 B( 28-C , 29-H ) :   0.9731
B( 28-C , 30-H ) :   0.9740 B( 28-C , 31-H ) :   0.9720

Dispersion correction           -0.013744406
FINAL SINGLE POINT ENERGY     -1339.859760754560

DIPOLE MOMENT
-------------
                                X             Y             Z
Electronic contribution:     -8.63246      -8.28511      30.31984
Nuclear contribution   :      8.69701       8.62503     -30.87842
                        -----------------------------------------
Total Dipole Moment    :      0.06455       0.33992      -0.55858
                        -----------------------------------------
Magnitude (a.u.)       :      0.65705
Magnitude (Debye)      :      1.67009

Rotational constants in cm-1:     0.017033     0.008976     0.006288
Rotational constants in MHz :   510.651326   269.084132   188.515973

                             ****ORCA TERMINATED NORMALLY****
TOTAL RUN TIME: 0 days 0 hours 0 minutes 21 seconds 430 msec
