                         Program Version 4.2.1 -  RELEASE  -
|  1> ! wB97X-D3 SP def2-SVP
|  2> %pal
|  3> nprocs 24
|  4> end
|  5>
|  6> * xyz 0 1
|  7> S 	 -136.877 	 12.6038 	 -2.75562
|  8> C 	 -135.185 	 12.6076 	 -2.383
|  9> C 	 -134.735 	 11.3123 	 -2.14469
| 10> C 	 -135.752 	 10.3047 	 -2.31128
| 11> C 	 -136.955 	 10.8296 	 -2.73365
| 12> H 	 -135.54 	 9.26608 	 -2.10187
| 13> C 	 -133.31 	 10.9529 	 -1.7923
| 14> H 	 -132.646 	 11.7503 	 -2.25599
| 15> H 	 -132.995 	 10.0258 	 -2.31249
| 16> C 	 -133.106 	 10.8494 	 -0.259447
| 17> H 	 -133.529 	 11.6401 	 0.348508
| 18> H 	 -133.547 	 9.86857 	 0.139209
| 19> C 	 -131.582 	 10.7717 	 -0.00554521
| 20> H 	 -131.064 	 11.7417 	 -0.211177
| 21> H 	 -131.327 	 10.6295 	 1.03489
| 22> H 	 -131.002 	 10.0859 	 -0.6298
| 23> S 	 -139.619 	 11.3793 	 -3.3435
| 24> C 	 -140.686 	 10.0096 	 -3.65175
| 25> C 	 -139.99 	 8.82912 	 -3.53721
| 26> C 	 -138.613 	 8.89812 	 -3.26582
| 27> C 	 -138.209 	 10.2197 	 -3.15887
| 28> H 	 -140.609 	 7.93759 	 -3.51411
| 29> C 	 -137.714 	 7.63174 	 -3.08411
| 30> H 	 -136.706 	 7.89693 	 -3.5268
| 31> H 	 -138.129 	 6.76916 	 -3.58287
| 32> C 	 -137.396 	 7.29229 	 -1.53972
| 33> H 	 -138.383 	 7.13175 	 -1.25287
| 34> H 	 -136.956 	 8.15621 	 -1.11374
| 35> C 	 -136.609 	 6.03893 	 -1.30759
| 36> H 	 -135.736 	 5.98148 	 -1.98135
| 37> H 	 -137.128 	 5.17375 	 -1.56694
| 38> H 	 -136.454 	 5.88723 	 -0.194212
| 39> H 	 -134.564 	 13.488 	 -2.23517
| 40> H 	 -141.746 	 10.1062 	 -3.68859
| 41> *
| 42>
| 43>                          ****END OF INPUT****

CARTESIAN COORDINATES (ANGSTROEM)
---------------------------------
  S    -136.877000   12.603800   -2.755620
  C    -135.185000   12.607600   -2.383000
  C    -134.735000   11.312300   -2.144690
  C    -135.752000   10.304700   -2.311280
  C    -136.955000   10.829600   -2.733650
  H    -135.540000    9.266080   -2.101870
  C    -133.310000   10.952900   -1.792300
  H    -132.646000   11.750300   -2.255990
  H    -132.995000   10.025800   -2.312490
  C    -133.106000   10.849400   -0.259447
  H    -133.529000   11.640100    0.348508
  H    -133.547000    9.868570    0.139209
  C    -131.582000   10.771700   -0.005545
  H    -131.064000   11.741700   -0.211177
  H    -131.327000   10.629500    1.034890
  H    -131.002000   10.085900   -0.629800
  S    -139.619000   11.379300   -3.343500
  C    -140.686000   10.009600   -3.651750
  C    -139.990000    8.829120   -3.537210
  C    -138.613000    8.898120   -3.265820
  C    -138.209000   10.219700   -3.158870
  H    -140.609000    7.937590   -3.514110
  C    -137.714000    7.631740   -3.084110
  H    -136.706000    7.896930   -3.526800
  H    -138.129000    6.769160   -3.582870
  C    -137.396000    7.292290   -1.539720
  H    -138.383000    7.131750   -1.252870
  H    -136.956000    8.156210   -1.113740
  C    -136.609000    6.038930   -1.307590
  H    -135.736000    5.981480   -1.981350
  H    -137.128000    5.173750   -1.566940
  H    -136.454000    5.887230   -0.194212
  H    -134.564000   13.488000   -2.235170
  H    -141.746000   10.106200   -3.688590

 Total Charge           Charge          ....    0
 Multiplicity           Mult            ....    1
 Number of Electrons    NEL             ....  134
 Basis Dimension        Dim             ....  322

ORBITAL ENERGIES
----------------

  NO   OCC          E(Eh)            E(eV)
   0   2.0000     -88.965781     -2420.8820
   1   2.0000     -88.964646     -2420.8511
   2   2.0000     -10.336003      -281.2569
   3   2.0000     -10.335109      -281.2326
   4   2.0000     -10.317670      -280.7581
   5   2.0000     -10.313183      -280.6360
   6   2.0000     -10.309608      -280.5387
   7   2.0000     -10.305788      -280.4347
   8   2.0000     -10.300347      -280.2867
   9   2.0000     -10.300190      -280.2824
  10   2.0000     -10.296971      -280.1948
  11   2.0000     -10.296356      -280.1781
  12   2.0000     -10.293145      -280.0907
  13   2.0000     -10.282455      -279.7998
  14   2.0000     -10.281012      -279.7606
  15   2.0000     -10.279392      -279.7165
  16   2.0000      -8.079379      -219.8511
  17   2.0000      -8.079309      -219.8492
  18   2.0000      -6.038064      -164.3041
  19   2.0000      -6.037972      -164.3016
  20   2.0000      -6.034171      -164.1981
  21   2.0000      -6.033965      -164.1925
  22   2.0000      -6.029888      -164.0816
  23   2.0000      -6.029795      -164.0791
  24   2.0000      -1.003714       -27.3124
  25   2.0000      -0.980088       -26.6696
  26   2.0000      -0.908611       -24.7246
  27   2.0000      -0.906875       -24.6773
  28   2.0000      -0.867779       -23.6135
  29   2.0000      -0.857032       -23.3210
  30   2.0000      -0.844219       -22.9724
  31   2.0000      -0.813507       -22.1367
  32   2.0000      -0.783466       -21.3192
  33   2.0000      -0.766943       -20.8696
  34   2.0000      -0.710119       -19.3233
  35   2.0000      -0.701982       -19.1019
  36   2.0000      -0.697401       -18.9772
  37   2.0000      -0.664949       -18.0942
  38   2.0000      -0.637243       -17.3403
  39   2.0000      -0.625070       -17.0090
  40   2.0000      -0.594465       -16.1762
  41   2.0000      -0.576383       -15.6842
  42   2.0000      -0.566384       -15.4121
  43   2.0000      -0.546720       -14.8770
  44   2.0000      -0.528608       -14.3842
  45   2.0000      -0.526982       -14.3399
  46   2.0000      -0.523377       -14.2418
  47   2.0000      -0.510781       -13.8991
  48   2.0000      -0.502849       -13.6832
  49   2.0000      -0.502340       -13.6694
  50   2.0000      -0.498631       -13.5685
  51   2.0000      -0.475193       -12.9307
  52   2.0000      -0.473044       -12.8722
  53   2.0000      -0.465930       -12.6786
  54   2.0000      -0.454419       -12.3654
  55   2.0000      -0.451199       -12.2778
  56   2.0000      -0.448765       -12.2115
  57   2.0000      -0.445000       -12.1091
  58   2.0000      -0.429684       -11.6923
  59   2.0000      -0.422617       -11.5000
  60   2.0000      -0.417165       -11.3516
  61   2.0000      -0.415217       -11.2986
  62   2.0000      -0.410612       -11.1733
  63   2.0000      -0.363443        -9.8898
  64   2.0000      -0.337415        -9.1815
  65   2.0000      -0.326826        -8.8934
  66   2.0000      -0.278508        -7.5786
  67   0.0000       0.013290         0.3616
  68   0.0000       0.077236         2.1017
  69   0.0000       0.090802         2.4709
  70   0.0000       0.122359         3.3296
  71   0.0000       0.127432         3.4676

MULLIKEN ATOMIC CHARGES
-----------------------
   0 S :    0.085175
   1 C :   -0.101630
   2 C :   -0.099709
   3 C :   -0.007758
   4 C :   -0.078727
   5 H :    0.001352
   6 C :    0.010124
   7 H :    0.035910
   8 H :    0.036822
   9 C :   -0.064155
  10 H :    0.040625
  11 H :    0.040721
  12 C :   -0.059290
  13 H :    0.023006
  14 H :    0.028697
  15 H :    0.028595
  16 S :    0.071123
  17 C :   -0.074357
  18 C :   -0.040517
  19 C :   -0.039959
  20 C :   -0.101590
  21 H :    0.015974
  22 C :    0.015502
  23 H :    0.037612
  24 H :    0.026181
  25 C :   -0.052555
  26 H :    0.014668
  27 H :    0.033248
  28 C :   -0.013340
  29 H :    0.027349
  30 H :    0.006580
  31 H :    0.050502
  32 H :    0.050580
  33 H :    0.053238
Sum of atomic charges:   -0.0000000

LOEWDIN ATOMIC CHARGES
----------------------
   0 S :    0.395267
   1 C :   -0.205398
   2 C :   -0.063887
   3 C :   -0.072000
   4 C :   -0.169575
   5 H :    0.028604
   6 C :   -0.038692
   7 H :    0.036586
   8 H :    0.034183
   9 C :   -0.038510
  10 H :    0.026769
  11 H :    0.031962
  12 C :   -0.075779
  13 H :    0.026031
  14 H :    0.021779
  15 H :    0.023776
  16 S :    0.357816
  17 C :   -0.171621
  18 C :   -0.074127
  19 C :   -0.056728
  20 C :   -0.160787
  21 H :    0.031484
  22 C :   -0.023709
  23 H :    0.031555
  24 H :    0.026075
  25 C :   -0.032426
  26 H :    0.018331
  27 H :    0.017787
  28 C :   -0.068405
  29 H :    0.027640
  30 H :    0.016596
  31 H :    0.041425
  32 H :    0.031750
  33 H :    0.026227

  Mayer bond orders larger than 0.100000
B(  0-S ,  1-C ) :   1.1293 B(  0-S ,  4-C ) :   1.1387 B(  1-C ,  2-C ) :   1.6183
B(  1-C , 32-H ) :   0.9673 B(  2-C ,  3-C ) :   1.2526 B(  2-C ,  6-C ) :   1.0251
B(  3-C ,  4-C ) :   1.5458 B(  3-C ,  5-H ) :   0.9884 B(  4-C , 20-C ) :   1.0908
B(  6-C ,  7-H ) :   0.9527 B(  6-C ,  8-H ) :   0.9414 B(  6-C ,  9-C ) :   1.0463
B(  9-C , 10-H ) :   0.9613 B(  9-C , 11-H ) :   0.9548 B(  9-C , 12-C ) :   1.0754
B( 12-C , 13-H ) :   0.9743 B( 12-C , 14-H ) :   0.9747 B( 12-C , 15-H ) :   0.9739
B( 16-S , 17-C ) :   1.1339 B( 16-S , 20-C ) :   1.1203 B( 17-C , 18-C ) :   1.6289
B( 17-C , 20-C ) :   0.1013 B( 17-C , 33-H ) :   0.9703 B( 18-C , 19-C ) :   1.2354
B( 18-C , 21-H ) :   0.9855 B( 19-C , 20-C ) :   1.6091 B( 19-C , 22-C ) :   1.0341
B( 22-C , 23-H ) :   0.9342 B( 22-C , 24-H ) :   0.9442 B( 22-C , 25-C ) :   1.0448
B( 25-C , 26-H ) :   0.9516 B( 25-C , 27-H ) :   0.9577 B( 25-C , 28-C ) :   1.0930
B( 28-C , 29-H ) :   0.9703 B( 28-C , 30-H ) :   0.9678 B( 28-C , 31-H ) :   0.9691

Dispersion correction           -0.013979464
FINAL SINGLE POINT ENERGY     -1339.871767702573

DIPOLE MOMENT
-------------
                                X             Y             Z
Electronic contribution:    -22.90105      19.59838     -13.18755
Nuclear contribution   :     23.18405     -20.24116      13.54805
                        -----------------------------------------
Total Dipole Moment    :      0.28299      -0.64277       0.36051
                        -----------------------------------------
Magnitude (a.u.)       :      0.78944
Magnitude (Debye)      :      2.00659

Rotational constants in cm-1:     0.018445     0.008964     0.006251
Rotational constants in MHz :   552.981735   268.733232   187.385524

                             ****ORCA TERMINATED NORMALLY****
TOTAL RUN TIME: 0 days 0 hours 0 minutes 20 seconds 445 msec
