                         Program Version 4.2.1 -  RELEASE  -
|  1> ! wB97X-D3 SP def2-SVP
|  2> %pal
|  3> nprocs 24
|  4> end
|  5>
|  6> * xyz 0 1
|  7> S 	 -123.503 	 54.9615 	 -34.7948
|  8> C 	 -122.622 	 53.8723 	 -33.7709
|  9> C 	 -121.994 	 54.5723 	 -32.7969
| 10> C 	 -122.405 	 55.9225 	 -32.7635
| 11> C 	 -123.208 	 56.326 	 -33.7985
| 12> H 	 -122.049 	 56.6381 	 -32.0323
| 13> C 	 -121.23 	 53.9816 	 -31.6786
| 14> H 	 -121.55 	 52.961 	 -31.4049
| 15> H 	 -121.517 	 54.4843 	 -30.8114
| 16> C 	 -119.69 	 53.8919 	 -31.9937
| 17> H 	 -119.379 	 53.3521 	 -32.8688
| 18> H 	 -119.389 	 54.9062 	 -32.1081
| 19> C 	 -118.845 	 53.2385 	 -30.9593
| 20> H 	 -117.832 	 53.5754 	 -30.9597
| 21> H 	 -119.38 	 53.4196 	 -30.0327
| 22> H 	 -118.649 	 52.171 	 -31.0997
| 23> S 	 -124.011 	 58.1954 	 -35.5926
| 24> C 	 -124.354 	 59.8746 	 -35.0769
| 25> C 	 -124.447 	 59.8777 	 -33.7259
| 26> C 	 -124.155 	 58.6227 	 -33.0903
| 27> C 	 -123.888 	 57.6071 	 -33.9626
| 28> H 	 -124.725 	 60.7551 	 -33.1786
| 29> C 	 -124.13 	 58.5904 	 -31.6346
| 30> H 	 -124.107 	 57.6158 	 -31.2538
| 31> H 	 -125.071 	 59.0292 	 -31.3088
| 32> C 	 -122.88 	 59.207 	 -31.0676
| 33> H 	 -122.8 	 60.3327 	 -31.294
| 34> H 	 -122.059 	 58.7425 	 -31.6049
| 35> C 	 -122.857 	 58.9555 	 -29.5
| 36> H 	 -121.859 	 59.0504 	 -29.0687
| 37> H 	 -123.065 	 57.9786 	 -29.1726
| 38> H 	 -123.608 	 59.5523 	 -28.9769
| 39> H 	 -122.401 	 52.8392 	 -33.9795
| 40> H 	 -124.654 	 60.6991 	 -35.6956
| 41> *
| 42>
| 43>                          ****END OF INPUT****

CARTESIAN COORDINATES (ANGSTROEM)
---------------------------------
  S    -123.503000   54.961500  -34.794800
  C    -122.622000   53.872300  -33.770900
  C    -121.994000   54.572300  -32.796900
  C    -122.405000   55.922500  -32.763500
  C    -123.208000   56.326000  -33.798500
  H    -122.049000   56.638100  -32.032300
  C    -121.230000   53.981600  -31.678600
  H    -121.550000   52.961000  -31.404900
  H    -121.517000   54.484300  -30.811400
  C    -119.690000   53.891900  -31.993700
  H    -119.379000   53.352100  -32.868800
  H    -119.389000   54.906200  -32.108100
  C    -118.845000   53.238500  -30.959300
  H    -117.832000   53.575400  -30.959700
  H    -119.380000   53.419600  -30.032700
  H    -118.649000   52.171000  -31.099700
  S    -124.011000   58.195400  -35.592600
  C    -124.354000   59.874600  -35.076900
  C    -124.447000   59.877700  -33.725900
  C    -124.155000   58.622700  -33.090300
  C    -123.888000   57.607100  -33.962600
  H    -124.725000   60.755100  -33.178600
  C    -124.130000   58.590400  -31.634600
  H    -124.107000   57.615800  -31.253800
  H    -125.071000   59.029200  -31.308800
  C    -122.880000   59.207000  -31.067600
  H    -122.800000   60.332700  -31.294000
  H    -122.059000   58.742500  -31.604900
  C    -122.857000   58.955500  -29.500000
  H    -121.859000   59.050400  -29.068700
  H    -123.065000   57.978600  -29.172600
  H    -123.608000   59.552300  -28.976900
  H    -122.401000   52.839200  -33.979500
  H    -124.654000   60.699100  -35.695600

 Total Charge           Charge          ....    0
 Multiplicity           Mult            ....    1
 Number of Electrons    NEL             ....  134
 Basis Dimension        Dim             ....  322

ORBITAL ENERGIES
----------------

  NO   OCC          E(Eh)            E(eV)
   0   2.0000     -88.963763     -2420.8271
   1   2.0000     -88.960039     -2420.7257
   2   2.0000     -10.327944      -281.0376
   3   2.0000     -10.325861      -280.9810
   4   2.0000     -10.319416      -280.8056
   5   2.0000     -10.309731      -280.5420
   6   2.0000     -10.298087      -280.2252
   7   2.0000     -10.296472      -280.1813
   8   2.0000     -10.292913      -280.0844
   9   2.0000     -10.291322      -280.0411
  10   2.0000     -10.289554      -279.9930
  11   2.0000     -10.289216      -279.9838
  12   2.0000     -10.280540      -279.7477
  13   2.0000     -10.279779      -279.7270
  14   2.0000     -10.279606      -279.7223
  15   2.0000     -10.270876      -279.4847
  16   2.0000      -8.079567      -219.8562
  17   2.0000      -8.074904      -219.7293
  18   2.0000      -6.038139      -164.3061
  19   2.0000      -6.033758      -164.1869
  20   2.0000      -6.033680      -164.1848
  21   2.0000      -6.030354      -164.0943
  22   2.0000      -6.029374      -164.0676
  23   2.0000      -6.025374      -163.9588
  24   2.0000      -1.016708       -27.6660
  25   2.0000      -0.993112       -27.0240
  26   2.0000      -0.920178       -25.0393
  27   2.0000      -0.916722       -24.9453
  28   2.0000      -0.878552       -23.9066
  29   2.0000      -0.855915       -23.2906
  30   2.0000      -0.845920       -23.0187
  31   2.0000      -0.822655       -22.3856
  32   2.0000      -0.783792       -21.3281
  33   2.0000      -0.776598       -21.1323
  34   2.0000      -0.712396       -19.3853
  35   2.0000      -0.703662       -19.1476
  36   2.0000      -0.701995       -19.1023
  37   2.0000      -0.671983       -18.2856
  38   2.0000      -0.643807       -17.5189
  39   2.0000      -0.626502       -17.0480
  40   2.0000      -0.603961       -16.4346
  41   2.0000      -0.578714       -15.7476
  42   2.0000      -0.569164       -15.4877
  43   2.0000      -0.560389       -15.2490
  44   2.0000      -0.539561       -14.6822
  45   2.0000      -0.527623       -14.3574
  46   2.0000      -0.526912       -14.3380
  47   2.0000      -0.516539       -14.0557
  48   2.0000      -0.514666       -14.0048
  49   2.0000      -0.502534       -13.6746
  50   2.0000      -0.497385       -13.5345
  51   2.0000      -0.482441       -13.1279
  52   2.0000      -0.477282       -12.9875
  53   2.0000      -0.463634       -12.6161
  54   2.0000      -0.458421       -12.4743
  55   2.0000      -0.451979       -12.2990
  56   2.0000      -0.447910       -12.1883
  57   2.0000      -0.440022       -11.9736
  58   2.0000      -0.428568       -11.6619
  59   2.0000      -0.426297       -11.6001
  60   2.0000      -0.425135       -11.5685
  61   2.0000      -0.412602       -11.2275
  62   2.0000      -0.403370       -10.9763
  63   2.0000      -0.360913        -9.8210
  64   2.0000      -0.332903        -9.0588
  65   2.0000      -0.325047        -8.8450
  66   2.0000      -0.293150        -7.9770
  67   0.0000       0.027484         0.7479
  68   0.0000       0.080245         2.1836
  69   0.0000       0.107570         2.9271
  70   0.0000       0.121790         3.3141
  71   0.0000       0.129229         3.5165

MULLIKEN ATOMIC CHARGES
-----------------------
   0 S :    0.106109
   1 C :   -0.104478
   2 C :   -0.064341
   3 C :   -0.023538
   4 C :   -0.090598
   5 H :   -0.008851
   6 C :    0.062465
   7 H :    0.016552
   8 H :    0.007214
   9 C :   -0.054248
  10 H :    0.024961
  11 H :    0.018960
  12 C :   -0.031606
  13 H :    0.024726
  14 H :    0.023324
  15 H :    0.027506
  16 S :    0.069240
  17 C :   -0.071690
  18 C :   -0.017555
  19 C :   -0.104376
  20 C :   -0.067022
  21 H :    0.011676
  22 C :    0.091630
  23 H :   -0.003524
  24 H :    0.026729
  25 C :   -0.107920
  26 H :    0.043795
  27 H :    0.036761
  28 C :   -0.019267
  29 H :    0.031947
  30 H :    0.006994
  31 H :    0.034844
  32 H :    0.045967
  33 H :    0.057613
Sum of atomic charges:   -0.0000000

LOEWDIN ATOMIC CHARGES
----------------------
   0 S :    0.424372
   1 C :   -0.190205
   2 C :   -0.068101
   3 C :   -0.070852
   4 C :   -0.199163
   5 H :    0.026377
   6 C :   -0.027785
   7 H :    0.030905
   8 H :    0.023160
   9 C :   -0.037157
  10 H :    0.025743
  11 H :    0.019796
  12 C :   -0.067682
  13 H :    0.025657
  14 H :    0.023195
  15 H :    0.025289
  16 S :    0.383844
  17 C :   -0.164161
  18 C :   -0.064500
  19 C :   -0.059875
  20 C :   -0.194239
  21 H :    0.028665
  22 C :   -0.036401
  23 H :    0.021108
  24 H :    0.033267
  25 C :   -0.033579
  26 H :    0.031827
  27 H :    0.021529
  28 C :   -0.067885
  29 H :    0.028288
  30 H :    0.016457
  31 H :    0.029720
  32 H :    0.030318
  33 H :    0.032069

  Mayer bond orders larger than 0.100000
B(  0-S ,  1-C ) :   1.1444 B(  0-S ,  4-C ) :   1.1585 B(  1-C ,  2-C ) :   1.6054
B(  1-C , 32-H ) :   0.9652 B(  2-C ,  3-C ) :   1.2673 B(  2-C ,  6-C ) :   1.0291
B(  3-C ,  4-C ) :   1.5618 B(  3-C ,  5-H ) :   0.9907 B(  4-C , 20-C ) :   1.0121
B(  6-C ,  7-H ) :   0.9457 B(  6-C ,  8-H ) :   0.9377 B(  6-C ,  9-C ) :   1.0468
B(  9-C , 10-H ) :   0.9623 B(  9-C , 11-H ) :   0.9573 B(  9-C , 12-C ) :   1.0852
B( 12-C , 13-H ) :   0.9696 B( 12-C , 14-H ) :   0.9734 B( 12-C , 15-H ) :   0.9754
B( 16-S , 17-C ) :   1.1355 B( 16-S , 20-C ) :   1.1129 B( 17-C , 18-C ) :   1.6218
B( 17-C , 33-H ) :   0.9683 B( 18-C , 19-C ) :   1.2261 B( 18-C , 21-H ) :   0.9917
B( 19-C , 20-C ) :   1.6289 B( 19-C , 22-C ) :   1.0663 B( 22-C , 23-H ) :   0.9305
B( 22-C , 24-H ) :   0.9237 B( 22-C , 25-C ) :   1.0505 B( 25-C , 26-H ) :   0.9526
B( 25-C , 27-H ) :   0.9525 B( 25-C , 28-C ) :   1.0692 B( 28-C , 29-H ) :   0.9755
B( 28-C , 30-H ) :   0.9727 B( 28-C , 31-H ) :   0.9749

Dispersion correction           -0.014086576
FINAL SINGLE POINT ENERGY     -1339.862003874824

DIPOLE MOMENT
-------------
                                X             Y             Z
Electronic contribution:    -16.09551       2.36529     -27.48942
Nuclear contribution   :     16.35863      -2.24041      28.22241
                        -----------------------------------------
Total Dipole Moment    :      0.26312       0.12488       0.73300
                        -----------------------------------------
Magnitude (a.u.)       :      0.78874
Magnitude (Debye)      :      2.00481

Rotational constants in cm-1:     0.018365     0.008918     0.006478
Rotational constants in MHz :   550.566138   267.363298   194.190813

                             ****ORCA TERMINATED NORMALLY****
TOTAL RUN TIME: 0 days 0 hours 0 minutes 22 seconds 82 msec
