                         Program Version 4.2.1 -  RELEASE  -
|  1> ! wB97X-D3 SP def2-SVP
|  2> %pal
|  3> nprocs 24
|  4> end
|  5>
|  6> * xyz 0 1
|  7> S 	 -115.053 	 14.109 	 -115.556
|  8> C 	 -113.618 	 15.0448 	 -116.063
|  9> C 	 -113.942 	 16.1551 	 -116.792
| 10> C 	 -115.386 	 16.2696 	 -116.921
| 11> C 	 -116.134 	 15.3202 	 -116.233
| 12> H 	 -115.959 	 17.0448 	 -117.404
| 13> C 	 -112.967 	 17.1367 	 -117.408
| 14> H 	 -111.923 	 16.8368 	 -117.328
| 15> H 	 -113.019 	 18.0898 	 -116.793
| 16> C 	 -113.317 	 17.5202 	 -118.874
| 17> H 	 -113.397 	 16.6185 	 -119.479
| 18> H 	 -114.296 	 17.9131 	 -118.939
| 19> C 	 -112.38 	 18.7069 	 -119.294
| 20> H 	 -112.402 	 19.537 	 -118.542
| 21> H 	 -111.37 	 18.4179 	 -119.378
| 22> H 	 -112.743 	 19.0231 	 -120.261
| 23> S 	 -118.154 	 13.5999 	 -116.555
| 24> C 	 -119.838 	 14.1271 	 -116.29
| 25> C 	 -119.859 	 15.4427 	 -115.871
| 26> C 	 -118.588 	 16.0993 	 -116.032
| 27> C 	 -117.603 	 15.1905 	 -116.274
| 28> H 	 -120.831 	 15.8203 	 -115.481
| 29> C 	 -118.357 	 17.481 	 -115.429
| 30> H 	 -117.256 	 17.7366 	 -115.49
| 31> H 	 -118.583 	 17.3314 	 -114.331
| 32> C 	 -119.243 	 18.6215 	 -116.087
| 33> H 	 -118.805 	 19.47 	 -115.545
| 34> H 	 -120.276 	 18.6238 	 -115.869
| 35> C 	 -119.149 	 18.8027 	 -117.639
| 36> H 	 -119.576 	 19.7309 	 -117.96
| 37> H 	 -119.628 	 17.9488 	 -118.139
| 38> H 	 -118.066 	 18.7695 	 -117.87
| 39> H 	 -112.684 	 14.652 	 -115.713
| 40> H 	 -120.71 	 13.5219 	 -116.233
| 41> *
| 42>
| 43>                          ****END OF INPUT****

CARTESIAN COORDINATES (ANGSTROEM)
---------------------------------
  S    -115.053000   14.109000  -115.556000
  C    -113.618000   15.044800  -116.063000
  C    -113.942000   16.155100  -116.792000
  C    -115.386000   16.269600  -116.921000
  C    -116.134000   15.320200  -116.233000
  H    -115.959000   17.044800  -117.404000
  C    -112.967000   17.136700  -117.408000
  H    -111.923000   16.836800  -117.328000
  H    -113.019000   18.089800  -116.793000
  C    -113.317000   17.520200  -118.874000
  H    -113.397000   16.618500  -119.479000
  H    -114.296000   17.913100  -118.939000
  C    -112.380000   18.706900  -119.294000
  H    -112.402000   19.537000  -118.542000
  H    -111.370000   18.417900  -119.378000
  H    -112.743000   19.023100  -120.261000
  S    -118.154000   13.599900  -116.555000
  C    -119.838000   14.127100  -116.290000
  C    -119.859000   15.442700  -115.871000
  C    -118.588000   16.099300  -116.032000
  C    -117.603000   15.190500  -116.274000
  H    -120.831000   15.820300  -115.481000
  C    -118.357000   17.481000  -115.429000
  H    -117.256000   17.736600  -115.490000
  H    -118.583000   17.331400  -114.331000
  C    -119.243000   18.621500  -116.087000
  H    -118.805000   19.470000  -115.545000
  H    -120.276000   18.623800  -115.869000
  C    -119.149000   18.802700  -117.639000
  H    -119.576000   19.730900  -117.960000
  H    -119.628000   17.948800  -118.139000
  H    -118.066000   18.769500  -117.870000
  H    -112.684000   14.652000  -115.713000
  H    -120.710000   13.521900  -116.233000

 Total Charge           Charge          ....    0
 Multiplicity           Mult            ....    1
 Number of Electrons    NEL             ....  134
 Basis Dimension        Dim             ....  322

ORBITAL ENERGIES
----------------

  NO   OCC          E(Eh)            E(eV)
   0   2.0000     -88.964283     -2420.8412
   1   2.0000     -88.963701     -2420.8254
   2   2.0000     -10.331389      -281.1314
   3   2.0000     -10.323747      -280.9234
   4   2.0000     -10.315991      -280.7124
   5   2.0000     -10.314778      -280.6794
   6   2.0000     -10.307222      -280.4738
   7   2.0000     -10.303056      -280.3604
   8   2.0000     -10.299957      -280.2761
   9   2.0000     -10.298787      -280.2442
  10   2.0000     -10.298271      -280.2302
  11   2.0000     -10.295392      -280.1519
  12   2.0000     -10.287638      -279.9409
  13   2.0000     -10.287447      -279.9357
  14   2.0000     -10.281705      -279.7794
  15   2.0000     -10.280505      -279.7468
  16   2.0000      -8.079437      -219.8527
  17   2.0000      -8.077986      -219.8132
  18   2.0000      -6.038045      -164.3036
  19   2.0000      -6.036634      -164.2652
  20   2.0000      -6.033943      -164.1919
  21   2.0000      -6.032582      -164.1549
  22   2.0000      -6.029996      -164.0845
  23   2.0000      -6.028616      -164.0470
  24   2.0000      -1.008103       -27.4319
  25   2.0000      -0.981158       -26.6987
  26   2.0000      -0.909132       -24.7387
  27   2.0000      -0.898935       -24.4613
  28   2.0000      -0.870004       -23.6740
  29   2.0000      -0.847974       -23.0745
  30   2.0000      -0.841050       -22.8861
  31   2.0000      -0.815455       -22.1897
  32   2.0000      -0.777824       -21.1657
  33   2.0000      -0.771736       -21.0000
  34   2.0000      -0.712630       -19.3916
  35   2.0000      -0.698397       -19.0044
  36   2.0000      -0.692646       -18.8479
  37   2.0000      -0.659884       -17.9563
  38   2.0000      -0.645962       -17.5775
  39   2.0000      -0.617893       -16.8137
  40   2.0000      -0.590742       -16.0749
  41   2.0000      -0.565375       -15.3846
  42   2.0000      -0.560417       -15.2497
  43   2.0000      -0.550777       -14.9874
  44   2.0000      -0.535516       -14.5721
  45   2.0000      -0.526645       -14.3307
  46   2.0000      -0.515733       -14.0338
  47   2.0000      -0.511036       -13.9060
  48   2.0000      -0.505251       -13.7486
  49   2.0000      -0.491493       -13.3742
  50   2.0000      -0.488630       -13.2963
  51   2.0000      -0.482580       -13.1317
  52   2.0000      -0.469956       -12.7881
  53   2.0000      -0.462655       -12.5895
  54   2.0000      -0.458289       -12.4707
  55   2.0000      -0.448259       -12.1977
  56   2.0000      -0.445046       -12.1103
  57   2.0000      -0.444288       -12.0897
  58   2.0000      -0.438348       -11.9281
  59   2.0000      -0.425539       -11.5795
  60   2.0000      -0.420232       -11.4351
  61   2.0000      -0.413632       -11.2555
  62   2.0000      -0.407423       -11.0865
  63   2.0000      -0.351169        -9.5558
  64   2.0000      -0.329535        -8.9671
  65   2.0000      -0.328163        -8.9298
  66   2.0000      -0.291778        -7.9397
  67   0.0000       0.030867         0.8399
  68   0.0000       0.072944         1.9849
  69   0.0000       0.110060         2.9949
  70   0.0000       0.115226         3.1355
  71   0.0000       0.122635         3.3371

MULLIKEN ATOMIC CHARGES
-----------------------
   0 S :    0.084687
   1 C :   -0.145949
   2 C :   -0.014729
   3 C :    0.011278
   4 C :   -0.140389
   5 H :    0.003866
   6 C :    0.045540
   7 H :    0.022307
   8 H :    0.040154
   9 C :   -0.089903
  10 H :    0.040719
  11 H :    0.022518
  12 C :   -0.029004
  13 H :    0.036281
  14 H :    0.025227
  15 H :    0.033090
  16 S :    0.103182
  17 C :   -0.084951
  18 C :   -0.057365
  19 C :   -0.027294
  20 C :   -0.135444
  21 H :    0.039370
  22 C :   -0.017542
  23 H :    0.040809
  24 H :    0.058881
  25 C :   -0.071542
  26 H :    0.028930
  27 H :    0.024485
  28 C :   -0.053914
  29 H :    0.038748
  30 H :    0.050153
  31 H :    0.028047
  32 H :    0.045516
  33 H :    0.044238
Sum of atomic charges:    0.0000000

LOEWDIN ATOMIC CHARGES
----------------------
   0 S :    0.374725
   1 C :   -0.175308
   2 C :   -0.061673
   3 C :   -0.066393
   4 C :   -0.187217
   5 H :    0.024880
   6 C :   -0.033363
   7 H :    0.027925
   8 H :    0.038465
   9 C :   -0.036361
  10 H :    0.028133
  11 H :    0.017301
  12 C :   -0.056190
  13 H :    0.031761
  14 H :    0.016713
  15 H :    0.025514
  16 S :    0.406020
  17 C :   -0.177287
  18 C :   -0.065193
  19 C :   -0.075732
  20 C :   -0.201003
  21 H :    0.039661
  22 C :   -0.035198
  23 H :    0.034233
  24 H :    0.044953
  25 C :   -0.042132
  26 H :    0.026464
  27 H :    0.014184
  28 C :   -0.062598
  29 H :    0.024474
  30 H :    0.030492
  31 H :    0.024373
  32 H :    0.021960
  33 H :    0.023417

  Mayer bond orders larger than 0.100000
B(  0-S ,  1-C ) :   1.1222 B(  0-S ,  4-C ) :   1.1414 B(  1-C ,  2-C ) :   1.6147
B(  1-C , 32-H ) :   0.9789 B(  2-C ,  3-C ) :   1.2015 B(  2-C ,  6-C ) :   1.0223
B(  3-C ,  4-C ) :   1.5975 B(  3-C ,  5-H ) :   0.9918 B(  4-C , 20-C ) :   1.0244
B(  6-C ,  7-H ) :   0.9505 B(  6-C ,  8-H ) :   0.9351 B(  6-C ,  9-C ) :   1.0580
B(  9-C , 10-H ) :   0.9610 B(  9-C , 11-H ) :   0.9523 B(  9-C , 12-C ) :   1.0697
B( 12-C , 13-H ) :   0.9743 B( 12-C , 14-H ) :   0.9789 B( 12-C , 15-H ) :   0.9755
B( 16-S , 17-C ) :   1.1233 B( 16-S , 20-C ) :   1.1485 B( 17-C , 18-C ) :   1.6637
B( 17-C , 33-H ) :   0.9707 B( 18-C , 19-C ) :   1.1931 B( 18-C , 21-H ) :   0.9809
B( 19-C , 20-C ) :   1.6115 B( 19-C , 22-C ) :   1.0448 B( 22-C , 23-H ) :   0.9416
B( 22-C , 24-H ) :   0.9432 B( 22-C , 25-C ) :   1.0462 B( 25-C , 26-H ) :   0.9595
B( 25-C , 27-H ) :   0.9621 B( 25-C , 28-C ) :   1.0714 B( 28-C , 29-H ) :   0.9744
B( 28-C , 30-H ) :   0.9724 B( 28-C , 31-H ) :   0.9779

Dispersion correction           -0.014189022
FINAL SINGLE POINT ENERGY     -1339.874508230502

DIPOLE MOMENT
-------------
                                X             Y             Z
Electronic contribution:     -4.71186     -27.65930      10.51562
Nuclear contribution   :      4.71883      28.29576     -10.51811
                        -----------------------------------------
Total Dipole Moment    :      0.00697       0.63646      -0.00249
                        -----------------------------------------
Magnitude (a.u.)       :      0.63650
Magnitude (Debye)      :      1.61786

Rotational constants in cm-1:     0.017481     0.009058     0.006643
Rotational constants in MHz :   524.053667   271.541859   199.145762

                             ****ORCA TERMINATED NORMALLY****
TOTAL RUN TIME: 0 days 0 hours 0 minutes 21 seconds 582 msec
