                         Program Version 4.2.1 -  RELEASE  -
|  1> ! wB97X-D3 SP def2-SVP
|  2> %pal
|  3> nprocs 24
|  4> end
|  5>
|  6> * xyz 0 1
|  7> S 	 -82.8293 	 -33.1394 	 -52.1036
|  8> C 	 -81.1688 	 -33.1766 	 -52.6004
|  9> C 	 -80.5663 	 -31.9468 	 -52.5958
| 10> C 	 -81.5252 	 -30.8677 	 -52.3988
| 11> C 	 -82.7969 	 -31.3654 	 -52.302
| 12> H 	 -81.3853 	 -29.7686 	 -52.5249
| 13> C 	 -79.1052 	 -31.8301 	 -52.9542
| 14> H 	 -78.5385 	 -32.7657 	 -52.8316
| 15> H 	 -78.5494 	 -31.2486 	 -52.1956
| 16> C 	 -78.8546 	 -31.1194 	 -54.2992
| 17> H 	 -77.8338 	 -31.2849 	 -54.5909
| 18> H 	 -79.479 	 -31.6046 	 -55.0487
| 19> C 	 -79.1199 	 -29.6398 	 -54.2956
| 20> H 	 -80.183 	 -29.4844 	 -54.5576
| 21> H 	 -78.8968 	 -29.0246 	 -53.4502
| 22> H 	 -78.565 	 -29.1852 	 -55.0627
| 23> S 	 -84.184 	 -29.3126 	 -53.4647
| 24> C 	 -85.6884 	 -28.812 	 -52.785
| 25> C 	 -86.1148 	 -29.7164 	 -51.8618
| 26> C 	 -85.1467 	 -30.6653 	 -51.4846
| 27> C 	 -84.0289 	 -30.5786 	 -52.2966
| 28> H 	 -87.1019 	 -29.5369 	 -51.3935
| 29> C 	 -85.2704 	 -31.5591 	 -50.3031
| 30> H 	 -85.6034 	 -30.8779 	 -49.504
| 31> H 	 -84.3036 	 -31.8571 	 -50.0461
| 32> C 	 -86.2712 	 -32.7508 	 -50.3617
| 33> H 	 -87.2391 	 -32.2149 	 -50.5704
| 34> H 	 -86.426 	 -33.2159 	 -49.3729
| 35> C 	 -85.9692 	 -33.7557 	 -51.5006
| 36> H 	 -85.1665 	 -34.4717 	 -51.1987
| 37> H 	 -85.5647 	 -33.289 	 -52.4387
| 38> H 	 -86.7518 	 -34.4061 	 -51.6992
| 39> H 	 -80.6027 	 -34.0599 	 -52.7692
| 40> H 	 -86.226 	 -28.042 	 -53.299
| 41> *
| 42>
| 43>                          ****END OF INPUT****

CARTESIAN COORDINATES (ANGSTROEM)
---------------------------------
  S    -82.829300  -33.139400  -52.103600
  C    -81.168800  -33.176600  -52.600400
  C    -80.566300  -31.946800  -52.595800
  C    -81.525200  -30.867700  -52.398800
  C    -82.796900  -31.365400  -52.302000
  H    -81.385300  -29.768600  -52.524900
  C    -79.105200  -31.830100  -52.954200
  H    -78.538500  -32.765700  -52.831600
  H    -78.549400  -31.248600  -52.195600
  C    -78.854600  -31.119400  -54.299200
  H    -77.833800  -31.284900  -54.590900
  H    -79.479000  -31.604600  -55.048700
  C    -79.119900  -29.639800  -54.295600
  H    -80.183000  -29.484400  -54.557600
  H    -78.896800  -29.024600  -53.450200
  H    -78.565000  -29.185200  -55.062700
  S    -84.184000  -29.312600  -53.464700
  C    -85.688400  -28.812000  -52.785000
  C    -86.114800  -29.716400  -51.861800
  C    -85.146700  -30.665300  -51.484600
  C    -84.028900  -30.578600  -52.296600
  H    -87.101900  -29.536900  -51.393500
  C    -85.270400  -31.559100  -50.303100
  H    -85.603400  -30.877900  -49.504000
  H    -84.303600  -31.857100  -50.046100
  C    -86.271200  -32.750800  -50.361700
  H    -87.239100  -32.214900  -50.570400
  H    -86.426000  -33.215900  -49.372900
  C    -85.969200  -33.755700  -51.500600
  H    -85.166500  -34.471700  -51.198700
  H    -85.564700  -33.289000  -52.438700
  H    -86.751800  -34.406100  -51.699200
  H    -80.602700  -34.059900  -52.769200
  H    -86.226000  -28.042000  -53.299000

 Total Charge           Charge          ....    0
 Multiplicity           Mult            ....    1
 Number of Electrons    NEL             ....  134
 Basis Dimension        Dim             ....  322

ORBITAL ENERGIES
----------------

  NO   OCC          E(Eh)            E(eV)
   0   2.0000     -88.964888     -2420.8577
   1   2.0000     -88.962937     -2420.8046
   2   2.0000     -10.329724      -281.0861
   3   2.0000     -10.321738      -280.8688
   4   2.0000     -10.310929      -280.5747
   5   2.0000     -10.305969      -280.4397
   6   2.0000     -10.301157      -280.3087
   7   2.0000     -10.299677      -280.2685
   8   2.0000     -10.296401      -280.1793
   9   2.0000     -10.292996      -280.0867
  10   2.0000     -10.292100      -280.0623
  11   2.0000     -10.291315      -280.0409
  12   2.0000     -10.283455      -279.8270
  13   2.0000     -10.281844      -279.7832
  14   2.0000     -10.272276      -279.5229
  15   2.0000     -10.268749      -279.4269
  16   2.0000      -8.078888      -219.8377
  17   2.0000      -8.078719      -219.8331
  18   2.0000      -6.037417      -164.2865
  19   2.0000      -6.036986      -164.2747
  20   2.0000      -6.033764      -164.1871
  21   2.0000      -6.033093      -164.1688
  22   2.0000      -6.029685      -164.0761
  23   2.0000      -6.029365      -164.0674
  24   2.0000      -1.011649       -27.5284
  25   2.0000      -0.987199       -26.8631
  26   2.0000      -0.912185       -24.8218
  27   2.0000      -0.906890       -24.6777
  28   2.0000      -0.872355       -23.7380
  29   2.0000      -0.848089       -23.0777
  30   2.0000      -0.844958       -22.9925
  31   2.0000      -0.817781       -22.2529
  32   2.0000      -0.786883       -21.4122
  33   2.0000      -0.771712       -20.9993
  34   2.0000      -0.706674       -19.2296
  35   2.0000      -0.702573       -19.1180
  36   2.0000      -0.691876       -18.8269
  37   2.0000      -0.663382       -18.0516
  38   2.0000      -0.635598       -17.2955
  39   2.0000      -0.617083       -16.7917
  40   2.0000      -0.599515       -16.3136
  41   2.0000      -0.571801       -15.5595
  42   2.0000      -0.554066       -15.0769
  43   2.0000      -0.543589       -14.7918
  44   2.0000      -0.537675       -14.6309
  45   2.0000      -0.535521       -14.5723
  46   2.0000      -0.517758       -14.0889
  47   2.0000      -0.511249       -13.9118
  48   2.0000      -0.503607       -13.7038
  49   2.0000      -0.493874       -13.4390
  50   2.0000      -0.491518       -13.3749
  51   2.0000      -0.481041       -13.0898
  52   2.0000      -0.470921       -12.8144
  53   2.0000      -0.466718       -12.7000
  54   2.0000      -0.463890       -12.6231
  55   2.0000      -0.446941       -12.1619
  56   2.0000      -0.440818       -11.9953
  57   2.0000      -0.437222       -11.8974
  58   2.0000      -0.430325       -11.7097
  59   2.0000      -0.423363       -11.5203
  60   2.0000      -0.420335       -11.4379
  61   2.0000      -0.415494       -11.3062
  62   2.0000      -0.402674       -10.9573
  63   2.0000      -0.352287        -9.5862
  64   2.0000      -0.332487        -9.0474
  65   2.0000      -0.327393        -8.9088
  66   2.0000      -0.288703        -7.8560
  67   0.0000       0.029879         0.8131
  68   0.0000       0.075794         2.0624
  69   0.0000       0.101041         2.7495
  70   0.0000       0.117838         3.2065
  71   0.0000       0.139825         3.8048

MULLIKEN ATOMIC CHARGES
-----------------------
   0 S :    0.090053
   1 C :   -0.086159
   2 C :   -0.078603
   3 C :    0.007069
   4 C :   -0.143682
   5 H :    0.038875
   6 C :    0.047500
   7 H :    0.017122
   8 H :    0.022881
   9 C :   -0.049118
  10 H :    0.020979
  11 H :    0.030495
  12 C :   -0.037633
  13 H :    0.035995
  14 H :    0.025766
  15 H :    0.015583
  16 S :    0.100210
  17 C :   -0.100060
  18 C :   -0.037217
  19 C :   -0.052534
  20 C :   -0.149611
  21 H :    0.029988
  22 C :    0.077421
  23 H :    0.030151
  24 H :    0.004485
  25 C :   -0.061374
  26 H :    0.024583
  27 H :    0.039220
  28 C :   -0.049880
  29 H :    0.028244
  30 H :    0.052642
  31 H :    0.020734
  32 H :    0.030606
  33 H :    0.055269
Sum of atomic charges:    0.0000000

LOEWDIN ATOMIC CHARGES
----------------------
   0 S :    0.413625
   1 C :   -0.193241
   2 C :   -0.059013
   3 C :   -0.066024
   4 C :   -0.172376
   5 H :    0.039882
   6 C :   -0.039155
   7 H :    0.030937
   8 H :    0.031520
   9 C :   -0.036265
  10 H :    0.020748
  11 H :    0.027619
  12 C :   -0.067921
  13 H :    0.030298
  14 H :    0.021513
  15 H :    0.022798
  16 S :    0.422613
  17 C :   -0.189374
  18 C :   -0.071405
  19 C :   -0.065791
  20 C :   -0.201753
  21 H :    0.037107
  22 C :   -0.033553
  23 H :    0.039019
  24 H :    0.011596
  25 C :   -0.037438
  26 H :    0.024747
  27 H :    0.028220
  28 C :   -0.078675
  29 H :    0.022721
  30 H :    0.026384
  31 H :    0.015527
  32 H :    0.021089
  33 H :    0.024018

  Mayer bond orders larger than 0.100000
B(  0-S ,  1-C ) :   1.1169 B(  0-S ,  4-C ) :   1.1206 B(  1-C ,  2-C ) :   1.6585
B(  1-C , 32-H ) :   0.9701 B(  2-C ,  3-C ) :   1.1798 B(  2-C ,  6-C ) :   1.0393
B(  3-C ,  4-C ) :   1.6123 B(  3-C ,  5-H ) :   0.9816 B(  4-C , 20-C ) :   1.0408
B(  6-C ,  7-H ) :   0.9412 B(  6-C ,  8-H ) :   0.9358 B(  6-C ,  9-C ) :   1.0608
B(  9-C , 10-H ) :   0.9577 B(  9-C , 11-H ) :   0.9547 B(  9-C , 12-C ) :   1.0826
B( 12-C , 13-H ) :   0.9703 B( 12-C , 14-H ) :   0.9756 B( 12-C , 15-H ) :   0.9672
B( 16-S , 17-C ) :   1.1605 B( 16-S , 20-C ) :   1.1598 B( 17-C , 18-C ) :   1.5970
B( 17-C , 33-H ) :   0.9714 B( 18-C , 19-C ) :   1.2484 B( 18-C , 21-H ) :   0.9845
B( 19-C , 20-C ) :   1.5577 B( 19-C , 22-C ) :   1.0460 B( 22-C , 23-H ) :   0.9286
B( 22-C , 24-H ) :   0.9277 B( 22-C , 25-C ) :   1.0650 B( 25-C , 26-H ) :   0.9579
B( 25-C , 27-H ) :   0.9567 B( 25-C , 28-C ) :   1.0699 B( 28-C , 29-H ) :   0.9681
B( 28-C , 30-H ) :   0.9689 B( 28-C , 31-H ) :   0.9713

Dispersion correction           -0.015424379
FINAL SINGLE POINT ENERGY     -1339.880348624053

DIPOLE MOMENT
-------------
                                X             Y             Z
Electronic contribution:     -6.61223       3.28368      -0.93310
Nuclear contribution   :      6.77115      -3.21653       0.98029
                        -----------------------------------------
Total Dipole Moment    :      0.15893       0.06715       0.04719
                        -----------------------------------------
Magnitude (a.u.)       :      0.17887
Magnitude (Debye)      :      0.45465

Rotational constants in cm-1:     0.022052     0.009517     0.007067
Rotational constants in MHz :   661.096087   285.300626   211.863414

                             ****ORCA TERMINATED NORMALLY****
TOTAL RUN TIME: 0 days 0 hours 0 minutes 21 seconds 186 msec
