                         Program Version 4.2.1 -  RELEASE  -
|  1> ! wB97X-D3 SP def2-SVP
|  2> %pal
|  3> nprocs 24
|  4> end
|  5>
|  6> * xyz 0 1
|  7> S 	 -31.7755 	 13.7835 	 -0.791637
|  8> C 	 -33.4194 	 13.6669 	 -1.44425
|  9> C 	 -34.0806 	 12.5888 	 -0.916794
| 10> C 	 -33.4093 	 12.0235 	 0.193761
| 11> C 	 -32.14 	 12.5268 	 0.429778
| 12> H 	 -33.757 	 11.264 	 0.836287
| 13> C 	 -35.4935 	 12.0844 	 -1.2105
| 14> H 	 -35.6898 	 11.2816 	 -0.563531
| 15> H 	 -35.4071 	 11.7286 	 -2.25402
| 16> C 	 -36.7074 	 13.1203 	 -1.26683
| 17> H 	 -36.4672 	 13.7951 	 -2.06639
| 18> H 	 -37.5651 	 12.5219 	 -1.46395
| 19> C 	 -36.9262 	 13.7819 	 0.100285
| 20> H 	 -36.3226 	 14.7606 	 0.159365
| 21> H 	 -37.963 	 14.0937 	 0.161475
| 22> H 	 -36.5751 	 13.2458 	 0.999726
| 23> S 	 -29.5419 	 11.8474 	 1.05601
| 24> C 	 -29.2599 	 11.3862 	 2.70192
| 25> C 	 -30.3816 	 11.5947 	 3.5463
| 26> C 	 -31.4899 	 12.1255 	 2.82911
| 27> C 	 -31.2214 	 12.2135 	 1.48671
| 28> H 	 -30.2291 	 11.3644 	 4.62523
| 29> C 	 -32.7259 	 12.4957 	 3.55968
| 30> H 	 -33.2967 	 13.0839 	 2.93684
| 31> H 	 -32.3266 	 13.3083 	 4.23623
| 32> C 	 -33.4564 	 11.3799 	 4.37923
| 33> H 	 -32.7433 	 10.8673 	 5.04407
| 34> H 	 -33.7236 	 10.6685 	 3.55442
| 35> C 	 -34.7961 	 11.9606 	 4.87682
| 36> H 	 -35.2629 	 11.2369 	 5.59437
| 37> H 	 -35.5014 	 12.1743 	 4.06565
| 38> H 	 -34.6449 	 12.8562 	 5.45258
| 39> H 	 -33.7404 	 14.1896 	 -2.30485
| 40> H 	 -28.3165 	 11.0711 	 3.10467
| 41> *
| 42>
| 43>                          ****END OF INPUT****

CARTESIAN COORDINATES (ANGSTROEM)
---------------------------------
  S    -31.775500   13.783500   -0.791637
  C    -33.419400   13.666900   -1.444250
  C    -34.080600   12.588800   -0.916794
  C    -33.409300   12.023500    0.193761
  C    -32.140000   12.526800    0.429778
  H    -33.757000   11.264000    0.836287
  C    -35.493500   12.084400   -1.210500
  H    -35.689800   11.281600   -0.563531
  H    -35.407100   11.728600   -2.254020
  C    -36.707400   13.120300   -1.266830
  H    -36.467200   13.795100   -2.066390
  H    -37.565100   12.521900   -1.463950
  C    -36.926200   13.781900    0.100285
  H    -36.322600   14.760600    0.159365
  H    -37.963000   14.093700    0.161475
  H    -36.575100   13.245800    0.999726
  S    -29.541900   11.847400    1.056010
  C    -29.259900   11.386200    2.701920
  C    -30.381600   11.594700    3.546300
  C    -31.489900   12.125500    2.829110
  C    -31.221400   12.213500    1.486710
  H    -30.229100   11.364400    4.625230
  C    -32.725900   12.495700    3.559680
  H    -33.296700   13.083900    2.936840
  H    -32.326600   13.308300    4.236230
  C    -33.456400   11.379900    4.379230
  H    -32.743300   10.867300    5.044070
  H    -33.723600   10.668500    3.554420
  C    -34.796100   11.960600    4.876820
  H    -35.262900   11.236900    5.594370
  H    -35.501400   12.174300    4.065650
  H    -34.644900   12.856200    5.452580
  H    -33.740400   14.189600   -2.304850
  H    -28.316500   11.071100    3.104670

 Total Charge           Charge          ....    0
 Multiplicity           Mult            ....    1
 Number of Electrons    NEL             ....  134
 Basis Dimension        Dim             ....  322

ORBITAL ENERGIES
----------------

  NO   OCC          E(Eh)            E(eV)
   0   2.0000     -88.968175     -2420.9471
   1   2.0000     -88.962201     -2420.7846
   2   2.0000     -10.327306      -281.0203
   3   2.0000     -10.322033      -280.8768
   4   2.0000     -10.318303      -280.7753
   5   2.0000     -10.310354      -280.5590
   6   2.0000     -10.300809      -280.2993
   7   2.0000     -10.299659      -280.2680
   8   2.0000     -10.298222      -280.2289
   9   2.0000     -10.297657      -280.2135
  10   2.0000     -10.290962      -280.0313
  11   2.0000     -10.289811      -280.0000
  12   2.0000     -10.287950      -279.9494
  13   2.0000     -10.286664      -279.9144
  14   2.0000     -10.286258      -279.9033
  15   2.0000     -10.282410      -279.7986
  16   2.0000      -8.082855      -219.9457
  17   2.0000      -8.076196      -219.7645
  18   2.0000      -6.041230      -164.3902
  19   2.0000      -6.037546      -164.2900
  20   2.0000      -6.034768      -164.2144
  21   2.0000      -6.033590      -164.1823
  22   2.0000      -6.030886      -164.1088
  23   2.0000      -6.026860      -163.9992
  24   2.0000      -1.004591       -27.3363
  25   2.0000      -0.980425       -26.6787
  26   2.0000      -0.911640       -24.8070
  27   2.0000      -0.904536       -24.6137
  28   2.0000      -0.866998       -23.5922
  29   2.0000      -0.855823       -23.2881
  30   2.0000      -0.844494       -22.9799
  31   2.0000      -0.808973       -22.0133
  32   2.0000      -0.782702       -21.2984
  33   2.0000      -0.771200       -20.9854
  34   2.0000      -0.710677       -19.3385
  35   2.0000      -0.707361       -19.2483
  36   2.0000      -0.697666       -18.9845
  37   2.0000      -0.660513       -17.9735
  38   2.0000      -0.641744       -17.4627
  39   2.0000      -0.611336       -16.6353
  40   2.0000      -0.593176       -16.1411
  41   2.0000      -0.574398       -15.6302
  42   2.0000      -0.562923       -15.3179
  43   2.0000      -0.544093       -14.8055
  44   2.0000      -0.542525       -14.7628
  45   2.0000      -0.526887       -14.3373
  46   2.0000      -0.514573       -14.0022
  47   2.0000      -0.511671       -13.9233
  48   2.0000      -0.506999       -13.7961
  49   2.0000      -0.494761       -13.4631
  50   2.0000      -0.489056       -13.3079
  51   2.0000      -0.481274       -13.0961
  52   2.0000      -0.478580       -13.0228
  53   2.0000      -0.465339       -12.6625
  54   2.0000      -0.459924       -12.5152
  55   2.0000      -0.446597       -12.1525
  56   2.0000      -0.445299       -12.1172
  57   2.0000      -0.436332       -11.8732
  58   2.0000      -0.432557       -11.7705
  59   2.0000      -0.427973       -11.6457
  60   2.0000      -0.421969       -11.4824
  61   2.0000      -0.415222       -11.2988
  62   2.0000      -0.411277       -11.1914
  63   2.0000      -0.343620        -9.3504
  64   2.0000      -0.331304        -9.0152
  65   2.0000      -0.328418        -8.9367
  66   2.0000      -0.286658        -7.8004
  67   0.0000       0.028615         0.7787
  68   0.0000       0.064613         1.7582
  69   0.0000       0.107277         2.9192
  70   0.0000       0.113760         3.0956
  71   0.0000       0.128382         3.4935

MULLIKEN ATOMIC CHARGES
-----------------------
   0 S :    0.089375
   1 C :   -0.115827
   2 C :   -0.067092
   3 C :    0.022501
   4 C :   -0.153233
   5 H :   -0.010444
   6 C :    0.047759
   7 H :    0.010942
   8 H :    0.037604
   9 C :   -0.037724
  10 H :    0.033375
  11 H :    0.031724
  12 C :   -0.081512
  13 H :    0.039891
  14 H :    0.036575
  15 H :    0.040301
  16 S :    0.121343
  17 C :   -0.088944
  18 C :   -0.071925
  19 C :   -0.016874
  20 C :   -0.161650
  21 H :    0.036615
  22 C :    0.069680
  23 H :   -0.006788
  24 H :    0.033037
  25 C :   -0.075595
  26 H :    0.045233
  27 H :    0.036157
  28 C :   -0.038955
  29 H :    0.040545
  30 H :    0.043332
  31 H :    0.028267
  32 H :    0.034795
  33 H :    0.047512
Sum of atomic charges:    0.0000000

LOEWDIN ATOMIC CHARGES
----------------------
   0 S :    0.372743
   1 C :   -0.186682
   2 C :   -0.063482
   3 C :   -0.061787
   4 C :   -0.174149
   5 H :    0.022809
   6 C :   -0.025435
   7 H :    0.018135
   8 H :    0.037217
   9 C :   -0.029279
  10 H :    0.022885
  11 H :    0.022802
  12 C :   -0.077712
  13 H :    0.036303
  14 H :    0.024094
  15 H :    0.027058
  16 S :    0.405374
  17 C :   -0.184830
  18 C :   -0.075632
  19 C :   -0.052471
  20 C :   -0.201507
  21 H :    0.038767
  22 C :   -0.035672
  23 H :    0.016327
  24 H :    0.041997
  25 C :   -0.037202
  26 H :    0.028090
  27 H :    0.030153
  28 C :   -0.064924
  29 H :    0.031705
  30 H :    0.030755
  31 H :    0.021479
  32 H :    0.018867
  33 H :    0.023201

  Mayer bond orders larger than 0.100000
B(  0-S ,  1-C ) :   1.1262 B(  0-S ,  4-C ) :   1.1356 B(  1-C ,  2-C ) :   1.6219
B(  1-C ,  4-C ) :   0.1047 B(  1-C , 32-H ) :   0.9724 B(  2-C ,  3-C ) :   1.2198
B(  2-C ,  6-C ) :   1.0153 B(  3-C ,  4-C ) :   1.5869 B(  3-C ,  5-H ) :   1.0045
B(  4-C , 20-C ) :   1.0563 B(  6-C ,  7-H ) :   0.9493 B(  6-C ,  8-H ) :   0.9317
B(  6-C ,  9-C ) :   1.0806 B(  9-C , 10-H ) :   0.9571 B(  9-C , 11-H ) :   0.9600
B(  9-C , 12-C ) :   1.0632 B( 12-C , 13-H ) :   0.9733 B( 12-C , 14-H ) :   0.9774
B( 12-C , 15-H ) :   0.9804 B( 16-S , 17-C ) :   1.1611 B( 16-S , 20-C ) :   1.1220
B( 17-C , 18-C ) :   1.6183 B( 17-C , 33-H ) :   0.9679 B( 18-C , 19-C ) :   1.2123
B( 18-C , 21-H ) :   0.9848 B( 19-C , 20-C ) :   1.5980 B( 19-C , 22-C ) :   1.0479
B( 22-C , 23-H ) :   0.9284 B( 22-C , 24-H ) :   0.9184 B( 22-C , 25-C ) :   1.0395
B( 25-C , 26-H ) :   0.9571 B( 25-C , 27-H ) :   0.9578 B( 25-C , 28-C ) :   1.0718
B( 28-C , 29-H ) :   0.9743 B( 28-C , 30-H ) :   0.9743 B( 28-C , 31-H ) :   0.9755

Dispersion correction           -0.014691589
FINAL SINGLE POINT ENERGY     -1339.867346031975

DIPOLE MOMENT
-------------
                                X             Y             Z
Electronic contribution:     29.01714       0.84733     -11.43067
Nuclear contribution   :    -29.61747      -1.01717      11.82867
                        -----------------------------------------
Total Dipole Moment    :     -0.60033      -0.16984       0.39800
                        -----------------------------------------
Magnitude (a.u.)       :      0.74003
Magnitude (Debye)      :      1.88101

Rotational constants in cm-1:     0.017387     0.009779     0.006724
Rotational constants in MHz :   521.240423   293.163020   201.571252

                             ****ORCA TERMINATED NORMALLY****
TOTAL RUN TIME: 0 days 0 hours 0 minutes 22 seconds 114 msec
