                         Program Version 4.2.1 -  RELEASE  -
|  1> ! wB97X-D3 SP def2-SVP
|  2> %pal
|  3> nprocs 24
|  4> end
|  5>
|  6> * xyz 0 1
|  7> S 	 -128.165 	 9.22653 	 -10.995
|  8> C 	 -126.492 	 9.43761 	 -10.6029
|  9> C 	 -125.744 	 9.8301 	 -11.7092
| 10> C 	 -126.543 	 9.81679 	 -12.914
| 11> C 	 -127.877 	 9.64072 	 -12.6904
| 12> H 	 -126.085 	 9.99434 	 -13.8533
| 13> C 	 -124.253 	 10.134 	 -11.7057
| 14> H 	 -123.682 	 9.5916 	 -12.4686
| 15> H 	 -123.946 	 9.80542 	 -10.6822
| 16> C 	 -123.932 	 11.576 	 -11.8725
| 17> H 	 -122.847 	 11.6303 	 -11.9293
| 18> H 	 -124.213 	 11.901 	 -12.8633
| 19> C 	 -124.583 	 12.5699 	 -10.853
| 20> H 	 -124.332 	 12.4084 	 -9.80406
| 21> H 	 -124.112 	 13.5258 	 -11.1165
| 22> H 	 -125.729 	 12.674 	 -10.8868
| 23> S 	 -129.874 	 11.0547 	 -13.726
| 24> C 	 -130.899 	 10.361 	 -14.9381
| 25> C 	 -130.414 	 9.1484 	 -15.3922
| 26> C 	 -129.312 	 8.67621 	 -14.6841
| 27> C 	 -128.92 	 9.61812 	 -13.6671
| 28> H 	 -131.02 	 8.65766 	 -16.2272
| 29> C 	 -128.488 	 7.43595 	 -15.0893
| 30> H 	 -127.442 	 7.59399 	 -15.074
| 31> H 	 -128.75 	 7.23394 	 -16.0846
| 32> C 	 -128.897 	 6.16356 	 -14.187
| 33> H 	 -128.417 	 6.26918 	 -13.1725
| 34> H 	 -128.397 	 5.30574 	 -14.5758
| 35> C 	 -130.457 	 5.90328 	 -14.153
| 36> H 	 -130.892 	 5.24629 	 -13.3503
| 37> H 	 -130.829 	 5.51903 	 -15.1604
| 38> H 	 -130.93 	 6.83508 	 -14.0158
| 39> H 	 -126.074 	 9.26675 	 -9.64046
| 40> H 	 -131.707 	 10.9938 	 -15.2663
| 41> *
| 42>
| 43>                          ****END OF INPUT****

CARTESIAN COORDINATES (ANGSTROEM)
---------------------------------
  S    -128.165000    9.226530  -10.995000
  C    -126.492000    9.437610  -10.602900
  C    -125.744000    9.830100  -11.709200
  C    -126.543000    9.816790  -12.914000
  C    -127.877000    9.640720  -12.690400
  H    -126.085000    9.994340  -13.853300
  C    -124.253000   10.134000  -11.705700
  H    -123.682000    9.591600  -12.468600
  H    -123.946000    9.805420  -10.682200
  C    -123.932000   11.576000  -11.872500
  H    -122.847000   11.630300  -11.929300
  H    -124.213000   11.901000  -12.863300
  C    -124.583000   12.569900  -10.853000
  H    -124.332000   12.408400   -9.804060
  H    -124.112000   13.525800  -11.116500
  H    -125.729000   12.674000  -10.886800
  S    -129.874000   11.054700  -13.726000
  C    -130.899000   10.361000  -14.938100
  C    -130.414000    9.148400  -15.392200
  C    -129.312000    8.676210  -14.684100
  C    -128.920000    9.618120  -13.667100
  H    -131.020000    8.657660  -16.227200
  C    -128.488000    7.435950  -15.089300
  H    -127.442000    7.593990  -15.074000
  H    -128.750000    7.233940  -16.084600
  C    -128.897000    6.163560  -14.187000
  H    -128.417000    6.269180  -13.172500
  H    -128.397000    5.305740  -14.575800
  C    -130.457000    5.903280  -14.153000
  H    -130.892000    5.246290  -13.350300
  H    -130.829000    5.519030  -15.160400
  H    -130.930000    6.835080  -14.015800
  H    -126.074000    9.266750   -9.640460
  H    -131.707000   10.993800  -15.266300

 Total Charge           Charge          ....    0
 Multiplicity           Mult            ....    1
 Number of Electrons    NEL             ....  134
 Basis Dimension        Dim             ....  322

ORBITAL ENERGIES
----------------

  NO   OCC          E(Eh)            E(eV)
   0   2.0000     -88.964187     -2420.8386
   1   2.0000     -88.964094     -2420.8361
   2   2.0000     -10.324384      -280.9408
   3   2.0000     -10.322564      -280.8912
   4   2.0000     -10.313783      -280.6523
   5   2.0000     -10.311875      -280.6004
   6   2.0000     -10.308017      -280.4954
   7   2.0000     -10.298692      -280.2417
   8   2.0000     -10.298583      -280.2387
   9   2.0000     -10.292212      -280.0653
  10   2.0000     -10.291375      -280.0425
  11   2.0000     -10.290727      -280.0249
  12   2.0000     -10.290651      -280.0229
  13   2.0000     -10.285160      -279.8734
  14   2.0000     -10.283480      -279.8277
  15   2.0000     -10.279550      -279.7208
  16   2.0000      -8.079944      -219.8665
  17   2.0000      -8.078903      -219.8381
  18   2.0000      -6.038040      -164.3034
  19   2.0000      -6.037455      -164.2875
  20   2.0000      -6.034185      -164.1985
  21   2.0000      -6.033374      -164.1764
  22   2.0000      -6.031210      -164.1176
  23   2.0000      -6.029632      -164.0746
  24   2.0000      -1.007697       -27.4208
  25   2.0000      -0.984298       -26.7841
  26   2.0000      -0.913699       -24.8630
  27   2.0000      -0.896563       -24.3967
  28   2.0000      -0.870836       -23.6966
  29   2.0000      -0.842959       -22.9381
  30   2.0000      -0.839395       -22.8411
  31   2.0000      -0.809307       -22.0224
  32   2.0000      -0.783353       -21.3161
  33   2.0000      -0.771560       -20.9952
  34   2.0000      -0.710438       -19.3320
  35   2.0000      -0.695811       -18.9340
  36   2.0000      -0.689583       -18.7645
  37   2.0000      -0.657134       -17.8815
  38   2.0000      -0.641601       -17.4588
  39   2.0000      -0.622702       -16.9446
  40   2.0000      -0.594754       -16.1841
  41   2.0000      -0.564823       -15.3696
  42   2.0000      -0.550404       -14.9772
  43   2.0000      -0.545050       -14.8316
  44   2.0000      -0.541492       -14.7348
  45   2.0000      -0.535203       -14.5636
  46   2.0000      -0.514272       -13.9941
  47   2.0000      -0.506615       -13.7857
  48   2.0000      -0.498306       -13.5596
  49   2.0000      -0.490189       -13.3387
  50   2.0000      -0.482244       -13.1225
  51   2.0000      -0.478823       -13.0294
  52   2.0000      -0.471742       -12.8368
  53   2.0000      -0.459976       -12.5166
  54   2.0000      -0.452819       -12.3218
  55   2.0000      -0.448548       -12.2056
  56   2.0000      -0.440668       -11.9912
  57   2.0000      -0.437719       -11.9109
  58   2.0000      -0.431345       -11.7375
  59   2.0000      -0.425800       -11.5866
  60   2.0000      -0.423586       -11.5264
  61   2.0000      -0.415009       -11.2930
  62   2.0000      -0.409387       -11.1400
  63   2.0000      -0.340419        -9.2633
  64   2.0000      -0.330486        -8.9930
  65   2.0000      -0.319224        -8.6865
  66   2.0000      -0.301277        -8.1982
  67   0.0000       0.040751         1.1089
  68   0.0000       0.055962         1.5228
  69   0.0000       0.114663         3.1201
  70   0.0000       0.116556         3.1716
  71   0.0000       0.135227         3.6797

MULLIKEN ATOMIC CHARGES
-----------------------
   0 S :    0.119178
   1 C :   -0.112913
   2 C :   -0.114944
   3 C :    0.067168
   4 C :   -0.147375
   5 H :   -0.002928
   6 C :    0.082318
   7 H :    0.032452
   8 H :    0.013657
   9 C :   -0.061694
  10 H :    0.025700
  11 H :    0.015577
  12 C :   -0.078094
  13 H :    0.028528
  14 H :    0.033210
  15 H :    0.064809
  16 S :    0.121873
  17 C :   -0.111780
  18 C :   -0.061095
  19 C :   -0.015072
  20 C :   -0.214961
  21 H :    0.048909
  22 C :    0.121076
  23 H :    0.025648
  24 H :    0.004623
  25 C :   -0.081022
  26 H :    0.045650
  27 H :    0.022011
  28 C :   -0.078074
  29 H :    0.048573
  30 H :    0.031897
  31 H :    0.033616
  32 H :    0.036254
  33 H :    0.057223
Sum of atomic charges:    0.0000000

LOEWDIN ATOMIC CHARGES
----------------------
   0 S :    0.406223
   1 C :   -0.197031
   2 C :   -0.063781
   3 C :   -0.048936
   4 C :   -0.203552
   5 H :    0.025351
   6 C :   -0.034849
   7 H :    0.033179
   8 H :    0.030368
   9 C :   -0.043938
  10 H :    0.025878
  11 H :    0.020624
  12 C :   -0.074013
  13 H :    0.020741
  14 H :    0.028734
  15 H :    0.040248
  16 S :    0.439742
  17 C :   -0.193354
  18 C :   -0.085063
  19 C :   -0.051698
  20 C :   -0.215879
  21 H :    0.047287
  22 C :   -0.013681
  23 H :    0.026945
  24 H :    0.021673
  25 C :   -0.035767
  26 H :    0.029797
  27 H :    0.015010
  28 C :   -0.075754
  29 H :    0.034111
  30 H :    0.029244
  31 H :    0.017384
  32 H :    0.021460
  33 H :    0.023298

  Mayer bond orders larger than 0.100000
B(  0-S ,  1-C ) :   1.1452 B(  0-S ,  4-C ) :   1.1332 B(  1-C ,  2-C ) :   1.6128
B(  1-C , 32-H ) :   0.9683 B(  2-C ,  3-C ) :   1.2290 B(  2-C ,  6-C ) :   1.0253
B(  3-C ,  4-C ) :   1.5946 B(  3-C ,  5-H ) :   1.0017 B(  4-C , 20-C ) :   1.0307
B(  6-C ,  7-H ) :   0.9403 B(  6-C ,  8-H ) :   0.9374 B(  6-C ,  9-C ) :   1.0836
B(  9-C , 10-H ) :   0.9543 B(  9-C , 11-H ) :   0.9509 B(  9-C , 12-C ) :   1.0637
B( 12-C , 13-H ) :   0.9781 B( 12-C , 14-H ) :   0.9740 B( 12-C , 15-H ) :   0.9721
B( 16-S , 17-C ) :   1.1860 B( 16-S , 20-C ) :   1.2019 B( 17-C , 18-C ) :   1.5519
B( 17-C , 20-C ) :   0.1231 B( 17-C , 33-H ) :   0.9739 B( 18-C , 19-C ) :   1.2820
B( 18-C , 21-H ) :   0.9789 B( 19-C , 20-C ) :   1.5164 B( 19-C , 22-C ) :   1.0301
B( 22-C , 23-H ) :   0.9452 B( 22-C , 24-H ) :   0.9359 B( 22-C , 25-C ) :   1.0570
B( 25-C , 26-H ) :   0.9618 B( 25-C , 27-H ) :   0.9622 B( 25-C , 28-C ) :   1.0535
B( 28-C , 29-H ) :   0.9763 B( 28-C , 30-H ) :   0.9763 B( 28-C , 31-H ) :   0.9759

Dispersion correction           -0.015275498
FINAL SINGLE POINT ENERGY     -1339.876309947003

DIPOLE MOMENT
-------------
                                X             Y             Z
Electronic contribution:    -12.53851       6.28424       2.36184
Nuclear contribution   :     12.96854      -6.32690      -2.69833
                        -----------------------------------------
Total Dipole Moment    :      0.43002      -0.04266      -0.33649
                        -----------------------------------------
Magnitude (a.u.)       :      0.54769
Magnitude (Debye)      :      1.39212

Rotational constants in cm-1:     0.022604     0.008193     0.007227
Rotational constants in MHz :   677.644755   245.633845   216.648212

                             ****ORCA TERMINATED NORMALLY****
TOTAL RUN TIME: 0 days 0 hours 0 minutes 21 seconds 950 msec
