                         Program Version 4.2.1 -  RELEASE  -
|  1> ! wB97X-D3 SP def2-SVP
|  2> %pal
|  3> nprocs 24
|  4> end
|  5>
|  6> * xyz 0 1
|  7> S 	 -140.488 	 22.5393 	 -19.9316
|  8> C 	 -142.036 	 21.6235 	 -19.7773
|  9> C 	 -142.963 	 22.2746 	 -19.0496
| 10> C 	 -142.367 	 23.3827 	 -18.4068
| 11> C 	 -141.068 	 23.6398 	 -18.7267
| 12> H 	 -142.866 	 24.1241 	 -17.8881
| 13> C 	 -144.432 	 21.9518 	 -19.0787
| 14> H 	 -144.619 	 21.0805 	 -18.3848
| 15> H 	 -144.685 	 21.5548 	 -20.0509
| 16> C 	 -145.461 	 23.0524 	 -18.7634
| 17> H 	 -145.446 	 23.1235 	 -17.7196
| 18> H 	 -145.144 	 24.004 	 -19.193
| 19> C 	 -146.871 	 22.8165 	 -19.2088
| 20> H 	 -147.278 	 21.8187 	 -19.1313
| 21> H 	 -147.532 	 23.4341 	 -18.6234
| 22> H 	 -147.022 	 23.1875 	 -20.2289
| 23> S 	 -140.004 	 25.9134 	 -19.8864
| 24> C 	 -139.139 	 27.024 	 -18.8715
| 25> C 	 -139.133 	 26.6362 	 -17.5884
| 26> C 	 -139.807 	 25.4475 	 -17.3473
| 27> C 	 -140.311 	 24.8674 	 -18.5026
| 28> H 	 -138.695 	 27.2461 	 -16.7982
| 29> C 	 -139.827 	 24.7313 	 -15.9795
| 30> H 	 -138.779 	 24.363 	 -15.7352
| 31> H 	 -140.42 	 23.8038 	 -15.913
| 32> C 	 -140.394 	 25.6957 	 -14.85
| 33> H 	 -141.425 	 25.8888 	 -15.0938
| 34> H 	 -139.921 	 26.6404 	 -14.8492
| 35> C 	 -140.497 	 24.9736 	 -13.4801
| 36> H 	 -139.504 	 24.5061 	 -13.2259
| 37> H 	 -141.178 	 24.1429 	 -13.5582
| 38> H 	 -140.77 	 25.6006 	 -12.67
| 39> H 	 -142.265 	 20.7454 	 -20.4098
| 40> H 	 -138.417 	 27.7053 	 -19.2871
| 41> *
| 42>
| 43>                          ****END OF INPUT****

CARTESIAN COORDINATES (ANGSTROEM)
---------------------------------
  S    -140.488000   22.539300  -19.931600
  C    -142.036000   21.623500  -19.777300
  C    -142.963000   22.274600  -19.049600
  C    -142.367000   23.382700  -18.406800
  C    -141.068000   23.639800  -18.726700
  H    -142.866000   24.124100  -17.888100
  C    -144.432000   21.951800  -19.078700
  H    -144.619000   21.080500  -18.384800
  H    -144.685000   21.554800  -20.050900
  C    -145.461000   23.052400  -18.763400
  H    -145.446000   23.123500  -17.719600
  H    -145.144000   24.004000  -19.193000
  C    -146.871000   22.816500  -19.208800
  H    -147.278000   21.818700  -19.131300
  H    -147.532000   23.434100  -18.623400
  H    -147.022000   23.187500  -20.228900
  S    -140.004000   25.913400  -19.886400
  C    -139.139000   27.024000  -18.871500
  C    -139.133000   26.636200  -17.588400
  C    -139.807000   25.447500  -17.347300
  C    -140.311000   24.867400  -18.502600
  H    -138.695000   27.246100  -16.798200
  C    -139.827000   24.731300  -15.979500
  H    -138.779000   24.363000  -15.735200
  H    -140.420000   23.803800  -15.913000
  C    -140.394000   25.695700  -14.850000
  H    -141.425000   25.888800  -15.093800
  H    -139.921000   26.640400  -14.849200
  C    -140.497000   24.973600  -13.480100
  H    -139.504000   24.506100  -13.225900
  H    -141.178000   24.142900  -13.558200
  H    -140.770000   25.600600  -12.670000
  H    -142.265000   20.745400  -20.409800
  H    -138.417000   27.705300  -19.287100

 Total Charge           Charge          ....    0
 Multiplicity           Mult            ....    1
 Number of Electrons    NEL             ....  134
 Basis Dimension        Dim             ....  322

ORBITAL ENERGIES
----------------

  NO   OCC          E(Eh)            E(eV)
   0   2.0000     -88.963932     -2420.8317
   1   2.0000     -88.962190     -2420.7843
   2   2.0000     -10.323408      -280.9142
   3   2.0000     -10.323210      -280.9088
   4   2.0000     -10.313329      -280.6399
   5   2.0000     -10.309436      -280.5340
   6   2.0000     -10.299565      -280.2654
   7   2.0000     -10.299087      -280.2524
   8   2.0000     -10.297910      -280.2204
   9   2.0000     -10.295376      -280.1514
  10   2.0000     -10.287161      -279.9279
  11   2.0000     -10.284938      -279.8674
  12   2.0000     -10.284332      -279.8509
  13   2.0000     -10.283253      -279.8215
  14   2.0000     -10.277480      -279.6645
  15   2.0000     -10.276703      -279.6433
  16   2.0000      -8.078446      -219.8257
  17   2.0000      -8.077366      -219.7963
  18   2.0000      -6.036912      -164.2727
  19   2.0000      -6.035768      -164.2416
  20   2.0000      -6.033214      -164.1721
  21   2.0000      -6.031810      -164.1339
  22   2.0000      -6.029026      -164.0581
  23   2.0000      -6.028211      -164.0360
  24   2.0000      -1.011018       -27.5112
  25   2.0000      -0.989364       -26.9220
  26   2.0000      -0.916785       -24.9470
  27   2.0000      -0.899428       -24.4747
  28   2.0000      -0.876679       -23.8556
  29   2.0000      -0.849748       -23.1228
  30   2.0000      -0.846547       -23.0357
  31   2.0000      -0.818507       -22.2727
  32   2.0000      -0.785642       -21.3784
  33   2.0000      -0.769733       -20.9455
  34   2.0000      -0.712774       -19.3956
  35   2.0000      -0.701929       -19.1005
  36   2.0000      -0.690284       -18.7836
  37   2.0000      -0.655462       -17.8360
  38   2.0000      -0.645566       -17.5667
  39   2.0000      -0.623300       -16.9608
  40   2.0000      -0.602476       -16.3942
  41   2.0000      -0.577655       -15.7188
  42   2.0000      -0.565075       -15.3765
  43   2.0000      -0.556525       -15.1438
  44   2.0000      -0.526077       -14.3153
  45   2.0000      -0.521623       -14.1941
  46   2.0000      -0.513779       -13.9806
  47   2.0000      -0.512618       -13.9491
  48   2.0000      -0.506883       -13.7930
  49   2.0000      -0.500069       -13.6076
  50   2.0000      -0.485217       -13.2034
  51   2.0000      -0.478839       -13.0299
  52   2.0000      -0.474448       -12.9104
  53   2.0000      -0.465839       -12.6761
  54   2.0000      -0.460314       -12.5258
  55   2.0000      -0.455956       -12.4072
  56   2.0000      -0.449659       -12.2359
  57   2.0000      -0.436514       -11.8782
  58   2.0000      -0.433076       -11.7846
  59   2.0000      -0.428827       -11.6690
  60   2.0000      -0.421319       -11.4647
  61   2.0000      -0.416417       -11.3313
  62   2.0000      -0.410660       -11.1746
  63   2.0000      -0.341186        -9.2841
  64   2.0000      -0.332478        -9.0472
  65   2.0000      -0.329398        -8.9634
  66   2.0000      -0.297950        -8.1076
  67   0.0000       0.033720         0.9176
  68   0.0000       0.064761         1.7622
  69   0.0000       0.109134         2.9697
  70   0.0000       0.125698         3.4204
  71   0.0000       0.133951         3.6450

MULLIKEN ATOMIC CHARGES
-----------------------
   0 S :    0.096161
   1 C :   -0.144715
   2 C :   -0.054498
   3 C :    0.062763
   4 C :   -0.157029
   5 H :   -0.019590
   6 C :    0.053902
   7 H :    0.043710
   8 H :    0.017088
   9 C :   -0.066030
  10 H :    0.020932
  11 H :    0.034897
  12 C :   -0.032320
  13 H :    0.029518
  14 H :    0.021905
  15 H :    0.032097
  16 S :    0.101890
  17 C :   -0.082418
  18 C :   -0.041645
  19 C :    0.004188
  20 C :   -0.177254
  21 H :    0.023061
  22 C :    0.028954
  23 H :    0.046608
  24 H :    0.029507
  25 C :   -0.087038
  26 H :    0.025401
  27 H :    0.024180
  28 C :   -0.032704
  29 H :    0.025555
  30 H :    0.026394
  31 H :    0.033361
  32 H :    0.051930
  33 H :    0.061237
Sum of atomic charges:   -0.0000000

LOEWDIN ATOMIC CHARGES
----------------------
   0 S :    0.389545
   1 C :   -0.176367
   2 C :   -0.065684
   3 C :   -0.053495
   4 C :   -0.196111
   5 H :    0.018586
   6 C :   -0.032029
   7 H :    0.040427
   8 H :    0.026335
   9 C :   -0.039533
  10 H :    0.016938
  11 H :    0.028574
  12 C :   -0.063019
  13 H :    0.023786
  14 H :    0.028110
  15 H :    0.028799
  16 S :    0.402066
  17 C :   -0.187474
  18 C :   -0.073353
  19 C :   -0.061121
  20 C :   -0.196737
  21 H :    0.035142
  22 C :   -0.028767
  23 H :    0.036054
  24 H :    0.030335
  25 C :   -0.036564
  26 H :    0.023814
  27 H :    0.013236
  28 C :   -0.062884
  29 H :    0.026861
  30 H :    0.023082
  31 H :    0.021053
  32 H :    0.030331
  33 H :    0.030066

  Mayer bond orders larger than 0.100000
B(  0-S ,  1-C ) :   1.1261 B(  0-S ,  4-C ) :   1.1474 B(  1-C ,  2-C ) :   1.6485
B(  1-C , 32-H ) :   0.9649 B(  2-C ,  3-C ) :   1.2280 B(  2-C ,  6-C ) :   1.0067
B(  3-C ,  4-C ) :   1.5973 B(  3-C ,  5-H ) :   1.0024 B(  4-C , 20-C ) :   1.0124
B(  6-C ,  7-H ) :   0.9260 B(  6-C ,  8-H ) :   0.9492 B(  6-C ,  9-C ) :   1.0720
B(  9-C , 10-H ) :   0.9484 B(  9-C , 11-H ) :   0.9572 B(  9-C , 12-C ) :   1.0984
B( 12-C , 13-H ) :   0.9746 B( 12-C , 14-H ) :   0.9696 B( 12-C , 15-H ) :   0.9729
B( 16-S , 17-C ) :   1.1547 B( 16-S , 20-C ) :   1.1504 B( 17-C , 18-C ) :   1.6138
B( 17-C , 33-H ) :   0.9602 B( 18-C , 19-C ) :   1.2627 B( 18-C , 21-H ) :   0.9857
B( 19-C , 20-C ) :   1.5968 B( 19-C , 22-C ) :   1.0348 B( 22-C , 23-H ) :   0.9437
B( 22-C , 24-H ) :   0.9427 B( 22-C , 25-C ) :   1.0393 B( 25-C , 26-H ) :   0.9567
B( 25-C , 27-H ) :   0.9653 B( 25-C , 28-C ) :   1.0796 B( 28-C , 29-H ) :   0.9755
B( 28-C , 30-H ) :   0.9747 B( 28-C , 31-H ) :   0.9754

Dispersion correction           -0.013429112
FINAL SINGLE POINT ENERGY     -1339.873184989533

DIPOLE MOMENT
-------------
                                X             Y             Z
Electronic contribution:     18.83964       1.91130     -19.34074
Nuclear contribution   :    -19.31636      -1.85335      19.68931
                        -----------------------------------------
Total Dipole Moment    :     -0.47673       0.05795       0.34856
                        -----------------------------------------
Magnitude (a.u.)       :      0.59340
Magnitude (Debye)      :      1.50830

Rotational constants in cm-1:     0.016328     0.008250     0.006725
Rotational constants in MHz :   489.509404   247.339368   201.616710

                             ****ORCA TERMINATED NORMALLY****
TOTAL RUN TIME: 0 days 0 hours 0 minutes 21 seconds 4 msec
