                         Program Version 4.2.1 -  RELEASE  -
|  1> ! wB97X-D3 SP def2-SVP
|  2> %pal
|  3> nprocs 24
|  4> end
|  5>
|  6> * xyz 0 1
|  7> S 	 -46.0391 	 17.9484 	 26.4067
|  8> C 	 -46.852 	 17.0881 	 25.1488
|  9> C 	 -47.6797 	 16.1089 	 25.5725
| 10> C 	 -47.6334 	 16.0569 	 26.995
| 11> C 	 -46.8904 	 17.0745 	 27.5694
| 12> H 	 -48.2524 	 15.4221 	 27.6466
| 13> C 	 -48.6161 	 15.2786 	 24.6549
| 14> H 	 -48.0409 	 15.1771 	 23.7445
| 15> H 	 -49.4412 	 15.9857 	 24.4699
| 16> C 	 -49.1675 	 13.9491 	 25.1905
| 17> H 	 -49.6713 	 13.9967 	 26.1323
| 18> H 	 -49.7597 	 13.568 	 24.4727
| 19> C 	 -48.0446 	 12.8801 	 25.0144
| 20> H 	 -48.4897 	 11.9121 	 25.0149
| 21> H 	 -47.4239 	 13.0387 	 24.0732
| 22> H 	 -47.3764 	 12.9842 	 25.8623
| 23> S 	 -47.9638 	 17.8081 	 30.0589
| 24> C 	 -46.9347 	 17.8227 	 31.4541
| 25> C 	 -45.6719 	 17.455 	 31.1148
| 26> C 	 -45.4892 	 17.1178 	 29.7392
| 27> C 	 -46.6433 	 17.2307 	 29.0056
| 28> H 	 -45.0442 	 17.4728 	 31.944
| 29> C 	 -44.1844 	 16.6115 	 29.2349
| 30> H 	 -43.452 	 16.9296 	 29.9573
| 31> H 	 -43.8882 	 16.9094 	 28.2216
| 32> C 	 -44.1114 	 15.0827 	 29.4135
| 33> H 	 -44.335 	 14.7957 	 30.4071
| 34> H 	 -43.095 	 14.6962 	 29.1984
| 35> C 	 -45.0653 	 14.1798 	 28.6863
| 36> H 	 -45.2203 	 13.1479 	 29.1293
| 37> H 	 -44.8192 	 14.1197 	 27.6186
| 38> H 	 -46.0521 	 14.5807 	 28.7918
| 39> H 	 -46.9229 	 17.3119 	 24.0792
| 40> H 	 -47.141 	 18.013 	 32.4738
| 41> *
| 42>
| 43>                          ****END OF INPUT****

CARTESIAN COORDINATES (ANGSTROEM)
---------------------------------
  S    -46.039100   17.948400   26.406700
  C    -46.852000   17.088100   25.148800
  C    -47.679700   16.108900   25.572500
  C    -47.633400   16.056900   26.995000
  C    -46.890400   17.074500   27.569400
  H    -48.252400   15.422100   27.646600
  C    -48.616100   15.278600   24.654900
  H    -48.040900   15.177100   23.744500
  H    -49.441200   15.985700   24.469900
  C    -49.167500   13.949100   25.190500
  H    -49.671300   13.996700   26.132300
  H    -49.759700   13.568000   24.472700
  C    -48.044600   12.880100   25.014400
  H    -48.489700   11.912100   25.014900
  H    -47.423900   13.038700   24.073200
  H    -47.376400   12.984200   25.862300
  S    -47.963800   17.808100   30.058900
  C    -46.934700   17.822700   31.454100
  C    -45.671900   17.455000   31.114800
  C    -45.489200   17.117800   29.739200
  C    -46.643300   17.230700   29.005600
  H    -45.044200   17.472800   31.944000
  C    -44.184400   16.611500   29.234900
  H    -43.452000   16.929600   29.957300
  H    -43.888200   16.909400   28.221600
  C    -44.111400   15.082700   29.413500
  H    -44.335000   14.795700   30.407100
  H    -43.095000   14.696200   29.198400
  C    -45.065300   14.179800   28.686300
  H    -45.220300   13.147900   29.129300
  H    -44.819200   14.119700   27.618600
  H    -46.052100   14.580700   28.791800
  H    -46.922900   17.311900   24.079200
  H    -47.141000   18.013000   32.473800

 Total Charge           Charge          ....    0
 Multiplicity           Mult            ....    1
 Number of Electrons    NEL             ....  134
 Basis Dimension        Dim             ....  322

ORBITAL ENERGIES
----------------

  NO   OCC          E(Eh)            E(eV)
   0   2.0000     -88.969583     -2420.9854
   1   2.0000     -88.962302     -2420.7873
   2   2.0000     -10.325317      -280.9661
   3   2.0000     -10.322398      -280.8867
   4   2.0000     -10.309721      -280.5418
   5   2.0000     -10.305267      -280.4206
   6   2.0000     -10.300719      -280.2968
   7   2.0000     -10.297392      -280.2063
   8   2.0000     -10.296537      -280.1830
   9   2.0000     -10.292260      -280.0666
  10   2.0000     -10.288285      -279.9585
  11   2.0000     -10.284086      -279.8442
  12   2.0000     -10.280682      -279.7516
  13   2.0000     -10.278986      -279.7054
  14   2.0000     -10.275887      -279.6211
  15   2.0000     -10.265350      -279.3344
  16   2.0000      -8.085340      -220.0133
  17   2.0000      -8.076766      -219.7800
  18   2.0000      -6.043811      -164.4604
  19   2.0000      -6.039650      -164.3472
  20   2.0000      -6.036143      -164.2518
  21   2.0000      -6.035385      -164.2312
  22   2.0000      -6.031265      -164.1191
  23   2.0000      -6.027475      -164.0159
  24   2.0000      -1.014407       -27.6034
  25   2.0000      -0.990629       -26.9564
  26   2.0000      -0.916156       -24.9299
  27   2.0000      -0.911412       -24.8008
  28   2.0000      -0.874217       -23.7887
  29   2.0000      -0.851084       -23.1592
  30   2.0000      -0.845260       -23.0007
  31   2.0000      -0.817500       -22.2453
  32   2.0000      -0.785140       -21.3648
  33   2.0000      -0.774640       -21.0790
  34   2.0000      -0.715322       -19.4649
  35   2.0000      -0.696428       -18.9508
  36   2.0000      -0.685668       -18.6580
  37   2.0000      -0.660660       -17.9775
  38   2.0000      -0.634537       -17.2666
  39   2.0000      -0.622567       -16.9409
  40   2.0000      -0.597752       -16.2657
  41   2.0000      -0.577529       -15.7154
  42   2.0000      -0.555358       -15.1121
  43   2.0000      -0.552258       -15.0277
  44   2.0000      -0.547182       -14.8896
  45   2.0000      -0.543201       -14.7812
  46   2.0000      -0.519011       -14.1230
  47   2.0000      -0.513530       -13.9739
  48   2.0000      -0.502830       -13.6827
  49   2.0000      -0.494035       -13.4434
  50   2.0000      -0.482025       -13.1166
  51   2.0000      -0.478220       -13.0130
  52   2.0000      -0.473434       -12.8828
  53   2.0000      -0.465273       -12.6607
  54   2.0000      -0.460859       -12.5406
  55   2.0000      -0.452206       -12.3051
  56   2.0000      -0.447413       -12.1747
  57   2.0000      -0.439484       -11.9590
  58   2.0000      -0.430736       -11.7209
  59   2.0000      -0.424504       -11.5514
  60   2.0000      -0.413396       -11.2491
  61   2.0000      -0.408679       -11.1207
  62   2.0000      -0.405551       -11.0356
  63   2.0000      -0.337735        -9.1902
  64   2.0000      -0.333284        -9.0691
  65   2.0000      -0.328296        -8.9334
  66   2.0000      -0.301515        -8.2046
  67   0.0000       0.041189         1.1208
  68   0.0000       0.067326         1.8320
  69   0.0000       0.120662         3.2834
  70   0.0000       0.122699         3.3388
  71   0.0000       0.134071         3.6482

MULLIKEN ATOMIC CHARGES
-----------------------
   0 S :    0.145585
   1 C :   -0.132745
   2 C :   -0.090797
   3 C :    0.012953
   4 C :   -0.163837
   5 H :    0.018393
   6 C :    0.047157
   7 H :    0.022153
   8 H :    0.048183
   9 C :   -0.003709
  10 H :    0.041398
  11 H :    0.004068
  12 C :   -0.081041
  13 H :    0.031559
  14 H :    0.042638
  15 H :    0.037509
  16 S :    0.101879
  17 C :   -0.068082
  18 C :   -0.039136
  19 C :   -0.030808
  20 C :   -0.180763
  21 H :   -0.009577
  22 C :    0.143435
  23 H :    0.014256
  24 H :    0.030924
  25 C :   -0.068284
  26 H :    0.005129
  27 H :    0.026874
  28 C :   -0.059549
  29 H :    0.033639
  30 H :    0.034418
  31 H :    0.012930
  32 H :    0.037307
  33 H :    0.035941
Sum of atomic charges:    0.0000000

LOEWDIN ATOMIC CHARGES
----------------------
   0 S :    0.454078
   1 C :   -0.215380
   2 C :   -0.065500
   3 C :   -0.063437
   4 C :   -0.220647
   5 H :    0.029703
   6 C :   -0.023658
   7 H :    0.028644
   8 H :    0.037186
   9 C :   -0.032122
  10 H :    0.026503
  11 H :    0.015218
  12 C :   -0.057998
  13 H :    0.018574
  14 H :    0.034629
  15 H :    0.022333
  16 S :    0.393192
  17 C :   -0.181485
  18 C :   -0.069363
  19 C :   -0.057554
  20 C :   -0.191467
  21 H :    0.022391
  22 C :   -0.026104
  23 H :    0.035220
  24 H :    0.026175
  25 C :   -0.040305
  26 H :    0.019167
  27 H :    0.023598
  28 C :   -0.072654
  29 H :    0.032584
  30 H :    0.022017
  31 H :    0.018232
  32 H :    0.031167
  33 H :    0.027061

  Mayer bond orders larger than 0.100000
B(  0-S ,  1-C ) :   1.1427 B(  0-S ,  4-C ) :   1.1722 B(  1-C ,  2-C ) :   1.6431
B(  1-C , 32-H ) :   0.9571 B(  2-C ,  3-C ) :   1.2565 B(  2-C ,  6-C ) :   0.9852
B(  3-C ,  4-C ) :   1.5728 B(  3-C ,  5-H ) :   0.9826 B(  4-C , 20-C ) :   1.0116
B(  6-C ,  7-H ) :   0.9424 B(  6-C ,  8-H ) :   0.9370 B(  6-C ,  9-C ) :   1.0965
B(  9-C , 10-H ) :   0.9530 B(  9-C , 11-H ) :   0.9476 B(  9-C , 12-C ) :   1.0555
B( 12-C , 13-H ) :   0.9805 B( 12-C , 14-H ) :   0.9749 B( 12-C , 15-H ) :   0.9808
B( 16-S , 17-C ) :   1.1439 B( 16-S , 20-C ) :   1.1289 B( 17-C , 18-C ) :   1.6578
B( 17-C , 33-H ) :   0.9654 B( 18-C , 19-C ) :   1.1996 B( 18-C , 21-H ) :   1.0006
B( 19-C , 20-C ) :   1.6127 B( 19-C , 22-C ) :   1.0534 B( 22-C , 23-H ) :   0.9147
B( 22-C , 24-H ) :   0.9347 B( 22-C , 25-C ) :   1.0696 B( 25-C , 26-H ) :   0.9501
B( 25-C , 27-H ) :   0.9570 B( 25-C , 28-C ) :   1.0875 B( 28-C , 29-H ) :   0.9703
B( 28-C , 30-H ) :   0.9744 B( 28-C , 31-H ) :   0.9648

Dispersion correction           -0.016059577
FINAL SINGLE POINT ENERGY     -1339.859272972622

DIPOLE MOMENT
-------------
                                X             Y             Z
Electronic contribution:     -2.59790      23.34713       7.71244
Nuclear contribution   :      2.55055     -23.76539      -7.79675
                        -----------------------------------------
Total Dipole Moment    :     -0.04736      -0.41825      -0.08431
                        -----------------------------------------
Magnitude (a.u.)       :      0.42929
Magnitude (Debye)      :      1.09116

Rotational constants in cm-1:     0.020520     0.008913     0.008328
Rotational constants in MHz :   615.173575   267.198316   249.678170

                             ****ORCA TERMINATED NORMALLY****
TOTAL RUN TIME: 0 days 0 hours 0 minutes 23 seconds 63 msec
