                         Program Version 4.2.1 -  RELEASE  -
|  1> ! wB97X-D3 SP def2-SVP
|  2> %pal
|  3> nprocs 24
|  4> end
|  5>
|  6> * xyz 0 1
|  7> S 	 -110.008 	 17.2488 	 -111.907
|  8> C 	 -108.75 	 17.8394 	 -112.874
|  9> C 	 -109.257 	 18.5703 	 -113.911
| 10> C 	 -110.686 	 18.3731 	 -114.029
| 11> C 	 -111.189 	 17.6088 	 -113.039
| 12> H 	 -111.395 	 18.5757 	 -114.842
| 13> C 	 -108.439 	 19.245 	 -114.967
| 14> H 	 -107.494 	 18.6247 	 -115.063
| 15> H 	 -108.113 	 20.2056 	 -114.581
| 16> C 	 -109.059 	 19.3432 	 -116.34
| 17> H 	 -109.416 	 18.3343 	 -116.714
| 18> H 	 -109.847 	 20.0491 	 -116.314
| 19> C 	 -108.099 	 19.5518 	 -117.522
| 20> H 	 -107.357 	 18.7378 	 -117.578
| 21> H 	 -108.584 	 19.3938 	 -118.418
| 22> H 	 -107.561 	 20.5394 	 -117.533
| 23> S 	 -112.749 	 15.4178 	 -112.858
| 24> C 	 -114.46 	 15.5596 	 -112.823
| 25> C 	 -114.869 	 16.8592 	 -112.86
| 26> C 	 -113.836 	 17.7842 	 -112.77
| 27> C 	 -112.565 	 17.1947 	 -112.885
| 28> H 	 -115.957 	 17.0688 	 -112.857
| 29> C 	 -114.104 	 19.2418 	 -112.601
| 30> H 	 -113.074 	 19.6365 	 -112.564
| 31> H 	 -114.62 	 19.2806 	 -111.622
| 32> C 	 -115.061 	 19.7367 	 -113.734
| 33> H 	 -115.218 	 20.7958 	 -113.604
| 34> H 	 -116.053 	 19.3809 	 -113.51
| 35> C 	 -114.639 	 19.5802 	 -115.252
| 36> H 	 -113.765 	 20.0239 	 -115.628
| 37> H 	 -115.525 	 19.9752 	 -115.81
| 38> H 	 -114.592 	 18.4907 	 -115.416
| 39> H 	 -107.657 	 17.8103 	 -112.694
| 40> H 	 -115.066 	 14.6376 	 -112.74
| 41> *
| 42>
| 43>                          ****END OF INPUT****

CARTESIAN COORDINATES (ANGSTROEM)
---------------------------------
  S    -110.008000   17.248800  -111.907000
  C    -108.750000   17.839400  -112.874000
  C    -109.257000   18.570300  -113.911000
  C    -110.686000   18.373100  -114.029000
  C    -111.189000   17.608800  -113.039000
  H    -111.395000   18.575700  -114.842000
  C    -108.439000   19.245000  -114.967000
  H    -107.494000   18.624700  -115.063000
  H    -108.113000   20.205600  -114.581000
  C    -109.059000   19.343200  -116.340000
  H    -109.416000   18.334300  -116.714000
  H    -109.847000   20.049100  -116.314000
  C    -108.099000   19.551800  -117.522000
  H    -107.357000   18.737800  -117.578000
  H    -108.584000   19.393800  -118.418000
  H    -107.561000   20.539400  -117.533000
  S    -112.749000   15.417800  -112.858000
  C    -114.460000   15.559600  -112.823000
  C    -114.869000   16.859200  -112.860000
  C    -113.836000   17.784200  -112.770000
  C    -112.565000   17.194700  -112.885000
  H    -115.957000   17.068800  -112.857000
  C    -114.104000   19.241800  -112.601000
  H    -113.074000   19.636500  -112.564000
  H    -114.620000   19.280600  -111.622000
  C    -115.061000   19.736700  -113.734000
  H    -115.218000   20.795800  -113.604000
  H    -116.053000   19.380900  -113.510000
  C    -114.639000   19.580200  -115.252000
  H    -113.765000   20.023900  -115.628000
  H    -115.525000   19.975200  -115.810000
  H    -114.592000   18.490700  -115.416000
  H    -107.657000   17.810300  -112.694000
  H    -115.066000   14.637600  -112.740000

 Total Charge           Charge          ....    0
 Multiplicity           Mult            ....    1
 Number of Electrons    NEL             ....  134
 Basis Dimension        Dim             ....  322

ORBITAL ENERGIES
----------------

  NO   OCC          E(Eh)            E(eV)
   0   2.0000     -88.959591     -2420.7135
   1   2.0000     -88.958146     -2420.6742
   2   2.0000     -10.323362      -280.9130
   3   2.0000     -10.315138      -280.6892
   4   2.0000     -10.314847      -280.6812
   5   2.0000     -10.306479      -280.4535
   6   2.0000     -10.299806      -280.2720
   7   2.0000     -10.296735      -280.1884
   8   2.0000     -10.293369      -280.0968
   9   2.0000     -10.291543      -280.0471
  10   2.0000     -10.291275      -280.0398
  11   2.0000     -10.288445      -279.9628
  12   2.0000     -10.287311      -279.9320
  13   2.0000     -10.286889      -279.9205
  14   2.0000     -10.282364      -279.7973
  15   2.0000     -10.277600      -279.6677
  16   2.0000      -8.077028      -219.7871
  17   2.0000      -8.073496      -219.6910
  18   2.0000      -6.035398      -164.2315
  19   2.0000      -6.031773      -164.1329
  20   2.0000      -6.031123      -164.1152
  21   2.0000      -6.027893      -164.0273
  22   2.0000      -6.027771      -164.0240
  23   2.0000      -6.024486      -163.9346
  24   2.0000      -1.019080       -27.7306
  25   2.0000      -0.992182       -26.9986
  26   2.0000      -0.916202       -24.9311
  27   2.0000      -0.906954       -24.6795
  28   2.0000      -0.874815       -23.8049
  29   2.0000      -0.849809       -23.1245
  30   2.0000      -0.845155       -22.9978
  31   2.0000      -0.816737       -22.2245
  32   2.0000      -0.785238       -21.3674
  33   2.0000      -0.774249       -21.0684
  34   2.0000      -0.714579       -19.4447
  35   2.0000      -0.701899       -19.0996
  36   2.0000      -0.686545       -18.6818
  37   2.0000      -0.654492       -17.8096
  38   2.0000      -0.643762       -17.5176
  39   2.0000      -0.614360       -16.7176
  40   2.0000      -0.591634       -16.0992
  41   2.0000      -0.575905       -15.6712
  42   2.0000      -0.566305       -15.4099
  43   2.0000      -0.549701       -14.9581
  44   2.0000      -0.538129       -14.6432
  45   2.0000      -0.529002       -14.3949
  46   2.0000      -0.523571       -14.2471
  47   2.0000      -0.507173       -13.8009
  48   2.0000      -0.505204       -13.7473
  49   2.0000      -0.501863       -13.6564
  50   2.0000      -0.493169       -13.4198
  51   2.0000      -0.475365       -12.9353
  52   2.0000      -0.471037       -12.8176
  53   2.0000      -0.470083       -12.7916
  54   2.0000      -0.457622       -12.4525
  55   2.0000      -0.451739       -12.2924
  56   2.0000      -0.440482       -11.9861
  57   2.0000      -0.439429       -11.9575
  58   2.0000      -0.433037       -11.7835
  59   2.0000      -0.427922       -11.6443
  60   2.0000      -0.423467       -11.5231
  61   2.0000      -0.406973       -11.0743
  62   2.0000      -0.405182       -11.0256
  63   2.0000      -0.339644        -9.2422
  64   2.0000      -0.329391        -8.9632
  65   2.0000      -0.323819        -8.8116
  66   2.0000      -0.297951        -8.1076
  67   0.0000       0.039019         1.0618
  68   0.0000       0.074298         2.0218
  69   0.0000       0.124318         3.3829
  70   0.0000       0.126885         3.4527
  71   0.0000       0.131867         3.5883

MULLIKEN ATOMIC CHARGES
-----------------------
   0 S :    0.134696
   1 C :   -0.131052
   2 C :   -0.091213
   3 C :    0.014495
   4 C :   -0.155500
   5 H :    0.016292
   6 C :    0.076752
   7 H :    0.024136
   8 H :    0.035573
   9 C :   -0.104757
  10 H :    0.038830
  11 H :    0.031497
  12 C :   -0.025709
  13 H :    0.023448
  14 H :    0.013813
  15 H :    0.037188
  16 S :    0.093467
  17 C :   -0.097681
  18 C :   -0.058443
  19 C :   -0.038038
  20 C :   -0.198134
  21 H :    0.028746
  22 C :    0.100398
  23 H :    0.034167
  24 H :    0.044400
  25 C :   -0.091208
  26 H :    0.021253
  27 H :    0.022558
  28 C :   -0.050155
  29 H :    0.039616
  30 H :    0.040709
  31 H :    0.044874
  32 H :    0.055403
  33 H :    0.069580
Sum of atomic charges:    0.0000000

LOEWDIN ATOMIC CHARGES
----------------------
   0 S :    0.454544
   1 C :   -0.221944
   2 C :   -0.066203
   3 C :   -0.072756
   4 C :   -0.231313
   5 H :    0.036261
   6 C :   -0.038207
   7 H :    0.037303
   8 H :    0.032350
   9 C :   -0.044001
  10 H :    0.038358
  11 H :    0.016943
  12 C :   -0.062018
  13 H :    0.027252
  14 H :    0.015893
  15 H :    0.025120
  16 S :    0.403064
  17 C :   -0.187707
  18 C :   -0.088941
  19 C :   -0.056249
  20 C :   -0.196641
  21 H :    0.037432
  22 C :   -0.030382
  23 H :    0.035090
  24 H :    0.042535
  25 C :   -0.040305
  26 H :    0.021054
  27 H :    0.022726
  28 C :   -0.063426
  29 H :    0.017258
  30 H :    0.036137
  31 H :    0.028775
  32 H :    0.038047
  33 H :    0.033950

  Mayer bond orders larger than 0.100000
B(  0-S ,  1-C ) :   1.1452 B(  0-S ,  4-C ) :   1.1771 B(  1-C ,  2-C ) :   1.6202
B(  1-C , 32-H ) :   0.9668 B(  2-C ,  3-C ) :   1.2169 B(  2-C ,  6-C ) :   1.0181
B(  3-C ,  4-C ) :   1.5855 B(  3-C ,  5-H ) :   0.9960 B(  4-C , 20-C ) :   1.0113
B(  6-C ,  7-H ) :   0.9471 B(  6-C ,  8-H ) :   0.9188 B(  6-C ,  9-C ) :   1.0862
B(  9-C , 10-H ) :   0.9589 B(  9-C , 11-H ) :   0.9462 B(  9-C , 12-C ) :   1.0803
B( 12-C , 13-H ) :   0.9716 B( 12-C , 14-H ) :   0.9745 B( 12-C , 15-H ) :   0.9727
B( 16-S , 17-C ) :   1.1805 B( 16-S , 20-C ) :   1.1449 B( 17-C , 18-C ) :   1.5865
B( 17-C , 20-C ) :   0.1096 B( 17-C , 33-H ) :   0.9640 B( 18-C , 19-C ) :   1.2423
B( 18-C , 21-H ) :   0.9898 B( 19-C , 20-C ) :   1.5713 B( 19-C , 22-C ) :   1.0309
B( 22-C , 23-H ) :   0.9379 B( 22-C , 24-H ) :   0.9300 B( 22-C , 25-C ) :   1.0650
B( 25-C , 26-H ) :   0.9576 B( 25-C , 27-H ) :   0.9514 B( 25-C , 28-C ) :   1.0622
B( 28-C , 29-H ) :   0.9783 B( 28-C , 30-H ) :   0.9718 B( 28-C , 31-H ) :   0.9748

Dispersion correction           -0.014515365
FINAL SINGLE POINT ENERGY     -1339.862927571589

DIPOLE MOMENT
-------------
                                X             Y             Z
Electronic contribution:      0.80138     -18.55873      20.47261
Nuclear contribution   :     -1.02896      18.94132     -20.86224
                        -----------------------------------------
Total Dipole Moment    :     -0.22758       0.38259      -0.38963
                        -----------------------------------------
Magnitude (a.u.)       :      0.59159
Magnitude (Debye)      :      1.50371

Rotational constants in cm-1:     0.018252     0.008950     0.007047
Rotational constants in MHz :   547.193842   268.300970   211.269946

                             ****ORCA TERMINATED NORMALLY****
TOTAL RUN TIME: 0 days 0 hours 0 minutes 21 seconds 995 msec
