                         Program Version 4.2.1 -  RELEASE  -
|  1> ! wB97X-D3 SP def2-SVP
|  2> %pal
|  3> nprocs 24
|  4> end
|  5>
|  6> * xyz 0 1
|  7> S 	 -121.972 	 48.176 	 -28.9988
|  8> C 	 -120.963 	 47.2867 	 -27.8195
|  9> C 	 -120.922 	 45.9267 	 -28.1317
| 10> C 	 -121.503 	 45.6487 	 -29.4387
| 11> C 	 -121.995 	 46.7801 	 -30.121
| 12> H 	 -121.588 	 44.6793 	 -29.9313
| 13> C 	 -120.489 	 44.8645 	 -27.1638
| 14> H 	 -120.989 	 45.1466 	 -26.1851
| 15> H 	 -119.381 	 44.8435 	 -27.1057
| 16> C 	 -120.897 	 43.4559 	 -27.5006
| 17> H 	 -122.025 	 43.3785 	 -27.6941
| 18> H 	 -120.394 	 43.1323 	 -28.4284
| 19> C 	 -120.475 	 42.522 	 -26.3841
| 20> H 	 -120.692 	 41.5187 	 -26.7582
| 21> H 	 -119.432 	 42.6736 	 -26.2058
| 22> H 	 -121.012 	 42.6578 	 -25.423
| 23> S 	 -123.957 	 46.0527 	 -31.9946
| 24> C 	 -123.643 	 46.5278 	 -33.6588
| 25> C 	 -122.445 	 47.108 	 -33.8313
| 26> C 	 -121.797 	 47.3374 	 -32.5994
| 27> C 	 -122.479 	 46.8205 	 -31.5415
| 28> H 	 -122.137 	 47.34 	 -34.8949
| 29> C 	 -120.403 	 47.8894 	 -32.6011
| 30> H 	 -120.069 	 48.3109 	 -31.6304
| 31> H 	 -120.281 	 48.708 	 -33.3164
| 32> C 	 -119.439 	 46.7048 	 -32.9834
| 33> H 	 -119.565 	 46.2074 	 -33.9526
| 34> H 	 -119.579 	 45.9402 	 -32.2161
| 35> C 	 -118.008 	 47.0981 	 -32.7508
| 36> H 	 -117.755 	 48.0077 	 -33.3346
| 37> H 	 -117.356 	 46.3788 	 -33.1779
| 38> H 	 -117.686 	 47.2639 	 -31.7555
| 39> H 	 -120.849 	 47.6764 	 -26.8189
| 40> H 	 -124.361 	 46.3666 	 -34.4135
| 41> *
| 42>
| 43>                          ****END OF INPUT****

CARTESIAN COORDINATES (ANGSTROEM)
---------------------------------
  S    -121.972000   48.176000  -28.998800
  C    -120.963000   47.286700  -27.819500
  C    -120.922000   45.926700  -28.131700
  C    -121.503000   45.648700  -29.438700
  C    -121.995000   46.780100  -30.121000
  H    -121.588000   44.679300  -29.931300
  C    -120.489000   44.864500  -27.163800
  H    -120.989000   45.146600  -26.185100
  H    -119.381000   44.843500  -27.105700
  C    -120.897000   43.455900  -27.500600
  H    -122.025000   43.378500  -27.694100
  H    -120.394000   43.132300  -28.428400
  C    -120.475000   42.522000  -26.384100
  H    -120.692000   41.518700  -26.758200
  H    -119.432000   42.673600  -26.205800
  H    -121.012000   42.657800  -25.423000
  S    -123.957000   46.052700  -31.994600
  C    -123.643000   46.527800  -33.658800
  C    -122.445000   47.108000  -33.831300
  C    -121.797000   47.337400  -32.599400
  C    -122.479000   46.820500  -31.541500
  H    -122.137000   47.340000  -34.894900
  C    -120.403000   47.889400  -32.601100
  H    -120.069000   48.310900  -31.630400
  H    -120.281000   48.708000  -33.316400
  C    -119.439000   46.704800  -32.983400
  H    -119.565000   46.207400  -33.952600
  H    -119.579000   45.940200  -32.216100
  C    -118.008000   47.098100  -32.750800
  H    -117.755000   48.007700  -33.334600
  H    -117.356000   46.378800  -33.177900
  H    -117.686000   47.263900  -31.755500
  H    -120.849000   47.676400  -26.818900
  H    -124.361000   46.366600  -34.413500

 Total Charge           Charge          ....    0
 Multiplicity           Mult            ....    1
 Number of Electrons    NEL             ....  134
 Basis Dimension        Dim             ....  322

ORBITAL ENERGIES
----------------

  NO   OCC          E(Eh)            E(eV)
   0   2.0000     -88.964627     -2420.8506
   1   2.0000     -88.964508     -2420.8473
   2   2.0000     -10.336490      -281.2702
   3   2.0000     -10.322285      -280.8837
   4   2.0000     -10.315042      -280.6866
   5   2.0000     -10.310467      -280.5621
   6   2.0000     -10.306039      -280.4416
   7   2.0000     -10.299638      -280.2674
   8   2.0000     -10.297118      -280.1988
   9   2.0000     -10.296721      -280.1880
  10   2.0000     -10.292549      -280.0745
  11   2.0000     -10.291051      -280.0337
  12   2.0000     -10.290980      -280.0318
  13   2.0000     -10.282737      -279.8075
  14   2.0000     -10.278547      -279.6935
  15   2.0000     -10.265288      -279.3327
  16   2.0000      -8.079806      -219.8627
  17   2.0000      -8.077774      -219.8074
  18   2.0000      -6.038214      -164.3081
  19   2.0000      -6.036414      -164.2592
  20   2.0000      -6.034425      -164.2051
  21   2.0000      -6.032498      -164.1526
  22   2.0000      -6.030471      -164.0975
  23   2.0000      -6.028491      -164.0436
  24   2.0000      -1.007218       -27.4078
  25   2.0000      -0.977217       -26.5914
  26   2.0000      -0.916959       -24.9517
  27   2.0000      -0.907693       -24.6996
  28   2.0000      -0.868014       -23.6199
  29   2.0000      -0.853338       -23.2205
  30   2.0000      -0.842277       -22.9195
  31   2.0000      -0.814985       -22.1769
  32   2.0000      -0.778273       -21.1779
  33   2.0000      -0.767588       -20.8871
  34   2.0000      -0.705897       -19.2084
  35   2.0000      -0.695421       -18.9234
  36   2.0000      -0.683331       -18.5944
  37   2.0000      -0.661131       -17.9903
  38   2.0000      -0.634440       -17.2640
  39   2.0000      -0.614278       -16.7154
  40   2.0000      -0.599968       -16.3260
  41   2.0000      -0.580432       -15.7944
  42   2.0000      -0.566444       -15.4137
  43   2.0000      -0.560972       -15.2648
  44   2.0000      -0.525037       -14.2870
  45   2.0000      -0.519832       -14.1454
  46   2.0000      -0.513423       -13.9710
  47   2.0000      -0.510175       -13.8826
  48   2.0000      -0.503229       -13.6936
  49   2.0000      -0.501841       -13.6558
  50   2.0000      -0.483656       -13.1610
  51   2.0000      -0.477813       -13.0019
  52   2.0000      -0.472943       -12.8694
  53   2.0000      -0.467116       -12.7109
  54   2.0000      -0.452222       -12.3056
  55   2.0000      -0.446064       -12.1380
  56   2.0000      -0.443584       -12.0705
  57   2.0000      -0.438441       -11.9306
  58   2.0000      -0.428985       -11.6733
  59   2.0000      -0.425184       -11.5698
  60   2.0000      -0.421967       -11.4823
  61   2.0000      -0.414906       -11.2902
  62   2.0000      -0.411407       -11.1949
  63   2.0000      -0.338696        -9.2164
  64   2.0000      -0.331216        -9.0128
  65   2.0000      -0.320727        -8.7274
  66   2.0000      -0.302259        -8.2249
  67   0.0000       0.038560         1.0493
  68   0.0000       0.059212         1.6112
  69   0.0000       0.104531         2.8444
  70   0.0000       0.120022         3.2660
  71   0.0000       0.131323         3.5735

MULLIKEN ATOMIC CHARGES
-----------------------
   0 S :    0.097084
   1 C :   -0.123541
   2 C :   -0.089348
   3 C :    0.033370
   4 C :   -0.163693
   5 H :    0.020827
   6 C :    0.039382
   7 H :    0.043453
   8 H :    0.047092
   9 C :   -0.144255
  10 H :    0.044772
  11 H :    0.036396
  12 C :   -0.011874
  13 H :    0.034256
  14 H :    0.022431
  15 H :    0.037092
  16 S :    0.110478
  17 C :   -0.088556
  18 C :   -0.041545
  19 C :   -0.002915
  20 C :   -0.183195
  21 H :    0.041943
  22 C :    0.076904
  23 H :    0.029737
  24 H :    0.024551
  25 C :   -0.089256
  26 H :    0.037001
  27 H :    0.027002
  28 C :   -0.017189
  29 H :    0.013167
  30 H :    0.014656
  31 H :    0.031705
  32 H :    0.054318
  33 H :    0.037746
Sum of atomic charges:    0.0000000

LOEWDIN ATOMIC CHARGES
----------------------
   0 S :    0.375457
   1 C :   -0.192954
   2 C :   -0.062078
   3 C :   -0.067903
   4 C :   -0.177467
   5 H :    0.031716
   6 C :   -0.042226
   7 H :    0.041048
   8 H :    0.038900
   9 C :   -0.052789
  10 H :    0.030623
  11 H :    0.024900
  12 C :   -0.060077
  13 H :    0.028758
  14 H :    0.020697
  15 H :    0.028362
  16 S :    0.404811
  17 C :   -0.167391
  18 C :   -0.074294
  19 C :   -0.054411
  20 C :   -0.214851
  21 H :    0.047005
  22 C :   -0.025892
  23 H :    0.032819
  24 H :    0.027789
  25 C :   -0.037798
  26 H :    0.026180
  27 H :    0.027780
  28 C :   -0.065163
  29 H :    0.022894
  30 H :    0.020911
  31 H :    0.020891
  32 H :    0.025533
  33 H :    0.018222

  Mayer bond orders larger than 0.100000
B(  0-S ,  1-C ) :   1.1290 B(  0-S ,  4-C ) :   1.1500 B(  1-C ,  2-C ) :   1.6168
B(  1-C ,  4-C ) :   0.1026 B(  1-C , 32-H ) :   0.9687 B(  2-C ,  3-C ) :   1.2391
B(  2-C ,  6-C ) :   1.0082 B(  3-C ,  4-C ) :   1.5757 B(  3-C ,  5-H ) :   0.9845
B(  4-C , 20-C ) :   1.0010 B(  6-C ,  7-H ) :   0.9450 B(  6-C ,  8-H ) :   0.9263
B(  6-C ,  9-C ) :   1.1069 B(  9-C , 10-H ) :   0.9495 B(  9-C , 11-H ) :   0.9410
B(  9-C , 12-C ) :   1.0861 B( 12-C , 13-H ) :   0.9719 B( 12-C , 14-H ) :   0.9708
B( 12-C , 15-H ) :   0.9741 B( 16-S , 17-C ) :   1.1490 B( 16-S , 20-C ) :   1.1361
B( 17-C , 18-C ) :   1.6407 B( 17-C , 33-H ) :   0.9718 B( 18-C , 19-C ) :   1.2136
B( 18-C , 21-H ) :   0.9834 B( 19-C , 20-C ) :   1.6302 B( 19-C , 22-C ) :   1.0643
B( 22-C , 23-H ) :   0.9299 B( 22-C , 24-H ) :   0.9312 B( 22-C , 25-C ) :   1.0521
B( 25-C , 26-H ) :   0.9590 B( 25-C , 27-H ) :   0.9532 B( 25-C , 28-C ) :   1.0950
B( 28-C , 29-H ) :   0.9677 B( 28-C , 30-H ) :   0.9687 B( 28-C , 31-H ) :   0.9760

Dispersion correction           -0.014379421
FINAL SINGLE POINT ENERGY     -1339.878095645344

DIPOLE MOMENT
-------------
                                X             Y             Z
Electronic contribution:    -20.59012      12.77876      -4.68886
Nuclear contribution   :     20.94020     -13.22020       4.61435
                        -----------------------------------------
Total Dipole Moment    :      0.35008      -0.44144      -0.07451
                        -----------------------------------------
Magnitude (a.u.)       :      0.56831
Magnitude (Debye)      :      1.44453

Rotational constants in cm-1:     0.017724     0.008127     0.007416
Rotational constants in MHz :   531.344457   243.654363   222.335541

                             ****ORCA TERMINATED NORMALLY****
TOTAL RUN TIME: 0 days 0 hours 0 minutes 21 seconds 684 msec
