                         Program Version 4.2.1 -  RELEASE  -
|  1> ! wB97X-D3 SP def2-SVP
|  2> %pal
|  3> nprocs 24
|  4> end
|  5>
|  6> * xyz 0 1
|  7> S 	 27.0326 	 -4.12518 	 -109.077
|  8> C 	 28.5063 	 -3.32918 	 -109.741
|  9> C 	 28.2047 	 -2.57809 	 -110.84
| 10> C 	 26.8494 	 -2.77189 	 -111.285
| 11> C 	 26.0404 	 -3.41952 	 -110.383
| 12> H 	 26.3794 	 -2.26121 	 -112.038
| 13> C 	 29.1468 	 -1.69591 	 -111.619
| 14> H 	 30.0155 	 -1.53498 	 -110.987
| 15> H 	 28.6999 	 -0.723886 	 -111.634
| 16> C 	 29.6311 	 -2.20555 	 -112.988
| 17> H 	 30.1165 	 -3.16993 	 -112.691
| 18> H 	 28.7357 	 -2.43592 	 -113.605
| 19> C 	 30.5985 	 -1.27985 	 -113.742
| 20> H 	 31.5564 	 -1.06595 	 -113.34
| 21> H 	 31.0219 	 -1.47829 	 -114.739
| 22> H 	 30.0901 	 -0.35291 	 -113.864
| 23> S 	 23.9385 	 -3.13742 	 -108.694
| 24> C 	 22.3144 	 -2.80524 	 -109.395
| 25> C 	 22.35 	 -3.06234 	 -110.739
| 26> C 	 23.6481 	 -3.40741 	 -111.288
| 27> C 	 24.6137 	 -3.39788 	 -110.314
| 28> H 	 21.3785 	 -2.95288 	 -111.181
| 29> C 	 23.8572 	 -3.70966 	 -112.739
| 30> H 	 24.8217 	 -4.18968 	 -113.065
| 31> H 	 23.9592 	 -2.65162 	 -113.137
| 32> C 	 22.6101 	 -4.46564 	 -113.456
| 33> H 	 21.6399 	 -4.1932 	 -113.132
| 34> H 	 22.7279 	 -5.47507 	 -113.087
| 35> C 	 22.7041 	 -4.365 	 -114.997
| 36> H 	 22.6669 	 -3.31649 	 -115.341
| 37> H 	 21.7621 	 -4.92155 	 -115.35
| 38> H 	 23.5523 	 -4.78306 	 -115.442
| 39> H 	 29.3668 	 -3.31804 	 -109.104
| 40> H 	 21.4777 	 -2.4565 	 -108.862
| 41> *
| 42>
| 43>                          ****END OF INPUT****

CARTESIAN COORDINATES (ANGSTROEM)
---------------------------------
  S     27.032600   -4.125180  -109.077000
  C     28.506300   -3.329180  -109.741000
  C     28.204700   -2.578090  -110.840000
  C     26.849400   -2.771890  -111.285000
  C     26.040400   -3.419520  -110.383000
  H     26.379400   -2.261210  -112.038000
  C     29.146800   -1.695910  -111.619000
  H     30.015500   -1.534980  -110.987000
  H     28.699900   -0.723886  -111.634000
  C     29.631100   -2.205550  -112.988000
  H     30.116500   -3.169930  -112.691000
  H     28.735700   -2.435920  -113.605000
  C     30.598500   -1.279850  -113.742000
  H     31.556400   -1.065950  -113.340000
  H     31.021900   -1.478290  -114.739000
  H     30.090100   -0.352910  -113.864000
  S     23.938500   -3.137420  -108.694000
  C     22.314400   -2.805240  -109.395000
  C     22.350000   -3.062340  -110.739000
  C     23.648100   -3.407410  -111.288000
  C     24.613700   -3.397880  -110.314000
  H     21.378500   -2.952880  -111.181000
  C     23.857200   -3.709660  -112.739000
  H     24.821700   -4.189680  -113.065000
  H     23.959200   -2.651620  -113.137000
  C     22.610100   -4.465640  -113.456000
  H     21.639900   -4.193200  -113.132000
  H     22.727900   -5.475070  -113.087000
  C     22.704100   -4.365000  -114.997000
  H     22.666900   -3.316490  -115.341000
  H     21.762100   -4.921550  -115.350000
  H     23.552300   -4.783060  -115.442000
  H     29.366800   -3.318040  -109.104000
  H     21.477700   -2.456500  -108.862000

 Total Charge           Charge          ....    0
 Multiplicity           Mult            ....    1
 Number of Electrons    NEL             ....  134
 Basis Dimension        Dim             ....  322

ORBITAL ENERGIES
----------------

  NO   OCC          E(Eh)            E(eV)
   0   2.0000     -88.960942     -2420.7503
   1   2.0000     -88.960865     -2420.7482
   2   2.0000     -10.330969      -281.1200
   3   2.0000     -10.325387      -280.9681
   4   2.0000     -10.317571      -280.7554
   5   2.0000     -10.315415      -280.6967
   6   2.0000     -10.309055      -280.5236
   7   2.0000     -10.306212      -280.4463
   8   2.0000     -10.304363      -280.3960
   9   2.0000     -10.297574      -280.2112
  10   2.0000     -10.296140      -280.1722
  11   2.0000     -10.292930      -280.0849
  12   2.0000     -10.289786      -279.9993
  13   2.0000     -10.287266      -279.9307
  14   2.0000     -10.284872      -279.8656
  15   2.0000     -10.276474      -279.6371
  16   2.0000      -8.074912      -219.7295
  17   2.0000      -8.074810      -219.7268
  18   2.0000      -6.033647      -164.1839
  19   2.0000      -6.033528      -164.1806
  20   2.0000      -6.029647      -164.0750
  21   2.0000      -6.029529      -164.0718
  22   2.0000      -6.025328      -163.9575
  23   2.0000      -6.025307      -163.9569
  24   2.0000      -1.003855       -27.3163
  25   2.0000      -0.977758       -26.6062
  26   2.0000      -0.911231       -24.7958
  27   2.0000      -0.900417       -24.5016
  28   2.0000      -0.873887       -23.7797
  29   2.0000      -0.852159       -23.1884
  30   2.0000      -0.842041       -22.9131
  31   2.0000      -0.820594       -22.3295
  32   2.0000      -0.783686       -21.3252
  33   2.0000      -0.770846       -20.9758
  34   2.0000      -0.715100       -19.4588
  35   2.0000      -0.707966       -19.2647
  36   2.0000      -0.703047       -19.1309
  37   2.0000      -0.660908       -17.9842
  38   2.0000      -0.646667       -17.5967
  39   2.0000      -0.622840       -16.9483
  40   2.0000      -0.598202       -16.2779
  41   2.0000      -0.572215       -15.5708
  42   2.0000      -0.558272       -15.1914
  43   2.0000      -0.557152       -15.1609
  44   2.0000      -0.532074       -14.4785
  45   2.0000      -0.523630       -14.2487
  46   2.0000      -0.516885       -14.0652
  47   2.0000      -0.513707       -13.9787
  48   2.0000      -0.507641       -13.8136
  49   2.0000      -0.502210       -13.6658
  50   2.0000      -0.486372       -13.2349
  51   2.0000      -0.484187       -13.1754
  52   2.0000      -0.475596       -12.9416
  53   2.0000      -0.466133       -12.6841
  54   2.0000      -0.460693       -12.5361
  55   2.0000      -0.451770       -12.2933
  56   2.0000      -0.446458       -12.1488
  57   2.0000      -0.431889       -11.7523
  58   2.0000      -0.427268       -11.6265
  59   2.0000      -0.425042       -11.5660
  60   2.0000      -0.419983       -11.4283
  61   2.0000      -0.417260       -11.3542
  62   2.0000      -0.406916       -11.0727
  63   2.0000      -0.356991        -9.7142
  64   2.0000      -0.330482        -8.9929
  65   2.0000      -0.324796        -8.8382
  66   2.0000      -0.286665        -7.8006
  67   0.0000       0.022392         0.6093
  68   0.0000       0.071691         1.9508
  69   0.0000       0.106204         2.8900
  70   0.0000       0.120982         3.2921
  71   0.0000       0.133719         3.6387

MULLIKEN ATOMIC CHARGES
-----------------------
   0 S :    0.069561
   1 C :   -0.118809
   2 C :   -0.086233
   3 C :    0.050169
   4 C :   -0.131008
   5 H :   -0.025273
   6 C :    0.079344
   7 H :    0.007553
   8 H :    0.021746
   9 C :   -0.065602
  10 H :    0.038092
  11 H :    0.039345
  12 C :   -0.025356
  13 H :    0.014899
  14 H :    0.027420
  15 H :    0.018253
  16 S :    0.082862
  17 C :   -0.083546
  18 C :   -0.041913
  19 C :    0.001320
  20 C :   -0.126438
  21 H :    0.017064
  22 C :   -0.012700
  23 H :    0.050416
  24 H :    0.046410
  25 C :   -0.057841
  26 H :    0.024551
  27 H :    0.038155
  28 C :   -0.057471
  29 H :    0.036380
  30 H :    0.045769
  31 H :    0.028312
  32 H :    0.051149
  33 H :    0.043424
Sum of atomic charges:    0.0000000

LOEWDIN ATOMIC CHARGES
----------------------
   0 S :    0.353115
   1 C :   -0.172929
   2 C :   -0.054221
   3 C :   -0.058203
   4 C :   -0.164230
   5 H :    0.014372
   6 C :   -0.032481
   7 H :    0.028675
   8 H :    0.026358
   9 C :   -0.037831
  10 H :    0.031385
  11 H :    0.027944
  12 C :   -0.077611
  13 H :    0.022594
  14 H :    0.034232
  15 H :    0.022805
  16 S :    0.365395
  17 C :   -0.157250
  18 C :   -0.068934
  19 C :   -0.058293
  20 C :   -0.186940
  21 H :    0.030706
  22 C :   -0.042087
  23 H :    0.038162
  24 H :    0.037668
  25 C :   -0.030922
  26 H :    0.016752
  27 H :    0.027608
  28 C :   -0.064146
  29 H :    0.027639
  30 H :    0.038685
  31 H :    0.015425
  32 H :    0.023636
  33 H :    0.022922

  Mayer bond orders larger than 0.100000
B(  0-S ,  1-C ) :   1.1021 B(  0-S ,  4-C ) :   1.1237 B(  1-C ,  2-C ) :   1.6495
B(  1-C , 32-H ) :   0.9709 B(  2-C ,  3-C ) :   1.1991 B(  2-C ,  6-C ) :   1.0366
B(  3-C ,  4-C ) :   1.6044 B(  3-C ,  5-H ) :   0.9964 B(  4-C , 20-C ) :   1.0817
B(  6-C ,  7-H ) :   0.9379 B(  6-C ,  8-H ) :   0.9292 B(  6-C ,  9-C ) :   1.0484
B(  9-C , 10-H ) :   0.9566 B(  9-C , 11-H ) :   0.9591 B(  9-C , 12-C ) :   1.0670
B( 12-C , 13-H ) :   0.9740 B( 12-C , 14-H ) :   0.9735 B( 12-C , 15-H ) :   0.9740
B( 16-S , 17-C ) :   1.1223 B( 16-S , 20-C ) :   1.1092 B( 17-C , 18-C ) :   1.6636
B( 17-C , 33-H ) :   0.9736 B( 18-C , 19-C ) :   1.1738 B( 18-C , 21-H ) :   0.9917
B( 19-C , 20-C ) :   1.6168 B( 19-C , 22-C ) :   1.0367 B( 22-C , 23-H ) :   0.9454
B( 22-C , 24-H ) :   0.9299 B( 22-C , 25-C ) :   1.0357 B( 25-C , 26-H ) :   0.9609
B( 25-C , 27-H ) :   0.9582 B( 25-C , 28-C ) :   1.0767 B( 28-C , 29-H ) :   0.9774
B( 28-C , 30-H ) :   0.9748 B( 28-C , 31-H ) :   0.9780

Dispersion correction           -0.013366537
FINAL SINGLE POINT ENERGY     -1339.854486180712

DIPOLE MOMENT
-------------
                                X             Y             Z
Electronic contribution:     -6.42091      -5.09996      29.22874
Nuclear contribution   :      6.32121       5.52157     -29.92009
                        -----------------------------------------
Total Dipole Moment    :     -0.09970       0.42161      -0.69135
                        -----------------------------------------
Magnitude (a.u.)       :      0.81588
Magnitude (Debye)      :      2.07381

Rotational constants in cm-1:     0.016308     0.008351     0.006016
Rotational constants in MHz :   488.894566   250.353985   180.344144

                             ****ORCA TERMINATED NORMALLY****
TOTAL RUN TIME: 0 days 0 hours 0 minutes 19 seconds 711 msec
