                         Program Version 4.2.1 -  RELEASE  -
|  1> ! wB97X-D3 SP def2-SVP
|  2> %pal
|  3> nprocs 24
|  4> end
|  5>
|  6> * xyz 0 1
|  7> S 	 34.6057 	 -29.1795 	 -111.89
|  8> C 	 35.1952 	 -28.6379 	 -110.397
|  9> C 	 36.4162 	 -29.1307 	 -109.955
| 10> C 	 36.808 	 -30.0915 	 -110.96
| 11> C 	 35.9163 	 -30.2513 	 -112.001
| 12> H 	 37.7268 	 -30.6937 	 -110.843
| 13> C 	 37.0317 	 -28.9895 	 -108.586
| 14> H 	 37.3836 	 -27.9915 	 -108.512
| 15> H 	 37.9154 	 -29.6367 	 -108.575
| 16> C 	 35.9301 	 -29.1799 	 -107.532
| 17> H 	 35.0874 	 -28.6195 	 -107.726
| 18> H 	 35.4781 	 -30.1954 	 -107.448
| 19> C 	 36.4668 	 -28.82 	 -106.134
| 20> H 	 37.492 	 -29.1429 	 -105.878
| 21> H 	 36.4834 	 -27.7425 	 -105.923
| 22> H 	 35.8162 	 -29.239 	 -105.355
| 23> S 	 34.5236 	 -31.4008 	 -114
| 24> C 	 35.3837 	 -32.4302 	 -115.098
| 25> C 	 36.7366 	 -32.2433 	 -115.095
| 26> C 	 37.1555 	 -31.3861 	 -114.014
| 27> C 	 36.0602 	 -30.9803 	 -113.236
| 28> H 	 37.2807 	 -32.6639 	 -115.918
| 29> C 	 38.6385 	 -31.1976 	 -113.695
| 30> H 	 39.1715 	 -32.1205 	 -114.038
| 31> H 	 38.7477 	 -31.2394 	 -112.613
| 32> C 	 39.3641 	 -29.9584 	 -114.259
| 33> H 	 39.1367 	 -29.0813 	 -113.689
| 34> H 	 39.1054 	 -29.8477 	 -115.342
| 35> C 	 40.9266 	 -29.999 	 -114.11
| 36> H 	 41.1623 	 -30.9124 	 -114.52
| 37> H 	 41.1989 	 -29.9472 	 -113.002
| 38> H 	 41.3275 	 -29.1807 	 -114.681
| 39> H 	 34.6579 	 -27.8966 	 -109.916
| 40> H 	 34.8874 	 -32.9242 	 -115.856
| 41> *
| 42>
| 43>                          ****END OF INPUT****

CARTESIAN COORDINATES (ANGSTROEM)
---------------------------------
  S     34.605700  -29.179500  -111.890000
  C     35.195200  -28.637900  -110.397000
  C     36.416200  -29.130700  -109.955000
  C     36.808000  -30.091500  -110.960000
  C     35.916300  -30.251300  -112.001000
  H     37.726800  -30.693700  -110.843000
  C     37.031700  -28.989500  -108.586000
  H     37.383600  -27.991500  -108.512000
  H     37.915400  -29.636700  -108.575000
  C     35.930100  -29.179900  -107.532000
  H     35.087400  -28.619500  -107.726000
  H     35.478100  -30.195400  -107.448000
  C     36.466800  -28.820000  -106.134000
  H     37.492000  -29.142900  -105.878000
  H     36.483400  -27.742500  -105.923000
  H     35.816200  -29.239000  -105.355000
  S     34.523600  -31.400800  -114.000000
  C     35.383700  -32.430200  -115.098000
  C     36.736600  -32.243300  -115.095000
  C     37.155500  -31.386100  -114.014000
  C     36.060200  -30.980300  -113.236000
  H     37.280700  -32.663900  -115.918000
  C     38.638500  -31.197600  -113.695000
  H     39.171500  -32.120500  -114.038000
  H     38.747700  -31.239400  -112.613000
  C     39.364100  -29.958400  -114.259000
  H     39.136700  -29.081300  -113.689000
  H     39.105400  -29.847700  -115.342000
  C     40.926600  -29.999000  -114.110000
  H     41.162300  -30.912400  -114.520000
  H     41.198900  -29.947200  -113.002000
  H     41.327500  -29.180700  -114.681000
  H     34.657900  -27.896600  -109.916000
  H     34.887400  -32.924200  -115.856000

 Total Charge           Charge          ....    0
 Multiplicity           Mult            ....    1
 Number of Electrons    NEL             ....  134
 Basis Dimension        Dim             ....  322

ORBITAL ENERGIES
----------------

  NO   OCC          E(Eh)            E(eV)
   0   2.0000     -88.965345     -2420.8701
   1   2.0000     -88.961455     -2420.7643
   2   2.0000     -10.325891      -280.9818
   3   2.0000     -10.319889      -280.8185
   4   2.0000     -10.306081      -280.4427
   5   2.0000     -10.305924      -280.4384
   6   2.0000     -10.302013      -280.3320
   7   2.0000     -10.299590      -280.2661
   8   2.0000     -10.295989      -280.1681
   9   2.0000     -10.294163      -280.1184
  10   2.0000     -10.293325      -280.0956
  11   2.0000     -10.291025      -280.0330
  12   2.0000     -10.287791      -279.9450
  13   2.0000     -10.285111      -279.8721
  14   2.0000     -10.279609      -279.7224
  15   2.0000     -10.276321      -279.6329
  16   2.0000      -8.082429      -219.9341
  17   2.0000      -8.076831      -219.7818
  18   2.0000      -6.040584      -164.3726
  19   2.0000      -6.036736      -164.2679
  20   2.0000      -6.035287      -164.2285
  21   2.0000      -6.033311      -164.1747
  22   2.0000      -6.031493      -164.1253
  23   2.0000      -6.027403      -164.0140
  24   2.0000      -1.015572       -27.6351
  25   2.0000      -0.986105       -26.8333
  26   2.0000      -0.919014       -25.0077
  27   2.0000      -0.902902       -24.5692
  28   2.0000      -0.870393       -23.6846
  29   2.0000      -0.855456       -23.2781
  30   2.0000      -0.846954       -23.0468
  31   2.0000      -0.813321       -22.1316
  32   2.0000      -0.784426       -21.3453
  33   2.0000      -0.770704       -20.9719
  34   2.0000      -0.715753       -19.4766
  35   2.0000      -0.700483       -19.0611
  36   2.0000      -0.687464       -18.7068
  37   2.0000      -0.667966       -18.1763
  38   2.0000      -0.641109       -17.4455
  39   2.0000      -0.622610       -16.9421
  40   2.0000      -0.594789       -16.1850
  41   2.0000      -0.569011       -15.4836
  42   2.0000      -0.568615       -15.4728
  43   2.0000      -0.556207       -15.1352
  44   2.0000      -0.530597       -14.4383
  45   2.0000      -0.525834       -14.3087
  46   2.0000      -0.520802       -14.1718
  47   2.0000      -0.515681       -14.0324
  48   2.0000      -0.502161       -13.6645
  49   2.0000      -0.493946       -13.4409
  50   2.0000      -0.490240       -13.3401
  51   2.0000      -0.484034       -13.1712
  52   2.0000      -0.469089       -12.7646
  53   2.0000      -0.462728       -12.5915
  54   2.0000      -0.457747       -12.4559
  55   2.0000      -0.453900       -12.3512
  56   2.0000      -0.450929       -12.2704
  57   2.0000      -0.443162       -12.0590
  58   2.0000      -0.429479       -11.6867
  59   2.0000      -0.428699       -11.6655
  60   2.0000      -0.422116       -11.4864
  61   2.0000      -0.418998       -11.4015
  62   2.0000      -0.408873       -11.1260
  63   2.0000      -0.355459        -9.6725
  64   2.0000      -0.335450        -9.1280
  65   2.0000      -0.326281        -8.8786
  66   2.0000      -0.278100        -7.5675
  67   0.0000       0.025668         0.6985
  68   0.0000       0.074500         2.0272
  69   0.0000       0.100908         2.7458
  70   0.0000       0.119108         3.2411
  71   0.0000       0.139464         3.7950

MULLIKEN ATOMIC CHARGES
-----------------------
   0 S :    0.119155
   1 C :   -0.114205
   2 C :   -0.091764
   3 C :   -0.047437
   4 C :   -0.086145
   5 H :    0.017139
   6 C :    0.134581
   7 H :    0.023083
   8 H :    0.026303
   9 C :   -0.059090
  10 H :    0.012943
  11 H :    0.040482
  12 C :   -0.070112
  13 H :    0.031044
  14 H :    0.028817
  15 H :    0.029768
  16 S :    0.077127
  17 C :   -0.050289
  18 C :   -0.037496
  19 C :   -0.022100
  20 C :   -0.137252
  21 H :    0.016959
  22 C :    0.041393
  23 H :    0.021742
  24 H :    0.008294
  25 C :   -0.081075
  26 H :    0.031236
  27 H :    0.036095
  28 C :   -0.030999
  29 H :    0.009407
  30 H :    0.041807
  31 H :    0.040937
  32 H :    0.014292
  33 H :    0.025362
Sum of atomic charges:   -0.0000000

LOEWDIN ATOMIC CHARGES
----------------------
   0 S :    0.450206
   1 C :   -0.202037
   2 C :   -0.056661
   3 C :   -0.070419
   4 C :   -0.214081
   5 H :    0.029106
   6 C :   -0.021362
   7 H :    0.032077
   8 H :    0.033981
   9 C :   -0.031433
  10 H :    0.015873
  11 H :    0.034654
  12 C :   -0.074036
  13 H :    0.025504
  14 H :    0.023313
  15 H :    0.026652
  16 S :    0.387518
  17 C :   -0.173652
  18 C :   -0.066101
  19 C :   -0.055343
  20 C :   -0.182505
  21 H :    0.032523
  22 C :   -0.037224
  23 H :    0.032193
  24 H :    0.025387
  25 C :   -0.037810
  26 H :    0.021483
  27 H :    0.027001
  28 C :   -0.055615
  29 H :    0.007609
  30 H :    0.033181
  31 H :    0.026787
  32 H :    0.003179
  33 H :    0.010054

  Mayer bond orders larger than 0.100000
B(  0-S ,  1-C ) :   1.1755 B(  0-S ,  4-C ) :   1.1602 B(  1-C ,  2-C ) :   1.5810
B(  1-C , 32-H ) :   0.9738 B(  2-C ,  3-C ) :   1.2700 B(  2-C ,  6-C ) :   1.0177
B(  3-C ,  4-C ) :   1.5739 B(  3-C ,  5-H ) :   0.9863 B(  4-C , 20-C ) :   1.0528
B(  6-C ,  7-H ) :   0.9223 B(  6-C ,  8-H ) :   0.9430 B(  6-C ,  9-C ) :   1.0650
B(  9-C , 10-H ) :   0.9523 B(  9-C , 11-H ) :   0.9592 B(  9-C , 12-C ) :   1.0767
B( 12-C , 13-H ) :   0.9767 B( 12-C , 14-H ) :   0.9764 B( 12-C , 15-H ) :   0.9755
B( 16-S , 17-C ) :   1.1444 B( 16-S , 20-C ) :   1.1274 B( 17-C , 18-C ) :   1.6422
B( 17-C , 33-H ) :   0.9729 B( 18-C , 19-C ) :   1.2070 B( 18-C , 21-H ) :   0.9945
B( 19-C , 20-C ) :   1.6030 B( 19-C , 22-C ) :   1.0315 B( 22-C , 23-H ) :   0.9393
B( 22-C , 24-H ) :   0.9375 B( 22-C , 25-C ) :   1.0631 B( 25-C , 26-H ) :   0.9574
B( 25-C , 27-H ) :   0.9581 B( 25-C , 28-C ) :   1.0721 B( 28-C , 29-H ) :   0.9783
B( 28-C , 30-H ) :   0.9773 B( 28-C , 31-H ) :   0.9759

Dispersion correction           -0.013380203
FINAL SINGLE POINT ENERGY     -1339.860918851132

DIPOLE MOMENT
-------------
                                X             Y             Z
Electronic contribution:    -22.37788      -4.61646     -15.59704
Nuclear contribution   :     22.84887       4.73245      15.83397
                        -----------------------------------------
Total Dipole Moment    :      0.47099       0.11598       0.23693
                        -----------------------------------------
Magnitude (a.u.)       :      0.53983
Magnitude (Debye)      :      1.37214

Rotational constants in cm-1:     0.018796     0.008039     0.006122
Rotational constants in MHz :   563.476609   240.988350   183.531901

                             ****ORCA TERMINATED NORMALLY****
TOTAL RUN TIME: 0 days 0 hours 0 minutes 21 seconds 217 msec
