                         Program Version 4.2.1 -  RELEASE  -
|  1> ! wB97X-D3 SP def2-SVP
|  2> %pal
|  3> nprocs 24
|  4> end
|  5>
|  6> * xyz 0 1
|  7> S 	 -131.809 	 6.28966 	 8.14535
|  8> C 	 -130.488 	 6.55201 	 7.01125
|  9> C 	 -129.678 	 5.46062 	 7.01873
| 10> C 	 -130.093 	 4.44042 	 7.92347
| 11> C 	 -131.243 	 4.72268 	 8.63289
| 12> H 	 -129.507 	 3.60125 	 8.04834
| 13> C 	 -128.296 	 5.28245 	 6.27629
| 14> H 	 -127.69 	 4.82726 	 7.02277
| 15> H 	 -127.811 	 6.2501 	 6.20368
| 16> C 	 -128.326 	 4.44274 	 4.99671
| 17> H 	 -128.882 	 3.47369 	 5.12901
| 18> H 	 -128.882 	 5.05186 	 4.30259
| 19> C 	 -126.919 	 4.13031 	 4.33225
| 20> H 	 -127.042 	 3.61866 	 3.38009
| 21> H 	 -126.366 	 5.0767 	 4.07895
| 22> H 	 -126.258 	 3.50641 	 4.92052
| 23> S 	 -131.399 	 4.14664 	 11.2995
| 24> C 	 -132.489 	 2.90508 	 11.8215
| 25> C 	 -133.138 	 2.27495 	 10.7507
| 26> C 	 -132.664 	 2.78586 	 9.46025
| 27> C 	 -131.901 	 3.91712 	 9.60551
| 28> H 	 -133.916 	 1.48659 	 10.8534
| 29> C 	 -133.141 	 2.20276 	 8.20336
| 30> H 	 -132.982 	 2.7408 	 7.26248
| 31> H 	 -134.226 	 2.18056 	 8.27193
| 32> C 	 -132.484 	 0.79442 	 7.84222
| 33> H 	 -132.986 	 0.409436 	 6.9793
| 34> H 	 -132.728 	 0.124573 	 8.69303
| 35> C 	 -131.03 	 0.720781 	 7.53341
| 36> H 	 -130.939 	 1.63582 	 7.00466
| 37> H 	 -130.627 	 -0.152452 	 6.89818
| 38> H 	 -130.506 	 0.742841 	 8.47812
| 39> H 	 -130.32 	 7.43919 	 6.4175
| 40> H 	 -132.909 	 2.73907 	 12.852
| 41> *
| 42>
| 43>                          ****END OF INPUT****

CARTESIAN COORDINATES (ANGSTROEM)
---------------------------------
  S    -131.809000    6.289660    8.145350
  C    -130.488000    6.552010    7.011250
  C    -129.678000    5.460620    7.018730
  C    -130.093000    4.440420    7.923470
  C    -131.243000    4.722680    8.632890
  H    -129.507000    3.601250    8.048340
  C    -128.296000    5.282450    6.276290
  H    -127.690000    4.827260    7.022770
  H    -127.811000    6.250100    6.203680
  C    -128.326000    4.442740    4.996710
  H    -128.882000    3.473690    5.129010
  H    -128.882000    5.051860    4.302590
  C    -126.919000    4.130310    4.332250
  H    -127.042000    3.618660    3.380090
  H    -126.366000    5.076700    4.078950
  H    -126.258000    3.506410    4.920520
  S    -131.399000    4.146640   11.299500
  C    -132.489000    2.905080   11.821500
  C    -133.138000    2.274950   10.750700
  C    -132.664000    2.785860    9.460250
  C    -131.901000    3.917120    9.605510
  H    -133.916000    1.486590   10.853400
  C    -133.141000    2.202760    8.203360
  H    -132.982000    2.740800    7.262480
  H    -134.226000    2.180560    8.271930
  C    -132.484000    0.794420    7.842220
  H    -132.986000    0.409436    6.979300
  H    -132.728000    0.124573    8.693030
  C    -131.030000    0.720781    7.533410
  H    -130.939000    1.635820    7.004660
  H    -130.627000   -0.152452    6.898180
  H    -130.506000    0.742841    8.478120
  H    -130.320000    7.439190    6.417500
  H    -132.909000    2.739070   12.852000

 Total Charge           Charge          ....    0
 Multiplicity           Mult            ....    1
 Number of Electrons    NEL             ....  134
 Basis Dimension        Dim             ....  322

ORBITAL ENERGIES
----------------

  NO   OCC          E(Eh)            E(eV)
   0   2.0000     -88.965428     -2420.8724
   1   2.0000     -88.963324     -2420.8151
   2   2.0000     -10.324822      -280.9527
   3   2.0000     -10.323434      -280.9149
   4   2.0000     -10.323242      -280.9097
   5   2.0000     -10.314132      -280.6618
   6   2.0000     -10.305516      -280.4273
   7   2.0000     -10.302182      -280.3366
   8   2.0000     -10.298514      -280.2368
   9   2.0000     -10.295100      -280.1439
  10   2.0000     -10.292388      -280.0701
  11   2.0000     -10.292341      -280.0688
  12   2.0000     -10.286141      -279.9001
  13   2.0000     -10.285468      -279.8818
  14   2.0000     -10.284692      -279.8607
  15   2.0000     -10.275721      -279.6166
  16   2.0000      -8.080073      -219.8700
  17   2.0000      -8.078216      -219.8194
  18   2.0000      -6.038764      -164.3231
  19   2.0000      -6.036722      -164.2676
  20   2.0000      -6.034616      -164.2102
  21   2.0000      -6.032546      -164.1539
  22   2.0000      -6.030610      -164.1012
  23   2.0000      -6.029102      -164.0602
  24   2.0000      -1.007793       -27.4234
  25   2.0000      -0.983304       -26.7571
  26   2.0000      -0.911564       -24.8049
  27   2.0000      -0.903527       -24.5862
  28   2.0000      -0.870525       -23.6882
  29   2.0000      -0.855035       -23.2667
  30   2.0000      -0.843132       -22.9428
  31   2.0000      -0.810726       -22.0610
  32   2.0000      -0.784487       -21.3470
  33   2.0000      -0.774651       -21.0793
  34   2.0000      -0.707038       -19.2395
  35   2.0000      -0.701692       -19.0940
  36   2.0000      -0.688060       -18.7231
  37   2.0000      -0.657692       -17.8967
  38   2.0000      -0.644491       -17.5375
  39   2.0000      -0.622094       -16.9280
  40   2.0000      -0.600107       -16.3297
  41   2.0000      -0.564344       -15.3566
  42   2.0000      -0.556563       -15.1448
  43   2.0000      -0.553055       -15.0494
  44   2.0000      -0.551207       -14.9991
  45   2.0000      -0.521298       -14.1853
  46   2.0000      -0.517708       -14.0875
  47   2.0000      -0.510570       -13.8933
  48   2.0000      -0.504217       -13.7205
  49   2.0000      -0.500184       -13.6107
  50   2.0000      -0.488730       -13.2990
  51   2.0000      -0.478565       -13.0224
  52   2.0000      -0.470145       -12.7933
  53   2.0000      -0.466060       -12.6821
  54   2.0000      -0.456901       -12.4329
  55   2.0000      -0.454748       -12.3743
  56   2.0000      -0.444246       -12.0886
  57   2.0000      -0.440180       -11.9779
  58   2.0000      -0.435233       -11.8433
  59   2.0000      -0.422032       -11.4841
  60   2.0000      -0.419700       -11.4206
  61   2.0000      -0.410994       -11.1837
  62   2.0000      -0.398189       -10.8353
  63   2.0000      -0.333634        -9.0786
  64   2.0000      -0.326358        -8.8807
  65   2.0000      -0.321960        -8.7610
  66   2.0000      -0.316346        -8.6082
  67   0.0000       0.040288         1.0963
  68   0.0000       0.057189         1.5562
  69   0.0000       0.108389         2.9494
  70   0.0000       0.123350         3.3565
  71   0.0000       0.126756         3.4492

MULLIKEN ATOMIC CHARGES
-----------------------
   0 S :    0.108858
   1 C :   -0.128781
   2 C :   -0.097746
   3 C :    0.084875
   4 C :   -0.168684
   5 H :   -0.022456
   6 C :    0.078138
   7 H :    0.010044
   8 H :    0.017592
   9 C :   -0.066593
  10 H :    0.043784
  11 H :    0.026583
  12 C :   -0.066378
  13 H :    0.035973
  14 H :    0.035373
  15 H :    0.034288
  16 S :    0.114764
  17 C :   -0.096860
  18 C :   -0.055115
  19 C :    0.005473
  20 C :   -0.174589
  21 H :    0.038908
  22 C :    0.032123
  23 H :    0.031297
  24 H :    0.034609
  25 C :   -0.097823
  26 H :    0.024083
  27 H :    0.021582
  28 C :   -0.048178
  29 H :    0.019342
  30 H :    0.057376
  31 H :    0.042048
  32 H :    0.046085
  33 H :    0.080007
Sum of atomic charges:   -0.0000000

LOEWDIN ATOMIC CHARGES
----------------------
   0 S :    0.410316
   1 C :   -0.192171
   2 C :   -0.064789
   3 C :   -0.049325
   4 C :   -0.207116
   5 H :    0.017017
   6 C :   -0.029118
   7 H :    0.023563
   8 H :    0.028372
   9 C :   -0.040412
  10 H :    0.031288
  11 H :    0.022993
  12 C :   -0.070798
  13 H :    0.027172
  14 H :    0.029592
  15 H :    0.021213
  16 S :    0.401175
  17 C :   -0.201060
  18 C :   -0.073409
  19 C :   -0.048838
  20 C :   -0.198230
  21 H :    0.037294
  22 C :   -0.036299
  23 H :    0.032204
  24 H :    0.037590
  25 C :   -0.037463
  26 H :    0.020306
  27 H :    0.016732
  28 C :   -0.071549
  29 H :    0.020380
  30 H :    0.041190
  31 H :    0.026283
  32 H :    0.031368
  33 H :    0.044529

  Mayer bond orders larger than 0.100000
B(  0-S ,  1-C ) :   1.1385 B(  0-S ,  4-C ) :   1.1541 B(  1-C ,  2-C ) :   1.6187
B(  1-C , 32-H ) :   0.9734 B(  2-C ,  3-C ) :   1.2612 B(  2-C ,  6-C ) :   1.0005
B(  3-C ,  4-C ) :   1.5640 B(  3-C ,  5-H ) :   1.0066 B(  4-C , 20-C ) :   1.0223
B(  6-C ,  7-H ) :   0.9432 B(  6-C ,  8-H ) :   0.9454 B(  6-C ,  9-C ) :   1.0544
B(  9-C , 10-H ) :   0.9581 B(  9-C , 11-H ) :   0.9567 B(  9-C , 12-C ) :   1.0738
B( 12-C , 13-H ) :   0.9761 B( 12-C , 14-H ) :   0.9758 B( 12-C , 15-H ) :   0.9787
B( 16-S , 17-C ) :   1.1530 B( 16-S , 20-C ) :   1.1226 B( 17-C , 18-C ) :   1.6341
B( 17-C , 33-H ) :   0.9549 B( 18-C , 19-C ) :   1.1989 B( 18-C , 21-H ) :   0.9784
B( 19-C , 20-C ) :   1.6295 B( 19-C , 22-C ) :   1.0613 B( 22-C , 23-H ) :   0.9371
B( 22-C , 24-H ) :   0.9340 B( 22-C , 25-C ) :   1.0626 B( 25-C , 26-H ) :   0.9567
B( 25-C , 27-H ) :   0.9606 B( 25-C , 28-C ) :   1.0626 B( 28-C , 29-H ) :   0.9691
B( 28-C , 30-H ) :   0.9725 B( 28-C , 31-H ) :   0.9726

Dispersion correction           -0.015062860
FINAL SINGLE POINT ENERGY     -1339.867239485695

DIPOLE MOMENT
-------------
                                X             Y             Z
Electronic contribution:    -12.48552      15.60894      21.59659
Nuclear contribution   :     12.61836     -15.99981     -22.01899
                        -----------------------------------------
Total Dipole Moment    :      0.13284      -0.39087      -0.42240
                        -----------------------------------------
Magnitude (a.u.)       :      0.59063
Magnitude (Debye)      :      1.50127

Rotational constants in cm-1:     0.019186     0.008655     0.006994
Rotational constants in MHz :   575.187371   259.467027   209.669377

                             ****ORCA TERMINATED NORMALLY****
TOTAL RUN TIME: 0 days 0 hours 0 minutes 21 seconds 942 msec
