                         Program Version 4.2.1 -  RELEASE  -
|  1> ! wB97X-D3 SP def2-SVP
|  2> %pal
|  3> nprocs 24
|  4> end
|  5>
|  6> * xyz 0 1
|  7> S 	 -68.4081 	 -53.826 	 -83.2085
|  8> C 	 -68.7897 	 -54.7124 	 -84.5966
|  9> C 	 -69.0705 	 -56.0169 	 -84.2302
| 10> C 	 -69.0704 	 -56.2297 	 -82.8024
| 11> C 	 -68.6698 	 -55.1358 	 -82.0702
| 12> H 	 -69.3239 	 -57.1379 	 -82.2376
| 13> C 	 -69.5357 	 -57.1613 	 -85.2096
| 14> H 	 -70.2091 	 -56.6968 	 -85.9309
| 15> H 	 -70.136 	 -57.8439 	 -84.5458
| 16> C 	 -68.3269 	 -57.7834 	 -85.8326
| 17> H 	 -67.7053 	 -57.0657 	 -86.4032
| 18> H 	 -67.7305 	 -58.1239 	 -84.9867
| 19> C 	 -68.5825 	 -59.0333 	 -86.7748
| 20> H 	 -69.0097 	 -59.8528 	 -86.2284
| 21> H 	 -69.2256 	 -58.893 	 -87.6153
| 22> H 	 -67.667 	 -59.4259 	 -87.1861
| 23> S 	 -69.8766 	 -53.6525 	 -80.1334
| 24> C 	 -69.8491 	 -54.1277 	 -78.417
| 25> C 	 -68.9931 	 -55.1854 	 -78.2488
| 26> C 	 -68.3836 	 -55.674 	 -79.4882
| 27> C 	 -68.8013 	 -54.9173 	 -80.6157
| 28> H 	 -68.8675 	 -55.7065 	 -77.236
| 29> C 	 -67.396 	 -56.7734 	 -79.4684
| 30> H 	 -67.711 	 -57.3982 	 -80.3258
| 31> H 	 -67.6209 	 -57.3694 	 -78.5977
| 32> C 	 -65.9669 	 -56.3923 	 -79.6392
| 33> H 	 -65.8539 	 -56.1069 	 -80.6987
| 34> H 	 -65.3963 	 -57.262 	 -79.5874
| 35> C 	 -65.3114 	 -55.4104 	 -78.7266
| 36> H 	 -65.6149 	 -54.4391 	 -79.1211
| 37> H 	 -64.2025 	 -55.4721 	 -78.7319
| 38> H 	 -65.7031 	 -55.4098 	 -77.7168
| 39> H 	 -68.6867 	 -54.2498 	 -85.5792
| 40> H 	 -70.5143 	 -53.7326 	 -77.6114
| 41> *
| 42>
| 43>                          ****END OF INPUT****

CARTESIAN COORDINATES (ANGSTROEM)
---------------------------------
  S    -68.408100  -53.826000  -83.208500
  C    -68.789700  -54.712400  -84.596600
  C    -69.070500  -56.016900  -84.230200
  C    -69.070400  -56.229700  -82.802400
  C    -68.669800  -55.135800  -82.070200
  H    -69.323900  -57.137900  -82.237600
  C    -69.535700  -57.161300  -85.209600
  H    -70.209100  -56.696800  -85.930900
  H    -70.136000  -57.843900  -84.545800
  C    -68.326900  -57.783400  -85.832600
  H    -67.705300  -57.065700  -86.403200
  H    -67.730500  -58.123900  -84.986700
  C    -68.582500  -59.033300  -86.774800
  H    -69.009700  -59.852800  -86.228400
  H    -69.225600  -58.893000  -87.615300
  H    -67.667000  -59.425900  -87.186100
  S    -69.876600  -53.652500  -80.133400
  C    -69.849100  -54.127700  -78.417000
  C    -68.993100  -55.185400  -78.248800
  C    -68.383600  -55.674000  -79.488200
  C    -68.801300  -54.917300  -80.615700
  H    -68.867500  -55.706500  -77.236000
  C    -67.396000  -56.773400  -79.468400
  H    -67.711000  -57.398200  -80.325800
  H    -67.620900  -57.369400  -78.597700
  C    -65.966900  -56.392300  -79.639200
  H    -65.853900  -56.106900  -80.698700
  H    -65.396300  -57.262000  -79.587400
  C    -65.311400  -55.410400  -78.726600
  H    -65.614900  -54.439100  -79.121100
  H    -64.202500  -55.472100  -78.731900
  H    -65.703100  -55.409800  -77.716800
  H    -68.686700  -54.249800  -85.579200
  H    -70.514300  -53.732600  -77.611400

 Total Charge           Charge          ....    0
 Multiplicity           Mult            ....    1
 Number of Electrons    NEL             ....  134
 Basis Dimension        Dim             ....  322

ORBITAL ENERGIES
----------------

  NO   OCC          E(Eh)            E(eV)
   0   2.0000     -88.965423     -2420.8722
   1   2.0000     -88.963285     -2420.8140
   2   2.0000     -10.332124      -281.1514
   3   2.0000     -10.332003      -281.1481
   4   2.0000     -10.322842      -280.8988
   5   2.0000     -10.315688      -280.7041
   6   2.0000     -10.306541      -280.4553
   7   2.0000     -10.306280      -280.4481
   8   2.0000     -10.302346      -280.3411
   9   2.0000     -10.298697      -280.2418
  10   2.0000     -10.297223      -280.2017
  11   2.0000     -10.290270      -280.0125
  12   2.0000     -10.286164      -279.9007
  13   2.0000     -10.273842      -279.5655
  14   2.0000     -10.272680      -279.5338
  15   2.0000     -10.271409      -279.4993
  16   2.0000      -8.079966      -219.8670
  17   2.0000      -8.079230      -219.8470
  18   2.0000      -6.038642      -164.3198
  19   2.0000      -6.037659      -164.2930
  20   2.0000      -6.034337      -164.2027
  21   2.0000      -6.033325      -164.1751
  22   2.0000      -6.030683      -164.1032
  23   2.0000      -6.030224      -164.0907
  24   2.0000      -1.009419       -27.4677
  25   2.0000      -0.984856       -26.7993
  26   2.0000      -0.917912       -24.9776
  27   2.0000      -0.907031       -24.6816
  28   2.0000      -0.871372       -23.7113
  29   2.0000      -0.849848       -23.1255
  30   2.0000      -0.842481       -22.9251
  31   2.0000      -0.817545       -22.2465
  32   2.0000      -0.782602       -21.2957
  33   2.0000      -0.772831       -21.0298
  34   2.0000      -0.708214       -19.2715
  35   2.0000      -0.699683       -19.0393
  36   2.0000      -0.685293       -18.6478
  37   2.0000      -0.661091       -17.9892
  38   2.0000      -0.647346       -17.6152
  39   2.0000      -0.614542       -16.7225
  40   2.0000      -0.584304       -15.8997
  41   2.0000      -0.563971       -15.3464
  42   2.0000      -0.560369       -15.2484
  43   2.0000      -0.557163       -15.1612
  44   2.0000      -0.551750       -15.0139
  45   2.0000      -0.521785       -14.1985
  46   2.0000      -0.515737       -14.0339
  47   2.0000      -0.514863       -14.0101
  48   2.0000      -0.502824       -13.6825
  49   2.0000      -0.501440       -13.6449
  50   2.0000      -0.489476       -13.3193
  51   2.0000      -0.483748       -13.1635
  52   2.0000      -0.475566       -12.9408
  53   2.0000      -0.470751       -12.8098
  54   2.0000      -0.462973       -12.5981
  55   2.0000      -0.447523       -12.1777
  56   2.0000      -0.441768       -12.0211
  57   2.0000      -0.437200       -11.8968
  58   2.0000      -0.428146       -11.6504
  59   2.0000      -0.423475       -11.5233
  60   2.0000      -0.418143       -11.3782
  61   2.0000      -0.405489       -11.0339
  62   2.0000      -0.403722       -10.9858
  63   2.0000      -0.354748        -9.6532
  64   2.0000      -0.330212        -8.9855
  65   2.0000      -0.325339        -8.8529
  66   2.0000      -0.294485        -8.0133
  67   0.0000       0.031301         0.8517
  68   0.0000       0.067296         1.8312
  69   0.0000       0.114739         3.1222
  70   0.0000       0.125985         3.4282
  71   0.0000       0.132050         3.5933

MULLIKEN ATOMIC CHARGES
-----------------------
   0 S :    0.099334
   1 C :   -0.122166
   2 C :   -0.113021
   3 C :    0.029053
   4 C :   -0.166148
   5 H :    0.027653
   6 C :    0.071365
   7 H :    0.029779
   8 H :    0.032586
   9 C :   -0.083093
  10 H :    0.036291
  11 H :    0.028194
  12 C :   -0.020132
  13 H :    0.018425
  14 H :    0.022740
  15 H :    0.025101
  16 S :    0.106958
  17 C :   -0.115255
  18 C :   -0.051263
  19 C :   -0.100983
  20 C :   -0.134800
  21 H :    0.048541
  22 C :    0.099672
  23 H :    0.017508
  24 H :    0.010042
  25 C :   -0.035164
  26 H :    0.028095
  27 H :    0.005997
  28 C :   -0.037334
  29 H :    0.032921
  30 H :    0.043283
  31 H :    0.022885
  32 H :    0.065158
  33 H :    0.077779
Sum of atomic charges:    0.0000000

LOEWDIN ATOMIC CHARGES
----------------------
   0 S :    0.426248
   1 C :   -0.213206
   2 C :   -0.065440
   3 C :   -0.068375
   4 C :   -0.202737
   5 H :    0.035429
   6 C :   -0.028249
   7 H :    0.027165
   8 H :    0.034343
   9 C :   -0.042405
  10 H :    0.027343
  11 H :    0.027411
  12 C :   -0.066838
  13 H :    0.021201
  14 H :    0.019668
  15 H :    0.024875
  16 S :    0.409387
  17 C :   -0.190632
  18 C :   -0.083492
  19 C :   -0.058507
  20 C :   -0.208473
  21 H :    0.043993
  22 C :   -0.036536
  23 H :    0.038681
  24 H :    0.026432
  25 C :   -0.043725
  26 H :    0.031272
  27 H :    0.016260
  28 C :   -0.065758
  29 H :    0.029688
  30 H :    0.033189
  31 H :    0.022879
  32 H :    0.035306
  33 H :    0.043602

  Mayer bond orders larger than 0.100000
B(  0-S ,  1-C ) :   1.1661 B(  0-S ,  4-C ) :   1.1643 B(  1-C ,  2-C ) :   1.5739
B(  1-C , 32-H ) :   0.9744 B(  2-C ,  3-C ) :   1.2671 B(  2-C ,  6-C ) :   1.0021
B(  3-C ,  4-C ) :   1.5706 B(  3-C ,  5-H ) :   0.9830 B(  4-C , 20-C ) :   1.0165
B(  6-C ,  7-H ) :   0.9463 B(  6-C ,  8-H ) :   0.9475 B(  6-C ,  9-C ) :   1.0620
B(  9-C , 10-H ) :   0.9606 B(  9-C , 11-H ) :   0.9542 B(  9-C , 12-C ) :   1.0751
B( 12-C , 13-H ) :   0.9749 B( 12-C , 14-H ) :   0.9770 B( 12-C , 15-H ) :   0.9757
B( 16-S , 17-C ) :   1.1453 B( 16-S , 20-C ) :   1.1535 B( 17-C , 18-C ) :   1.6181
B( 17-C , 33-H ) :   0.9617 B( 18-C , 19-C ) :   1.2463 B( 18-C , 21-H ) :   0.9720
B( 19-C , 20-C ) :   1.5688 B( 19-C , 22-C ) :   1.0511 B( 22-C , 23-H ) :   0.9186
B( 22-C , 24-H ) :   0.9239 B( 22-C , 25-C ) :   1.0928 B( 25-C , 26-H ) :   0.9496
B( 25-C , 27-H ) :   0.9480 B( 25-C , 28-C ) :   1.0744 B( 28-C , 29-H ) :   0.9708
B( 28-C , 30-H ) :   0.9732 B( 28-C , 31-H ) :   0.9748

Dispersion correction           -0.014202260
FINAL SINGLE POINT ENERGY     -1339.878104091419

DIPOLE MOMENT
-------------
                                X             Y             Z
Electronic contribution:    -11.26519      21.16420       6.70896
Nuclear contribution   :     11.27659     -21.77446      -6.73195
                        -----------------------------------------
Total Dipole Moment    :      0.01139      -0.61026      -0.02299
                        -----------------------------------------
Magnitude (a.u.)       :      0.61080
Magnitude (Debye)      :      1.55253

Rotational constants in cm-1:     0.021099     0.007569     0.006526
Rotational constants in MHz :   632.522186   226.910769   195.647632

                             ****ORCA TERMINATED NORMALLY****
TOTAL RUN TIME: 0 days 0 hours 0 minutes 21 seconds 309 msec
