                         Program Version 4.2.1 -  RELEASE  -
|  1> ! wB97X-D3 SP def2-SVP
|  2> %pal
|  3> nprocs 24
|  4> end
|  5>
|  6> * xyz 0 1
|  7> S 	 -139.275 	 14.507 	 -2.12716
|  8> C 	 -140.423 	 13.28 	 -1.53495
|  9> C 	 -139.701 	 12.2697 	 -1.02124
| 10> C 	 -138.277 	 12.4211 	 -1.11007
| 11> C 	 -137.925 	 13.6008 	 -1.71125
| 12> H 	 -137.555 	 11.7178 	 -0.826406
| 13> C 	 -140.323 	 11.164 	 -0.241292
| 14> H 	 -141.411 	 11.3318 	 -0.100767
| 15> H 	 -140.079 	 11.2637 	 0.798128
| 16> C 	 -139.94 	 9.76058 	 -0.699724
| 17> H 	 -140.079 	 9.81456 	 -1.75079
| 18> H 	 -138.876 	 9.51285 	 -0.516854
| 19> C 	 -140.829 	 8.7038 	 -0.0573037
| 20> H 	 -141.736 	 8.58331 	 -0.517311
| 21> H 	 -140.283 	 7.74057 	 -0.0617089
| 22> H 	 -141.043 	 8.84633 	 1.01203
| 23> S 	 -136.372 	 15.8528 	 -1.228
| 24> C 	 -134.615 	 15.7667 	 -1.48402
| 25> C 	 -134.248 	 14.5395 	 -1.91703
| 26> C 	 -135.318 	 13.5777 	 -1.94762
| 27> C 	 -136.564 	 14.1404 	 -1.70639
| 28> H 	 -133.201 	 14.4166 	 -2.06161
| 29> C 	 -135.009 	 12.1448 	 -2.31734
| 30> H 	 -134.14 	 12.1762 	 -2.95007
| 31> H 	 -135.828 	 11.8923 	 -2.96475
| 32> C 	 -134.572 	 11.2891 	 -1.14092
| 33> H 	 -135.312 	 11.3769 	 -0.334143
| 34> H 	 -133.567 	 11.6292 	 -0.891239
| 35> C 	 -134.479 	 9.73415 	 -1.45312
| 36> H 	 -133.543 	 9.42211 	 -1.8582
| 37> H 	 -135.155 	 9.44902 	 -2.24203
| 38> H 	 -134.593 	 9.11499 	 -0.612158
| 39> H 	 -141.491 	 13.4067 	 -1.50811
| 40> H 	 -133.924 	 16.6763 	 -1.54549
| 41> *
| 42>
| 43>                          ****END OF INPUT****

CARTESIAN COORDINATES (ANGSTROEM)
---------------------------------
  S    -139.275000   14.507000   -2.127160
  C    -140.423000   13.280000   -1.534950
  C    -139.701000   12.269700   -1.021240
  C    -138.277000   12.421100   -1.110070
  C    -137.925000   13.600800   -1.711250
  H    -137.555000   11.717800   -0.826406
  C    -140.323000   11.164000   -0.241292
  H    -141.411000   11.331800   -0.100767
  H    -140.079000   11.263700    0.798128
  C    -139.940000    9.760580   -0.699724
  H    -140.079000    9.814560   -1.750790
  H    -138.876000    9.512850   -0.516854
  C    -140.829000    8.703800   -0.057304
  H    -141.736000    8.583310   -0.517311
  H    -140.283000    7.740570   -0.061709
  H    -141.043000    8.846330    1.012030
  S    -136.372000   15.852800   -1.228000
  C    -134.615000   15.766700   -1.484020
  C    -134.248000   14.539500   -1.917030
  C    -135.318000   13.577700   -1.947620
  C    -136.564000   14.140400   -1.706390
  H    -133.201000   14.416600   -2.061610
  C    -135.009000   12.144800   -2.317340
  H    -134.140000   12.176200   -2.950070
  H    -135.828000   11.892300   -2.964750
  C    -134.572000   11.289100   -1.140920
  H    -135.312000   11.376900   -0.334143
  H    -133.567000   11.629200   -0.891239
  C    -134.479000    9.734150   -1.453120
  H    -133.543000    9.422110   -1.858200
  H    -135.155000    9.449020   -2.242030
  H    -134.593000    9.114990   -0.612158
  H    -141.491000   13.406700   -1.508110
  H    -133.924000   16.676300   -1.545490

 Total Charge           Charge          ....    0
 Multiplicity           Mult            ....    1
 Number of Electrons    NEL             ....  134
 Basis Dimension        Dim             ....  322

ORBITAL ENERGIES
----------------

  NO   OCC          E(Eh)            E(eV)
   0   2.0000     -88.963258     -2420.8133
   1   2.0000     -88.961972     -2420.7783
   2   2.0000     -10.331566      -281.1362
   3   2.0000     -10.326272      -280.9922
   4   2.0000     -10.319827      -280.8168
   5   2.0000     -10.312120      -280.6071
   6   2.0000     -10.303843      -280.3818
   7   2.0000     -10.296125      -280.1718
   8   2.0000     -10.294876      -280.1378
   9   2.0000     -10.289391      -279.9886
  10   2.0000     -10.287969      -279.9499
  11   2.0000     -10.286765      -279.9171
  12   2.0000     -10.285802      -279.8909
  13   2.0000     -10.284758      -279.8625
  14   2.0000     -10.273698      -279.5615
  15   2.0000     -10.273413      -279.5538
  16   2.0000      -8.079158      -219.8451
  17   2.0000      -8.075928      -219.7572
  18   2.0000      -6.037703      -164.2942
  19   2.0000      -6.034619      -164.2103
  20   2.0000      -6.033426      -164.1779
  21   2.0000      -6.030625      -164.1016
  22   2.0000      -6.029850      -164.0806
  23   2.0000      -6.026450      -163.9881
  24   2.0000      -1.013283       -27.5728
  25   2.0000      -0.984633       -26.7932
  26   2.0000      -0.918550       -24.9950
  27   2.0000      -0.909320       -24.7439
  28   2.0000      -0.874891       -23.8070
  29   2.0000      -0.850445       -23.1418
  30   2.0000      -0.843831       -22.9618
  31   2.0000      -0.820694       -22.3322
  32   2.0000      -0.785022       -21.3615
  33   2.0000      -0.777438       -21.1552
  34   2.0000      -0.715320       -19.4648
  35   2.0000      -0.704888       -19.1810
  36   2.0000      -0.694189       -18.8898
  37   2.0000      -0.661986       -18.0135
  38   2.0000      -0.643955       -17.5229
  39   2.0000      -0.624499       -16.9935
  40   2.0000      -0.589009       -16.0277
  41   2.0000      -0.577438       -15.7129
  42   2.0000      -0.572114       -15.5680
  43   2.0000      -0.562934       -15.3182
  44   2.0000      -0.529007       -14.3950
  45   2.0000      -0.523881       -14.2555
  46   2.0000      -0.520685       -14.1685
  47   2.0000      -0.518089       -14.0979
  48   2.0000      -0.511858       -13.9284
  49   2.0000      -0.501602       -13.6493
  50   2.0000      -0.493296       -13.4233
  51   2.0000      -0.484421       -13.1818
  52   2.0000      -0.474121       -12.9015
  53   2.0000      -0.470029       -12.7901
  54   2.0000      -0.458335       -12.4719
  55   2.0000      -0.448205       -12.1963
  56   2.0000      -0.444855       -12.1051
  57   2.0000      -0.439346       -11.9552
  58   2.0000      -0.434777       -11.8309
  59   2.0000      -0.421919       -11.4810
  60   2.0000      -0.418623       -11.3913
  61   2.0000      -0.414863       -11.2890
  62   2.0000      -0.410603       -11.1731
  63   2.0000      -0.355093        -9.6626
  64   2.0000      -0.329849        -8.9756
  65   2.0000      -0.328707        -8.9446
  66   2.0000      -0.294058        -8.0017
  67   0.0000       0.028050         0.7633
  68   0.0000       0.079780         2.1709
  69   0.0000       0.114920         3.1271
  70   0.0000       0.124349         3.3837
  71   0.0000       0.131014         3.5651

MULLIKEN ATOMIC CHARGES
-----------------------
   0 S :    0.094243
   1 C :   -0.137805
   2 C :   -0.041247
   3 C :    0.037116
   4 C :   -0.108642
   5 H :   -0.026411
   6 C :    0.048412
   7 H :    0.010293
   8 H :    0.023486
   9 C :   -0.077721
  10 H :    0.027405
  11 H :    0.040288
  12 C :   -0.020173
  13 H :    0.019787
  14 H :    0.028378
  15 H :    0.024163
  16 S :    0.083310
  17 C :   -0.118818
  18 C :   -0.020724
  19 C :   -0.067689
  20 C :   -0.132534
  21 H :    0.011544
  22 C :    0.078551
  23 H :    0.009378
  24 H :    0.031244
  25 C :   -0.070306
  26 H :    0.042086
  27 H :    0.034329
  28 C :   -0.015761
  29 H :    0.013743
  30 H :    0.022514
  31 H :    0.026195
  32 H :    0.047494
  33 H :    0.083873
Sum of atomic charges:   -0.0000000

LOEWDIN ATOMIC CHARGES
----------------------
   0 S :    0.418069
   1 C :   -0.184697
   2 C :   -0.061617
   3 C :   -0.058759
   4 C :   -0.208363
   5 H :    0.019846
   6 C :   -0.038923
   7 H :    0.031242
   8 H :    0.029437
   9 C :   -0.038009
  10 H :    0.022467
  11 H :    0.027455
  12 C :   -0.060409
  13 H :    0.013660
  14 H :    0.031013
  15 H :    0.026865
  16 S :    0.368173
  17 C :   -0.185884
  18 C :   -0.074097
  19 C :   -0.055038
  20 C :   -0.176884
  21 H :    0.029492
  22 C :   -0.036281
  23 H :    0.029079
  24 H :    0.029530
  25 C :   -0.029368
  26 H :    0.022327
  27 H :    0.028919
  28 C :   -0.063450
  29 H :    0.021053
  30 H :    0.024487
  31 H :    0.020584
  32 H :    0.030315
  33 H :    0.047767

  Mayer bond orders larger than 0.100000
B(  0-S ,  1-C ) :   1.1067 B(  0-S ,  4-C ) :   1.1730 B(  1-C ,  2-C ) :   1.6154
B(  1-C , 32-H ) :   0.9782 B(  2-C ,  3-C ) :   1.2254 B(  2-C ,  6-C ) :   1.0384
B(  3-C ,  4-C ) :   1.5479 B(  3-C ,  5-H ) :   1.0072 B(  4-C , 20-C ) :   1.0391
B(  6-C ,  7-H ) :   0.9452 B(  6-C ,  8-H ) :   0.9261 B(  6-C ,  9-C ) :   1.0447
B(  9-C , 10-H ) :   0.9628 B(  9-C , 11-H ) :   0.9555 B(  9-C , 12-C ) :   1.0843
B( 12-C , 13-H ) :   0.9762 B( 12-C , 14-H ) :   0.9741 B( 12-C , 15-H ) :   0.9722
B( 16-S , 17-C ) :   1.1298 B( 16-S , 20-C ) :   1.1221 B( 17-C , 18-C ) :   1.6656
B( 17-C , 33-H ) :   0.9510 B( 18-C , 19-C ) :   1.2089 B( 18-C , 21-H ) :   0.9900
B( 19-C , 20-C ) :   1.6226 B( 19-C , 22-C ) :   1.0462 B( 22-C , 23-H ) :   0.9320
B( 22-C , 24-H ) :   0.9341 B( 22-C , 25-C ) :   1.0545 B( 25-C , 26-H ) :   0.9635
B( 25-C , 27-H ) :   0.9554 B( 25-C , 28-C ) :   1.0691 B( 28-C , 29-H ) :   0.9745
B( 28-C , 30-H ) :   0.9771 B( 28-C , 31-H ) :   0.9784

Dispersion correction           -0.014040065
FINAL SINGLE POINT ENERGY     -1339.867140558450

DIPOLE MOMENT
-------------
                                X             Y             Z
Electronic contribution:     -1.72491      32.09488      -5.50624
Nuclear contribution   :      1.94262     -32.77698       5.65331
                        -----------------------------------------
Total Dipole Moment    :      0.21772      -0.68210       0.14706
                        -----------------------------------------
Magnitude (a.u.)       :      0.73095
Magnitude (Debye)      :      1.85793

Rotational constants in cm-1:     0.017379     0.009427     0.006425
Rotational constants in MHz :   521.004416   282.605295   192.627633

                             ****ORCA TERMINATED NORMALLY****
TOTAL RUN TIME: 0 days 0 hours 0 minutes 21 seconds 796 msec
