                         Program Version 4.2.1 -  RELEASE  -
|  1> ! wB97X-D3 SP def2-SVP
|  2> %pal
|  3> nprocs 24
|  4> end
|  5>
|  6> * xyz 0 1
|  7> S 	 -127.614 	 1.66117 	 4.21692
|  8> C 	 -126.355 	 0.622408 	 3.56993
|  9> C 	 -125.48 	 0.263405 	 4.53615
| 10> C 	 -125.852 	 0.72198 	 5.84028
| 11> C 	 -126.896 	 1.61525 	 5.7917
| 12> H 	 -125.511 	 0.34384 	 6.77349
| 13> C 	 -124.304 	 -0.76947 	 4.27612
| 14> H 	 -124.17 	 -0.914682 	 3.23648
| 15> H 	 -124.57 	 -1.79094 	 4.74878
| 16> C 	 -122.897 	 -0.356987 	 4.77215
| 17> H 	 -122.491 	 0.608786 	 4.42842
| 18> H 	 -122.871 	 -0.338086 	 5.86103
| 19> C 	 -121.903 	 -1.43835 	 4.33363
| 20> H 	 -120.967 	 -1.09959 	 4.78538
| 21> H 	 -122.095 	 -2.50928 	 4.75643
| 22> H 	 -121.752 	 -1.52022 	 3.24954
| 23> S 	 -128.226 	 3.78003 	 6.67948
| 24> C 	 -128.223 	 4.24699 	 8.36405
| 25> C 	 -127.76 	 3.23039 	 9.12359
| 26> C 	 -127.438 	 2.03411 	 8.31495
| 27> C 	 -127.564 	 2.23285 	 6.95992
| 28> H 	 -127.612 	 3.3934 	 10.1631
| 29> C 	 -126.746 	 0.798713 	 8.91752
| 30> H 	 -126.801 	 0.984001 	 9.98025
| 31> H 	 -125.687 	 0.846594 	 8.75049
| 32> C 	 -127.363 	 -0.605778 	 8.68837
| 33> H 	 -126.806 	 -1.23221 	 9.39101
| 34> H 	 -127.05 	 -0.921622 	 7.72363
| 35> C 	 -128.879 	 -0.61147 	 8.87228
| 36> H 	 -129.274 	 -1.50793 	 8.63842
| 37> H 	 -129.336 	 0.144016 	 8.16168
| 38> H 	 -129.308 	 -0.416907 	 9.88794
| 39> H 	 -126.408 	 0.251531 	 2.5726
| 40> H 	 -128.463 	 5.25016 	 8.73405
| 41> *
| 42>
| 43>                          ****END OF INPUT****

CARTESIAN COORDINATES (ANGSTROEM)
---------------------------------
  S    -127.614000    1.661170    4.216920
  C    -126.355000    0.622408    3.569930
  C    -125.480000    0.263405    4.536150
  C    -125.852000    0.721980    5.840280
  C    -126.896000    1.615250    5.791700
  H    -125.511000    0.343840    6.773490
  C    -124.304000   -0.769470    4.276120
  H    -124.170000   -0.914682    3.236480
  H    -124.570000   -1.790940    4.748780
  C    -122.897000   -0.356987    4.772150
  H    -122.491000    0.608786    4.428420
  H    -122.871000   -0.338086    5.861030
  C    -121.903000   -1.438350    4.333630
  H    -120.967000   -1.099590    4.785380
  H    -122.095000   -2.509280    4.756430
  H    -121.752000   -1.520220    3.249540
  S    -128.226000    3.780030    6.679480
  C    -128.223000    4.246990    8.364050
  C    -127.760000    3.230390    9.123590
  C    -127.438000    2.034110    8.314950
  C    -127.564000    2.232850    6.959920
  H    -127.612000    3.393400   10.163100
  C    -126.746000    0.798713    8.917520
  H    -126.801000    0.984001    9.980250
  H    -125.687000    0.846594    8.750490
  C    -127.363000   -0.605778    8.688370
  H    -126.806000   -1.232210    9.391010
  H    -127.050000   -0.921622    7.723630
  C    -128.879000   -0.611470    8.872280
  H    -129.274000   -1.507930    8.638420
  H    -129.336000    0.144016    8.161680
  H    -129.308000   -0.416907    9.887940
  H    -126.408000    0.251531    2.572600
  H    -128.463000    5.250160    8.734050

 Total Charge           Charge          ....    0
 Multiplicity           Mult            ....    1
 Number of Electrons    NEL             ....  134
 Basis Dimension        Dim             ....  322

ORBITAL ENERGIES
----------------

  NO   OCC          E(Eh)            E(eV)
   0   2.0000     -88.964657     -2420.8514
   1   2.0000     -88.958393     -2420.6809
   2   2.0000     -10.331663      -281.1388
   3   2.0000     -10.323056      -280.9046
   4   2.0000     -10.316451      -280.7249
   5   2.0000     -10.311007      -280.5768
   6   2.0000     -10.305997      -280.4404
   7   2.0000     -10.303341      -280.3682
   8   2.0000     -10.301467      -280.3172
   9   2.0000     -10.295321      -280.1499
  10   2.0000     -10.291898      -280.0568
  11   2.0000     -10.290488      -280.0184
  12   2.0000     -10.287959      -279.9496
  13   2.0000     -10.286661      -279.9143
  14   2.0000     -10.285495      -279.8825
  15   2.0000     -10.271570      -279.5036
  16   2.0000      -8.079971      -219.8672
  17   2.0000      -8.074582      -219.7205
  18   2.0000      -6.038542      -164.3171
  19   2.0000      -6.034499      -164.2071
  20   2.0000      -6.033167      -164.1708
  21   2.0000      -6.030530      -164.0991
  22   2.0000      -6.028768      -164.0511
  23   2.0000      -6.025280      -163.9562
  24   2.0000      -1.012738       -27.5580
  25   2.0000      -0.988687       -26.9035
  26   2.0000      -0.907135       -24.6844
  27   2.0000      -0.906993       -24.6805
  28   2.0000      -0.874474       -23.7956
  29   2.0000      -0.849305       -23.1108
  30   2.0000      -0.840235       -22.8640
  31   2.0000      -0.820612       -22.3300
  32   2.0000      -0.781935       -21.2775
  33   2.0000      -0.772439       -21.0191
  34   2.0000      -0.710644       -19.3376
  35   2.0000      -0.695841       -18.9348
  36   2.0000      -0.686612       -18.6837
  37   2.0000      -0.668922       -18.2023
  38   2.0000      -0.643836       -17.5197
  39   2.0000      -0.623211       -16.9584
  40   2.0000      -0.587046       -15.9743
  41   2.0000      -0.569359       -15.4930
  42   2.0000      -0.565776       -15.3955
  43   2.0000      -0.556424       -15.1411
  44   2.0000      -0.547360       -14.8944
  45   2.0000      -0.522486       -14.2176
  46   2.0000      -0.512945       -13.9579
  47   2.0000      -0.510831       -13.9004
  48   2.0000      -0.503310       -13.6958
  49   2.0000      -0.501016       -13.6334
  50   2.0000      -0.484419       -13.1817
  51   2.0000      -0.480775       -13.0826
  52   2.0000      -0.472834       -12.8665
  53   2.0000      -0.468890       -12.7591
  54   2.0000      -0.459456       -12.5024
  55   2.0000      -0.450108       -12.2481
  56   2.0000      -0.443632       -12.0718
  57   2.0000      -0.437654       -11.9092
  58   2.0000      -0.431546       -11.7430
  59   2.0000      -0.426887       -11.6162
  60   2.0000      -0.422027       -11.4839
  61   2.0000      -0.409529       -11.1439
  62   2.0000      -0.404354       -11.0030
  63   2.0000      -0.362321        -9.8593
  64   2.0000      -0.331992        -9.0340
  65   2.0000      -0.324633        -8.8337
  66   2.0000      -0.291695        -7.9374
  67   0.0000       0.027385         0.7452
  68   0.0000       0.083058         2.2601
  69   0.0000       0.105848         2.8803
  70   0.0000       0.115632         3.1465
  71   0.0000       0.142529         3.8784

MULLIKEN ATOMIC CHARGES
-----------------------
   0 S :    0.097228
   1 C :   -0.122834
   2 C :   -0.041128
   3 C :    0.005378
   4 C :   -0.094132
   5 H :   -0.006384
   6 C :    0.048274
   7 H :    0.007007
   8 H :    0.050116
   9 C :   -0.077661
  10 H :    0.040815
  11 H :    0.028232
  12 C :   -0.093838
  13 H :    0.031853
  14 H :    0.042829
  15 H :    0.041625
  16 S :    0.077499
  17 C :   -0.091164
  18 C :   -0.013196
  19 C :   -0.129183
  20 C :   -0.067753
  21 H :    0.013616
  22 C :    0.021338
  23 H :    0.000727
  24 H :    0.040572
  25 C :   -0.019590
  26 H :    0.025600
  27 H :    0.016638
  28 C :   -0.028573
  29 H :    0.002950
  30 H :    0.053862
  31 H :    0.032773
  32 H :    0.042314
  33 H :    0.064190
Sum of atomic charges:    0.0000000

LOEWDIN ATOMIC CHARGES
----------------------
   0 S :    0.402263
   1 C :   -0.186259
   2 C :   -0.061994
   3 C :   -0.062056
   4 C :   -0.185934
   5 H :    0.024388
   6 C :   -0.028591
   7 H :    0.019810
   8 H :    0.041988
   9 C :   -0.043603
  10 H :    0.030171
  11 H :    0.021326
  12 C :   -0.074660
  13 H :    0.026224
  14 H :    0.032817
  15 H :    0.023172
  16 S :    0.412044
  17 C :   -0.182959
  18 C :   -0.068379
  19 C :   -0.059997
  20 C :   -0.209533
  21 H :    0.029161
  22 C :   -0.040440
  23 H :    0.026645
  24 H :    0.026277
  25 C :   -0.032089
  26 H :    0.026665
  27 H :    0.015800
  28 C :   -0.062238
  29 H :    0.008281
  30 H :    0.039666
  31 H :    0.031284
  32 H :    0.024611
  33 H :    0.036139

  Mayer bond orders larger than 0.100000
B(  0-S ,  1-C ) :   1.1234 B(  0-S ,  4-C ) :   1.1532 B(  1-C ,  2-C ) :   1.6397
B(  1-C , 32-H ) :   0.9748 B(  2-C ,  3-C ) :   1.2180 B(  2-C ,  6-C ) :   1.0101
B(  3-C ,  4-C ) :   1.5945 B(  3-C ,  5-H ) :   0.9934 B(  4-C , 20-C ) :   1.0193
B(  6-C ,  7-H ) :   0.9495 B(  6-C ,  8-H ) :   0.9435 B(  6-C ,  9-C ) :   1.0599
B(  9-C , 10-H ) :   0.9562 B(  9-C , 11-H ) :   0.9540 B(  9-C , 12-C ) :   1.0841
B( 12-C , 13-H ) :   0.9741 B( 12-C , 14-H ) :   0.9724 B( 12-C , 15-H ) :   0.9755
B( 16-S , 17-C ) :   1.1517 B( 16-S , 20-C ) :   1.1303 B( 17-C , 18-C ) :   1.6311
B( 17-C , 33-H ) :   0.9647 B( 18-C , 19-C ) :   1.2255 B( 18-C , 21-H ) :   0.9985
B( 19-C , 20-C ) :   1.6043 B( 19-C , 22-C ) :   1.0387 B( 22-C , 23-H ) :   0.9255
B( 22-C , 24-H ) :   0.9314 B( 22-C , 25-C ) :   1.0652 B( 25-C , 26-H ) :   0.9541
B( 25-C , 27-H ) :   0.9493 B( 25-C , 28-C ) :   1.0843 B( 28-C , 29-H ) :   0.9707
B( 28-C , 30-H ) :   0.9655 B( 28-C , 31-H ) :   0.9760

Dispersion correction           -0.014508404
FINAL SINGLE POINT ENERGY     -1339.866025295288

DIPOLE MOMENT
-------------
                                X             Y             Z
Electronic contribution:    -16.77144      21.48897      -7.32748
Nuclear contribution   :     17.28243     -21.92805       7.71025
                        -----------------------------------------
Total Dipole Moment    :      0.51098      -0.43908       0.38276
                        -----------------------------------------
Magnitude (a.u.)       :      0.77486
Magnitude (Debye)      :      1.96953

Rotational constants in cm-1:     0.019709     0.008411     0.007113
Rotational constants in MHz :   590.865182   252.158052   213.235454

                             ****ORCA TERMINATED NORMALLY****
TOTAL RUN TIME: 0 days 0 hours 0 minutes 22 seconds 203 msec
