                         Program Version 4.2.1 -  RELEASE  -
|  1> ! wB97X-D3 SP def2-SVP
|  2> %pal
|  3> nprocs 24
|  4> end
|  5>
|  6> * xyz 0 1
|  7> S 	 -124.301 	 61.8546 	 -50.5235
|  8> C 	 -124.227 	 63.1589 	 -49.3411
|  9> C 	 -125.459 	 63.7771 	 -49.2052
| 10> C 	 -126.439 	 63.1177 	 -50.0347
| 11> C 	 -125.965 	 62.1733 	 -50.9366
| 12> H 	 -127.392 	 63.5792 	 -50.2071
| 13> C 	 -125.901 	 64.8663 	 -48.283
| 14> H 	 -124.977 	 65.2725 	 -47.8488
| 15> H 	 -126.558 	 64.5067 	 -47.4548
| 16> C 	 -126.569 	 66.0491 	 -49.0251
| 17> H 	 -127.63 	 65.8895 	 -49.2851
| 18> H 	 -126.577 	 66.8281 	 -48.2666
| 19> C 	 -125.925 	 66.5502 	 -50.3145
| 20> H 	 -126.173 	 67.5913 	 -50.3685
| 21> H 	 -124.847 	 66.5507 	 -50.2099
| 22> H 	 -126.12 	 65.9667 	 -51.16
| 23> S 	 -125.86 	 61.2275 	 -53.4852
| 24> C 	 -127.298 	 60.5188 	 -54.2232
| 25> C 	 -128.277 	 60.2881 	 -53.3236
| 26> C 	 -128.061 	 60.9511 	 -52.0798
| 27> C 	 -126.731 	 61.4987 	 -51.8999
| 28> H 	 -129.206 	 59.8995 	 -53.7051
| 29> C 	 -129.172 	 61.1595 	 -51.1108
| 30> H 	 -130.067 	 60.9745 	 -51.6274
| 31> H 	 -129.155 	 62.2239 	 -50.9149
| 32> C 	 -129.208 	 60.3189 	 -49.8178
| 33> H 	 -128.189 	 60.424 	 -49.3639
| 34> H 	 -129.428 	 59.2094 	 -50.071
| 35> C 	 -130.16 	 60.7613 	 -48.7909
| 36> H 	 -130.145 	 59.9599 	 -48.1264
| 37> H 	 -131.092 	 60.8643 	 -49.2178
| 38> H 	 -129.717 	 61.6666 	 -48.2908
| 39> H 	 -123.361 	 63.4109 	 -48.7022
| 40> H 	 -127.347 	 60.2107 	 -55.2515
| 41> *
| 42>
| 43>                          ****END OF INPUT****

CARTESIAN COORDINATES (ANGSTROEM)
---------------------------------
  S    -124.301000   61.854600  -50.523500
  C    -124.227000   63.158900  -49.341100
  C    -125.459000   63.777100  -49.205200
  C    -126.439000   63.117700  -50.034700
  C    -125.965000   62.173300  -50.936600
  H    -127.392000   63.579200  -50.207100
  C    -125.901000   64.866300  -48.283000
  H    -124.977000   65.272500  -47.848800
  H    -126.558000   64.506700  -47.454800
  C    -126.569000   66.049100  -49.025100
  H    -127.630000   65.889500  -49.285100
  H    -126.577000   66.828100  -48.266600
  C    -125.925000   66.550200  -50.314500
  H    -126.173000   67.591300  -50.368500
  H    -124.847000   66.550700  -50.209900
  H    -126.120000   65.966700  -51.160000
  S    -125.860000   61.227500  -53.485200
  C    -127.298000   60.518800  -54.223200
  C    -128.277000   60.288100  -53.323600
  C    -128.061000   60.951100  -52.079800
  C    -126.731000   61.498700  -51.899900
  H    -129.206000   59.899500  -53.705100
  C    -129.172000   61.159500  -51.110800
  H    -130.067000   60.974500  -51.627400
  H    -129.155000   62.223900  -50.914900
  C    -129.208000   60.318900  -49.817800
  H    -128.189000   60.424000  -49.363900
  H    -129.428000   59.209400  -50.071000
  C    -130.160000   60.761300  -48.790900
  H    -130.145000   59.959900  -48.126400
  H    -131.092000   60.864300  -49.217800
  H    -129.717000   61.666600  -48.290800
  H    -123.361000   63.410900  -48.702200
  H    -127.347000   60.210700  -55.251500

 Total Charge           Charge          ....    0
 Multiplicity           Mult            ....    1
 Number of Electrons    NEL             ....  134
 Basis Dimension        Dim             ....  322

ORBITAL ENERGIES
----------------

  NO   OCC          E(Eh)            E(eV)
   0   2.0000     -88.967727     -2420.9349
   1   2.0000     -88.961733     -2420.7718
   2   2.0000     -10.335537      -281.2443
   3   2.0000     -10.331383      -281.1312
   4   2.0000     -10.318807      -280.7890
   5   2.0000     -10.317788      -280.7613
   6   2.0000     -10.313486      -280.6442
   7   2.0000     -10.300654      -280.2951
   8   2.0000     -10.297139      -280.1994
   9   2.0000     -10.292645      -280.0771
  10   2.0000     -10.288968      -279.9771
  11   2.0000     -10.287505      -279.9372
  12   2.0000     -10.287017      -279.9240
  13   2.0000     -10.282566      -279.8028
  14   2.0000     -10.267617      -279.3961
  15   2.0000     -10.265730      -279.3447
  16   2.0000      -8.082210      -219.9281
  17   2.0000      -8.075543      -219.7467
  18   2.0000      -6.040906      -164.3814
  19   2.0000      -6.036662      -164.2659
  20   2.0000      -6.034151      -164.1976
  21   2.0000      -6.032849      -164.1622
  22   2.0000      -6.030136      -164.0884
  23   2.0000      -6.026290      -163.9837
  24   2.0000      -1.004389       -27.3308
  25   2.0000      -0.979878       -26.6638
  26   2.0000      -0.916001       -24.9257
  27   2.0000      -0.913972       -24.8704
  28   2.0000      -0.876785       -23.8585
  29   2.0000      -0.858853       -23.3706
  30   2.0000      -0.844181       -22.9713
  31   2.0000      -0.816816       -22.2267
  32   2.0000      -0.787372       -21.4255
  33   2.0000      -0.772581       -21.0230
  34   2.0000      -0.714281       -19.4366
  35   2.0000      -0.697383       -18.9767
  36   2.0000      -0.683654       -18.6032
  37   2.0000      -0.661535       -18.0013
  38   2.0000      -0.633761       -17.2455
  39   2.0000      -0.625158       -17.0114
  40   2.0000      -0.594806       -16.1855
  41   2.0000      -0.576567       -15.6892
  42   2.0000      -0.565709       -15.3937
  43   2.0000      -0.554864       -15.0986
  44   2.0000      -0.545875       -14.8540
  45   2.0000      -0.536321       -14.5940
  46   2.0000      -0.524372       -14.2689
  47   2.0000      -0.511687       -13.9237
  48   2.0000      -0.508442       -13.8354
  49   2.0000      -0.501431       -13.6446
  50   2.0000      -0.495009       -13.4699
  51   2.0000      -0.491083       -13.3631
  52   2.0000      -0.464811       -12.6482
  53   2.0000      -0.463756       -12.6195
  54   2.0000      -0.457797       -12.4573
  55   2.0000      -0.446615       -12.1530
  56   2.0000      -0.441209       -12.0059
  57   2.0000      -0.434932       -11.8351
  58   2.0000      -0.424163       -11.5421
  59   2.0000      -0.422230       -11.4894
  60   2.0000      -0.418434       -11.3862
  61   2.0000      -0.412969       -11.2375
  62   2.0000      -0.409643       -11.1469
  63   2.0000      -0.357248        -9.7212
  64   2.0000      -0.329455        -8.9649
  65   2.0000      -0.328507        -8.9391
  66   2.0000      -0.281709        -7.6657
  67   0.0000       0.017280         0.4702
  68   0.0000       0.067935         1.8486
  69   0.0000       0.109251         2.9729
  70   0.0000       0.112254         3.0546
  71   0.0000       0.127249         3.4626

MULLIKEN ATOMIC CHARGES
-----------------------
   0 S :    0.116413
   1 C :   -0.129797
   2 C :   -0.110558
   3 C :   -0.009046
   4 C :   -0.103702
   5 H :    0.010056
   6 C :    0.091534
   7 H :    0.011465
   8 H :    0.056184
   9 C :   -0.137666
  10 H :    0.034083
  11 H :    0.025887
  12 C :    0.010923
  13 H :    0.029737
  14 H :    0.011073
  15 H :    0.035334
  16 S :    0.070314
  17 C :   -0.083980
  18 C :   -0.011960
  19 C :   -0.050358
  20 C :   -0.149585
  21 H :    0.018740
  22 C :    0.097013
  23 H :   -0.009097
  24 H :    0.019964
  25 C :   -0.140448
  26 H :    0.040378
  27 H :    0.035968
  28 C :    0.039618
  29 H :    0.019161
  30 H :    0.011258
  31 H :    0.037076
  32 H :    0.056881
  33 H :    0.057139
Sum of atomic charges:    0.0000000

LOEWDIN ATOMIC CHARGES
----------------------
   0 S :    0.406132
   1 C :   -0.201592
   2 C :   -0.066389
   3 C :   -0.071149
   4 C :   -0.200604
   5 H :    0.022174
   6 C :   -0.034464
   7 H :    0.029134
   8 H :    0.042527
   9 C :   -0.045726
  10 H :    0.022284
  11 H :    0.024079
  12 C :   -0.057478
  13 H :    0.029483
  14 H :    0.024016
  15 H :    0.021440
  16 S :    0.364155
  17 C :   -0.164685
  18 C :   -0.076769
  19 C :   -0.038086
  20 C :   -0.173539
  21 H :    0.033935
  22 C :   -0.037911
  23 H :    0.020425
  24 H :    0.030824
  25 C :   -0.043842
  26 H :    0.029249
  27 H :    0.029576
  28 C :   -0.053435
  29 H :    0.023667
  30 H :    0.012473
  31 H :    0.034662
  32 H :    0.036711
  33 H :    0.028721

  Mayer bond orders larger than 0.100000
B(  0-S ,  1-C ) :   1.1250 B(  0-S ,  4-C ) :   1.1344 B(  1-C ,  2-C ) :   1.6151
B(  1-C , 32-H ) :   0.9607 B(  2-C ,  3-C ) :   1.2449 B(  2-C ,  6-C ) :   1.0379
B(  3-C ,  4-C ) :   1.5535 B(  3-C ,  5-H ) :   0.9875 B(  4-C , 20-C ) :   1.1298
B(  6-C ,  7-H ) :   0.9302 B(  6-C ,  8-H ) :   0.9405 B(  6-C ,  9-C ) :   1.0653
B(  9-C , 10-H ) :   0.9536 B(  9-C , 11-H ) :   0.9593 B(  9-C , 12-C ) :   1.0816
B( 12-C , 13-H ) :   0.9708 B( 12-C , 14-H ) :   0.9712 B( 12-C , 15-H ) :   0.9706
B( 16-S , 17-C ) :   1.1577 B( 16-S , 20-C ) :   1.1066 B( 17-C , 18-C ) :   1.6237
B( 17-C , 20-C ) :   0.1085 B( 17-C , 33-H ) :   0.9633 B( 18-C , 19-C ) :   1.2501
B( 18-C , 21-H ) :   0.9841 B( 19-C , 20-C ) :   1.5402 B( 19-C , 22-C ) :   1.0453
B( 22-C , 23-H ) :   0.9144 B( 22-C , 24-H ) :   0.9346 B( 22-C , 25-C ) :   1.0640
B( 25-C , 26-H ) :   0.9590 B( 25-C , 27-H ) :   0.9533 B( 25-C , 28-C ) :   1.0857
B( 28-C , 29-H ) :   0.9685 B( 28-C , 30-H ) :   0.9704 B( 28-C , 31-H ) :   0.9715

Dispersion correction           -0.014660195
FINAL SINGLE POINT ENERGY     -1339.855848319746

DIPOLE MOMENT
-------------
                                X             Y             Z
Electronic contribution:     17.05803     -12.46682     -15.19527
Nuclear contribution   :    -17.68764      12.76430      15.45994
                        -----------------------------------------
Total Dipole Moment    :     -0.62960       0.29748       0.26467
                        -----------------------------------------
Magnitude (a.u.)       :      0.74495
Magnitude (Debye)      :      1.89350

Rotational constants in cm-1:     0.016538     0.009746     0.007686
Rotational constants in MHz :   495.788331   292.190459   230.422390

                             ****ORCA TERMINATED NORMALLY****
TOTAL RUN TIME: 0 days 0 hours 0 minutes 22 seconds 239 msec
