                         Program Version 4.2.1 -  RELEASE  -
|  1> ! wB97X-D3 SP def2-SVP
|  2> %pal
|  3> nprocs 24
|  4> end
|  5>
|  6> * xyz 0 1
|  7> S 	 -87.926 	 -7.65628 	 -112.901
|  8> C 	 -89.1101 	 -8.86562 	 -113.387
|  9> C 	 -89.9443 	 -8.35416 	 -114.308
| 10> C 	 -89.6272 	 -7.02217 	 -114.699
| 11> C 	 -88.5765 	 -6.4627 	 -113.961
| 12> H 	 -90.0659 	 -6.42782 	 -115.448
| 13> C 	 -90.9957 	 -9.12405 	 -115.031
| 14> H 	 -90.7355 	 -10.1943 	 -114.954
| 15> H 	 -90.8354 	 -8.73392 	 -116.04
| 16> C 	 -92.5101 	 -8.88789 	 -114.652
| 17> H 	 -92.6784 	 -7.83949 	 -114.75
| 18> H 	 -93.1484 	 -9.3596 	 -115.361
| 19> C 	 -92.6834 	 -9.50828 	 -113.254
| 20> H 	 -93.649 	 -9.48701 	 -112.87
| 21> H 	 -92.4757 	 -10.5617 	 -113.216
| 22> H 	 -91.9708 	 -9.12505 	 -112.491
| 23> S 	 -86.3214 	 -4.94636 	 -114.246
| 24> C 	 -86.3838 	 -3.24479 	 -114.563
| 25> C 	 -87.6126 	 -2.8362 	 -114.134
| 26> C 	 -88.6392 	 -3.85789 	 -114.008
| 27> C 	 -88.018 	 -5.10874 	 -113.998
| 28> H 	 -87.8633 	 -1.79336 	 -114.007
| 29> C 	 -90.1206 	 -3.6821 	 -113.772
| 30> H 	 -90.538 	 -4.70211 	 -114.035
| 31> H 	 -90.4531 	 -2.94131 	 -114.517
| 32> C 	 -90.5977 	 -3.41532 	 -112.376
| 33> H 	 -90.2403 	 -4.21583 	 -111.745
| 34> H 	 -91.6849 	 -3.65164 	 -112.298
| 35> C 	 -90.1332 	 -2.05965 	 -111.816
| 36> H 	 -89.0541 	 -1.95671 	 -111.765
| 37> H 	 -90.6003 	 -1.9829 	 -110.811
| 38> H 	 -90.5146 	 -1.19602 	 -112.351
| 39> H 	 -89.1077 	 -9.83397 	 -112.938
| 40> H 	 -85.5148 	 -2.67476 	 -114.769
| 41> *
| 42>
| 43>                          ****END OF INPUT****

CARTESIAN COORDINATES (ANGSTROEM)
---------------------------------
  S    -87.926000   -7.656280  -112.901000
  C    -89.110100   -8.865620  -113.387000
  C    -89.944300   -8.354160  -114.308000
  C    -89.627200   -7.022170  -114.699000
  C    -88.576500   -6.462700  -113.961000
  H    -90.065900   -6.427820  -115.448000
  C    -90.995700   -9.124050  -115.031000
  H    -90.735500  -10.194300  -114.954000
  H    -90.835400   -8.733920  -116.040000
  C    -92.510100   -8.887890  -114.652000
  H    -92.678400   -7.839490  -114.750000
  H    -93.148400   -9.359600  -115.361000
  C    -92.683400   -9.508280  -113.254000
  H    -93.649000   -9.487010  -112.870000
  H    -92.475700  -10.561700  -113.216000
  H    -91.970800   -9.125050  -112.491000
  S    -86.321400   -4.946360  -114.246000
  C    -86.383800   -3.244790  -114.563000
  C    -87.612600   -2.836200  -114.134000
  C    -88.639200   -3.857890  -114.008000
  C    -88.018000   -5.108740  -113.998000
  H    -87.863300   -1.793360  -114.007000
  C    -90.120600   -3.682100  -113.772000
  H    -90.538000   -4.702110  -114.035000
  H    -90.453100   -2.941310  -114.517000
  C    -90.597700   -3.415320  -112.376000
  H    -90.240300   -4.215830  -111.745000
  H    -91.684900   -3.651640  -112.298000
  C    -90.133200   -2.059650  -111.816000
  H    -89.054100   -1.956710  -111.765000
  H    -90.600300   -1.982900  -110.811000
  H    -90.514600   -1.196020  -112.351000
  H    -89.107700   -9.833970  -112.938000
  H    -85.514800   -2.674760  -114.769000

 Total Charge           Charge          ....    0
 Multiplicity           Mult            ....    1
 Number of Electrons    NEL             ....  134
 Basis Dimension        Dim             ....  322

ORBITAL ENERGIES
----------------

  NO   OCC          E(Eh)            E(eV)
   0   2.0000     -88.962417     -2420.7904
   1   2.0000     -88.960464     -2420.7373
   2   2.0000     -10.331170      -281.1254
   3   2.0000     -10.325977      -280.9841
   4   2.0000     -10.315973      -280.7119
   5   2.0000     -10.309152      -280.5263
   6   2.0000     -10.305098      -280.4160
   7   2.0000     -10.296530      -280.1828
   8   2.0000     -10.296182      -280.1734
   9   2.0000     -10.292174      -280.0643
  10   2.0000     -10.291324      -280.0412
  11   2.0000     -10.291100      -280.0351
  12   2.0000     -10.288583      -279.9666
  13   2.0000     -10.285198      -279.8745
  14   2.0000     -10.278126      -279.6820
  15   2.0000     -10.271863      -279.5116
  16   2.0000      -8.077837      -219.8091
  17   2.0000      -8.076500      -219.7727
  18   2.0000      -6.036319      -164.2566
  19   2.0000      -6.034985      -164.2203
  20   2.0000      -6.032167      -164.1436
  21   2.0000      -6.030810      -164.1067
  22   2.0000      -6.028673      -164.0485
  23   2.0000      -6.027188      -164.0081
  24   2.0000      -1.012631       -27.5551
  25   2.0000      -0.991087       -26.9689
  26   2.0000      -0.913216       -24.8499
  27   2.0000      -0.912176       -24.8216
  28   2.0000      -0.872328       -23.7372
  29   2.0000      -0.850302       -23.1379
  30   2.0000      -0.841982       -22.9115
  31   2.0000      -0.817409       -22.2428
  32   2.0000      -0.783744       -21.3268
  33   2.0000      -0.776551       -21.1310
  34   2.0000      -0.716984       -19.5101
  35   2.0000      -0.705138       -19.1878
  36   2.0000      -0.696365       -18.9491
  37   2.0000      -0.663124       -18.0445
  38   2.0000      -0.647646       -17.6233
  39   2.0000      -0.618437       -16.8285
  40   2.0000      -0.594193       -16.1688
  41   2.0000      -0.566842       -15.4246
  42   2.0000      -0.555678       -15.1208
  43   2.0000      -0.550366       -14.9762
  44   2.0000      -0.545131       -14.8338
  45   2.0000      -0.542418       -14.7599
  46   2.0000      -0.520641       -14.1674
  47   2.0000      -0.516638       -14.0584
  48   2.0000      -0.508821       -13.8457
  49   2.0000      -0.494401       -13.4533
  50   2.0000      -0.492427       -13.3996
  51   2.0000      -0.485591       -13.2136
  52   2.0000      -0.474628       -12.9153
  53   2.0000      -0.467932       -12.7331
  54   2.0000      -0.457835       -12.4583
  55   2.0000      -0.450215       -12.2510
  56   2.0000      -0.447260       -12.1706
  57   2.0000      -0.437811       -11.9135
  58   2.0000      -0.430599       -11.7172
  59   2.0000      -0.425663       -11.5829
  60   2.0000      -0.416405       -11.3310
  61   2.0000      -0.415007       -11.2929
  62   2.0000      -0.407937       -11.1005
  63   2.0000      -0.350985        -9.5508
  64   2.0000      -0.328486        -8.9386
  65   2.0000      -0.324101        -8.8192
  66   2.0000      -0.294693        -8.0190
  67   0.0000       0.031651         0.8613
  68   0.0000       0.070957         1.9309
  69   0.0000       0.110377         3.0035
  70   0.0000       0.118140         3.2147
  71   0.0000       0.133976         3.6457

MULLIKEN ATOMIC CHARGES
-----------------------
   0 S :    0.096688
   1 C :   -0.132404
   2 C :   -0.052465
   3 C :    0.042617
   4 C :   -0.162143
   5 H :    0.001894
   6 C :    0.014712
   7 H :    0.027183
   8 H :    0.028484
   9 C :    0.004617
  10 H :    0.019766
  11 H :    0.027392
  12 C :   -0.043935
  13 H :    0.016960
  14 H :    0.010208
  15 H :    0.039698
  16 S :    0.098011
  17 C :   -0.078941
  18 C :   -0.021748
  19 C :   -0.083899
  20 C :   -0.137172
  21 H :    0.015215
  22 C :    0.056715
  23 H :    0.021591
  24 H :    0.031901
  25 C :   -0.045636
  26 H :    0.021155
  27 H :    0.032553
  28 C :   -0.053282
  29 H :    0.044047
  30 H :    0.036408
  31 H :    0.025154
  32 H :    0.041671
  33 H :    0.056985
Sum of atomic charges:    0.0000000

LOEWDIN ATOMIC CHARGES
----------------------
   0 S :    0.407656
   1 C :   -0.189921
   2 C :   -0.068494
   3 C :   -0.066714
   4 C :   -0.192847
   5 H :    0.023027
   6 C :   -0.028499
   7 H :    0.030162
   8 H :    0.032793
   9 C :   -0.023911
  10 H :    0.019949
  11 H :    0.022362
  12 C :   -0.068304
  13 H :    0.014624
  14 H :    0.023364
  15 H :    0.032321
  16 S :    0.420226
  17 C :   -0.183131
  18 C :   -0.070606
  19 C :   -0.056953
  20 C :   -0.209484
  21 H :    0.024816
  22 C :   -0.041107
  23 H :    0.040585
  24 H :    0.030518
  25 C :   -0.045501
  26 H :    0.027436
  27 H :    0.031530
  28 C :   -0.068282
  29 H :    0.026485
  30 H :    0.032903
  31 H :    0.021738
  32 H :    0.024572
  33 H :    0.026685

  Mayer bond orders larger than 0.100000
B(  0-S ,  1-C ) :   1.1233 B(  0-S ,  4-C ) :   1.1767 B(  1-C ,  2-C ) :   1.6046
B(  1-C , 32-H ) :   0.9794 B(  2-C ,  3-C ) :   1.2301 B(  2-C ,  6-C ) :   1.0125
B(  3-C ,  4-C ) :   1.5662 B(  3-C ,  5-H ) :   0.9965 B(  4-C , 20-C ) :   1.0058
B(  6-C ,  7-H ) :   0.9497 B(  6-C ,  8-H ) :   0.9387 B(  6-C ,  9-C ) :   1.0685
B(  9-C , 10-H ) :   0.9566 B(  9-C , 11-H ) :   0.9562 B(  9-C , 12-C ) :   1.0658
B( 12-C , 13-H ) :   0.9740 B( 12-C , 14-H ) :   0.9717 B( 12-C , 15-H ) :   0.9765
B( 16-S , 17-C ) :   1.1549 B( 16-S , 20-C ) :   1.1625 B( 17-C , 18-C ) :   1.5868
B( 17-C , 20-C ) :   0.1018 B( 17-C , 33-H ) :   0.9777 B( 18-C , 19-C ) :   1.2419
B( 18-C , 21-H ) :   0.9851 B( 19-C , 20-C ) :   1.5790 B( 19-C , 22-C ) :   1.0467
B( 22-C , 23-H ) :   0.9206 B( 22-C , 24-H ) :   0.9297 B( 22-C , 25-C ) :   1.0864
B( 25-C , 26-H ) :   0.9452 B( 25-C , 27-H ) :   0.9517 B( 25-C , 28-C ) :   1.0755
B( 28-C , 29-H ) :   0.9719 B( 28-C , 30-H ) :   0.9721 B( 28-C , 31-H ) :   0.9765

Dispersion correction           -0.014705326
FINAL SINGLE POINT ENERGY     -1339.875982447267

DIPOLE MOMENT
-------------
                                X             Y             Z
Electronic contribution:     25.74234      -1.07330      -3.21826
Nuclear contribution   :    -26.32350       1.19938       3.13485
                        -----------------------------------------
Total Dipole Moment    :     -0.58116       0.12608      -0.08341
                        -----------------------------------------
Magnitude (a.u.)       :      0.60050
Magnitude (Debye)      :      1.52635

Rotational constants in cm-1:     0.020465     0.008614     0.006895
Rotational constants in MHz :   613.518309   258.247213   206.700495

                             ****ORCA TERMINATED NORMALLY****
TOTAL RUN TIME: 0 days 0 hours 0 minutes 22 seconds 206 msec
