                         Program Version 4.2.1 -  RELEASE  -
|  1> ! wB97X-D3 SP def2-SVP
|  2> %pal
|  3> nprocs 24
|  4> end
|  5>
|  6> * xyz 0 1
|  7> S 	 -78.3361 	 -1.4839 	 -65.7043
|  8> C 	 -77.1799 	 -0.219158 	 -65.2565
|  9> C 	 -76.6563 	 -0.476447 	 -63.9698
| 10> C 	 -77.0332 	 -1.79029 	 -63.5215
| 11> C 	 -77.8571 	 -2.51716 	 -64.3474
| 12> H 	 -76.7751 	 -2.38833 	 -62.6152
| 13> C 	 -75.7769 	 0.387715 	 -63.1375
| 14> H 	 -75.9764 	 0.140226 	 -62.1448
| 15> H 	 -76.1591 	 1.372 	 -63.2017
| 16> C 	 -74.3182 	 0.357547 	 -63.5169
| 17> H 	 -73.8899 	 -0.606357 	 -63.7043
| 18> H 	 -74.3277 	 0.644639 	 -64.6154
| 19> C 	 -73.319 	 1.08737 	 -62.6387
| 20> H 	 -72.2827 	 1.18001 	 -63.1181
| 21> H 	 -73.5835 	 2.14144 	 -62.4103
| 22> H 	 -73.1923 	 0.61691 	 -61.6248
| 23> S 	 -77.724 	 -5.12561 	 -64.8436
| 24> C 	 -78.8738 	 -6.17486 	 -64.0688
| 25> C 	 -79.8169 	 -5.46603 	 -63.3143
| 26> C 	 -79.5672 	 -4.06305 	 -63.3013
| 27> C 	 -78.4805 	 -3.76031 	 -64.0761
| 28> H 	 -80.6147 	 -5.94197 	 -62.7513
| 29> C 	 -80.4828 	 -3.0121 	 -62.6322
| 30> H 	 -81.0513 	 -2.67811 	 -63.4516
| 31> H 	 -79.9321 	 -2.23894 	 -62.2035
| 32> C 	 -81.3934 	 -3.5391 	 -61.4889
| 33> H 	 -80.9135 	 -4.11943 	 -60.6625
| 34> H 	 -82.1416 	 -4.23563 	 -61.9089
| 35> C 	 -82.1662 	 -2.37137 	 -60.8326
| 36> H 	 -81.5684 	 -1.61989 	 -60.3326
| 37> H 	 -82.8974 	 -2.62473 	 -59.9801
| 38> H 	 -82.6928 	 -1.77552 	 -61.551
| 39> H 	 -76.9419 	 0.630034 	 -65.9101
| 40> H 	 -79.0324 	 -7.20001 	 -64.1549
| 41> *
| 42>
| 43>                          ****END OF INPUT****

CARTESIAN COORDINATES (ANGSTROEM)
---------------------------------
  S    -78.336100   -1.483900  -65.704300
  C    -77.179900   -0.219158  -65.256500
  C    -76.656300   -0.476447  -63.969800
  C    -77.033200   -1.790290  -63.521500
  C    -77.857100   -2.517160  -64.347400
  H    -76.775100   -2.388330  -62.615200
  C    -75.776900    0.387715  -63.137500
  H    -75.976400    0.140226  -62.144800
  H    -76.159100    1.372000  -63.201700
  C    -74.318200    0.357547  -63.516900
  H    -73.889900   -0.606357  -63.704300
  H    -74.327700    0.644639  -64.615400
  C    -73.319000    1.087370  -62.638700
  H    -72.282700    1.180010  -63.118100
  H    -73.583500    2.141440  -62.410300
  H    -73.192300    0.616910  -61.624800
  S    -77.724000   -5.125610  -64.843600
  C    -78.873800   -6.174860  -64.068800
  C    -79.816900   -5.466030  -63.314300
  C    -79.567200   -4.063050  -63.301300
  C    -78.480500   -3.760310  -64.076100
  H    -80.614700   -5.941970  -62.751300
  C    -80.482800   -3.012100  -62.632200
  H    -81.051300   -2.678110  -63.451600
  H    -79.932100   -2.238940  -62.203500
  C    -81.393400   -3.539100  -61.488900
  H    -80.913500   -4.119430  -60.662500
  H    -82.141600   -4.235630  -61.908900
  C    -82.166200   -2.371370  -60.832600
  H    -81.568400   -1.619890  -60.332600
  H    -82.897400   -2.624730  -59.980100
  H    -82.692800   -1.775520  -61.551000
  H    -76.941900    0.630034  -65.910100
  H    -79.032400   -7.200010  -64.154900

 Total Charge           Charge          ....    0
 Multiplicity           Mult            ....    1
 Number of Electrons    NEL             ....  134
 Basis Dimension        Dim             ....  322

ORBITAL ENERGIES
----------------

  NO   OCC          E(Eh)            E(eV)
   0   2.0000     -88.968823     -2420.9648
   1   2.0000     -88.961800     -2420.7737
   2   2.0000     -10.321643      -280.8662
   3   2.0000     -10.320544      -280.8363
   4   2.0000     -10.315971      -280.7118
   5   2.0000     -10.313235      -280.6374
   6   2.0000     -10.306106      -280.4434
   7   2.0000     -10.302796      -280.3533
   8   2.0000     -10.296423      -280.1799
   9   2.0000     -10.294479      -280.1270
  10   2.0000     -10.293313      -280.0953
  11   2.0000     -10.289535      -279.9925
  12   2.0000     -10.289486      -279.9911
  13   2.0000     -10.287022      -279.9241
  14   2.0000     -10.281800      -279.7820
  15   2.0000     -10.281696      -279.7792
  16   2.0000      -8.083669      -219.9678
  17   2.0000      -8.075938      -219.7575
  18   2.0000      -6.042138      -164.4149
  19   2.0000      -6.038144      -164.3063
  20   2.0000      -6.034483      -164.2066
  21   2.0000      -6.034458      -164.2060
  22   2.0000      -6.030513      -164.0986
  23   2.0000      -6.026742      -163.9960
  24   2.0000      -1.007937       -27.4274
  25   2.0000      -0.980065       -26.6689
  26   2.0000      -0.916240       -24.9322
  27   2.0000      -0.907742       -24.7009
  28   2.0000      -0.870484       -23.6871
  29   2.0000      -0.850985       -23.1565
  30   2.0000      -0.844669       -22.9846
  31   2.0000      -0.812914       -22.1205
  32   2.0000      -0.784540       -21.3484
  33   2.0000      -0.771142       -20.9839
  34   2.0000      -0.708443       -19.2777
  35   2.0000      -0.706902       -19.2358
  36   2.0000      -0.700905       -19.0726
  37   2.0000      -0.657788       -17.8993
  38   2.0000      -0.647902       -17.6303
  39   2.0000      -0.611958       -16.6522
  40   2.0000      -0.597080       -16.2474
  41   2.0000      -0.571816       -15.5599
  42   2.0000      -0.567338       -15.4380
  43   2.0000      -0.551373       -15.0036
  44   2.0000      -0.529937       -14.4203
  45   2.0000      -0.523914       -14.2564
  46   2.0000      -0.517151       -14.0724
  47   2.0000      -0.512276       -13.9397
  48   2.0000      -0.507829       -13.8187
  49   2.0000      -0.499012       -13.5788
  50   2.0000      -0.487175       -13.2567
  51   2.0000      -0.476101       -12.9554
  52   2.0000      -0.469610       -12.7787
  53   2.0000      -0.463289       -12.6067
  54   2.0000      -0.457391       -12.4462
  55   2.0000      -0.455420       -12.3926
  56   2.0000      -0.446748       -12.1566
  57   2.0000      -0.439475       -11.9587
  58   2.0000      -0.436202       -11.8697
  59   2.0000      -0.429260       -11.6808
  60   2.0000      -0.420165       -11.4333
  61   2.0000      -0.415255       -11.2997
  62   2.0000      -0.400901       -10.9091
  63   2.0000      -0.337117        -9.1734
  64   2.0000      -0.327949        -8.9239
  65   2.0000      -0.315711        -8.5909
  66   2.0000      -0.311642        -8.4802
  67   0.0000       0.042417         1.1542
  68   0.0000       0.052932         1.4404
  69   0.0000       0.111113         3.0235
  70   0.0000       0.120331         3.2744
  71   0.0000       0.131631         3.5819

MULLIKEN ATOMIC CHARGES
-----------------------
   0 S :    0.096786
   1 C :   -0.136039
   2 C :   -0.110139
   3 C :    0.033841
   4 C :   -0.185634
   5 H :    0.027387
   6 C :    0.161441
   7 H :   -0.003636
   8 H :    0.009980
   9 C :   -0.065027
  10 H :    0.020065
  11 H :    0.015992
  12 C :   -0.071153
  13 H :    0.047722
  14 H :    0.027606
  15 H :    0.043126
  16 S :    0.138178
  17 C :   -0.044079
  18 C :   -0.074961
  19 C :   -0.019143
  20 C :   -0.221583
  21 H :    0.020588
  22 C :    0.154914
  23 H :    0.034926
  24 H :    0.015430
  25 C :   -0.113090
  26 H :    0.046100
  27 H :    0.037056
  28 C :   -0.062047
  29 H :    0.021124
  30 H :    0.041980
  31 H :    0.021210
  32 H :    0.063466
  33 H :    0.027611
Sum of atomic charges:   -0.0000000

LOEWDIN ATOMIC CHARGES
----------------------
   0 S :    0.382968
   1 C :   -0.192576
   2 C :   -0.057648
   3 C :   -0.064858
   4 C :   -0.203609
   5 H :    0.041682
   6 C :   -0.027797
   7 H :    0.022381
   8 H :    0.029252
   9 C :   -0.052084
  10 H :    0.024716
  11 H :    0.031307
  12 C :   -0.078026
  13 H :    0.038040
  14 H :    0.022656
  15 H :    0.031048
  16 S :    0.431332
  17 C :   -0.183097
  18 C :   -0.071119
  19 C :   -0.044837
  20 C :   -0.218872
  21 H :    0.030583
  22 C :   -0.012739
  23 H :    0.035334
  24 H :    0.024667
  25 C :   -0.045519
  26 H :    0.030470
  27 H :    0.024615
  28 C :   -0.076580
  29 H :    0.021144
  30 H :    0.035879
  31 H :    0.020223
  32 H :    0.032962
  33 H :    0.018100

  Mayer bond orders larger than 0.100000
B(  0-S ,  1-C ) :   1.1488 B(  0-S ,  4-C ) :   1.1284 B(  1-C ,  2-C ) :   1.5844
B(  1-C ,  4-C ) :   0.1054 B(  1-C , 32-H ) :   0.9716 B(  2-C ,  3-C ) :   1.2243
B(  2-C ,  6-C ) :   1.0296 B(  3-C ,  4-C ) :   1.6183 B(  3-C ,  5-H ) :   0.9846
B(  4-C , 20-C ) :   1.0224 B(  6-C ,  7-H ) :   0.9302 B(  6-C ,  8-H ) :   0.9242
B(  6-C ,  9-C ) :   1.0588 B(  9-C , 10-H ) :   0.9541 B(  9-C , 11-H ) :   0.9471
B(  9-C , 12-C ) :   1.0777 B( 12-C , 13-H ) :   0.9721 B( 12-C , 14-H ) :   0.9750
B( 12-C , 15-H ) :   0.9723 B( 16-S , 17-C ) :   1.1595 B( 16-S , 20-C ) :   1.1502
B( 17-C , 18-C ) :   1.6072 B( 17-C , 20-C ) :   0.1028 B( 17-C , 33-H ) :   0.9687
B( 18-C , 19-C ) :   1.2517 B( 18-C , 21-H ) :   0.9821 B( 19-C , 20-C ) :   1.6194
B( 19-C , 22-C ) :   1.0186 B( 22-C , 23-H ) :   0.9240 B( 22-C , 24-H ) :   0.9341
B( 22-C , 25-C ) :   1.0657 B( 25-C , 26-H ) :   0.9629 B( 25-C , 27-H ) :   0.9469
B( 25-C , 28-C ) :   1.0790 B( 28-C , 29-H ) :   0.9742 B( 28-C , 30-H ) :   0.9746
B( 28-C , 31-H ) :   0.9729

Dispersion correction           -0.013773627
FINAL SINGLE POINT ENERGY     -1339.864955217174

DIPOLE MOMENT
-------------
                                X             Y             Z
Electronic contribution:     -0.99706     -14.69710     -19.38574
Nuclear contribution   :      0.89866      14.92033      19.90858
                        -----------------------------------------
Total Dipole Moment    :     -0.09840       0.22323       0.52284
                        -----------------------------------------
Magnitude (a.u.)       :      0.57696
Magnitude (Debye)      :      1.46650

Rotational constants in cm-1:     0.018100     0.007487     0.006395
Rotational constants in MHz :   542.625693   224.448485   191.731255

                             ****ORCA TERMINATED NORMALLY****
TOTAL RUN TIME: 0 days 0 hours 0 minutes 19 seconds 754 msec
