                         Program Version 4.2.1 -  RELEASE  -
|  1> ! wB97X-D3 SP def2-SVP
|  2> %pal
|  3> nprocs 24
|  4> end
|  5>
|  6> * xyz 0 1
|  7> S 	 -93.2544 	 1.5138 	 0.914405
|  8> C 	 -91.7833 	 0.781164 	 1.44067
|  9> C 	 -91.156 	 1.55767 	 2.43967
| 10> C 	 -91.9843 	 2.6586 	 2.81011
| 11> C 	 -93.0588 	 2.82389 	 2.01855
| 12> H 	 -91.8232 	 3.21343 	 3.72403
| 13> C 	 -89.782 	 1.23354 	 2.99311
| 14> H 	 -89.2313 	 2.14749 	 2.91109
| 15> H 	 -89.2252 	 0.549959 	 2.31951
| 16> C 	 -89.7965 	 0.59294 	 4.43913
| 17> H 	 -90.2002 	 1.33523 	 5.17358
| 18> H 	 -90.4533 	 -0.291939 	 4.34565
| 19> C 	 -88.366 	 0.118433 	 4.82916
| 20> H 	 -87.5662 	 0.859464 	 4.59361
| 21> H 	 -88.3988 	 0.0242936 	 5.92578
| 22> H 	 -88.1156 	 -0.85267 	 4.306
| 23> S 	 -95.7671 	 3.44644 	 2.30541
| 24> C 	 -96.2251 	 5.08248 	 2.55396
| 25> C 	 -95.1356 	 5.91098 	 2.46469
| 26> C 	 -93.8953 	 5.26337 	 2.12728
| 27> C 	 -94.0702 	 3.87015 	 2.06941
| 28> H 	 -95.233 	 6.95256 	 2.737
| 29> C 	 -92.5859 	 6.01022 	 2.19947
| 30> H 	 -92.0738 	 5.68919 	 3.09407
| 31> H 	 -92.8619 	 7.06498 	 2.31155
| 32> C 	 -91.6611 	 5.81787 	 0.954887
| 33> H 	 -91.7237 	 4.74072 	 0.724776
| 34> H 	 -90.6152 	 6.01084 	 1.24533
| 35> C 	 -91.8948 	 6.62971 	 -0.334158
| 36> H 	 -92.8477 	 6.25449 	 -0.786226
| 37> H 	 -91.1399 	 6.46128 	 -1.134
| 38> H 	 -91.9983 	 7.70581 	 -0.173092
| 39> H 	 -91.3161 	 -0.0772945 	 1.02599
| 40> H 	 -97.2276 	 5.44749 	 2.77086
| 41> *
| 42>
| 43>                          ****END OF INPUT****

CARTESIAN COORDINATES (ANGSTROEM)
---------------------------------
  S    -93.254400    1.513800    0.914405
  C    -91.783300    0.781164    1.440670
  C    -91.156000    1.557670    2.439670
  C    -91.984300    2.658600    2.810110
  C    -93.058800    2.823890    2.018550
  H    -91.823200    3.213430    3.724030
  C    -89.782000    1.233540    2.993110
  H    -89.231300    2.147490    2.911090
  H    -89.225200    0.549959    2.319510
  C    -89.796500    0.592940    4.439130
  H    -90.200200    1.335230    5.173580
  H    -90.453300   -0.291939    4.345650
  C    -88.366000    0.118433    4.829160
  H    -87.566200    0.859464    4.593610
  H    -88.398800    0.024294    5.925780
  H    -88.115600   -0.852670    4.306000
  S    -95.767100    3.446440    2.305410
  C    -96.225100    5.082480    2.553960
  C    -95.135600    5.910980    2.464690
  C    -93.895300    5.263370    2.127280
  C    -94.070200    3.870150    2.069410
  H    -95.233000    6.952560    2.737000
  C    -92.585900    6.010220    2.199470
  H    -92.073800    5.689190    3.094070
  H    -92.861900    7.064980    2.311550
  C    -91.661100    5.817870    0.954887
  H    -91.723700    4.740720    0.724776
  H    -90.615200    6.010840    1.245330
  C    -91.894800    6.629710   -0.334158
  H    -92.847700    6.254490   -0.786226
  H    -91.139900    6.461280   -1.134000
  H    -91.998300    7.705810   -0.173092
  H    -91.316100   -0.077294    1.025990
  H    -97.227600    5.447490    2.770860

 Total Charge           Charge          ....    0
 Multiplicity           Mult            ....    1
 Number of Electrons    NEL             ....  134
 Basis Dimension        Dim             ....  322

ORBITAL ENERGIES
----------------

  NO   OCC          E(Eh)            E(eV)
   0   2.0000     -88.965742     -2420.8809
   1   2.0000     -88.965250     -2420.8675
   2   2.0000     -10.326378      -280.9950
   3   2.0000     -10.324110      -280.9333
   4   2.0000     -10.314459      -280.6707
   5   2.0000     -10.310388      -280.5599
   6   2.0000     -10.303460      -280.3714
   7   2.0000     -10.301092      -280.3070
   8   2.0000     -10.297696      -280.2145
   9   2.0000     -10.294113      -280.1171
  10   2.0000     -10.292973      -280.0860
  11   2.0000     -10.290571      -280.0207
  12   2.0000     -10.290531      -280.0196
  13   2.0000     -10.289426      -279.9895
  14   2.0000     -10.284856      -279.8652
  15   2.0000     -10.278856      -279.7019
  16   2.0000      -8.080884      -219.8920
  17   2.0000      -8.080731      -219.8879
  18   2.0000      -6.039304      -164.3378
  19   2.0000      -6.039217      -164.3354
  20   2.0000      -6.035170      -164.2253
  21   2.0000      -6.035112      -164.2237
  22   2.0000      -6.031781      -164.1331
  23   2.0000      -6.031591      -164.1279
  24   2.0000      -1.011070       -27.5126
  25   2.0000      -0.986708       -26.8497
  26   2.0000      -0.905845       -24.6493
  27   2.0000      -0.902971       -24.5711
  28   2.0000      -0.867118       -23.5955
  29   2.0000      -0.850674       -23.1480
  30   2.0000      -0.844201       -22.9719
  31   2.0000      -0.815112       -22.1803
  32   2.0000      -0.782006       -21.2795
  33   2.0000      -0.767562       -20.8864
  34   2.0000      -0.707478       -19.2514
  35   2.0000      -0.696010       -18.9394
  36   2.0000      -0.684127       -18.6160
  37   2.0000      -0.659220       -17.9383
  38   2.0000      -0.642740       -17.4899
  39   2.0000      -0.624307       -16.9883
  40   2.0000      -0.590015       -16.0551
  41   2.0000      -0.566523       -15.4159
  42   2.0000      -0.561261       -15.2727
  43   2.0000      -0.547110       -14.8876
  44   2.0000      -0.541605       -14.7378
  45   2.0000      -0.521910       -14.2019
  46   2.0000      -0.512589       -13.9483
  47   2.0000      -0.509070       -13.8525
  48   2.0000      -0.504819       -13.7368
  49   2.0000      -0.500865       -13.6292
  50   2.0000      -0.486265       -13.2319
  51   2.0000      -0.477047       -12.9811
  52   2.0000      -0.472256       -12.8508
  53   2.0000      -0.464140       -12.6299
  54   2.0000      -0.461335       -12.5536
  55   2.0000      -0.451227       -12.2785
  56   2.0000      -0.448045       -12.1919
  57   2.0000      -0.435744       -11.8572
  58   2.0000      -0.431040       -11.7292
  59   2.0000      -0.429626       -11.6907
  60   2.0000      -0.417967       -11.3735
  61   2.0000      -0.411913       -11.2087
  62   2.0000      -0.407720       -11.0946
  63   2.0000      -0.345310        -9.3964
  64   2.0000      -0.329806        -8.9745
  65   2.0000      -0.327815        -8.9203
  66   2.0000      -0.293250        -7.9797
  67   0.0000       0.032562         0.8861
  68   0.0000       0.070482         1.9179
  69   0.0000       0.116722         3.1762
  70   0.0000       0.117817         3.2060
  71   0.0000       0.132930         3.6172

MULLIKEN ATOMIC CHARGES
-----------------------
   0 S :    0.119793
   1 C :   -0.097830
   2 C :   -0.114245
   3 C :    0.026678
   4 C :   -0.162073
   5 H :    0.016942
   6 C :    0.056827
   7 H :    0.026009
   8 H :    0.017230
   9 C :   -0.102692
  10 H :    0.044371
  11 H :    0.044342
  12 C :   -0.068370
  13 H :    0.039276
  14 H :    0.041806
  15 H :    0.048961
  16 S :    0.118059
  17 C :   -0.088502
  18 C :   -0.051994
  19 C :   -0.033863
  20 C :   -0.156733
  21 H :    0.018248
  22 C :    0.087072
  23 H :    0.036562
  24 H :    0.015643
  25 C :   -0.092241
  26 H :    0.049552
  27 H :    0.023322
  28 C :   -0.064925
  29 H :    0.035084
  30 H :    0.043372
  31 H :    0.032447
  32 H :    0.032804
  33 H :    0.059064
Sum of atomic charges:    0.0000000

LOEWDIN ATOMIC CHARGES
----------------------
   0 S :    0.426030
   1 C :   -0.203081
   2 C :   -0.059713
   3 C :   -0.064952
   4 C :   -0.203468
   5 H :    0.032918
   6 C :   -0.036023
   7 H :    0.026641
   8 H :    0.030676
   9 C :   -0.040834
  10 H :    0.026819
  11 H :    0.030249
  12 C :   -0.075421
  13 H :    0.027330
  14 H :    0.029242
  15 H :    0.032849
  16 S :    0.416040
  17 C :   -0.197734
  18 C :   -0.076494
  19 C :   -0.054254
  20 C :   -0.202730
  21 H :    0.029420
  22 C :   -0.027523
  23 H :    0.033781
  24 H :    0.029077
  25 C :   -0.045345
  26 H :    0.030103
  27 H :    0.022003
  28 C :   -0.073674
  29 H :    0.029483
  30 H :    0.032053
  31 H :    0.021668
  32 H :    0.020617
  33 H :    0.034249

  Mayer bond orders larger than 0.100000
B(  0-S ,  1-C ) :   1.1461 B(  0-S ,  4-C ) :   1.1576 B(  1-C ,  2-C ) :   1.5984
B(  1-C , 32-H ) :   0.9720 B(  2-C ,  3-C ) :   1.2462 B(  2-C ,  6-C ) :   1.0262
B(  3-C ,  4-C ) :   1.5859 B(  3-C ,  5-H ) :   0.9945 B(  4-C , 20-C ) :   1.0204
B(  6-C ,  7-H ) :   0.9366 B(  6-C ,  8-H ) :   0.9460 B(  6-C ,  9-C ) :   1.0479
B(  9-C , 10-H ) :   0.9610 B(  9-C , 11-H ) :   0.9581 B(  9-C , 12-C ) :   1.0726
B( 12-C , 13-H ) :   0.9756 B( 12-C , 14-H ) :   0.9762 B( 12-C , 15-H ) :   0.9751
B( 16-S , 17-C ) :   1.1600 B( 16-S , 20-C ) :   1.1527 B( 17-C , 18-C ) :   1.6060
B( 17-C , 33-H ) :   0.9658 B( 18-C , 19-C ) :   1.2545 B( 18-C , 21-H ) :   0.9866
B( 19-C , 20-C ) :   1.5662 B( 19-C , 22-C ) :   1.0406 B( 22-C , 23-H ) :   0.9344
B( 22-C , 24-H ) :   0.9361 B( 22-C , 25-C ) :   1.0546 B( 25-C , 26-H ) :   0.9603
B( 25-C , 27-H ) :   0.9574 B( 25-C , 28-C ) :   1.0769 B( 28-C , 29-H ) :   0.9757
B( 28-C , 30-H ) :   0.9742 B( 28-C , 31-H ) :   0.9749

Dispersion correction           -0.014450785
FINAL SINGLE POINT ENERGY     -1339.894016420362

DIPOLE MOMENT
-------------
                                X             Y             Z
Electronic contribution:    -25.31364      -4.96743      -5.19427
Nuclear contribution   :     25.84665       5.18257       5.59723
                        -----------------------------------------
Total Dipole Moment    :      0.53301       0.21514       0.40296
                        -----------------------------------------
Magnitude (a.u.)       :      0.70197
Magnitude (Debye)      :      1.78427

Rotational constants in cm-1:     0.019544     0.007954     0.006954
Rotational constants in MHz :   585.901195   238.467918   208.471016

                             ****ORCA TERMINATED NORMALLY****
TOTAL RUN TIME: 0 days 0 hours 0 minutes 20 seconds 578 msec
