                         Program Version 4.2.1 -  RELEASE  -
|  1> ! wB97X-D3 SP def2-SVP
|  2> %pal
|  3> nprocs 24
|  4> end
|  5>
|  6> * xyz 0 1
|  7> S 	 -51.1852 	 11.465 	 -20.9535
|  8> C 	 -52.434 	 11.1271 	 -19.7322
|  9> C 	 -52.1484 	 11.774 	 -18.5702
| 10> C 	 -50.9787 	 12.5946 	 -18.732
| 11> C 	 -50.2398 	 12.4055 	 -19.8643
| 12> H 	 -50.6109 	 13.285 	 -18.0404
| 13> C 	 -52.9893 	 11.5715 	 -17.3488
| 14> H 	 -52.9354 	 10.5085 	 -17.0026
| 15> H 	 -54.1048 	 11.7089 	 -17.5833
| 16> C 	 -52.6093 	 12.4032 	 -16.1474
| 17> H 	 -51.5052 	 12.3108 	 -16.1534
| 18> H 	 -52.8211 	 13.5008 	 -16.3545
| 19> C 	 -53.3107 	 12.0037 	 -14.7701
| 20> H 	 -52.995 	 11.0492 	 -14.3218
| 21> H 	 -53.0466 	 12.698 	 -13.9355
| 22> H 	 -54.3122 	 12.0316 	 -14.8877
| 23> S 	 -48.5896 	 13.5641 	 -21.8113
| 24> C 	 -47.0866 	 14.2216 	 -21.3573
| 25> C 	 -46.7592 	 13.9678 	 -20.0281
| 26> C 	 -47.8166 	 13.2914 	 -19.3495
| 27> C 	 -48.8929 	 12.9077 	 -20.1532
| 28> H 	 -45.8522 	 14.3979 	 -19.6779
| 29> C 	 -47.6509 	 13.0896 	 -17.8956
| 30> H 	 -46.8099 	 12.3975 	 -17.6721
| 31> H 	 -48.6418 	 12.7187 	 -17.554
| 32> C 	 -47.4864 	 14.3837 	 -17.0835
| 33> H 	 -48.2149 	 15.1356 	 -17.3437
| 34> H 	 -46.5174 	 14.944 	 -17.3424
| 35> C 	 -47.3478 	 14.1112 	 -15.5792
| 36> H 	 -46.443 	 13.5453 	 -15.292
| 37> H 	 -48.1831 	 13.5904 	 -15.1429
| 38> H 	 -47.3318 	 15.1221 	 -15.1219
| 39> H 	 -53.1829 	 10.3722 	 -19.7618
| 40> H 	 -46.3769 	 14.7713 	 -21.9756
| 41> *
| 42>
| 43>                          ****END OF INPUT****

CARTESIAN COORDINATES (ANGSTROEM)
---------------------------------
  S    -51.185200   11.465000  -20.953500
  C    -52.434000   11.127100  -19.732200
  C    -52.148400   11.774000  -18.570200
  C    -50.978700   12.594600  -18.732000
  C    -50.239800   12.405500  -19.864300
  H    -50.610900   13.285000  -18.040400
  C    -52.989300   11.571500  -17.348800
  H    -52.935400   10.508500  -17.002600
  H    -54.104800   11.708900  -17.583300
  C    -52.609300   12.403200  -16.147400
  H    -51.505200   12.310800  -16.153400
  H    -52.821100   13.500800  -16.354500
  C    -53.310700   12.003700  -14.770100
  H    -52.995000   11.049200  -14.321800
  H    -53.046600   12.698000  -13.935500
  H    -54.312200   12.031600  -14.887700
  S    -48.589600   13.564100  -21.811300
  C    -47.086600   14.221600  -21.357300
  C    -46.759200   13.967800  -20.028100
  C    -47.816600   13.291400  -19.349500
  C    -48.892900   12.907700  -20.153200
  H    -45.852200   14.397900  -19.677900
  C    -47.650900   13.089600  -17.895600
  H    -46.809900   12.397500  -17.672100
  H    -48.641800   12.718700  -17.554000
  C    -47.486400   14.383700  -17.083500
  H    -48.214900   15.135600  -17.343700
  H    -46.517400   14.944000  -17.342400
  C    -47.347800   14.111200  -15.579200
  H    -46.443000   13.545300  -15.292000
  H    -48.183100   13.590400  -15.142900
  H    -47.331800   15.122100  -15.121900
  H    -53.182900   10.372200  -19.761800
  H    -46.376900   14.771300  -21.975600

 Total Charge           Charge          ....    0
 Multiplicity           Mult            ....    1
 Number of Electrons    NEL             ....  134
 Basis Dimension        Dim             ....  322

ORBITAL ENERGIES
----------------

  NO   OCC          E(Eh)            E(eV)
   0   2.0000     -88.966895     -2420.9123
   1   2.0000     -88.963473     -2420.8192
   2   2.0000     -10.335275      -281.2371
   3   2.0000     -10.331100      -281.1235
   4   2.0000     -10.319133      -280.7979
   5   2.0000     -10.309661      -280.5401
   6   2.0000     -10.307074      -280.4697
   7   2.0000     -10.300686      -280.2959
   8   2.0000     -10.300018      -280.2777
   9   2.0000     -10.297896      -280.2200
  10   2.0000     -10.293164      -280.0912
  11   2.0000     -10.292490      -280.0729
  12   2.0000     -10.291130      -280.0359
  13   2.0000     -10.289082      -279.9802
  14   2.0000     -10.282590      -279.8035
  15   2.0000     -10.282054      -279.7889
  16   2.0000      -8.081684      -219.9138
  17   2.0000      -8.078450      -219.8258
  18   2.0000      -6.040192      -164.3620
  19   2.0000      -6.037043      -164.2763
  20   2.0000      -6.036090      -164.2503
  21   2.0000      -6.032933      -164.1644
  22   2.0000      -6.032530      -164.1535
  23   2.0000      -6.029072      -164.0594
  24   2.0000      -1.009356       -27.4660
  25   2.0000      -0.988179       -26.8897
  26   2.0000      -0.914437       -24.8831
  27   2.0000      -0.913016       -24.8444
  28   2.0000      -0.871642       -23.7186
  29   2.0000      -0.854536       -23.2531
  30   2.0000      -0.840753       -22.8781
  31   2.0000      -0.819003       -22.2862
  32   2.0000      -0.786399       -21.3990
  33   2.0000      -0.775802       -21.1107
  34   2.0000      -0.716093       -19.4859
  35   2.0000      -0.698061       -18.9952
  36   2.0000      -0.689521       -18.7628
  37   2.0000      -0.658626       -17.9221
  38   2.0000      -0.644451       -17.5364
  39   2.0000      -0.624638       -16.9973
  40   2.0000      -0.596791       -16.2395
  41   2.0000      -0.575407       -15.6576
  42   2.0000      -0.566714       -15.4211
  43   2.0000      -0.566440       -15.4136
  44   2.0000      -0.527595       -14.3566
  45   2.0000      -0.526282       -14.3209
  46   2.0000      -0.516277       -14.0486
  47   2.0000      -0.512286       -13.9400
  48   2.0000      -0.506690       -13.7877
  49   2.0000      -0.503212       -13.6931
  50   2.0000      -0.491669       -13.3790
  51   2.0000      -0.489813       -13.3285
  52   2.0000      -0.473889       -12.8952
  53   2.0000      -0.469904       -12.7867
  54   2.0000      -0.458861       -12.4862
  55   2.0000      -0.454275       -12.3614
  56   2.0000      -0.443247       -12.0614
  57   2.0000      -0.439600       -11.9621
  58   2.0000      -0.426153       -11.5962
  59   2.0000      -0.424608       -11.5542
  60   2.0000      -0.422782       -11.5045
  61   2.0000      -0.413118       -11.2415
  62   2.0000      -0.409223       -11.1355
  63   2.0000      -0.354846        -9.6559
  64   2.0000      -0.332165        -9.0387
  65   2.0000      -0.327952        -8.9240
  66   2.0000      -0.288556        -7.8520
  67   0.0000       0.023737         0.6459
  68   0.0000       0.072453         1.9715
  69   0.0000       0.108132         2.9424
  70   0.0000       0.116140         3.1603
  71   0.0000       0.124189         3.3794

MULLIKEN ATOMIC CHARGES
-----------------------
   0 S :    0.099054
   1 C :   -0.097014
   2 C :   -0.067746
   3 C :    0.002483
   4 C :   -0.116548
   5 H :   -0.011267
   6 C :    0.018350
   7 H :    0.044432
   8 H :    0.045596
   9 C :   -0.129475
  10 H :    0.035698
  11 H :    0.044559
  12 C :   -0.017114
  13 H :    0.034124
  14 H :    0.035911
  15 H :    0.017832
  16 S :    0.097937
  17 C :   -0.082680
  18 C :   -0.034226
  19 C :   -0.054337
  20 C :   -0.098558
  21 H :    0.010061
  22 C :    0.074874
  23 H :    0.047272
  24 H :    0.009307
  25 C :   -0.129128
  26 H :    0.032823
  27 H :    0.029536
  28 C :   -0.038893
  29 H :    0.039465
  30 H :    0.025981
  31 H :    0.038059
  32 H :    0.034447
  33 H :    0.059183
Sum of atomic charges:    0.0000000

LOEWDIN ATOMIC CHARGES
----------------------
   0 S :    0.399773
   1 C :   -0.179338
   2 C :   -0.062654
   3 C :   -0.070940
   4 C :   -0.192567
   5 H :    0.016516
   6 C :   -0.046368
   7 H :    0.039059
   8 H :    0.038151
   9 C :   -0.048952
  10 H :    0.023866
  11 H :    0.030198
  12 C :   -0.059811
  13 H :    0.028520
  14 H :    0.034964
  15 H :    0.009197
  16 S :    0.402999
  17 C :   -0.189100
  18 C :   -0.073441
  19 C :   -0.050885
  20 C :   -0.184774
  21 H :    0.028106
  22 C :   -0.038167
  23 H :    0.039839
  24 H :    0.029481
  25 C :   -0.045926
  26 H :    0.022865
  27 H :    0.026534
  28 C :   -0.067119
  29 H :    0.029044
  30 H :    0.018603
  31 H :    0.033073
  32 H :    0.025129
  33 H :    0.034122

  Mayer bond orders larger than 0.100000
B(  0-S ,  1-C ) :   1.1223 B(  0-S ,  4-C ) :   1.1485 B(  1-C ,  2-C ) :   1.6440
B(  1-C , 32-H ) :   0.9728 B(  2-C ,  3-C ) :   1.2266 B(  2-C ,  6-C ) :   1.0192
B(  3-C ,  4-C ) :   1.5794 B(  3-C ,  5-H ) :   0.9932 B(  4-C , 20-C ) :   1.0378
B(  6-C ,  7-H ) :   0.9378 B(  6-C ,  8-H ) :   0.9365 B(  6-C ,  9-C ) :   1.0778
B(  9-C , 10-H ) :   0.9512 B(  9-C , 11-H ) :   0.9540 B(  9-C , 12-C ) :   1.0699
B( 12-C , 13-H ) :   0.9760 B( 12-C , 14-H ) :   0.9747 B( 12-C , 15-H ) :   0.9772
B( 16-S , 17-C ) :   1.1830 B( 16-S , 20-C ) :   1.1098 B( 17-C , 18-C ) :   1.6054
B( 17-C , 33-H ) :   0.9608 B( 18-C , 19-C ) :   1.2256 B( 18-C , 21-H ) :   0.9992
B( 19-C , 20-C ) :   1.5923 B( 19-C , 22-C ) :   1.0593 B( 22-C , 23-H ) :   0.9308
B( 22-C , 24-H ) :   0.9308 B( 22-C , 25-C ) :   1.0595 B( 25-C , 26-H ) :   0.9567
B( 25-C , 27-H ) :   0.9482 B( 25-C , 28-C ) :   1.0826 B( 28-C , 29-H ) :   0.9733
B( 28-C , 30-H ) :   0.9751 B( 28-C , 31-H ) :   0.9729

Dispersion correction           -0.013789623
FINAL SINGLE POINT ENERGY     -1339.866060903795

DIPOLE MOMENT
-------------
                                X             Y             Z
Electronic contribution:      2.34513      -3.72956     -34.08265
Nuclear contribution   :     -2.20743       3.92979      34.88940
                        -----------------------------------------
Total Dipole Moment    :      0.13770       0.20023       0.80675
                        -----------------------------------------
Magnitude (a.u.)       :      0.84256
Magnitude (Debye)      :      2.14161

Rotational constants in cm-1:     0.016264     0.009694     0.006281
Rotational constants in MHz :   487.569245   290.608566   188.298920

                             ****ORCA TERMINATED NORMALLY****
TOTAL RUN TIME: 0 days 0 hours 0 minutes 21 seconds 512 msec
