                         Program Version 4.2.1 -  RELEASE  -
|  1> ! wB97X-D3 SP def2-SVP
|  2> %pal
|  3> nprocs 24
|  4> end
|  5>
|  6> * xyz 0 1
|  7> S 	 -134.598 	 8.98164 	 -7.09732
|  8> C 	 -133.928 	 9.99791 	 -5.89117
|  9> C 	 -133.039 	 10.9557 	 -6.45343
| 10> C 	 -133.021 	 10.9316 	 -7.89209
| 11> C 	 -133.815 	 9.88798 	 -8.40784
| 12> H 	 -132.537 	 11.6201 	 -8.52056
| 13> C 	 -132.15 	 11.871 	 -5.67036
| 14> H 	 -132.791 	 12.176 	 -4.86623
| 15> H 	 -131.824 	 12.773 	 -6.23829
| 16> C 	 -131.06 	 11.0256 	 -4.84678
| 17> H 	 -130.682 	 11.6671 	 -4.09016
| 18> H 	 -131.476 	 10.1048 	 -4.42096
| 19> C 	 -129.941 	 10.5134 	 -5.70415
| 20> H 	 -129.477 	 11.3676 	 -6.15884
| 21> H 	 -129.164 	 10.0059 	 -5.11904
| 22> H 	 -130.309 	 9.70547 	 -6.33096
| 23> S 	 -135.613 	 8.83637 	 -10.2136
| 24> C 	 -135.246 	 8.80192 	 -11.9505
| 25> C 	 -134.065 	 9.37148 	 -12.2173
| 26> C 	 -133.311 	 9.83692 	 -11.017
| 27> C 	 -134.021 	 9.55976 	 -9.84858
| 28> H 	 -133.852 	 9.56646 	 -13.3188
| 29> C 	 -131.997 	 10.5786 	 -11.1246
| 30> H 	 -131.4 	 10.1802 	 -12.0348
| 31> H 	 -131.272 	 10.2979 	 -10.4236
| 32> C 	 -132.042 	 12.0734 	 -11.3612
| 33> H 	 -132.643 	 12.6288 	 -10.5702
| 34> H 	 -132.508 	 12.3991 	 -12.2946
| 35> C 	 -130.613 	 12.581 	 -11.2371
| 36> H 	 -130.107 	 12.2744 	 -10.3056
| 37> H 	 -130.637 	 13.7143 	 -11.3514
| 38> H 	 -129.935 	 12.1666 	 -12.0203
| 39> H 	 -134.16 	 9.76957 	 -4.91695
| 40> H 	 -135.85 	 8.46579 	 -12.7218
| 41> *
| 42>
| 43>                          ****END OF INPUT****

CARTESIAN COORDINATES (ANGSTROEM)
---------------------------------
  S    -134.598000    8.981640   -7.097320
  C    -133.928000    9.997910   -5.891170
  C    -133.039000   10.955700   -6.453430
  C    -133.021000   10.931600   -7.892090
  C    -133.815000    9.887980   -8.407840
  H    -132.537000   11.620100   -8.520560
  C    -132.150000   11.871000   -5.670360
  H    -132.791000   12.176000   -4.866230
  H    -131.824000   12.773000   -6.238290
  C    -131.060000   11.025600   -4.846780
  H    -130.682000   11.667100   -4.090160
  H    -131.476000   10.104800   -4.420960
  C    -129.941000   10.513400   -5.704150
  H    -129.477000   11.367600   -6.158840
  H    -129.164000   10.005900   -5.119040
  H    -130.309000    9.705470   -6.330960
  S    -135.613000    8.836370  -10.213600
  C    -135.246000    8.801920  -11.950500
  C    -134.065000    9.371480  -12.217300
  C    -133.311000    9.836920  -11.017000
  C    -134.021000    9.559760   -9.848580
  H    -133.852000    9.566460  -13.318800
  C    -131.997000   10.578600  -11.124600
  H    -131.400000   10.180200  -12.034800
  H    -131.272000   10.297900  -10.423600
  C    -132.042000   12.073400  -11.361200
  H    -132.643000   12.628800  -10.570200
  H    -132.508000   12.399100  -12.294600
  C    -130.613000   12.581000  -11.237100
  H    -130.107000   12.274400  -10.305600
  H    -130.637000   13.714300  -11.351400
  H    -129.935000   12.166600  -12.020300
  H    -134.160000    9.769570   -4.916950
  H    -135.850000    8.465790  -12.721800

 Total Charge           Charge          ....    0
 Multiplicity           Mult            ....    1
 Number of Electrons    NEL             ....  134
 Basis Dimension        Dim             ....  322

ORBITAL ENERGIES
----------------

  NO   OCC          E(Eh)            E(eV)
   0   2.0000     -88.969105     -2420.9724
   1   2.0000     -88.961300     -2420.7600
   2   2.0000     -10.336777      -281.2780
   3   2.0000     -10.335787      -281.2511
   4   2.0000     -10.312351      -280.6133
   5   2.0000     -10.311141      -280.5804
   6   2.0000     -10.309983      -280.5489
   7   2.0000     -10.307229      -280.4740
   8   2.0000     -10.299429      -280.2617
   9   2.0000     -10.295465      -280.1538
  10   2.0000     -10.295241      -280.1477
  11   2.0000     -10.294669      -280.1322
  12   2.0000     -10.294061      -280.1156
  13   2.0000     -10.288596      -279.9669
  14   2.0000     -10.286055      -279.8978
  15   2.0000     -10.269667      -279.4519
  16   2.0000      -8.083785      -219.9710
  17   2.0000      -8.075408      -219.7430
  18   2.0000      -6.042293      -164.4191
  19   2.0000      -6.038132      -164.3059
  20   2.0000      -6.034745      -164.2138
  21   2.0000      -6.034189      -164.1986
  22   2.0000      -6.030160      -164.0890
  23   2.0000      -6.025756      -163.9692
  24   2.0000      -0.999150       -27.1883
  25   2.0000      -0.978009       -26.6130
  26   2.0000      -0.914782       -24.8925
  27   2.0000      -0.909569       -24.7506
  28   2.0000      -0.868062       -23.6212
  29   2.0000      -0.854657       -23.2564
  30   2.0000      -0.842706       -22.9312
  31   2.0000      -0.819125       -22.2895
  32   2.0000      -0.777218       -21.1492
  33   2.0000      -0.767081       -20.8733
  34   2.0000      -0.704693       -19.1757
  35   2.0000      -0.700153       -19.0521
  36   2.0000      -0.694057       -18.8863
  37   2.0000      -0.662753       -18.0344
  38   2.0000      -0.644303       -17.5324
  39   2.0000      -0.616394       -16.7729
  40   2.0000      -0.599323       -16.3084
  41   2.0000      -0.577990       -15.7279
  42   2.0000      -0.560598       -15.2546
  43   2.0000      -0.544091       -14.8055
  44   2.0000      -0.542455       -14.7610
  45   2.0000      -0.531273       -14.4567
  46   2.0000      -0.524595       -14.2750
  47   2.0000      -0.513818       -13.9817
  48   2.0000      -0.501842       -13.6558
  49   2.0000      -0.497023       -13.5247
  50   2.0000      -0.489941       -13.3320
  51   2.0000      -0.481372       -13.0988
  52   2.0000      -0.467397       -12.7185
  53   2.0000      -0.464713       -12.6455
  54   2.0000      -0.458572       -12.4784
  55   2.0000      -0.449086       -12.2202
  56   2.0000      -0.445178       -12.1139
  57   2.0000      -0.436523       -11.8784
  58   2.0000      -0.432469       -11.7681
  59   2.0000      -0.425952       -11.5908
  60   2.0000      -0.416342       -11.3292
  61   2.0000      -0.414002       -11.2656
  62   2.0000      -0.407235       -11.0814
  63   2.0000      -0.359182        -9.7738
  64   2.0000      -0.330130        -8.9833
  65   2.0000      -0.324119        -8.8197
  66   2.0000      -0.284350        -7.7376
  67   0.0000       0.021476         0.5844
  68   0.0000       0.081267         2.2114
  69   0.0000       0.099559         2.7091
  70   0.0000       0.117905         3.2083
  71   0.0000       0.126425         3.4402

MULLIKEN ATOMIC CHARGES
-----------------------
   0 S :    0.114375
   1 C :   -0.103041
   2 C :   -0.087538
   3 C :    0.038456
   4 C :   -0.123417
   5 H :   -0.026472
   6 C :    0.067588
   7 H :    0.024071
   8 H :    0.041568
   9 C :   -0.075615
  10 H :    0.024770
  11 H :    0.031484
  12 C :   -0.042276
  13 H :    0.024126
  14 H :    0.025709
  15 H :    0.043151
  16 S :    0.071301
  17 C :   -0.052593
  18 C :   -0.049339
  19 C :   -0.030096
  20 C :   -0.105060
  21 H :    0.044818
  22 C :    0.008401
  23 H :    0.024210
  24 H :    0.015895
  25 C :   -0.059928
  26 H :    0.038214
  27 H :    0.033215
  28 C :   -0.082817
  29 H :    0.036017
  30 H :    0.047706
  31 H :    0.031746
  32 H :    0.022771
  33 H :    0.028600
Sum of atomic charges:    0.0000000

LOEWDIN ATOMIC CHARGES
----------------------
   0 S :    0.419697
   1 C :   -0.201415
   2 C :   -0.053934
   3 C :   -0.057496
   4 C :   -0.184848
   5 H :    0.021876
   6 C :   -0.035824
   7 H :    0.033279
   8 H :    0.035789
   9 C :   -0.030078
  10 H :    0.015844
  11 H :    0.027423
  12 C :   -0.068049
  13 H :    0.019628
  14 H :    0.026091
  15 H :    0.028995
  16 S :    0.363314
  17 C :   -0.167990
  18 C :   -0.075387
  19 C :   -0.057765
  20 C :   -0.172194
  21 H :    0.045394
  22 C :   -0.045868
  23 H :    0.043099
  24 H :    0.023621
  25 C :   -0.044831
  26 H :    0.026285
  27 H :    0.026845
  28 C :   -0.073114
  29 H :    0.025026
  30 H :    0.033477
  31 H :    0.025575
  32 H :    0.008045
  33 H :    0.019492

  Mayer bond orders larger than 0.100000
B(  0-S ,  1-C ) :   1.1593 B(  0-S ,  4-C ) :   1.1687 B(  1-C ,  2-C ) :   1.5402
B(  1-C ,  4-C ) :   0.1053 B(  1-C , 32-H ) :   0.9855 B(  2-C ,  3-C ) :   1.2669
B(  2-C ,  6-C ) :   1.0305 B(  3-C ,  4-C ) :   1.5286 B(  3-C ,  5-H ) :   1.0034
B(  4-C , 20-C ) :   1.0498 B(  6-C ,  7-H ) :   0.9277 B(  6-C ,  8-H ) :   0.9511
B(  6-C ,  9-C ) :   1.0544 B(  9-C , 10-H ) :   0.9592 B(  9-C , 11-H ) :   0.9592
B(  9-C , 12-C ) :   1.0851 B( 12-C , 13-H ) :   0.9754 B( 12-C , 14-H ) :   0.9701
B( 12-C , 15-H ) :   0.9753 B( 16-S , 17-C ) :   1.1113 B( 16-S , 20-C ) :   1.1137
B( 17-C , 18-C ) :   1.7035 B( 17-C , 33-H ) :   0.9691 B( 18-C , 19-C ) :   1.1796
B( 18-C , 21-H ) :   0.9731 B( 19-C , 20-C ) :   1.6460 B( 19-C , 22-C ) :   1.0388
B( 22-C , 23-H ) :   0.9278 B( 22-C , 24-H ) :   0.9442 B( 22-C , 25-C ) :   1.0565
B( 25-C , 26-H ) :   0.9530 B( 25-C , 27-H ) :   0.9497 B( 25-C , 28-C ) :   1.0732
B( 28-C , 29-H ) :   0.9735 B( 28-C , 30-H ) :   0.9724 B( 28-C , 31-H ) :   0.9721

Dispersion correction           -0.014456192
FINAL SINGLE POINT ENERGY     -1339.862491823824

DIPOLE MOMENT
-------------
                                X             Y             Z
Electronic contribution:    -25.97118     -16.03909      -2.11072
Nuclear contribution   :     26.51433      16.49531       2.05698
                        -----------------------------------------
Total Dipole Moment    :      0.54316       0.45622      -0.05374
                        -----------------------------------------
Magnitude (a.u.)       :      0.71137
Magnitude (Debye)      :      1.80816

Rotational constants in cm-1:     0.017611     0.009787     0.006734
Rotational constants in MHz :   527.963848   293.417864   201.875645

                             ****ORCA TERMINATED NORMALLY****
TOTAL RUN TIME: 0 days 0 hours 0 minutes 22 seconds 9 msec
