                         Program Version 4.2.1 -  RELEASE  -
|  1> ! wB97X-D3 SP def2-SVP
|  2> %pal
|  3> nprocs 24
|  4> end
|  5>
|  6> * xyz 0 1
|  7> S 	 -20.1812 	 -32.0489 	 -98.5375
|  8> C 	 -18.7963 	 -32.3906 	 -99.6207
|  9> C 	 -19.1557 	 -32.508 	 -100.942
| 10> C 	 -20.591 	 -32.2512 	 -101.089
| 11> C 	 -21.2521 	 -32.0505 	 -99.9119
| 12> H 	 -21.1984 	 -32.3089 	 -102.02
| 13> C 	 -18.2651 	 -32.5868 	 -102.112
| 14> H 	 -18.6286 	 -33.4408 	 -102.767
| 15> H 	 -17.2317 	 -32.7267 	 -101.864
| 16> C 	 -18.2057 	 -31.2391 	 -102.931
| 17> H 	 -17.6308 	 -31.4088 	 -103.776
| 18> H 	 -19.1779 	 -30.9381 	 -103.29
| 19> C 	 -17.736 	 -29.9127 	 -102.268
| 20> H 	 -17.5428 	 -29.2382 	 -103.026
| 21> H 	 -18.4717 	 -29.5077 	 -101.604
| 22> H 	 -16.801 	 -30.0442 	 -101.749
| 23> S 	 -23.3353 	 -33.4944 	 -98.8919
| 24> C 	 -24.8977 	 -32.922 	 -99.2909
| 25> C 	 -24.9891 	 -31.8984 	 -100.182
| 26> C 	 -23.6669 	 -31.3195 	 -100.401
| 27> C 	 -22.7328 	 -32.06 	 -99.7634
| 28> H 	 -25.9078 	 -31.551 	 -100.497
| 29> C 	 -23.3814 	 -30.1615 	 -101.293
| 30> H 	 -23.5759 	 -30.4708 	 -102.279
| 31> H 	 -22.2767 	 -30.0013 	 -101.169
| 32> C 	 -24.066 	 -28.7781 	 -100.977
| 33> H 	 -25.1484 	 -28.7677 	 -101.3
| 34> H 	 -23.6979 	 -27.9949 	 -101.62
| 35> C 	 -24.1513 	 -28.5217 	 -99.4479
| 36> H 	 -23.2902 	 -28.6862 	 -98.8013
| 37> H 	 -24.9128 	 -29.2163 	 -99.0112
| 38> H 	 -24.5205 	 -27.5093 	 -99.1475
| 39> H 	 -17.7491 	 -32.2133 	 -99.1899
| 40> H 	 -25.7977 	 -33.4195 	 -98.82
| 41> *
| 42>
| 43>                          ****END OF INPUT****

CARTESIAN COORDINATES (ANGSTROEM)
---------------------------------
  S    -20.181200  -32.048900  -98.537500
  C    -18.796300  -32.390600  -99.620700
  C    -19.155700  -32.508000  -100.942000
  C    -20.591000  -32.251200  -101.089000
  C    -21.252100  -32.050500  -99.911900
  H    -21.198400  -32.308900  -102.020000
  C    -18.265100  -32.586800  -102.112000
  H    -18.628600  -33.440800  -102.767000
  H    -17.231700  -32.726700  -101.864000
  C    -18.205700  -31.239100  -102.931000
  H    -17.630800  -31.408800  -103.776000
  H    -19.177900  -30.938100  -103.290000
  C    -17.736000  -29.912700  -102.268000
  H    -17.542800  -29.238200  -103.026000
  H    -18.471700  -29.507700  -101.604000
  H    -16.801000  -30.044200  -101.749000
  S    -23.335300  -33.494400  -98.891900
  C    -24.897700  -32.922000  -99.290900
  C    -24.989100  -31.898400  -100.182000
  C    -23.666900  -31.319500  -100.401000
  C    -22.732800  -32.060000  -99.763400
  H    -25.907800  -31.551000  -100.497000
  C    -23.381400  -30.161500  -101.293000
  H    -23.575900  -30.470800  -102.279000
  H    -22.276700  -30.001300  -101.169000
  C    -24.066000  -28.778100  -100.977000
  H    -25.148400  -28.767700  -101.300000
  H    -23.697900  -27.994900  -101.620000
  C    -24.151300  -28.521700  -99.447900
  H    -23.290200  -28.686200  -98.801300
  H    -24.912800  -29.216300  -99.011200
  H    -24.520500  -27.509300  -99.147500
  H    -17.749100  -32.213300  -99.189900
  H    -25.797700  -33.419500  -98.820000

 Total Charge           Charge          ....    0
 Multiplicity           Mult            ....    1
 Number of Electrons    NEL             ....  134
 Basis Dimension        Dim             ....  322

ORBITAL ENERGIES
----------------

  NO   OCC          E(Eh)            E(eV)
   0   2.0000     -88.963309     -2420.8147
   1   2.0000     -88.962013     -2420.7794
   2   2.0000     -10.325585      -280.9734
   3   2.0000     -10.321927      -280.8739
   4   2.0000     -10.321129      -280.8522
   5   2.0000     -10.315538      -280.7001
   6   2.0000     -10.304405      -280.3971
   7   2.0000     -10.301518      -280.3186
   8   2.0000     -10.297273      -280.2030
   9   2.0000     -10.296072      -280.1704
  10   2.0000     -10.296023      -280.1690
  11   2.0000     -10.292156      -280.0638
  12   2.0000     -10.287935      -279.9489
  13   2.0000     -10.282443      -279.7995
  14   2.0000     -10.280140      -279.7368
  15   2.0000     -10.269180      -279.4386
  16   2.0000      -8.078836      -219.8363
  17   2.0000      -8.076645      -219.7767
  18   2.0000      -6.037174      -164.2799
  19   2.0000      -6.035231      -164.2270
  20   2.0000      -6.033638      -164.1836
  21   2.0000      -6.031265      -164.1191
  22   2.0000      -6.029312      -164.0659
  23   2.0000      -6.027238      -164.0095
  24   2.0000      -1.006587       -27.3906
  25   2.0000      -0.982428       -26.7332
  26   2.0000      -0.910004       -24.7625
  27   2.0000      -0.905845       -24.6493
  28   2.0000      -0.864857       -23.5340
  29   2.0000      -0.849030       -23.1033
  30   2.0000      -0.843238       -22.9457
  31   2.0000      -0.812344       -22.1050
  32   2.0000      -0.786875       -21.4120
  33   2.0000      -0.773961       -21.0606
  34   2.0000      -0.709786       -19.3143
  35   2.0000      -0.701387       -19.0857
  36   2.0000      -0.683810       -18.6074
  37   2.0000      -0.660744       -17.9797
  38   2.0000      -0.637319       -17.3423
  39   2.0000      -0.617826       -16.8119
  40   2.0000      -0.591135       -16.0856
  41   2.0000      -0.565579       -15.3902
  42   2.0000      -0.555846       -15.1253
  43   2.0000      -0.548755       -14.9324
  44   2.0000      -0.543355       -14.7855
  45   2.0000      -0.534528       -14.5452
  46   2.0000      -0.513885       -13.9835
  47   2.0000      -0.507323       -13.8050
  48   2.0000      -0.501044       -13.6341
  49   2.0000      -0.493048       -13.4165
  50   2.0000      -0.483391       -13.1537
  51   2.0000      -0.473166       -12.8755
  52   2.0000      -0.464639       -12.6435
  53   2.0000      -0.461714       -12.5639
  54   2.0000      -0.458436       -12.4747
  55   2.0000      -0.450620       -12.2620
  56   2.0000      -0.447122       -12.1668
  57   2.0000      -0.440538       -11.9876
  58   2.0000      -0.434576       -11.8254
  59   2.0000      -0.430743       -11.7211
  60   2.0000      -0.424075       -11.5397
  61   2.0000      -0.413017       -11.2388
  62   2.0000      -0.405076       -11.0227
  63   2.0000      -0.340634        -9.2691
  64   2.0000      -0.333239        -9.0679
  65   2.0000      -0.324848        -8.8396
  66   2.0000      -0.300179        -8.1683
  67   0.0000       0.041577         1.1314
  68   0.0000       0.070579         1.9205
  69   0.0000       0.108814         2.9610
  70   0.0000       0.115329         3.1383
  71   0.0000       0.125822         3.4238

MULLIKEN ATOMIC CHARGES
-----------------------
   0 S :    0.090493
   1 C :   -0.157483
   2 C :   -0.062402
   3 C :    0.019380
   4 C :   -0.179381
   5 H :    0.030938
   6 C :    0.068480
   7 H :    0.049436
   8 H :    0.017135
   9 C :   -0.080150
  10 H :    0.014395
  11 H :    0.016899
  12 C :   -0.017578
  13 H :    0.017814
  14 H :    0.041751
  15 H :    0.016706
  16 S :    0.113691
  17 C :   -0.104987
  18 C :    0.009960
  19 C :   -0.069316
  20 C :   -0.147912
  21 H :   -0.013911
  22 C :    0.078261
  23 H :    0.029565
  24 H :    0.042979
  25 C :   -0.068265
  26 H :    0.025973
  27 H :    0.032617
  28 C :   -0.070002
  29 H :    0.035290
  30 H :    0.034961
  31 H :    0.034372
  32 H :    0.080465
  33 H :    0.069824
Sum of atomic charges:    0.0000000

LOEWDIN ATOMIC CHARGES
----------------------
   0 S :    0.377142
   1 C :   -0.193389
   2 C :   -0.065886
   3 C :   -0.064831
   4 C :   -0.199961
   5 H :    0.038052
   6 C :   -0.031900
   7 H :    0.044953
   8 H :    0.026712
   9 C :   -0.030392
  10 H :    0.013256
  11 H :    0.019215
  12 C :   -0.052104
  13 H :    0.020023
  14 H :    0.025987
  15 H :    0.019602
  16 S :    0.398698
  17 C :   -0.188328
  18 C :   -0.063885
  19 C :   -0.052747
  20 C :   -0.185265
  21 H :    0.018093
  22 C :   -0.030464
  23 H :    0.026344
  24 H :    0.039877
  25 C :   -0.042279
  26 H :    0.027623
  27 H :    0.023123
  28 C :   -0.078779
  29 H :    0.024170
  30 H :    0.032371
  31 H :    0.028430
  32 H :    0.041732
  33 H :    0.034809

  Mayer bond orders larger than 0.100000
B(  0-S ,  1-C ) :   1.1147 B(  0-S ,  4-C ) :   1.1449 B(  1-C ,  2-C ) :   1.6449
B(  1-C , 32-H ) :   0.9554 B(  2-C ,  3-C ) :   1.1856 B(  2-C ,  6-C ) :   1.0521
B(  3-C ,  4-C ) :   1.6225 B(  3-C ,  5-H ) :   0.9832 B(  4-C , 20-C ) :   0.9851
B(  6-C ,  7-H ) :   0.9306 B(  6-C ,  8-H ) :   0.9437 B(  6-C ,  9-C ) :   1.0612
B(  9-C , 10-H ) :   0.9605 B(  9-C , 11-H ) :   0.9565 B(  9-C , 12-C ) :   1.0744
B( 12-C , 13-H ) :   0.9711 B( 12-C , 14-H ) :   0.9775 B( 12-C , 15-H ) :   0.9751
B( 16-S , 17-C ) :   1.1479 B( 16-S , 20-C ) :   1.1259 B( 17-C , 18-C ) :   1.6586
B( 17-C , 33-H ) :   0.9557 B( 18-C , 19-C ) :   1.1612 B( 18-C , 21-H ) :   1.0061
B( 19-C , 20-C ) :   1.6867 B( 19-C , 22-C ) :   1.0458 B( 22-C , 23-H ) :   0.9335
B( 22-C , 24-H ) :   0.9296 B( 22-C , 25-C ) :   1.0597 B( 25-C , 26-H ) :   0.9530
B( 25-C , 27-H ) :   0.9638 B( 25-C , 28-C ) :   1.0645 B( 28-C , 29-H ) :   0.9803
B( 28-C , 30-H ) :   0.9652 B( 28-C , 31-H ) :   0.9755

Dispersion correction           -0.015327406
FINAL SINGLE POINT ENERGY     -1339.866451464295

DIPOLE MOMENT
-------------
                                X             Y             Z
Electronic contribution:     -4.84670     -18.58488      15.79941
Nuclear contribution   :      4.83824      18.89779     -16.44494
                        -----------------------------------------
Total Dipole Moment    :     -0.00847       0.31291      -0.64553
                        -----------------------------------------
Magnitude (a.u.)       :      0.71742
Magnitude (Debye)      :      1.82354

Rotational constants in cm-1:     0.019394     0.009126     0.007399
Rotational constants in MHz :   581.411047   273.601662   221.820922

                             ****ORCA TERMINATED NORMALLY****
TOTAL RUN TIME: 0 days 0 hours 0 minutes 22 seconds 296 msec
