                         Program Version 4.2.1 -  RELEASE  -
|  1> ! wB97X-D3 SP def2-SVP
|  2> %pal
|  3> nprocs 24
|  4> end
|  5>
|  6> * xyz 0 1
|  7> S 	 -51.5341 	 15.3914 	 24.6126
|  8> C 	 -52.8495 	 14.2446 	 24.6797
|  9> C 	 -53.4182 	 14.1973 	 25.943
| 10> C 	 -52.6996 	 14.9527 	 26.9361
| 11> C 	 -51.7021 	 15.6826 	 26.3526
| 12> H 	 -53.0267 	 14.9871 	 27.9844
| 13> C 	 -54.6329 	 13.3164 	 26.2967
| 14> H 	 -54.2168 	 12.3839 	 26.6488
| 15> H 	 -55.1861 	 13.0697 	 25.4105
| 16> C 	 -55.4934 	 13.8412 	 27.4441
| 17> H 	 -54.9225 	 14.1436 	 28.3819
| 18> H 	 -55.9973 	 14.7791 	 27.0648
| 19> C 	 -56.6924 	 12.978 	 27.8147
| 20> H 	 -56.454 	 11.9633 	 28.0601
| 21> H 	 -57.2785 	 13.4257 	 28.5833
| 22> H 	 -57.4412 	 12.8693 	 27.0244
| 23> S 	 -49.2553 	 17.0283 	 26.647
| 24> C 	 -49.0574 	 18.1645 	 27.9074
| 25> C 	 -50.2871 	 18.5477 	 28.4328
| 26> C 	 -51.377 	 17.7127 	 28.0033
| 27> C 	 -50.955 	 16.7359 	 27.0777
| 28> H 	 -50.3133 	 19.3239 	 29.174
| 29> C 	 -52.8369 	 17.992 	 28.4039
| 30> H 	 -53.5488 	 17.5864 	 27.7038
| 31> H 	 -53.0637 	 19.0455 	 28.366
| 32> C 	 -53.3289 	 17.5157 	 29.8164
| 33> H 	 -52.8241 	 18.1587 	 30.5009
| 34> H 	 -52.8839 	 16.5225 	 29.9956
| 35> C 	 -54.7916 	 17.4279 	 30.1323
| 36> H 	 -55.2449 	 18.4279 	 30.3576
| 37> H 	 -55.0863 	 16.9269 	 31.0314
| 38> H 	 -55.3343 	 16.846 	 29.4017
| 39> H 	 -53.2681 	 13.7439 	 23.7845
| 40> H 	 -48.1218 	 18.5597 	 28.2034
| 41> *
| 42>
| 43>                          ****END OF INPUT****

CARTESIAN COORDINATES (ANGSTROEM)
---------------------------------
  S    -51.534100   15.391400   24.612600
  C    -52.849500   14.244600   24.679700
  C    -53.418200   14.197300   25.943000
  C    -52.699600   14.952700   26.936100
  C    -51.702100   15.682600   26.352600
  H    -53.026700   14.987100   27.984400
  C    -54.632900   13.316400   26.296700
  H    -54.216800   12.383900   26.648800
  H    -55.186100   13.069700   25.410500
  C    -55.493400   13.841200   27.444100
  H    -54.922500   14.143600   28.381900
  H    -55.997300   14.779100   27.064800
  C    -56.692400   12.978000   27.814700
  H    -56.454000   11.963300   28.060100
  H    -57.278500   13.425700   28.583300
  H    -57.441200   12.869300   27.024400
  S    -49.255300   17.028300   26.647000
  C    -49.057400   18.164500   27.907400
  C    -50.287100   18.547700   28.432800
  C    -51.377000   17.712700   28.003300
  C    -50.955000   16.735900   27.077700
  H    -50.313300   19.323900   29.174000
  C    -52.836900   17.992000   28.403900
  H    -53.548800   17.586400   27.703800
  H    -53.063700   19.045500   28.366000
  C    -53.328900   17.515700   29.816400
  H    -52.824100   18.158700   30.500900
  H    -52.883900   16.522500   29.995600
  C    -54.791600   17.427900   30.132300
  H    -55.244900   18.427900   30.357600
  H    -55.086300   16.926900   31.031400
  H    -55.334300   16.846000   29.401700
  H    -53.268100   13.743900   23.784500
  H    -48.121800   18.559700   28.203400

 Total Charge           Charge          ....    0
 Multiplicity           Mult            ....    1
 Number of Electrons    NEL             ....  134
 Basis Dimension        Dim             ....  322

ORBITAL ENERGIES
----------------

  NO   OCC          E(Eh)            E(eV)
   0   2.0000     -88.968429     -2420.9540
   1   2.0000     -88.964733     -2420.8534
   2   2.0000     -10.333055      -281.1767
   3   2.0000     -10.332872      -281.1717
   4   2.0000     -10.314851      -280.6814
   5   2.0000     -10.314404      -280.6692
   6   2.0000     -10.312366      -280.6138
   7   2.0000     -10.302624      -280.3486
   8   2.0000     -10.298301      -280.2310
   9   2.0000     -10.295371      -280.1513
  10   2.0000     -10.295123      -280.1445
  11   2.0000     -10.292436      -280.0714
  12   2.0000     -10.291683      -280.0509
  13   2.0000     -10.284706      -279.8611
  14   2.0000     -10.279474      -279.7187
  15   2.0000     -10.276030      -279.6250
  16   2.0000      -8.082777      -219.9435
  17   2.0000      -8.079977      -219.8674
  18   2.0000      -6.041413      -164.3952
  19   2.0000      -6.038337      -164.3115
  20   2.0000      -6.037437      -164.2870
  21   2.0000      -6.034449      -164.2057
  22   2.0000      -6.033338      -164.1755
  23   2.0000      -6.030846      -164.1077
  24   2.0000      -1.003762       -27.3138
  25   2.0000      -0.983264       -26.7560
  26   2.0000      -0.911051       -24.7910
  27   2.0000      -0.905852       -24.6495
  28   2.0000      -0.867698       -23.6113
  29   2.0000      -0.854732       -23.2585
  30   2.0000      -0.847332       -23.0571
  31   2.0000      -0.815494       -22.1907
  32   2.0000      -0.787103       -21.4182
  33   2.0000      -0.774045       -21.0628
  34   2.0000      -0.709901       -19.3174
  35   2.0000      -0.698774       -19.0146
  36   2.0000      -0.689148       -18.7527
  37   2.0000      -0.659456       -17.9447
  38   2.0000      -0.635504       -17.2930
  39   2.0000      -0.626125       -17.0377
  40   2.0000      -0.599757       -16.3202
  41   2.0000      -0.568794       -15.4777
  42   2.0000      -0.566851       -15.4248
  43   2.0000      -0.560337       -15.2475
  44   2.0000      -0.527299       -14.3485
  45   2.0000      -0.520600       -14.1663
  46   2.0000      -0.519467       -14.1354
  47   2.0000      -0.510068       -13.8796
  48   2.0000      -0.505975       -13.7683
  49   2.0000      -0.496066       -13.4986
  50   2.0000      -0.494933       -13.4678
  51   2.0000      -0.485017       -13.1980
  52   2.0000      -0.475182       -12.9303
  53   2.0000      -0.471505       -12.8303
  54   2.0000      -0.466038       -12.6815
  55   2.0000      -0.454765       -12.3748
  56   2.0000      -0.448350       -12.2002
  57   2.0000      -0.435549       -11.8519
  58   2.0000      -0.429991       -11.7007
  59   2.0000      -0.424201       -11.5431
  60   2.0000      -0.418124       -11.3777
  61   2.0000      -0.413699       -11.2573
  62   2.0000      -0.409940       -11.1550
  63   2.0000      -0.352499        -9.5920
  64   2.0000      -0.331413        -9.0182
  65   2.0000      -0.329894        -8.9769
  66   2.0000      -0.286200        -7.7879
  67   0.0000       0.026592         0.7236
  68   0.0000       0.071562         1.9473
  69   0.0000       0.104201         2.8355
  70   0.0000       0.115279         3.1369
  71   0.0000       0.130821         3.5598

MULLIKEN ATOMIC CHARGES
-----------------------
   0 S :    0.110592
   1 C :   -0.138824
   2 C :   -0.098131
   3 C :    0.004779
   4 C :   -0.089688
   5 H :    0.017742
   6 C :    0.111092
   7 H :    0.032480
   8 H :    0.015983
   9 C :   -0.155117
  10 H :    0.052782
  11 H :    0.039838
  12 C :   -0.016792
  13 H :    0.021674
  14 H :    0.025344
  15 H :    0.019899
  16 S :    0.102862
  17 C :   -0.077139
  18 C :   -0.026456
  19 C :   -0.014516
  20 C :   -0.171234
  21 H :    0.014080
  22 C :    0.058067
  23 H :    0.018627
  24 H :    0.023529
  25 C :   -0.073693
  26 H :    0.014766
  27 H :    0.024971
  28 C :   -0.032799
  29 H :    0.032500
  30 H :    0.021636
  31 H :    0.024720
  32 H :    0.059681
  33 H :    0.046744
Sum of atomic charges:   -0.0000000

LOEWDIN ATOMIC CHARGES
----------------------
   0 S :    0.394386
   1 C :   -0.210615
   2 C :   -0.057046
   3 C :   -0.065695
   4 C :   -0.178339
   5 H :    0.036001
   6 C :   -0.029058
   7 H :    0.032530
   8 H :    0.027993
   9 C :   -0.051781
  10 H :    0.029780
  11 H :    0.031104
  12 C :   -0.065328
  13 H :    0.018644
  14 H :    0.025221
  15 H :    0.026275
  16 S :    0.409143
  17 C :   -0.186316
  18 C :   -0.068778
  19 C :   -0.049832
  20 C :   -0.185895
  21 H :    0.027952
  22 C :   -0.030098
  23 H :    0.025957
  24 H :    0.029950
  25 C :   -0.044918
  26 H :    0.017887
  27 H :    0.022181
  28 C :   -0.072301
  29 H :    0.031587
  30 H :    0.027786
  31 H :    0.023651
  32 H :    0.035112
  33 H :    0.022861

  Mayer bond orders larger than 0.100000
B(  0-S ,  1-C ) :   1.1179 B(  0-S ,  4-C ) :   1.1483 B(  1-C ,  2-C ) :   1.6354
B(  1-C , 32-H ) :   0.9640 B(  2-C ,  3-C ) :   1.2247 B(  2-C ,  6-C ) :   1.0200
B(  3-C ,  4-C ) :   1.5765 B(  3-C ,  5-H ) :   0.9888 B(  4-C , 20-C ) :   1.0489
B(  6-C ,  7-H ) :   0.9324 B(  6-C ,  8-H ) :   0.9436 B(  6-C ,  9-C ) :   1.0601
B(  9-C , 10-H ) :   0.9470 B(  9-C , 11-H ) :   0.9560 B(  9-C , 12-C ) :   1.0921
B( 12-C , 13-H ) :   0.9735 B( 12-C , 14-H ) :   0.9715 B( 12-C , 15-H ) :   0.9709
B( 16-S , 17-C ) :   1.1734 B( 16-S , 20-C ) :   1.1417 B( 17-C , 18-C ) :   1.5845
B( 17-C , 20-C ) :   0.1006 B( 17-C , 33-H ) :   0.9748 B( 18-C , 19-C ) :   1.2481
B( 18-C , 21-H ) :   0.9956 B( 19-C , 20-C ) :   1.5663 B( 19-C , 22-C ) :   1.0429
B( 22-C , 23-H ) :   0.9371 B( 22-C , 24-H ) :   0.9404 B( 22-C , 25-C ) :   1.0459
B( 25-C , 26-H ) :   0.9539 B( 25-C , 27-H ) :   0.9548 B( 25-C , 28-C ) :   1.0955
B( 28-C , 29-H ) :   0.9713 B( 28-C , 30-H ) :   0.9685 B( 28-C , 31-H ) :   0.9686

Dispersion correction           -0.014708364
FINAL SINGLE POINT ENERGY     -1339.880323939155

DIPOLE MOMENT
-------------
                                X             Y             Z
Electronic contribution:     29.83903       4.93789     -18.55332
Nuclear contribution   :    -30.48691      -4.91719      19.00758
                        -----------------------------------------
Total Dipole Moment    :     -0.64787       0.02070       0.45425
                        -----------------------------------------
Magnitude (a.u.)       :      0.79153
Magnitude (Debye)      :      2.01190

Rotational constants in cm-1:     0.017106     0.009876     0.006541
Rotational constants in MHz :   512.820585   296.070220   196.101036

                             ****ORCA TERMINATED NORMALLY****
TOTAL RUN TIME: 0 days 0 hours 0 minutes 20 seconds 883 msec
