                         Program Version 4.2.1 -  RELEASE  -
|  1> ! wB97X-D3 SP def2-SVP
|  2> %pal
|  3> nprocs 24
|  4> end
|  5>
|  6> * xyz 0 1
|  7> S 	 -57.2857 	 -2.3583 	 -27.3755
|  8> C 	 -56.3584 	 -1.67673 	 -26.0142
|  9> C 	 -55.2468 	 -0.909297 	 -26.4137
| 10> C 	 -55.1103 	 -0.98289 	 -27.841
| 11> C 	 -56.1394 	 -1.70243 	 -28.5016
| 12> H 	 -54.3212 	 -0.693535 	 -28.5084
| 13> C 	 -54.1474 	 -0.396668 	 -25.542
| 14> H 	 -54.4273 	 -0.247441 	 -24.4818
| 15> H 	 -53.8858 	 0.579328 	 -25.8426
| 16> C 	 -52.909 	 -1.32422 	 -25.5339
| 17> H 	 -53.2316 	 -2.25254 	 -25.0176
| 18> H 	 -52.7259 	 -1.7015 	 -26.5313
| 19> C 	 -51.5768 	 -0.877781 	 -24.7238
| 20> H 	 -50.696 	 -1.50028 	 -24.8301
| 21> H 	 -51.1553 	 0.0155076 	 -25.1463
| 22> H 	 -51.7515 	 -0.771661 	 -23.6401
| 23> S 	 -56.6502 	 -3.57989 	 -30.5029
| 24> C 	 -56.5931 	 -3.05684 	 -32.1702
| 25> C 	 -56.0711 	 -1.82844 	 -32.2971
| 26> C 	 -55.9493 	 -1.13016 	 -31.0288
| 27> C 	 -56.1555 	 -1.98415 	 -29.95
| 28> H 	 -55.9429 	 -1.40884 	 -33.3301
| 29> C 	 -55.6182 	 0.291854 	 -30.9966
| 30> H 	 -55.4074 	 0.724365 	 -31.9782
| 31> H 	 -54.6421 	 0.269847 	 -30.6524
| 32> C 	 -56.4902 	 1.22471 	 -30.1328
| 33> H 	 -56.1612 	 2.22919 	 -30.2884
| 34> H 	 -56.3549 	 1.06343 	 -29.0833
| 35> C 	 -57.9691 	 1.25548 	 -30.5935
| 36> H 	 -57.9822 	 1.66315 	 -31.5924
| 37> H 	 -58.5815 	 1.88837 	 -29.9243
| 38> H 	 -58.5153 	 0.346172 	 -30.4934
| 39> H 	 -56.6494 	 -2.06157 	 -25.0259
| 40> H 	 -56.8882 	 -3.57991 	 -33.039
| 41> *
| 42>
| 43>                          ****END OF INPUT****

CARTESIAN COORDINATES (ANGSTROEM)
---------------------------------
  S    -57.285700   -2.358300  -27.375500
  C    -56.358400   -1.676730  -26.014200
  C    -55.246800   -0.909297  -26.413700
  C    -55.110300   -0.982890  -27.841000
  C    -56.139400   -1.702430  -28.501600
  H    -54.321200   -0.693535  -28.508400
  C    -54.147400   -0.396668  -25.542000
  H    -54.427300   -0.247441  -24.481800
  H    -53.885800    0.579328  -25.842600
  C    -52.909000   -1.324220  -25.533900
  H    -53.231600   -2.252540  -25.017600
  H    -52.725900   -1.701500  -26.531300
  C    -51.576800   -0.877781  -24.723800
  H    -50.696000   -1.500280  -24.830100
  H    -51.155300    0.015508  -25.146300
  H    -51.751500   -0.771661  -23.640100
  S    -56.650200   -3.579890  -30.502900
  C    -56.593100   -3.056840  -32.170200
  C    -56.071100   -1.828440  -32.297100
  C    -55.949300   -1.130160  -31.028800
  C    -56.155500   -1.984150  -29.950000
  H    -55.942900   -1.408840  -33.330100
  C    -55.618200    0.291854  -30.996600
  H    -55.407400    0.724365  -31.978200
  H    -54.642100    0.269847  -30.652400
  C    -56.490200    1.224710  -30.132800
  H    -56.161200    2.229190  -30.288400
  H    -56.354900    1.063430  -29.083300
  C    -57.969100    1.255480  -30.593500
  H    -57.982200    1.663150  -31.592400
  H    -58.581500    1.888370  -29.924300
  H    -58.515300    0.346172  -30.493400
  H    -56.649400   -2.061570  -25.025900
  H    -56.888200   -3.579910  -33.039000

 Total Charge           Charge          ....    0
 Multiplicity           Mult            ....    1
 Number of Electrons    NEL             ....  134
 Basis Dimension        Dim             ....  322

ORBITAL ENERGIES
----------------

  NO   OCC          E(Eh)            E(eV)
   0   2.0000     -88.969138     -2420.9733
   1   2.0000     -88.963814     -2420.8284
   2   2.0000     -10.331921      -281.1459
   3   2.0000     -10.326196      -280.9901
   4   2.0000     -10.323178      -280.9079
   5   2.0000     -10.312727      -280.6236
   6   2.0000     -10.309965      -280.5484
   7   2.0000     -10.302802      -280.3535
   8   2.0000     -10.297461      -280.2082
   9   2.0000     -10.294627      -280.1311
  10   2.0000     -10.293749      -280.1072
  11   2.0000     -10.292683      -280.0781
  12   2.0000     -10.285446      -279.8812
  13   2.0000     -10.281692      -279.7791
  14   2.0000     -10.278524      -279.6929
  15   2.0000     -10.268863      -279.4300
  16   2.0000      -8.083509      -219.9635
  17   2.0000      -8.078471      -219.8264
  18   2.0000      -6.041917      -164.4089
  19   2.0000      -6.038024      -164.3030
  20   2.0000      -6.037154      -164.2793
  21   2.0000      -6.034457      -164.2059
  22   2.0000      -6.033067      -164.1681
  23   2.0000      -6.028987      -164.0571
  24   2.0000      -1.004229       -27.3264
  25   2.0000      -0.981636       -26.7117
  26   2.0000      -0.911507       -24.8034
  27   2.0000      -0.908615       -24.7247
  28   2.0000      -0.864036       -23.5116
  29   2.0000      -0.847719       -23.0676
  30   2.0000      -0.842358       -22.9217
  31   2.0000      -0.814070       -22.1520
  32   2.0000      -0.786625       -21.4051
  33   2.0000      -0.775114       -21.0919
  34   2.0000      -0.711852       -19.3705
  35   2.0000      -0.706908       -19.2360
  36   2.0000      -0.688711       -18.7408
  37   2.0000      -0.661092       -17.9892
  38   2.0000      -0.644895       -17.5485
  39   2.0000      -0.618112       -16.8197
  40   2.0000      -0.591095       -16.0845
  41   2.0000      -0.566279       -15.4092
  42   2.0000      -0.560979       -15.2650
  43   2.0000      -0.552497       -15.0342
  44   2.0000      -0.545602       -14.8466
  45   2.0000      -0.519206       -14.1283
  46   2.0000      -0.511652       -13.9228
  47   2.0000      -0.506712       -13.7883
  48   2.0000      -0.503988       -13.7142
  49   2.0000      -0.493053       -13.4167
  50   2.0000      -0.492057       -13.3896
  51   2.0000      -0.478173       -13.0118
  52   2.0000      -0.471358       -12.8263
  53   2.0000      -0.464960       -12.6522
  54   2.0000      -0.459037       -12.4910
  55   2.0000      -0.452466       -12.3122
  56   2.0000      -0.440630       -11.9902
  57   2.0000      -0.434606       -11.8262
  58   2.0000      -0.431099       -11.7308
  59   2.0000      -0.429350       -11.6832
  60   2.0000      -0.419839       -11.4244
  61   2.0000      -0.417505       -11.3609
  62   2.0000      -0.412507       -11.2249
  63   2.0000      -0.347077        -9.4445
  64   2.0000      -0.334377        -9.0989
  65   2.0000      -0.326641        -8.8884
  66   2.0000      -0.287225        -7.8158
  67   0.0000       0.023169         0.6305
  68   0.0000       0.079231         2.1560
  69   0.0000       0.105907         2.8819
  70   0.0000       0.116755         3.1771
  71   0.0000       0.130092         3.5400

MULLIKEN ATOMIC CHARGES
-----------------------
   0 S :    0.110420
   1 C :   -0.150744
   2 C :   -0.037514
   3 C :   -0.000044
   4 C :   -0.160437
   5 H :    0.012116
   6 C :    0.105357
   7 H :    0.021076
   8 H :    0.013032
   9 C :   -0.092545
  10 H :    0.026324
  11 H :    0.027464
  12 C :   -0.049479
  13 H :    0.031531
  14 H :    0.022542
  15 H :    0.043353
  16 S :    0.098725
  17 C :   -0.067992
  18 C :   -0.044474
  19 C :   -0.057075
  20 C :   -0.147682
  21 H :    0.035374
  22 C :    0.086814
  23 H :    0.004774
  24 H :    0.008016
  25 C :   -0.033594
  26 H :    0.013016
  27 H :    0.036158
  28 C :   -0.044591
  29 H :    0.027908
  30 H :    0.025241
  31 H :    0.034297
  32 H :    0.064522
  33 H :    0.038112
Sum of atomic charges:    0.0000000

LOEWDIN ATOMIC CHARGES
----------------------
   0 S :    0.402038
   1 C :   -0.186315
   2 C :   -0.056367
   3 C :   -0.061735
   4 C :   -0.197513
   5 H :    0.029038
   6 C :   -0.031282
   7 H :    0.033816
   8 H :    0.023283
   9 C :   -0.038655
  10 H :    0.027742
  11 H :    0.021057
  12 C :   -0.072478
  13 H :    0.029566
  14 H :    0.020648
  15 H :    0.029176
  16 S :    0.390688
  17 C :   -0.176267
  18 C :   -0.076469
  19 C :   -0.047838
  20 C :   -0.203143
  21 H :    0.040719
  22 C :   -0.038636
  23 H :    0.033182
  24 H :    0.027609
  25 C :   -0.031110
  26 H :    0.022577
  27 H :    0.021492
  28 C :   -0.062446
  29 H :    0.023215
  30 H :    0.028885
  31 H :    0.021421
  32 H :    0.028561
  33 H :    0.025540

  Mayer bond orders larger than 0.100000
B(  0-S ,  1-C ) :   1.1468 B(  0-S ,  4-C ) :   1.1597 B(  1-C ,  2-C ) :   1.5738
B(  1-C , 32-H ) :   0.9690 B(  2-C ,  3-C ) :   1.2273 B(  2-C ,  6-C ) :   1.0511
B(  3-C ,  4-C ) :   1.5616 B(  3-C ,  5-H ) :   0.9903 B(  4-C , 20-C ) :   1.0615
B(  6-C ,  7-H ) :   0.9400 B(  6-C ,  8-H ) :   0.9300 B(  6-C ,  9-C ) :   1.0472
B(  9-C , 10-H ) :   0.9563 B(  9-C , 11-H ) :   0.9640 B(  9-C , 12-C ) :   1.0595
B( 12-C , 13-H ) :   0.9760 B( 12-C , 14-H ) :   0.9772 B( 12-C , 15-H ) :   0.9786
B( 16-S , 17-C ) :   1.1379 B( 16-S , 20-C ) :   1.1113 B( 17-C , 18-C ) :   1.6647
B( 17-C , 33-H ) :   0.9657 B( 18-C , 19-C ) :   1.2118 B( 18-C , 21-H ) :   0.9780
B( 19-C , 20-C ) :   1.6043 B( 19-C , 22-C ) :   1.0382 B( 22-C , 23-H ) :   0.9261
B( 22-C , 24-H ) :   0.9128 B( 22-C , 25-C ) :   1.0808 B( 25-C , 26-H ) :   0.9504
B( 25-C , 27-H ) :   0.9503 B( 25-C , 28-C ) :   1.0773 B( 28-C , 29-H ) :   0.9770
B( 28-C , 30-H ) :   0.9732 B( 28-C , 31-H ) :   0.9762

Dispersion correction           -0.015039557
FINAL SINGLE POINT ENERGY     -1339.865019114544

DIPOLE MOMENT
-------------
                                X             Y             Z
Electronic contribution:    -13.83217     -18.38884      -7.31589
Nuclear contribution   :     14.29959      18.80519       7.25778
                        -----------------------------------------
Total Dipole Moment    :      0.46742       0.41635      -0.05811
                        -----------------------------------------
Magnitude (a.u.)       :      0.62866
Magnitude (Debye)      :      1.59792

Rotational constants in cm-1:     0.020001     0.008069     0.007440
Rotational constants in MHz :   599.619229   241.909246   223.050306

                             ****ORCA TERMINATED NORMALLY****
TOTAL RUN TIME: 0 days 0 hours 0 minutes 22 seconds 225 msec
