                         Program Version 4.2.1 -  RELEASE  -
|  1> ! wB97X-D3 SP def2-SVP
|  2> %pal
|  3> nprocs 24
|  4> end
|  5>
|  6> * xyz 0 1
|  7> S 	 -74.2327 	 3.20843 	 -66.7813
|  8> C 	 -72.8838 	 2.95349 	 -65.7012
|  9> C 	 -72.7914 	 1.71441 	 -65.2097
| 10> C 	 -73.8005 	 0.892997 	 -65.7529
| 11> C 	 -74.7534 	 1.50498 	 -66.5991
| 12> H 	 -74.1158 	 -0.161239 	 -65.4695
| 13> C 	 -71.9318 	 1.36867 	 -64.0387
| 14> H 	 -72.0942 	 0.282432 	 -63.892
| 15> H 	 -72.277 	 1.86707 	 -63.1531
| 16> C 	 -70.3976 	 1.50502 	 -64.1429
| 17> H 	 -70.0874 	 0.930799 	 -65.0824
| 18> H 	 -70.0133 	 2.5224 	 -64.333
| 19> C 	 -69.6628 	 0.948352 	 -62.8644
| 20> H 	 -69.7716 	 -0.0616567 	 -62.6957
| 21> H 	 -68.6689 	 1.11063 	 -62.9164
| 22> H 	 -69.8927 	 1.50752 	 -62.0071
| 23> S 	 -75.806 	 -0.409063 	 -68.268
| 24> C 	 -77.4559 	 -0.246745 	 -68.7886
| 25> C 	 -78.1616 	 0.71688 	 -68.1586
| 26> C 	 -77.2746 	 1.5229 	 -67.2451
| 27> C 	 -75.9957 	 0.975899 	 -67.2197
| 28> H 	 -79.1418 	 0.981752 	 -68.539
| 29> C 	 -77.665 	 2.83815 	 -66.6823
| 30> H 	 -77.0793 	 3.12638 	 -65.8384
| 31> H 	 -78.6538 	 2.73559 	 -66.1381
| 32> C 	 -77.792 	 3.99324 	 -67.6971
| 33> H 	 -78.5997 	 3.71239 	 -68.4399
| 34> H 	 -76.8502 	 4.21599 	 -68.1587
| 35> C 	 -78.1753 	 5.27668 	 -66.9741
| 36> H 	 -77.3485 	 5.54299 	 -66.284
| 37> H 	 -79.1061 	 5.09858 	 -66.4898
| 38> H 	 -78.2481 	 6.01805 	 -67.7967
| 39> H 	 -72.228 	 3.76149 	 -65.3827
| 40> H 	 -77.865 	 -0.837465 	 -69.5806
| 41> *
| 42>
| 43>                          ****END OF INPUT****

CARTESIAN COORDINATES (ANGSTROEM)
---------------------------------
  S    -74.232700    3.208430  -66.781300
  C    -72.883800    2.953490  -65.701200
  C    -72.791400    1.714410  -65.209700
  C    -73.800500    0.892997  -65.752900
  C    -74.753400    1.504980  -66.599100
  H    -74.115800   -0.161239  -65.469500
  C    -71.931800    1.368670  -64.038700
  H    -72.094200    0.282432  -63.892000
  H    -72.277000    1.867070  -63.153100
  C    -70.397600    1.505020  -64.142900
  H    -70.087400    0.930799  -65.082400
  H    -70.013300    2.522400  -64.333000
  C    -69.662800    0.948352  -62.864400
  H    -69.771600   -0.061657  -62.695700
  H    -68.668900    1.110630  -62.916400
  H    -69.892700    1.507520  -62.007100
  S    -75.806000   -0.409063  -68.268000
  C    -77.455900   -0.246745  -68.788600
  C    -78.161600    0.716880  -68.158600
  C    -77.274600    1.522900  -67.245100
  C    -75.995700    0.975899  -67.219700
  H    -79.141800    0.981752  -68.539000
  C    -77.665000    2.838150  -66.682300
  H    -77.079300    3.126380  -65.838400
  H    -78.653800    2.735590  -66.138100
  C    -77.792000    3.993240  -67.697100
  H    -78.599700    3.712390  -68.439900
  H    -76.850200    4.215990  -68.158700
  C    -78.175300    5.276680  -66.974100
  H    -77.348500    5.542990  -66.284000
  H    -79.106100    5.098580  -66.489800
  H    -78.248100    6.018050  -67.796700
  H    -72.228000    3.761490  -65.382700
  H    -77.865000   -0.837465  -69.580600

 Total Charge           Charge          ....    0
 Multiplicity           Mult            ....    1
 Number of Electrons    NEL             ....  134
 Basis Dimension        Dim             ....  322

ORBITAL ENERGIES
----------------

  NO   OCC          E(Eh)            E(eV)
   0   2.0000     -88.965557     -2420.8759
   1   2.0000     -88.964396     -2420.8443
   2   2.0000     -10.335339      -281.2389
   3   2.0000     -10.329323      -281.0752
   4   2.0000     -10.313942      -280.6566
   5   2.0000     -10.310564      -280.5647
   6   2.0000     -10.308471      -280.5077
   7   2.0000     -10.300300      -280.2854
   8   2.0000     -10.297876      -280.2194
   9   2.0000     -10.297365      -280.2056
  10   2.0000     -10.294280      -280.1216
  11   2.0000     -10.291448      -280.0445
  12   2.0000     -10.288718      -279.9702
  13   2.0000     -10.285832      -279.8917
  14   2.0000     -10.276634      -279.6414
  15   2.0000     -10.263423      -279.2819
  16   2.0000      -8.079696      -219.8597
  17   2.0000      -8.079287      -219.8486
  18   2.0000      -6.038251      -164.3092
  19   2.0000      -6.037803      -164.2970
  20   2.0000      -6.034236      -164.1999
  21   2.0000      -6.033887      -164.1904
  22   2.0000      -6.030255      -164.0916
  23   2.0000      -6.030173      -164.0894
  24   2.0000      -1.003216       -27.2989
  25   2.0000      -0.985045       -26.8044
  26   2.0000      -0.912500       -24.8304
  27   2.0000      -0.907601       -24.6971
  28   2.0000      -0.869402       -23.6576
  29   2.0000      -0.851396       -23.1677
  30   2.0000      -0.847501       -23.0617
  31   2.0000      -0.816155       -22.2087
  32   2.0000      -0.787560       -21.4306
  33   2.0000      -0.770172       -20.9575
  34   2.0000      -0.707329       -19.2474
  35   2.0000      -0.699189       -19.0259
  36   2.0000      -0.690378       -18.7861
  37   2.0000      -0.660930       -17.9848
  38   2.0000      -0.634673       -17.2703
  39   2.0000      -0.613280       -16.6882
  40   2.0000      -0.598484       -16.2856
  41   2.0000      -0.573468       -15.6049
  42   2.0000      -0.571326       -15.5466
  43   2.0000      -0.563039       -15.3211
  44   2.0000      -0.526515       -14.3272
  45   2.0000      -0.520014       -14.1503
  46   2.0000      -0.514068       -13.9885
  47   2.0000      -0.512906       -13.9569
  48   2.0000      -0.507629       -13.8133
  49   2.0000      -0.500285       -13.6134
  50   2.0000      -0.491486       -13.3740
  51   2.0000      -0.475588       -12.9414
  52   2.0000      -0.469779       -12.7833
  53   2.0000      -0.466663       -12.6985
  54   2.0000      -0.458907       -12.4875
  55   2.0000      -0.447780       -12.1847
  56   2.0000      -0.438809       -11.9406
  57   2.0000      -0.434878       -11.8336
  58   2.0000      -0.434468       -11.8225
  59   2.0000      -0.426764       -11.6128
  60   2.0000      -0.423647       -11.5280
  61   2.0000      -0.416106       -11.3228
  62   2.0000      -0.414571       -11.2811
  63   2.0000      -0.348523        -9.4838
  64   2.0000      -0.332795        -9.0558
  65   2.0000      -0.326010        -8.8712
  66   2.0000      -0.294937        -8.0256
  67   0.0000       0.033923         0.9231
  68   0.0000       0.070692         1.9236
  69   0.0000       0.104447         2.8421
  70   0.0000       0.115656         3.1472
  71   0.0000       0.130656         3.5553

MULLIKEN ATOMIC CHARGES
-----------------------
   0 S :    0.092892
   1 C :   -0.126616
   2 C :   -0.040053
   3 C :    0.003532
   4 C :   -0.175225
   5 H :    0.031844
   6 C :    0.070299
   7 H :    0.021359
   8 H :    0.037618
   9 C :   -0.127690
  10 H :    0.039733
  11 H :    0.031173
  12 C :    0.035186
  13 H :    0.018727
  14 H :   -0.001415
  15 H :    0.011975
  16 S :    0.112740
  17 C :   -0.084087
  18 C :   -0.016712
  19 C :   -0.031673
  20 C :   -0.143848
  21 H :    0.025748
  22 C :    0.023972
  23 H :    0.013332
  24 H :    0.022664
  25 C :   -0.083309
  26 H :    0.036607
  27 H :    0.027631
  28 C :   -0.033432
  29 H :    0.042057
  30 H :    0.025865
  31 H :    0.040524
  32 H :    0.048055
  33 H :    0.050528
Sum of atomic charges:   -0.0000000

LOEWDIN ATOMIC CHARGES
----------------------
   0 S :    0.393305
   1 C :   -0.185839
   2 C :   -0.080687
   3 C :   -0.071629
   4 C :   -0.183332
   5 H :    0.039836
   6 C :   -0.030944
   7 H :    0.035553
   8 H :    0.030518
   9 C :   -0.038838
  10 H :    0.031720
  11 H :    0.020219
  12 C :   -0.050243
  13 H :    0.017370
  14 H :    0.016223
  15 H :    0.022769
  16 S :    0.405776
  17 C :   -0.176693
  18 C :   -0.069006
  19 C :   -0.044771
  20 C :   -0.204066
  21 H :    0.033114
  22 C :   -0.050924
  23 H :    0.021429
  24 H :    0.037634
  25 C :   -0.036588
  26 H :    0.028048
  27 H :    0.016197
  28 C :   -0.059630
  29 H :    0.030208
  30 H :    0.017599
  31 H :    0.031265
  32 H :    0.028862
  33 H :    0.025545

  Mayer bond orders larger than 0.100000
B(  0-S ,  1-C ) :   1.1445 B(  0-S ,  4-C ) :   1.1367 B(  1-C ,  2-C ) :   1.6210
B(  1-C , 32-H ) :   0.9648 B(  2-C ,  3-C ) :   1.2486 B(  2-C ,  6-C ) :   1.0124
B(  3-C ,  4-C ) :   1.5897 B(  3-C ,  5-H ) :   0.9780 B(  4-C , 20-C ) :   1.0223
B(  6-C ,  7-H ) :   0.9415 B(  6-C ,  8-H ) :   0.9429 B(  6-C ,  9-C ) :   1.0548
B(  9-C , 10-H ) :   0.9581 B(  9-C , 11-H ) :   0.9590 B(  9-C , 12-C ) :   1.0815
B( 12-C , 13-H ) :   0.9758 B( 12-C , 14-H ) :   0.9667 B( 12-C , 15-H ) :   0.9694
B( 16-S , 17-C ) :   1.1392 B( 16-S , 20-C ) :   1.1281 B( 17-C , 18-C ) :   1.6772
B( 17-C , 33-H ) :   0.9652 B( 18-C , 19-C ) :   1.1689 B( 18-C , 21-H ) :   0.9852
B( 19-C , 20-C ) :   1.6361 B( 19-C , 22-C ) :   1.0765 B( 22-C , 23-H ) :   0.9283
B( 22-C , 24-H ) :   0.9226 B( 22-C , 25-C ) :   1.0582 B( 25-C , 26-H ) :   0.9540
B( 25-C , 27-H ) :   0.9536 B( 25-C , 28-C ) :   1.0822 B( 28-C , 29-H ) :   0.9735
B( 28-C , 30-H ) :   0.9749 B( 28-C , 31-H ) :   0.9741

Dispersion correction           -0.013974063
FINAL SINGLE POINT ENERGY     -1339.868519176156

DIPOLE MOMENT
-------------
                                X             Y             Z
Electronic contribution:     -6.04873      -9.61656     -13.90720
Nuclear contribution   :      5.99600       9.79481      14.19093
                        -----------------------------------------
Total Dipole Moment    :     -0.05273       0.17825       0.28373
                        -----------------------------------------
Magnitude (a.u.)       :      0.33920
Magnitude (Debye)      :      0.86218

Rotational constants in cm-1:     0.022452     0.007221     0.005805
Rotational constants in MHz :   673.106740   216.472248   174.042573

                             ****ORCA TERMINATED NORMALLY****
TOTAL RUN TIME: 0 days 0 hours 0 minutes 20 seconds 798 msec
