                         Program Version 4.2.1 -  RELEASE  -
|  1> ! wB97X-D3 SP def2-SVP
|  2> %pal
|  3> nprocs 24
|  4> end
|  5>
|  6> * xyz 0 1
|  7> S 	 -110.788 	 19.5345 	 -107.419
|  8> C 	 -109.138 	 19.1585 	 -106.933
|  9> C 	 -108.243 	 19.8282 	 -107.746
| 10> C 	 -108.905 	 20.6934 	 -108.726
| 11> C 	 -110.298 	 20.5615 	 -108.769
| 12> H 	 -108.416 	 21.376 	 -109.355
| 13> C 	 -106.757 	 19.8239 	 -107.667
| 14> H 	 -106.576 	 20.0865 	 -108.743
| 15> H 	 -106.46 	 18.7784 	 -107.611
| 16> C 	 -106.062 	 20.639 	 -106.575
| 17> H 	 -106.362 	 20.2768 	 -105.616
| 18> H 	 -105.005 	 20.4749 	 -106.686
| 19> C 	 -106.397 	 22.1218 	 -106.877
| 20> H 	 -107.479 	 22.1578 	 -106.909
| 21> H 	 -105.875 	 22.8456 	 -106.344
| 22> H 	 -106.106 	 22.1532 	 -107.941
| 23> S 	 -112.679 	 21.8795 	 -108.585
| 24> C 	 -112.965 	 23.1534 	 -109.782
| 25> C 	 -112.28 	 22.9072 	 -110.945
| 26> C 	 -111.175 	 21.9687 	 -110.743
| 27> C 	 -111.269 	 21.4134 	 -109.495
| 28> H 	 -112.356 	 23.5106 	 -111.865
| 29> C 	 -110.271 	 21.5361 	 -111.893
| 30> H 	 -109.799 	 20.5773 	 -111.658
| 31> H 	 -109.477 	 22.3398 	 -111.934
| 32> C 	 -110.823 	 21.3183 	 -113.323
| 33> H 	 -111.893 	 21.0197 	 -113.278
| 34> H 	 -110.404 	 20.3832 	 -113.728
| 35> C 	 -110.694 	 22.5433 	 -114.234
| 36> H 	 -111.006 	 23.4482 	 -113.769
| 37> H 	 -111.191 	 22.4439 	 -115.149
| 38> H 	 -109.627 	 22.7737 	 -114.354
| 39> H 	 -108.799 	 18.5099 	 -106.137
| 40> H 	 -113.73 	 23.9159 	 -109.685
| 41> *
| 42>
| 43>                          ****END OF INPUT****

CARTESIAN COORDINATES (ANGSTROEM)
---------------------------------
  S    -110.788000   19.534500  -107.419000
  C    -109.138000   19.158500  -106.933000
  C    -108.243000   19.828200  -107.746000
  C    -108.905000   20.693400  -108.726000
  C    -110.298000   20.561500  -108.769000
  H    -108.416000   21.376000  -109.355000
  C    -106.757000   19.823900  -107.667000
  H    -106.576000   20.086500  -108.743000
  H    -106.460000   18.778400  -107.611000
  C    -106.062000   20.639000  -106.575000
  H    -106.362000   20.276800  -105.616000
  H    -105.005000   20.474900  -106.686000
  C    -106.397000   22.121800  -106.877000
  H    -107.479000   22.157800  -106.909000
  H    -105.875000   22.845600  -106.344000
  H    -106.106000   22.153200  -107.941000
  S    -112.679000   21.879500  -108.585000
  C    -112.965000   23.153400  -109.782000
  C    -112.280000   22.907200  -110.945000
  C    -111.175000   21.968700  -110.743000
  C    -111.269000   21.413400  -109.495000
  H    -112.356000   23.510600  -111.865000
  C    -110.271000   21.536100  -111.893000
  H    -109.799000   20.577300  -111.658000
  H    -109.477000   22.339800  -111.934000
  C    -110.823000   21.318300  -113.323000
  H    -111.893000   21.019700  -113.278000
  H    -110.404000   20.383200  -113.728000
  C    -110.694000   22.543300  -114.234000
  H    -111.006000   23.448200  -113.769000
  H    -111.191000   22.443900  -115.149000
  H    -109.627000   22.773700  -114.354000
  H    -108.799000   18.509900  -106.137000
  H    -113.730000   23.915900  -109.685000

 Total Charge           Charge          ....    0
 Multiplicity           Mult            ....    1
 Number of Electrons    NEL             ....  134
 Basis Dimension        Dim             ....  322

ORBITAL ENERGIES
----------------

  NO   OCC          E(Eh)            E(eV)
   0   2.0000     -88.965603     -2420.8771
   1   2.0000     -88.964476     -2420.8465
   2   2.0000     -10.333987      -281.2021
   3   2.0000     -10.328343      -281.0485
   4   2.0000     -10.320633      -280.8387
   5   2.0000     -10.314627      -280.6753
   6   2.0000     -10.306081      -280.4427
   7   2.0000     -10.300024      -280.2779
   8   2.0000     -10.299799      -280.2718
   9   2.0000     -10.299723      -280.2697
  10   2.0000     -10.293650      -280.1045
  11   2.0000     -10.293216      -280.0927
  12   2.0000     -10.289021      -279.9785
  13   2.0000     -10.285106      -279.8720
  14   2.0000     -10.276034      -279.6251
  15   2.0000     -10.270541      -279.4756
  16   2.0000      -8.080627      -219.8850
  17   2.0000      -8.078726      -219.8333
  18   2.0000      -6.039247      -164.3363
  19   2.0000      -6.037441      -164.2871
  20   2.0000      -6.035479      -164.2337
  21   2.0000      -6.033262      -164.1734
  22   2.0000      -6.030848      -164.1077
  23   2.0000      -6.029341      -164.0667
  24   2.0000      -1.005106       -27.3503
  25   2.0000      -0.980693       -26.6860
  26   2.0000      -0.916755       -24.9462
  27   2.0000      -0.908156       -24.7122
  28   2.0000      -0.867548       -23.6072
  29   2.0000      -0.853219       -23.2173
  30   2.0000      -0.840612       -22.8742
  31   2.0000      -0.815306       -22.1856
  32   2.0000      -0.784404       -21.3447
  33   2.0000      -0.772098       -21.0098
  34   2.0000      -0.711715       -19.3667
  35   2.0000      -0.708287       -19.2735
  36   2.0000      -0.693378       -18.8678
  37   2.0000      -0.663607       -18.0577
  38   2.0000      -0.636922       -17.3315
  39   2.0000      -0.611145       -16.6301
  40   2.0000      -0.596043       -16.2191
  41   2.0000      -0.571883       -15.5617
  42   2.0000      -0.560857       -15.2617
  43   2.0000      -0.555934       -15.1277
  44   2.0000      -0.541079       -14.7235
  45   2.0000      -0.530823       -14.4444
  46   2.0000      -0.525905       -14.3106
  47   2.0000      -0.511131       -13.9086
  48   2.0000      -0.503655       -13.7051
  49   2.0000      -0.497048       -13.5254
  50   2.0000      -0.492616       -13.4048
  51   2.0000      -0.478654       -13.0248
  52   2.0000      -0.470246       -12.7961
  53   2.0000      -0.464098       -12.6287
  54   2.0000      -0.455521       -12.3954
  55   2.0000      -0.452561       -12.3148
  56   2.0000      -0.444239       -12.0884
  57   2.0000      -0.441128       -12.0037
  58   2.0000      -0.436055       -11.8657
  59   2.0000      -0.426815       -11.6142
  60   2.0000      -0.419424       -11.4131
  61   2.0000      -0.410361       -11.1665
  62   2.0000      -0.408240       -11.1088
  63   2.0000      -0.356800        -9.7090
  64   2.0000      -0.331890        -9.0312
  65   2.0000      -0.322006        -8.7622
  66   2.0000      -0.286416        -7.7938
  67   0.0000       0.024644         0.6706
  68   0.0000       0.068686         1.8690
  69   0.0000       0.096775         2.6334
  70   0.0000       0.117583         3.1996
  71   0.0000       0.134699         3.6653

MULLIKEN ATOMIC CHARGES
-----------------------
   0 S :    0.082095
   1 C :   -0.098576
   2 C :   -0.128290
   3 C :    0.017629
   4 C :   -0.109466
   5 H :   -0.005886
   6 C :    0.001755
   7 H :    0.029906
   8 H :    0.025429
   9 C :   -0.004177
  10 H :    0.021599
  11 H :    0.027542
  12 C :   -0.022883
  13 H :    0.047888
  14 H :    0.029984
  15 H :    0.011854
  16 S :    0.103163
  17 C :   -0.091305
  18 C :   -0.021092
  19 C :   -0.069247
  20 C :   -0.126844
  21 H :    0.030818
  22 C :    0.020930
  23 H :    0.037698
  24 H :    0.042181
  25 C :   -0.074674
  26 H :    0.032704
  27 H :    0.034153
  28 C :   -0.017057
  29 H :    0.012538
  30 H :    0.032606
  31 H :    0.024897
  32 H :    0.045286
  33 H :    0.056841
Sum of atomic charges:    0.0000000

LOEWDIN ATOMIC CHARGES
----------------------
   0 S :    0.385515
   1 C :   -0.195647
   2 C :   -0.067506
   3 C :   -0.066057
   4 C :   -0.181147
   5 H :    0.018855
   6 C :   -0.043311
   7 H :    0.036796
   8 H :    0.030818
   9 C :   -0.025761
  10 H :    0.017624
  11 H :    0.022770
  12 C :   -0.055141
  13 H :    0.030078
  14 H :    0.013876
  15 H :    0.027228
  16 S :    0.389947
  17 C :   -0.170598
  18 C :   -0.067315
  19 C :   -0.059146
  20 C :   -0.193138
  21 H :    0.034131
  22 C :   -0.036734
  23 H :    0.035193
  24 H :    0.036553
  25 C :   -0.044240
  26 H :    0.028383
  27 H :    0.029948
  28 C :   -0.060511
  29 H :    0.018744
  30 H :    0.020968
  31 H :    0.028263
  32 H :    0.032120
  33 H :    0.028441

  Mayer bond orders larger than 0.100000
B(  0-S ,  1-C ) :   1.1222 B(  0-S ,  4-C ) :   1.1447 B(  1-C ,  2-C ) :   1.6216
B(  1-C , 32-H ) :   0.9706 B(  2-C ,  3-C ) :   1.2308 B(  2-C ,  6-C ) :   1.0087
B(  3-C ,  4-C ) :   1.5690 B(  3-C ,  5-H ) :   0.9941 B(  4-C , 20-C ) :   1.0395
B(  6-C ,  7-H ) :   0.9474 B(  6-C ,  8-H ) :   0.9339 B(  6-C ,  9-C ) :   1.0663
B(  9-C , 10-H ) :   0.9541 B(  9-C , 11-H ) :   0.9544 B(  9-C , 12-C ) :   1.0622
B( 12-C , 13-H ) :   0.9764 B( 12-C , 14-H ) :   0.9752 B( 12-C , 15-H ) :   0.9723
B( 16-S , 17-C ) :   1.1338 B( 16-S , 20-C ) :   1.1185 B( 17-C , 18-C ) :   1.6466
B( 17-C , 33-H ) :   0.9692 B( 18-C , 19-C ) :   1.2006 B( 18-C , 21-H ) :   0.9779
B( 19-C , 20-C ) :   1.6515 B( 19-C , 22-C ) :   1.0422 B( 22-C , 23-H ) :   0.9446
B( 22-C , 24-H ) :   0.9325 B( 22-C , 25-C ) :   1.0500 B( 25-C , 26-H ) :   0.9573
B( 25-C , 27-H ) :   0.9614 B( 25-C , 28-C ) :   1.0709 B( 28-C , 29-H ) :   0.9757
B( 28-C , 30-H ) :   0.9732 B( 28-C , 31-H ) :   0.9700

Dispersion correction           -0.014295995
FINAL SINGLE POINT ENERGY     -1339.857719344892

DIPOLE MOMENT
-------------
                                X             Y             Z
Electronic contribution:    -20.18626      -5.98484      14.02506
Nuclear contribution   :     20.67829       6.21586     -14.46755
                        -----------------------------------------
Total Dipole Moment    :      0.49203       0.23102      -0.44249
                        -----------------------------------------
Magnitude (a.u.)       :      0.70090
Magnitude (Debye)      :      1.78156

Rotational constants in cm-1:     0.019088     0.008132     0.006686
Rotational constants in MHz :   572.257490   243.782240   200.439873

                             ****ORCA TERMINATED NORMALLY****
TOTAL RUN TIME: 0 days 0 hours 0 minutes 21 seconds 617 msec
