                         Program Version 4.2.1 -  RELEASE  -
|  1> ! wB97X-D3 SP def2-SVP
|  2> %pal
|  3> nprocs 24
|  4> end
|  5>
|  6> * xyz 0 1
|  7> S 	 -78.9549 	 -20.25 	 -51.5856
|  8> C 	 -79.3785 	 -19.1099 	 -50.3573
|  9> C 	 -79.6651 	 -17.8497 	 -50.8132
| 10> C 	 -79.3832 	 -17.7195 	 -52.1988
| 11> C 	 -78.9513 	 -18.9163 	 -52.7804
| 12> H 	 -79.5119 	 -16.8712 	 -52.8034
| 13> C 	 -80.0666 	 -16.6101 	 -49.9972
| 14> H 	 -80.8627 	 -16.8765 	 -49.3207
| 15> H 	 -80.5016 	 -15.9545 	 -50.7411
| 16> C 	 -78.8958 	 -16.0458 	 -49.1805
| 17> H 	 -79.157 	 -15.5153 	 -48.2379
| 18> H 	 -78.3317 	 -16.8963 	 -48.8084
| 19> C 	 -78.0528 	 -15.1474 	 -50.0872
| 20> H 	 -77.893 	 -15.6686 	 -51.038
| 21> H 	 -78.4917 	 -14.1702 	 -50.1574
| 22> H 	 -77.0688 	 -14.9845 	 -49.7486
| 23> S 	 -80.1808 	 -19.8707 	 -55.1577
| 24> C 	 -79.2806 	 -19.7752 	 -56.656
| 25> C 	 -78.0346 	 -19.2993 	 -56.4625
| 26> C 	 -77.7685 	 -18.8929 	 -55.1017
| 27> C 	 -78.7875 	 -19.2386 	 -54.218
| 28> H 	 -77.3271 	 -19.1967 	 -57.2482
| 29> C 	 -76.4283 	 -18.273 	 -54.6274
| 30> H 	 -75.6345 	 -18.9458 	 -54.7824
| 31> H 	 -76.5384 	 -18.2203 	 -53.5119
| 32> C 	 -76.1001 	 -16.8486 	 -55.1952
| 33> H 	 -75.957 	 -16.874 	 -56.2581
| 34> H 	 -75.1709 	 -16.5403 	 -54.7545
| 35> C 	 -77.0598 	 -15.7564 	 -54.8165
| 36> H 	 -77.5003 	 -15.8542 	 -53.7634
| 37> H 	 -77.8898 	 -15.5563 	 -55.5268
| 38> H 	 -76.5102 	 -14.7776 	 -54.8866
| 39> H 	 -79.4545 	 -19.2738 	 -49.2542
| 40> H 	 -79.7488 	 -19.9669 	 -57.6595
| 41> *
| 42>
| 43>                          ****END OF INPUT****

CARTESIAN COORDINATES (ANGSTROEM)
---------------------------------
  S    -78.954900  -20.250000  -51.585600
  C    -79.378500  -19.109900  -50.357300
  C    -79.665100  -17.849700  -50.813200
  C    -79.383200  -17.719500  -52.198800
  C    -78.951300  -18.916300  -52.780400
  H    -79.511900  -16.871200  -52.803400
  C    -80.066600  -16.610100  -49.997200
  H    -80.862700  -16.876500  -49.320700
  H    -80.501600  -15.954500  -50.741100
  C    -78.895800  -16.045800  -49.180500
  H    -79.157000  -15.515300  -48.237900
  H    -78.331700  -16.896300  -48.808400
  C    -78.052800  -15.147400  -50.087200
  H    -77.893000  -15.668600  -51.038000
  H    -78.491700  -14.170200  -50.157400
  H    -77.068800  -14.984500  -49.748600
  S    -80.180800  -19.870700  -55.157700
  C    -79.280600  -19.775200  -56.656000
  C    -78.034600  -19.299300  -56.462500
  C    -77.768500  -18.892900  -55.101700
  C    -78.787500  -19.238600  -54.218000
  H    -77.327100  -19.196700  -57.248200
  C    -76.428300  -18.273000  -54.627400
  H    -75.634500  -18.945800  -54.782400
  H    -76.538400  -18.220300  -53.511900
  C    -76.100100  -16.848600  -55.195200
  H    -75.957000  -16.874000  -56.258100
  H    -75.170900  -16.540300  -54.754500
  C    -77.059800  -15.756400  -54.816500
  H    -77.500300  -15.854200  -53.763400
  H    -77.889800  -15.556300  -55.526800
  H    -76.510200  -14.777600  -54.886600
  H    -79.454500  -19.273800  -49.254200
  H    -79.748800  -19.966900  -57.659500

 Total Charge           Charge          ....    0
 Multiplicity           Mult            ....    1
 Number of Electrons    NEL             ....  134
 Basis Dimension        Dim             ....  322

ORBITAL ENERGIES
----------------

  NO   OCC          E(Eh)            E(eV)
   0   2.0000     -88.970056     -2420.9983
   1   2.0000     -88.960636     -2420.7420
   2   2.0000     -10.333285      -281.1830
   3   2.0000     -10.327972      -281.0384
   4   2.0000     -10.319598      -280.8105
   5   2.0000     -10.315302      -280.6936
   6   2.0000     -10.305152      -280.4174
   7   2.0000     -10.297936      -280.2211
   8   2.0000     -10.294737      -280.1340
   9   2.0000     -10.291689      -280.0511
  10   2.0000     -10.291640      -280.0498
  11   2.0000     -10.289320      -279.9866
  12   2.0000     -10.288140      -279.9545
  13   2.0000     -10.284584      -279.8577
  14   2.0000     -10.283862      -279.8381
  15   2.0000     -10.270613      -279.4776
  16   2.0000      -8.084319      -219.9855
  17   2.0000      -8.075045      -219.7331
  18   2.0000      -6.042806      -164.4331
  19   2.0000      -6.038898      -164.3268
  20   2.0000      -6.035121      -164.2240
  21   2.0000      -6.033703      -164.1854
  22   2.0000      -6.029634      -164.0747
  23   2.0000      -6.025618      -163.9654
  24   2.0000      -1.000682       -27.2299
  25   2.0000      -0.981689       -26.7131
  26   2.0000      -0.912435       -24.8286
  27   2.0000      -0.902630       -24.5618
  28   2.0000      -0.865559       -23.5531
  29   2.0000      -0.849915       -23.1274
  30   2.0000      -0.843735       -22.9592
  31   2.0000      -0.813903       -22.1474
  32   2.0000      -0.782529       -21.2937
  33   2.0000      -0.769527       -20.9399
  34   2.0000      -0.707861       -19.2619
  35   2.0000      -0.700037       -19.0490
  36   2.0000      -0.690872       -18.7996
  37   2.0000      -0.652943       -17.7675
  38   2.0000      -0.640880       -17.4392
  39   2.0000      -0.613593       -16.6967
  40   2.0000      -0.592493       -16.1226
  41   2.0000      -0.572674       -15.5832
  42   2.0000      -0.556562       -15.1448
  43   2.0000      -0.553038       -15.0489
  44   2.0000      -0.543738       -14.7959
  45   2.0000      -0.538445       -14.6518
  46   2.0000      -0.514668       -14.0048
  47   2.0000      -0.511925       -13.9302
  48   2.0000      -0.493565       -13.4306
  49   2.0000      -0.491002       -13.3608
  50   2.0000      -0.487409       -13.2631
  51   2.0000      -0.478232       -13.0133
  52   2.0000      -0.466390       -12.6911
  53   2.0000      -0.461901       -12.5690
  54   2.0000      -0.458142       -12.4667
  55   2.0000      -0.446731       -12.1562
  56   2.0000      -0.441166       -12.0047
  57   2.0000      -0.436117       -11.8674
  58   2.0000      -0.432433       -11.7671
  59   2.0000      -0.429925       -11.6988
  60   2.0000      -0.423931       -11.5357
  61   2.0000      -0.417337       -11.3563
  62   2.0000      -0.406774       -11.0689
  63   2.0000      -0.341508        -9.2929
  64   2.0000      -0.328696        -8.9443
  65   2.0000      -0.324287        -8.8243
  66   2.0000      -0.305693        -8.3183
  67   0.0000       0.040521         1.1026
  68   0.0000       0.052733         1.4349
  69   0.0000       0.113487         3.0881
  70   0.0000       0.121594         3.3087
  71   0.0000       0.128824         3.5055

MULLIKEN ATOMIC CHARGES
-----------------------
   0 S :    0.125763
   1 C :   -0.113067
   2 C :   -0.126475
   3 C :    0.069610
   4 C :   -0.204978
   5 H :   -0.000458
   6 C :    0.083307
   7 H :    0.022762
   8 H :    0.023797
   9 C :   -0.058281
  10 H :    0.031501
  11 H :    0.019832
  12 C :   -0.027704
  13 H :    0.030087
  14 H :    0.034401
  15 H :    0.012345
  16 S :    0.094726
  17 C :   -0.105604
  18 C :    0.000034
  19 C :   -0.039084
  20 C :   -0.159059
  21 H :    0.004587
  22 C :    0.057610
  23 H :    0.026272
  24 H :    0.034592
  25 C :   -0.035864
  26 H :    0.025890
  27 H :    0.025145
  28 C :   -0.102072
  29 H :    0.045435
  30 H :    0.039464
  31 H :    0.031895
  32 H :    0.054467
  33 H :    0.079125
Sum of atomic charges:   -0.0000000

LOEWDIN ATOMIC CHARGES
----------------------
   0 S :    0.408526
   1 C :   -0.206232
   2 C :   -0.069383
   3 C :   -0.047276
   4 C :   -0.187413
   5 H :    0.023968
   6 C :   -0.025254
   7 H :    0.029114
   8 H :    0.029018
   9 C :   -0.040044
  10 H :    0.025267
  11 H :    0.022472
  12 C :   -0.061557
  13 H :    0.027353
  14 H :    0.025392
  15 H :    0.018228
  16 S :    0.378630
  17 C :   -0.182648
  18 C :   -0.075768
  19 C :   -0.048425
  20 C :   -0.199628
  21 H :    0.026013
  22 C :   -0.027270
  23 H :    0.024337
  24 H :    0.036079
  25 C :   -0.040011
  26 H :    0.021518
  27 H :    0.025474
  28 C :   -0.080322
  29 H :    0.031071
  30 H :    0.026773
  31 H :    0.031535
  32 H :    0.037255
  33 H :    0.043209

  Mayer bond orders larger than 0.100000
B(  0-S ,  1-C ) :   1.1505 B(  0-S ,  4-C ) :   1.1475 B(  1-C ,  2-C ) :   1.6290
B(  1-C , 32-H ) :   0.9523 B(  2-C ,  3-C ) :   1.2432 B(  2-C ,  6-C ) :   1.0203
B(  3-C ,  4-C ) :   1.5804 B(  3-C ,  5-H ) :   0.9954 B(  4-C , 20-C ) :   1.0065
B(  6-C ,  7-H ) :   0.9333 B(  6-C ,  8-H ) :   0.9472 B(  6-C ,  9-C ) :   1.0534
B(  9-C , 10-H ) :   0.9579 B(  9-C , 11-H ) :   0.9560 B(  9-C , 12-C ) :   1.0788
B( 12-C , 13-H ) :   0.9746 B( 12-C , 14-H ) :   0.9762 B( 12-C , 15-H ) :   0.9678
B( 16-S , 17-C ) :   1.1492 B( 16-S , 20-C ) :   1.1225 B( 17-C , 18-C ) :   1.6277
B( 17-C , 33-H ) :   0.9580 B( 18-C , 19-C ) :   1.2202 B( 18-C , 21-H ) :   0.9971
B( 19-C , 20-C ) :   1.6308 B( 19-C , 22-C ) :   1.0292 B( 22-C , 23-H ) :   0.9430
B( 22-C , 24-H ) :   0.9357 B( 22-C , 25-C ) :   1.0749 B( 25-C , 26-H ) :   0.9554
B( 25-C , 27-H ) :   0.9575 B( 25-C , 28-C ) :   1.0731 B( 28-C , 29-H ) :   0.9700
B( 28-C , 30-H ) :   0.9722 B( 28-C , 31-H ) :   0.9727

Dispersion correction           -0.015657789
FINAL SINGLE POINT ENERGY     -1339.882751526110

DIPOLE MOMENT
-------------
                                X             Y             Z
Electronic contribution:    -11.66760     -25.39148      -6.77996
Nuclear contribution   :     11.96296      25.99081       6.80651
                        -----------------------------------------
Total Dipole Moment    :      0.29536       0.59932       0.02655
                        -----------------------------------------
Magnitude (a.u.)       :      0.66868
Magnitude (Debye)      :      1.69965

Rotational constants in cm-1:     0.018910     0.009607     0.007334
Rotational constants in MHz :   566.920630   288.008676   219.863023

                             ****ORCA TERMINATED NORMALLY****
TOTAL RUN TIME: 0 days 0 hours 0 minutes 22 seconds 665 msec
