                         Program Version 4.2.1 -  RELEASE  -
|  1> ! wB97X-D3 SP def2-SVP
|  2> %pal
|  3> nprocs 24
|  4> end
|  5>
|  6> * xyz 0 1
|  7> S 	 3.52512 	 -23.5246 	 -112.559
|  8> C 	 4.16256 	 -22.4618 	 -111.408
|  9> C 	 3.7153 	 -21.1671 	 -111.478
| 10> C 	 3.08391 	 -21.0633 	 -112.786
| 11> C 	 2.82974 	 -22.2502 	 -113.356
| 12> H 	 2.76594 	 -20.2113 	 -113.334
| 13> C 	 4.16543 	 -19.9713 	 -110.675
| 14> H 	 3.99564 	 -19.0277 	 -111.313
| 15> H 	 5.27544 	 -20.0694 	 -110.564
| 16> C 	 3.62773 	 -19.8168 	 -109.27
| 17> H 	 3.90707 	 -20.7576 	 -108.691
| 18> H 	 4.12266 	 -18.9802 	 -108.875
| 19> C 	 2.15615 	 -19.6065 	 -109.063
| 20> H 	 1.91208 	 -19.6308 	 -107.952
| 21> H 	 1.76237 	 -18.5957 	 -109.358
| 22> H 	 1.57212 	 -20.3263 	 -109.606
| 23> S 	 0.431478 	 -22.2548 	 -114.497
| 24> C 	 0.20224 	 -22.853 	 -116.111
| 25> C 	 1.37904 	 -23.3449 	 -116.649
| 26> C 	 2.46797 	 -23.0496 	 -115.757
| 27> C 	 2.15643 	 -22.421 	 -114.586
| 28> H 	 1.54282 	 -23.9036 	 -117.511
| 29> C 	 3.91501 	 -23.3728 	 -116.129
| 30> H 	 4.59552 	 -22.9531 	 -115.407
| 31> H 	 4.13354 	 -22.7298 	 -117.034
| 32> C 	 4.27708 	 -24.7616 	 -116.518
| 33> H 	 5.26257 	 -24.9084 	 -117.004
| 34> H 	 3.59293 	 -25.0891 	 -117.216
| 35> C 	 4.32681 	 -25.6634 	 -115.196
| 36> H 	 4.32 	 -26.716 	 -115.556
| 37> H 	 3.48928 	 -25.5874 	 -114.565
| 38> H 	 5.24783 	 -25.5233 	 -114.634
| 39> H 	 4.78858 	 -22.6732 	 -110.558
| 40> H 	 -0.769358 	 -23.0825 	 -116.506
| 41> *
| 42>
| 43>                          ****END OF INPUT****

CARTESIAN COORDINATES (ANGSTROEM)
---------------------------------
  S      3.525120  -23.524600  -112.559000
  C      4.162560  -22.461800  -111.408000
  C      3.715300  -21.167100  -111.478000
  C      3.083910  -21.063300  -112.786000
  C      2.829740  -22.250200  -113.356000
  H      2.765940  -20.211300  -113.334000
  C      4.165430  -19.971300  -110.675000
  H      3.995640  -19.027700  -111.313000
  H      5.275440  -20.069400  -110.564000
  C      3.627730  -19.816800  -109.270000
  H      3.907070  -20.757600  -108.691000
  H      4.122660  -18.980200  -108.875000
  C      2.156150  -19.606500  -109.063000
  H      1.912080  -19.630800  -107.952000
  H      1.762370  -18.595700  -109.358000
  H      1.572120  -20.326300  -109.606000
  S      0.431478  -22.254800  -114.497000
  C      0.202240  -22.853000  -116.111000
  C      1.379040  -23.344900  -116.649000
  C      2.467970  -23.049600  -115.757000
  C      2.156430  -22.421000  -114.586000
  H      1.542820  -23.903600  -117.511000
  C      3.915010  -23.372800  -116.129000
  H      4.595520  -22.953100  -115.407000
  H      4.133540  -22.729800  -117.034000
  C      4.277080  -24.761600  -116.518000
  H      5.262570  -24.908400  -117.004000
  H      3.592930  -25.089100  -117.216000
  C      4.326810  -25.663400  -115.196000
  H      4.320000  -26.716000  -115.556000
  H      3.489280  -25.587400  -114.565000
  H      5.247830  -25.523300  -114.634000
  H      4.788580  -22.673200  -110.558000
  H     -0.769358  -23.082500  -116.506000

 Total Charge           Charge          ....    0
 Multiplicity           Mult            ....    1
 Number of Electrons    NEL             ....  134
 Basis Dimension        Dim             ....  322

ORBITAL ENERGIES
----------------

  NO   OCC          E(Eh)            E(eV)
   0   2.0000     -88.966956     -2420.9140
   1   2.0000     -88.960477     -2420.7376
   2   2.0000     -10.317446      -280.7520
   3   2.0000     -10.313798      -280.6527
   4   2.0000     -10.307804      -280.4896
   5   2.0000     -10.305143      -280.4172
   6   2.0000     -10.300580      -280.2930
   7   2.0000     -10.299260      -280.2571
   8   2.0000     -10.298622      -280.2398
   9   2.0000     -10.292087      -280.0619
  10   2.0000     -10.285372      -279.8792
  11   2.0000     -10.284505      -279.8556
  12   2.0000     -10.283504      -279.8284
  13   2.0000     -10.282418      -279.7988
  14   2.0000     -10.278731      -279.6985
  15   2.0000     -10.271643      -279.5056
  16   2.0000      -8.084083      -219.9791
  17   2.0000      -8.076094      -219.7617
  18   2.0000      -6.042340      -164.4204
  19   2.0000      -6.038308      -164.3107
  20   2.0000      -6.034864      -164.2170
  21   2.0000      -6.034515      -164.2075
  22   2.0000      -6.030446      -164.0968
  23   2.0000      -6.026903      -164.0004
  24   2.0000      -1.025842       -27.9146
  25   2.0000      -0.993138       -27.0247
  26   2.0000      -0.917075       -24.9549
  27   2.0000      -0.907870       -24.7044
  28   2.0000      -0.878437       -23.9035
  29   2.0000      -0.855219       -23.2717
  30   2.0000      -0.841334       -22.8939
  31   2.0000      -0.816100       -22.2072
  32   2.0000      -0.785751       -21.3814
  33   2.0000      -0.771787       -21.0014
  34   2.0000      -0.708871       -19.2894
  35   2.0000      -0.700004       -19.0481
  36   2.0000      -0.695727       -18.9317
  37   2.0000      -0.665998       -18.1227
  38   2.0000      -0.646524       -17.5928
  39   2.0000      -0.607042       -16.5185
  40   2.0000      -0.600467       -16.3395
  41   2.0000      -0.579786       -15.7768
  42   2.0000      -0.557626       -15.1738
  43   2.0000      -0.549584       -14.9549
  44   2.0000      -0.541794       -14.7430
  45   2.0000      -0.540030       -14.6950
  46   2.0000      -0.518752       -14.1159
  47   2.0000      -0.509742       -13.8708
  48   2.0000      -0.501169       -13.6375
  49   2.0000      -0.497026       -13.5248
  50   2.0000      -0.492628       -13.4051
  51   2.0000      -0.473185       -12.8760
  52   2.0000      -0.469920       -12.7872
  53   2.0000      -0.468575       -12.7506
  54   2.0000      -0.464543       -12.6409
  55   2.0000      -0.457098       -12.4383
  56   2.0000      -0.446948       -12.1621
  57   2.0000      -0.435775       -11.8581
  58   2.0000      -0.428418       -11.6579
  59   2.0000      -0.424088       -11.5400
  60   2.0000      -0.416914       -11.3448
  61   2.0000      -0.412144       -11.2150
  62   2.0000      -0.403377       -10.9764
  63   2.0000      -0.337418        -9.1816
  64   2.0000      -0.332773        -9.0552
  65   2.0000      -0.322854        -8.7853
  66   2.0000      -0.304417        -8.2836
  67   0.0000       0.042840         1.1657
  68   0.0000       0.069276         1.8851
  69   0.0000       0.108089         2.9413
  70   0.0000       0.118188         3.2161
  71   0.0000       0.132802         3.6137

MULLIKEN ATOMIC CHARGES
-----------------------
   0 S :    0.156284
   1 C :   -0.099141
   2 C :   -0.063563
   3 C :    0.014727
   4 C :   -0.154761
   5 H :   -0.005536
   6 C :    0.006810
   7 H :    0.039993
   8 H :    0.043919
   9 C :   -0.049454
  10 H :    0.034001
  11 H :    0.020477
  12 C :   -0.069251
  13 H :    0.041486
  14 H :    0.026659
  15 H :    0.038540
  16 S :    0.104673
  17 C :   -0.071233
  18 C :    0.006008
  19 C :   -0.069622
  20 C :   -0.161404
  21 H :   -0.003944
  22 C :    0.043780
  23 H :    0.017700
  24 H :    0.033662
  25 C :   -0.033119
  26 H :    0.034509
  27 H :    0.002841
  28 C :   -0.065098
  29 H :    0.025680
  30 H :    0.030768
  31 H :    0.037019
  32 H :    0.030509
  33 H :    0.056084
Sum of atomic charges:   -0.0000000

LOEWDIN ATOMIC CHARGES
----------------------
   0 S :    0.488379
   1 C :   -0.211000
   2 C :   -0.065690
   3 C :   -0.054760
   4 C :   -0.242344
   5 H :    0.025024
   6 C :   -0.040624
   7 H :    0.038981
   8 H :    0.041025
   9 C :   -0.047143
  10 H :    0.032133
  11 H :    0.020354
  12 C :   -0.072535
  13 H :    0.035184
  14 H :    0.025812
  15 H :    0.022272
  16 S :    0.421691
  17 C :   -0.178890
  18 C :   -0.061273
  19 C :   -0.055011
  20 C :   -0.210610
  21 H :    0.021147
  22 C :   -0.040568
  23 H :    0.023229
  24 H :    0.037968
  25 C :   -0.033821
  26 H :    0.032206
  27 H :    0.008504
  28 C :   -0.066291
  29 H :    0.026926
  30 H :    0.006634
  31 H :    0.024191
  32 H :    0.023416
  33 H :    0.025484

  Mayer bond orders larger than 0.100000
B(  0-S ,  1-C ) :   1.1628 B(  0-S ,  4-C ) :   1.1470 B(  1-C ,  2-C ) :   1.6281
B(  1-C , 32-H ) :   0.9577 B(  2-C ,  3-C ) :   1.1970 B(  2-C ,  6-C ) :   1.0129
B(  3-C ,  4-C ) :   1.6042 B(  3-C ,  5-H ) :   0.9976 B(  4-C , 20-C ) :   1.0309
B(  6-C ,  7-H ) :   0.9471 B(  6-C ,  8-H ) :   0.9419 B(  6-C ,  9-C ) :   1.0757
B(  9-C , 10-H ) :   0.9527 B(  9-C , 11-H ) :   0.9496 B(  9-C , 12-C ) :   1.0860
B( 12-C , 13-H ) :   0.9722 B( 12-C , 14-H ) :   0.9725 B( 12-C , 15-H ) :   0.9750
B( 16-S , 17-C ) :   1.1782 B( 16-S , 20-C ) :   1.1366 B( 17-C , 18-C ) :   1.5706
B( 17-C , 33-H ) :   0.9680 B( 18-C , 19-C ) :   1.2511 B( 18-C , 21-H ) :   1.0028
B( 19-C , 20-C ) :   1.6057 B( 19-C , 22-C ) :   1.0384 B( 22-C , 23-H ) :   0.9415
B( 22-C , 24-H ) :   0.9314 B( 22-C , 25-C ) :   1.0763 B( 25-C , 26-H ) :   0.9526
B( 25-C , 27-H ) :   0.9571 B( 25-C , 28-C ) :   1.0647 B( 28-C , 29-H ) :   0.9743
B( 28-C , 30-H ) :   0.9788 B( 28-C , 31-H ) :   0.9778

Dispersion correction           -0.014955848
FINAL SINGLE POINT ENERGY     -1339.859304164341

DIPOLE MOMENT
-------------
                                X             Y             Z
Electronic contribution:    -10.29316      -2.77502      -6.50832
Nuclear contribution   :     10.62925       2.80742       6.47584
                        -----------------------------------------
Total Dipole Moment    :      0.33609       0.03240      -0.03247
                        -----------------------------------------
Magnitude (a.u.)       :      0.33920
Magnitude (Debye)      :      0.86219

Rotational constants in cm-1:     0.024219     0.008368     0.006813
Rotational constants in MHz :   726.062826   250.876939   204.250480

                             ****ORCA TERMINATED NORMALLY****
TOTAL RUN TIME: 0 days 0 hours 0 minutes 20 seconds 923 msec
