                         Program Version 4.2.1 -  RELEASE  -
|  1> ! wB97X-D3 SP def2-SVP
|  2> %pal
|  3> nprocs 24
|  4> end
|  5>
|  6> * xyz 0 1
|  7> S 	 -34.4086 	 6.89793 	 14.5562
|  8> C 	 -34.9279 	 7.56315 	 13.0567
|  9> C 	 -35.5453 	 8.79114 	 13.1857
| 10> C 	 -35.8424 	 9.10795 	 14.5983
| 11> C 	 -35.4081 	 8.05388 	 15.4188
| 12> H 	 -36.4702 	 9.89758 	 14.8865
| 13> C 	 -35.9606 	 9.74493 	 12.0971
| 14> H 	 -37.0585 	 9.75499 	 12.053
| 15> H 	 -35.6492 	 9.29742 	 11.1509
| 16> C 	 -35.4504 	 11.219 	 12.2372
| 17> H 	 -35.9903 	 11.8772 	 11.5803
| 18> H 	 -35.7551 	 11.5696 	 13.2228
| 19> C 	 -33.896 	 11.3201 	 12.2129
| 20> H 	 -33.4487 	 11.0232 	 11.2852
| 21> H 	 -33.5874 	 12.3549 	 12.3417
| 22> H 	 -33.3832 	 10.8007 	 12.9621
| 23> S 	 -33.8985 	 8.4378 	 17.7235
| 24> C 	 -34.6313 	 7.99109 	 19.2812
| 25> C 	 -36.0083 	 7.86706 	 19.1535
| 26> C 	 -36.5076 	 7.96012 	 17.8249
| 27> C 	 -35.4683 	 8.09598 	 16.8684
| 28> H 	 -36.5923 	 7.66936 	 20.069
| 29> C 	 -37.9417 	 7.5915 	 17.502
| 30> H 	 -38.1986 	 6.79825 	 18.225
| 31> H 	 -37.9604 	 7.15732 	 16.4767
| 32> C 	 -38.9105 	 8.77697 	 17.5506
| 33> H 	 -38.5845 	 9.38874 	 16.65
| 34> H 	 -38.7735 	 9.419 	 18.4204
| 35> C 	 -40.4197 	 8.21543 	 17.3266
| 36> H 	 -40.4328 	 7.63573 	 16.3903
| 37> H 	 -41.1591 	 9.09107 	 17.2682
| 38> H 	 -40.6351 	 7.64456 	 18.2638
| 39> H 	 -34.5189 	 7.29369 	 12.1583
| 40> H 	 -34.1383 	 8.13408 	 20.2186
| 41> *
| 42>
| 43>                          ****END OF INPUT****

CARTESIAN COORDINATES (ANGSTROEM)
---------------------------------
  S    -34.408600    6.897930   14.556200
  C    -34.927900    7.563150   13.056700
  C    -35.545300    8.791140   13.185700
  C    -35.842400    9.107950   14.598300
  C    -35.408100    8.053880   15.418800
  H    -36.470200    9.897580   14.886500
  C    -35.960600    9.744930   12.097100
  H    -37.058500    9.754990   12.053000
  H    -35.649200    9.297420   11.150900
  C    -35.450400   11.219000   12.237200
  H    -35.990300   11.877200   11.580300
  H    -35.755100   11.569600   13.222800
  C    -33.896000   11.320100   12.212900
  H    -33.448700   11.023200   11.285200
  H    -33.587400   12.354900   12.341700
  H    -33.383200   10.800700   12.962100
  S    -33.898500    8.437800   17.723500
  C    -34.631300    7.991090   19.281200
  C    -36.008300    7.867060   19.153500
  C    -36.507600    7.960120   17.824900
  C    -35.468300    8.095980   16.868400
  H    -36.592300    7.669360   20.069000
  C    -37.941700    7.591500   17.502000
  H    -38.198600    6.798250   18.225000
  H    -37.960400    7.157320   16.476700
  C    -38.910500    8.776970   17.550600
  H    -38.584500    9.388740   16.650000
  H    -38.773500    9.419000   18.420400
  C    -40.419700    8.215430   17.326600
  H    -40.432800    7.635730   16.390300
  H    -41.159100    9.091070   17.268200
  H    -40.635100    7.644560   18.263800
  H    -34.518900    7.293690   12.158300
  H    -34.138300    8.134080   20.218600

 Total Charge           Charge          ....    0
 Multiplicity           Mult            ....    1
 Number of Electrons    NEL             ....  134
 Basis Dimension        Dim             ....  322

ORBITAL ENERGIES
----------------

  NO   OCC          E(Eh)            E(eV)
   0   2.0000     -88.968816     -2420.9646
   1   2.0000     -88.961549     -2420.7668
   2   2.0000     -10.332947      -281.1738
   3   2.0000     -10.332071      -281.1500
   4   2.0000     -10.316710      -280.7320
   5   2.0000     -10.306857      -280.4638
   6   2.0000     -10.306143      -280.4444
   7   2.0000     -10.303886      -280.3830
   8   2.0000     -10.298760      -280.2435
   9   2.0000     -10.295728      -280.1610
  10   2.0000     -10.295703      -280.1603
  11   2.0000     -10.295323      -280.1500
  12   2.0000     -10.295211      -280.1469
  13   2.0000     -10.293295      -280.0948
  14   2.0000     -10.292812      -280.0816
  15   2.0000     -10.271337      -279.4973
  16   2.0000      -8.083952      -219.9755
  17   2.0000      -8.075015      -219.7323
  18   2.0000      -6.042422      -164.4227
  19   2.0000      -6.038558      -164.3175
  20   2.0000      -6.034557      -164.2086
  21   2.0000      -6.033581      -164.1821
  22   2.0000      -6.029788      -164.0789
  23   2.0000      -6.025713      -163.9680
  24   2.0000      -1.001309       -27.2470
  25   2.0000      -0.975701       -26.5502
  26   2.0000      -0.908063       -24.7096
  27   2.0000      -0.901000       -24.5174
  28   2.0000      -0.868124       -23.6229
  29   2.0000      -0.846694       -23.0397
  30   2.0000      -0.838256       -22.8101
  31   2.0000      -0.810122       -22.0446
  32   2.0000      -0.781905       -21.2767
  33   2.0000      -0.766198       -20.8493
  34   2.0000      -0.713869       -19.4254
  35   2.0000      -0.702152       -19.1065
  36   2.0000      -0.690545       -18.7907
  37   2.0000      -0.657490       -17.8912
  38   2.0000      -0.645205       -17.5569
  39   2.0000      -0.618375       -16.8268
  40   2.0000      -0.590973       -16.0812
  41   2.0000      -0.564240       -15.3538
  42   2.0000      -0.557038       -15.1578
  43   2.0000      -0.548258       -14.9189
  44   2.0000      -0.540785       -14.7155
  45   2.0000      -0.518741       -14.1157
  46   2.0000      -0.513988       -13.9863
  47   2.0000      -0.503589       -13.7034
  48   2.0000      -0.502357       -13.6698
  49   2.0000      -0.499056       -13.5800
  50   2.0000      -0.493654       -13.4330
  51   2.0000      -0.475418       -12.9368
  52   2.0000      -0.469568       -12.7776
  53   2.0000      -0.469114       -12.7652
  54   2.0000      -0.454773       -12.3750
  55   2.0000      -0.449003       -12.2180
  56   2.0000      -0.441845       -12.0232
  57   2.0000      -0.438524       -11.9328
  58   2.0000      -0.435045       -11.8382
  59   2.0000      -0.428229       -11.6527
  60   2.0000      -0.420466       -11.4415
  61   2.0000      -0.418747       -11.3947
  62   2.0000      -0.409112       -11.1325
  63   2.0000      -0.338411        -9.2086
  64   2.0000      -0.329106        -8.9554
  65   2.0000      -0.322034        -8.7630
  66   2.0000      -0.298739        -8.1291
  67   0.0000       0.029244         0.7958
  68   0.0000       0.054041         1.4705
  69   0.0000       0.109709         2.9853
  70   0.0000       0.113506         3.0887
  71   0.0000       0.126060         3.4303

MULLIKEN ATOMIC CHARGES
-----------------------
   0 S :    0.123965
   1 C :   -0.056278
   2 C :   -0.125527
   3 C :    0.053190
   4 C :   -0.164439
   5 H :    0.011768
   6 C :    0.062382
   7 H :    0.039008
   8 H :    0.010811
   9 C :   -0.055655
  10 H :    0.028591
  11 H :    0.019538
  12 C :   -0.027070
  13 H :    0.020173
  14 H :    0.025125
  15 H :    0.031999
  16 S :    0.081426
  17 C :   -0.082979
  18 C :   -0.059265
  19 C :    0.013016
  20 C :   -0.181640
  21 H :    0.031075
  22 C :    0.025782
  23 H :    0.030030
  24 H :    0.040167
  25 C :   -0.105643
  26 H :    0.033097
  27 H :    0.037917
  28 C :   -0.076217
  29 H :    0.050060
  30 H :    0.051077
  31 H :    0.047941
  32 H :    0.011634
  33 H :    0.054939
Sum of atomic charges:    0.0000000

LOEWDIN ATOMIC CHARGES
----------------------
   0 S :    0.421629
   1 C :   -0.195345
   2 C :   -0.056349
   3 C :   -0.042219
   4 C :   -0.199986
   5 H :    0.022604
   6 C :   -0.034665
   7 H :    0.034646
   8 H :    0.025352
   9 C :   -0.032202
  10 H :    0.023931
  11 H :    0.022304
  12 C :   -0.059868
  13 H :    0.020546
  14 H :    0.027964
  15 H :    0.022011
  16 S :    0.359523
  17 C :   -0.175164
  18 C :   -0.075139
  19 C :   -0.055439
  20 C :   -0.176567
  21 H :    0.036335
  22 C :   -0.036602
  23 H :    0.029095
  24 H :    0.036227
  25 C :   -0.044018
  26 H :    0.026825
  27 H :    0.021018
  28 C :   -0.072092
  29 H :    0.029261
  30 H :    0.032647
  31 H :    0.030046
  32 H :    0.008646
  33 H :    0.025043

  Mayer bond orders larger than 0.100000
B(  0-S ,  1-C ) :   1.1339 B(  0-S ,  4-C ) :   1.1539 B(  1-C ,  2-C ) :   1.6381
B(  1-C , 32-H ) :   0.9659 B(  2-C ,  3-C ) :   1.2099 B(  2-C ,  6-C ) :   1.0298
B(  3-C ,  4-C ) :   1.5717 B(  3-C ,  5-H ) :   0.9966 B(  4-C , 20-C ) :   1.0457
B(  6-C ,  7-H ) :   0.9384 B(  6-C ,  8-H ) :   0.9423 B(  6-C ,  9-C ) :   1.0675
B(  9-C , 10-H ) :   0.9589 B(  9-C , 11-H ) :   0.9546 B(  9-C , 12-C ) :   1.0655
B( 12-C , 13-H ) :   0.9783 B( 12-C , 14-H ) :   0.9740 B( 12-C , 15-H ) :   0.9757
B( 16-S , 17-C ) :   1.1370 B( 16-S , 20-C ) :   1.1365 B( 17-C , 18-C ) :   1.6285
B( 17-C , 20-C ) :   0.1081 B( 17-C , 33-H ) :   0.9667 B( 18-C , 19-C ) :   1.2342
B( 18-C , 21-H ) :   0.9822 B( 19-C , 20-C ) :   1.5865 B( 19-C , 22-C ) :   1.0350
B( 22-C , 23-H ) :   0.9484 B( 22-C , 24-H ) :   0.9380 B( 22-C , 25-C ) :   1.0441
B( 25-C , 26-H ) :   0.9541 B( 25-C , 27-H ) :   0.9650 B( 25-C , 28-C ) :   1.0567
B( 28-C , 29-H ) :   0.9739 B( 28-C , 30-H ) :   0.9775 B( 28-C , 31-H ) :   0.9780

Dispersion correction           -0.014304531
FINAL SINGLE POINT ENERGY     -1339.868247358587

DIPOLE MOMENT
-------------
                                X             Y             Z
Electronic contribution:     17.74814     -12.61125       8.39396
Nuclear contribution   :    -18.18672      12.99004      -8.53534
                        -----------------------------------------
Total Dipole Moment    :     -0.43858       0.37879      -0.14138
                        -----------------------------------------
Magnitude (a.u.)       :      0.59651
Magnitude (Debye)      :      1.51620

Rotational constants in cm-1:     0.017069     0.008725     0.007079
Rotational constants in MHz :   511.708095   261.565692   212.221336

                             ****ORCA TERMINATED NORMALLY****
TOTAL RUN TIME: 0 days 0 hours 0 minutes 21 seconds 421 msec
