                         Program Version 4.2.1 -  RELEASE  -
|  1> ! wB97X-D3 SP def2-SVP
|  2> %pal
|  3> nprocs 24
|  4> end
|  5>
|  6> * xyz 0 1
|  7> S 	 -40.5428 	 14.0213 	 30.3802
|  8> C 	 -39.6565 	 15.4634 	 30.22
|  9> C 	 -40.4047 	 16.6054 	 30.4706
| 10> C 	 -41.795 	 16.2101 	 30.5143
| 11> C 	 -42.0672 	 14.8404 	 30.5465
| 12> H 	 -42.5892 	 16.9319 	 30.4924
| 13> C 	 -39.9636 	 18.0998 	 30.4844
| 14> H 	 -40.8012 	 18.675 	 30.0756
| 15> H 	 -39.2436 	 18.2035 	 29.6886
| 16> C 	 -39.5508 	 18.5292 	 31.8667
| 17> H 	 -38.5774 	 18.1965 	 32.2974
| 18> H 	 -39.5324 	 19.588 	 31.7456
| 19> C 	 -40.6347 	 18.2136 	 32.9307
| 20> H 	 -41.6395 	 18.4104 	 32.5306
| 21> H 	 -40.5748 	 17.1568 	 33.1424
| 22> H 	 -40.5207 	 18.7543 	 33.8946
| 23> S 	 -43.4979 	 13.0132 	 29.0144
| 24> C 	 -45.2327 	 12.7548 	 29.4013
| 25> C 	 -45.6372 	 13.5921 	 30.4626
| 26> C 	 -44.5579 	 14.3848 	 30.9958
| 27> C 	 -43.3665 	 14.2483 	 30.2668
| 28> H 	 -46.6375 	 13.5194 	 30.7639
| 29> C 	 -44.8159 	 15.3134 	 32.1853
| 30> H 	 -43.8973 	 15.7297 	 32.5427
| 31> H 	 -45.0505 	 14.556 	 32.9439
| 32> C 	 -45.925 	 16.3053 	 32.0194
| 33> H 	 -46.0944 	 16.7712 	 33.0105
| 34> H 	 -46.824 	 15.7818 	 31.7486
| 35> C 	 -45.497 	 17.3502 	 31.0451
| 36> H 	 -44.5828 	 17.9108 	 31.254
| 37> H 	 -46.2194 	 18.1165 	 30.9008
| 38> H 	 -45.3454 	 16.7287 	 30.1394
| 39> H 	 -38.5415 	 15.4946 	 30.0345
| 40> H 	 -45.9254 	 12.0162 	 29.016
| 41> *
| 42>
| 43>                          ****END OF INPUT****

CARTESIAN COORDINATES (ANGSTROEM)
---------------------------------
  S    -40.542800   14.021300   30.380200
  C    -39.656500   15.463400   30.220000
  C    -40.404700   16.605400   30.470600
  C    -41.795000   16.210100   30.514300
  C    -42.067200   14.840400   30.546500
  H    -42.589200   16.931900   30.492400
  C    -39.963600   18.099800   30.484400
  H    -40.801200   18.675000   30.075600
  H    -39.243600   18.203500   29.688600
  C    -39.550800   18.529200   31.866700
  H    -38.577400   18.196500   32.297400
  H    -39.532400   19.588000   31.745600
  C    -40.634700   18.213600   32.930700
  H    -41.639500   18.410400   32.530600
  H    -40.574800   17.156800   33.142400
  H    -40.520700   18.754300   33.894600
  S    -43.497900   13.013200   29.014400
  C    -45.232700   12.754800   29.401300
  C    -45.637200   13.592100   30.462600
  C    -44.557900   14.384800   30.995800
  C    -43.366500   14.248300   30.266800
  H    -46.637500   13.519400   30.763900
  C    -44.815900   15.313400   32.185300
  H    -43.897300   15.729700   32.542700
  H    -45.050500   14.556000   32.943900
  C    -45.925000   16.305300   32.019400
  H    -46.094400   16.771200   33.010500
  H    -46.824000   15.781800   31.748600
  C    -45.497000   17.350200   31.045100
  H    -44.582800   17.910800   31.254000
  H    -46.219400   18.116500   30.900800
  H    -45.345400   16.728700   30.139400
  H    -38.541500   15.494600   30.034500
  H    -45.925400   12.016200   29.016000

 Total Charge           Charge          ....    0
 Multiplicity           Mult            ....    1
 Number of Electrons    NEL             ....  134
 Basis Dimension        Dim             ....  322

ORBITAL ENERGIES
----------------

  NO   OCC          E(Eh)            E(eV)
   0   2.0000     -88.967625     -2420.9322
   1   2.0000     -88.966348     -2420.8974
   2   2.0000     -10.328916      -281.0641
   3   2.0000     -10.325346      -280.9670
   4   2.0000     -10.322936      -280.9014
   5   2.0000     -10.317249      -280.7466
   6   2.0000     -10.305367      -280.4233
   7   2.0000     -10.302119      -280.3349
   8   2.0000     -10.298633      -280.2401
   9   2.0000     -10.294672      -280.1323
  10   2.0000     -10.293164      -280.0912
  11   2.0000     -10.288760      -279.9714
  12   2.0000     -10.284552      -279.8569
  13   2.0000     -10.283415      -279.8259
  14   2.0000     -10.278170      -279.6832
  15   2.0000     -10.271976      -279.5147
  16   2.0000      -8.082003      -219.9225
  17   2.0000      -8.081030      -219.8960
  18   2.0000      -6.040494      -164.3702
  19   2.0000      -6.039668      -164.3477
  20   2.0000      -6.036259      -164.2550
  21   2.0000      -6.035718      -164.2402
  22   2.0000      -6.032839      -164.1619
  23   2.0000      -6.031728      -164.1317
  24   2.0000      -1.005472       -27.3603
  25   2.0000      -0.978555       -26.6278
  26   2.0000      -0.919052       -25.0087
  27   2.0000      -0.914558       -24.8864
  28   2.0000      -0.867185       -23.5973
  29   2.0000      -0.847840       -23.0709
  30   2.0000      -0.841360       -22.8946
  31   2.0000      -0.811128       -22.0719
  32   2.0000      -0.785107       -21.3638
  33   2.0000      -0.773514       -21.0484
  34   2.0000      -0.704842       -19.1797
  35   2.0000      -0.701023       -19.0758
  36   2.0000      -0.693098       -18.8602
  37   2.0000      -0.658169       -17.9097
  38   2.0000      -0.638371       -17.3710
  39   2.0000      -0.615329       -16.7440
  40   2.0000      -0.595285       -16.1985
  41   2.0000      -0.576442       -15.6858
  42   2.0000      -0.564642       -15.3647
  43   2.0000      -0.555023       -15.1029
  44   2.0000      -0.548082       -14.9141
  45   2.0000      -0.535338       -14.5673
  46   2.0000      -0.519323       -14.1315
  47   2.0000      -0.507121       -13.7995
  48   2.0000      -0.499906       -13.6031
  49   2.0000      -0.492763       -13.4088
  50   2.0000      -0.489749       -13.3267
  51   2.0000      -0.472961       -12.8699
  52   2.0000      -0.467909       -12.7324
  53   2.0000      -0.463488       -12.6122
  54   2.0000      -0.457776       -12.4567
  55   2.0000      -0.451795       -12.2940
  56   2.0000      -0.442650       -12.0451
  57   2.0000      -0.440399       -11.9839
  58   2.0000      -0.437093       -11.8939
  59   2.0000      -0.428466       -11.6591
  60   2.0000      -0.422323       -11.4920
  61   2.0000      -0.409819       -11.1517
  62   2.0000      -0.405994       -11.0476
  63   2.0000      -0.347238        -9.4488
  64   2.0000      -0.329764        -8.9733
  65   2.0000      -0.327719        -8.9177
  66   2.0000      -0.288099        -7.8396
  67   0.0000       0.026968         0.7338
  68   0.0000       0.073070         1.9883
  69   0.0000       0.112629         3.0648
  70   0.0000       0.121630         3.3097
  71   0.0000       0.126032         3.4295

MULLIKEN ATOMIC CHARGES
-----------------------
   0 S :    0.118275
   1 C :   -0.150295
   2 C :   -0.115608
   3 C :    0.023806
   4 C :   -0.145213
   5 H :   -0.015602
   6 C :    0.073593
   7 H :    0.028290
   8 H :    0.026163
   9 C :   -0.040902
  10 H :    0.044239
  11 H :    0.022002
  12 C :   -0.075112
  13 H :    0.022037
  14 H :    0.047766
  15 H :    0.042918
  16 S :    0.106708
  17 C :   -0.100879
  18 C :   -0.029211
  19 C :   -0.084026
  20 C :   -0.133766
  21 H :    0.005598
  22 C :    0.083272
  23 H :    0.010087
  24 H :    0.030595
  25 C :   -0.032888
  26 H :    0.026392
  27 H :    0.024969
  28 C :   -0.046334
  29 H :    0.032977
  30 H :    0.023919
  31 H :    0.047833
  32 H :    0.069616
  33 H :    0.058779
Sum of atomic charges:    0.0000000

LOEWDIN ATOMIC CHARGES
----------------------
   0 S :    0.430264
   1 C :   -0.217148
   2 C :   -0.069807
   3 C :   -0.051431
   4 C :   -0.214797
   5 H :    0.019329
   6 C :   -0.026787
   7 H :    0.035036
   8 H :    0.030770
   9 C :   -0.040712
  10 H :    0.031253
  11 H :    0.021205
  12 C :   -0.065974
  13 H :    0.020839
  14 H :    0.025936
  15 H :    0.029724
  16 S :    0.385144
  17 C :   -0.174855
  18 C :   -0.065812
  19 C :   -0.054472
  20 C :   -0.197314
  21 H :    0.022314
  22 C :   -0.030929
  23 H :    0.024228
  24 H :    0.037106
  25 C :   -0.037176
  26 H :    0.026443
  27 H :    0.022258
  28 C :   -0.065466
  29 H :    0.023608
  30 H :    0.019773
  31 H :    0.035231
  32 H :    0.040184
  33 H :    0.032035

  Mayer bond orders larger than 0.100000
B(  0-S ,  1-C ) :   1.1753 B(  0-S ,  4-C ) :   1.1413 B(  1-C ,  2-C ) :   1.5851
B(  1-C , 32-H ) :   0.9556 B(  2-C ,  3-C ) :   1.2691 B(  2-C ,  6-C ) :   1.0032
B(  3-C ,  4-C ) :   1.5494 B(  3-C ,  5-H ) :   0.9860 B(  4-C , 20-C ) :   1.0601
B(  6-C ,  7-H ) :   0.9430 B(  6-C ,  8-H ) :   0.9443 B(  6-C ,  9-C ) :   1.0644
B(  9-C , 10-H ) :   0.9595 B(  9-C , 11-H ) :   0.9541 B(  9-C , 12-C ) :   1.0770
B( 12-C , 13-H ) :   0.9751 B( 12-C , 14-H ) :   0.9695 B( 12-C , 15-H ) :   0.9739
B( 16-S , 17-C ) :   1.1414 B( 16-S , 20-C ) :   1.1261 B( 17-C , 18-C ) :   1.6279
B( 17-C , 33-H ) :   0.9655 B( 18-C , 19-C ) :   1.2222 B( 18-C , 21-H ) :   0.9951
B( 19-C , 20-C ) :   1.5862 B( 19-C , 22-C ) :   1.0322 B( 22-C , 23-H ) :   0.9316
B( 22-C , 24-H ) :   0.9251 B( 22-C , 25-C ) :   1.0810 B( 25-C , 26-H ) :   0.9468
B( 25-C , 27-H ) :   0.9520 B( 25-C , 28-C ) :   1.0793 B( 28-C , 29-H ) :   0.9663
B( 28-C , 30-H ) :   0.9670 B( 28-C , 31-H ) :   0.9715

Dispersion correction           -0.015782117
FINAL SINGLE POINT ENERGY     -1339.873607547834

DIPOLE MOMENT
-------------
                                X             Y             Z
Electronic contribution:      5.21055     -24.59992     -13.06056
Nuclear contribution   :     -5.39405      25.18597      13.32190
                        -----------------------------------------
Total Dipole Moment    :     -0.18350       0.58605       0.26134
                        -----------------------------------------
Magnitude (a.u.)       :      0.66740
Magnitude (Debye)      :      1.69640

Rotational constants in cm-1:     0.019325     0.010033     0.007199
Rotational constants in MHz :   579.334254   300.778332   215.835043

                             ****ORCA TERMINATED NORMALLY****
TOTAL RUN TIME: 0 days 0 hours 0 minutes 22 seconds 943 msec
