                         Program Version 4.2.1 -  RELEASE  -
|  1> ! wB97X-D3 SP def2-SVP
|  2> %pal
|  3> nprocs 24
|  4> end
|  5>
|  6> * xyz 0 1
|  7> S 	 -51.3046 	 -46.3425 	 -75.9146
|  8> C 	 -52.2936 	 -46.2336 	 -77.3906
|  9> C 	 -51.5789 	 -45.4895 	 -78.3641
| 10> C 	 -50.3755 	 -44.964 	 -77.8247
| 11> C 	 -50.0466 	 -45.3975 	 -76.5613
| 12> H 	 -49.7969 	 -44.3264 	 -78.4183
| 13> C 	 -51.9527 	 -45.1701 	 -79.8316
| 14> H 	 -52.8428 	 -45.7571 	 -80.1059
| 15> H 	 -51.2044 	 -45.5392 	 -80.453
| 16> C 	 -52.3827 	 -43.757 	 -80.1808
| 17> H 	 -53.3295 	 -43.5106 	 -79.6556
| 18> H 	 -51.6199 	 -43.103 	 -79.7672
| 19> C 	 -52.5143 	 -43.4666 	 -81.6297
| 20> H 	 -53.4779 	 -43.7148 	 -82.0251
| 21> H 	 -52.5128 	 -42.349 	 -81.714
| 22> H 	 -51.7729 	 -43.8082 	 -82.3231
| 23> S 	 -48.8619 	 -45.4835 	 -74.0076
| 24> C 	 -47.2677 	 -44.7417 	 -73.7737
| 25> C 	 -46.7666 	 -44.2753 	 -75.0071
| 26> C 	 -47.6507 	 -44.4949 	 -76.1701
| 27> C 	 -48.8494 	 -45.076 	 -75.7766
| 28> H 	 -45.7214 	 -43.8385 	 -75.0658
| 29> C 	 -47.3542 	 -43.8208 	 -77.4669
| 30> H 	 -46.5513 	 -43.145 	 -77.3458
| 31> H 	 -48.284 	 -43.2045 	 -77.5957
| 32> C 	 -46.9013 	 -44.7454 	 -78.5714
| 33> H 	 -47.5751 	 -45.5627 	 -78.5629
| 34> H 	 -45.9093 	 -45.1106 	 -78.3087
| 35> C 	 -46.8601 	 -44.0122 	 -79.95
| 36> H 	 -47.6967 	 -43.3687 	 -80.1193
| 37> H 	 -46.652 	 -44.7088 	 -80.7319
| 38> H 	 -46.0598 	 -43.3269 	 -79.9384
| 39> H 	 -53.2348 	 -46.6652 	 -77.6793
| 40> H 	 -46.7766 	 -44.6463 	 -72.7835
| 41> *
| 42>
| 43>                          ****END OF INPUT****

CARTESIAN COORDINATES (ANGSTROEM)
---------------------------------
  S    -51.304600  -46.342500  -75.914600
  C    -52.293600  -46.233600  -77.390600
  C    -51.578900  -45.489500  -78.364100
  C    -50.375500  -44.964000  -77.824700
  C    -50.046600  -45.397500  -76.561300
  H    -49.796900  -44.326400  -78.418300
  C    -51.952700  -45.170100  -79.831600
  H    -52.842800  -45.757100  -80.105900
  H    -51.204400  -45.539200  -80.453000
  C    -52.382700  -43.757000  -80.180800
  H    -53.329500  -43.510600  -79.655600
  H    -51.619900  -43.103000  -79.767200
  C    -52.514300  -43.466600  -81.629700
  H    -53.477900  -43.714800  -82.025100
  H    -52.512800  -42.349000  -81.714000
  H    -51.772900  -43.808200  -82.323100
  S    -48.861900  -45.483500  -74.007600
  C    -47.267700  -44.741700  -73.773700
  C    -46.766600  -44.275300  -75.007100
  C    -47.650700  -44.494900  -76.170100
  C    -48.849400  -45.076000  -75.776600
  H    -45.721400  -43.838500  -75.065800
  C    -47.354200  -43.820800  -77.466900
  H    -46.551300  -43.145000  -77.345800
  H    -48.284000  -43.204500  -77.595700
  C    -46.901300  -44.745400  -78.571400
  H    -47.575100  -45.562700  -78.562900
  H    -45.909300  -45.110600  -78.308700
  C    -46.860100  -44.012200  -79.950000
  H    -47.696700  -43.368700  -80.119300
  H    -46.652000  -44.708800  -80.731900
  H    -46.059800  -43.326900  -79.938400
  H    -53.234800  -46.665200  -77.679300
  H    -46.776600  -44.646300  -72.783500

 Total Charge           Charge          ....    0
 Multiplicity           Mult            ....    1
 Number of Electrons    NEL             ....  134
 Basis Dimension        Dim             ....  322

ORBITAL ENERGIES
----------------

  NO   OCC          E(Eh)            E(eV)
   0   2.0000     -88.970946     -2421.0225
   1   2.0000     -88.966770     -2420.9089
   2   2.0000     -10.336190      -281.2620
   3   2.0000     -10.330422      -281.1051
   4   2.0000     -10.328040      -281.0402
   5   2.0000     -10.318696      -280.7860
   6   2.0000     -10.308220      -280.5009
   7   2.0000     -10.307032      -280.4686
   8   2.0000     -10.304004      -280.3862
   9   2.0000     -10.290087      -280.0075
  10   2.0000     -10.288993      -279.9777
  11   2.0000     -10.286366      -279.9062
  12   2.0000     -10.285558      -279.8843
  13   2.0000     -10.284798      -279.8636
  14   2.0000     -10.276720      -279.6438
  15   2.0000     -10.274448      -279.5820
  16   2.0000      -8.085536      -220.0186
  17   2.0000      -8.080180      -219.8729
  18   2.0000      -6.044193      -164.4708
  19   2.0000      -6.039980      -164.3562
  20   2.0000      -6.038960      -164.3285
  21   2.0000      -6.036219      -164.2539
  22   2.0000      -6.034958      -164.2196
  23   2.0000      -6.030660      -164.1026
  24   2.0000      -1.005917       -27.3724
  25   2.0000      -0.975502       -26.5448
  26   2.0000      -0.918303       -24.9883
  27   2.0000      -0.915466       -24.9111
  28   2.0000      -0.868389       -23.6301
  29   2.0000      -0.855734       -23.2857
  30   2.0000      -0.843411       -22.9504
  31   2.0000      -0.811040       -22.0695
  32   2.0000      -0.786910       -21.4129
  33   2.0000      -0.778154       -21.1746
  34   2.0000      -0.713319       -19.4104
  35   2.0000      -0.701315       -19.0837
  36   2.0000      -0.693986       -18.8843
  37   2.0000      -0.663395       -18.0519
  38   2.0000      -0.635875       -17.3031
  39   2.0000      -0.628964       -17.1150
  40   2.0000      -0.592309       -16.1175
  41   2.0000      -0.574797       -15.6410
  42   2.0000      -0.569153       -15.4874
  43   2.0000      -0.558337       -15.1931
  44   2.0000      -0.535341       -14.5674
  45   2.0000      -0.528238       -14.3741
  46   2.0000      -0.520813       -14.1720
  47   2.0000      -0.512876       -13.9561
  48   2.0000      -0.501884       -13.6570
  49   2.0000      -0.499360       -13.5883
  50   2.0000      -0.496212       -13.5026
  51   2.0000      -0.492024       -13.3887
  52   2.0000      -0.470513       -12.8033
  53   2.0000      -0.466049       -12.6818
  54   2.0000      -0.459128       -12.4935
  55   2.0000      -0.452138       -12.3033
  56   2.0000      -0.446496       -12.1498
  57   2.0000      -0.443511       -12.0685
  58   2.0000      -0.438547       -11.9335
  59   2.0000      -0.427461       -11.6318
  60   2.0000      -0.416079       -11.3221
  61   2.0000      -0.413984       -11.2651
  62   2.0000      -0.405494       -11.0341
  63   2.0000      -0.359049        -9.7702
  64   2.0000      -0.335749        -9.1362
  65   2.0000      -0.326648        -8.8886
  66   2.0000      -0.282119        -7.6769
  67   0.0000       0.017653         0.4804
  68   0.0000       0.084465         2.2984
  69   0.0000       0.088996         2.4217
  70   0.0000       0.113584         3.0908
  71   0.0000       0.130785         3.5588

MULLIKEN ATOMIC CHARGES
-----------------------
   0 S :    0.110890
   1 C :   -0.099728
   2 C :   -0.109478
   3 C :   -0.005302
   4 C :   -0.069901
   5 H :   -0.029727
   6 C :    0.082967
   7 H :    0.008061
   8 H :    0.018071
   9 C :   -0.073564
  10 H :    0.036173
  11 H :    0.018603
  12 C :   -0.032701
  13 H :    0.023409
  14 H :    0.030151
  15 H :    0.030525
  16 S :    0.083524
  17 C :   -0.105315
  18 C :   -0.051937
  19 C :   -0.068912
  20 C :   -0.101219
  21 H :    0.044791
  22 C :    0.016121
  23 H :    0.001748
  24 H :    0.055549
  25 C :   -0.056641
  26 H :    0.027787
  27 H :    0.027500
  28 C :    0.008837
  29 H :    0.020131
  30 H :    0.036593
  31 H :    0.007169
  32 H :    0.037066
  33 H :    0.078758
Sum of atomic charges:   -0.0000000

LOEWDIN ATOMIC CHARGES
----------------------
   0 S :    0.423006
   1 C :   -0.198354
   2 C :   -0.051436
   3 C :   -0.072694
   4 C :   -0.198878
   5 H :    0.015708
   6 C :   -0.030746
   7 H :    0.029698
   8 H :    0.022279
   9 C :   -0.043295
  10 H :    0.033437
  11 H :    0.018471
  12 C :   -0.066084
  13 H :    0.021828
  14 H :    0.036571
  15 H :    0.022930
  16 S :    0.359668
  17 C :   -0.184850
  18 C :   -0.077652
  19 C :   -0.054092
  20 C :   -0.170079
  21 H :    0.040554
  22 C :   -0.036860
  23 H :    0.023272
  24 H :    0.040682
  25 C :   -0.028708
  26 H :    0.016115
  27 H :    0.028420
  28 C :   -0.055410
  29 H :    0.021248
  30 H :    0.026105
  31 H :    0.019782
  32 H :    0.029133
  33 H :    0.040232

  Mayer bond orders larger than 0.100000
B(  0-S ,  1-C ) :   1.1312 B(  0-S ,  4-C ) :   1.1571 B(  1-C ,  2-C ) :   1.5984
B(  1-C , 32-H ) :   0.9668 B(  2-C ,  3-C ) :   1.2797 B(  2-C ,  6-C ) :   1.0248
B(  3-C ,  4-C ) :   1.5219 B(  3-C ,  5-H ) :   0.9970 B(  4-C , 20-C ) :   1.0817
B(  6-C ,  7-H ) :   0.9362 B(  6-C ,  8-H ) :   0.9401 B(  6-C ,  9-C ) :   1.0683
B(  9-C , 10-H ) :   0.9491 B(  9-C , 11-H ) :   0.9598 B(  9-C , 12-C ) :   1.0889
B( 12-C , 13-H ) :   0.9737 B( 12-C , 14-H ) :   0.9700 B( 12-C , 15-H ) :   0.9742
B( 16-S , 17-C ) :   1.1345 B( 16-S , 20-C ) :   1.1105 B( 17-C , 18-C ) :   1.6302
B( 17-C , 33-H ) :   0.9646 B( 18-C , 19-C ) :   1.2197 B( 18-C , 21-H ) :   0.9730
B( 19-C , 20-C ) :   1.6170 B( 19-C , 22-C ) :   1.0379 B( 22-C , 23-H ) :   0.9302
B( 22-C , 24-H ) :   0.9413 B( 22-C , 25-C ) :   1.0496 B( 25-C , 26-H ) :   0.9654
B( 25-C , 27-H ) :   0.9490 B( 25-C , 28-C ) :   1.0759 B( 28-C , 29-H ) :   0.9754
B( 28-C , 30-H ) :   0.9746 B( 28-C , 31-H ) :   0.9690

Dispersion correction           -0.014196292
FINAL SINGLE POINT ENERGY     -1339.867173976015

DIPOLE MOMENT
-------------
                                X             Y             Z
Electronic contribution:     -2.08434     -12.49287      31.58841
Nuclear contribution   :      2.36530      12.93130     -32.28181
                        -----------------------------------------
Total Dipole Moment    :      0.28095       0.43843      -0.69340
                        -----------------------------------------
Magnitude (a.u.)       :      0.86716
Magnitude (Debye)      :      2.20414

Rotational constants in cm-1:     0.018337     0.009217     0.006514
Rotational constants in MHz :   549.738861   276.327288   195.287405

                             ****ORCA TERMINATED NORMALLY****
TOTAL RUN TIME: 0 days 0 hours 0 minutes 20 seconds 911 msec
