                         Program Version 4.2.1 -  RELEASE  -
|  1> ! wB97X-D3 SP def2-SVP
|  2> %pal
|  3> nprocs 24
|  4> end
|  5>
|  6> * xyz 0 1
|  7> S 	 46.0276 	 -19.7634 	 -110.207
|  8> C 	 45.8545 	 -19.4085 	 -108.55
|  9> C 	 45.6398 	 -20.5916 	 -107.874
| 10> C 	 45.6421 	 -21.7905 	 -108.663
| 11> C 	 45.7897 	 -21.4723 	 -110.003
| 12> H 	 45.6446 	 -22.8207 	 -108.284
| 13> C 	 45.477 	 -20.6534 	 -106.386
| 14> H 	 45.2493 	 -21.6849 	 -106.079
| 15> H 	 44.63 	 -19.9648 	 -106.143
| 16> C 	 46.6891 	 -20.1104 	 -105.608
| 17> H 	 47.5915 	 -20.5937 	 -105.939
| 18> H 	 46.7758 	 -19.0992 	 -105.858
| 19> C 	 46.5949 	 -20.1832 	 -104.113
| 20> H 	 46.6489 	 -21.2115 	 -103.943
| 21> H 	 47.4482 	 -19.5611 	 -103.676
| 22> H 	 45.6547 	 -19.7325 	 -103.749
| 23> S 	 47.6643 	 -22.4984 	 -111.717
| 24> C 	 47.2091 	 -23.7127 	 -112.949
| 25> C 	 45.8609 	 -23.9378 	 -112.92
| 26> C 	 45.1815 	 -23.2688 	 -111.838
| 27> C 	 46.014 	 -22.3917 	 -111.093
| 28> H 	 45.5033 	 -24.5612 	 -113.771
| 29> C 	 43.6985 	 -23.2312 	 -111.605
| 30> H 	 43.5719 	 -22.8492 	 -110.578
| 31> H 	 43.3277 	 -24.2398 	 -111.553
| 32> C 	 42.9232 	 -22.3319 	 -112.553
| 33> H 	 43.053 	 -22.6422 	 -113.554
| 34> H 	 43.3547 	 -21.3781 	 -112.449
| 35> C 	 41.415 	 -22.3517 	 -112.199
| 36> H 	 41.3519 	 -21.8302 	 -111.272
| 37> H 	 41.1358 	 -23.4115 	 -112.274
| 38> H 	 40.8712 	 -21.8692 	 -112.962
| 39> H 	 45.8813 	 -18.408 	 -108.129
| 40> H 	 47.7521 	 -24.1881 	 -113.702
| 41> *
| 42>
| 43>                          ****END OF INPUT****

CARTESIAN COORDINATES (ANGSTROEM)
---------------------------------
  S     46.027600  -19.763400  -110.207000
  C     45.854500  -19.408500  -108.550000
  C     45.639800  -20.591600  -107.874000
  C     45.642100  -21.790500  -108.663000
  C     45.789700  -21.472300  -110.003000
  H     45.644600  -22.820700  -108.284000
  C     45.477000  -20.653400  -106.386000
  H     45.249300  -21.684900  -106.079000
  H     44.630000  -19.964800  -106.143000
  C     46.689100  -20.110400  -105.608000
  H     47.591500  -20.593700  -105.939000
  H     46.775800  -19.099200  -105.858000
  C     46.594900  -20.183200  -104.113000
  H     46.648900  -21.211500  -103.943000
  H     47.448200  -19.561100  -103.676000
  H     45.654700  -19.732500  -103.749000
  S     47.664300  -22.498400  -111.717000
  C     47.209100  -23.712700  -112.949000
  C     45.860900  -23.937800  -112.920000
  C     45.181500  -23.268800  -111.838000
  C     46.014000  -22.391700  -111.093000
  H     45.503300  -24.561200  -113.771000
  C     43.698500  -23.231200  -111.605000
  H     43.571900  -22.849200  -110.578000
  H     43.327700  -24.239800  -111.553000
  C     42.923200  -22.331900  -112.553000
  H     43.053000  -22.642200  -113.554000
  H     43.354700  -21.378100  -112.449000
  C     41.415000  -22.351700  -112.199000
  H     41.351900  -21.830200  -111.272000
  H     41.135800  -23.411500  -112.274000
  H     40.871200  -21.869200  -112.962000
  H     45.881300  -18.408000  -108.129000
  H     47.752100  -24.188100  -113.702000

 Total Charge           Charge          ....    0
 Multiplicity           Mult            ....    1
 Number of Electrons    NEL             ....  134
 Basis Dimension        Dim             ....  322

ORBITAL ENERGIES
----------------

  NO   OCC          E(Eh)            E(eV)
   0   2.0000     -88.967131     -2420.9187
   1   2.0000     -88.963120     -2420.8096
   2   2.0000     -10.329598      -281.0826
   3   2.0000     -10.328022      -281.0398
   4   2.0000     -10.313368      -280.6410
   5   2.0000     -10.313070      -280.6329
   6   2.0000     -10.306354      -280.4502
   7   2.0000     -10.299492      -280.2634
   8   2.0000     -10.299209      -280.2557
   9   2.0000     -10.296085      -280.1707
  10   2.0000     -10.290835      -280.0279
  11   2.0000     -10.280894      -279.7573
  12   2.0000     -10.277358      -279.6611
  13   2.0000     -10.274227      -279.5759
  14   2.0000     -10.271642      -279.5056
  15   2.0000     -10.270215      -279.4668
  16   2.0000      -8.082843      -219.9453
  17   2.0000      -8.076864      -219.7826
  18   2.0000      -6.041261      -164.3911
  19   2.0000      -6.036994      -164.2750
  20   2.0000      -6.035478      -164.2337
  21   2.0000      -6.033833      -164.1889
  22   2.0000      -6.031456      -164.1243
  23   2.0000      -6.027592      -164.0191
  24   2.0000      -1.010593       -27.4996
  25   2.0000      -0.981423       -26.7059
  26   2.0000      -0.916775       -24.9467
  27   2.0000      -0.909174       -24.7399
  28   2.0000      -0.875536       -23.8245
  29   2.0000      -0.855496       -23.2792
  30   2.0000      -0.843791       -22.9607
  31   2.0000      -0.821241       -22.3471
  32   2.0000      -0.777498       -21.1568
  33   2.0000      -0.763824       -20.7847
  34   2.0000      -0.709236       -19.2993
  35   2.0000      -0.699237       -19.0272
  36   2.0000      -0.695462       -18.9245
  37   2.0000      -0.654247       -17.8030
  38   2.0000      -0.646874       -17.6023
  39   2.0000      -0.617321       -16.7982
  40   2.0000      -0.589176       -16.0323
  41   2.0000      -0.580301       -15.7908
  42   2.0000      -0.573528       -15.6065
  43   2.0000      -0.567121       -15.4321
  44   2.0000      -0.527011       -14.3407
  45   2.0000      -0.524338       -14.2680
  46   2.0000      -0.518341       -14.1048
  47   2.0000      -0.516315       -14.0496
  48   2.0000      -0.508548       -13.8383
  49   2.0000      -0.505066       -13.7435
  50   2.0000      -0.494640       -13.4598
  51   2.0000      -0.481510       -13.1025
  52   2.0000      -0.472937       -12.8693
  53   2.0000      -0.463844       -12.6218
  54   2.0000      -0.459236       -12.4964
  55   2.0000      -0.443664       -12.0727
  56   2.0000      -0.439381       -11.9562
  57   2.0000      -0.431642       -11.7456
  58   2.0000      -0.427743       -11.6395
  59   2.0000      -0.425203       -11.5703
  60   2.0000      -0.420118       -11.4320
  61   2.0000      -0.417746       -11.3674
  62   2.0000      -0.412109       -11.2140
  63   2.0000      -0.344956        -9.3867
  64   2.0000      -0.327260        -8.9052
  65   2.0000      -0.324257        -8.8235
  66   2.0000      -0.299793        -8.1578
  67   0.0000       0.036370         0.9897
  68   0.0000       0.057556         1.5662
  69   0.0000       0.122506         3.3336
  70   0.0000       0.124421         3.3857
  71   0.0000       0.129798         3.5320

MULLIKEN ATOMIC CHARGES
-----------------------
   0 S :    0.127623
   1 C :   -0.128977
   2 C :   -0.093941
   3 C :    0.053865
   4 C :   -0.180179
   5 H :    0.032198
   6 C :    0.057131
   7 H :    0.014368
   8 H :    0.033889
   9 C :   -0.073676
  10 H :    0.024260
  11 H :    0.000815
  12 C :   -0.024391
  13 H :    0.023256
  14 H :    0.047261
  15 H :    0.027841
  16 S :    0.102660
  17 C :   -0.064351
  18 C :   -0.067687
  19 C :   -0.015661
  20 C :   -0.169676
  21 H :    0.036320
  22 C :    0.058184
  23 H :    0.015110
  24 H :    0.011708
  25 C :   -0.044879
  26 H :    0.009807
  27 H :    0.012668
  28 C :   -0.003492
  29 H :    0.038405
  30 H :    0.029125
  31 H :    0.021665
  32 H :    0.058714
  33 H :    0.030034
Sum of atomic charges:    0.0000000

LOEWDIN ATOMIC CHARGES
----------------------
   0 S :    0.440498
   1 C :   -0.214061
   2 C :   -0.066959
   3 C :   -0.056310
   4 C :   -0.209994
   5 H :    0.041260
   6 C :   -0.034029
   7 H :    0.024710
   8 H :    0.036559
   9 C :   -0.039897
  10 H :    0.021950
  11 H :    0.009946
  12 C :   -0.059569
  13 H :    0.016712
  14 H :    0.038266
  15 H :    0.024847
  16 S :    0.384444
  17 C :   -0.169546
  18 C :   -0.078636
  19 C :   -0.050466
  20 C :   -0.199632
  21 H :    0.042108
  22 C :   -0.036011
  23 H :    0.031096
  24 H :    0.022479
  25 C :   -0.027841
  26 H :    0.014050
  27 H :    0.017112
  28 C :   -0.051964
  29 H :    0.025662
  30 H :    0.029103
  31 H :    0.019124
  32 H :    0.033494
  33 H :    0.021496

  Mayer bond orders larger than 0.100000
B(  0-S ,  1-C ) :   1.1502 B(  0-S ,  4-C ) :   1.1813 B(  1-C ,  2-C ) :   1.5683
B(  1-C , 32-H ) :   0.9752 B(  2-C ,  3-C ) :   1.2654 B(  2-C ,  6-C ) :   1.0337
B(  3-C ,  4-C ) :   1.5390 B(  3-C ,  5-H ) :   0.9927 B(  4-C , 20-C ) :   1.0240
B(  6-C ,  7-H ) :   0.9452 B(  6-C ,  8-H ) :   0.9315 B(  6-C ,  9-C ) :   1.0686
B(  9-C , 10-H ) :   0.9567 B(  9-C , 11-H ) :   0.9495 B(  9-C , 12-C ) :   1.0879
B( 12-C , 13-H ) :   0.9782 B( 12-C , 14-H ) :   0.9722 B( 12-C , 15-H ) :   0.9719
B( 16-S , 17-C ) :   1.1343 B( 16-S , 20-C ) :   1.1380 B( 17-C , 18-C ) :   1.6570
B( 17-C , 20-C ) :   0.1023 B( 17-C , 33-H ) :   0.9683 B( 18-C , 19-C ) :   1.2119
B( 18-C , 21-H ) :   0.9834 B( 19-C , 20-C ) :   1.5904 B( 19-C , 22-C ) :   1.0615
B( 22-C , 23-H ) :   0.9260 B( 22-C , 24-H ) :   0.9261 B( 22-C , 25-C ) :   1.0656
B( 25-C , 26-H ) :   0.9559 B( 25-C , 27-H ) :   0.9519 B( 25-C , 28-C ) :   1.0806
B( 28-C , 29-H ) :   0.9783 B( 28-C , 30-H ) :   0.9748 B( 28-C , 31-H ) :   0.9741

Dispersion correction           -0.013773721
FINAL SINGLE POINT ENERGY     -1339.872349916001

DIPOLE MOMENT
-------------
                                X             Y             Z
Electronic contribution:     14.96175       0.60106     -15.06154
Nuclear contribution   :    -15.24558      -0.68266      15.25901
                        -----------------------------------------
Total Dipole Moment    :     -0.28383      -0.08160       0.19747
                        -----------------------------------------
Magnitude (a.u.)       :      0.35526
Magnitude (Debye)      :      0.90300

Rotational constants in cm-1:     0.020863     0.007457     0.006375
Rotational constants in MHz :   625.466867   223.555794   191.118362

                             ****ORCA TERMINATED NORMALLY****
TOTAL RUN TIME: 0 days 0 hours 0 minutes 21 seconds 141 msec
