                         Program Version 4.2.1 -  RELEASE  -
|  1> ! wB97X-D3 SP def2-SVP
|  2> %pal
|  3> nprocs 24
|  4> end
|  5>
|  6> * xyz 0 1
|  7> S 	 -67.8954 	 17.6193 	 -71.9897
|  8> C 	 -66.573 	 16.6033 	 -72.3672
|  9> C 	 -66.3466 	 16.7004 	 -73.7671
| 10> C 	 -67.5356 	 17.1205 	 -74.4449
| 11> C 	 -68.4768 	 17.6413 	 -73.5834
| 12> H 	 -67.7239 	 17.1886 	 -75.5229
| 13> C 	 -65.1043 	 16.1768 	 -74.3712
| 14> H 	 -64.2656 	 16.4198 	 -73.5969
| 15> H 	 -64.8408 	 16.7683 	 -75.2411
| 16> C 	 -65.0563 	 14.7241 	 -74.5573
| 17> H 	 -65.531 	 14.1391 	 -73.7524
| 18> H 	 -65.823 	 14.5838 	 -75.3968
| 19> C 	 -63.6318 	 14.3039 	 -74.8948
| 20> H 	 -63.1464 	 14.9446 	 -75.6465
| 21> H 	 -63.1531 	 14.2723 	 -73.9317
| 22> H 	 -63.5855 	 13.2741 	 -75.1753
| 23> S 	 -70.8097 	 16.7271 	 -74.5135
| 24> C 	 -72.2691 	 17.6988 	 -74.5614
| 25> C 	 -72.0125 	 18.8915 	 -74.0293
| 26> C 	 -70.6407 	 19.0946 	 -73.5392
| 27> C 	 -69.8351 	 17.9841 	 -73.8712
| 28> H 	 -72.816 	 19.6361 	 -74.0311
| 29> C 	 -70.1611 	 20.3486 	 -72.7403
| 30> H 	 -69.1725 	 19.9779 	 -72.2076
| 31> H 	 -70.9611 	 20.5267 	 -71.9929
| 32> C 	 -69.8027 	 21.5712 	 -73.6046
| 33> H 	 -69.4646 	 22.236 	 -72.8393
| 34> H 	 -70.6501 	 22.0916 	 -74.1312
| 35> C 	 -68.7458 	 21.5715 	 -74.6763
| 36> H 	 -69.1312 	 21.2096 	 -75.6027
| 37> H 	 -67.838 	 21.0542 	 -74.2555
| 38> H 	 -68.5387 	 22.6013 	 -74.911
| 39> H 	 -65.7396 	 16.3532 	 -71.6754
| 40> H 	 -73.1722 	 17.2557 	 -74.9825
| 41> *
| 42>
| 43>                          ****END OF INPUT****

CARTESIAN COORDINATES (ANGSTROEM)
---------------------------------
  S    -67.895400   17.619300  -71.989700
  C    -66.573000   16.603300  -72.367200
  C    -66.346600   16.700400  -73.767100
  C    -67.535600   17.120500  -74.444900
  C    -68.476800   17.641300  -73.583400
  H    -67.723900   17.188600  -75.522900
  C    -65.104300   16.176800  -74.371200
  H    -64.265600   16.419800  -73.596900
  H    -64.840800   16.768300  -75.241100
  C    -65.056300   14.724100  -74.557300
  H    -65.531000   14.139100  -73.752400
  H    -65.823000   14.583800  -75.396800
  C    -63.631800   14.303900  -74.894800
  H    -63.146400   14.944600  -75.646500
  H    -63.153100   14.272300  -73.931700
  H    -63.585500   13.274100  -75.175300
  S    -70.809700   16.727100  -74.513500
  C    -72.269100   17.698800  -74.561400
  C    -72.012500   18.891500  -74.029300
  C    -70.640700   19.094600  -73.539200
  C    -69.835100   17.984100  -73.871200
  H    -72.816000   19.636100  -74.031100
  C    -70.161100   20.348600  -72.740300
  H    -69.172500   19.977900  -72.207600
  H    -70.961100   20.526700  -71.992900
  C    -69.802700   21.571200  -73.604600
  H    -69.464600   22.236000  -72.839300
  H    -70.650100   22.091600  -74.131200
  C    -68.745800   21.571500  -74.676300
  H    -69.131200   21.209600  -75.602700
  H    -67.838000   21.054200  -74.255500
  H    -68.538700   22.601300  -74.911000
  H    -65.739600   16.353200  -71.675400
  H    -73.172200   17.255700  -74.982500

 Total Charge           Charge          ....    0
 Multiplicity           Mult            ....    1
 Number of Electrons    NEL             ....  134
 Basis Dimension        Dim             ....  322

ORBITAL ENERGIES
----------------

  NO   OCC          E(Eh)            E(eV)
   0   2.0000     -88.965168     -2420.8653
   1   2.0000     -88.956428     -2420.6275
   2   2.0000     -10.322330      -280.8849
   3   2.0000     -10.321357      -280.8584
   4   2.0000     -10.313737      -280.6510
   5   2.0000     -10.311993      -280.6036
   6   2.0000     -10.307797      -280.4894
   7   2.0000     -10.306618      -280.4573
   8   2.0000     -10.302677      -280.3501
   9   2.0000     -10.295384      -280.1516
  10   2.0000     -10.293548      -280.1017
  11   2.0000     -10.289857      -280.0012
  12   2.0000     -10.286505      -279.9100
  13   2.0000     -10.282540      -279.8021
  14   2.0000     -10.276791      -279.6457
  15   2.0000     -10.272442      -279.5274
  16   2.0000      -8.081123      -219.8985
  17   2.0000      -8.072199      -219.6557
  18   2.0000      -6.039435      -164.3414
  19   2.0000      -6.035470      -164.2335
  20   2.0000      -6.031989      -164.1388
  21   2.0000      -6.030756      -164.1052
  22   2.0000      -6.026469      -163.9885
  23   2.0000      -6.022919      -163.8920
  24   2.0000      -1.015607       -27.6361
  25   2.0000      -0.987903       -26.8822
  26   2.0000      -0.925584       -25.1864
  27   2.0000      -0.903014       -24.5722
  28   2.0000      -0.876150       -23.8412
  29   2.0000      -0.852747       -23.2044
  30   2.0000      -0.842124       -22.9154
  31   2.0000      -0.818240       -22.2654
  32   2.0000      -0.783697       -21.3255
  33   2.0000      -0.769997       -20.9527
  34   2.0000      -0.704244       -19.1634
  35   2.0000      -0.697989       -18.9932
  36   2.0000      -0.682979       -18.5848
  37   2.0000      -0.657359       -17.8877
  38   2.0000      -0.639287       -17.3959
  39   2.0000      -0.615685       -16.7536
  40   2.0000      -0.591268       -16.0892
  41   2.0000      -0.579920       -15.7804
  42   2.0000      -0.558524       -15.1982
  43   2.0000      -0.554476       -15.0880
  44   2.0000      -0.542534       -14.7631
  45   2.0000      -0.531322       -14.4580
  46   2.0000      -0.522404       -14.2153
  47   2.0000      -0.511278       -13.9126
  48   2.0000      -0.503634       -13.7046
  49   2.0000      -0.499638       -13.5958
  50   2.0000      -0.491249       -13.3676
  51   2.0000      -0.475918       -12.9504
  52   2.0000      -0.469824       -12.7846
  53   2.0000      -0.463954       -12.6248
  54   2.0000      -0.461957       -12.5705
  55   2.0000      -0.453283       -12.3345
  56   2.0000      -0.450166       -12.2496
  57   2.0000      -0.436629       -11.8813
  58   2.0000      -0.427851       -11.6424
  59   2.0000      -0.425636       -11.5821
  60   2.0000      -0.408242       -11.1088
  61   2.0000      -0.401835       -10.9345
  62   2.0000      -0.399252       -10.8642
  63   2.0000      -0.346862        -9.4386
  64   2.0000      -0.330800        -9.0015
  65   2.0000      -0.320593        -8.7238
  66   2.0000      -0.290906        -7.9160
  67   0.0000       0.032700         0.8898
  68   0.0000       0.070086         1.9071
  69   0.0000       0.099140         2.6977
  70   0.0000       0.120305         3.2737
  71   0.0000       0.137152         3.7321

MULLIKEN ATOMIC CHARGES
-----------------------
   0 S :    0.127653
   1 C :   -0.127580
   2 C :   -0.107035
   3 C :    0.009349
   4 C :   -0.144945
   5 H :    0.023442
   6 C :    0.024804
   7 H :    0.017766
   8 H :    0.030693
   9 C :   -0.088829
  10 H :    0.036332
  11 H :    0.022349
  12 C :   -0.001577
  13 H :    0.044766
  14 H :    0.026487
  15 H :    0.024021
  16 S :    0.094555
  17 C :   -0.102104
  18 C :   -0.026061
  19 C :   -0.054128
  20 C :   -0.148169
  21 H :    0.022162
  22 C :    0.041741
  23 H :    0.036287
  24 H :    0.048171
  25 C :   -0.092973
  26 H :    0.024158
  27 H :    0.027625
  28 C :   -0.014776
  29 H :    0.028850
  30 H :    0.040708
  31 H :    0.022408
  32 H :    0.067855
  33 H :    0.065995
Sum of atomic charges:   -0.0000000

LOEWDIN ATOMIC CHARGES
----------------------
   0 S :    0.456188
   1 C :   -0.222261
   2 C :   -0.057146
   3 C :   -0.067906
   4 C :   -0.218118
   5 H :    0.036878
   6 C :   -0.045710
   7 H :    0.031709
   8 H :    0.030680
   9 C :   -0.049856
  10 H :    0.029018
  11 H :    0.026718
  12 C :   -0.060333
  13 H :    0.031425
  14 H :    0.027906
  15 H :    0.023848
  16 S :    0.413409
  17 C :   -0.185321
  18 C :   -0.076901
  19 C :   -0.064686
  20 C :   -0.211982
  21 H :    0.033199
  22 C :   -0.037794
  23 H :    0.032434
  24 H :    0.039978
  25 C :   -0.053533
  26 H :    0.021510
  27 H :    0.027806
  28 C :   -0.060223
  29 H :    0.021524
  30 H :    0.031659
  31 H :    0.027469
  32 H :    0.034935
  33 H :    0.033476

  Mayer bond orders larger than 0.100000
B(  0-S ,  1-C ) :   1.1705 B(  0-S ,  4-C ) :   1.1758 B(  1-C ,  2-C ) :   1.5473
B(  1-C ,  4-C ) :   0.1040 B(  1-C , 32-H ) :   0.9613 B(  2-C ,  3-C ) :   1.2499
B(  2-C ,  6-C ) :   1.0442 B(  3-C ,  4-C ) :   1.5337 B(  3-C ,  5-H ) :   1.0001
B(  4-C , 20-C ) :   1.0363 B(  6-C ,  7-H ) :   0.9373 B(  6-C ,  8-H ) :   0.9344
B(  6-C ,  9-C ) :   1.0621 B(  9-C , 10-H ) :   0.9565 B(  9-C , 11-H ) :   0.9468
B(  9-C , 12-C ) :   1.0675 B( 12-C , 13-H ) :   0.9729 B( 12-C , 14-H ) :   0.9712
B( 12-C , 15-H ) :   0.9698 B( 16-S , 17-C ) :   1.1368 B( 16-S , 20-C ) :   1.1631
B( 17-C , 18-C ) :   1.6238 B( 17-C , 33-H ) :   0.9719 B( 18-C , 19-C ) :   1.2174
B( 18-C , 21-H ) :   0.9903 B( 19-C , 20-C ) :   1.5740 B( 19-C , 22-C ) :   1.0283
B( 22-C , 23-H ) :   0.9298 B( 22-C , 24-H ) :   0.9368 B( 22-C , 25-C ) :   1.0677
B( 25-C , 26-H ) :   0.9557 B( 25-C , 27-H ) :   0.9543 B( 25-C , 28-C ) :   1.0898
B( 28-C , 29-H ) :   0.9731 B( 28-C , 30-H ) :   0.9716 B( 28-C , 31-H ) :   0.9675

Dispersion correction           -0.014274974
FINAL SINGLE POINT ENERGY     -1339.853299945412

DIPOLE MOMENT
-------------
                                X             Y             Z
Electronic contribution:    -16.41093      -5.11553       6.42654
Nuclear contribution   :     16.64225       5.34136      -6.58688
                        -----------------------------------------
Total Dipole Moment    :      0.23132       0.22583      -0.16034
                        -----------------------------------------
Magnitude (a.u.)       :      0.36086
Magnitude (Debye)      :      0.91723

Rotational constants in cm-1:     0.022937     0.007625     0.006698
Rotational constants in MHz :   687.633486   228.584529   200.799067

                             ****ORCA TERMINATED NORMALLY****
TOTAL RUN TIME: 0 days 0 hours 0 minutes 20 seconds 426 msec
