                         Program Version 4.2.1 -  RELEASE  -
|  1> ! wB97X-D3 SP def2-SVP
|  2> %pal
|  3> nprocs 24
|  4> end
|  5>
|  6> * xyz 0 1
|  7> S 	 -117.173 	 60.1258 	 -39.644
|  8> C 	 -116.621 	 58.481 	 -39.3904
|  9> C 	 -117.555 	 57.7046 	 -38.7196
| 10> C 	 -118.73 	 58.4757 	 -38.4158
| 11> C 	 -118.736 	 59.7231 	 -39.0023
| 12> H 	 -119.608 	 58.2197 	 -37.8106
| 13> C 	 -117.415 	 56.2693 	 -38.2389
| 14> H 	 -117.738 	 55.6145 	 -39.0989
| 15> H 	 -118.076 	 56.147 	 -37.3431
| 16> C 	 -116.021 	 55.918 	 -37.8007
| 17> H 	 -115.395 	 55.8838 	 -38.6871
| 18> H 	 -115.634 	 56.7065 	 -37.1847
| 19> C 	 -115.926 	 54.5771 	 -37.0111
| 20> H 	 -116.496 	 54.5867 	 -36.0716
| 21> H 	 -116.417 	 53.8146 	 -37.5845
| 22> H 	 -114.893 	 54.1954 	 -36.8691
| 23> S 	 -119.326 	 62.4057 	 -38.6855
| 24> C 	 -120.967 	 62.84 	 -38.5346
| 25> C 	 -121.866 	 61.8173 	 -38.6321
| 26> C 	 -121.258 	 60.5461 	 -38.8411
| 27> C 	 -119.801 	 60.6706 	 -38.9391
| 28> H 	 -122.895 	 62.0514 	 -38.5135
| 29> C 	 -122.079 	 59.3275 	 -38.988
| 30> H 	 -121.489 	 58.5682 	 -39.5434
| 31> H 	 -122.989 	 59.5723 	 -39.512
| 32> C 	 -122.504 	 58.7557 	 -37.6245
| 33> H 	 -122.839 	 59.5045 	 -36.8892
| 34> H 	 -121.688 	 58.2249 	 -37.1358
| 35> C 	 -123.666 	 57.6991 	 -37.8776
| 36> H 	 -124.475 	 58.2316 	 -38.3415
| 37> H 	 -123.933 	 57.2265 	 -36.8906
| 38> H 	 -123.379 	 56.9006 	 -38.5741
| 39> H 	 -115.749 	 58.0265 	 -39.7436
| 40> H 	 -121.325 	 63.8276 	 -38.3258
| 41> *
| 42>
| 43>                          ****END OF INPUT****

CARTESIAN COORDINATES (ANGSTROEM)
---------------------------------
  S    -117.173000   60.125800  -39.644000
  C    -116.621000   58.481000  -39.390400
  C    -117.555000   57.704600  -38.719600
  C    -118.730000   58.475700  -38.415800
  C    -118.736000   59.723100  -39.002300
  H    -119.608000   58.219700  -37.810600
  C    -117.415000   56.269300  -38.238900
  H    -117.738000   55.614500  -39.098900
  H    -118.076000   56.147000  -37.343100
  C    -116.021000   55.918000  -37.800700
  H    -115.395000   55.883800  -38.687100
  H    -115.634000   56.706500  -37.184700
  C    -115.926000   54.577100  -37.011100
  H    -116.496000   54.586700  -36.071600
  H    -116.417000   53.814600  -37.584500
  H    -114.893000   54.195400  -36.869100
  S    -119.326000   62.405700  -38.685500
  C    -120.967000   62.840000  -38.534600
  C    -121.866000   61.817300  -38.632100
  C    -121.258000   60.546100  -38.841100
  C    -119.801000   60.670600  -38.939100
  H    -122.895000   62.051400  -38.513500
  C    -122.079000   59.327500  -38.988000
  H    -121.489000   58.568200  -39.543400
  H    -122.989000   59.572300  -39.512000
  C    -122.504000   58.755700  -37.624500
  H    -122.839000   59.504500  -36.889200
  H    -121.688000   58.224900  -37.135800
  C    -123.666000   57.699100  -37.877600
  H    -124.475000   58.231600  -38.341500
  H    -123.933000   57.226500  -36.890600
  H    -123.379000   56.900600  -38.574100
  H    -115.749000   58.026500  -39.743600
  H    -121.325000   63.827600  -38.325800

 Total Charge           Charge          ....    0
 Multiplicity           Mult            ....    1
 Number of Electrons    NEL             ....  134
 Basis Dimension        Dim             ....  322

ORBITAL ENERGIES
----------------

  NO   OCC          E(Eh)            E(eV)
   0   2.0000     -88.967093     -2420.9177
   1   2.0000     -88.966846     -2420.9110
   2   2.0000     -10.333785      -281.1966
   3   2.0000     -10.325225      -280.9637
   4   2.0000     -10.311188      -280.5817
   5   2.0000     -10.311094      -280.5791
   6   2.0000     -10.308945      -280.5206
   7   2.0000     -10.301970      -280.3309
   8   2.0000     -10.298646      -280.2404
   9   2.0000     -10.293347      -280.0962
  10   2.0000     -10.293162      -280.0912
  11   2.0000     -10.291510      -280.0462
  12   2.0000     -10.288305      -279.9590
  13   2.0000     -10.285338      -279.8783
  14   2.0000     -10.284153      -279.8460
  15   2.0000     -10.281330      -279.7692
  16   2.0000      -8.081704      -219.9144
  17   2.0000      -8.081666      -219.9133
  18   2.0000      -6.040334      -164.3658
  19   2.0000      -6.040110      -164.3597
  20   2.0000      -6.036310      -164.2564
  21   2.0000      -6.036285      -164.2557
  22   2.0000      -6.032495      -164.1525
  23   2.0000      -6.032169      -164.1437
  24   2.0000      -1.005384       -27.3579
  25   2.0000      -0.981744       -26.7146
  26   2.0000      -0.915980       -24.9251
  27   2.0000      -0.913151       -24.8481
  28   2.0000      -0.869920       -23.6717
  29   2.0000      -0.851782       -23.1782
  30   2.0000      -0.845152       -22.9977
  31   2.0000      -0.811605       -22.0849
  32   2.0000      -0.782798       -21.3010
  33   2.0000      -0.767680       -20.8896
  34   2.0000      -0.713744       -19.4220
  35   2.0000      -0.704754       -19.1773
  36   2.0000      -0.693834       -18.8802
  37   2.0000      -0.661885       -18.0108
  38   2.0000      -0.636616       -17.3232
  39   2.0000      -0.613445       -16.6927
  40   2.0000      -0.596793       -16.2396
  41   2.0000      -0.574768       -15.6402
  42   2.0000      -0.571332       -15.5467
  43   2.0000      -0.561752       -15.2861
  44   2.0000      -0.525020       -14.2865
  45   2.0000      -0.520350       -14.1594
  46   2.0000      -0.516148       -14.0451
  47   2.0000      -0.508160       -13.8277
  48   2.0000      -0.505652       -13.7595
  49   2.0000      -0.502482       -13.6732
  50   2.0000      -0.493927       -13.4404
  51   2.0000      -0.481295       -13.0967
  52   2.0000      -0.472759       -12.8644
  53   2.0000      -0.462727       -12.5914
  54   2.0000      -0.456916       -12.4333
  55   2.0000      -0.455992       -12.4082
  56   2.0000      -0.448227       -12.1969
  57   2.0000      -0.438165       -11.9231
  58   2.0000      -0.434841       -11.8326
  59   2.0000      -0.429475       -11.6866
  60   2.0000      -0.424951       -11.5635
  61   2.0000      -0.421091       -11.4585
  62   2.0000      -0.414296       -11.2736
  63   2.0000      -0.355677        -9.6785
  64   2.0000      -0.333023        -9.0620
  65   2.0000      -0.328848        -8.9484
  66   2.0000      -0.276375        -7.5206
  67   0.0000       0.019454         0.5294
  68   0.0000       0.075825         2.0633
  69   0.0000       0.101494         2.7618
  70   0.0000       0.123475         3.3599
  71   0.0000       0.133752         3.6396

MULLIKEN ATOMIC CHARGES
-----------------------
   0 S :    0.110967
   1 C :   -0.085411
   2 C :   -0.093359
   3 C :   -0.006461
   4 C :   -0.126158
   5 H :   -0.004071
   6 C :    0.057037
   7 H :    0.055471
   8 H :    0.033039
   9 C :   -0.095260
  10 H :    0.026453
  11 H :    0.034481
  12 C :   -0.041291
  13 H :    0.034985
  14 H :    0.014287
  15 H :    0.042975
  16 S :    0.098884
  17 C :   -0.064036
  18 C :   -0.036070
  19 C :   -0.021782
  20 C :   -0.145806
  21 H :    0.004786
  22 C :    0.058543
  23 H :    0.041337
  24 H :    0.021222
  25 C :   -0.102339
  26 H :    0.039695
  27 H :    0.034463
  28 C :   -0.058219
  29 H :    0.029666
  30 H :    0.045655
  31 H :    0.034950
  32 H :    0.017865
  33 H :    0.043502
Sum of atomic charges:   -0.0000000

LOEWDIN ATOMIC CHARGES
----------------------
   0 S :    0.404654
   1 C :   -0.194522
   2 C :   -0.057163
   3 C :   -0.071123
   4 C :   -0.197239
   5 H :    0.031155
   6 C :   -0.035284
   7 H :    0.042702
   8 H :    0.034916
   9 C :   -0.044271
  10 H :    0.021186
  11 H :    0.023079
  12 C :   -0.067699
  13 H :    0.026949
  14 H :    0.019869
  15 H :    0.031724
  16 S :    0.397469
  17 C :   -0.189589
  18 C :   -0.074589
  19 C :   -0.041943
  20 C :   -0.182935
  21 H :    0.028396
  22 C :   -0.035644
  23 H :    0.038468
  24 H :    0.030413
  25 C :   -0.035311
  26 H :    0.026515
  27 H :    0.018294
  28 C :   -0.066386
  29 H :    0.019077
  30 H :    0.031411
  31 H :    0.025662
  32 H :    0.016056
  33 H :    0.025701

  Mayer bond orders larger than 0.100000
B(  0-S ,  1-C ) :   1.1191 B(  0-S ,  4-C ) :   1.1397 B(  1-C ,  2-C ) :   1.6304
B(  1-C , 32-H ) :   0.9721 B(  2-C ,  3-C ) :   1.2264 B(  2-C ,  6-C ) :   1.0099
B(  3-C ,  4-C ) :   1.5684 B(  3-C ,  5-H ) :   0.9895 B(  4-C , 20-C ) :   1.1039
B(  6-C ,  7-H ) :   0.9227 B(  6-C ,  8-H ) :   0.9510 B(  6-C ,  9-C ) :   1.0785
B(  9-C , 10-H ) :   0.9447 B(  9-C , 11-H ) :   0.9632 B(  9-C , 12-C ) :   1.0854
B( 12-C , 13-H ) :   0.9746 B( 12-C , 14-H ) :   0.9719 B( 12-C , 15-H ) :   0.9748
B( 16-S , 17-C ) :   1.1663 B( 16-S , 20-C ) :   1.1257 B( 17-C , 18-C ) :   1.6146
B( 17-C , 33-H ) :   0.9627 B( 18-C , 19-C ) :   1.2446 B( 18-C , 21-H ) :   0.9961
B( 19-C , 20-C ) :   1.5334 B( 19-C , 22-C ) :   1.0648 B( 22-C , 23-H ) :   0.9265
B( 22-C , 24-H ) :   0.9378 B( 22-C , 25-C ) :   1.0519 B( 25-C , 26-H ) :   0.9594
B( 25-C , 27-H ) :   0.9493 B( 25-C , 28-C ) :   1.0716 B( 28-C , 29-H ) :   0.9787
B( 28-C , 30-H ) :   0.9754 B( 28-C , 31-H ) :   0.9748

Dispersion correction           -0.013658176
FINAL SINGLE POINT ENERGY     -1339.883101664912

DIPOLE MOMENT
-------------
                                X             Y             Z
Electronic contribution:      8.39064      28.29831      -9.57437
Nuclear contribution   :     -8.84138     -28.81349       9.83880
                        -----------------------------------------
Total Dipole Moment    :     -0.45073      -0.51518       0.26443
                        -----------------------------------------
Magnitude (a.u.)       :      0.73382
Magnitude (Debye)      :      1.86523

Rotational constants in cm-1:     0.018038     0.008335     0.005993
Rotational constants in MHz :   540.752650   249.870876   179.654711

                             ****ORCA TERMINATED NORMALLY****
TOTAL RUN TIME: 0 days 0 hours 0 minutes 21 seconds 364 msec
