                         Program Version 4.2.1 -  RELEASE  -
|  1> ! wB97X-D3 SP def2-SVP
|  2> %pal
|  3> nprocs 24
|  4> end
|  5>
|  6> * xyz 0 1
|  7> S 	 -86.6343 	 -31.2856 	 -61.8134
|  8> C 	 -86.423 	 -29.6109 	 -62.1697
|  9> C 	 -86.785 	 -28.8423 	 -61.0538
| 10> C 	 -87.1389 	 -29.6208 	 -59.8994
| 11> C 	 -87.1259 	 -30.9772 	 -60.1911
| 12> H 	 -87.4736 	 -29.1496 	 -58.9872
| 13> C 	 -86.5082 	 -27.3319 	 -61.042
| 14> H 	 -85.4296 	 -27.0855 	 -60.976
| 15> H 	 -86.9206 	 -26.9734 	 -60.0884
| 16> C 	 -87.2914 	 -26.5672 	 -62.1273
| 17> H 	 -86.9357 	 -25.5426 	 -62.1005
| 18> H 	 -87.0351 	 -26.9263 	 -63.0891
| 19> C 	 -88.7704 	 -26.5124 	 -61.9406
| 20> H 	 -89.3496 	 -27.341 	 -62.4173
| 21> H 	 -89.0671 	 -26.4362 	 -60.899
| 22> H 	 -89.1158 	 -25.4972 	 -62.1946
| 23> S 	 -88.6543 	 -33.1814 	 -59.5353
| 24> C 	 -88.2318 	 -34.0745 	 -58.0823
| 25> C 	 -87.1411 	 -33.5021 	 -57.4549
| 26> C 	 -86.604 	 -32.3207 	 -58.0764
| 27> C 	 -87.2878 	 -32.04 	 -59.2476
| 28> H 	 -86.8834 	 -33.8582 	 -56.4656
| 29> C 	 -85.572 	 -31.4494 	 -57.4564
| 30> H 	 -85.072 	 -30.89 	 -58.3001
| 31> H 	 -84.8141 	 -32.0996 	 -56.9287
| 32> C 	 -86.0465 	 -30.3496 	 -56.5031
| 33> H 	 -86.5463 	 -30.9669 	 -55.7356
| 34> H 	 -86.7886 	 -29.6265 	 -56.8531
| 35> C 	 -84.7716 	 -29.6204 	 -55.8974
| 36> H 	 -84.2432 	 -29.1132 	 -56.7028
| 37> H 	 -84.0287 	 -30.327 	 -55.4155
| 38> H 	 -84.9778 	 -28.8503 	 -55.1542
| 39> H 	 -85.9924 	 -29.25 	 -63.0781
| 40> H 	 -88.7111 	 -34.926 	 -57.6461
| 41> *
| 42>
| 43>                          ****END OF INPUT****

CARTESIAN COORDINATES (ANGSTROEM)
---------------------------------
  S    -86.634300  -31.285600  -61.813400
  C    -86.423000  -29.610900  -62.169700
  C    -86.785000  -28.842300  -61.053800
  C    -87.138900  -29.620800  -59.899400
  C    -87.125900  -30.977200  -60.191100
  H    -87.473600  -29.149600  -58.987200
  C    -86.508200  -27.331900  -61.042000
  H    -85.429600  -27.085500  -60.976000
  H    -86.920600  -26.973400  -60.088400
  C    -87.291400  -26.567200  -62.127300
  H    -86.935700  -25.542600  -62.100500
  H    -87.035100  -26.926300  -63.089100
  C    -88.770400  -26.512400  -61.940600
  H    -89.349600  -27.341000  -62.417300
  H    -89.067100  -26.436200  -60.899000
  H    -89.115800  -25.497200  -62.194600
  S    -88.654300  -33.181400  -59.535300
  C    -88.231800  -34.074500  -58.082300
  C    -87.141100  -33.502100  -57.454900
  C    -86.604000  -32.320700  -58.076400
  C    -87.287800  -32.040000  -59.247600
  H    -86.883400  -33.858200  -56.465600
  C    -85.572000  -31.449400  -57.456400
  H    -85.072000  -30.890000  -58.300100
  H    -84.814100  -32.099600  -56.928700
  C    -86.046500  -30.349600  -56.503100
  H    -86.546300  -30.966900  -55.735600
  H    -86.788600  -29.626500  -56.853100
  C    -84.771600  -29.620400  -55.897400
  H    -84.243200  -29.113200  -56.702800
  H    -84.028700  -30.327000  -55.415500
  H    -84.977800  -28.850300  -55.154200
  H    -85.992400  -29.250000  -63.078100
  H    -88.711100  -34.926000  -57.646100

 Total Charge           Charge          ....    0
 Multiplicity           Mult            ....    1
 Number of Electrons    NEL             ....  134
 Basis Dimension        Dim             ....  322

ORBITAL ENERGIES
----------------

  NO   OCC          E(Eh)            E(eV)
   0   2.0000     -88.967433     -2420.9269
   1   2.0000     -88.965229     -2420.8670
   2   2.0000     -10.325918      -280.9825
   3   2.0000     -10.325638      -280.9749
   4   2.0000     -10.316122      -280.7160
   5   2.0000     -10.312164      -280.6082
   6   2.0000     -10.302961      -280.3578
   7   2.0000     -10.301582      -280.3203
   8   2.0000     -10.297471      -280.2084
   9   2.0000     -10.296855      -280.1917
  10   2.0000     -10.294730      -280.1338
  11   2.0000     -10.293292      -280.0947
  12   2.0000     -10.292094      -280.0621
  13   2.0000     -10.286716      -279.9158
  14   2.0000     -10.279939      -279.7314
  15   2.0000     -10.275640      -279.6144
  16   2.0000      -8.082949      -219.9482
  17   2.0000      -8.079014      -219.8411
  18   2.0000      -6.041302      -164.3922
  19   2.0000      -6.037609      -164.2917
  20   2.0000      -6.037152      -164.2793
  21   2.0000      -6.034017      -164.1939
  22   2.0000      -6.033695      -164.1852
  23   2.0000      -6.029702      -164.0765
  24   2.0000      -1.007749       -27.4222
  25   2.0000      -0.980699       -26.6862
  26   2.0000      -0.912833       -24.8394
  27   2.0000      -0.907503       -24.6944
  28   2.0000      -0.870046       -23.6751
  29   2.0000      -0.851306       -23.1652
  30   2.0000      -0.844658       -22.9843
  31   2.0000      -0.811987       -22.0953
  32   2.0000      -0.780482       -21.2380
  33   2.0000      -0.768001       -20.8984
  34   2.0000      -0.708434       -19.2775
  35   2.0000      -0.703037       -19.1306
  36   2.0000      -0.695036       -18.9129
  37   2.0000      -0.661377       -17.9970
  38   2.0000      -0.643535       -17.5115
  39   2.0000      -0.613861       -16.7040
  40   2.0000      -0.593017       -16.1368
  41   2.0000      -0.574391       -15.6300
  42   2.0000      -0.565162       -15.3788
  43   2.0000      -0.549692       -14.9579
  44   2.0000      -0.543114       -14.7789
  45   2.0000      -0.517595       -14.0845
  46   2.0000      -0.514888       -14.0108
  47   2.0000      -0.513734       -13.9794
  48   2.0000      -0.505891       -13.7660
  49   2.0000      -0.500226       -13.6119
  50   2.0000      -0.487147       -13.2559
  51   2.0000      -0.476266       -12.9599
  52   2.0000      -0.470530       -12.8038
  53   2.0000      -0.461394       -12.5552
  54   2.0000      -0.457908       -12.4603
  55   2.0000      -0.447826       -12.1860
  56   2.0000      -0.446361       -12.1461
  57   2.0000      -0.441848       -12.0233
  58   2.0000      -0.435760       -11.8576
  59   2.0000      -0.422459       -11.4957
  60   2.0000      -0.417495       -11.3606
  61   2.0000      -0.411920       -11.2089
  62   2.0000      -0.410595       -11.1729
  63   2.0000      -0.340526        -9.2662
  64   2.0000      -0.331696        -9.0259
  65   2.0000      -0.328099        -8.9280
  66   2.0000      -0.296108        -8.0575
  67   0.0000       0.034486         0.9384
  68   0.0000       0.059984         1.6323
  69   0.0000       0.114471         3.1149
  70   0.0000       0.118550         3.2259
  71   0.0000       0.126159         3.4330

MULLIKEN ATOMIC CHARGES
-----------------------
   0 S :    0.134572
   1 C :   -0.125539
   2 C :   -0.099189
   3 C :    0.037721
   4 C :   -0.148008
   5 H :    0.011201
   6 C :    0.045015
   7 H :    0.050925
   8 H :    0.002171
   9 C :   -0.044588
  10 H :    0.018775
  11 H :    0.015891
  12 C :   -0.048797
  13 H :    0.060069
  14 H :    0.009658
  15 H :    0.023777
  16 S :    0.103845
  17 C :   -0.073502
  18 C :   -0.046926
  19 C :    0.023582
  20 C :   -0.190311
  21 H :    0.013523
  22 C :    0.007286
  23 H :    0.040483
  24 H :    0.038074
  25 C :   -0.058270
  26 H :    0.023319
  27 H :    0.037102
  28 C :   -0.066318
  29 H :    0.030835
  30 H :    0.038691
  31 H :    0.037687
  32 H :    0.048268
  33 H :    0.048980
Sum of atomic charges:   -0.0000000

LOEWDIN ATOMIC CHARGES
----------------------
   0 S :    0.441521
   1 C :   -0.203558
   2 C :   -0.065413
   3 C :   -0.058067
   4 C :   -0.210481
   5 H :    0.030806
   6 C :   -0.033359
   7 H :    0.035428
   8 H :    0.022842
   9 C :   -0.041613
  10 H :    0.025101
  11 H :    0.015856
  12 C :   -0.073362
  13 H :    0.035550
  14 H :    0.023374
  15 H :    0.032260
  16 S :    0.380332
  17 C :   -0.180458
  18 C :   -0.072874
  19 C :   -0.054147
  20 C :   -0.183620
  21 H :    0.027985
  22 C :   -0.040744
  23 H :    0.036174
  24 H :    0.038497
  25 C :   -0.037684
  26 H :    0.023847
  27 H :    0.023368
  28 C :   -0.071039
  29 H :    0.024023
  30 H :    0.031753
  31 H :    0.024633
  32 H :    0.024006
  33 H :    0.029061

  Mayer bond orders larger than 0.100000
B(  0-S ,  1-C ) :   1.1590 B(  0-S ,  4-C ) :   1.1842 B(  1-C ,  2-C ) :   1.5646
B(  1-C , 32-H ) :   0.9773 B(  2-C ,  3-C ) :   1.2787 B(  2-C ,  6-C ) :   1.0098
B(  3-C ,  4-C ) :   1.5229 B(  3-C ,  5-H ) :   0.9978 B(  4-C , 20-C ) :   1.0348
B(  6-C ,  7-H ) :   0.9484 B(  6-C ,  8-H ) :   0.9421 B(  6-C ,  9-C ) :   1.0756
B(  9-C , 10-H ) :   0.9554 B(  9-C , 11-H ) :   0.9571 B(  9-C , 12-C ) :   1.0801
B( 12-C , 13-H ) :   0.9733 B( 12-C , 14-H ) :   0.9688 B( 12-C , 15-H ) :   0.9725
B( 16-S , 17-C ) :   1.1362 B( 16-S , 20-C ) :   1.1293 B( 17-C , 18-C ) :   1.6426
B( 17-C , 33-H ) :   0.9670 B( 18-C , 19-C ) :   1.2124 B( 18-C , 21-H ) :   0.9839
B( 19-C , 20-C ) :   1.6067 B( 19-C , 22-C ) :   1.0634 B( 22-C , 23-H ) :   0.9221
B( 22-C , 24-H ) :   0.9354 B( 22-C , 25-C ) :   1.0543 B( 25-C , 26-H ) :   0.9545
B( 25-C , 27-H ) :   0.9553 B( 25-C , 28-C ) :   1.0668 B( 28-C , 29-H ) :   0.9763
B( 28-C , 30-H ) :   0.9757 B( 28-C , 31-H ) :   0.9766

Dispersion correction           -0.014582971
FINAL SINGLE POINT ENERGY     -1339.882816440081

DIPOLE MOMENT
-------------
                                X             Y             Z
Electronic contribution:     -6.44189     -24.64109     -10.13919
Nuclear contribution   :      6.71339      25.20846      10.56440
                        -----------------------------------------
Total Dipole Moment    :      0.27151       0.56737       0.42521
                        -----------------------------------------
Magnitude (a.u.)       :      0.75923
Magnitude (Debye)      :      1.92980

Rotational constants in cm-1:     0.018364     0.008885     0.006890
Rotational constants in MHz :   550.547819   266.358907   206.566401

                             ****ORCA TERMINATED NORMALLY****
TOTAL RUN TIME: 0 days 0 hours 0 minutes 20 seconds 809 msec
