                         Program Version 4.2.1 -  RELEASE  -
|  1> ! wB97X-D3 SP def2-SVP
|  2> %pal
|  3> nprocs 24
|  4> end
|  5>
|  6> * xyz 0 1
|  7> S 	 -34.5754 	 -5.84287 	 5.44031
|  8> C 	 -35.3294 	 -4.53249 	 6.45818
|  9> C 	 -36.1137 	 -3.67315 	 5.79798
| 10> C 	 -36.1207 	 -4.03081 	 4.44374
| 11> C 	 -35.2444 	 -5.03642 	 4.08869
| 12> H 	 -36.7897 	 -3.60379 	 3.68575
| 13> C 	 -36.9918 	 -2.5548 	 6.41837
| 14> H 	 -36.7943 	 -2.605 	 7.49916
| 15> H 	 -38.1044 	 -2.9385 	 6.2834
| 16> C 	 -36.8883 	 -1.11594 	 5.86874
| 17> H 	 -37.0519 	 -1.024 	 4.77682
| 18> H 	 -37.6563 	 -0.499837 	 6.2723
| 19> C 	 -35.5628 	 -0.424151 	 6.26833
| 20> H 	 -35.6342 	 0.540558 	 5.83473
| 21> H 	 -35.5576 	 -0.253248 	 7.39096
| 22> H 	 -34.6284 	 -0.873892 	 5.97033
| 23> S 	 -35.3921 	 -7.21454 	 2.31947
| 24> C 	 -34.929 	 -6.9937 	 0.696705
| 25> C 	 -34.5605 	 -5.76878 	 0.386991
| 26> C 	 -34.6953 	 -4.92734 	 1.53283
| 27> C 	 -35.0271 	 -5.58906 	 2.70501
| 28> H 	 -34.1373 	 -5.40952 	 -0.587518
| 29> C 	 -34.3735 	 -3.42784 	 1.57485
| 30> H 	 -33.4941 	 -3.07664 	 1.03551
| 31> H 	 -34.1349 	 -3.221 	 2.58984
| 32> C 	 -35.6016 	 -2.62281 	 1.0533
| 33> H 	 -36.5475 	 -2.82248 	 1.5412
| 34> H 	 -35.8185 	 -2.68406 	 -0.0360455
| 35> C 	 -35.3282 	 -1.15492 	 1.52044
| 36> H 	 -34.448 	 -0.744646 	 0.948524
| 37> H 	 -35.1241 	 -0.986812 	 2.52526
| 38> H 	 -36.24 	 -0.478827 	 1.40561
| 39> H 	 -35.1032 	 -4.4526 	 7.53118
| 40> H 	 -34.7631 	 -7.77379 	 -0.00419159
| 41> *
| 42>
| 43>                          ****END OF INPUT****

CARTESIAN COORDINATES (ANGSTROEM)
---------------------------------
  S    -34.575400   -5.842870    5.440310
  C    -35.329400   -4.532490    6.458180
  C    -36.113700   -3.673150    5.797980
  C    -36.120700   -4.030810    4.443740
  C    -35.244400   -5.036420    4.088690
  H    -36.789700   -3.603790    3.685750
  C    -36.991800   -2.554800    6.418370
  H    -36.794300   -2.605000    7.499160
  H    -38.104400   -2.938500    6.283400
  C    -36.888300   -1.115940    5.868740
  H    -37.051900   -1.024000    4.776820
  H    -37.656300   -0.499837    6.272300
  C    -35.562800   -0.424151    6.268330
  H    -35.634200    0.540558    5.834730
  H    -35.557600   -0.253248    7.390960
  H    -34.628400   -0.873892    5.970330
  S    -35.392100   -7.214540    2.319470
  C    -34.929000   -6.993700    0.696705
  C    -34.560500   -5.768780    0.386991
  C    -34.695300   -4.927340    1.532830
  C    -35.027100   -5.589060    2.705010
  H    -34.137300   -5.409520   -0.587518
  C    -34.373500   -3.427840    1.574850
  H    -33.494100   -3.076640    1.035510
  H    -34.134900   -3.221000    2.589840
  C    -35.601600   -2.622810    1.053300
  H    -36.547500   -2.822480    1.541200
  H    -35.818500   -2.684060   -0.036046
  C    -35.328200   -1.154920    1.520440
  H    -34.448000   -0.744646    0.948524
  H    -35.124100   -0.986812    2.525260
  H    -36.240000   -0.478827    1.405610
  H    -35.103200   -4.452600    7.531180
  H    -34.763100   -7.773790   -0.004192

 Total Charge           Charge          ....    0
 Multiplicity           Mult            ....    1
 Number of Electrons    NEL             ....  134
 Basis Dimension        Dim             ....  322

ORBITAL ENERGIES
----------------

  NO   OCC          E(Eh)            E(eV)
   0   2.0000     -88.967974     -2420.9417
   1   2.0000     -88.961130     -2420.7554
   2   2.0000     -10.329517      -281.0805
   3   2.0000     -10.320254      -280.8284
   4   2.0000     -10.315372      -280.6956
   5   2.0000     -10.311540      -280.5913
   6   2.0000     -10.303185      -280.3639
   7   2.0000     -10.299718      -280.2696
   8   2.0000     -10.296459      -280.1809
   9   2.0000     -10.294392      -280.1246
  10   2.0000     -10.291277      -280.0399
  11   2.0000     -10.290284      -280.0129
  12   2.0000     -10.288604      -279.9672
  13   2.0000     -10.286039      -279.8974
  14   2.0000     -10.279821      -279.7282
  15   2.0000     -10.278603      -279.6950
  16   2.0000      -8.082624      -219.9394
  17   2.0000      -8.077731      -219.8062
  18   2.0000      -6.041028      -164.3847
  19   2.0000      -6.037483      -164.2883
  20   2.0000      -6.036181      -164.2528
  21   2.0000      -6.033155      -164.1705
  22   2.0000      -6.031981      -164.1386
  23   2.0000      -6.028451      -164.0425
  24   2.0000      -1.014818       -27.6146
  25   2.0000      -0.993811       -27.0430
  26   2.0000      -0.909880       -24.7591
  27   2.0000      -0.904117       -24.6023
  28   2.0000      -0.872875       -23.7521
  29   2.0000      -0.847622       -23.0650
  30   2.0000      -0.845505       -23.0074
  31   2.0000      -0.814814       -22.1722
  32   2.0000      -0.784668       -21.3519
  33   2.0000      -0.766313       -20.8524
  34   2.0000      -0.707889       -19.2626
  35   2.0000      -0.701988       -19.1021
  36   2.0000      -0.693798       -18.8792
  37   2.0000      -0.655854       -17.8467
  38   2.0000      -0.637777       -17.3548
  39   2.0000      -0.621459       -16.9108
  40   2.0000      -0.598876       -16.2962
  41   2.0000      -0.567303       -15.4371
  42   2.0000      -0.557872       -15.1805
  43   2.0000      -0.551761       -15.0142
  44   2.0000      -0.541139       -14.7251
  45   2.0000      -0.522634       -14.2216
  46   2.0000      -0.514896       -14.0110
  47   2.0000      -0.509324       -13.8594
  48   2.0000      -0.502522       -13.6743
  49   2.0000      -0.492463       -13.4006
  50   2.0000      -0.482766       -13.1367
  51   2.0000      -0.480815       -13.0836
  52   2.0000      -0.470400       -12.8002
  53   2.0000      -0.465787       -12.6747
  54   2.0000      -0.461130       -12.5480
  55   2.0000      -0.453419       -12.3382
  56   2.0000      -0.445034       -12.1100
  57   2.0000      -0.438726       -11.9383
  58   2.0000      -0.436933       -11.8896
  59   2.0000      -0.426580       -11.6078
  60   2.0000      -0.424021       -11.5382
  61   2.0000      -0.421019       -11.4565
  62   2.0000      -0.401561       -10.9270
  63   2.0000      -0.347961        -9.4685
  64   2.0000      -0.337646        -9.1878
  65   2.0000      -0.324969        -8.8429
  66   2.0000      -0.296909        -8.0793
  67   0.0000       0.037392         1.0175
  68   0.0000       0.078218         2.1284
  69   0.0000       0.102521         2.7897
  70   0.0000       0.121729         3.3124
  71   0.0000       0.132454         3.6043

MULLIKEN ATOMIC CHARGES
-----------------------
   0 S :    0.107711
   1 C :   -0.156062
   2 C :   -0.032937
   3 C :    0.013056
   4 C :   -0.162476
   5 H :    0.010977
   6 C :    0.032498
   7 H :    0.021908
   8 H :    0.059847
   9 C :   -0.054009
  10 H :    0.034058
  11 H :    0.024553
  12 C :   -0.062594
  13 H :    0.024308
  14 H :    0.034131
  15 H :    0.047827
  16 S :    0.111936
  17 C :   -0.057775
  18 C :   -0.032770
  19 C :   -0.059487
  20 C :   -0.140913
  21 H :    0.034020
  22 C :    0.066450
  23 H :    0.021930
  24 H :    0.024707
  25 C :   -0.072081
  26 H :    0.024454
  27 H :    0.044479
  28 C :   -0.074179
  29 H :    0.031723
  30 H :    0.018028
  31 H :    0.031070
  32 H :    0.046818
  33 H :    0.038795
Sum of atomic charges:    0.0000000

LOEWDIN ATOMIC CHARGES
----------------------
   0 S :    0.391357
   1 C :   -0.171857
   2 C :   -0.070434
   3 C :   -0.064093
   4 C :   -0.198951
   5 H :    0.031663
   6 C :   -0.031108
   7 H :    0.029967
   8 H :    0.048013
   9 C :   -0.042949
  10 H :    0.026531
  11 H :    0.025307
  12 C :   -0.065152
  13 H :    0.021751
  14 H :    0.031336
  15 H :    0.023842
  16 S :    0.430534
  17 C :   -0.191602
  18 C :   -0.078660
  19 C :   -0.054450
  20 C :   -0.221127
  21 H :    0.043816
  22 C :   -0.026069
  23 H :    0.028797
  24 H :    0.026551
  25 C :   -0.036569
  26 H :    0.018245
  27 H :    0.030071
  28 C :   -0.072548
  29 H :    0.026993
  30 H :    0.011568
  31 H :    0.027561
  32 H :    0.026543
  33 H :    0.025121

  Mayer bond orders larger than 0.100000
B(  0-S ,  1-C ) :   1.1171 B(  0-S ,  4-C ) :   1.1568 B(  1-C ,  2-C ) :   1.6576
B(  1-C , 32-H ) :   0.9568 B(  2-C ,  3-C ) :   1.2177 B(  2-C ,  6-C ) :   1.0067
B(  3-C ,  4-C ) :   1.5951 B(  3-C ,  5-H ) :   0.9910 B(  4-C , 20-C ) :   0.9874
B(  6-C ,  7-H ) :   0.9421 B(  6-C ,  8-H ) :   0.9403 B(  6-C ,  9-C ) :   1.0663
B(  9-C , 10-H ) :   0.9563 B(  9-C , 11-H ) :   0.9505 B(  9-C , 12-C ) :   1.0739
B( 12-C , 13-H ) :   0.9732 B( 12-C , 14-H ) :   0.9744 B( 12-C , 15-H ) :   0.9800
B( 16-S , 17-C ) :   1.1644 B( 16-S , 20-C ) :   1.1412 B( 17-C , 18-C ) :   1.6161
B( 17-C , 33-H ) :   0.9606 B( 18-C , 19-C ) :   1.2503 B( 18-C , 21-H ) :   0.9875
B( 19-C , 20-C ) :   1.6218 B( 19-C , 22-C ) :   1.0395 B( 22-C , 23-H ) :   0.9443
B( 22-C , 24-H ) :   0.9421 B( 22-C , 25-C ) :   1.0411 B( 25-C , 26-H ) :   0.9596
B( 25-C , 27-H ) :   0.9571 B( 25-C , 28-C ) :   1.0693 B( 28-C , 29-H ) :   0.9724
B( 28-C , 30-H ) :   0.9774 B( 28-C , 31-H ) :   0.9757

Dispersion correction           -0.015404892
FINAL SINGLE POINT ENERGY     -1339.865524760202

DIPOLE MOMENT
-------------
                                X             Y             Z
Electronic contribution:      4.91571     -32.34298       0.00719
Nuclear contribution   :     -5.07838      33.01754      -0.06162
                        -----------------------------------------
Total Dipole Moment    :     -0.16266       0.67456      -0.05442
                        -----------------------------------------
Magnitude (a.u.)       :      0.69603
Magnitude (Debye)      :      1.76916

Rotational constants in cm-1:     0.019093     0.009978     0.007100
Rotational constants in MHz :   572.386562   299.128919   212.864301

                             ****ORCA TERMINATED NORMALLY****
TOTAL RUN TIME: 0 days 0 hours 0 minutes 22 seconds 890 msec
