                         Program Version 4.2.1 -  RELEASE  -
|  1> ! wB97X-D3 SP def2-SVP
|  2> %pal
|  3> nprocs 24
|  4> end
|  5>
|  6> * xyz 0 1
|  7> S 	 -99.0112 	 1.79261 	 -119.361
|  8> C 	 -100.19 	 2.00553 	 -120.608
|  9> C 	 -101.443 	 2.35384 	 -120.103
| 10> C 	 -101.41 	 2.48727 	 -118.674
| 11> C 	 -100.221 	 2.23822 	 -118.101
| 12> H 	 -102.088 	 2.7682 	 -117.976
| 13> C 	 -102.725 	 2.75695 	 -120.857
| 14> H 	 -102.655 	 2.22832 	 -121.826
| 15> H 	 -102.639 	 3.86247 	 -121.031
| 16> C 	 -104.071 	 2.47657 	 -120.196
| 17> H 	 -103.988 	 3.07031 	 -119.306
| 18> H 	 -104.876 	 2.95074 	 -120.766
| 19> C 	 -104.397 	 1.01363 	 -119.983
| 20> H 	 -104.767 	 0.506899 	 -120.828
| 21> H 	 -103.473 	 0.476784 	 -119.775
| 22> H 	 -105.092 	 0.994444 	 -119.172
| 23> S 	 -98.5189 	 3.30927 	 -116.275
| 24> C 	 -98.7736 	 3.03637 	 -114.63
| 25> C 	 -99.815 	 2.1405 	 -114.343
| 26> C 	 -100.517 	 1.84425 	 -115.554
| 27> C 	 -99.8492 	 2.32313 	 -116.689
| 28> H 	 -99.9113 	 1.73366 	 -113.378
| 29> C 	 -101.768 	 1.04436 	 -115.585
| 30> H 	 -101.601 	 0.212887 	 -114.932
| 31> H 	 -101.82 	 0.530881 	 -116.555
| 32> C 	 -103.123 	 1.79969 	 -115.302
| 33> H 	 -103.176 	 2.73389 	 -115.881
| 34> H 	 -103.139 	 2.01109 	 -114.257
| 35> C 	 -104.371 	 0.947079 	 -115.759
| 36> H 	 -104.344 	 0.930807 	 -116.802
| 37> H 	 -105.341 	 1.30392 	 -115.314
| 38> H 	 -104.315 	 -0.0620398 	 -115.402
| 39> H 	 -99.8634 	 2.05703 	 -121.611
| 40> H 	 -98.0203 	 3.17665 	 -113.936
| 41> *
| 42>
| 43>                          ****END OF INPUT****

CARTESIAN COORDINATES (ANGSTROEM)
---------------------------------
  S    -99.011200    1.792610  -119.361000
  C    -100.190000    2.005530  -120.608000
  C    -101.443000    2.353840  -120.103000
  C    -101.410000    2.487270  -118.674000
  C    -100.221000    2.238220  -118.101000
  H    -102.088000    2.768200  -117.976000
  C    -102.725000    2.756950  -120.857000
  H    -102.655000    2.228320  -121.826000
  H    -102.639000    3.862470  -121.031000
  C    -104.071000    2.476570  -120.196000
  H    -103.988000    3.070310  -119.306000
  H    -104.876000    2.950740  -120.766000
  C    -104.397000    1.013630  -119.983000
  H    -104.767000    0.506899  -120.828000
  H    -103.473000    0.476784  -119.775000
  H    -105.092000    0.994444  -119.172000
  S    -98.518900    3.309270  -116.275000
  C    -98.773600    3.036370  -114.630000
  C    -99.815000    2.140500  -114.343000
  C    -100.517000    1.844250  -115.554000
  C    -99.849200    2.323130  -116.689000
  H    -99.911300    1.733660  -113.378000
  C    -101.768000    1.044360  -115.585000
  H    -101.601000    0.212887  -114.932000
  H    -101.820000    0.530881  -116.555000
  C    -103.123000    1.799690  -115.302000
  H    -103.176000    2.733890  -115.881000
  H    -103.139000    2.011090  -114.257000
  C    -104.371000    0.947079  -115.759000
  H    -104.344000    0.930807  -116.802000
  H    -105.341000    1.303920  -115.314000
  H    -104.315000   -0.062040  -115.402000
  H    -99.863400    2.057030  -121.611000
  H    -98.020300    3.176650  -113.936000

 Total Charge           Charge          ....    0
 Multiplicity           Mult            ....    1
 Number of Electrons    NEL             ....  134
 Basis Dimension        Dim             ....  322

ORBITAL ENERGIES
----------------

  NO   OCC          E(Eh)            E(eV)
   0   2.0000     -88.967011     -2420.9155
   1   2.0000     -88.961312     -2420.7604
   2   2.0000     -10.325603      -280.9740
   3   2.0000     -10.321497      -280.8622
   4   2.0000     -10.313407      -280.6421
   5   2.0000     -10.306796      -280.4622
   6   2.0000     -10.306668      -280.4587
   7   2.0000     -10.302981      -280.3584
   8   2.0000     -10.296021      -280.1690
   9   2.0000     -10.293333      -280.0958
  10   2.0000     -10.292684      -280.0782
  11   2.0000     -10.287390      -279.9341
  12   2.0000     -10.284468      -279.8546
  13   2.0000     -10.282809      -279.8094
  14   2.0000     -10.279032      -279.7067
  15   2.0000     -10.270749      -279.4813
  16   2.0000      -8.083626      -219.9666
  17   2.0000      -8.076074      -219.7611
  18   2.0000      -6.041859      -164.4073
  19   2.0000      -6.037769      -164.2961
  20   2.0000      -6.034672      -164.2118
  21   2.0000      -6.034638      -164.2109
  22   2.0000      -6.030577      -164.1003
  23   2.0000      -6.026785      -163.9971
  24   2.0000      -1.012344       -27.5473
  25   2.0000      -0.986667       -26.8486
  26   2.0000      -0.912437       -24.8287
  27   2.0000      -0.907178       -24.6856
  28   2.0000      -0.873268       -23.7628
  29   2.0000      -0.855175       -23.2705
  30   2.0000      -0.846981       -23.0475
  31   2.0000      -0.819536       -22.3007
  32   2.0000      -0.783917       -21.3315
  33   2.0000      -0.772608       -21.0237
  34   2.0000      -0.710151       -19.3242
  35   2.0000      -0.703662       -19.1476
  36   2.0000      -0.693638       -18.8748
  37   2.0000      -0.667127       -18.1534
  38   2.0000      -0.652305       -17.7501
  39   2.0000      -0.623102       -16.9555
  40   2.0000      -0.594654       -16.1814
  41   2.0000      -0.569969       -15.5096
  42   2.0000      -0.562652       -15.3105
  43   2.0000      -0.555197       -15.1077
  44   2.0000      -0.540655       -14.7120
  45   2.0000      -0.527926       -14.3656
  46   2.0000      -0.522544       -14.2191
  47   2.0000      -0.513232       -13.9658
  48   2.0000      -0.510916       -13.9027
  49   2.0000      -0.505904       -13.7664
  50   2.0000      -0.492268       -13.3953
  51   2.0000      -0.482833       -13.1386
  52   2.0000      -0.470674       -12.8077
  53   2.0000      -0.464982       -12.6528
  54   2.0000      -0.456067       -12.4102
  55   2.0000      -0.453500       -12.3404
  56   2.0000      -0.442646       -12.0450
  57   2.0000      -0.437473       -11.9042
  58   2.0000      -0.435088       -11.8393
  59   2.0000      -0.428313       -11.6550
  60   2.0000      -0.425743       -11.5851
  61   2.0000      -0.420621       -11.4457
  62   2.0000      -0.407511       -11.0889
  63   2.0000      -0.349218        -9.5027
  64   2.0000      -0.331142        -9.0108
  65   2.0000      -0.326986        -8.8977
  66   2.0000      -0.293615        -7.9897
  67   0.0000       0.030793         0.8379
  68   0.0000       0.072704         1.9784
  69   0.0000       0.116225         3.1626
  70   0.0000       0.120789         3.2868
  71   0.0000       0.128020         3.4836

MULLIKEN ATOMIC CHARGES
-----------------------
   0 S :    0.090051
   1 C :   -0.114608
   2 C :   -0.064988
   3 C :    0.078767
   4 C :   -0.156008
   5 H :   -0.069252
   6 C :    0.038328
   7 H :    0.022068
   8 H :    0.054618
   9 C :   -0.077444
  10 H :    0.021273
  11 H :    0.030334
  12 C :   -0.011329
  13 H :    0.022070
  14 H :    0.033100
  15 H :    0.041386
  16 S :    0.134424
  17 C :   -0.064637
  18 C :   -0.033443
  19 C :   -0.038607
  20 C :   -0.156171
  21 H :    0.008733
  22 C :    0.035646
  23 H :    0.017064
  24 H :    0.023734
  25 C :   -0.057422
  26 H :    0.041127
  27 H :    0.026333
  28 C :   -0.036183
  29 H :    0.018810
  30 H :    0.042718
  31 H :    0.023132
  32 H :    0.040938
  33 H :    0.035440
Sum of atomic charges:    0.0000000

LOEWDIN ATOMIC CHARGES
----------------------
   0 S :    0.379304
   1 C :   -0.193357
   2 C :   -0.061560
   3 C :   -0.057653
   4 C :   -0.169005
   5 H :    0.013452
   6 C :   -0.035792
   7 H :    0.026943
   8 H :    0.041445
   9 C :   -0.043950
  10 H :    0.019173
  11 H :    0.028973
  12 C :   -0.058384
  13 H :    0.022350
  14 H :    0.029307
  15 H :    0.025748
  16 S :    0.461184
  17 C :   -0.199035
  18 C :   -0.058774
  19 C :   -0.052678
  20 C :   -0.221277
  21 H :    0.026521
  22 C :   -0.040389
  23 H :    0.028838
  24 H :    0.031196
  25 C :   -0.027071
  26 H :    0.023598
  27 H :    0.018598
  28 C :   -0.060679
  29 H :    0.015748
  30 H :    0.033622
  31 H :    0.021420
  32 H :    0.020406
  33 H :    0.011778

  Mayer bond orders larger than 0.100000
B(  0-S ,  1-C ) :   1.1438 B(  0-S ,  4-C ) :   1.1245 B(  1-C ,  2-C ) :   1.6186
B(  1-C , 32-H ) :   0.9763 B(  2-C ,  3-C ) :   1.1765 B(  2-C ,  6-C ) :   1.0077
B(  3-C ,  4-C ) :   1.6413 B(  3-C ,  5-H ) :   1.0088 B(  4-C , 20-C ) :   1.0135
B(  6-C ,  7-H ) :   0.9424 B(  6-C ,  8-H ) :   0.9391 B(  6-C ,  9-C ) :   1.0842
B(  9-C , 10-H ) :   0.9497 B(  9-C , 11-H ) :   0.9498 B(  9-C , 12-C ) :   1.0747
B( 12-C , 13-H ) :   0.9690 B( 12-C , 14-H ) :   0.9769 B( 12-C , 15-H ) :   0.9684
B( 16-S , 17-C ) :   1.1925 B( 16-S , 20-C ) :   1.1718 B( 17-C , 18-C ) :   1.5769
B( 17-C , 20-C ) :   0.1000 B( 17-C , 33-H ) :   0.9657 B( 18-C , 19-C ) :   1.2562
B( 18-C , 21-H ) :   1.0004 B( 19-C , 20-C ) :   1.5578 B( 19-C , 22-C ) :   1.0588
B( 22-C , 23-H ) :   0.9269 B( 22-C , 24-H ) :   0.9362 B( 22-C , 25-C ) :   1.0422
B( 25-C , 26-H ) :   0.9594 B( 25-C , 27-H ) :   0.9558 B( 25-C , 28-C ) :   1.0731
B( 28-C , 29-H ) :   0.9768 B( 28-C , 30-H ) :   0.9752 B( 28-C , 31-H ) :   0.9735

Dispersion correction           -0.015756518
FINAL SINGLE POINT ENERGY     -1339.870420302748

DIPOLE MOMENT
-------------
                                X             Y             Z
Electronic contribution:     31.01470       6.62982       0.88322
Nuclear contribution   :    -31.57792      -6.71159      -0.75650
                        -----------------------------------------
Total Dipole Moment    :     -0.56321      -0.08176       0.12672
                        -----------------------------------------
Magnitude (a.u.)       :      0.58305
Magnitude (Debye)      :      1.48201

Rotational constants in cm-1:     0.017131     0.011017     0.007262
Rotational constants in MHz :   513.573494   330.289880   217.703792

                             ****ORCA TERMINATED NORMALLY****
TOTAL RUN TIME: 0 days 0 hours 0 minutes 23 seconds 389 msec
