                         Program Version 4.2.1 -  RELEASE  -
|  1> ! wB97X-D3 SP def2-SVP
|  2> %pal
|  3> nprocs 24
|  4> end
|  5>
|  6> * xyz 0 1
|  7> S 	 -47.3191 	 -49.6428 	 -74.0975
|  8> C 	 -46.17 	 -48.339 	 -74.1616
|  9> C 	 -45.5822 	 -48.1674 	 -72.9501
| 10> C 	 -45.7433 	 -49.3132 	 -72.0889
| 11> C 	 -46.6304 	 -50.2515 	 -72.5848
| 12> H 	 -45.115 	 -49.5914 	 -71.2112
| 13> C 	 -44.7327 	 -46.9928 	 -72.5806
| 14> H 	 -45.2885 	 -46.0302 	 -72.7459
| 15> H 	 -43.8793 	 -46.8607 	 -73.2491
| 16> C 	 -44.3485 	 -46.8152 	 -71.0609
| 17> H 	 -45.2725 	 -46.7106 	 -70.4586
| 18> H 	 -43.8795 	 -47.7112 	 -70.7641
| 19> C 	 -43.4328 	 -45.646 	 -70.7587
| 20> H 	 -42.5136 	 -45.7816 	 -71.288
| 21> H 	 -43.94 	 -44.7099 	 -71.069
| 22> H 	 -43.2332 	 -45.6604 	 -69.6654
| 23> S 	 -46.1776 	 -52.9301 	 -72.0693
| 24> C 	 -47.4592 	 -53.7671 	 -71.2978
| 25> C 	 -48.4689 	 -52.8962 	 -70.8632
| 26> C 	 -48.2241 	 -51.5681 	 -71.2018
| 27> C 	 -47.0694 	 -51.4423 	 -71.9135
| 28> H 	 -49.2482 	 -53.3025 	 -70.2267
| 29> C 	 -49.2187 	 -50.3985 	 -70.9
| 30> H 	 -50.0489 	 -50.879 	 -70.3526
| 31> H 	 -49.6692 	 -50.0044 	 -71.8223
| 32> C 	 -48.8416 	 -49.3567 	 -69.8007
| 33> H 	 -49.6289 	 -48.6955 	 -69.7741
| 34> H 	 -47.9545 	 -48.7051 	 -70.0356
| 35> C 	 -48.5706 	 -50.0291 	 -68.4158
| 36> H 	 -47.8967 	 -50.854 	 -68.5664
| 37> H 	 -49.4816 	 -50.4856 	 -67.9394
| 38> H 	 -48.1842 	 -49.3951 	 -67.615
| 39> H 	 -46.1522 	 -47.5285 	 -74.9146
| 40> H 	 -47.2997 	 -54.8272 	 -70.9946
| 41> *
| 42>
| 43>                          ****END OF INPUT****

CARTESIAN COORDINATES (ANGSTROEM)
---------------------------------
  S    -47.319100  -49.642800  -74.097500
  C    -46.170000  -48.339000  -74.161600
  C    -45.582200  -48.167400  -72.950100
  C    -45.743300  -49.313200  -72.088900
  C    -46.630400  -50.251500  -72.584800
  H    -45.115000  -49.591400  -71.211200
  C    -44.732700  -46.992800  -72.580600
  H    -45.288500  -46.030200  -72.745900
  H    -43.879300  -46.860700  -73.249100
  C    -44.348500  -46.815200  -71.060900
  H    -45.272500  -46.710600  -70.458600
  H    -43.879500  -47.711200  -70.764100
  C    -43.432800  -45.646000  -70.758700
  H    -42.513600  -45.781600  -71.288000
  H    -43.940000  -44.709900  -71.069000
  H    -43.233200  -45.660400  -69.665400
  S    -46.177600  -52.930100  -72.069300
  C    -47.459200  -53.767100  -71.297800
  C    -48.468900  -52.896200  -70.863200
  C    -48.224100  -51.568100  -71.201800
  C    -47.069400  -51.442300  -71.913500
  H    -49.248200  -53.302500  -70.226700
  C    -49.218700  -50.398500  -70.900000
  H    -50.048900  -50.879000  -70.352600
  H    -49.669200  -50.004400  -71.822300
  C    -48.841600  -49.356700  -69.800700
  H    -49.628900  -48.695500  -69.774100
  H    -47.954500  -48.705100  -70.035600
  C    -48.570600  -50.029100  -68.415800
  H    -47.896700  -50.854000  -68.566400
  H    -49.481600  -50.485600  -67.939400
  H    -48.184200  -49.395100  -67.615000
  H    -46.152200  -47.528500  -74.914600
  H    -47.299700  -54.827200  -70.994600

 Total Charge           Charge          ....    0
 Multiplicity           Mult            ....    1
 Number of Electrons    NEL             ....  134
 Basis Dimension        Dim             ....  322

ORBITAL ENERGIES
----------------

  NO   OCC          E(Eh)            E(eV)
   0   2.0000     -88.967405     -2420.9262
   1   2.0000     -88.962708     -2420.7984
   2   2.0000     -10.323926      -280.9283
   3   2.0000     -10.318595      -280.7833
   4   2.0000     -10.316848      -280.7357
   5   2.0000     -10.310940      -280.5749
   6   2.0000     -10.299911      -280.2748
   7   2.0000     -10.298544      -280.2376
   8   2.0000     -10.297883      -280.2196
   9   2.0000     -10.295648      -280.1588
  10   2.0000     -10.293794      -280.1084
  11   2.0000     -10.293116      -280.0899
  12   2.0000     -10.285913      -279.8939
  13   2.0000     -10.285232      -279.8754
  14   2.0000     -10.281404      -279.7712
  15   2.0000     -10.278270      -279.6859
  16   2.0000      -8.083024      -219.9503
  17   2.0000      -8.077228      -219.7926
  18   2.0000      -6.041239      -164.3905
  19   2.0000      -6.037400      -164.2860
  20   2.0000      -6.035759      -164.2414
  21   2.0000      -6.034053      -164.1949
  22   2.0000      -6.031820      -164.1342
  23   2.0000      -6.027915      -164.0279
  24   2.0000      -1.011010       -27.5110
  25   2.0000      -0.987700       -26.8767
  26   2.0000      -0.908768       -24.7288
  27   2.0000      -0.901443       -24.5295
  28   2.0000      -0.872407       -23.7394
  29   2.0000      -0.850823       -23.1521
  30   2.0000      -0.845504       -23.0073
  31   2.0000      -0.810470       -22.0540
  32   2.0000      -0.781086       -21.2544
  33   2.0000      -0.769600       -20.9419
  34   2.0000      -0.711545       -19.3621
  35   2.0000      -0.698676       -19.0119
  36   2.0000      -0.683571       -18.6009
  37   2.0000      -0.663082       -18.0434
  38   2.0000      -0.636706       -17.3256
  39   2.0000      -0.614190       -16.7129
  40   2.0000      -0.591605       -16.0984
  41   2.0000      -0.570761       -15.5312
  42   2.0000      -0.565456       -15.3868
  43   2.0000      -0.552024       -15.0213
  44   2.0000      -0.541707       -14.7406
  45   2.0000      -0.522796       -14.2260
  46   2.0000      -0.517412       -14.0795
  47   2.0000      -0.504343       -13.7239
  48   2.0000      -0.497716       -13.5435
  49   2.0000      -0.490757       -13.3542
  50   2.0000      -0.487900       -13.2764
  51   2.0000      -0.476357       -12.9623
  52   2.0000      -0.469246       -12.7688
  53   2.0000      -0.464573       -12.6417
  54   2.0000      -0.459287       -12.4978
  55   2.0000      -0.451133       -12.2760
  56   2.0000      -0.445881       -12.1330
  57   2.0000      -0.440937       -11.9985
  58   2.0000      -0.432580       -11.7711
  59   2.0000      -0.426363       -11.6019
  60   2.0000      -0.419542       -11.4163
  61   2.0000      -0.412356       -11.2208
  62   2.0000      -0.409041       -11.1306
  63   2.0000      -0.339267        -9.2319
  64   2.0000      -0.329039        -8.9536
  65   2.0000      -0.320058        -8.7092
  66   2.0000      -0.307436        -8.3658
  67   0.0000       0.044330         1.2063
  68   0.0000       0.049709         1.3526
  69   0.0000       0.111128         3.0239
  70   0.0000       0.123108         3.3499
  71   0.0000       0.133179         3.6240

MULLIKEN ATOMIC CHARGES
-----------------------
   0 S :    0.109273
   1 C :   -0.118000
   2 C :   -0.058646
   3 C :    0.013289
   4 C :   -0.151274
   5 H :    0.036441
   6 C :    0.011779
   7 H :    0.026778
   8 H :    0.036275
   9 C :   -0.102106
  10 H :    0.037454
  11 H :    0.020483
  12 C :   -0.028421
  13 H :    0.029236
  14 H :    0.034718
  15 H :    0.043686
  16 S :    0.134664
  17 C :   -0.124981
  18 C :   -0.040579
  19 C :   -0.020024
  20 C :   -0.211332
  21 H :    0.020834
  22 C :    0.070521
  23 H :    0.009551
  24 H :    0.045977
  25 C :   -0.019051
  26 H :    0.011273
  27 H :    0.040344
  28 C :   -0.090762
  29 H :    0.039014
  30 H :    0.025882
  31 H :    0.038268
  32 H :    0.054623
  33 H :    0.074812
Sum of atomic charges:    0.0000000

LOEWDIN ATOMIC CHARGES
----------------------
   0 S :    0.398365
   1 C :   -0.199937
   2 C :   -0.070336
   3 C :   -0.063670
   4 C :   -0.188276
   5 H :    0.040092
   6 C :   -0.042816
   7 H :    0.034833
   8 H :    0.031186
   9 C :   -0.041350
  10 H :    0.027370
  11 H :    0.010966
  12 C :   -0.059967
  13 H :    0.021430
  14 H :    0.027217
  15 H :    0.034245
  16 S :    0.434232
  17 C :   -0.202604
  18 C :   -0.074594
  19 C :   -0.058114
  20 C :   -0.212571
  21 H :    0.032588
  22 C :   -0.027412
  23 H :    0.032458
  24 H :    0.033618
  25 C :   -0.031686
  26 H :    0.012581
  27 H :    0.027736
  28 C :   -0.072790
  29 H :    0.024065
  30 H :    0.025868
  31 H :    0.027059
  32 H :    0.035453
  33 H :    0.034761

  Mayer bond orders larger than 0.100000
B(  0-S ,  1-C ) :   1.1311 B(  0-S ,  4-C ) :   1.1364 B(  1-C ,  2-C ) :   1.6433
B(  1-C , 32-H ) :   0.9656 B(  2-C ,  3-C ) :   1.2213 B(  2-C ,  6-C ) :   1.0170
B(  3-C ,  4-C ) :   1.6085 B(  3-C ,  5-H ) :   0.9796 B(  4-C , 20-C ) :   1.0296
B(  6-C ,  7-H ) :   0.9390 B(  6-C ,  8-H ) :   0.9428 B(  6-C ,  9-C ) :   1.0674
B(  9-C , 10-H ) :   0.9572 B(  9-C , 11-H ) :   0.9476 B(  9-C , 12-C ) :   1.0928
B( 12-C , 13-H ) :   0.9742 B( 12-C , 14-H ) :   0.9741 B( 12-C , 15-H ) :   0.9710
B( 16-S , 17-C ) :   1.1838 B( 16-S , 20-C ) :   1.1649 B( 17-C , 18-C ) :   1.5694
B( 17-C , 20-C ) :   0.1061 B( 17-C , 33-H ) :   0.9611 B( 18-C , 19-C ) :   1.2789
B( 18-C , 21-H ) :   0.9890 B( 19-C , 20-C ) :   1.5803 B( 19-C , 22-C ) :   1.0246
B( 22-C , 23-H ) :   0.9346 B( 22-C , 24-H ) :   0.9369 B( 22-C , 25-C ) :   1.0610
B( 25-C , 26-H ) :   0.9569 B( 25-C , 27-H ) :   0.9552 B( 25-C , 28-C ) :   1.0610
B( 28-C , 29-H ) :   0.9791 B( 28-C , 30-H ) :   0.9739 B( 28-C , 31-H ) :   0.9766

Dispersion correction           -0.015123018
FINAL SINGLE POINT ENERGY     -1339.874736943016

DIPOLE MOMENT
-------------
                                X             Y             Z
Electronic contribution:     -2.39432     -20.57954     -18.53599
Nuclear contribution   :      2.43632      20.95043      19.02815
                        -----------------------------------------
Total Dipole Moment    :      0.04200       0.37089       0.49215
                        -----------------------------------------
Magnitude (a.u.)       :      0.61769
Magnitude (Debye)      :      1.57004

Rotational constants in cm-1:     0.018524     0.008756     0.007569
Rotational constants in MHz :   555.327600   262.501888   226.905167

                             ****ORCA TERMINATED NORMALLY****
TOTAL RUN TIME: 0 days 0 hours 0 minutes 22 seconds 211 msec
