                         Program Version 4.2.1 -  RELEASE  -
|  1> ! wB97X-D3 SP def2-SVP
|  2> %pal
|  3> nprocs 24
|  4> end
|  5>
|  6> * xyz 0 1
|  7> S 	 -31.8682 	 -4.1432 	 0.00139867
|  8> C 	 -31.318 	 -4.05308 	 1.64223
|  9> C 	 -31.6448 	 -5.23347 	 2.29884
| 10> C 	 -32.3077 	 -6.21207 	 1.46927
| 11> C 	 -32.3291 	 -5.81411 	 0.172703
| 12> H 	 -32.4103 	 -7.18985 	 1.83173
| 13> C 	 -31.3937 	 -5.31478 	 3.75534
| 14> H 	 -32.2667 	 -5.56026 	 4.38978
| 15> H 	 -31.1437 	 -4.29529 	 4.13686
| 16> C 	 -30.1358 	 -6.10029 	 4.1644
| 17> H 	 -29.1751 	 -5.67505 	 3.78808
| 18> H 	 -30.0796 	 -6.00307 	 5.25814
| 19> C 	 -30.122 	 -7.59281 	 3.81397
| 20> H 	 -29.7535 	 -7.74087 	 2.81438
| 21> H 	 -29.3632 	 -8.06775 	 4.47174
| 22> H 	 -31.0527 	 -8.21547 	 3.9134
| 23> S 	 -31.6927 	 -7.30391 	 -2.09522
| 24> C 	 -32.9386 	 -8.2088 	 -2.93526
| 25> C 	 -34.1467 	 -7.86354 	 -2.39136
| 26> C 	 -34.121 	 -6.97671 	 -1.25452
| 27> C 	 -32.8279 	 -6.65528 	 -0.915993
| 28> H 	 -35.0322 	 -8.31689 	 -2.78902
| 29> C 	 -35.3043 	 -6.48758 	 -0.468713
| 30> H 	 -35.3158 	 -5.39733 	 -0.532609
| 31> H 	 -35.1117 	 -6.61505 	 0.600538
| 32> C 	 -36.5947 	 -7.15298 	 -0.835092
| 33> H 	 -36.5288 	 -8.17568 	 -0.558135
| 34> H 	 -36.71 	 -7.1062 	 -1.92378
| 35> C 	 -37.7851 	 -6.51407 	 -0.0957437
| 36> H 	 -38.6678 	 -7.09128 	 0.0295615
| 37> H 	 -38.0999 	 -5.57742 	 -0.579298
| 38> H 	 -37.4883 	 -6.31682 	 0.931635
| 39> H 	 -30.6531 	 -3.28407 	 2.0394
| 40> H 	 -32.7399 	 -8.93333 	 -3.70735
| 41> *
| 42>
| 43>                          ****END OF INPUT****

CARTESIAN COORDINATES (ANGSTROEM)
---------------------------------
  S    -31.868200   -4.143200    0.001399
  C    -31.318000   -4.053080    1.642230
  C    -31.644800   -5.233470    2.298840
  C    -32.307700   -6.212070    1.469270
  C    -32.329100   -5.814110    0.172703
  H    -32.410300   -7.189850    1.831730
  C    -31.393700   -5.314780    3.755340
  H    -32.266700   -5.560260    4.389780
  H    -31.143700   -4.295290    4.136860
  C    -30.135800   -6.100290    4.164400
  H    -29.175100   -5.675050    3.788080
  H    -30.079600   -6.003070    5.258140
  C    -30.122000   -7.592810    3.813970
  H    -29.753500   -7.740870    2.814380
  H    -29.363200   -8.067750    4.471740
  H    -31.052700   -8.215470    3.913400
  S    -31.692700   -7.303910   -2.095220
  C    -32.938600   -8.208800   -2.935260
  C    -34.146700   -7.863540   -2.391360
  C    -34.121000   -6.976710   -1.254520
  C    -32.827900   -6.655280   -0.915993
  H    -35.032200   -8.316890   -2.789020
  C    -35.304300   -6.487580   -0.468713
  H    -35.315800   -5.397330   -0.532609
  H    -35.111700   -6.615050    0.600538
  C    -36.594700   -7.152980   -0.835092
  H    -36.528800   -8.175680   -0.558135
  H    -36.710000   -7.106200   -1.923780
  C    -37.785100   -6.514070   -0.095744
  H    -38.667800   -7.091280    0.029561
  H    -38.099900   -5.577420   -0.579298
  H    -37.488300   -6.316820    0.931635
  H    -30.653100   -3.284070    2.039400
  H    -32.739900   -8.933330   -3.707350

 Total Charge           Charge          ....    0
 Multiplicity           Mult            ....    1
 Number of Electrons    NEL             ....  134
 Basis Dimension        Dim             ....  322

ORBITAL ENERGIES
----------------

  NO   OCC          E(Eh)            E(eV)
   0   2.0000     -88.965242     -2420.8673
   1   2.0000     -88.960170     -2420.7293
   2   2.0000     -10.327402      -281.0229
   3   2.0000     -10.321045      -280.8499
   4   2.0000     -10.316923      -280.7377
   5   2.0000     -10.311910      -280.6013
   6   2.0000     -10.301235      -280.3108
   7   2.0000     -10.297835      -280.2183
   8   2.0000     -10.291841      -280.0552
   9   2.0000     -10.291622      -280.0493
  10   2.0000     -10.289908      -280.0026
  11   2.0000     -10.289723      -279.9976
  12   2.0000     -10.286497      -279.9098
  13   2.0000     -10.282314      -279.7960
  14   2.0000     -10.278000      -279.6786
  15   2.0000     -10.274863      -279.5932
  16   2.0000      -8.080388      -219.8785
  17   2.0000      -8.074898      -219.7291
  18   2.0000      -6.038889      -164.3265
  19   2.0000      -6.034775      -164.2146
  20   2.0000      -6.033395      -164.1770
  21   2.0000      -6.031198      -164.1172
  22   2.0000      -6.029333      -164.0665
  23   2.0000      -6.025741      -163.9688
  24   2.0000      -1.008299       -27.4372
  25   2.0000      -0.985867       -26.8268
  26   2.0000      -0.915067       -24.9002
  27   2.0000      -0.910545       -24.7772
  28   2.0000      -0.870948       -23.6997
  29   2.0000      -0.846981       -23.0475
  30   2.0000      -0.844812       -22.9885
  31   2.0000      -0.820113       -22.3164
  32   2.0000      -0.782182       -21.2843
  33   2.0000      -0.770585       -20.9687
  34   2.0000      -0.710477       -19.3331
  35   2.0000      -0.701436       -19.0870
  36   2.0000      -0.693552       -18.8725
  37   2.0000      -0.649414       -17.6715
  38   2.0000      -0.642921       -17.4948
  39   2.0000      -0.621041       -16.8994
  40   2.0000      -0.603131       -16.4120
  41   2.0000      -0.574203       -15.6249
  42   2.0000      -0.572120       -15.5682
  43   2.0000      -0.540106       -14.6970
  44   2.0000      -0.537344       -14.6219
  45   2.0000      -0.530466       -14.4347
  46   2.0000      -0.517034       -14.0692
  47   2.0000      -0.514252       -13.9935
  48   2.0000      -0.509630       -13.8677
  49   2.0000      -0.498461       -13.5638
  50   2.0000      -0.487467       -13.2646
  51   2.0000      -0.480367       -13.0714
  52   2.0000      -0.472830       -12.8664
  53   2.0000      -0.467409       -12.7189
  54   2.0000      -0.460032       -12.5181
  55   2.0000      -0.451755       -12.2929
  56   2.0000      -0.437618       -11.9082
  57   2.0000      -0.434953       -11.8357
  58   2.0000      -0.431218       -11.7340
  59   2.0000      -0.424856       -11.5609
  60   2.0000      -0.421048       -11.4573
  61   2.0000      -0.414492       -11.2789
  62   2.0000      -0.405844       -11.0436
  63   2.0000      -0.338799        -9.2192
  64   2.0000      -0.327428        -8.9098
  65   2.0000      -0.321224        -8.7409
  66   2.0000      -0.306875        -8.3505
  67   0.0000       0.040977         1.1150
  68   0.0000       0.058761         1.5990
  69   0.0000       0.111557         3.0356
  70   0.0000       0.128642         3.5005
  71   0.0000       0.137605         3.7444

MULLIKEN ATOMIC CHARGES
-----------------------
   0 S :    0.120507
   1 C :   -0.130629
   2 C :   -0.088845
   3 C :    0.083695
   4 C :   -0.164823
   5 H :    0.001330
   6 C :    0.030371
   7 H :    0.041703
   8 H :    0.015927
   9 C :   -0.074106
  10 H :    0.031715
  11 H :    0.027628
  12 C :   -0.079887
  13 H :    0.037461
  14 H :    0.032514
  15 H :    0.038768
  16 S :    0.099532
  17 C :   -0.086689
  18 C :   -0.046279
  19 C :   -0.021842
  20 C :   -0.187655
  21 H :    0.012107
  22 C :    0.086832
  23 H :    0.030029
  24 H :    0.021559
  25 C :   -0.076991
  26 H :    0.024947
  27 H :    0.037200
  28 C :   -0.013206
  29 H :    0.021290
  30 H :    0.034825
  31 H :    0.018800
  32 H :    0.062564
  33 H :    0.059648
Sum of atomic charges:   -0.0000000

LOEWDIN ATOMIC CHARGES
----------------------
   0 S :    0.414460
   1 C :   -0.205697
   2 C :   -0.062755
   3 C :   -0.052979
   4 C :   -0.193469
   5 H :    0.026676
   6 C :   -0.043587
   7 H :    0.035817
   8 H :    0.034645
   9 C :   -0.043088
  10 H :    0.029680
  11 H :    0.022947
  12 C :   -0.080100
  13 H :    0.023021
  14 H :    0.031098
  15 H :    0.026648
  16 S :    0.396220
  17 C :   -0.179103
  18 C :   -0.076098
  19 C :   -0.051139
  20 C :   -0.200010
  21 H :    0.025974
  22 C :   -0.035402
  23 H :    0.035530
  24 H :    0.034508
  25 C :   -0.039449
  26 H :    0.022146
  27 H :    0.024420
  28 C :   -0.061070
  29 H :    0.020313
  30 H :    0.028939
  31 H :    0.024863
  32 H :    0.034059
  33 H :    0.031979

  Mayer bond orders larger than 0.100000
B(  0-S ,  1-C ) :   1.1356 B(  0-S ,  4-C ) :   1.1615 B(  1-C ,  2-C ) :   1.6144
B(  1-C , 32-H ) :   0.9633 B(  2-C ,  3-C ) :   1.2408 B(  2-C ,  6-C ) :   1.0313
B(  3-C ,  4-C ) :   1.5793 B(  3-C ,  5-H ) :   0.9968 B(  4-C , 20-C ) :   1.0190
B(  6-C ,  7-H ) :   0.9441 B(  6-C ,  8-H ) :   0.9388 B(  6-C ,  9-C ) :   1.0751
B(  9-C , 10-H ) :   0.9525 B(  9-C , 11-H ) :   0.9589 B(  9-C , 12-C ) :   1.0757
B( 12-C , 13-H ) :   0.9740 B( 12-C , 14-H ) :   0.9723 B( 12-C , 15-H ) :   0.9754
B( 16-S , 17-C ) :   1.1535 B( 16-S , 20-C ) :   1.1461 B( 17-C , 18-C ) :   1.5983
B( 17-C , 20-C ) :   0.1011 B( 17-C , 33-H ) :   0.9704 B( 18-C , 19-C ) :   1.2361
B( 18-C , 21-H ) :   0.9891 B( 19-C , 20-C ) :   1.6050 B( 19-C , 22-C ) :   1.0408
B( 22-C , 23-H ) :   0.9169 B( 22-C , 24-H ) :   0.9183 B( 22-C , 25-C ) :   1.0815
B( 25-C , 26-H ) :   0.9518 B( 25-C , 27-H ) :   0.9501 B( 25-C , 28-C ) :   1.0822
B( 28-C , 29-H ) :   0.9741 B( 28-C , 30-H ) :   0.9753 B( 28-C , 31-H ) :   0.9707

Dispersion correction           -0.014199152
FINAL SINGLE POINT ENERGY     -1339.885424184086

DIPOLE MOMENT
-------------
                                X             Y             Z
Electronic contribution:     10.89009       6.05514     -18.30268
Nuclear contribution   :    -11.15196      -6.28281      18.76584
                        -----------------------------------------
Total Dipole Moment    :     -0.26186      -0.22767       0.46316
                        -----------------------------------------
Magnitude (a.u.)       :      0.57873
Magnitude (Debye)      :      1.47101

Rotational constants in cm-1:     0.017947     0.008181     0.007157
Rotational constants in MHz :   538.026736   245.270560   214.549768

                             ****ORCA TERMINATED NORMALLY****
TOTAL RUN TIME: 0 days 0 hours 0 minutes 20 seconds 289 msec
