                         Program Version 4.2.1 -  RELEASE  -
|  1> ! wB97X-D3 SP def2-SVP
|  2> %pal
|  3> nprocs 24
|  4> end
|  5>
|  6> * xyz 0 1
|  7> S 	 -44.7526 	 19.6297 	 29.9
|  8> C 	 -44.6069 	 19.3351 	 28.2026
|  9> C 	 -45.2742 	 20.2535 	 27.436
| 10> C 	 -45.9712 	 21.2289 	 28.2458
| 11> C 	 -45.8709 	 20.9801 	 29.6095
| 12> H 	 -46.6742 	 21.9398 	 27.8416
| 13> C 	 -45.3028 	 20.2957 	 25.9277
| 14> H 	 -44.371 	 20.8695 	 25.5436
| 15> H 	 -46.2306 	 20.9079 	 25.6571
| 16> C 	 -45.5382 	 19.0214 	 25.103
| 17> H 	 -44.6339 	 18.5045 	 25.1187
| 18> H 	 -46.3288 	 18.4074 	 25.5116
| 19> C 	 -45.9909 	 19.3186 	 23.7331
| 20> H 	 -45.9714 	 18.4037 	 23.2294
| 21> H 	 -47.0196 	 19.687 	 23.6392
| 22> H 	 -45.5174 	 20.135 	 23.2372
| 23> S 	 -47.6768 	 20.7824 	 31.6624
| 24> C 	 -48.458 	 22.13 	 32.3455
| 25> C 	 -47.9342 	 23.2969 	 31.8169
| 26> C 	 -46.9283 	 23.0751 	 30.7841
| 27> C 	 -46.6543 	 21.7141 	 30.6224
| 28> H 	 -48.2707 	 24.277 	 32.1306
| 29> C 	 -46.4223 	 24.2822 	 30.0159
| 30> H 	 -47.0386 	 25.1578 	 30.3614
| 31> H 	 -46.5764 	 24.1029 	 28.9936
| 32> C 	 -44.8907 	 24.6299 	 30.1826
| 33> H 	 -44.6294 	 25.419 	 29.4623
| 34> H 	 -44.2988 	 23.8296 	 29.8277
| 35> C 	 -44.5199 	 25.0011 	 31.6249
| 36> H 	 -44.5669 	 24.2289 	 32.3929
| 37> H 	 -45.1031 	 25.8253 	 32.0703
| 38> H 	 -43.5257 	 25.2596 	 31.7726
| 39> H 	 -43.9698 	 18.6201 	 27.7683
| 40> H 	 -49.1932 	 22.226 	 33.1386
| 41> *
| 42>
| 43>                          ****END OF INPUT****

CARTESIAN COORDINATES (ANGSTROEM)
---------------------------------
  S    -44.752600   19.629700   29.900000
  C    -44.606900   19.335100   28.202600
  C    -45.274200   20.253500   27.436000
  C    -45.971200   21.228900   28.245800
  C    -45.870900   20.980100   29.609500
  H    -46.674200   21.939800   27.841600
  C    -45.302800   20.295700   25.927700
  H    -44.371000   20.869500   25.543600
  H    -46.230600   20.907900   25.657100
  C    -45.538200   19.021400   25.103000
  H    -44.633900   18.504500   25.118700
  H    -46.328800   18.407400   25.511600
  C    -45.990900   19.318600   23.733100
  H    -45.971400   18.403700   23.229400
  H    -47.019600   19.687000   23.639200
  H    -45.517400   20.135000   23.237200
  S    -47.676800   20.782400   31.662400
  C    -48.458000   22.130000   32.345500
  C    -47.934200   23.296900   31.816900
  C    -46.928300   23.075100   30.784100
  C    -46.654300   21.714100   30.622400
  H    -48.270700   24.277000   32.130600
  C    -46.422300   24.282200   30.015900
  H    -47.038600   25.157800   30.361400
  H    -46.576400   24.102900   28.993600
  C    -44.890700   24.629900   30.182600
  H    -44.629400   25.419000   29.462300
  H    -44.298800   23.829600   29.827700
  C    -44.519900   25.001100   31.624900
  H    -44.566900   24.228900   32.392900
  H    -45.103100   25.825300   32.070300
  H    -43.525700   25.259600   31.772600
  H    -43.969800   18.620100   27.768300
  H    -49.193200   22.226000   33.138600

 Total Charge           Charge          ....    0
 Multiplicity           Mult            ....    1
 Number of Electrons    NEL             ....  134
 Basis Dimension        Dim             ....  322

ORBITAL ENERGIES
----------------

  NO   OCC          E(Eh)            E(eV)
   0   2.0000     -88.969172     -2420.9743
   1   2.0000     -88.964508     -2420.8473
   2   2.0000     -10.334665      -281.2205
   3   2.0000     -10.327584      -281.0278
   4   2.0000     -10.313179      -280.6359
   5   2.0000     -10.308273      -280.5024
   6   2.0000     -10.304365      -280.3960
   7   2.0000     -10.301852      -280.3276
   8   2.0000     -10.299856      -280.2733
   9   2.0000     -10.295706      -280.1604
  10   2.0000     -10.292593      -280.0757
  11   2.0000     -10.291496      -280.0459
  12   2.0000     -10.285341      -279.8784
  13   2.0000     -10.279043      -279.7070
  14   2.0000     -10.268595      -279.4227
  15   2.0000     -10.267683      -279.3978
  16   2.0000      -8.083605      -219.9661
  17   2.0000      -8.080277      -219.8755
  18   2.0000      -6.042155      -164.4154
  19   2.0000      -6.038836      -164.3251
  20   2.0000      -6.038167      -164.3069
  21   2.0000      -6.034360      -164.2033
  22   2.0000      -6.034321      -164.2022
  23   2.0000      -6.031187      -164.1169
  24   2.0000      -1.006611       -27.3913
  25   2.0000      -0.985955       -26.8292
  26   2.0000      -0.917960       -24.9790
  27   2.0000      -0.902327       -24.5536
  28   2.0000      -0.871926       -23.7263
  29   2.0000      -0.854899       -23.2630
  30   2.0000      -0.844599       -22.9827
  31   2.0000      -0.814303       -22.1583
  32   2.0000      -0.782159       -21.2836
  33   2.0000      -0.772597       -21.0234
  34   2.0000      -0.713787       -19.4231
  35   2.0000      -0.707022       -19.2391
  36   2.0000      -0.689949       -18.7745
  37   2.0000      -0.662203       -18.0195
  38   2.0000      -0.640727       -17.4351
  39   2.0000      -0.615934       -16.7604
  40   2.0000      -0.587136       -15.9768
  41   2.0000      -0.575037       -15.6476
  42   2.0000      -0.570709       -15.5298
  43   2.0000      -0.554734       -15.0951
  44   2.0000      -0.534538       -14.5455
  45   2.0000      -0.532508       -14.4903
  46   2.0000      -0.515196       -14.0192
  47   2.0000      -0.511179       -13.9099
  48   2.0000      -0.506856       -13.7922
  49   2.0000      -0.493620       -13.4321
  50   2.0000      -0.488985       -13.3060
  51   2.0000      -0.481365       -13.0986
  52   2.0000      -0.473475       -12.8839
  53   2.0000      -0.472046       -12.8450
  54   2.0000      -0.455775       -12.4023
  55   2.0000      -0.452071       -12.3015
  56   2.0000      -0.440473       -11.9859
  57   2.0000      -0.435349       -11.8464
  58   2.0000      -0.432588       -11.7713
  59   2.0000      -0.425324       -11.5736
  60   2.0000      -0.420020       -11.4293
  61   2.0000      -0.413552       -11.2533
  62   2.0000      -0.410652       -11.1744
  63   2.0000      -0.349713        -9.5162
  64   2.0000      -0.329394        -8.9633
  65   2.0000      -0.325769        -8.8646
  66   2.0000      -0.293930        -7.9982
  67   0.0000       0.032482         0.8839
  68   0.0000       0.073140         1.9902
  69   0.0000       0.116418         3.1679
  70   0.0000       0.120778         3.2865
  71   0.0000       0.134755         3.6669

MULLIKEN ATOMIC CHARGES
-----------------------
   0 S :    0.120067
   1 C :   -0.098461
   2 C :   -0.074579
   3 C :    0.025520
   4 C :   -0.144860
   5 H :    0.019001
   6 C :   -0.027383
   7 H :    0.062581
   8 H :    0.025124
   9 C :   -0.025924
  10 H :    0.017339
  11 H :    0.031942
  12 C :   -0.024770
  13 H :    0.024862
  14 H :    0.021236
  15 H :    0.017106
  16 S :    0.119887
  17 C :   -0.075656
  18 C :   -0.059092
  19 C :   -0.048899
  20 C :   -0.158399
  21 H :    0.013899
  22 C :    0.077679
  23 H :    0.027311
  24 H :    0.014516
  25 C :   -0.039135
  26 H :    0.027475
  27 H :    0.025332
  28 C :   -0.033725
  29 H :    0.027999
  30 H :    0.020341
  31 H :    0.008006
  32 H :    0.028392
  33 H :    0.055268
Sum of atomic charges:    0.0000000

LOEWDIN ATOMIC CHARGES
----------------------
   0 S :    0.404216
   1 C :   -0.196413
   2 C :   -0.068489
   3 C :   -0.057535
   4 C :   -0.188576
   5 H :    0.029882
   6 C :   -0.044063
   7 H :    0.044162
   8 H :    0.033595
   9 C :   -0.037818
  10 H :    0.014217
  11 H :    0.031107
  12 C :   -0.061285
  13 H :    0.024100
  14 H :    0.027993
  15 H :    0.020646
  16 S :    0.440511
  17 C :   -0.208563
  18 C :   -0.074161
  19 C :   -0.054296
  20 C :   -0.210686
  21 H :    0.026629
  22 C :   -0.025170
  23 H :    0.035239
  24 H :    0.021711
  25 C :   -0.031595
  26 H :    0.027226
  27 H :    0.021280
  28 C :   -0.072228
  29 H :    0.029519
  30 H :    0.025324
  31 H :    0.017352
  32 H :    0.019775
  33 H :    0.036393

  Mayer bond orders larger than 0.100000
B(  0-S ,  1-C ) :   1.1303 B(  0-S ,  4-C ) :   1.1464 B(  1-C ,  2-C ) :   1.6250
B(  1-C , 32-H ) :   0.9736 B(  2-C ,  3-C ) :   1.2508 B(  2-C ,  6-C ) :   1.0163
B(  3-C ,  4-C ) :   1.5760 B(  3-C ,  5-H ) :   0.9866 B(  4-C , 20-C ) :   1.0308
B(  6-C ,  7-H ) :   0.9288 B(  6-C ,  8-H ) :   0.9531 B(  6-C ,  9-C ) :   1.0685
B(  9-C , 10-H ) :   0.9471 B(  9-C , 11-H ) :   0.9538 B(  9-C , 12-C ) :   1.1018
B( 12-C , 13-H ) :   0.9688 B( 12-C , 14-H ) :   0.9667 B( 12-C , 15-H ) :   0.9718
B( 16-S , 17-C ) :   1.1697 B( 16-S , 20-C ) :   1.1538 B( 17-C , 18-C ) :   1.5946
B( 17-C , 33-H ) :   0.9655 B( 18-C , 19-C ) :   1.2638 B( 18-C , 21-H ) :   0.9860
B( 19-C , 20-C ) :   1.5711 B( 19-C , 22-C ) :   1.0361 B( 22-C , 23-H ) :   0.9401
B( 22-C , 24-H ) :   0.9298 B( 22-C , 25-C ) :   1.0768 B( 25-C , 26-H ) :   0.9566
B( 25-C , 27-H ) :   0.9545 B( 25-C , 28-C ) :   1.0695 B( 28-C , 29-H ) :   0.9717
B( 28-C , 30-H ) :   0.9767 B( 28-C , 31-H ) :   0.9712

Dispersion correction           -0.014083905
FINAL SINGLE POINT ENERGY     -1339.871506039252

DIPOLE MOMENT
-------------
                                X             Y             Z
Electronic contribution:     -4.82342     -11.84678      19.41313
Nuclear contribution   :      4.78227      12.17661     -19.94618
                        -----------------------------------------
Total Dipole Moment    :     -0.04115       0.32983      -0.53305
                        -----------------------------------------
Magnitude (a.u.)       :      0.62819
Magnitude (Debye)      :      1.59672

Rotational constants in cm-1:     0.020783     0.007338     0.006625
Rotational constants in MHz :   623.044121   219.978249   198.614302

                             ****ORCA TERMINATED NORMALLY****
TOTAL RUN TIME: 0 days 0 hours 0 minutes 21 seconds 223 msec
