                         Program Version 4.2.1 -  RELEASE  -
|  1> ! wB97X-D3 SP def2-SVP
|  2> %pal
|  3> nprocs 24
|  4> end
|  5>
|  6> * xyz 0 1
|  7> S 	 -131.799 	 57.1076 	 -60.7472
|  8> C 	 -133.078 	 56.6398 	 -59.6778
|  9> C 	 -132.62 	 56.1358 	 -58.4691
| 10> C 	 -131.169 	 55.9845 	 -58.4348
| 11> C 	 -130.579 	 56.4771 	 -59.5521
| 12> H 	 -130.514 	 55.597 	 -57.644
| 13> C 	 -133.466 	 55.9928 	 -57.2086
| 14> H 	 -133.062 	 55.1799 	 -56.6033
| 15> H 	 -134.459 	 55.5948 	 -57.4966
| 16> C 	 -133.534 	 57.2533 	 -56.359
| 17> H 	 -132.496 	 57.6282 	 -56.1905
| 18> H 	 -133.877 	 58.0933 	 -56.9065
| 19> C 	 -134.194 	 57.1039 	 -55.0273
| 20> H 	 -135.146 	 56.5919 	 -55.1784
| 21> H 	 -133.488 	 56.5893 	 -54.3903
| 22> H 	 -134.392 	 58.0479 	 -54.5713
| 23> S 	 -128.617 	 56.0296 	 -61.3575
| 24> C 	 -127.001 	 56.7262 	 -61.128
| 25> C 	 -126.862 	 57.2966 	 -59.8805
| 26> C 	 -128.05 	 57.1656 	 -59.0884
| 27> C 	 -129.144 	 56.5614 	 -59.803
| 28> H 	 -125.98 	 57.7644 	 -59.6165
| 29> C 	 -128.016 	 57.8214 	 -57.795
| 30> H 	 -127.224 	 57.5011 	 -57.1028
| 31> H 	 -128.995 	 57.4339 	 -57.385
| 32> C 	 -128.093 	 59.3809 	 -57.8781
| 33> H 	 -128.761 	 59.7768 	 -58.6956
| 34> H 	 -127.14 	 59.7762 	 -58.1949
| 35> C 	 -128.492 	 59.9218 	 -56.4644
| 36> H 	 -128.589 	 61.012 	 -56.5915
| 37> H 	 -127.808 	 59.6828 	 -55.6138
| 38> H 	 -129.419 	 59.5643 	 -56.2812
| 39> H 	 -134.194 	 56.8625 	 -59.8329
| 40> H 	 -126.255 	 56.4774 	 -61.8409
| 41> *
| 42>
| 43>                          ****END OF INPUT****

CARTESIAN COORDINATES (ANGSTROEM)
---------------------------------
  S    -131.799000   57.107600  -60.747200
  C    -133.078000   56.639800  -59.677800
  C    -132.620000   56.135800  -58.469100
  C    -131.169000   55.984500  -58.434800
  C    -130.579000   56.477100  -59.552100
  H    -130.514000   55.597000  -57.644000
  C    -133.466000   55.992800  -57.208600
  H    -133.062000   55.179900  -56.603300
  H    -134.459000   55.594800  -57.496600
  C    -133.534000   57.253300  -56.359000
  H    -132.496000   57.628200  -56.190500
  H    -133.877000   58.093300  -56.906500
  C    -134.194000   57.103900  -55.027300
  H    -135.146000   56.591900  -55.178400
  H    -133.488000   56.589300  -54.390300
  H    -134.392000   58.047900  -54.571300
  S    -128.617000   56.029600  -61.357500
  C    -127.001000   56.726200  -61.128000
  C    -126.862000   57.296600  -59.880500
  C    -128.050000   57.165600  -59.088400
  C    -129.144000   56.561400  -59.803000
  H    -125.980000   57.764400  -59.616500
  C    -128.016000   57.821400  -57.795000
  H    -127.224000   57.501100  -57.102800
  H    -128.995000   57.433900  -57.385000
  C    -128.093000   59.380900  -57.878100
  H    -128.761000   59.776800  -58.695600
  H    -127.140000   59.776200  -58.194900
  C    -128.492000   59.921800  -56.464400
  H    -128.589000   61.012000  -56.591500
  H    -127.808000   59.682800  -55.613800
  H    -129.419000   59.564300  -56.281200
  H    -134.194000   56.862500  -59.832900
  H    -126.255000   56.477400  -61.840900

 Total Charge           Charge          ....    0
 Multiplicity           Mult            ....    1
 Number of Electrons    NEL             ....  134
 Basis Dimension        Dim             ....  322

ORBITAL ENERGIES
----------------

  NO   OCC          E(Eh)            E(eV)
   0   2.0000     -88.967723     -2420.9348
   1   2.0000     -88.962848     -2420.8022
   2   2.0000     -10.331938      -281.1463
   3   2.0000     -10.329542      -281.0811
   4   2.0000     -10.319847      -280.8173
   5   2.0000     -10.315904      -280.7100
   6   2.0000     -10.304863      -280.4096
   7   2.0000     -10.304345      -280.3955
   8   2.0000     -10.296830      -280.1910
   9   2.0000     -10.293613      -280.1034
  10   2.0000     -10.292153      -280.0637
  11   2.0000     -10.291053      -280.0338
  12   2.0000     -10.289231      -279.9842
  13   2.0000     -10.280246      -279.7397
  14   2.0000     -10.275422      -279.6085
  15   2.0000     -10.274080      -279.5719
  16   2.0000      -8.081637      -219.9125
  17   2.0000      -8.077853      -219.8096
  18   2.0000      -6.040366      -164.3667
  19   2.0000      -6.036383      -164.2583
  20   2.0000      -6.036248      -164.2546
  21   2.0000      -6.032169      -164.1437
  22   2.0000      -6.032067      -164.1409
  23   2.0000      -6.028882      -164.0542
  24   2.0000      -1.002411       -27.2770
  25   2.0000      -0.979634       -26.6572
  26   2.0000      -0.913878       -24.8679
  27   2.0000      -0.908822       -24.7303
  28   2.0000      -0.872180       -23.7332
  29   2.0000      -0.852600       -23.2004
  30   2.0000      -0.847651       -23.0658
  31   2.0000      -0.818655       -22.2767
  32   2.0000      -0.778051       -21.1718
  33   2.0000      -0.763100       -20.7650
  34   2.0000      -0.708431       -19.2774
  35   2.0000      -0.700297       -19.0560
  36   2.0000      -0.693485       -18.8707
  37   2.0000      -0.666793       -18.1444
  38   2.0000      -0.639575       -17.4037
  39   2.0000      -0.616992       -16.7892
  40   2.0000      -0.597030       -16.2460
  41   2.0000      -0.571253       -15.5446
  42   2.0000      -0.564026       -15.3479
  43   2.0000      -0.557555       -15.1718
  44   2.0000      -0.530292       -14.4300
  45   2.0000      -0.523804       -14.2534
  46   2.0000      -0.522338       -14.2135
  47   2.0000      -0.512108       -13.9352
  48   2.0000      -0.507611       -13.8128
  49   2.0000      -0.494344       -13.4518
  50   2.0000      -0.491599       -13.3771
  51   2.0000      -0.481384       -13.0991
  52   2.0000      -0.468403       -12.7459
  53   2.0000      -0.463413       -12.6101
  54   2.0000      -0.458734       -12.4828
  55   2.0000      -0.449227       -12.2241
  56   2.0000      -0.442404       -12.0384
  57   2.0000      -0.439016       -11.9462
  58   2.0000      -0.436361       -11.8740
  59   2.0000      -0.426442       -11.6041
  60   2.0000      -0.422275       -11.4907
  61   2.0000      -0.409429       -11.1411
  62   2.0000      -0.408257       -11.1093
  63   2.0000      -0.352544        -9.5932
  64   2.0000      -0.329881        -8.9765
  65   2.0000      -0.325759        -8.8643
  66   2.0000      -0.288111        -7.8399
  67   0.0000       0.028342         0.7712
  68   0.0000       0.067785         1.8445
  69   0.0000       0.110025         2.9939
  70   0.0000       0.112231         3.0540
  71   0.0000       0.127757         3.4765

MULLIKEN ATOMIC CHARGES
-----------------------
   0 S :    0.112951
   1 C :   -0.137247
   2 C :   -0.098105
   3 C :    0.026578
   4 C :   -0.142100
   5 H :    0.032713
   6 C :    0.059724
   7 H :    0.015485
   8 H :    0.022136
   9 C :   -0.066699
  10 H :    0.014568
  11 H :    0.007770
  12 C :   -0.002742
  13 H :    0.031533
  14 H :    0.031190
  15 H :    0.026638
  16 S :    0.093196
  17 C :   -0.089548
  18 C :    0.001866
  19 C :   -0.023519
  20 C :   -0.169282
  21 H :   -0.003756
  22 C :    0.033601
  23 H :    0.042055
  24 H :    0.008142
  25 C :   -0.094009
  26 H :    0.047327
  27 H :    0.019917
  28 C :   -0.017858
  29 H :    0.033277
  30 H :    0.042888
  31 H :    0.010116
  32 H :    0.077575
  33 H :    0.053620
Sum of atomic charges:    0.0000000

LOEWDIN ATOMIC CHARGES
----------------------
   0 S :    0.379845
   1 C :   -0.213986
   2 C :   -0.064024
   3 C :   -0.062374
   4 C :   -0.174416
   5 H :    0.039522
   6 C :   -0.034226
   7 H :    0.028018
   8 H :    0.029150
   9 C :   -0.047875
  10 H :    0.026531
  11 H :    0.016543
  12 C :   -0.057518
  13 H :    0.026666
  14 H :    0.026525
  15 H :    0.025401
  16 S :    0.409221
  17 C :   -0.168029
  18 C :   -0.057193
  19 C :   -0.053484
  20 C :   -0.213504
  21 H :    0.021131
  22 C :   -0.046138
  23 H :    0.035921
  24 H :    0.031650
  25 C :   -0.033426
  26 H :    0.035791
  27 H :    0.015230
  28 C :   -0.058085
  29 H :    0.029796
  30 H :    0.031716
  31 H :    0.008155
  32 H :    0.047698
  33 H :    0.019770

  Mayer bond orders larger than 0.100000
B(  0-S ,  1-C ) :   1.1245 B(  0-S ,  4-C ) :   1.1120 B(  1-C ,  2-C ) :   1.6535
B(  1-C , 32-H ) :   0.9532 B(  2-C ,  3-C ) :   1.1884 B(  2-C ,  6-C ) :   1.0384
B(  3-C ,  4-C ) :   1.6323 B(  3-C ,  5-H ) :   0.9851 B(  4-C , 20-C ) :   1.0523
B(  6-C ,  7-H ) :   0.9391 B(  6-C ,  8-H ) :   0.9347 B(  6-C ,  9-C ) :   1.0574
B(  9-C , 10-H ) :   0.9499 B(  9-C , 11-H ) :   0.9513 B(  9-C , 12-C ) :   1.0861
B( 12-C , 13-H ) :   0.9736 B( 12-C , 14-H ) :   0.9749 B( 12-C , 15-H ) :   0.9703
B( 16-S , 17-C ) :   1.1603 B( 16-S , 20-C ) :   1.1600 B( 17-C , 18-C ) :   1.5759
B( 17-C , 33-H ) :   0.9730 B( 18-C , 19-C ) :   1.2496 B( 18-C , 21-H ) :   1.0067
B( 19-C , 20-C ) :   1.5290 B( 19-C , 22-C ) :   1.0657 B( 22-C , 23-H ) :   0.9298
B( 22-C , 24-H ) :   0.9350 B( 22-C , 25-C ) :   1.0475 B( 25-C , 26-H ) :   0.9578
B( 25-C , 27-H ) :   0.9544 B( 25-C , 28-C ) :   1.0740 B( 28-C , 29-H ) :   0.9734
B( 28-C , 30-H ) :   0.9742 B( 28-C , 31-H ) :   0.9791

Dispersion correction           -0.014152763
FINAL SINGLE POINT ENERGY     -1339.866008209747

DIPOLE MOMENT
-------------
                                X             Y             Z
Electronic contribution:      5.99970     -11.05067     -28.58949
Nuclear contribution   :     -5.89257      11.36420      29.24469
                        -----------------------------------------
Total Dipole Moment    :      0.10713       0.31353       0.65520
                        -----------------------------------------
Magnitude (a.u.)       :      0.73421
Magnitude (Debye)      :      1.86622

Rotational constants in cm-1:     0.018042     0.009065     0.006672
Rotational constants in MHz :   540.881021   271.761069   200.022761

                             ****ORCA TERMINATED NORMALLY****
TOTAL RUN TIME: 0 days 0 hours 0 minutes 21 seconds 842 msec
