                         Program Version 4.2.1 -  RELEASE  -
|  1> ! wB97X-D3 SP def2-SVP
|  2> %pal
|  3> nprocs 24
|  4> end
|  5>
|  6> * xyz 0 1
|  7> S 	 -36.986 	 -51.9534 	 -74.509
|  8> C 	 -35.2824 	 -52.3837 	 -74.6911
|  9> C 	 -34.614 	 -51.2341 	 -75.1757
| 10> C 	 -35.3863 	 -50.0924 	 -75.4025
| 11> C 	 -36.7338 	 -50.3675 	 -75.2262
| 12> H 	 -35.0235 	 -49.1311 	 -75.615
| 13> C 	 -33.1231 	 -51.1381 	 -75.5394
| 14> H 	 -32.5089 	 -51.7491 	 -74.8783
| 15> H 	 -32.7807 	 -50.1298 	 -75.301
| 16> C 	 -32.748 	 -51.3666 	 -77.0289
| 17> H 	 -32.9479 	 -52.3885 	 -77.2349
| 18> H 	 -33.4314 	 -50.8717 	 -77.7094
| 19> C 	 -31.2961 	 -50.9975 	 -77.3495
| 20> H 	 -31.1672 	 -51.1022 	 -78.4204
| 21> H 	 -31.1558 	 -49.9459 	 -77.0846
| 22> H 	 -30.5464 	 -51.7156 	 -76.9128
| 23> S 	 -39.3592 	 -49.6416 	 -74.563
| 24> C 	 -40.0337 	 -48.128 	 -75.0689
| 25> C 	 -39.0947 	 -47.505 	 -75.8811
| 26> C 	 -37.9156 	 -48.2283 	 -76.2383
| 27> C 	 -37.8187 	 -49.3711 	 -75.4217
| 28> H 	 -39.3102 	 -46.5622 	 -76.2453
| 29> C 	 -36.8776 	 -47.6446 	 -77.1031
| 30> H 	 -37.3588 	 -47.2132 	 -77.9872
| 31> H 	 -36.1425 	 -48.383 	 -77.5075
| 32> C 	 -36.1367 	 -46.5416 	 -76.4464
| 33> H 	 -35.1918 	 -46.2773 	 -76.95
| 34> H 	 -35.9256 	 -46.8303 	 -75.4659
| 35> C 	 -36.9014 	 -45.1998 	 -76.3749
| 36> H 	 -36.1746 	 -44.3866 	 -76.3428
| 37> H 	 -37.6528 	 -45.0984 	 -75.527
| 38> H 	 -37.407 	 -44.9842 	 -77.2631
| 39> H 	 -34.865 	 -53.3956 	 -74.5807
| 40> H 	 -40.8547 	 -47.6734 	 -74.722
| 41> *
| 42>
| 43>                          ****END OF INPUT****

CARTESIAN COORDINATES (ANGSTROEM)
---------------------------------
  S    -36.986000  -51.953400  -74.509000
  C    -35.282400  -52.383700  -74.691100
  C    -34.614000  -51.234100  -75.175700
  C    -35.386300  -50.092400  -75.402500
  C    -36.733800  -50.367500  -75.226200
  H    -35.023500  -49.131100  -75.615000
  C    -33.123100  -51.138100  -75.539400
  H    -32.508900  -51.749100  -74.878300
  H    -32.780700  -50.129800  -75.301000
  C    -32.748000  -51.366600  -77.028900
  H    -32.947900  -52.388500  -77.234900
  H    -33.431400  -50.871700  -77.709400
  C    -31.296100  -50.997500  -77.349500
  H    -31.167200  -51.102200  -78.420400
  H    -31.155800  -49.945900  -77.084600
  H    -30.546400  -51.715600  -76.912800
  S    -39.359200  -49.641600  -74.563000
  C    -40.033700  -48.128000  -75.068900
  C    -39.094700  -47.505000  -75.881100
  C    -37.915600  -48.228300  -76.238300
  C    -37.818700  -49.371100  -75.421700
  H    -39.310200  -46.562200  -76.245300
  C    -36.877600  -47.644600  -77.103100
  H    -37.358800  -47.213200  -77.987200
  H    -36.142500  -48.383000  -77.507500
  C    -36.136700  -46.541600  -76.446400
  H    -35.191800  -46.277300  -76.950000
  H    -35.925600  -46.830300  -75.465900
  C    -36.901400  -45.199800  -76.374900
  H    -36.174600  -44.386600  -76.342800
  H    -37.652800  -45.098400  -75.527000
  H    -37.407000  -44.984200  -77.263100
  H    -34.865000  -53.395600  -74.580700
  H    -40.854700  -47.673400  -74.722000

 Total Charge           Charge          ....    0
 Multiplicity           Mult            ....    1
 Number of Electrons    NEL             ....  134
 Basis Dimension        Dim             ....  322

ORBITAL ENERGIES
----------------

  NO   OCC          E(Eh)            E(eV)
   0   2.0000     -88.970559     -2421.0120
   1   2.0000     -88.964624     -2420.8505
   2   2.0000     -10.336361      -281.2667
   3   2.0000     -10.336088      -281.2593
   4   2.0000     -10.321359      -280.8585
   5   2.0000     -10.310570      -280.5649
   6   2.0000     -10.305376      -280.4236
   7   2.0000     -10.303926      -280.3841
   8   2.0000     -10.291509      -280.0462
   9   2.0000     -10.290356      -280.0148
  10   2.0000     -10.289671      -279.9962
  11   2.0000     -10.288867      -279.9743
  12   2.0000     -10.283441      -279.8267
  13   2.0000     -10.283394      -279.8254
  14   2.0000     -10.282280      -279.7951
  15   2.0000     -10.278908      -279.7033
  16   2.0000      -8.084489      -219.9901
  17   2.0000      -8.079123      -219.8441
  18   2.0000      -6.043150      -164.4425
  19   2.0000      -6.039050      -164.3309
  20   2.0000      -6.037751      -164.2956
  21   2.0000      -6.035207      -164.2263
  22   2.0000      -6.033554      -164.1813
  23   2.0000      -6.029906      -164.0821
  24   2.0000      -1.005421       -27.3589
  25   2.0000      -0.984450       -26.7883
  26   2.0000      -0.924743       -25.1635
  27   2.0000      -0.906886       -24.6776
  28   2.0000      -0.867237       -23.5987
  29   2.0000      -0.855475       -23.2787
  30   2.0000      -0.846091       -23.0233
  31   2.0000      -0.814412       -22.1613
  32   2.0000      -0.788288       -21.4504
  33   2.0000      -0.770964       -20.9790
  34   2.0000      -0.710892       -19.3444
  35   2.0000      -0.701941       -19.1008
  36   2.0000      -0.698808       -19.0155
  37   2.0000      -0.668678       -18.1957
  38   2.0000      -0.643505       -17.5107
  39   2.0000      -0.625852       -17.0303
  40   2.0000      -0.609432       -16.5835
  41   2.0000      -0.567407       -15.4399
  42   2.0000      -0.561822       -15.2880
  43   2.0000      -0.555563       -15.1176
  44   2.0000      -0.549916       -14.9640
  45   2.0000      -0.523407       -14.2426
  46   2.0000      -0.518177       -14.1003
  47   2.0000      -0.513742       -13.9796
  48   2.0000      -0.510679       -13.8963
  49   2.0000      -0.500940       -13.6313
  50   2.0000      -0.490335       -13.3427
  51   2.0000      -0.487234       -13.2583
  52   2.0000      -0.478804       -13.0289
  53   2.0000      -0.467269       -12.7150
  54   2.0000      -0.461752       -12.5649
  55   2.0000      -0.450692       -12.2640
  56   2.0000      -0.441775       -12.0213
  57   2.0000      -0.435236       -11.8434
  58   2.0000      -0.434304       -11.8180
  59   2.0000      -0.423193       -11.5157
  60   2.0000      -0.421034       -11.4569
  61   2.0000      -0.419186       -11.4066
  62   2.0000      -0.411102       -11.1866
  63   2.0000      -0.358373        -9.7518
  64   2.0000      -0.335083        -9.1181
  65   2.0000      -0.328380        -8.9357
  66   2.0000      -0.281177        -7.6512
  67   0.0000       0.015814         0.4303
  68   0.0000       0.081425         2.2157
  69   0.0000       0.096185         2.6173
  70   0.0000       0.118391         3.2216
  71   0.0000       0.131878         3.5886

MULLIKEN ATOMIC CHARGES
-----------------------
   0 S :    0.103899
   1 C :   -0.128923
   2 C :   -0.066392
   3 C :    0.000209
   4 C :   -0.079480
   5 H :   -0.009291
   6 C :    0.052430
   7 H :    0.016742
   8 H :    0.005840
   9 C :   -0.049891
  10 H :    0.010881
  11 H :    0.019957
  12 C :   -0.051597
  13 H :    0.031091
  14 H :    0.036492
  15 H :    0.045200
  16 S :    0.087951
  17 C :   -0.015626
  18 C :   -0.032467
  19 C :   -0.042875
  20 C :   -0.138862
  21 H :   -0.011747
  22 C :    0.045246
  23 H :    0.023892
  24 H :    0.036396
  25 C :   -0.052775
  26 H :    0.031298
  27 H :    0.023088
  28 C :   -0.051974
  29 H :    0.025237
  30 H :    0.053427
  31 H :    0.006928
  32 H :    0.065472
  33 H :    0.010224
Sum of atomic charges:    0.0000000

LOEWDIN ATOMIC CHARGES
----------------------
   0 S :    0.400071
   1 C :   -0.206138
   2 C :   -0.056556
   3 C :   -0.063835
   4 C :   -0.175138
   5 H :    0.025098
   6 C :   -0.032309
   7 H :    0.025513
   8 H :    0.023913
   9 C :   -0.040039
  10 H :    0.017337
  11 H :    0.022245
  12 C :   -0.065931
  13 H :    0.026663
  14 H :    0.025709
  15 H :    0.032983
  16 S :    0.393703
  17 C :   -0.170429
  18 C :   -0.056512
  19 C :   -0.055619
  20 C :   -0.174972
  21 H :    0.014452
  22 C :   -0.041573
  23 H :    0.033092
  24 H :    0.036917
  25 C :   -0.036696
  26 H :    0.029279
  27 H :    0.017286
  28 C :   -0.067015
  29 H :    0.027681
  30 H :    0.033258
  31 H :    0.012027
  32 H :    0.038159
  33 H :    0.007376

  Mayer bond orders larger than 0.100000
B(  0-S ,  1-C ) :   1.1243 B(  0-S ,  4-C ) :   1.1644 B(  1-C ,  2-C ) :   1.5759
B(  1-C ,  4-C ) :   0.1041 B(  1-C , 32-H ) :   0.9723 B(  2-C ,  3-C ) :   1.2661
B(  2-C ,  6-C ) :   1.0300 B(  3-C ,  4-C ) :   1.5181 B(  3-C ,  5-H ) :   1.0053
B(  4-C , 20-C ) :   1.0707 B(  6-C ,  7-H ) :   0.9425 B(  6-C ,  8-H ) :   0.9426
B(  6-C ,  9-C ) :   1.0555 B(  9-C , 10-H ) :   0.9508 B(  9-C , 11-H ) :   0.9553
B(  9-C , 12-C ) :   1.0849 B( 12-C , 13-H ) :   0.9731 B( 12-C , 14-H ) :   0.9749
B( 12-C , 15-H ) :   0.9745 B( 16-S , 17-C ) :   1.1461 B( 16-S , 20-C ) :   1.1434
B( 17-C , 18-C ) :   1.6026 B( 17-C , 20-C ) :   0.1002 B( 17-C , 33-H ) :   0.9827
B( 18-C , 19-C ) :   1.2447 B( 18-C , 21-H ) :   0.9879 B( 19-C , 20-C ) :   1.5573
B( 19-C , 22-C ) :   1.0727 B( 22-C , 23-H ) :   0.9250 B( 22-C , 24-H ) :   0.9288
B( 22-C , 25-C ) :   1.0732 B( 25-C , 26-H ) :   0.9563 B( 25-C , 27-H ) :   0.9455
B( 25-C , 28-C ) :   1.0865 B( 28-C , 29-H ) :   0.9707 B( 28-C , 30-H ) :   0.9690
B( 28-C , 31-H ) :   0.9712

Dispersion correction           -0.014298785
FINAL SINGLE POINT ENERGY     -1339.866528083509

DIPOLE MOMENT
-------------
                                X             Y             Z
Electronic contribution:    -24.19659     -14.36308      13.60326
Nuclear contribution   :     24.73794      14.86131     -13.98683
                        -----------------------------------------
Total Dipole Moment    :      0.54135       0.49824      -0.38357
                        -----------------------------------------
Magnitude (a.u.)       :      0.82971
Magnitude (Debye)      :      2.10897

Rotational constants in cm-1:     0.018487     0.009068     0.006331
Rotational constants in MHz :   554.225108   271.847863   189.788166

                             ****ORCA TERMINATED NORMALLY****
TOTAL RUN TIME: 0 days 0 hours 0 minutes 20 seconds 839 msec
