                         Program Version 4.2.1 -  RELEASE  -
|  1> ! wB97X-D3 SP def2-SVP
|  2> %pal
|  3> nprocs 24
|  4> end
|  5>
|  6> * xyz 0 1
|  7> S 	 -100.53 	 1.36445 	 -103.626
|  8> C 	 -100.017 	 2.89358 	 -104.362
|  9> C 	 -100.917 	 3.38282 	 -105.271
| 10> C 	 -102.001 	 2.4087 	 -105.471
| 11> C 	 -101.928 	 1.20406 	 -104.74
| 12> H 	 -102.808 	 2.53615 	 -106.197
| 13> C 	 -100.933 	 4.7841 	 -105.911
| 14> H 	 -100.165 	 5.41923 	 -105.46
| 15> H 	 -101.916 	 5.1915 	 -105.617
| 16> C 	 -100.712 	 4.85701 	 -107.411
| 17> H 	 -100.375 	 5.8952 	 -107.602
| 18> H 	 -99.9451 	 4.22173 	 -107.759
| 19> C 	 -101.8 	 4.47934 	 -108.347
| 20> H 	 -102.759 	 4.99231 	 -108.245
| 21> H 	 -101.527 	 4.68909 	 -109.344
| 22> H 	 -101.869 	 3.44973 	 -108.287
| 23> S 	 -102.264 	 -1.48807 	 -103.898
| 24> C 	 -103.703 	 -2.27647 	 -104.263
| 25> C 	 -104.536 	 -1.45915 	 -104.975
| 26> C 	 -104.052 	 -0.125394 	 -105.213
| 27> C 	 -102.773 	 0.0619962 	 -104.695
| 28> H 	 -105.445 	 -1.8109 	 -105.391
| 29> C 	 -104.858 	 0.822221 	 -105.97
| 30> H 	 -105.632 	 0.322182 	 -106.659
| 31> H 	 -104.134 	 1.16316 	 -106.706
| 32> C 	 -105.621 	 1.82716 	 -105.139
| 33> H 	 -104.879 	 2.3119 	 -104.572
| 34> H 	 -106.296 	 1.27394 	 -104.467
| 35> C 	 -106.327 	 2.9315 	 -105.985
| 36> H 	 -107.402 	 2.7239 	 -106.212
| 37> H 	 -105.751 	 3.13127 	 -106.846
| 38> H 	 -106.408 	 3.88023 	 -105.428
| 39> H 	 -99.1385 	 3.46602 	 -104.074
| 40> H 	 -103.988 	 -3.27886 	 -104.046
| 41> *
| 42>
| 43>                          ****END OF INPUT****

CARTESIAN COORDINATES (ANGSTROEM)
---------------------------------
  S    -100.530000    1.364450  -103.626000
  C    -100.017000    2.893580  -104.362000
  C    -100.917000    3.382820  -105.271000
  C    -102.001000    2.408700  -105.471000
  C    -101.928000    1.204060  -104.740000
  H    -102.808000    2.536150  -106.197000
  C    -100.933000    4.784100  -105.911000
  H    -100.165000    5.419230  -105.460000
  H    -101.916000    5.191500  -105.617000
  C    -100.712000    4.857010  -107.411000
  H    -100.375000    5.895200  -107.602000
  H    -99.945100    4.221730  -107.759000
  C    -101.800000    4.479340  -108.347000
  H    -102.759000    4.992310  -108.245000
  H    -101.527000    4.689090  -109.344000
  H    -101.869000    3.449730  -108.287000
  S    -102.264000   -1.488070  -103.898000
  C    -103.703000   -2.276470  -104.263000
  C    -104.536000   -1.459150  -104.975000
  C    -104.052000   -0.125394  -105.213000
  C    -102.773000    0.061996  -104.695000
  H    -105.445000   -1.810900  -105.391000
  C    -104.858000    0.822221  -105.970000
  H    -105.632000    0.322182  -106.659000
  H    -104.134000    1.163160  -106.706000
  C    -105.621000    1.827160  -105.139000
  H    -104.879000    2.311900  -104.572000
  H    -106.296000    1.273940  -104.467000
  C    -106.327000    2.931500  -105.985000
  H    -107.402000    2.723900  -106.212000
  H    -105.751000    3.131270  -106.846000
  H    -106.408000    3.880230  -105.428000
  H    -99.138500    3.466020  -104.074000
  H    -103.988000   -3.278860  -104.046000

 Total Charge           Charge          ....    0
 Multiplicity           Mult            ....    1
 Number of Electrons    NEL             ....  134
 Basis Dimension        Dim             ....  322

ORBITAL ENERGIES
----------------

  NO   OCC          E(Eh)            E(eV)
   0   2.0000     -88.968312     -2420.9509
   1   2.0000     -88.963998     -2420.8334
   2   2.0000     -10.338340      -281.3205
   3   2.0000     -10.332884      -281.1721
   4   2.0000     -10.315526      -280.6997
   5   2.0000     -10.313734      -280.6510
   6   2.0000     -10.306046      -280.4418
   7   2.0000     -10.302477      -280.3447
   8   2.0000     -10.301145      -280.3084
   9   2.0000     -10.299062      -280.2517
  10   2.0000     -10.292286      -280.0673
  11   2.0000     -10.287492      -279.9369
  12   2.0000     -10.285726      -279.8888
  13   2.0000     -10.281153      -279.7644
  14   2.0000     -10.280597      -279.7493
  15   2.0000     -10.265972      -279.3513
  16   2.0000      -8.083166      -219.9541
  17   2.0000      -8.077758      -219.8070
  18   2.0000      -6.041865      -164.4075
  19   2.0000      -6.037539      -164.2898
  20   2.0000      -6.036517      -164.2620
  21   2.0000      -6.033824      -164.1887
  22   2.0000      -6.032513      -164.1530
  23   2.0000      -6.028199      -164.0356
  24   2.0000      -1.006815       -27.3968
  25   2.0000      -0.979320       -26.6486
  26   2.0000      -0.920437       -25.0464
  27   2.0000      -0.917396       -24.9636
  28   2.0000      -0.877730       -23.8842
  29   2.0000      -0.855044       -23.2669
  30   2.0000      -0.841370       -22.8948
  31   2.0000      -0.814396       -22.1608
  32   2.0000      -0.790553       -21.5120
  33   2.0000      -0.778058       -21.1720
  34   2.0000      -0.715548       -19.4711
  35   2.0000      -0.700096       -19.0506
  36   2.0000      -0.699585       -19.0367
  37   2.0000      -0.666011       -18.1231
  38   2.0000      -0.635907       -17.3039
  39   2.0000      -0.619793       -16.8654
  40   2.0000      -0.599454       -16.3120
  41   2.0000      -0.577200       -15.7064
  42   2.0000      -0.567510       -15.4427
  43   2.0000      -0.548226       -14.9180
  44   2.0000      -0.544337       -14.8122
  45   2.0000      -0.532634       -14.4937
  46   2.0000      -0.523811       -14.2536
  47   2.0000      -0.519260       -14.1298
  48   2.0000      -0.511666       -13.9231
  49   2.0000      -0.503644       -13.7048
  50   2.0000      -0.494727       -13.4622
  51   2.0000      -0.485909       -13.2223
  52   2.0000      -0.472653       -12.8615
  53   2.0000      -0.463786       -12.6203
  54   2.0000      -0.457625       -12.4526
  55   2.0000      -0.453776       -12.3479
  56   2.0000      -0.445685       -12.1277
  57   2.0000      -0.437953       -11.9173
  58   2.0000      -0.430432       -11.7126
  59   2.0000      -0.428110       -11.6495
  60   2.0000      -0.417902       -11.3717
  61   2.0000      -0.413771       -11.2593
  62   2.0000      -0.403631       -10.9834
  63   2.0000      -0.367057        -9.9881
  64   2.0000      -0.331733        -9.0269
  65   2.0000      -0.326414        -8.8822
  66   2.0000      -0.281114        -7.6495
  67   0.0000       0.014871         0.4047
  68   0.0000       0.086582         2.3560
  69   0.0000       0.095685         2.6037
  70   0.0000       0.113455         3.0873
  71   0.0000       0.134140         3.6501

MULLIKEN ATOMIC CHARGES
-----------------------
   0 S :    0.083994
   1 C :   -0.119514
   2 C :   -0.082151
   3 C :   -0.016117
   4 C :   -0.131574
   5 H :    0.002112
   6 C :    0.076734
   7 H :    0.021726
   8 H :    0.039971
   9 C :   -0.068362
  10 H :    0.024926
  11 H :    0.018867
  12 C :   -0.004527
  13 H :    0.023734
  14 H :    0.014699
  15 H :    0.016543
  16 S :    0.114568
  17 C :   -0.051439
  18 C :   -0.024803
  19 C :   -0.058277
  20 C :   -0.106733
  21 H :   -0.003419
  22 C :   -0.016800
  23 H :    0.026315
  24 H :    0.035617
  25 C :   -0.022898
  26 H :    0.020081
  27 H :    0.034290
  28 C :   -0.038938
  29 H :    0.040739
  30 H :    0.022403
  31 H :    0.032951
  32 H :    0.046957
  33 H :    0.048323
Sum of atomic charges:    0.0000000

LOEWDIN ATOMIC CHARGES
----------------------
   0 S :    0.368073
   1 C :   -0.188511
   2 C :   -0.062304
   3 C :   -0.076329
   4 C :   -0.169536
   5 H :    0.022940
   6 C :   -0.026537
   7 H :    0.033373
   8 H :    0.037611
   9 C :   -0.041915
  10 H :    0.025613
  11 H :    0.025241
  12 C :   -0.058627
  13 H :    0.022362
  14 H :    0.025157
  15 H :    0.016122
  16 S :    0.411152
  17 C :   -0.195658
  18 C :   -0.071442
  19 C :   -0.047464
  20 C :   -0.186021
  21 H :    0.022514
  22 C :   -0.046751
  23 H :    0.036355
  24 H :    0.030095
  25 C :   -0.031595
  26 H :    0.019171
  27 H :    0.030902
  28 C :   -0.065579
  29 H :    0.030757
  30 H :    0.018203
  31 H :    0.030438
  32 H :    0.030448
  33 H :    0.031740

  Mayer bond orders larger than 0.100000
B(  0-S ,  1-C ) :   1.1181 B(  0-S ,  4-C ) :   1.1158 B(  1-C ,  2-C ) :   1.6584
B(  1-C , 32-H ) :   0.9605 B(  2-C ,  3-C ) :   1.2144 B(  2-C ,  6-C ) :   1.0142
B(  3-C ,  4-C ) :   1.5746 B(  3-C ,  5-H ) :   0.9759 B(  4-C , 20-C ) :   1.1482
B(  6-C ,  7-H ) :   0.9402 B(  6-C ,  8-H ) :   0.9431 B(  6-C ,  9-C ) :   1.0689
B(  9-C , 10-H ) :   0.9564 B(  9-C , 11-H ) :   0.9527 B(  9-C , 12-C ) :   1.0925
B( 12-C , 13-H ) :   0.9726 B( 12-C , 14-H ) :   0.9636 B( 12-C , 15-H ) :   0.9706
B( 16-S , 17-C ) :   1.1666 B( 16-S , 20-C ) :   1.1095 B( 17-C , 18-C ) :   1.5881
B( 17-C , 33-H ) :   0.9678 B( 18-C , 19-C ) :   1.2665 B( 18-C , 21-H ) :   0.9950
B( 19-C , 20-C ) :   1.5608 B( 19-C , 22-C ) :   1.0467 B( 22-C , 23-H ) :   0.9311
B( 22-C , 24-H ) :   0.9235 B( 22-C , 25-C ) :   1.0615 B( 25-C , 26-H ) :   0.9561
B( 25-C , 27-H ) :   0.9526 B( 25-C , 28-C ) :   1.0734 B( 28-C , 29-H ) :   0.9760
B( 28-C , 30-H ) :   0.9747 B( 28-C , 31-H ) :   0.9764

Dispersion correction           -0.014631768
FINAL SINGLE POINT ENERGY     -1339.869416629140

DIPOLE MOMENT
-------------
                                X             Y             Z
Electronic contribution:     13.62610     -22.20264      18.59645
Nuclear contribution   :    -14.07463      22.60534     -19.09162
                        -----------------------------------------
Total Dipole Moment    :     -0.44853       0.40270      -0.49517
                        -----------------------------------------
Magnitude (a.u.)       :      0.78009
Magnitude (Debye)      :      1.98282

Rotational constants in cm-1:     0.017390     0.009887     0.006993
Rotational constants in MHz :   521.337099   296.409048   209.631437

                             ****ORCA TERMINATED NORMALLY****
TOTAL RUN TIME: 0 days 0 hours 0 minutes 22 seconds 482 msec
