                         Program Version 4.2.1 -  RELEASE  -
|  1> ! wB97X-D3 SP def2-SVP
|  2> %pal
|  3> nprocs 24
|  4> end
|  5>
|  6> * xyz 0 1
|  7> S 	 -36.9264 	 -12.1119 	 14.8321
|  8> C 	 -38.2487 	 -11.4949 	 15.7828
|  9> C 	 -38.1974 	 -12.0093 	 17.0351
| 10> C 	 -37.0543 	 -12.7629 	 17.2591
| 11> C 	 -36.2763 	 -13.0499 	 16.1526
| 12> H 	 -36.7006 	 -13.3254 	 18.1314
| 13> C 	 -39.2295 	 -11.6441 	 18.0875
| 14> H 	 -39.5609 	 -12.565 	 18.5749
| 15> H 	 -40.05 	 -11.1734 	 17.4971
| 16> C 	 -38.7439 	 -10.723 	 19.1269
| 17> H 	 -39.532 	 -10.5713 	 19.8916
| 18> H 	 -37.9439 	 -11.1139 	 19.7063
| 19> C 	 -38.4844 	 -9.37367 	 18.5465
| 20> H 	 -39.3366 	 -8.8526 	 18.175
| 21> H 	 -37.9567 	 -8.7882 	 19.3344
| 22> H 	 -37.6954 	 -9.33081 	 17.7321
| 23> S 	 -35.2874 	 -15.2634 	 14.9808
| 24> C 	 -33.584 	 -15.5557 	 15.0785
| 25> C 	 -32.9865 	 -14.6768 	 15.8992
| 26> C 	 -33.8405 	 -13.7459 	 16.5458
| 27> C 	 -35.1212 	 -13.8436 	 15.9882
| 28> H 	 -31.9517 	 -14.9605 	 16.1458
| 29> C 	 -33.4275 	 -12.7752 	 17.6554
| 30> H 	 -32.6663 	 -13.2158 	 18.2522
| 31> H 	 -34.2009 	 -12.5824 	 18.4279
| 32> C 	 -32.8169 	 -11.5092 	 17.1122
| 33> H 	 -33.4812 	 -11.2346 	 16.3249
| 34> H 	 -31.8833 	 -11.6132 	 16.5532
| 35> C 	 -32.7002 	 -10.3299 	 18.0502
| 36> H 	 -31.8352 	 -10.4683 	 18.6779
| 37> H 	 -33.5455 	 -10.2611 	 18.7083
| 38> H 	 -32.6331 	 -9.41341 	 17.5316
| 39> H 	 -38.992 	 -10.8332 	 15.3262
| 40> H 	 -33.0067 	 -16.2709 	 14.5259
| 41> *
| 42>
| 43>                          ****END OF INPUT****

CARTESIAN COORDINATES (ANGSTROEM)
---------------------------------
  S    -36.926400  -12.111900   14.832100
  C    -38.248700  -11.494900   15.782800
  C    -38.197400  -12.009300   17.035100
  C    -37.054300  -12.762900   17.259100
  C    -36.276300  -13.049900   16.152600
  H    -36.700600  -13.325400   18.131400
  C    -39.229500  -11.644100   18.087500
  H    -39.560900  -12.565000   18.574900
  H    -40.050000  -11.173400   17.497100
  C    -38.743900  -10.723000   19.126900
  H    -39.532000  -10.571300   19.891600
  H    -37.943900  -11.113900   19.706300
  C    -38.484400   -9.373670   18.546500
  H    -39.336600   -8.852600   18.175000
  H    -37.956700   -8.788200   19.334400
  H    -37.695400   -9.330810   17.732100
  S    -35.287400  -15.263400   14.980800
  C    -33.584000  -15.555700   15.078500
  C    -32.986500  -14.676800   15.899200
  C    -33.840500  -13.745900   16.545800
  C    -35.121200  -13.843600   15.988200
  H    -31.951700  -14.960500   16.145800
  C    -33.427500  -12.775200   17.655400
  H    -32.666300  -13.215800   18.252200
  H    -34.200900  -12.582400   18.427900
  C    -32.816900  -11.509200   17.112200
  H    -33.481200  -11.234600   16.324900
  H    -31.883300  -11.613200   16.553200
  C    -32.700200  -10.329900   18.050200
  H    -31.835200  -10.468300   18.677900
  H    -33.545500  -10.261100   18.708300
  H    -32.633100   -9.413410   17.531600
  H    -38.992000  -10.833200   15.326200
  H    -33.006700  -16.270900   14.525900

 Total Charge           Charge          ....    0
 Multiplicity           Mult            ....    1
 Number of Electrons    NEL             ....  134
 Basis Dimension        Dim             ....  322

ORBITAL ENERGIES
----------------

  NO   OCC          E(Eh)            E(eV)
   0   2.0000     -88.964930     -2420.8588
   1   2.0000     -88.959244     -2420.7041
   2   2.0000     -10.323332      -280.9121
   3   2.0000     -10.321930      -280.8740
   4   2.0000     -10.311632      -280.5938
   5   2.0000     -10.309964      -280.5484
   6   2.0000     -10.307817      -280.4900
   7   2.0000     -10.294219      -280.1199
   8   2.0000     -10.291468      -280.0451
   9   2.0000     -10.290266      -280.0124
  10   2.0000     -10.289317      -279.9866
  11   2.0000     -10.288571      -279.9663
  12   2.0000     -10.279379      -279.7161
  13   2.0000     -10.275023      -279.5976
  14   2.0000     -10.274129      -279.5733
  15   2.0000     -10.267097      -279.3819
  16   2.0000      -8.080211      -219.8737
  17   2.0000      -8.074629      -219.7218
  18   2.0000      -6.038630      -164.3195
  19   2.0000      -6.034674      -164.2118
  20   2.0000      -6.032936      -164.1645
  21   2.0000      -6.030979      -164.1113
  22   2.0000      -6.028916      -164.0551
  23   2.0000      -6.025669      -163.9668
  24   2.0000      -1.014310       -27.6008
  25   2.0000      -0.992034       -26.9946
  26   2.0000      -0.924425       -25.1549
  27   2.0000      -0.913560       -24.8592
  28   2.0000      -0.878710       -23.9109
  29   2.0000      -0.852414       -23.1954
  30   2.0000      -0.844870       -22.9901
  31   2.0000      -0.818251       -22.2657
  32   2.0000      -0.787670       -21.4336
  33   2.0000      -0.775780       -21.1100
  34   2.0000      -0.716226       -19.4895
  35   2.0000      -0.698087       -18.9959
  36   2.0000      -0.691659       -18.8210
  37   2.0000      -0.656513       -17.8646
  38   2.0000      -0.648179       -17.6378
  39   2.0000      -0.620856       -16.8944
  40   2.0000      -0.601059       -16.3557
  41   2.0000      -0.571601       -15.5541
  42   2.0000      -0.563083       -15.3223
  43   2.0000      -0.558089       -15.1864
  44   2.0000      -0.541971       -14.7478
  45   2.0000      -0.531528       -14.4636
  46   2.0000      -0.525808       -14.3080
  47   2.0000      -0.512352       -13.9418
  48   2.0000      -0.506083       -13.7712
  49   2.0000      -0.503515       -13.7013
  50   2.0000      -0.491356       -13.3705
  51   2.0000      -0.486480       -13.2378
  52   2.0000      -0.475719       -12.9450
  53   2.0000      -0.464379       -12.6364
  54   2.0000      -0.455132       -12.3848
  55   2.0000      -0.443785       -12.0760
  56   2.0000      -0.443301       -12.0628
  57   2.0000      -0.439891       -11.9700
  58   2.0000      -0.431517       -11.7422
  59   2.0000      -0.427703       -11.6384
  60   2.0000      -0.422092       -11.4857
  61   2.0000      -0.405537       -11.0352
  62   2.0000      -0.403096       -10.9688
  63   2.0000      -0.339688        -9.2434
  64   2.0000      -0.333520        -9.0755
  65   2.0000      -0.329017        -8.9530
  66   2.0000      -0.299654        -8.1540
  67   0.0000       0.034390         0.9358
  68   0.0000       0.065165         1.7732
  69   0.0000       0.114291         3.1100
  70   0.0000       0.128702         3.5022
  71   0.0000       0.132655         3.6097

MULLIKEN ATOMIC CHARGES
-----------------------
   0 S :    0.105752
   1 C :   -0.145258
   2 C :   -0.068386
   3 C :    0.035292
   4 C :   -0.184183
   5 H :    0.012447
   6 C :    0.095824
   7 H :    0.027079
   8 H :    0.016170
   9 C :   -0.034738
  10 H :    0.027523
  11 H :    0.019285
  12 C :   -0.080298
  13 H :    0.029123
  14 H :    0.028776
  15 H :    0.042894
  16 S :    0.124252
  17 C :   -0.079130
  18 C :   -0.049903
  19 C :   -0.003022
  20 C :   -0.205267
  21 H :    0.024680
  22 C :    0.109825
  23 H :    0.005116
  24 H :    0.022280
  25 C :   -0.090808
  26 H :    0.015169
  27 H :    0.024886
  28 C :    0.005985
  29 H :    0.020985
  30 H :    0.014650
  31 H :    0.027099
  32 H :    0.058368
  33 H :    0.047534
Sum of atomic charges:   -0.0000000

LOEWDIN ATOMIC CHARGES
----------------------
   0 S :    0.410495
   1 C :   -0.194718
   2 C :   -0.073514
   3 C :   -0.067308
   4 C :   -0.203735
   5 H :    0.033548
   6 C :   -0.026467
   7 H :    0.030983
   8 H :    0.032357
   9 C :   -0.046141
  10 H :    0.030911
  11 H :    0.020552
  12 C :   -0.070974
  13 H :    0.019742
  14 H :    0.029924
  15 H :    0.030686
  16 S :    0.419285
  17 C :   -0.188605
  18 C :   -0.079867
  19 C :   -0.042799
  20 C :   -0.206373
  21 H :    0.036871
  22 C :   -0.028502
  23 H :    0.025347
  24 H :    0.034123
  25 C :   -0.046103
  26 H :    0.020008
  27 H :    0.026259
  28 C :   -0.054766
  29 H :    0.021900
  30 H :    0.021016
  31 H :    0.024329
  32 H :    0.031978
  33 H :    0.029555

  Mayer bond orders larger than 0.100000
B(  0-S ,  1-C ) :   1.1543 B(  0-S ,  4-C ) :   1.1562 B(  1-C ,  2-C ) :   1.5846
B(  1-C ,  4-C ) :   0.1095 B(  1-C , 32-H ) :   0.9699 B(  2-C ,  3-C ) :   1.2376
B(  2-C ,  6-C ) :   1.0221 B(  3-C ,  4-C ) :   1.5812 B(  3-C ,  5-H ) :   0.9932
B(  4-C , 20-C ) :   1.0524 B(  6-C ,  7-H ) :   0.9292 B(  6-C ,  8-H ) :   0.9393
B(  6-C ,  9-C ) :   1.0918 B(  9-C , 10-H ) :   0.9457 B(  9-C , 11-H ) :   0.9509
B(  9-C , 12-C ) :   1.0790 B( 12-C , 13-H ) :   0.9747 B( 12-C , 14-H ) :   0.9695
B( 12-C , 15-H ) :   0.9730 B( 16-S , 17-C ) :   1.1425 B( 16-S , 20-C ) :   1.1613
B( 17-C , 18-C ) :   1.6506 B( 17-C , 20-C ) :   0.1016 B( 17-C , 33-H ) :   0.9644
B( 18-C , 19-C ) :   1.2348 B( 18-C , 21-H ) :   0.9770 B( 19-C , 20-C ) :   1.5712
B( 19-C , 22-C ) :   1.0514 B( 22-C , 23-H ) :   0.9209 B( 22-C , 24-H ) :   0.9363
B( 22-C , 25-C ) :   1.0570 B( 25-C , 26-H ) :   0.9566 B( 25-C , 27-H ) :   0.9503
B( 25-C , 28-C ) :   1.0919 B( 28-C , 29-H ) :   0.9737 B( 28-C , 30-H ) :   0.9727
B( 28-C , 31-H ) :   0.9724

Dispersion correction           -0.014702378
FINAL SINGLE POINT ENERGY     -1339.874547856265

DIPOLE MOMENT
-------------
                                X             Y             Z
Electronic contribution:     -2.04088     -19.84421     -20.10215
Nuclear contribution   :      2.18876      20.00957      20.64977
                        -----------------------------------------
Total Dipole Moment    :      0.14788       0.16535       0.54762
                        -----------------------------------------
Magnitude (a.u.)       :      0.59084
Magnitude (Debye)      :      1.50180

Rotational constants in cm-1:     0.018889     0.009473     0.007264
Rotational constants in MHz :   566.270717   283.979133   217.779920

                             ****ORCA TERMINATED NORMALLY****
TOTAL RUN TIME: 0 days 0 hours 0 minutes 22 seconds 348 msec
