                         Program Version 4.2.1 -  RELEASE  -
|  1> ! wB97X-D3 SP def2-SVP
|  2> %pal
|  3> nprocs 24
|  4> end
|  5>
|  6> * xyz 0 1
|  7> S 	 -125.225 	 66.0536 	 -40.8464
|  8> C 	 -126.586 	 67.0365 	 -41.4352
|  9> C 	 -126.135 	 68.254 	 -41.9005
| 10> C 	 -124.686 	 68.3795 	 -41.7663
| 11> C 	 -124.102 	 67.2614 	 -41.2392
| 12> H 	 -124.045 	 69.253 	 -41.9346
| 13> C 	 -127.125 	 69.3656 	 -42.3177
| 14> H 	 -127.346 	 69.2296 	 -43.4137
| 15> H 	 -126.677 	 70.3049 	 -42.1196
| 16> C 	 -128.442 	 69.4159 	 -41.5888
| 17> H 	 -128.99 	 68.4466 	 -41.6461
| 18> H 	 -128.111 	 69.3918 	 -40.5445
| 19> C 	 -129.258 	 70.7043 	 -41.9048
| 20> H 	 -129.428 	 70.8037 	 -42.955
| 21> H 	 -130.252 	 70.6821 	 -41.4279
| 22> H 	 -128.665 	 71.5615 	 -41.5908
| 23> S 	 -122.072 	 67.2707 	 -39.3886
| 24> C 	 -120.49 	 66.8995 	 -39.9436
| 25> C 	 -120.476 	 66.5298 	 -41.2208
| 26> C 	 -121.725 	 66.7575 	 -41.9364
| 27> C 	 -122.682 	 67.1264 	 -41.004
| 28> H 	 -119.565 	 66.2019 	 -41.7049
| 29> C 	 -122.004 	 66.3243 	 -43.3856
| 30> H 	 -123.061 	 66.0697 	 -43.4862
| 31> H 	 -121.321 	 65.4815 	 -43.4715
| 32> C 	 -121.655 	 67.3769 	 -44.4278
| 33> H 	 -120.649 	 67.7679 	 -44.2869
| 34> H 	 -122.32 	 68.1891 	 -44.1745
| 35> C 	 -121.852 	 66.8893 	 -45.8641
| 36> H 	 -122.84 	 66.3977 	 -46.0947
| 37> H 	 -121.172 	 66.0816 	 -46.1011
| 38> H 	 -121.733 	 67.6415 	 -46.6031
| 39> H 	 -127.631 	 66.7248 	 -41.4111
| 40> H 	 -119.659 	 66.6653 	 -39.2918
| 41> *
| 42>
| 43>                          ****END OF INPUT****

CARTESIAN COORDINATES (ANGSTROEM)
---------------------------------
  S    -125.225000   66.053600  -40.846400
  C    -126.586000   67.036500  -41.435200
  C    -126.135000   68.254000  -41.900500
  C    -124.686000   68.379500  -41.766300
  C    -124.102000   67.261400  -41.239200
  H    -124.045000   69.253000  -41.934600
  C    -127.125000   69.365600  -42.317700
  H    -127.346000   69.229600  -43.413700
  H    -126.677000   70.304900  -42.119600
  C    -128.442000   69.415900  -41.588800
  H    -128.990000   68.446600  -41.646100
  H    -128.111000   69.391800  -40.544500
  C    -129.258000   70.704300  -41.904800
  H    -129.428000   70.803700  -42.955000
  H    -130.252000   70.682100  -41.427900
  H    -128.665000   71.561500  -41.590800
  S    -122.072000   67.270700  -39.388600
  C    -120.490000   66.899500  -39.943600
  C    -120.476000   66.529800  -41.220800
  C    -121.725000   66.757500  -41.936400
  C    -122.682000   67.126400  -41.004000
  H    -119.565000   66.201900  -41.704900
  C    -122.004000   66.324300  -43.385600
  H    -123.061000   66.069700  -43.486200
  H    -121.321000   65.481500  -43.471500
  C    -121.655000   67.376900  -44.427800
  H    -120.649000   67.767900  -44.286900
  H    -122.320000   68.189100  -44.174500
  C    -121.852000   66.889300  -45.864100
  H    -122.840000   66.397700  -46.094700
  H    -121.172000   66.081600  -46.101100
  H    -121.733000   67.641500  -46.603100
  H    -127.631000   66.724800  -41.411100
  H    -119.659000   66.665300  -39.291800

 Total Charge           Charge          ....    0
 Multiplicity           Mult            ....    1
 Number of Electrons    NEL             ....  134
 Basis Dimension        Dim             ....  322

ORBITAL ENERGIES
----------------

  NO   OCC          E(Eh)            E(eV)
   0   2.0000     -88.964878     -2420.8574
   1   2.0000     -88.963060     -2420.8079
   2   2.0000     -10.320025      -280.8222
   3   2.0000     -10.319387      -280.8048
   4   2.0000     -10.314684      -280.6768
   5   2.0000     -10.307478      -280.4807
   6   2.0000     -10.306079      -280.4427
   7   2.0000     -10.302606      -280.3482
   8   2.0000     -10.294883      -280.1380
   9   2.0000     -10.292365      -280.0695
  10   2.0000     -10.291005      -280.0325
  11   2.0000     -10.288883      -279.9747
  12   2.0000     -10.288269      -279.9580
  13   2.0000     -10.283023      -279.8153
  14   2.0000     -10.282412      -279.7987
  15   2.0000     -10.275909      -279.6217
  16   2.0000      -8.080137      -219.8717
  17   2.0000      -8.078988      -219.8404
  18   2.0000      -6.038628      -164.3194
  19   2.0000      -6.037444      -164.2872
  20   2.0000      -6.034537      -164.2081
  21   2.0000      -6.033451      -164.1785
  22   2.0000      -6.030909      -164.1094
  23   2.0000      -6.029622      -164.0744
  24   2.0000      -1.012560       -27.5532
  25   2.0000      -0.987510       -26.8715
  26   2.0000      -0.915202       -24.9039
  27   2.0000      -0.909768       -24.7560
  28   2.0000      -0.871151       -23.7052
  29   2.0000      -0.849138       -23.1062
  30   2.0000      -0.844249       -22.9732
  31   2.0000      -0.815677       -22.1957
  32   2.0000      -0.784532       -21.3482
  33   2.0000      -0.772712       -21.0266
  34   2.0000      -0.708912       -19.2905
  35   2.0000      -0.701238       -19.0816
  36   2.0000      -0.690900       -18.8004
  37   2.0000      -0.657472       -17.8907
  38   2.0000      -0.642661       -17.4877
  39   2.0000      -0.608396       -16.5553
  40   2.0000      -0.595947       -16.2165
  41   2.0000      -0.577010       -15.7012
  42   2.0000      -0.568206       -15.4617
  43   2.0000      -0.560022       -15.2390
  44   2.0000      -0.524516       -14.2728
  45   2.0000      -0.519969       -14.1491
  46   2.0000      -0.517717       -14.0878
  47   2.0000      -0.511530       -13.9194
  48   2.0000      -0.504827       -13.7370
  49   2.0000      -0.499403       -13.5895
  50   2.0000      -0.495177       -13.4745
  51   2.0000      -0.480343       -13.0708
  52   2.0000      -0.472673       -12.8621
  53   2.0000      -0.465708       -12.6726
  54   2.0000      -0.453391       -12.3374
  55   2.0000      -0.451441       -12.2843
  56   2.0000      -0.448155       -12.1949
  57   2.0000      -0.436760       -11.8848
  58   2.0000      -0.434961       -11.8359
  59   2.0000      -0.425507       -11.5786
  60   2.0000      -0.422836       -11.5060
  61   2.0000      -0.416673       -11.3382
  62   2.0000      -0.413698       -11.2573
  63   2.0000      -0.336159        -9.1474
  64   2.0000      -0.329964        -8.9788
  65   2.0000      -0.324089        -8.8189
  66   2.0000      -0.312218        -8.4959
  67   0.0000       0.049000         1.3334
  68   0.0000       0.064788         1.7630
  69   0.0000       0.116070         3.1584
  70   0.0000       0.124978         3.4008
  71   0.0000       0.129699         3.5293

MULLIKEN ATOMIC CHARGES
-----------------------
   0 S :    0.121321
   1 C :   -0.143260
   2 C :   -0.081556
   3 C :    0.034233
   4 C :   -0.180330
   5 H :    0.023129
   6 C :    0.082578
   7 H :    0.046940
   8 H :    0.011992
   9 C :   -0.131867
  10 H :    0.030315
  11 H :    0.029771
  12 C :   -0.020225
  13 H :    0.025282
  14 H :    0.044103
  15 H :    0.034745
  16 S :    0.119330
  17 C :   -0.071278
  18 C :   -0.039779
  19 C :   -0.029501
  20 C :   -0.206802
  21 H :    0.014684
  22 C :    0.085171
  23 H :    0.039887
  24 H :    0.019901
  25 C :   -0.065860
  26 H :    0.026593
  27 H :    0.020725
  28 C :   -0.027657
  29 H :    0.027967
  30 H :    0.020479
  31 H :    0.029715
  32 H :    0.053420
  33 H :    0.055834
Sum of atomic charges:   -0.0000000

LOEWDIN ATOMIC CHARGES
----------------------
   0 S :    0.415785
   1 C :   -0.194947
   2 C :   -0.058882
   3 C :   -0.067634
   4 C :   -0.216385
   5 H :    0.036197
   6 C :   -0.031827
   7 H :    0.037341
   8 H :    0.023549
   9 C :   -0.051932
  10 H :    0.020532
  11 H :    0.025554
  12 C :   -0.058511
  13 H :    0.021372
  14 H :    0.033030
  15 H :    0.028330
  16 S :    0.419154
  17 C :   -0.196834
  18 C :   -0.071601
  19 C :   -0.047875
  20 C :   -0.210804
  21 H :    0.029190
  22 C :   -0.021873
  23 H :    0.034034
  24 H :    0.029343
  25 C :   -0.039962
  26 H :    0.024054
  27 H :    0.022352
  28 C :   -0.068354
  29 H :    0.031406
  30 H :    0.023249
  31 H :    0.021343
  32 H :    0.029389
  33 H :    0.032215

  Mayer bond orders larger than 0.100000
B(  0-S ,  1-C ) :   1.1237 B(  0-S ,  4-C ) :   1.1629 B(  1-C ,  2-C ) :   1.6314
B(  1-C , 32-H ) :   0.9690 B(  2-C ,  3-C ) :   1.2151 B(  2-C ,  6-C ) :   1.0086
B(  3-C ,  4-C ) :   1.6067 B(  3-C ,  5-H ) :   0.9897 B(  4-C , 20-C ) :   1.0053
B(  6-C ,  7-H ) :   0.9265 B(  6-C ,  8-H ) :   0.9501 B(  6-C ,  9-C ) :   1.0751
B(  9-C , 10-H ) :   0.9475 B(  9-C , 11-H ) :   0.9586 B(  9-C , 12-C ) :   1.0755
B( 12-C , 13-H ) :   0.9766 B( 12-C , 14-H ) :   0.9736 B( 12-C , 15-H ) :   0.9734
B( 16-S , 17-C ) :   1.1356 B( 16-S , 20-C ) :   1.1577 B( 17-C , 18-C ) :   1.6638
B( 17-C , 33-H ) :   0.9595 B( 18-C , 19-C ) :   1.2214 B( 18-C , 21-H ) :   0.9818
B( 19-C , 20-C ) :   1.6165 B( 19-C , 22-C ) :   1.0319 B( 22-C , 23-H ) :   0.9307
B( 22-C , 24-H ) :   0.9368 B( 22-C , 25-C ) :   1.0653 B( 25-C , 26-H ) :   0.9565
B( 25-C , 27-H ) :   0.9515 B( 25-C , 28-C ) :   1.0828 B( 28-C , 29-H ) :   0.9716
B( 28-C , 30-H ) :   0.9725 B( 28-C , 31-H ) :   0.9749

Dispersion correction           -0.013890448
FINAL SINGLE POINT ENERGY     -1339.889309089703

DIPOLE MOMENT
-------------
                                X             Y             Z
Electronic contribution:     10.47680     -11.14915      20.42042
Nuclear contribution   :    -10.53139      11.33145     -20.81076
                        -----------------------------------------
Total Dipole Moment    :     -0.05459       0.18229      -0.39034
                        -----------------------------------------
Magnitude (a.u.)       :      0.43425
Magnitude (Debye)      :      1.10378

Rotational constants in cm-1:     0.019294     0.007686     0.006293
Rotational constants in MHz :   578.416843   230.431059   188.649972

                             ****ORCA TERMINATED NORMALLY****
TOTAL RUN TIME: 0 days 0 hours 0 minutes 20 seconds 156 msec
