                         Program Version 4.2.1 -  RELEASE  -
|  1> ! wB97X-D3 SP def2-SVP
|  2> %pal
|  3> nprocs 24
|  4> end
|  5>
|  6> * xyz 0 1
|  7> S 	 -39.9294 	 18.3007 	 11.5055
|  8> C 	 -40.8626 	 19.1312 	 12.7744
|  9> C 	 -40.0504 	 19.8244 	 13.6349
| 10> C 	 -38.6523 	 19.6124 	 13.3512
| 11> C 	 -38.3898 	 18.7276 	 12.2966
| 12> H 	 -37.7403 	 19.9946 	 13.8227
| 13> C 	 -40.5587 	 20.7572 	 14.7008
| 14> H 	 -41.5846 	 20.9444 	 14.4538
| 15> H 	 -40.0662 	 21.7728 	 14.8015
| 16> C 	 -40.5712 	 20.1309 	 16.0732
| 17> H 	 -39.5797 	 19.8406 	 16.3147
| 18> H 	 -40.8826 	 20.8454 	 16.8959
| 19> C 	 -41.5112 	 18.9107 	 16.3063
| 20> H 	 -41.427 	 18.6858 	 17.3958
| 21> H 	 -42.5244 	 19.1169 	 15.9688
| 22> H 	 -41.1866 	 17.8727 	 15.9581
| 23> S 	 -36.2719 	 17.1441 	 12.8214
| 24> C 	 -34.8782 	 17.1986 	 11.7816
| 25> C 	 -35.1497 	 17.9031 	 10.6441
| 26> C 	 -36.4225 	 18.5661 	 10.5887
| 27> C 	 -37.0487 	 18.2982 	 11.8162
| 28> H 	 -34.3576 	 17.9907 	 9.90062
| 29> C 	 -36.9112 	 19.5518 	 9.52693
| 30> H 	 -36.2745 	 20.4186 	 9.56276
| 31> H 	 -37.8755 	 19.9045 	 9.84325
| 32> C 	 -36.9308 	 19.0892 	 8.02836
| 33> H 	 -35.9127 	 19.0795 	 7.63777
| 34> H 	 -37.4446 	 19.7445 	 7.38188
| 35> C 	 -37.6848 	 17.7408 	 7.84162
| 36> H 	 -38.697 	 17.7839 	 8.18132
| 37> H 	 -37.2799 	 16.9569 	 8.46608
| 38> H 	 -37.7436 	 17.3088 	 6.82244
| 39> H 	 -41.9813 	 19.1664 	 12.7781
| 40> H 	 -34.0003 	 16.698 	 11.9489
| 41> *
| 42>
| 43>                          ****END OF INPUT****

CARTESIAN COORDINATES (ANGSTROEM)
---------------------------------
  S    -39.929400   18.300700   11.505500
  C    -40.862600   19.131200   12.774400
  C    -40.050400   19.824400   13.634900
  C    -38.652300   19.612400   13.351200
  C    -38.389800   18.727600   12.296600
  H    -37.740300   19.994600   13.822700
  C    -40.558700   20.757200   14.700800
  H    -41.584600   20.944400   14.453800
  H    -40.066200   21.772800   14.801500
  C    -40.571200   20.130900   16.073200
  H    -39.579700   19.840600   16.314700
  H    -40.882600   20.845400   16.895900
  C    -41.511200   18.910700   16.306300
  H    -41.427000   18.685800   17.395800
  H    -42.524400   19.116900   15.968800
  H    -41.186600   17.872700   15.958100
  S    -36.271900   17.144100   12.821400
  C    -34.878200   17.198600   11.781600
  C    -35.149700   17.903100   10.644100
  C    -36.422500   18.566100   10.588700
  C    -37.048700   18.298200   11.816200
  H    -34.357600   17.990700    9.900620
  C    -36.911200   19.551800    9.526930
  H    -36.274500   20.418600    9.562760
  H    -37.875500   19.904500    9.843250
  C    -36.930800   19.089200    8.028360
  H    -35.912700   19.079500    7.637770
  H    -37.444600   19.744500    7.381880
  C    -37.684800   17.740800    7.841620
  H    -38.697000   17.783900    8.181320
  H    -37.279900   16.956900    8.466080
  H    -37.743600   17.308800    6.822440
  H    -41.981300   19.166400   12.778100
  H    -34.000300   16.698000   11.948900

 Total Charge           Charge          ....    0
 Multiplicity           Mult            ....    1
 Number of Electrons    NEL             ....  134
 Basis Dimension        Dim             ....  322

ORBITAL ENERGIES
----------------

  NO   OCC          E(Eh)            E(eV)
   0   2.0000     -88.967441     -2420.9271
   1   2.0000     -88.965595     -2420.8769
   2   2.0000     -10.331730      -281.1407
   3   2.0000     -10.327016      -281.0124
   4   2.0000     -10.320797      -280.8432
   5   2.0000     -10.308668      -280.5131
   6   2.0000     -10.308228      -280.5012
   7   2.0000     -10.304177      -280.3909
   8   2.0000     -10.297950      -280.2215
   9   2.0000     -10.293832      -280.1094
  10   2.0000     -10.293441      -280.0988
  11   2.0000     -10.292530      -280.0740
  12   2.0000     -10.287924      -279.9487
  13   2.0000     -10.286344      -279.9056
  14   2.0000     -10.282910      -279.8122
  15   2.0000     -10.270029      -279.4617
  16   2.0000      -8.082924      -219.9476
  17   2.0000      -8.079017      -219.8412
  18   2.0000      -6.041244      -164.3906
  19   2.0000      -6.037635      -164.2924
  20   2.0000      -6.037407      -164.2862
  21   2.0000      -6.033752      -164.1868
  22   2.0000      -6.033731      -164.1862
  23   2.0000      -6.029721      -164.0771
  24   2.0000      -1.005938       -27.3730
  25   2.0000      -0.981224       -26.7005
  26   2.0000      -0.911136       -24.7933
  27   2.0000      -0.903543       -24.5867
  28   2.0000      -0.865632       -23.5550
  29   2.0000      -0.847607       -23.0646
  30   2.0000      -0.838852       -22.8263
  31   2.0000      -0.813052       -22.1243
  32   2.0000      -0.784035       -21.3347
  33   2.0000      -0.774382       -21.0720
  34   2.0000      -0.709452       -19.3052
  35   2.0000      -0.701452       -19.0875
  36   2.0000      -0.686783       -18.6883
  37   2.0000      -0.659136       -17.9360
  38   2.0000      -0.638253       -17.3678
  39   2.0000      -0.614395       -16.7185
  40   2.0000      -0.597215       -16.2511
  41   2.0000      -0.566920       -15.4267
  42   2.0000      -0.551265       -15.0007
  43   2.0000      -0.548356       -14.9215
  44   2.0000      -0.543425       -14.7873
  45   2.0000      -0.535397       -14.5689
  46   2.0000      -0.517671       -14.0865
  47   2.0000      -0.513476       -13.9724
  48   2.0000      -0.496265       -13.5041
  49   2.0000      -0.489639       -13.3238
  50   2.0000      -0.488137       -13.2829
  51   2.0000      -0.474082       -12.9004
  52   2.0000      -0.468112       -12.7380
  53   2.0000      -0.462715       -12.5911
  54   2.0000      -0.455559       -12.3964
  55   2.0000      -0.443759       -12.0753
  56   2.0000      -0.440505       -11.9868
  57   2.0000      -0.435846       -11.8600
  58   2.0000      -0.434260       -11.8168
  59   2.0000      -0.429302       -11.6819
  60   2.0000      -0.420387       -11.4393
  61   2.0000      -0.417250       -11.3540
  62   2.0000      -0.409135       -11.1331
  63   2.0000      -0.336801        -9.1648
  64   2.0000      -0.332628        -9.0513
  65   2.0000      -0.326536        -8.8855
  66   2.0000      -0.303048        -8.2464
  67   0.0000       0.036958         1.0057
  68   0.0000       0.062733         1.7070
  69   0.0000       0.103454         2.8151
  70   0.0000       0.116345         3.1659
  71   0.0000       0.132205         3.5975

MULLIKEN ATOMIC CHARGES
-----------------------
   0 S :    0.103442
   1 C :   -0.144986
   2 C :   -0.055235
   3 C :    0.035963
   4 C :   -0.183337
   5 H :    0.020287
   6 C :    0.089216
   7 H :    0.001956
   8 H :    0.048230
   9 C :   -0.080826
  10 H :    0.017166
  11 H :    0.038532
  12 C :   -0.089951
  13 H :    0.033879
  14 H :    0.034614
  15 H :    0.044242
  16 S :    0.132561
  17 C :   -0.057425
  18 C :   -0.041201
  19 C :   -0.015005
  20 C :   -0.208440
  21 H :    0.016808
  22 C :    0.096021
  23 H :    0.035178
  24 H :    0.017435
  25 C :   -0.046228
  26 H :    0.029061
  27 H :    0.024529
  28 C :   -0.070106
  29 H :    0.020278
  30 H :    0.031579
  31 H :    0.036113
  32 H :    0.066634
  33 H :    0.019017
Sum of atomic charges:    0.0000000

LOEWDIN ATOMIC CHARGES
----------------------
   0 S :    0.376684
   1 C :   -0.187722
   2 C :   -0.064179
   3 C :   -0.061491
   4 C :   -0.192352
   5 H :    0.035399
   6 C :   -0.035684
   7 H :    0.023099
   8 H :    0.043433
   9 C :   -0.044036
  10 H :    0.016827
  11 H :    0.031507
  12 C :   -0.079769
  13 H :    0.032129
  14 H :    0.019888
  15 H :    0.032551
  16 S :    0.433086
  17 C :   -0.179469
  18 C :   -0.065704
  19 C :   -0.052258
  20 C :   -0.210017
  21 H :    0.030121
  22 C :   -0.023161
  23 H :    0.034822
  24 H :    0.025267
  25 C :   -0.033013
  26 H :    0.022707
  27 H :    0.022265
  28 C :   -0.073101
  29 H :    0.020964
  30 H :    0.022852
  31 H :    0.028642
  32 H :    0.038175
  33 H :    0.011539

  Mayer bond orders larger than 0.100000
B(  0-S ,  1-C ) :   1.1325 B(  0-S ,  4-C ) :   1.1293 B(  1-C ,  2-C ) :   1.6321
B(  1-C , 32-H ) :   0.9587 B(  2-C ,  3-C ) :   1.2015 B(  2-C ,  6-C ) :   1.0257
B(  3-C ,  4-C ) :   1.6112 B(  3-C ,  5-H ) :   0.9897 B(  4-C , 20-C ) :   1.0034
B(  6-C ,  7-H ) :   0.9353 B(  6-C ,  8-H ) :   0.9436 B(  6-C ,  9-C ) :   1.0723
B(  9-C , 10-H ) :   0.9551 B(  9-C , 11-H ) :   0.9575 B(  9-C , 12-C ) :   1.0722
B( 12-C , 13-H ) :   0.9734 B( 12-C , 14-H ) :   0.9764 B( 12-C , 15-H ) :   0.9727
B( 16-S , 17-C ) :   1.1387 B( 16-S , 20-C ) :   1.1860 B( 17-C , 18-C ) :   1.6273
B( 17-C , 33-H ) :   0.9806 B( 18-C , 19-C ) :   1.2191 B( 18-C , 21-H ) :   0.9868
B( 19-C , 20-C ) :   1.5722 B( 19-C , 22-C ) :   1.0411 B( 22-C , 23-H ) :   0.9375
B( 22-C , 24-H ) :   0.9274 B( 22-C , 25-C ) :   1.0674 B( 25-C , 26-H ) :   0.9569
B( 25-C , 27-H ) :   0.9581 B( 25-C , 28-C ) :   1.0678 B( 28-C , 29-H ) :   0.9746
B( 28-C , 30-H ) :   0.9739 B( 28-C , 31-H ) :   0.9766

Dispersion correction           -0.014959604
FINAL SINGLE POINT ENERGY     -1339.877670546538

DIPOLE MOMENT
-------------
                                X             Y             Z
Electronic contribution:      7.67818      -7.48775      -0.01152
Nuclear contribution   :     -7.56797       7.87929       0.04232
                        -----------------------------------------
Total Dipole Moment    :      0.11021       0.39154       0.03080
                        -----------------------------------------
Magnitude (a.u.)       :      0.40792
Magnitude (Debye)      :      1.03684

Rotational constants in cm-1:     0.023695     0.007853     0.006620
Rotational constants in MHz :   710.346036   235.432153   198.470176

                             ****ORCA TERMINATED NORMALLY****
TOTAL RUN TIME: 0 days 0 hours 0 minutes 21 seconds 300 msec
