                         Program Version 4.2.1 -  RELEASE  -
|  1> ! wB97X-D3 SP def2-SVP
|  2> %pal
|  3> nprocs 24
|  4> end
|  5>
|  6> * xyz 0 1
|  7> S 	 -48.4907 	 -43.2417 	 -78.2675
|  8> C 	 -48.6177 	 -41.5271 	 -78.3314
|  9> C 	 -47.3695 	 -40.9276 	 -78.2602
| 10> C 	 -46.3018 	 -41.8313 	 -78.1653
| 11> C 	 -46.7404 	 -43.118 	 -78.0826
| 12> H 	 -45.3056 	 -41.6232 	 -77.9719
| 13> C 	 -47.2383 	 -39.4363 	 -78.281
| 14> H 	 -48.0253 	 -39.055 	 -78.8896
| 15> H 	 -46.3316 	 -39.2196 	 -78.8812
| 16> C 	 -47.343 	 -38.7327 	 -76.939
| 17> H 	 -48.1064 	 -39.2323 	 -76.3354
| 18> H 	 -46.2923 	 -38.8147 	 -76.5058
| 19> C 	 -47.9164 	 -37.3342 	 -77.1113
| 20> H 	 -47.4968 	 -37.0105 	 -78.0442
| 21> H 	 -48.9883 	 -37.4951 	 -77.3058
| 22> H 	 -47.7309 	 -36.5999 	 -76.3367
| 23> S 	 -45.0435 	 -44.3204 	 -76.3165
| 24> C 	 -44.348 	 -45.8665 	 -76.7639
| 25> C 	 -44.6689 	 -46.2248 	 -78.0373
| 26> C 	 -45.6441 	 -45.3481 	 -78.6366
| 27> C 	 -45.932 	 -44.2794 	 -77.8525
| 28> H 	 -44.2764 	 -47.1056 	 -78.456
| 29> C 	 -46.0795 	 -45.3993 	 -80.0875
| 30> H 	 -45.3369 	 -44.7911 	 -80.5853
| 31> H 	 -46.9426 	 -44.9267 	 -80.2724
| 32> C 	 -46.2731 	 -46.6935 	 -80.8692
| 33> H 	 -47.1266 	 -47.2984 	 -80.5219
| 34> H 	 -45.4127 	 -47.3245 	 -80.6753
| 35> C 	 -46.2582 	 -46.3957 	 -82.3355
| 36> H 	 -46.9543 	 -45.6163 	 -82.677
| 37> H 	 -46.5165 	 -47.2858 	 -82.8316
| 38> H 	 -45.2553 	 -46.0538 	 -82.7422
| 39> H 	 -49.5653 	 -40.9723 	 -78.2953
| 40> H 	 -43.6185 	 -46.372 	 -76.1318
| 41> *
| 42>
| 43>                          ****END OF INPUT****

CARTESIAN COORDINATES (ANGSTROEM)
---------------------------------
  S    -48.490700  -43.241700  -78.267500
  C    -48.617700  -41.527100  -78.331400
  C    -47.369500  -40.927600  -78.260200
  C    -46.301800  -41.831300  -78.165300
  C    -46.740400  -43.118000  -78.082600
  H    -45.305600  -41.623200  -77.971900
  C    -47.238300  -39.436300  -78.281000
  H    -48.025300  -39.055000  -78.889600
  H    -46.331600  -39.219600  -78.881200
  C    -47.343000  -38.732700  -76.939000
  H    -48.106400  -39.232300  -76.335400
  H    -46.292300  -38.814700  -76.505800
  C    -47.916400  -37.334200  -77.111300
  H    -47.496800  -37.010500  -78.044200
  H    -48.988300  -37.495100  -77.305800
  H    -47.730900  -36.599900  -76.336700
  S    -45.043500  -44.320400  -76.316500
  C    -44.348000  -45.866500  -76.763900
  C    -44.668900  -46.224800  -78.037300
  C    -45.644100  -45.348100  -78.636600
  C    -45.932000  -44.279400  -77.852500
  H    -44.276400  -47.105600  -78.456000
  C    -46.079500  -45.399300  -80.087500
  H    -45.336900  -44.791100  -80.585300
  H    -46.942600  -44.926700  -80.272400
  C    -46.273100  -46.693500  -80.869200
  H    -47.126600  -47.298400  -80.521900
  H    -45.412700  -47.324500  -80.675300
  C    -46.258200  -46.395700  -82.335500
  H    -46.954300  -45.616300  -82.677000
  H    -46.516500  -47.285800  -82.831600
  H    -45.255300  -46.053800  -82.742200
  H    -49.565300  -40.972300  -78.295300
  H    -43.618500  -46.372000  -76.131800

 Total Charge           Charge          ....    0
 Multiplicity           Mult            ....    1
 Number of Electrons    NEL             ....  134
 Basis Dimension        Dim             ....  322

ORBITAL ENERGIES
----------------

  NO   OCC          E(Eh)            E(eV)
   0   2.0000     -88.965592     -2420.8768
   1   2.0000     -88.961007     -2420.7521
   2   2.0000     -10.322752      -280.8964
   3   2.0000     -10.317410      -280.7510
   4   2.0000     -10.316121      -280.7159
   5   2.0000     -10.310083      -280.5516
   6   2.0000     -10.300212      -280.2830
   7   2.0000     -10.293997      -280.1139
   8   2.0000     -10.290114      -280.0082
   9   2.0000     -10.287164      -279.9280
  10   2.0000     -10.284955      -279.8679
  11   2.0000     -10.284153      -279.8460
  12   2.0000     -10.283381      -279.8250
  13   2.0000     -10.276953      -279.6501
  14   2.0000     -10.276483      -279.6373
  15   2.0000     -10.275736      -279.6170
  16   2.0000      -8.080377      -219.8782
  17   2.0000      -8.075728      -219.7517
  18   2.0000      -6.038750      -164.3227
  19   2.0000      -6.034874      -164.2173
  20   2.0000      -6.034270      -164.2008
  21   2.0000      -6.031295      -164.1199
  22   2.0000      -6.030329      -164.0936
  23   2.0000      -6.026363      -163.9857
  24   2.0000      -1.009950       -27.4821
  25   2.0000      -0.985992       -26.8302
  26   2.0000      -0.917497       -24.9664
  27   2.0000      -0.915162       -24.9028
  28   2.0000      -0.873810       -23.7776
  29   2.0000      -0.856739       -23.3131
  30   2.0000      -0.850869       -23.1533
  31   2.0000      -0.817834       -22.2544
  32   2.0000      -0.783476       -21.3195
  33   2.0000      -0.766947       -20.8697
  34   2.0000      -0.705579       -19.1998
  35   2.0000      -0.700997       -19.0751
  36   2.0000      -0.693585       -18.8734
  37   2.0000      -0.661813       -18.0089
  38   2.0000      -0.645747       -17.5717
  39   2.0000      -0.620893       -16.8953
  40   2.0000      -0.605984       -16.4897
  41   2.0000      -0.576345       -15.6831
  42   2.0000      -0.568685       -15.4747
  43   2.0000      -0.559302       -15.2194
  44   2.0000      -0.531093       -14.4518
  45   2.0000      -0.525769       -14.3069
  46   2.0000      -0.518146       -14.0995
  47   2.0000      -0.513652       -13.9772
  48   2.0000      -0.507578       -13.8119
  49   2.0000      -0.501547       -13.6478
  50   2.0000      -0.491914       -13.3857
  51   2.0000      -0.481735       -13.1087
  52   2.0000      -0.474146       -12.9022
  53   2.0000      -0.465005       -12.6534
  54   2.0000      -0.457746       -12.4559
  55   2.0000      -0.453622       -12.3437
  56   2.0000      -0.443511       -12.0685
  57   2.0000      -0.437865       -11.9149
  58   2.0000      -0.434052       -11.8112
  59   2.0000      -0.424340       -11.5469
  60   2.0000      -0.417743       -11.3674
  61   2.0000      -0.412745       -11.2314
  62   2.0000      -0.410245       -11.1633
  63   2.0000      -0.343084        -9.3358
  64   2.0000      -0.333251        -9.0682
  65   2.0000      -0.327384        -8.9086
  66   2.0000      -0.294989        -8.0271
  67   0.0000       0.039532         1.0757
  68   0.0000       0.064930         1.7668
  69   0.0000       0.111054         3.0219
  70   0.0000       0.117714         3.2031
  71   0.0000       0.132091         3.5944

MULLIKEN ATOMIC CHARGES
-----------------------
   0 S :    0.125904
   1 C :   -0.134612
   2 C :   -0.087900
   3 C :    0.066558
   4 C :   -0.174094
   5 H :   -0.014687
   6 C :    0.046491
   7 H :    0.000157
   8 H :    0.030900
   9 C :   -0.061998
  10 H :    0.031088
  11 H :    0.042844
  12 C :   -0.041962
  13 H :    0.020924
  14 H :    0.032305
  15 H :    0.045793
  16 S :    0.097821
  17 C :   -0.090745
  18 C :   -0.018873
  19 C :    0.010184
  20 C :   -0.174229
  21 H :    0.001854
  22 C :    0.088689
  23 H :    0.030216
  24 H :   -0.019696
  25 C :   -0.059818
  26 H :    0.039621
  27 H :    0.014030
  28 C :   -0.050917
  29 H :    0.030989
  30 H :    0.021802
  31 H :    0.036677
  32 H :    0.055124
  33 H :    0.059559
Sum of atomic charges:    0.0000000

LOEWDIN ATOMIC CHARGES
----------------------
   0 S :    0.417517
   1 C :   -0.211404
   2 C :   -0.062608
   3 C :   -0.054386
   4 C :   -0.183390
   5 H :    0.022594
   6 C :   -0.039389
   7 H :    0.022010
   8 H :    0.034209
   9 C :   -0.043967
  10 H :    0.024460
  11 H :    0.031024
  12 C :   -0.062847
  13 H :    0.019838
  14 H :    0.029263
  15 H :    0.026751
  16 S :    0.386506
  17 C :   -0.175164
  18 C :   -0.066264
  19 C :   -0.049846
  20 C :   -0.194206
  21 H :    0.023369
  22 C :   -0.027084
  23 H :    0.039466
  24 H :    0.007679
  25 C :   -0.039717
  26 H :    0.028710
  27 H :    0.019415
  28 C :   -0.063206
  29 H :    0.025260
  30 H :    0.020284
  31 H :    0.032736
  32 H :    0.032165
  33 H :    0.030223

  Mayer bond orders larger than 0.100000
B(  0-S ,  1-C ) :   1.1468 B(  0-S ,  4-C ) :   1.1555 B(  1-C ,  2-C ) :   1.5965
B(  1-C , 32-H ) :   0.9661 B(  2-C ,  3-C ) :   1.2429 B(  2-C ,  6-C ) :   1.0291
B(  3-C ,  4-C ) :   1.5722 B(  3-C ,  5-H ) :   1.0079 B(  4-C , 20-C ) :   1.0304
B(  6-C ,  7-H ) :   0.9393 B(  6-C ,  8-H ) :   0.9310 B(  6-C ,  9-C ) :   1.0524
B(  9-C , 10-H ) :   0.9657 B(  9-C , 11-H ) :   0.9527 B(  9-C , 12-C ) :   1.0653
B( 12-C , 13-H ) :   0.9774 B( 12-C , 14-H ) :   0.9751 B( 12-C , 15-H ) :   0.9745
B( 16-S , 17-C ) :   1.1440 B( 16-S , 20-C ) :   1.1204 B( 17-C , 18-C ) :   1.6378
B( 17-C , 33-H ) :   0.9654 B( 18-C , 19-C ) :   1.1959 B( 18-C , 21-H ) :   0.9985
B( 19-C , 20-C ) :   1.6372 B( 19-C , 22-C ) :   1.0398 B( 22-C , 23-H ) :   0.9355
B( 22-C , 24-H ) :   0.9188 B( 22-C , 25-C ) :   1.0595 B( 25-C , 26-H ) :   0.9560
B( 25-C , 27-H ) :   0.9485 B( 25-C , 28-C ) :   1.0884 B( 28-C , 29-H ) :   0.9746
B( 28-C , 30-H ) :   0.9695 B( 28-C , 31-H ) :   0.9718

Dispersion correction           -0.013680201
FINAL SINGLE POINT ENERGY     -1339.871496433020

DIPOLE MOMENT
-------------
                                X             Y             Z
Electronic contribution:      1.20388     -10.44098      13.43983
Nuclear contribution   :     -1.03736      10.58043     -13.77157
                        -----------------------------------------
Total Dipole Moment    :      0.16651       0.13945      -0.33175
                        -----------------------------------------
Magnitude (a.u.)       :      0.39652
Magnitude (Debye)      :      1.00787

Rotational constants in cm-1:     0.021922     0.007323     0.006076
Rotational constants in MHz :   657.219971   219.534617   182.139723

                             ****ORCA TERMINATED NORMALLY****
TOTAL RUN TIME: 0 days 0 hours 0 minutes 22 seconds 55 msec
