                         Program Version 4.2.1 -  RELEASE  -
|  1> ! wB97X-D3 SP def2-SVP
|  2> %pal
|  3> nprocs 24
|  4> end
|  5>
|  6> * xyz 0 1
|  7> S 	 41.0477 	 -23.9534 	 -122.651
|  8> C 	 40.2397 	 -22.6706 	 -123.393
|  9> C 	 38.8655 	 -22.9714 	 -123.627
| 10> C 	 38.6629 	 -24.3972 	 -123.54
| 11> C 	 39.753 	 -25.0743 	 -123.109
| 12> H 	 37.7103 	 -24.8927 	 -123.889
| 13> C 	 37.8611 	 -21.926 	 -124.244
| 14> H 	 38.2333 	 -20.8968 	 -124.286
| 15> H 	 36.8833 	 -21.9026 	 -123.716
| 16> C 	 37.5841 	 -22.3846 	 -125.668
| 17> H 	 38.436 	 -22.3944 	 -126.322
| 18> H 	 36.9728 	 -23.3121 	 -125.644
| 19> C 	 36.5877 	 -21.387 	 -126.301
| 20> H 	 35.6242 	 -21.4346 	 -125.851
| 21> H 	 36.9761 	 -20.3764 	 -126.272
| 22> H 	 36.4304 	 -21.7478 	 -127.288
| 23> S 	 39.9794 	 -27.0023 	 -121.261
| 24> C 	 39.6566 	 -28.6531 	 -121.801
| 25> C 	 39.626 	 -28.7916 	 -123.152
| 26> C 	 39.7002 	 -27.5215 	 -123.811
| 27> C 	 39.8238 	 -26.477 	 -122.886
| 28> H 	 39.4948 	 -29.7522 	 -123.564
| 29> C 	 39.3538 	 -27.325 	 -125.329
| 30> H 	 39.4098 	 -26.2172 	 -125.568
| 31> H 	 38.3241 	 -27.7419 	 -125.49
| 32> C 	 40.384 	 -27.9505 	 -126.234
| 33> H 	 40.4559 	 -29.0141 	 -126.171
| 34> H 	 41.3759 	 -27.5165 	 -126.063
| 35> C 	 40.06 	 -27.7009 	 -127.822
| 36> H 	 39.1732 	 -28.0948 	 -128.215
| 37> H 	 40.8594 	 -28.1649 	 -128.445
| 38> H 	 40.0503 	 -26.6424 	 -127.917
| 39> H 	 40.5964 	 -21.6822 	 -123.569
| 40> H 	 39.3963 	 -29.4721 	 -121.14
| 41> *
| 42>
| 43>                          ****END OF INPUT****

CARTESIAN COORDINATES (ANGSTROEM)
---------------------------------
  S     41.047700  -23.953400  -122.651000
  C     40.239700  -22.670600  -123.393000
  C     38.865500  -22.971400  -123.627000
  C     38.662900  -24.397200  -123.540000
  C     39.753000  -25.074300  -123.109000
  H     37.710300  -24.892700  -123.889000
  C     37.861100  -21.926000  -124.244000
  H     38.233300  -20.896800  -124.286000
  H     36.883300  -21.902600  -123.716000
  C     37.584100  -22.384600  -125.668000
  H     38.436000  -22.394400  -126.322000
  H     36.972800  -23.312100  -125.644000
  C     36.587700  -21.387000  -126.301000
  H     35.624200  -21.434600  -125.851000
  H     36.976100  -20.376400  -126.272000
  H     36.430400  -21.747800  -127.288000
  S     39.979400  -27.002300  -121.261000
  C     39.656600  -28.653100  -121.801000
  C     39.626000  -28.791600  -123.152000
  C     39.700200  -27.521500  -123.811000
  C     39.823800  -26.477000  -122.886000
  H     39.494800  -29.752200  -123.564000
  C     39.353800  -27.325000  -125.329000
  H     39.409800  -26.217200  -125.568000
  H     38.324100  -27.741900  -125.490000
  C     40.384000  -27.950500  -126.234000
  H     40.455900  -29.014100  -126.171000
  H     41.375900  -27.516500  -126.063000
  C     40.060000  -27.700900  -127.822000
  H     39.173200  -28.094800  -128.215000
  H     40.859400  -28.164900  -128.445000
  H     40.050300  -26.642400  -127.917000
  H     40.596400  -21.682200  -123.569000
  H     39.396300  -29.472100  -121.140000

 Total Charge           Charge          ....    0
 Multiplicity           Mult            ....    1
 Number of Electrons    NEL             ....  134
 Basis Dimension        Dim             ....  322

ORBITAL ENERGIES
----------------

  NO   OCC          E(Eh)            E(eV)
   0   2.0000     -88.965114     -2420.8638
   1   2.0000     -88.964815     -2420.8557
   2   2.0000     -10.321601      -280.8650
   3   2.0000     -10.319362      -280.8041
   4   2.0000     -10.313119      -280.6342
   5   2.0000     -10.309572      -280.5377
   6   2.0000     -10.305650      -280.4310
   7   2.0000     -10.304726      -280.4058
   8   2.0000     -10.300507      -280.2911
   9   2.0000     -10.299296      -280.2581
  10   2.0000     -10.297459      -280.2081
  11   2.0000     -10.289679      -279.9964
  12   2.0000     -10.286697      -279.9153
  13   2.0000     -10.285224      -279.8752
  14   2.0000     -10.275245      -279.6036
  15   2.0000     -10.269647      -279.4513
  16   2.0000      -8.080634      -219.8852
  17   2.0000      -8.080179      -219.8729
  18   2.0000      -6.039038      -164.3306
  19   2.0000      -6.038637      -164.3197
  20   2.0000      -6.035212      -164.2265
  21   2.0000      -6.034749      -164.2139
  22   2.0000      -6.031278      -164.1194
  23   2.0000      -6.030814      -164.1068
  24   2.0000      -1.010497       -27.4970
  25   2.0000      -0.984744       -26.7963
  26   2.0000      -0.913376       -24.8542
  27   2.0000      -0.899548       -24.4779
  28   2.0000      -0.875733       -23.8299
  29   2.0000      -0.849178       -23.1073
  30   2.0000      -0.841399       -22.8956
  31   2.0000      -0.812950       -22.1215
  32   2.0000      -0.779382       -21.2081
  33   2.0000      -0.765911       -20.8415
  34   2.0000      -0.705272       -19.1914
  35   2.0000      -0.693029       -18.8583
  36   2.0000      -0.689275       -18.7561
  37   2.0000      -0.659387       -17.9428
  38   2.0000      -0.641409       -17.4536
  39   2.0000      -0.620629       -16.8882
  40   2.0000      -0.592029       -16.1099
  41   2.0000      -0.576733       -15.6937
  42   2.0000      -0.568440       -15.4680
  43   2.0000      -0.561674       -15.2839
  44   2.0000      -0.527051       -14.3418
  45   2.0000      -0.520129       -14.1534
  46   2.0000      -0.513092       -13.9619
  47   2.0000      -0.508291       -13.8313
  48   2.0000      -0.499945       -13.6042
  49   2.0000      -0.496347       -13.5063
  50   2.0000      -0.493902       -13.4398
  51   2.0000      -0.482666       -13.1340
  52   2.0000      -0.467032       -12.7086
  53   2.0000      -0.463708       -12.6181
  54   2.0000      -0.459394       -12.5008
  55   2.0000      -0.452129       -12.3031
  56   2.0000      -0.444773       -12.1029
  57   2.0000      -0.438552       -11.9336
  58   2.0000      -0.435142       -11.8408
  59   2.0000      -0.429207       -11.6793
  60   2.0000      -0.426221       -11.5981
  61   2.0000      -0.412370       -11.2212
  62   2.0000      -0.403166       -10.9707
  63   2.0000      -0.349693        -9.5156
  64   2.0000      -0.331174        -9.0117
  65   2.0000      -0.322037        -8.7631
  66   2.0000      -0.287560        -7.8249
  67   0.0000       0.042846         1.1659
  68   0.0000       0.057004         1.5511
  69   0.0000       0.112453         3.0600
  70   0.0000       0.121630         3.3097
  71   0.0000       0.127910         3.4806

MULLIKEN ATOMIC CHARGES
-----------------------
   0 S :    0.127938
   1 C :   -0.097947
   2 C :   -0.085849
   3 C :    0.018542
   4 C :   -0.171145
   5 H :    0.039312
   6 C :    0.047767
   7 H :    0.022723
   8 H :    0.036355
   9 C :   -0.113699
  10 H :    0.038533
  11 H :    0.035791
  12 C :   -0.020776
  13 H :    0.018890
  14 H :    0.028343
  15 H :    0.021028
  16 S :    0.116808
  17 C :   -0.096715
  18 C :   -0.014605
  19 C :   -0.011197
  20 C :   -0.173270
  21 H :    0.004361
  22 C :    0.044105
  23 H :    0.046460
  24 H :    0.047326
  25 C :   -0.100018
  26 H :    0.025947
  27 H :    0.041382
  28 C :   -0.049245
  29 H :    0.020872
  30 H :    0.038151
  31 H :    0.023529
  32 H :    0.035897
  33 H :    0.054406
Sum of atomic charges:    0.0000000

LOEWDIN ATOMIC CHARGES
----------------------
   0 S :    0.417108
   1 C :   -0.214680
   2 C :   -0.058631
   3 C :   -0.061907
   4 C :   -0.198189
   5 H :    0.042459
   6 C :   -0.031386
   7 H :    0.027713
   8 H :    0.035416
   9 C :   -0.037987
  10 H :    0.023055
  11 H :    0.027962
  12 C :   -0.060355
  13 H :    0.018449
  14 H :    0.020504
  15 H :    0.021346
  16 S :    0.410358
  17 C :   -0.177384
  18 C :   -0.062894
  19 C :   -0.053801
  20 C :   -0.211507
  21 H :    0.027218
  22 C :   -0.035499
  23 H :    0.039502
  24 H :    0.035830
  25 C :   -0.036003
  26 H :    0.014145
  27 H :    0.029928
  28 C :   -0.062457
  29 H :    0.013217
  30 H :    0.030755
  31 H :    0.017447
  32 H :    0.021732
  33 H :    0.028537

  Mayer bond orders larger than 0.100000
B(  0-S ,  1-C ) :   1.1587 B(  0-S ,  4-C ) :   1.1298 B(  1-C ,  2-C ) :   1.5962
B(  1-C ,  4-C ) :   0.1001 B(  1-C , 32-H ) :   0.9711 B(  2-C ,  3-C ) :   1.2311
B(  2-C ,  6-C ) :   1.0264 B(  3-C ,  4-C ) :   1.5975 B(  3-C ,  5-H ) :   0.9834
B(  4-C , 20-C ) :   1.0442 B(  6-C ,  7-H ) :   0.9511 B(  6-C ,  8-H ) :   0.9402
B(  6-C ,  9-C ) :   1.0710 B(  9-C , 10-H ) :   0.9607 B(  9-C , 11-H ) :   0.9525
B(  9-C , 12-C ) :   1.0862 B( 12-C , 13-H ) :   0.9739 B( 12-C , 14-H ) :   0.9746
B( 12-C , 15-H ) :   0.9724 B( 16-S , 17-C ) :   1.1356 B( 16-S , 20-C ) :   1.1524
B( 17-C , 18-C ) :   1.6502 B( 17-C , 33-H ) :   0.9654 B( 18-C , 19-C ) :   1.2028
B( 18-C , 21-H ) :   0.9988 B( 19-C , 20-C ) :   1.6096 B( 19-C , 22-C ) :   1.0320
B( 22-C , 23-H ) :   0.9333 B( 22-C , 24-H ) :   0.9439 B( 22-C , 25-C ) :   1.0635
B( 25-C , 26-H ) :   0.9626 B( 25-C , 27-H ) :   0.9569 B( 25-C , 28-C ) :   1.0683
B( 28-C , 29-H ) :   0.9798 B( 28-C , 30-H ) :   0.9783 B( 28-C , 31-H ) :   0.9794

Dispersion correction           -0.013795760
FINAL SINGLE POINT ENERGY     -1339.858990530511

DIPOLE MOMENT
-------------
                                X             Y             Z
Electronic contribution:     12.69250      -5.22737      28.26280
Nuclear contribution   :    -13.22428       5.21600     -28.81590
                        -----------------------------------------
Total Dipole Moment    :     -0.53178      -0.01137      -0.55310
                        -----------------------------------------
Magnitude (a.u.)       :      0.76736
Magnitude (Debye)      :      1.95046

Rotational constants in cm-1:     0.016208     0.009076     0.006798
Rotational constants in MHz :   485.907446   272.076865   203.786903

                             ****ORCA TERMINATED NORMALLY****
TOTAL RUN TIME: 0 days 0 hours 0 minutes 20 seconds 362 msec
