                         Program Version 4.2.1 -  RELEASE  -
|  1> ! wB97X-D3 SP def2-SVP
|  2> %pal
|  3> nprocs 24
|  4> end
|  5>
|  6> * xyz 0 1
|  7> S 	 -54.6704 	 14.4484 	 22.5376
|  8> C 	 -54.7806 	 13.6769 	 20.9675
|  9> C 	 -53.8778 	 12.5991 	 20.8526
| 10> C 	 -53.1774 	 12.4203 	 22.0651
| 11> C 	 -53.3566 	 13.3729 	 23.0313
| 12> H 	 -52.4075 	 11.642 	 22.2517
| 13> C 	 -53.6868 	 11.6667 	 19.6093
| 14> H 	 -54.1139 	 12.0708 	 18.6804
| 15> H 	 -54.2774 	 10.7541 	 19.8469
| 16> C 	 -52.2042 	 11.3398 	 19.328
| 17> H 	 -51.5797 	 12.23 	 19.331
| 18> H 	 -51.7758 	 10.7054 	 20.1298
| 19> C 	 -51.9791 	 10.446 	 18.1367
| 20> H 	 -50.897 	 10.3446 	 18.0276
| 21> H 	 -52.378 	 9.44825 	 18.1539
| 22> H 	 -52.3728 	 11.0525 	 17.3741
| 23> S 	 -53.4502 	 13.2053 	 25.7499
| 24> C 	 -51.9051 	 13.3218 	 26.6599
| 25> C 	 -50.8428 	 13.3931 	 25.8319
| 26> C 	 -51.1767 	 13.5763 	 24.4325
| 27> C 	 -52.5718 	 13.4775 	 24.2658
| 28> H 	 -49.9313 	 13.5145 	 26.3154
| 29> C 	 -50.0743 	 13.6954 	 23.3521
| 30> H 	 -50.1343 	 12.9715 	 22.4783
| 31> H 	 -49.0355 	 13.519 	 23.7771
| 32> C 	 -49.9974 	 15.1322 	 22.7683
| 33> H 	 -50.2241 	 15.8226 	 23.5216
| 34> H 	 -50.8024 	 15.1894 	 22.0644
| 35> C 	 -48.7186 	 15.4852 	 22.0622
| 36> H 	 -48.6545 	 14.795 	 21.1875
| 37> H 	 -47.8036 	 15.3431 	 22.6027
| 38> H 	 -48.756 	 16.4984 	 21.8016
| 39> H 	 -55.4047 	 13.9237 	 20.1717
| 40> H 	 -51.7939 	 13.1979 	 27.7334
| 41> *
| 42>
| 43>                          ****END OF INPUT****

CARTESIAN COORDINATES (ANGSTROEM)
---------------------------------
  S    -54.670400   14.448400   22.537600
  C    -54.780600   13.676900   20.967500
  C    -53.877800   12.599100   20.852600
  C    -53.177400   12.420300   22.065100
  C    -53.356600   13.372900   23.031300
  H    -52.407500   11.642000   22.251700
  C    -53.686800   11.666700   19.609300
  H    -54.113900   12.070800   18.680400
  H    -54.277400   10.754100   19.846900
  C    -52.204200   11.339800   19.328000
  H    -51.579700   12.230000   19.331000
  H    -51.775800   10.705400   20.129800
  C    -51.979100   10.446000   18.136700
  H    -50.897000   10.344600   18.027600
  H    -52.378000    9.448250   18.153900
  H    -52.372800   11.052500   17.374100
  S    -53.450200   13.205300   25.749900
  C    -51.905100   13.321800   26.659900
  C    -50.842800   13.393100   25.831900
  C    -51.176700   13.576300   24.432500
  C    -52.571800   13.477500   24.265800
  H    -49.931300   13.514500   26.315400
  C    -50.074300   13.695400   23.352100
  H    -50.134300   12.971500   22.478300
  H    -49.035500   13.519000   23.777100
  C    -49.997400   15.132200   22.768300
  H    -50.224100   15.822600   23.521600
  H    -50.802400   15.189400   22.064400
  C    -48.718600   15.485200   22.062200
  H    -48.654500   14.795000   21.187500
  H    -47.803600   15.343100   22.602700
  H    -48.756000   16.498400   21.801600
  H    -55.404700   13.923700   20.171700
  H    -51.793900   13.197900   27.733400

 Total Charge           Charge          ....    0
 Multiplicity           Mult            ....    1
 Number of Electrons    NEL             ....  134
 Basis Dimension        Dim             ....  322

ORBITAL ENERGIES
----------------

  NO   OCC          E(Eh)            E(eV)
   0   2.0000     -88.967754     -2420.9357
   1   2.0000     -88.965784     -2420.8821
   2   2.0000     -10.330846      -281.1166
   3   2.0000     -10.326629      -281.0019
   4   2.0000     -10.316852      -280.7358
   5   2.0000     -10.313333      -280.6400
   6   2.0000     -10.313186      -280.6361
   7   2.0000     -10.304687      -280.4048
   8   2.0000     -10.303189      -280.3640
   9   2.0000     -10.302692      -280.3505
  10   2.0000     -10.291418      -280.0437
  11   2.0000     -10.289204      -279.9835
  12   2.0000     -10.287449      -279.9357
  13   2.0000     -10.273248      -279.5493
  14   2.0000     -10.272433      -279.5271
  15   2.0000     -10.270920      -279.4859
  16   2.0000      -8.081833      -219.9178
  17   2.0000      -8.080045      -219.8692
  18   2.0000      -6.040399      -164.3676
  19   2.0000      -6.038632      -164.3195
  20   2.0000      -6.036372      -164.2580
  21   2.0000      -6.034726      -164.2133
  22   2.0000      -6.032628      -164.1561
  23   2.0000      -6.030638      -164.1020
  24   2.0000      -1.002249       -27.2726
  25   2.0000      -0.979773       -26.6610
  26   2.0000      -0.911785       -24.8109
  27   2.0000      -0.905896       -24.6507
  28   2.0000      -0.872289       -23.7362
  29   2.0000      -0.850104       -23.1325
  30   2.0000      -0.847203       -23.0536
  31   2.0000      -0.816797       -22.2262
  32   2.0000      -0.781805       -21.2740
  33   2.0000      -0.770128       -20.9562
  34   2.0000      -0.709082       -19.2951
  35   2.0000      -0.694568       -18.9001
  36   2.0000      -0.688539       -18.7361
  37   2.0000      -0.659082       -17.9345
  38   2.0000      -0.641185       -17.4475
  39   2.0000      -0.618832       -16.8393
  40   2.0000      -0.597452       -16.2575
  41   2.0000      -0.572735       -15.5849
  42   2.0000      -0.567021       -15.4294
  43   2.0000      -0.559909       -15.2359
  44   2.0000      -0.528376       -14.3778
  45   2.0000      -0.527271       -14.3478
  46   2.0000      -0.519559       -14.1379
  47   2.0000      -0.513555       -13.9745
  48   2.0000      -0.500287       -13.6135
  49   2.0000      -0.496820       -13.5191
  50   2.0000      -0.494891       -13.4667
  51   2.0000      -0.487409       -13.2631
  52   2.0000      -0.469682       -12.7807
  53   2.0000      -0.463416       -12.6102
  54   2.0000      -0.456987       -12.4353
  55   2.0000      -0.449932       -12.2433
  56   2.0000      -0.444382       -12.0922
  57   2.0000      -0.437264       -11.8986
  58   2.0000      -0.430447       -11.7131
  59   2.0000      -0.426783       -11.6134
  60   2.0000      -0.419879       -11.4255
  61   2.0000      -0.410978       -11.1833
  62   2.0000      -0.408378       -11.1125
  63   2.0000      -0.344691        -9.3795
  64   2.0000      -0.332104        -9.0370
  65   2.0000      -0.325433        -8.8555
  66   2.0000      -0.297825        -8.1042
  67   0.0000       0.033031         0.8988
  68   0.0000       0.064433         1.7533
  69   0.0000       0.106749         2.9048
  70   0.0000       0.121720         3.3122
  71   0.0000       0.133994         3.6462

MULLIKEN ATOMIC CHARGES
-----------------------
   0 S :    0.118002
   1 C :   -0.089975
   2 C :   -0.095057
   3 C :    0.025410
   4 C :   -0.166309
   5 H :    0.025960
   6 C :    0.073696
   7 H :    0.019760
   8 H :    0.049041
   9 C :   -0.129797
  10 H :    0.038104
  11 H :    0.025674
  12 C :   -0.007115
  13 H :    0.031279
  14 H :    0.037252
  15 H :    0.014565
  16 S :    0.102751
  17 C :   -0.094156
  18 C :   -0.010712
  19 C :   -0.001815
  20 C :   -0.172152
  21 H :    0.001137
  22 C :    0.022192
  23 H :    0.040963
  24 H :    0.023361
  25 C :   -0.066351
  26 H :    0.018070
  27 H :    0.030546
  28 C :   -0.017056
  29 H :    0.025358
  30 H :    0.021454
  31 H :    0.028445
  32 H :    0.020284
  33 H :    0.057190
Sum of atomic charges:   -0.0000000

LOEWDIN ATOMIC CHARGES
----------------------
   0 S :    0.400467
   1 C :   -0.189140
   2 C :   -0.062918
   3 C :   -0.065158
   4 C :   -0.201805
   5 H :    0.036152
   6 C :   -0.029497
   7 H :    0.026985
   8 H :    0.039823
   9 C :   -0.048034
  10 H :    0.026034
  11 H :    0.022613
  12 C :   -0.057488
  13 H :    0.030676
  14 H :    0.025454
  15 H :    0.016652
  16 S :    0.388447
  17 C :   -0.167788
  18 C :   -0.063401
  19 C :   -0.048134
  20 C :   -0.195786
  21 H :    0.023873
  22 C :   -0.035692
  23 H :    0.033558
  24 H :    0.031808
  25 C :   -0.037711
  26 H :    0.015354
  27 H :    0.024615
  28 C :   -0.059069
  29 H :    0.029527
  30 H :    0.019072
  31 H :    0.023014
  32 H :    0.016057
  33 H :    0.031441

  Mayer bond orders larger than 0.100000
B(  0-S ,  1-C ) :   1.1464 B(  0-S ,  4-C ) :   1.1370 B(  1-C ,  2-C ) :   1.6008
B(  1-C ,  4-C ) :   0.1041 B(  1-C , 32-H ) :   0.9751 B(  2-C ,  3-C ) :   1.2528
B(  2-C ,  6-C ) :   1.0122 B(  3-C ,  4-C ) :   1.5912 B(  3-C ,  5-H ) :   0.9837
B(  4-C , 20-C ) :   1.0224 B(  6-C ,  7-H ) :   0.9477 B(  6-C ,  8-H ) :   0.9383
B(  6-C ,  9-C ) :   1.0610 B(  9-C , 10-H ) :   0.9603 B(  9-C , 11-H ) :   0.9483
B(  9-C , 12-C ) :   1.0866 B( 12-C , 13-H ) :   0.9713 B( 12-C , 14-H ) :   0.9746
B( 12-C , 15-H ) :   0.9745 B( 16-S , 17-C ) :   1.1203 B( 16-S , 20-C ) :   1.1542
B( 17-C , 18-C ) :   1.6752 B( 17-C , 33-H ) :   0.9634 B( 18-C , 19-C ) :   1.2066
B( 18-C , 21-H ) :   0.9888 B( 19-C , 20-C ) :   1.6058 B( 19-C , 22-C ) :   1.0371
B( 22-C , 23-H ) :   0.9382 B( 22-C , 24-H ) :   0.9476 B( 22-C , 25-C ) :   1.0496
B( 25-C , 26-H ) :   0.9581 B( 25-C , 27-H ) :   0.9522 B( 25-C , 28-C ) :   1.0962
B( 28-C , 29-H ) :   0.9712 B( 28-C , 30-H ) :   0.9743 B( 28-C , 31-H ) :   0.9715

Dispersion correction           -0.014238322
FINAL SINGLE POINT ENERGY     -1339.868013569465

DIPOLE MOMENT
-------------
                                X             Y             Z
Electronic contribution:    -20.57946       5.48432      22.50419
Nuclear contribution   :     21.16738      -5.75564     -22.87492
                        -----------------------------------------
Total Dipole Moment    :      0.58792      -0.27132      -0.37072
                        -----------------------------------------
Magnitude (a.u.)       :      0.74612
Magnitude (Debye)      :      1.89649

Rotational constants in cm-1:     0.016128     0.009088     0.007205
Rotational constants in MHz :   483.498535   272.445115   215.993132

                             ****ORCA TERMINATED NORMALLY****
TOTAL RUN TIME: 0 days 0 hours 0 minutes 21 seconds 737 msec
