                         Program Version 4.2.1 -  RELEASE  -
|  1> ! wB97X-D3 SP def2-SVP
|  2> %pal
|  3> nprocs 24
|  4> end
|  5>
|  6> * xyz 0 1
|  7> S 	 -124.16 	 54.9079 	 -32.7719
|  8> C 	 -122.652 	 55.3598 	 -32.0375
|  9> C 	 -122.111 	 56.494 	 -32.6467
| 10> C 	 -123.083 	 57.0525 	 -33.6178
| 11> C 	 -124.293 	 56.362 	 -33.7184
| 12> H 	 -123.034 	 57.8865 	 -34.2781
| 13> C 	 -120.768 	 57.069 	 -32.3797
| 14> H 	 -120.339 	 56.5358 	 -31.4452
| 15> H 	 -121.066 	 58.1145 	 -32.1221
| 16> C 	 -119.845 	 56.9464 	 -33.6421
| 17> H 	 -120.243 	 57.3767 	 -34.5563
| 18> H 	 -118.858 	 57.3391 	 -33.4702
| 19> C 	 -119.564 	 55.4637 	 -33.7073
| 20> H 	 -118.659 	 55.2895 	 -34.223
| 21> H 	 -119.428 	 55.0459 	 -32.7371
| 22> H 	 -120.289 	 55.018 	 -34.3361
| 23> S 	 -126.01 	 55.4299 	 -35.6745
| 24> C 	 -127.279 	 56.4356 	 -36.3762
| 25> C 	 -127.151 	 57.7059 	 -35.8985
| 26> C 	 -126.1 	 57.8722 	 -34.9546
| 27> C 	 -125.41 	 56.7036 	 -34.6666
| 28> H 	 -127.809 	 58.4556 	 -36.3723
| 29> C 	 -126.065 	 59.2006 	 -34.1011
| 30> H 	 -125.715 	 58.9068 	 -33.0707
| 31> H 	 -127.053 	 59.5162 	 -33.904
| 32> C 	 -125.175 	 60.2578 	 -34.6991
| 33> H 	 -125.087 	 60.2491 	 -35.7614
| 34> H 	 -124.202 	 60.0642 	 -34.3822
| 35> C 	 -125.592 	 61.6382 	 -34.2663
| 36> H 	 -124.751 	 62.3252 	 -34.2347
| 37> H 	 -125.78 	 61.6177 	 -33.1835
| 38> H 	 -126.329 	 62.05 	 -34.9578
| 39> H 	 -122.24 	 54.8621 	 -31.2409
| 40> H 	 -127.99 	 56.0881 	 -37.098
| 41> *
| 42>
| 43>                          ****END OF INPUT****

CARTESIAN COORDINATES (ANGSTROEM)
---------------------------------
  S    -124.160000   54.907900  -32.771900
  C    -122.652000   55.359800  -32.037500
  C    -122.111000   56.494000  -32.646700
  C    -123.083000   57.052500  -33.617800
  C    -124.293000   56.362000  -33.718400
  H    -123.034000   57.886500  -34.278100
  C    -120.768000   57.069000  -32.379700
  H    -120.339000   56.535800  -31.445200
  H    -121.066000   58.114500  -32.122100
  C    -119.845000   56.946400  -33.642100
  H    -120.243000   57.376700  -34.556300
  H    -118.858000   57.339100  -33.470200
  C    -119.564000   55.463700  -33.707300
  H    -118.659000   55.289500  -34.223000
  H    -119.428000   55.045900  -32.737100
  H    -120.289000   55.018000  -34.336100
  S    -126.010000   55.429900  -35.674500
  C    -127.279000   56.435600  -36.376200
  C    -127.151000   57.705900  -35.898500
  C    -126.100000   57.872200  -34.954600
  C    -125.410000   56.703600  -34.666600
  H    -127.809000   58.455600  -36.372300
  C    -126.065000   59.200600  -34.101100
  H    -125.715000   58.906800  -33.070700
  H    -127.053000   59.516200  -33.904000
  C    -125.175000   60.257800  -34.699100
  H    -125.087000   60.249100  -35.761400
  H    -124.202000   60.064200  -34.382200
  C    -125.592000   61.638200  -34.266300
  H    -124.751000   62.325200  -34.234700
  H    -125.780000   61.617700  -33.183500
  H    -126.329000   62.050000  -34.957800
  H    -122.240000   54.862100  -31.240900
  H    -127.990000   56.088100  -37.098000

 Total Charge           Charge          ....    0
 Multiplicity           Mult            ....    1
 Number of Electrons    NEL             ....  134
 Basis Dimension        Dim             ....  322

ORBITAL ENERGIES
----------------

  NO   OCC          E(Eh)            E(eV)
   0   2.0000     -88.964223     -2420.8396
   1   2.0000     -88.961914     -2420.7768
   2   2.0000     -10.335272      -281.2370
   3   2.0000     -10.332871      -281.1717
   4   2.0000     -10.315533      -280.6999
   5   2.0000     -10.310862      -280.5728
   6   2.0000     -10.308617      -280.5117
   7   2.0000     -10.305241      -280.4199
   8   2.0000     -10.303699      -280.3779
   9   2.0000     -10.297896      -280.2200
  10   2.0000     -10.294040      -280.1151
  11   2.0000     -10.290067      -280.0070
  12   2.0000     -10.287069      -279.9254
  13   2.0000     -10.274830      -279.5923
  14   2.0000     -10.272276      -279.5228
  15   2.0000     -10.261923      -279.2411
  16   2.0000      -8.079274      -219.8482
  17   2.0000      -8.077042      -219.7875
  18   2.0000      -6.037893      -164.2994
  19   2.0000      -6.035536      -164.2353
  20   2.0000      -6.033622      -164.1832
  21   2.0000      -6.031402      -164.1228
  22   2.0000      -6.030001      -164.0847
  23   2.0000      -6.027877      -164.0269
  24   2.0000      -1.005139       -27.3512
  25   2.0000      -0.985017       -26.8037
  26   2.0000      -0.918484       -24.9932
  27   2.0000      -0.912058       -24.8184
  28   2.0000      -0.870290       -23.6818
  29   2.0000      -0.849140       -23.1063
  30   2.0000      -0.844696       -22.9853
  31   2.0000      -0.818901       -22.2834
  32   2.0000      -0.776579       -21.1318
  33   2.0000      -0.771141       -20.9838
  34   2.0000      -0.708796       -19.2873
  35   2.0000      -0.702618       -19.1192
  36   2.0000      -0.694835       -18.9074
  37   2.0000      -0.659741       -17.9525
  38   2.0000      -0.647018       -17.6063
  39   2.0000      -0.616635       -16.7795
  40   2.0000      -0.596096       -16.2206
  41   2.0000      -0.572916       -15.5898
  42   2.0000      -0.567714       -15.4483
  43   2.0000      -0.560860       -15.2618
  44   2.0000      -0.545310       -14.8386
  45   2.0000      -0.529184       -14.3998
  46   2.0000      -0.522069       -14.2062
  47   2.0000      -0.512543       -13.9470
  48   2.0000      -0.508174       -13.8281
  49   2.0000      -0.502045       -13.6613
  50   2.0000      -0.486059       -13.2263
  51   2.0000      -0.478634       -13.0243
  52   2.0000      -0.470874       -12.8131
  53   2.0000      -0.467217       -12.7136
  54   2.0000      -0.460847       -12.5403
  55   2.0000      -0.447127       -12.1669
  56   2.0000      -0.441532       -12.0147
  57   2.0000      -0.433108       -11.7855
  58   2.0000      -0.430634       -11.7182
  59   2.0000      -0.426604       -11.6085
  60   2.0000      -0.416970       -11.3463
  61   2.0000      -0.411169       -11.1885
  62   2.0000      -0.406181       -11.0527
  63   2.0000      -0.351722        -9.5708
  64   2.0000      -0.330194        -8.9850
  65   2.0000      -0.321951        -8.7607
  66   2.0000      -0.296213        -8.0604
  67   0.0000       0.031953         0.8695
  68   0.0000       0.073538         2.0011
  69   0.0000       0.112572         3.0632
  70   0.0000       0.126226         3.4348
  71   0.0000       0.131877         3.5886

MULLIKEN ATOMIC CHARGES
-----------------------
   0 S :    0.106958
   1 C :   -0.082378
   2 C :   -0.090877
   3 C :    0.028453
   4 C :   -0.141380
   5 H :   -0.001410
   6 C :    0.013955
   7 H :    0.043503
   8 H :    0.043773
   9 C :   -0.055577
  10 H :    0.042085
  11 H :    0.027529
  12 C :   -0.008433
  13 H :    0.007658
  14 H :    0.019365
  15 H :    0.036804
  16 S :    0.089579
  17 C :   -0.096015
  18 C :   -0.039983
  19 C :   -0.036432
  20 C :   -0.151472
  21 H :    0.033598
  22 C :    0.041921
  23 H :    0.036349
  24 H :    0.019110
  25 C :   -0.027346
  26 H :    0.020880
  27 H :    0.002779
  28 C :   -0.043889
  29 H :    0.014718
  30 H :    0.026734
  31 H :    0.047422
  32 H :    0.017529
  33 H :    0.054488
Sum of atomic charges:    0.0000000

LOEWDIN ATOMIC CHARGES
----------------------
   0 S :    0.410084
   1 C :   -0.188102
   2 C :   -0.057640
   3 C :   -0.063306
   4 C :   -0.198349
   5 H :    0.022606
   6 C :   -0.038692
   7 H :    0.039890
   8 H :    0.034303
   9 C :   -0.032742
  10 H :    0.027346
  11 H :    0.022505
  12 C :   -0.053446
  13 H :    0.017971
  14 H :    0.020873
  15 H :    0.025021
  16 S :    0.401170
  17 C :   -0.176718
  18 C :   -0.076481
  19 C :   -0.063155
  20 C :   -0.198226
  21 H :    0.039534
  22 C :   -0.021603
  23 H :    0.037672
  24 H :    0.021078
  25 C :   -0.043206
  26 H :    0.020911
  27 H :    0.014828
  28 C :   -0.066495
  29 H :    0.024279
  30 H :    0.029349
  31 H :    0.029386
  32 H :    0.011308
  33 H :    0.028048

  Mayer bond orders larger than 0.100000
B(  0-S ,  1-C ) :   1.1407 B(  0-S ,  4-C ) :   1.1515 B(  1-C ,  2-C ) :   1.5963
B(  1-C , 32-H ) :   0.9829 B(  2-C ,  3-C ) :   1.2044 B(  2-C ,  6-C ) :   1.0125
B(  3-C ,  4-C ) :   1.5865 B(  3-C ,  5-H ) :   0.9961 B(  4-C , 20-C ) :   1.0167
B(  6-C ,  7-H ) :   0.9514 B(  6-C ,  8-H ) :   0.9367 B(  6-C ,  9-C ) :   1.0634
B(  9-C , 10-H ) :   0.9603 B(  9-C , 11-H ) :   0.9630 B(  9-C , 12-C ) :   1.0649
B( 12-C , 13-H ) :   0.9715 B( 12-C , 14-H ) :   0.9756 B( 12-C , 15-H ) :   0.9734
B( 16-S , 17-C ) :   1.1461 B( 16-S , 20-C ) :   1.1524 B( 17-C , 18-C ) :   1.6198
B( 17-C , 33-H ) :   0.9726 B( 18-C , 19-C ) :   1.2371 B( 18-C , 21-H ) :   0.9871
B( 19-C , 20-C ) :   1.6090 B( 19-C , 22-C ) :   1.0190 B( 22-C , 23-H ) :   0.9375
B( 22-C , 24-H ) :   0.9615 B( 22-C , 25-C ) :   1.0428 B( 25-C , 26-H ) :   0.9637
B( 25-C , 27-H ) :   0.9431 B( 25-C , 28-C ) :   1.0960 B( 28-C , 29-H ) :   0.9698
B( 28-C , 30-H ) :   0.9674 B( 28-C , 31-H ) :   0.9777

Dispersion correction           -0.014329218
FINAL SINGLE POINT ENERGY     -1339.853602763521

DIPOLE MOMENT
-------------
                                X             Y             Z
Electronic contribution:    -15.08889     -20.19866      -2.14858
Nuclear contribution   :     15.42916      20.75395       2.09461
                        -----------------------------------------
Total Dipole Moment    :      0.34028       0.55529      -0.05397
                        -----------------------------------------
Magnitude (a.u.)       :      0.65349
Magnitude (Debye)      :      1.66104

Rotational constants in cm-1:     0.017734     0.008850     0.006787
Rotational constants in MHz :   531.655289   265.303693   203.477315

                             ****ORCA TERMINATED NORMALLY****
TOTAL RUN TIME: 0 days 0 hours 0 minutes 21 seconds 597 msec
