                         Program Version 4.2.1 -  RELEASE  -
|  1> ! wB97X-D3 SP def2-SVP
|  2> %pal
|  3> nprocs 24
|  4> end
|  5>
|  6> * xyz 0 1
|  7> S 	 -83.2543 	 -6.72111 	 -58.4595
|  8> C 	 -83.9276 	 -7.63585 	 -57.2432
|  9> C 	 -82.9224 	 -8.13881 	 -56.4573
| 10> C 	 -81.5795 	 -7.67353 	 -56.7578
| 11> C 	 -81.623 	 -6.83049 	 -57.8491
| 12> H 	 -80.6692 	 -7.9034 	 -56.18
| 13> C 	 -83.1701 	 -9.06572 	 -55.3227
| 14> H 	 -84.1447 	 -8.86584 	 -54.9788
| 15> H 	 -82.5005 	 -8.76737 	 -54.4859
| 16> C 	 -82.8902 	 -10.5793 	 -55.5281
| 17> H 	 -83.177 	 -10.9773 	 -56.5596
| 18> H 	 -81.8188 	 -10.8753 	 -55.436
| 19> C 	 -83.6917 	 -11.4737 	 -54.5686
| 20> H 	 -83.7537 	 -11.0722 	 -53.5323
| 21> H 	 -84.7655 	 -11.3968 	 -54.8847
| 22> H 	 -83.4452 	 -12.4893 	 -54.6033
| 23> S 	 -79.4846 	 -5.30835 	 -57.386
| 24> C 	 -78.455 	 -4.78018 	 -58.7058
| 25> C 	 -79.1029 	 -4.88696 	 -59.8854
| 26> C 	 -80.2226 	 -5.76603 	 -59.8029
| 27> C 	 -80.5037 	 -6.13063 	 -58.4718
| 28> H 	 -78.6813 	 -4.4093 	 -60.7497
| 29> C 	 -81.0389 	 -6.15766 	 -61.0219
| 30> H 	 -81.8073 	 -6.95913 	 -60.9086
| 31> H 	 -80.3533 	 -6.7579 	 -61.6387
| 32> C 	 -81.6114 	 -5.06734 	 -61.8882
| 33> H 	 -80.9533 	 -4.30395 	 -62.2736
| 34> H 	 -82.4069 	 -4.38466 	 -61.357
| 35> C 	 -82.3354 	 -5.608 	 -63.093
| 36> H 	 -83.0236 	 -6.42185 	 -62.9626
| 37> H 	 -81.6279 	 -5.99524 	 -63.7525
| 38> H 	 -82.902 	 -4.79952 	 -63.5794
| 39> H 	 -84.8664 	 -7.93721 	 -57.1199
| 40> H 	 -77.5962 	 -4.09448 	 -58.5854
| 41> *
| 42>
| 43>                          ****END OF INPUT****

CARTESIAN COORDINATES (ANGSTROEM)
---------------------------------
  S    -83.254300   -6.721110  -58.459500
  C    -83.927600   -7.635850  -57.243200
  C    -82.922400   -8.138810  -56.457300
  C    -81.579500   -7.673530  -56.757800
  C    -81.623000   -6.830490  -57.849100
  H    -80.669200   -7.903400  -56.180000
  C    -83.170100   -9.065720  -55.322700
  H    -84.144700   -8.865840  -54.978800
  H    -82.500500   -8.767370  -54.485900
  C    -82.890200  -10.579300  -55.528100
  H    -83.177000  -10.977300  -56.559600
  H    -81.818800  -10.875300  -55.436000
  C    -83.691700  -11.473700  -54.568600
  H    -83.753700  -11.072200  -53.532300
  H    -84.765500  -11.396800  -54.884700
  H    -83.445200  -12.489300  -54.603300
  S    -79.484600   -5.308350  -57.386000
  C    -78.455000   -4.780180  -58.705800
  C    -79.102900   -4.886960  -59.885400
  C    -80.222600   -5.766030  -59.802900
  C    -80.503700   -6.130630  -58.471800
  H    -78.681300   -4.409300  -60.749700
  C    -81.038900   -6.157660  -61.021900
  H    -81.807300   -6.959130  -60.908600
  H    -80.353300   -6.757900  -61.638700
  C    -81.611400   -5.067340  -61.888200
  H    -80.953300   -4.303950  -62.273600
  H    -82.406900   -4.384660  -61.357000
  C    -82.335400   -5.608000  -63.093000
  H    -83.023600   -6.421850  -62.962600
  H    -81.627900   -5.995240  -63.752500
  H    -82.902000   -4.799520  -63.579400
  H    -84.866400   -7.937210  -57.119900
  H    -77.596200   -4.094480  -58.585400

 Total Charge           Charge          ....    0
 Multiplicity           Mult            ....    1
 Number of Electrons    NEL             ....  134
 Basis Dimension        Dim             ....  322

ORBITAL ENERGIES
----------------

  NO   OCC          E(Eh)            E(eV)
   0   2.0000     -88.964372     -2420.8436
   1   2.0000     -88.963954     -2420.8323
   2   2.0000     -10.329118      -281.0696
   3   2.0000     -10.324556      -280.9455
   4   2.0000     -10.313374      -280.6412
   5   2.0000     -10.305363      -280.4232
   6   2.0000     -10.298525      -280.2371
   7   2.0000     -10.296565      -280.1838
   8   2.0000     -10.295173      -280.1459
   9   2.0000     -10.293698      -280.1058
  10   2.0000     -10.293422      -280.0983
  11   2.0000     -10.291376      -280.0426
  12   2.0000     -10.288663      -279.9687
  13   2.0000     -10.287170      -279.9281
  14   2.0000     -10.277473      -279.6643
  15   2.0000     -10.267582      -279.3951
  16   2.0000      -8.080322      -219.8767
  17   2.0000      -8.079581      -219.8566
  18   2.0000      -6.038780      -164.3235
  19   2.0000      -6.037968      -164.3015
  20   2.0000      -6.034504      -164.2072
  21   2.0000      -6.034124      -164.1969
  22   2.0000      -6.031194      -164.1171
  23   2.0000      -6.030241      -164.0912
  24   2.0000      -1.015764       -27.6403
  25   2.0000      -0.994631       -27.0653
  26   2.0000      -0.912434       -24.8286
  27   2.0000      -0.908484       -24.7211
  28   2.0000      -0.879031       -23.9196
  29   2.0000      -0.854062       -23.2402
  30   2.0000      -0.847681       -23.0666
  31   2.0000      -0.823061       -22.3966
  32   2.0000      -0.780905       -21.2495
  33   2.0000      -0.768048       -20.8996
  34   2.0000      -0.709020       -19.2934
  35   2.0000      -0.698064       -18.9953
  36   2.0000      -0.693778       -18.8787
  37   2.0000      -0.664028       -18.0691
  38   2.0000      -0.642253       -17.4766
  39   2.0000      -0.619463       -16.8565
  40   2.0000      -0.602942       -16.4069
  41   2.0000      -0.576255       -15.6807
  42   2.0000      -0.557725       -15.1765
  43   2.0000      -0.552983       -15.0474
  44   2.0000      -0.532478       -14.4895
  45   2.0000      -0.532086       -14.4788
  46   2.0000      -0.520639       -14.1673
  47   2.0000      -0.516104       -14.0439
  48   2.0000      -0.511102       -13.9078
  49   2.0000      -0.496717       -13.5164
  50   2.0000      -0.491560       -13.3760
  51   2.0000      -0.479958       -13.0603
  52   2.0000      -0.468952       -12.7608
  53   2.0000      -0.466082       -12.6827
  54   2.0000      -0.460927       -12.5425
  55   2.0000      -0.452364       -12.3094
  56   2.0000      -0.446229       -12.1425
  57   2.0000      -0.443180       -12.0595
  58   2.0000      -0.433150       -11.7866
  59   2.0000      -0.425376       -11.5751
  60   2.0000      -0.417851       -11.3703
  61   2.0000      -0.404965       -11.0197
  62   2.0000      -0.399543       -10.8721
  63   2.0000      -0.357569        -9.7299
  64   2.0000      -0.330910        -9.0045
  65   2.0000      -0.323272        -8.7967
  66   2.0000      -0.289439        -7.8760
  67   0.0000       0.029596         0.8053
  68   0.0000       0.079754         2.1702
  69   0.0000       0.112654         3.0655
  70   0.0000       0.119190         3.2433
  71   0.0000       0.130995         3.5646

MULLIKEN ATOMIC CHARGES
-----------------------
   0 S :    0.123286
   1 C :   -0.031637
   2 C :   -0.121214
   3 C :    0.011281
   4 C :   -0.133029
   5 H :    0.032456
   6 C :    0.080871
   7 H :    0.001291
   8 H :    0.029205
   9 C :   -0.085039
  10 H :    0.034647
  11 H :    0.034999
  12 C :   -0.061036
  13 H :    0.031653
  14 H :    0.024905
  15 H :    0.031931
  16 S :    0.105165
  17 C :   -0.096678
  18 C :   -0.034818
  19 C :   -0.011681
  20 C :   -0.129480
  21 H :    0.019411
  22 C :    0.040032
  23 H :    0.023863
  24 H :    0.021692
  25 C :   -0.088439
  26 H :    0.024792
  27 H :    0.035747
  28 C :   -0.028552
  29 H :    0.021690
  30 H :    0.009424
  31 H :    0.034184
  32 H :   -0.014580
  33 H :    0.063657
Sum of atomic charges:   -0.0000000

LOEWDIN ATOMIC CHARGES
----------------------
   0 S :    0.453689
   1 C :   -0.205657
   2 C :   -0.061970
   3 C :   -0.066195
   4 C :   -0.195673
   5 H :    0.038463
   6 C :   -0.035038
   7 H :    0.021461
   8 H :    0.038115
   9 C :   -0.046180
  10 H :    0.028306
  11 H :    0.024645
  12 C :   -0.069360
  13 H :    0.025544
  14 H :    0.027120
  15 H :    0.017687
  16 S :    0.428128
  17 C :   -0.190390
  18 C :   -0.063093
  19 C :   -0.059659
  20 C :   -0.208374
  21 H :    0.032424
  22 C :   -0.049331
  23 H :    0.030051
  24 H :    0.035134
  25 C :   -0.047799
  26 H :    0.021142
  27 H :    0.031739
  28 C :   -0.061362
  29 H :    0.021251
  30 H :    0.014402
  31 H :    0.031395
  32 H :    0.005150
  33 H :    0.034235

  Mayer bond orders larger than 0.100000
B(  0-S ,  1-C ) :   1.1444 B(  0-S ,  4-C ) :   1.1652 B(  1-C ,  2-C ) :   1.5937
B(  1-C , 32-H ) :   0.9850 B(  2-C ,  3-C ) :   1.2374 B(  2-C ,  6-C ) :   1.0485
B(  3-C ,  4-C ) :   1.5376 B(  3-C ,  5-H ) :   0.9940 B(  4-C , 20-C ) :   1.0387
B(  6-C ,  7-H ) :   0.9460 B(  6-C ,  8-H ) :   0.9309 B(  6-C ,  9-C ) :   1.0388
B(  9-C , 10-H ) :   0.9633 B(  9-C , 11-H ) :   0.9578 B(  9-C , 12-C ) :   1.0758
B( 12-C , 13-H ) :   0.9748 B( 12-C , 14-H ) :   0.9765 B( 12-C , 15-H ) :   0.9757
B( 16-S , 17-C ) :   1.1453 B( 16-S , 20-C ) :   1.1689 B( 17-C , 18-C ) :   1.6258
B( 17-C , 33-H ) :   0.9622 B( 18-C , 19-C ) :   1.2394 B( 18-C , 21-H ) :   0.9916
B( 19-C , 20-C ) :   1.5648 B( 19-C , 22-C ) :   1.0338 B( 22-C , 23-H ) :   0.9388
B( 22-C , 24-H ) :   0.9254 B( 22-C , 25-C ) :   1.0593 B( 25-C , 26-H ) :   0.9506
B( 25-C , 27-H ) :   0.9551 B( 25-C , 28-C ) :   1.0858 B( 28-C , 29-H ) :   0.9736
B( 28-C , 30-H ) :   0.9726 B( 28-C , 31-H ) :   0.9726

Dispersion correction           -0.013579418
FINAL SINGLE POINT ENERGY     -1339.861509943399

DIPOLE MOMENT
-------------
                                X             Y             Z
Electronic contribution:      8.85762      13.51834       4.80973
Nuclear contribution   :     -8.89940     -13.65721      -4.97337
                        -----------------------------------------
Total Dipole Moment    :     -0.04177      -0.13887      -0.16363
                        -----------------------------------------
Magnitude (a.u.)       :      0.21864
Magnitude (Debye)      :      0.55575

Rotational constants in cm-1:     0.021945     0.007408     0.005982
Rotational constants in MHz :   657.894590   222.078146   179.345610

                             ****ORCA TERMINATED NORMALLY****
TOTAL RUN TIME: 0 days 0 hours 0 minutes 20 seconds 760 msec
