                         Program Version 4.2.1 -  RELEASE  -
|  1> ! wB97X-D3 SP def2-SVP
|  2> %pal
|  3> nprocs 24
|  4> end
|  5>
|  6> * xyz 0 1
|  7> S 	 -69.8718 	 9.6017 	 -70.4616
|  8> C 	 -70.1635 	 9.07163 	 -68.9006
|  9> C 	 -69.7672 	 7.75551 	 -68.7361
| 10> C 	 -69.1339 	 7.19722 	 -69.8538
| 11> C 	 -68.9197 	 8.17347 	 -70.8688
| 12> H 	 -68.8144 	 6.20019 	 -69.8545
| 13> C 	 -69.7929 	 6.974 	 -67.4563
| 14> H 	 -70.2195 	 7.58244 	 -66.6644
| 15> H 	 -68.7014 	 6.89834 	 -67.1618
| 16> C 	 -70.4551 	 5.61375 	 -67.3629
| 17> H 	 -69.7955 	 4.87387 	 -67.7686
| 18> H 	 -70.411 	 5.30477 	 -66.3145
| 19> C 	 -71.9522 	 5.53093 	 -67.968
| 20> H 	 -72.1251 	 6.11566 	 -68.8746
| 21> H 	 -72.1639 	 4.49086 	 -68.3367
| 22> H 	 -72.678 	 5.83893 	 -67.2652
| 23> S 	 -68.6988 	 8.98042 	 -73.3981
| 24> C 	 -67.5171 	 8.31382 	 -74.4057
| 25> C 	 -66.7696 	 7.32497 	 -73.7744
| 26> C 	 -67.0145 	 7.29482 	 -72.4029
| 27> C 	 -68.1703 	 8.00895 	 -72.0965
| 28> H 	 -65.9774 	 6.85827 	 -74.3536
| 29> C 	 -66.2074 	 6.37469 	 -71.5207
| 30> H 	 -66.4752 	 6.6282 	 -70.5206
| 31> H 	 -65.1458 	 6.47553 	 -71.524
| 32> C 	 -66.6645 	 4.93998 	 -71.7433
| 33> H 	 -66.5224 	 4.63444 	 -72.7804
| 34> H 	 -67.7527 	 4.88184 	 -71.574
| 35> C 	 -65.8741 	 4.00013 	 -70.8865
| 36> H 	 -64.828 	 3.9304 	 -71.1181
| 37> H 	 -66.2376 	 2.99358 	 -71.0737
| 38> H 	 -65.9698 	 4.15131 	 -69.7932
| 39> H 	 -70.6299 	 9.72322 	 -68.1834
| 40> H 	 -67.4802 	 8.43336 	 -75.4793
| 41> *
| 42>
| 43>                          ****END OF INPUT****

CARTESIAN COORDINATES (ANGSTROEM)
---------------------------------
  S    -69.871800    9.601700  -70.461600
  C    -70.163500    9.071630  -68.900600
  C    -69.767200    7.755510  -68.736100
  C    -69.133900    7.197220  -69.853800
  C    -68.919700    8.173470  -70.868800
  H    -68.814400    6.200190  -69.854500
  C    -69.792900    6.974000  -67.456300
  H    -70.219500    7.582440  -66.664400
  H    -68.701400    6.898340  -67.161800
  C    -70.455100    5.613750  -67.362900
  H    -69.795500    4.873870  -67.768600
  H    -70.411000    5.304770  -66.314500
  C    -71.952200    5.530930  -67.968000
  H    -72.125100    6.115660  -68.874600
  H    -72.163900    4.490860  -68.336700
  H    -72.678000    5.838930  -67.265200
  S    -68.698800    8.980420  -73.398100
  C    -67.517100    8.313820  -74.405700
  C    -66.769600    7.324970  -73.774400
  C    -67.014500    7.294820  -72.402900
  C    -68.170300    8.008950  -72.096500
  H    -65.977400    6.858270  -74.353600
  C    -66.207400    6.374690  -71.520700
  H    -66.475200    6.628200  -70.520600
  H    -65.145800    6.475530  -71.524000
  C    -66.664500    4.939980  -71.743300
  H    -66.522400    4.634440  -72.780400
  H    -67.752700    4.881840  -71.574000
  C    -65.874100    4.000130  -70.886500
  H    -64.828000    3.930400  -71.118100
  H    -66.237600    2.993580  -71.073700
  H    -65.969800    4.151310  -69.793200
  H    -70.629900    9.723220  -68.183400
  H    -67.480200    8.433360  -75.479300

 Total Charge           Charge          ....    0
 Multiplicity           Mult            ....    1
 Number of Electrons    NEL             ....  134
 Basis Dimension        Dim             ....  322

ORBITAL ENERGIES
----------------

  NO   OCC          E(Eh)            E(eV)
   0   2.0000     -88.966295     -2420.8960
   1   2.0000     -88.965093     -2420.8632
   2   2.0000     -10.332195      -281.1533
   3   2.0000     -10.322015      -280.8763
   4   2.0000     -10.309050      -280.5235
   5   2.0000     -10.306149      -280.4446
   6   2.0000     -10.299276      -280.2576
   7   2.0000     -10.293259      -280.0938
   8   2.0000     -10.290744      -280.0254
   9   2.0000     -10.289332      -279.9870
  10   2.0000     -10.288373      -279.9608
  11   2.0000     -10.288060      -279.9523
  12   2.0000     -10.285384      -279.8795
  13   2.0000     -10.283109      -279.8176
  14   2.0000     -10.281350      -279.7698
  15   2.0000     -10.275461      -279.6095
  16   2.0000      -8.082996      -219.9495
  17   2.0000      -8.081035      -219.8962
  18   2.0000      -6.041237      -164.3904
  19   2.0000      -6.039395      -164.3403
  20   2.0000      -6.037240      -164.2816
  21   2.0000      -6.035370      -164.2308
  22   2.0000      -6.033932      -164.1916
  23   2.0000      -6.031906      -164.1365
  24   2.0000      -1.017529       -27.6884
  25   2.0000      -0.994402       -27.0590
  26   2.0000      -0.920464       -25.0471
  27   2.0000      -0.907186       -24.6858
  28   2.0000      -0.870259       -23.6809
  29   2.0000      -0.859601       -23.3909
  30   2.0000      -0.845577       -23.0093
  31   2.0000      -0.810109       -22.0442
  32   2.0000      -0.785273       -21.3684
  33   2.0000      -0.773280       -21.0420
  34   2.0000      -0.711179       -19.3522
  35   2.0000      -0.701629       -19.0923
  36   2.0000      -0.696649       -18.9568
  37   2.0000      -0.665385       -18.1060
  38   2.0000      -0.641305       -17.4508
  39   2.0000      -0.625893       -17.0314
  40   2.0000      -0.602205       -16.3868
  41   2.0000      -0.570030       -15.5113
  42   2.0000      -0.558282       -15.1916
  43   2.0000      -0.548084       -14.9141
  44   2.0000      -0.535168       -14.5627
  45   2.0000      -0.528710       -14.3869
  46   2.0000      -0.514615       -14.0034
  47   2.0000      -0.513325       -13.9683
  48   2.0000      -0.507551       -13.8112
  49   2.0000      -0.501800       -13.6547
  50   2.0000      -0.494469       -13.4552
  51   2.0000      -0.483948       -13.1689
  52   2.0000      -0.472006       -12.8439
  53   2.0000      -0.467336       -12.7169
  54   2.0000      -0.462278       -12.5792
  55   2.0000      -0.453153       -12.3309
  56   2.0000      -0.445892       -12.1333
  57   2.0000      -0.440298       -11.9811
  58   2.0000      -0.430973       -11.7274
  59   2.0000      -0.424938       -11.5631
  60   2.0000      -0.418975       -11.4009
  61   2.0000      -0.418372       -11.3845
  62   2.0000      -0.413464       -11.2509
  63   2.0000      -0.357774        -9.7355
  64   2.0000      -0.335998        -9.1430
  65   2.0000      -0.326606        -8.8874
  66   2.0000      -0.275502        -7.4968
  67   0.0000       0.023206         0.6315
  68   0.0000       0.082749         2.2517
  69   0.0000       0.104664         2.8481
  70   0.0000       0.117429         3.1954
  71   0.0000       0.130601         3.5538

MULLIKEN ATOMIC CHARGES
-----------------------
   0 S :    0.113876
   1 C :   -0.124137
   2 C :   -0.064977
   3 C :    0.027771
   4 C :   -0.119601
   5 H :   -0.018314
   6 C :    0.026464
   7 H :    0.008661
   8 H :    0.045363
   9 C :   -0.049159
  10 H :    0.013878
  11 H :    0.026916
  12 C :   -0.063581
  13 H :    0.044760
  14 H :    0.036960
  15 H :    0.034428
  16 S :    0.120299
  17 C :   -0.085290
  18 C :   -0.051762
  19 C :   -0.047234
  20 C :   -0.145408
  21 H :    0.023142
  22 C :    0.108456
  23 H :   -0.001399
  24 H :    0.019653
  25 C :   -0.095927
  26 H :    0.024342
  27 H :    0.035050
  28 C :   -0.017425
  29 H :    0.026016
  30 H :    0.022050
  31 H :    0.029421
  32 H :    0.044538
  33 H :    0.052172
Sum of atomic charges:    0.0000000

LOEWDIN ATOMIC CHARGES
----------------------
   0 S :    0.428353
   1 C :   -0.222161
   2 C :   -0.069881
   3 C :   -0.059478
   4 C :   -0.184003
   5 H :    0.019936
   6 C :   -0.041243
   7 H :    0.024454
   8 H :    0.041508
   9 C :   -0.041750
  10 H :    0.016154
  11 H :    0.030045
  12 C :   -0.067074
  13 H :    0.029545
  14 H :    0.032950
  15 H :    0.019765
  16 S :    0.450632
  17 C :   -0.205870
  18 C :   -0.071107
  19 C :   -0.052185
  20 C :   -0.211041
  21 H :    0.033346
  22 C :   -0.026330
  23 H :    0.023398
  24 H :    0.027433
  25 C :   -0.037381
  26 H :    0.023892
  27 H :    0.026882
  28 C :   -0.067442
  29 H :    0.023159
  30 H :    0.026287
  31 H :    0.025728
  32 H :    0.026767
  33 H :    0.026713

  Mayer bond orders larger than 0.100000
B(  0-S ,  1-C ) :   1.1564 B(  0-S ,  4-C ) :   1.1737 B(  1-C ,  2-C ) :   1.5531
B(  1-C ,  4-C ) :   0.1020 B(  1-C , 32-H ) :   0.9722 B(  2-C ,  3-C ) :   1.2924
B(  2-C ,  6-C ) :   1.0276 B(  3-C ,  4-C ) :   1.4847 B(  3-C ,  5-H ) :   1.0061
B(  4-C , 20-C ) :   1.0879 B(  6-C ,  7-H ) :   0.9417 B(  6-C ,  8-H ) :   0.9394
B(  6-C ,  9-C ) :   1.0761 B(  9-C , 10-H ) :   0.9564 B(  9-C , 11-H ) :   0.9536
B(  9-C , 12-C ) :   1.0498 B( 12-C , 13-H ) :   0.9791 B( 12-C , 14-H ) :   0.9789
B( 12-C , 15-H ) :   0.9806 B( 16-S , 17-C ) :   1.1826 B( 16-S , 20-C ) :   1.1617
B( 17-C , 18-C ) :   1.5906 B( 17-C , 20-C ) :   0.1017 B( 17-C , 33-H ) :   0.9653
B( 18-C , 19-C ) :   1.2590 B( 18-C , 21-H ) :   0.9865 B( 19-C , 20-C ) :   1.5470
B( 19-C , 22-C ) :   1.0546 B( 22-C , 23-H ) :   0.9203 B( 22-C , 24-H ) :   0.9356
B( 22-C , 25-C ) :   1.0625 B( 25-C , 26-H ) :   0.9532 B( 25-C , 27-H ) :   0.9499
B( 25-C , 28-C ) :   1.0905 B( 28-C , 29-H ) :   0.9699 B( 28-C , 30-H ) :   0.9685
B( 28-C , 31-H ) :   0.9723

Dispersion correction           -0.014541986
FINAL SINGLE POINT ENERGY     -1339.873613647738

DIPOLE MOMENT
-------------
                                X             Y             Z
Electronic contribution:     -3.62307      25.69347     -15.82539
Nuclear contribution   :      3.88003     -26.24949      16.04965
                        -----------------------------------------
Total Dipole Moment    :      0.25696      -0.55601       0.22426
                        -----------------------------------------
Magnitude (a.u.)       :      0.65228
Magnitude (Debye)      :      1.65797

Rotational constants in cm-1:     0.017242     0.010024     0.006948
Rotational constants in MHz :   516.914780   300.519945   208.297165

                             ****ORCA TERMINATED NORMALLY****
TOTAL RUN TIME: 0 days 0 hours 0 minutes 22 seconds 91 msec
