                         Program Version 4.2.1 -  RELEASE  -
|  1> ! wB97X-D3 SP def2-SVP
|  2> %pal
|  3> nprocs 24
|  4> end
|  5>
|  6> * xyz 0 1
|  7> S 	 -65.6039 	 20.4886 	 -118.395
|  8> C 	 -64.2607 	 21.138 	 -119.325
|  9> C 	 -63.1657 	 21.3078 	 -118.493
| 10> C 	 -63.4487 	 20.94 	 -117.162
| 11> C 	 -64.7087 	 20.4652 	 -116.899
| 12> H 	 -62.6736 	 20.9114 	 -116.422
| 13> C 	 -61.7894 	 21.7433 	 -118.923
| 14> H 	 -61.6776 	 22.7458 	 -118.568
| 15> H 	 -61.8055 	 21.9031 	 -120.017
| 16> C 	 -60.4818 	 21.0427 	 -118.604
| 17> H 	 -60.4586 	 20.642 	 -117.595
| 18> H 	 -60.4423 	 20.2473 	 -119.349
| 19> C 	 -59.3599 	 22.0791 	 -118.788
| 20> H 	 -59.3423 	 22.4236 	 -119.809
| 21> H 	 -59.4886 	 23.0008 	 -118.234
| 22> H 	 -58.4327 	 21.5973 	 -118.656
| 23> S 	 -66.5436 	 18.62 	 -115.915
| 24> C 	 -66.6507 	 18.3606 	 -114.213
| 25> C 	 -65.673 	 19.0698 	 -113.562
| 26> C 	 -64.831 	 19.8247 	 -114.457
| 27> C 	 -65.1854 	 19.6958 	 -115.778
| 28> H 	 -65.5886 	 19.0248 	 -112.494
| 29> C 	 -63.7403 	 20.6956 	 -113.8
| 30> H 	 -62.7429 	 20.5155 	 -114.222
| 31> H 	 -63.6986 	 20.4046 	 -112.762
| 32> C 	 -64.2525 	 22.1338 	 -113.808
| 33> H 	 -65.0511 	 22.2944 	 -113.143
| 34> H 	 -64.6614 	 22.3011 	 -114.826
| 35> C 	 -63.1695 	 23.1813 	 -113.445
| 36> H 	 -62.3523 	 23.1518 	 -114.227
| 37> H 	 -62.644 	 23.0072 	 -112.447
| 38> H 	 -63.6413 	 24.1818 	 -113.21
| 39> H 	 -64.2497 	 21.3545 	 -120.393
| 40> H 	 -67.3562 	 17.6938 	 -113.767
| 41> *
| 42>
| 43>                          ****END OF INPUT****

CARTESIAN COORDINATES (ANGSTROEM)
---------------------------------
  S    -65.603900   20.488600  -118.395000
  C    -64.260700   21.138000  -119.325000
  C    -63.165700   21.307800  -118.493000
  C    -63.448700   20.940000  -117.162000
  C    -64.708700   20.465200  -116.899000
  H    -62.673600   20.911400  -116.422000
  C    -61.789400   21.743300  -118.923000
  H    -61.677600   22.745800  -118.568000
  H    -61.805500   21.903100  -120.017000
  C    -60.481800   21.042700  -118.604000
  H    -60.458600   20.642000  -117.595000
  H    -60.442300   20.247300  -119.349000
  C    -59.359900   22.079100  -118.788000
  H    -59.342300   22.423600  -119.809000
  H    -59.488600   23.000800  -118.234000
  H    -58.432700   21.597300  -118.656000
  S    -66.543600   18.620000  -115.915000
  C    -66.650700   18.360600  -114.213000
  C    -65.673000   19.069800  -113.562000
  C    -64.831000   19.824700  -114.457000
  C    -65.185400   19.695800  -115.778000
  H    -65.588600   19.024800  -112.494000
  C    -63.740300   20.695600  -113.800000
  H    -62.742900   20.515500  -114.222000
  H    -63.698600   20.404600  -112.762000
  C    -64.252500   22.133800  -113.808000
  H    -65.051100   22.294400  -113.143000
  H    -64.661400   22.301100  -114.826000
  C    -63.169500   23.181300  -113.445000
  H    -62.352300   23.151800  -114.227000
  H    -62.644000   23.007200  -112.447000
  H    -63.641300   24.181800  -113.210000
  H    -64.249700   21.354500  -120.393000
  H    -67.356200   17.693800  -113.767000

 Total Charge           Charge          ....    0
 Multiplicity           Mult            ....    1
 Number of Electrons    NEL             ....  134
 Basis Dimension        Dim             ....  322

ORBITAL ENERGIES
----------------

  NO   OCC          E(Eh)            E(eV)
   0   2.0000     -88.965429     -2420.8724
   1   2.0000     -88.964457     -2420.8460
   2   2.0000     -10.329769      -281.0873
   3   2.0000     -10.326276      -280.9923
   4   2.0000     -10.315220      -280.6914
   5   2.0000     -10.314918      -280.6832
   6   2.0000     -10.302189      -280.3368
   7   2.0000     -10.299340      -280.2593
   8   2.0000     -10.293526      -280.1011
   9   2.0000     -10.292574      -280.0752
  10   2.0000     -10.289864      -280.0014
  11   2.0000     -10.289516      -279.9920
  12   2.0000     -10.288772      -279.9717
  13   2.0000     -10.287105      -279.9264
  14   2.0000     -10.281853      -279.7834
  15   2.0000     -10.275959      -279.6231
  16   2.0000      -8.080886      -219.8921
  17   2.0000      -8.079253      -219.8477
  18   2.0000      -6.039424      -164.3411
  19   2.0000      -6.037892      -164.2994
  20   2.0000      -6.035224      -164.2268
  21   2.0000      -6.033678      -164.1847
  22   2.0000      -6.031633      -164.1291
  23   2.0000      -6.029936      -164.0829
  24   2.0000      -1.013362       -27.5750
  25   2.0000      -0.988798       -26.9066
  26   2.0000      -0.918818       -25.0023
  27   2.0000      -0.909918       -24.7601
  28   2.0000      -0.876403       -23.8481
  29   2.0000      -0.850936       -23.1551
  30   2.0000      -0.842982       -22.9387
  31   2.0000      -0.817250       -22.2385
  32   2.0000      -0.781443       -21.2641
  33   2.0000      -0.772676       -21.0256
  34   2.0000      -0.713382       -19.4121
  35   2.0000      -0.702512       -19.1163
  36   2.0000      -0.691837       -18.8258
  37   2.0000      -0.668187       -18.1823
  38   2.0000      -0.639622       -17.4050
  39   2.0000      -0.628162       -17.0931
  40   2.0000      -0.597710       -16.2645
  41   2.0000      -0.574317       -15.6280
  42   2.0000      -0.570038       -15.5115
  43   2.0000      -0.564564       -15.3626
  44   2.0000      -0.531605       -14.4657
  45   2.0000      -0.524121       -14.2621
  46   2.0000      -0.517458       -14.0808
  47   2.0000      -0.512825       -13.9547
  48   2.0000      -0.504730       -13.7344
  49   2.0000      -0.498650       -13.5689
  50   2.0000      -0.498228       -13.5575
  51   2.0000      -0.484285       -13.1781
  52   2.0000      -0.471416       -12.8279
  53   2.0000      -0.463665       -12.6170
  54   2.0000      -0.458847       -12.4859
  55   2.0000      -0.450042       -12.2463
  56   2.0000      -0.445035       -12.1100
  57   2.0000      -0.441155       -12.0044
  58   2.0000      -0.438021       -11.9192
  59   2.0000      -0.425331       -11.5738
  60   2.0000      -0.421999       -11.4832
  61   2.0000      -0.411435       -11.1957
  62   2.0000      -0.405088       -11.0230
  63   2.0000      -0.363387        -9.8882
  64   2.0000      -0.333340        -9.0706
  65   2.0000      -0.327804        -8.9200
  66   2.0000      -0.283970        -7.7272
  67   0.0000       0.021489         0.5848
  68   0.0000       0.085035         2.3139
  69   0.0000       0.109701         2.9851
  70   0.0000       0.120373         3.2755
  71   0.0000       0.136145         3.7047

MULLIKEN ATOMIC CHARGES
-----------------------
   0 S :    0.087600
   1 C :   -0.125183
   2 C :   -0.060045
   3 C :    0.008201
   4 C :   -0.110889
   5 H :   -0.019225
   6 C :    0.027845
   7 H :    0.020078
   8 H :    0.009510
   9 C :   -0.042448
  10 H :    0.032621
  11 H :    0.037758
  12 C :   -0.034747
  13 H :    0.016864
  14 H :    0.035358
  15 H :    0.025922
  16 S :    0.102249
  17 C :   -0.083903
  18 C :   -0.017589
  19 C :   -0.096003
  20 C :   -0.095970
  21 H :    0.014233
  22 C :    0.074333
  23 H :    0.043124
  24 H :    0.008851
  25 C :   -0.061859
  26 H :    0.016795
  27 H :    0.049756
  28 C :   -0.080604
  29 H :    0.041677
  30 H :    0.028623
  31 H :    0.044444
  32 H :    0.049731
  33 H :    0.052893
Sum of atomic charges:    0.0000000

LOEWDIN ATOMIC CHARGES
----------------------
   0 S :    0.402728
   1 C :   -0.197430
   2 C :   -0.063250
   3 C :   -0.066927
   4 C :   -0.186064
   5 H :    0.021480
   6 C :   -0.040840
   7 H :    0.027957
   8 H :    0.030896
   9 C :   -0.032136
  10 H :    0.021321
  11 H :    0.029125
  12 C :   -0.057806
  13 H :    0.024752
  14 H :    0.026701
  15 H :    0.021470
  16 S :    0.417547
  17 C :   -0.185156
  18 C :   -0.070436
  19 C :   -0.053292
  20 C :   -0.205180
  21 H :    0.028621
  22 C :   -0.026257
  23 H :    0.028005
  24 H :    0.027313
  25 C :   -0.039874
  26 H :    0.019158
  27 H :    0.030838
  28 C :   -0.080644
  29 H :    0.027628
  30 H :    0.026835
  31 H :    0.032659
  32 H :    0.032609
  33 H :    0.027647

  Mayer bond orders larger than 0.100000
B(  0-S ,  1-C ) :   1.1340 B(  0-S ,  4-C ) :   1.1419 B(  1-C ,  2-C ) :   1.5907
B(  1-C , 32-H ) :   0.9658 B(  2-C ,  3-C ) :   1.2830 B(  2-C ,  6-C ) :   1.0156
B(  3-C ,  4-C ) :   1.5322 B(  3-C ,  5-H ) :   0.9937 B(  4-C , 20-C ) :   1.0909
B(  6-C ,  7-H ) :   0.9373 B(  6-C ,  8-H ) :   0.9393 B(  6-C ,  9-C ) :   1.0562
B(  9-C , 10-H ) :   0.9558 B(  9-C , 11-H ) :   0.9559 B(  9-C , 12-C ) :   1.0792
B( 12-C , 13-H ) :   0.9728 B( 12-C , 14-H ) :   0.9755 B( 12-C , 15-H ) :   0.9712
B( 16-S , 17-C ) :   1.1629 B( 16-S , 20-C ) :   1.1249 B( 17-C , 18-C ) :   1.5913
B( 17-C , 33-H ) :   0.9721 B( 18-C , 19-C ) :   1.2684 B( 18-C , 21-H ) :   0.9928
B( 19-C , 20-C ) :   1.5820 B( 19-C , 22-C ) :   1.0364 B( 22-C , 23-H ) :   0.9443
B( 22-C , 24-H ) :   0.9256 B( 22-C , 25-C ) :   1.0504 B( 25-C , 26-H ) :   0.9514
B( 25-C , 27-H ) :   0.9611 B( 25-C , 28-C ) :   1.0761 B( 28-C , 29-H ) :   0.9763
B( 28-C , 30-H ) :   0.9711 B( 28-C , 31-H ) :   0.9735

Dispersion correction           -0.014100467
FINAL SINGLE POINT ENERGY     -1339.881358214513

DIPOLE MOMENT
-------------
                                X             Y             Z
Electronic contribution:    -26.56335     -16.20033      -5.51215
Nuclear contribution   :     27.15583      16.37080       5.80940
                        -----------------------------------------
Total Dipole Moment    :      0.59248       0.17047       0.29725
                        -----------------------------------------
Magnitude (a.u.)       :      0.68443
Magnitude (Debye)      :      1.73969

Rotational constants in cm-1:     0.018135     0.009052     0.006829
Rotational constants in MHz :   543.671311   271.384798   204.717254

                             ****ORCA TERMINATED NORMALLY****
TOTAL RUN TIME: 0 days 0 hours 0 minutes 20 seconds 910 msec
