                         Program Version 4.2.1 -  RELEASE  -
|  1> ! wB97X-D3 SP def2-SVP
|  2> %pal
|  3> nprocs 24
|  4> end
|  5>
|  6> * xyz 0 1
|  7> S 	 -32.0556 	 -36.5969 	 -94.0005
|  8> C 	 -30.7331 	 -36.455 	 -92.8488
|  9> C 	 -31.1252 	 -35.9621 	 -91.6562
| 10> C 	 -32.506 	 -35.7999 	 -91.5793
| 11> C 	 -33.0874 	 -35.7975 	 -92.803
| 12> H 	 -33.0218 	 -35.4005 	 -90.7141
| 13> C 	 -30.2698 	 -35.9286 	 -90.3691
| 14> H 	 -30.7563 	 -36.2853 	 -89.443
| 15> H 	 -29.9642 	 -34.8831 	 -90.1912
| 16> C 	 -29.0002 	 -36.7883 	 -90.4008
| 17> H 	 -28.1767 	 -36.3557 	 -90.9693
| 18> H 	 -28.6144 	 -36.7844 	 -89.3522
| 19> C 	 -29.1931 	 -38.2847 	 -90.8097
| 20> H 	 -29.0039 	 -38.3991 	 -91.8585
| 21> H 	 -28.6676 	 -39.1003 	 -90.2558
| 22> H 	 -30.1923 	 -38.4928 	 -90.5274
| 23> S 	 -35.316 	 -37.0613 	 -93.8488
| 24> C 	 -36.6706 	 -35.9863 	 -94.3068
| 25> C 	 -36.6589 	 -34.8964 	 -93.5418
| 26> C 	 -35.4459 	 -34.6328 	 -92.8331
| 27> C 	 -34.5433 	 -35.6091 	 -93.1554
| 28> H 	 -37.5086 	 -34.2577 	 -93.597
| 29> C 	 -35.1817 	 -33.2813 	 -92.1636
| 30> H 	 -34.726 	 -33.4438 	 -91.1945
| 31> H 	 -36.127 	 -32.7109 	 -91.8692
| 32> C 	 -34.3113 	 -32.4041 	 -92.9984
| 33> H 	 -34.9243 	 -32.1934 	 -93.8445
| 34> H 	 -33.3561 	 -32.8716 	 -93.2446
| 35> C 	 -33.973 	 -31.0374 	 -92.35
| 36> H 	 -33.3824 	 -30.4691 	 -93.1
| 37> H 	 -33.3691 	 -31.2653 	 -91.4879
| 38> H 	 -34.7611 	 -30.4779 	 -91.9649
| 39> H 	 -29.6875 	 -36.7463 	 -93.0538
| 40> H 	 -37.5819 	 -36.4251 	 -94.8042
| 41> *
| 42>
| 43>                          ****END OF INPUT****

CARTESIAN COORDINATES (ANGSTROEM)
---------------------------------
  S    -32.055600  -36.596900  -94.000500
  C    -30.733100  -36.455000  -92.848800
  C    -31.125200  -35.962100  -91.656200
  C    -32.506000  -35.799900  -91.579300
  C    -33.087400  -35.797500  -92.803000
  H    -33.021800  -35.400500  -90.714100
  C    -30.269800  -35.928600  -90.369100
  H    -30.756300  -36.285300  -89.443000
  H    -29.964200  -34.883100  -90.191200
  C    -29.000200  -36.788300  -90.400800
  H    -28.176700  -36.355700  -90.969300
  H    -28.614400  -36.784400  -89.352200
  C    -29.193100  -38.284700  -90.809700
  H    -29.003900  -38.399100  -91.858500
  H    -28.667600  -39.100300  -90.255800
  H    -30.192300  -38.492800  -90.527400
  S    -35.316000  -37.061300  -93.848800
  C    -36.670600  -35.986300  -94.306800
  C    -36.658900  -34.896400  -93.541800
  C    -35.445900  -34.632800  -92.833100
  C    -34.543300  -35.609100  -93.155400
  H    -37.508600  -34.257700  -93.597000
  C    -35.181700  -33.281300  -92.163600
  H    -34.726000  -33.443800  -91.194500
  H    -36.127000  -32.710900  -91.869200
  C    -34.311300  -32.404100  -92.998400
  H    -34.924300  -32.193400  -93.844500
  H    -33.356100  -32.871600  -93.244600
  C    -33.973000  -31.037400  -92.350000
  H    -33.382400  -30.469100  -93.100000
  H    -33.369100  -31.265300  -91.487900
  H    -34.761100  -30.477900  -91.964900
  H    -29.687500  -36.746300  -93.053800
  H    -37.581900  -36.425100  -94.804200

 Total Charge           Charge          ....    0
 Multiplicity           Mult            ....    1
 Number of Electrons    NEL             ....  134
 Basis Dimension        Dim             ....  322

ORBITAL ENERGIES
----------------

  NO   OCC          E(Eh)            E(eV)
   0   2.0000     -88.966278     -2420.8955
   1   2.0000     -88.958661     -2420.6882
   2   2.0000     -10.329623      -281.0833
   3   2.0000     -10.329103      -281.0692
   4   2.0000     -10.313894      -280.6553
   5   2.0000     -10.312715      -280.6232
   6   2.0000     -10.303636      -280.3762
   7   2.0000     -10.299536      -280.2646
   8   2.0000     -10.295592      -280.1573
   9   2.0000     -10.294852      -280.1372
  10   2.0000     -10.289982      -280.0047
  11   2.0000     -10.289025      -279.9786
  12   2.0000     -10.287513      -279.9375
  13   2.0000     -10.278642      -279.6961
  14   2.0000     -10.274819      -279.5920
  15   2.0000     -10.271995      -279.5152
  16   2.0000      -8.080606      -219.8845
  17   2.0000      -8.073015      -219.6779
  18   2.0000      -6.039124      -164.3329
  19   2.0000      -6.035358      -164.2304
  20   2.0000      -6.031617      -164.1286
  21   2.0000      -6.031173      -164.1166
  22   2.0000      -6.028096      -164.0328
  23   2.0000      -6.023159      -163.8985
  24   2.0000      -1.009139       -27.4601
  25   2.0000      -0.988388       -26.8954
  26   2.0000      -0.912790       -24.8383
  27   2.0000      -0.908975       -24.7345
  28   2.0000      -0.862506       -23.4700
  29   2.0000      -0.852266       -23.1913
  30   2.0000      -0.844286       -22.9742
  31   2.0000      -0.812387       -22.1062
  32   2.0000      -0.786393       -21.3988
  33   2.0000      -0.776839       -21.1389
  34   2.0000      -0.703699       -19.1486
  35   2.0000      -0.699293       -19.0287
  36   2.0000      -0.687802       -18.7160
  37   2.0000      -0.658259       -17.9121
  38   2.0000      -0.636667       -17.3246
  39   2.0000      -0.614835       -16.7305
  40   2.0000      -0.597435       -16.2570
  41   2.0000      -0.578364       -15.7381
  42   2.0000      -0.572263       -15.5721
  43   2.0000      -0.555789       -15.1238
  44   2.0000      -0.531564       -14.4646
  45   2.0000      -0.527065       -14.3422
  46   2.0000      -0.517879       -14.0922
  47   2.0000      -0.513419       -13.9708
  48   2.0000      -0.496363       -13.5067
  49   2.0000      -0.490842       -13.3565
  50   2.0000      -0.486206       -13.2303
  51   2.0000      -0.478804       -13.0289
  52   2.0000      -0.469803       -12.7840
  53   2.0000      -0.461284       -12.5522
  54   2.0000      -0.457110       -12.4386
  55   2.0000      -0.445875       -12.1329
  56   2.0000      -0.442918       -12.0524
  57   2.0000      -0.436655       -11.8820
  58   2.0000      -0.435741       -11.8571
  59   2.0000      -0.427819       -11.6415
  60   2.0000      -0.422810       -11.5052
  61   2.0000      -0.413667       -11.2564
  62   2.0000      -0.407168       -11.0796
  63   2.0000      -0.344598        -9.3770
  64   2.0000      -0.334344        -9.0980
  65   2.0000      -0.327009        -8.8984
  66   2.0000      -0.296807        -8.0765
  67   0.0000       0.025865         0.7038
  68   0.0000       0.067862         1.8466
  69   0.0000       0.093887         2.5548
  70   0.0000       0.115628         3.1464
  71   0.0000       0.137524         3.7422

MULLIKEN ATOMIC CHARGES
-----------------------
   0 S :    0.107638
   1 C :   -0.124569
   2 C :   -0.067652
   3 C :    0.032415
   4 C :   -0.162297
   5 H :    0.019762
   6 C :    0.059868
   7 H :    0.042480
   8 H :    0.041812
   9 C :   -0.131689
  10 H :    0.030316
  11 H :    0.031187
  12 C :   -0.033541
  13 H :    0.028419
  14 H :    0.038011
  15 H :    0.020134
  16 S :    0.074608
  17 C :   -0.092872
  18 C :   -0.038113
  19 C :    0.020277
  20 C :   -0.170345
  21 H :    0.008169
  22 C :    0.049130
  23 H :    0.007430
  24 H :    0.028720
  25 C :   -0.065808
  26 H :    0.020806
  27 H :    0.046646
  28 C :   -0.023802
  29 H :    0.044513
  30 H :    0.016605
  31 H :    0.014729
  32 H :    0.055456
  33 H :    0.071555
Sum of atomic charges:   -0.0000000

LOEWDIN ATOMIC CHARGES
----------------------
   0 S :    0.393593
   1 C :   -0.186286
   2 C :   -0.074476
   3 C :   -0.058274
   4 C :   -0.182730
   5 H :    0.033431
   6 C :   -0.032077
   7 H :    0.036003
   8 H :    0.037732
   9 C :   -0.052201
  10 H :    0.017667
  11 H :    0.030848
  12 C :   -0.068043
  13 H :    0.018911
  14 H :    0.032178
  15 H :    0.022438
  16 S :    0.353843
  17 C :   -0.176600
  18 C :   -0.065592
  19 C :   -0.057317
  20 C :   -0.168695
  21 H :    0.027337
  22 C :   -0.035371
  23 H :    0.021243
  24 H :    0.037462
  25 C :   -0.035166
  26 H :    0.021048
  27 H :    0.030646
  28 C :   -0.059475
  29 H :    0.033919
  30 H :    0.021532
  31 H :    0.012627
  32 H :    0.031646
  33 H :    0.038199

  Mayer bond orders larger than 0.100000
B(  0-S ,  1-C ) :   1.1295 B(  0-S ,  4-C ) :   1.1424 B(  1-C ,  2-C ) :   1.6556
B(  1-C , 32-H ) :   0.9505 B(  2-C ,  3-C ) :   1.2378 B(  2-C ,  6-C ) :   0.9983
B(  3-C ,  4-C ) :   1.6078 B(  3-C ,  5-H ) :   0.9842 B(  4-C , 20-C ) :   1.0064
B(  6-C ,  7-H ) :   0.9549 B(  6-C ,  8-H ) :   0.9293 B(  6-C ,  9-C ) :   1.0885
B(  9-C , 10-H ) :   0.9578 B(  9-C , 11-H ) :   0.9557 B(  9-C , 12-C ) :   1.0574
B( 12-C , 13-H ) :   0.9771 B( 12-C , 14-H ) :   0.9762 B( 12-C , 15-H ) :   0.9758
B( 16-S , 17-C ) :   1.0942 B( 16-S , 20-C ) :   1.1507 B( 17-C , 18-C ) :   1.6842
B( 17-C , 33-H ) :   0.9590 B( 18-C , 19-C ) :   1.1799 B( 18-C , 21-H ) :   0.9915
B( 19-C , 20-C ) :   1.6411 B( 19-C , 22-C ) :   1.0472 B( 22-C , 23-H ) :   0.9230
B( 22-C , 24-H ) :   0.9382 B( 22-C , 25-C ) :   1.0780 B( 25-C , 26-H ) :   0.9533
B( 25-C , 27-H ) :   0.9534 B( 25-C , 28-C ) :   1.0838 B( 28-C , 29-H ) :   0.9747
B( 28-C , 30-H ) :   0.9739 B( 28-C , 31-H ) :   0.9748

Dispersion correction           -0.014455592
FINAL SINGLE POINT ENERGY     -1339.847940627830

DIPOLE MOMENT
-------------
                                X             Y             Z
Electronic contribution:    -12.38375     -12.91601     -14.83976
Nuclear contribution   :     12.41954      13.29150      15.42657
                        -----------------------------------------
Total Dipole Moment    :      0.03579       0.37549       0.58681
                        -----------------------------------------
Magnitude (a.u.)       :      0.69758
Magnitude (Debye)      :      1.77311

Rotational constants in cm-1:     0.020147     0.008590     0.006701
Rotational constants in MHz :   603.989522   257.516075   200.887416

                             ****ORCA TERMINATED NORMALLY****
TOTAL RUN TIME: 0 days 0 hours 0 minutes 22 seconds 105 msec
