                         Program Version 4.2.1 -  RELEASE  -
|  1> ! wB97X-D3 SP def2-SVP
|  2> %pal
|  3> nprocs 24
|  4> end
|  5>
|  6> * xyz 0 1
|  7> S 	 -111.691 	 60.4701 	 -72.1479
|  8> C 	 -110.017 	 60.2174 	 -72.1826
|  9> C 	 -109.38 	 61.1668 	 -72.919
| 10> C 	 -110.267 	 61.9797 	 -73.683
| 11> C 	 -111.591 	 61.6288 	 -73.4339
| 12> H 	 -109.942 	 62.8037 	 -74.2146
| 13> C 	 -107.935 	 61.2675 	 -73.0928
| 14> H 	 -107.728 	 61.1249 	 -74.1203
| 15> H 	 -107.553 	 60.4229 	 -72.4907
| 16> C 	 -107.332 	 62.6066 	 -72.5966
| 17> H 	 -106.238 	 62.666 	 -72.7213
| 18> H 	 -107.854 	 63.3062 	 -73.2635
| 19> C 	 -107.707 	 62.9954 	 -71.1535
| 20> H 	 -108.783 	 62.9001 	 -71.0079
| 21> H 	 -107.289 	 62.4542 	 -70.3593
| 22> H 	 -107.457 	 63.9823 	 -70.9042
| 23> S 	 -113.603 	 63.2265 	 -72.5598
| 24> C 	 -114.601 	 64.049 	 -73.7463
| 25> C 	 -114.125 	 63.8529 	 -75.0014
| 26> C 	 -113.086 	 62.886 	 -75.0739
| 27> C 	 -112.753 	 62.3561 	 -73.8295
| 28> H 	 -114.535 	 64.3932 	 -75.8247
| 29> C 	 -112.432 	 62.6437 	 -76.4211
| 30> H 	 -111.503 	 62.097 	 -76.4181
| 31> H 	 -112.102 	 63.6139 	 -76.7922
| 32> C 	 -113.195 	 61.8383 	 -77.4623
| 33> H 	 -113.635 	 61.0157 	 -76.9236
| 34> H 	 -112.514 	 61.386 	 -78.1712
| 35> C 	 -114.272 	 62.6963 	 -78.2639
| 36> H 	 -114.947 	 63.257 	 -77.6002
| 37> H 	 -114.865 	 62.0545 	 -78.8169
| 38> H 	 -113.768 	 63.3518 	 -78.9404
| 39> H 	 -109.578 	 59.3632 	 -71.6327
| 40> H 	 -115.415 	 64.6754 	 -73.3582
| 41> *
| 42>
| 43>                          ****END OF INPUT****

CARTESIAN COORDINATES (ANGSTROEM)
---------------------------------
  S    -111.691000   60.470100  -72.147900
  C    -110.017000   60.217400  -72.182600
  C    -109.380000   61.166800  -72.919000
  C    -110.267000   61.979700  -73.683000
  C    -111.591000   61.628800  -73.433900
  H    -109.942000   62.803700  -74.214600
  C    -107.935000   61.267500  -73.092800
  H    -107.728000   61.124900  -74.120300
  H    -107.553000   60.422900  -72.490700
  C    -107.332000   62.606600  -72.596600
  H    -106.238000   62.666000  -72.721300
  H    -107.854000   63.306200  -73.263500
  C    -107.707000   62.995400  -71.153500
  H    -108.783000   62.900100  -71.007900
  H    -107.289000   62.454200  -70.359300
  H    -107.457000   63.982300  -70.904200
  S    -113.603000   63.226500  -72.559800
  C    -114.601000   64.049000  -73.746300
  C    -114.125000   63.852900  -75.001400
  C    -113.086000   62.886000  -75.073900
  C    -112.753000   62.356100  -73.829500
  H    -114.535000   64.393200  -75.824700
  C    -112.432000   62.643700  -76.421100
  H    -111.503000   62.097000  -76.418100
  H    -112.102000   63.613900  -76.792200
  C    -113.195000   61.838300  -77.462300
  H    -113.635000   61.015700  -76.923600
  H    -112.514000   61.386000  -78.171200
  C    -114.272000   62.696300  -78.263900
  H    -114.947000   63.257000  -77.600200
  H    -114.865000   62.054500  -78.816900
  H    -113.768000   63.351800  -78.940400
  H    -109.578000   59.363200  -71.632700
  H    -115.415000   64.675400  -73.358200

 Total Charge           Charge          ....    0
 Multiplicity           Mult            ....    1
 Number of Electrons    NEL             ....  134
 Basis Dimension        Dim             ....  322

ORBITAL ENERGIES
----------------

  NO   OCC          E(Eh)            E(eV)
   0   2.0000     -88.962663     -2420.7971
   1   2.0000     -88.960256     -2420.7316
   2   2.0000     -10.325163      -280.9620
   3   2.0000     -10.322340      -280.8852
   4   2.0000     -10.316708      -280.7319
   5   2.0000     -10.308534      -280.5095
   6   2.0000     -10.302266      -280.3389
   7   2.0000     -10.291688      -280.0511
   8   2.0000     -10.290745      -280.0254
   9   2.0000     -10.289468      -279.9907
  10   2.0000     -10.288766      -279.9715
  11   2.0000     -10.285776      -279.8902
  12   2.0000     -10.284130      -279.8454
  13   2.0000     -10.283373      -279.8248
  14   2.0000     -10.271781      -279.5094
  15   2.0000     -10.264466      -279.3103
  16   2.0000      -8.079157      -219.8450
  17   2.0000      -8.075407      -219.7430
  18   2.0000      -6.037422      -164.2866
  19   2.0000      -6.033843      -164.1892
  20   2.0000      -6.033457      -164.1787
  21   2.0000      -6.030034      -164.0856
  22   2.0000      -6.029997      -164.0846
  23   2.0000      -6.026064      -163.9775
  24   2.0000      -1.015072       -27.6215
  25   2.0000      -0.989654       -26.9299
  26   2.0000      -0.917822       -24.9752
  27   2.0000      -0.905946       -24.6521
  28   2.0000      -0.874180       -23.7876
  29   2.0000      -0.851446       -23.1690
  30   2.0000      -0.842739       -22.9321
  31   2.0000      -0.815874       -22.2011
  32   2.0000      -0.788395       -21.4533
  33   2.0000      -0.775961       -21.1150
  34   2.0000      -0.715594       -19.4723
  35   2.0000      -0.699881       -19.0447
  36   2.0000      -0.690243       -18.7825
  37   2.0000      -0.664122       -18.0717
  38   2.0000      -0.644454       -17.5365
  39   2.0000      -0.624175       -16.9847
  40   2.0000      -0.603608       -16.4250
  41   2.0000      -0.568348       -15.4655
  42   2.0000      -0.553993       -15.0749
  43   2.0000      -0.549085       -14.9414
  44   2.0000      -0.545472       -14.8430
  45   2.0000      -0.536956       -14.6113
  46   2.0000      -0.520823       -14.1723
  47   2.0000      -0.513050       -13.9608
  48   2.0000      -0.502482       -13.6732
  49   2.0000      -0.500208       -13.6113
  50   2.0000      -0.490640       -13.3510
  51   2.0000      -0.484466       -13.1830
  52   2.0000      -0.475514       -12.9394
  53   2.0000      -0.465164       -12.6578
  54   2.0000      -0.458036       -12.4638
  55   2.0000      -0.452017       -12.3000
  56   2.0000      -0.442302       -12.0356
  57   2.0000      -0.440238       -11.9795
  58   2.0000      -0.437382       -11.9018
  59   2.0000      -0.422254       -11.4901
  60   2.0000      -0.420652       -11.4465
  61   2.0000      -0.412226       -11.2172
  62   2.0000      -0.408165       -11.1067
  63   2.0000      -0.350258        -9.5310
  64   2.0000      -0.328480        -8.9384
  65   2.0000      -0.326878        -8.8948
  66   2.0000      -0.291242        -7.9251
  67   0.0000       0.030611         0.8330
  68   0.0000       0.068952         1.8763
  69   0.0000       0.107164         2.9161
  70   0.0000       0.123977         3.3736
  71   0.0000       0.129371         3.5204

MULLIKEN ATOMIC CHARGES
-----------------------
   0 S :    0.112820
   1 C :   -0.134246
   2 C :   -0.124254
   3 C :    0.063868
   4 C :   -0.160671
   5 H :   -0.008213
   6 C :    0.106277
   7 H :    0.028678
   8 H :    0.009589
   9 C :   -0.087444
  10 H :    0.042423
  11 H :    0.022540
  12 C :   -0.018619
  13 H :    0.035962
  14 H :    0.013203
  15 H :    0.015265
  16 S :    0.085872
  17 C :   -0.104482
  18 C :   -0.014886
  19 C :   -0.033491
  20 C :   -0.119828
  21 H :    0.016960
  22 C :    0.053892
  23 H :    0.011015
  24 H :    0.021976
  25 C :   -0.064570
  26 H :    0.029691
  27 H :    0.025899
  28 C :   -0.021907
  29 H :    0.026850
  30 H :    0.015019
  31 H :    0.024857
  32 H :    0.061655
  33 H :    0.068300
Sum of atomic charges:   -0.0000000

LOEWDIN ATOMIC CHARGES
----------------------
   0 S :    0.433943
   1 C :   -0.216434
   2 C :   -0.070996
   3 C :   -0.045039
   4 C :   -0.196572
   5 H :    0.018910
   6 C :   -0.029813
   7 H :    0.028010
   8 H :    0.028584
   9 C :   -0.034538
  10 H :    0.027374
  11 H :    0.023440
  12 C :   -0.062977
  13 H :    0.029898
  14 H :    0.017618
  15 H :    0.020308
  16 S :    0.392616
  17 C :   -0.177038
  18 C :   -0.069013
  19 C :   -0.053893
  20 C :   -0.200223
  21 H :    0.028489
  22 C :   -0.038325
  23 H :    0.029465
  24 H :    0.029667
  25 C :   -0.029576
  26 H :    0.025058
  27 H :    0.022989
  28 C :   -0.057943
  29 H :    0.023924
  30 H :    0.014800
  31 H :    0.021025
  32 H :    0.034518
  33 H :    0.031740

  Mayer bond orders larger than 0.100000
B(  0-S ,  1-C ) :   1.1499 B(  0-S ,  4-C ) :   1.1732 B(  1-C ,  2-C ) :   1.5870
B(  1-C , 32-H ) :   0.9644 B(  2-C ,  3-C ) :   1.2490 B(  2-C ,  6-C ) :   1.0308
B(  3-C ,  4-C ) :   1.5295 B(  3-C ,  5-H ) :   1.0083 B(  4-C , 20-C ) :   1.0429
B(  6-C ,  7-H ) :   0.9431 B(  6-C ,  8-H ) :   0.9361 B(  6-C ,  9-C ) :   1.0581
B(  9-C , 10-H ) :   0.9597 B(  9-C , 11-H ) :   0.9569 B(  9-C , 12-C ) :   1.0787
B( 12-C , 13-H ) :   0.9696 B( 12-C , 14-H ) :   0.9743 B( 12-C , 15-H ) :   0.9719
B( 16-S , 17-C ) :   1.1526 B( 16-S , 20-C ) :   1.1424 B( 17-C , 18-C ) :   1.5928
B( 17-C , 33-H ) :   0.9692 B( 18-C , 19-C ) :   1.2358 B( 18-C , 21-H ) :   0.9960
B( 19-C , 20-C ) :   1.5993 B( 19-C , 22-C ) :   1.0491 B( 22-C , 23-H ) :   0.9326
B( 22-C , 24-H ) :   0.9372 B( 22-C , 25-C ) :   1.0674 B( 25-C , 26-H ) :   0.9542
B( 25-C , 27-H ) :   0.9605 B( 25-C , 28-C ) :   1.0743 B( 28-C , 29-H ) :   0.9752
B( 28-C , 30-H ) :   0.9737 B( 28-C , 31-H ) :   0.9776

Dispersion correction           -0.014564682
FINAL SINGLE POINT ENERGY     -1339.870417500982

DIPOLE MOMENT
-------------
                                X             Y             Z
Electronic contribution:    -12.57063      -4.75264      14.56268
Nuclear contribution   :     12.97751       5.00378     -14.94264
                        -----------------------------------------
Total Dipole Moment    :      0.40688       0.25115      -0.37996
                        -----------------------------------------
Magnitude (a.u.)       :      0.61074
Magnitude (Debye)      :      1.55237

Rotational constants in cm-1:     0.021144     0.008036     0.007131
Rotational constants in MHz :   633.893224   240.898599   213.771909

                             ****ORCA TERMINATED NORMALLY****
TOTAL RUN TIME: 0 days 0 hours 0 minutes 21 seconds 959 msec
