                         Program Version 4.2.1 -  RELEASE  -
|  1> ! wB97X-D3 SP def2-SVP
|  2> %pal
|  3> nprocs 24
|  4> end
|  5>
|  6> * xyz 0 1
|  7> S 	 -36.4702 	 17.7973 	 14.7429
|  8> C 	 -38.2065 	 17.6092 	 15.2349
|  9> C 	 -38.8534 	 18.8004 	 14.9125
| 10> C 	 -38.0138 	 19.7323 	 14.242
| 11> C 	 -36.658 	 19.4181 	 14.1074
| 12> H 	 -38.3579 	 20.6809 	 13.8399
| 13> C 	 -40.3146 	 18.8855 	 15.0692
| 14> H 	 -40.6663 	 18.0591 	 15.6318
| 15> H 	 -40.7768 	 18.785 	 14.1039
| 16> C 	 -40.7906 	 20.1167 	 15.7957
| 17> H 	 -40.2063 	 20.1015 	 16.7101
| 18> H 	 -40.5463 	 21.0159 	 15.1425
| 19> C 	 -42.2906 	 20.0047 	 16.0892
| 20> H 	 -42.5931 	 20.8813 	 16.7215
| 21> H 	 -42.9348 	 20.0415 	 15.1999
| 22> H 	 -42.5117 	 19.1449 	 16.6828
| 23> S 	 -34.3782 	 19.3387 	 12.498
| 24> C 	 -33.6938 	 20.8441 	 12.0783
| 25> C 	 -34.3598 	 21.9236 	 12.5811
| 26> C 	 -35.4778 	 21.5823 	 13.3552
| 27> C 	 -35.6148 	 20.173 	 13.4289
| 28> H 	 -34.0207 	 22.8765 	 12.3989
| 29> C 	 -36.2868 	 22.7926 	 13.9984
| 30> H 	 -35.6099 	 23.5448 	 14.4569
| 31> H 	 -37.019 	 22.4817 	 14.6867
| 32> C 	 -36.902 	 23.742 	 12.8969
| 33> H 	 -36.0497 	 24.187 	 12.3326
| 34> H 	 -37.318 	 24.606 	 13.442
| 35> C 	 -37.8515 	 23.1072 	 11.9099
| 36> H 	 -38.1778 	 23.9175 	 11.301
| 37> H 	 -38.6941 	 22.5781 	 12.3775
| 38> H 	 -37.3843 	 22.296 	 11.3631
| 39> H 	 -38.7204 	 16.7093 	 15.6243
| 40> H 	 -32.7736 	 20.8404 	 11.5464
| 41> *
| 42>
| 43>                          ****END OF INPUT****

CARTESIAN COORDINATES (ANGSTROEM)
---------------------------------
  S    -36.470200   17.797300   14.742900
  C    -38.206500   17.609200   15.234900
  C    -38.853400   18.800400   14.912500
  C    -38.013800   19.732300   14.242000
  C    -36.658000   19.418100   14.107400
  H    -38.357900   20.680900   13.839900
  C    -40.314600   18.885500   15.069200
  H    -40.666300   18.059100   15.631800
  H    -40.776800   18.785000   14.103900
  C    -40.790600   20.116700   15.795700
  H    -40.206300   20.101500   16.710100
  H    -40.546300   21.015900   15.142500
  C    -42.290600   20.004700   16.089200
  H    -42.593100   20.881300   16.721500
  H    -42.934800   20.041500   15.199900
  H    -42.511700   19.144900   16.682800
  S    -34.378200   19.338700   12.498000
  C    -33.693800   20.844100   12.078300
  C    -34.359800   21.923600   12.581100
  C    -35.477800   21.582300   13.355200
  C    -35.614800   20.173000   13.428900
  H    -34.020700   22.876500   12.398900
  C    -36.286800   22.792600   13.998400
  H    -35.609900   23.544800   14.456900
  H    -37.019000   22.481700   14.686700
  C    -36.902000   23.742000   12.896900
  H    -36.049700   24.187000   12.332600
  H    -37.318000   24.606000   13.442000
  C    -37.851500   23.107200   11.909900
  H    -38.177800   23.917500   11.301000
  H    -38.694100   22.578100   12.377500
  H    -37.384300   22.296000   11.363100
  H    -38.720400   16.709300   15.624300
  H    -32.773600   20.840400   11.546400

 Total Charge           Charge          ....    0
 Multiplicity           Mult            ....    1
 Number of Electrons    NEL             ....  134
 Basis Dimension        Dim             ....  322

ORBITAL ENERGIES
----------------

  NO   OCC          E(Eh)            E(eV)
   0   2.0000     -88.971184     -2421.0290
   1   2.0000     -88.962130     -2420.7826
   2   2.0000     -10.334361      -281.2123
   3   2.0000     -10.332603      -281.1644
   4   2.0000     -10.319338      -280.8035
   5   2.0000     -10.313255      -280.6379
   6   2.0000     -10.311825      -280.5990
   7   2.0000     -10.300933      -280.3026
   8   2.0000     -10.297425      -280.2072
   9   2.0000     -10.293414      -280.0980
  10   2.0000     -10.292004      -280.0597
  11   2.0000     -10.288034      -279.9516
  12   2.0000     -10.286290      -279.9042
  13   2.0000     -10.280928      -279.7583
  14   2.0000     -10.278964      -279.7048
  15   2.0000     -10.273868      -279.5662
  16   2.0000      -8.086611      -220.0479
  17   2.0000      -8.075778      -219.7531
  18   2.0000      -6.044936      -164.4911
  19   2.0000      -6.041026      -164.3847
  20   2.0000      -6.037535      -164.2897
  21   2.0000      -6.034426      -164.2051
  22   2.0000      -6.030359      -164.0944
  23   2.0000      -6.026516      -163.9898
  24   2.0000      -1.008019       -27.4296
  25   2.0000      -0.983024       -26.7494
  26   2.0000      -0.920584       -25.0504
  27   2.0000      -0.907576       -24.6964
  28   2.0000      -0.870348       -23.6834
  29   2.0000      -0.855128       -23.2692
  30   2.0000      -0.839565       -22.8457
  31   2.0000      -0.812489       -22.1090
  32   2.0000      -0.789926       -21.4950
  33   2.0000      -0.773270       -21.0417
  34   2.0000      -0.712057       -19.3761
  35   2.0000      -0.694645       -18.9023
  36   2.0000      -0.690820       -18.7982
  37   2.0000      -0.662285       -18.0217
  38   2.0000      -0.639337       -17.3972
  39   2.0000      -0.619927       -16.8691
  40   2.0000      -0.605168       -16.4675
  41   2.0000      -0.577540       -15.7157
  42   2.0000      -0.566366       -15.4116
  43   2.0000      -0.549545       -14.9539
  44   2.0000      -0.543612       -14.7924
  45   2.0000      -0.523938       -14.2571
  46   2.0000      -0.518144       -14.0994
  47   2.0000      -0.513231       -13.9657
  48   2.0000      -0.504809       -13.7365
  49   2.0000      -0.503830       -13.7099
  50   2.0000      -0.497071       -13.5260
  51   2.0000      -0.480603       -13.0779
  52   2.0000      -0.473052       -12.8724
  53   2.0000      -0.465760       -12.6740
  54   2.0000      -0.460559       -12.5324
  55   2.0000      -0.456658       -12.4263
  56   2.0000      -0.446971       -12.1627
  57   2.0000      -0.435509       -11.8508
  58   2.0000      -0.429480       -11.6867
  59   2.0000      -0.425562       -11.5801
  60   2.0000      -0.422674       -11.5015
  61   2.0000      -0.416279       -11.3275
  62   2.0000      -0.405148       -11.0246
  63   2.0000      -0.353668        -9.6238
  64   2.0000      -0.337994        -9.1973
  65   2.0000      -0.326188        -8.8760
  66   2.0000      -0.284124        -7.7314
  67   0.0000       0.019949         0.5428
  68   0.0000       0.081934         2.2295
  69   0.0000       0.107617         2.9284
  70   0.0000       0.119130         3.2417
  71   0.0000       0.127976         3.4824

MULLIKEN ATOMIC CHARGES
-----------------------
   0 S :    0.079046
   1 C :   -0.143796
   2 C :   -0.073886
   3 C :    0.023693
   4 C :   -0.119746
   5 H :   -0.023262
   6 C :    0.094583
   7 H :   -0.011744
   8 H :    0.031456
   9 C :   -0.111061
  10 H :    0.033945
  11 H :    0.041231
  12 C :   -0.037915
  13 H :    0.036250
  14 H :    0.035826
  15 H :    0.026090
  16 S :    0.127959
  17 C :   -0.081870
  18 C :    0.000592
  19 C :   -0.022131
  20 C :   -0.166373
  21 H :   -0.016384
  22 C :    0.079930
  23 H :    0.039524
  24 H :    0.022714
  25 C :   -0.131311
  26 H :    0.028703
  27 H :    0.034293
  28 C :   -0.024192
  29 H :    0.036157
  30 H :    0.032837
  31 H :    0.043411
  32 H :    0.066644
  33 H :    0.048785
Sum of atomic charges:    0.0000000

LOEWDIN ATOMIC CHARGES
----------------------
   0 S :    0.373221
   1 C :   -0.189082
   2 C :   -0.063329
   3 C :   -0.074892
   4 C :   -0.185043
   5 H :    0.021653
   6 C :   -0.033487
   7 H :    0.021686
   8 H :    0.030632
   9 C :   -0.041312
  10 H :    0.027079
  11 H :    0.028373
  12 C :   -0.066740
  13 H :    0.031780
  14 H :    0.027317
  15 H :    0.020657
  16 S :    0.429273
  17 C :   -0.183779
  18 C :   -0.062534
  19 C :   -0.044763
  20 C :   -0.202417
  21 H :    0.018205
  22 C :   -0.020798
  23 H :    0.040120
  24 H :    0.017861
  25 C :   -0.043051
  26 H :    0.023318
  27 H :    0.025376
  28 C :   -0.067326
  29 H :    0.027016
  30 H :    0.023465
  31 H :    0.030116
  32 H :    0.039636
  33 H :    0.021771

  Mayer bond orders larger than 0.100000
B(  0-S ,  1-C ) :   1.1195 B(  0-S ,  4-C ) :   1.1485 B(  1-C ,  2-C ) :   1.5822
B(  1-C ,  4-C ) :   0.1008 B(  1-C , 32-H ) :   0.9661 B(  2-C ,  3-C ) :   1.2537
B(  2-C ,  6-C ) :   1.0487 B(  3-C ,  4-C ) :   1.5482 B(  3-C ,  5-H ) :   0.9892
B(  4-C , 20-C ) :   1.0773 B(  6-C ,  7-H ) :   0.9336 B(  6-C ,  8-H ) :   0.9290
B(  6-C ,  9-C ) :   1.0581 B(  9-C , 10-H ) :   0.9568 B(  9-C , 11-H ) :   0.9526
B(  9-C , 12-C ) :   1.0929 B( 12-C , 13-H ) :   0.9738 B( 12-C , 14-H ) :   0.9728
B( 12-C , 15-H ) :   0.9721 B( 16-S , 17-C ) :   1.1719 B( 16-S , 20-C ) :   1.1534
B( 17-C , 18-C ) :   1.5763 B( 17-C , 33-H ) :   0.9716 B( 18-C , 19-C ) :   1.2576
B( 18-C , 21-H ) :   1.0094 B( 19-C , 20-C ) :   1.5560 B( 19-C , 22-C ) :   1.0287
B( 22-C , 23-H ) :   0.9438 B( 22-C , 24-H ) :   0.9418 B( 22-C , 25-C ) :   1.0638
B( 25-C , 26-H ) :   0.9534 B( 25-C , 27-H ) :   0.9575 B( 25-C , 28-C ) :   1.0768
B( 28-C , 29-H ) :   0.9702 B( 28-C , 30-H ) :   0.9690 B( 28-C , 31-H ) :   0.9698

Dispersion correction           -0.014446533
FINAL SINGLE POINT ENERGY     -1339.877402303094

DIPOLE MOMENT
-------------
                                X             Y             Z
Electronic contribution:     25.27061     -18.39899      -3.37149
Nuclear contribution   :    -25.66391      19.00556       3.25945
                        -----------------------------------------
Total Dipole Moment    :     -0.39330       0.60657      -0.11205
                        -----------------------------------------
Magnitude (a.u.)       :      0.73155
Magnitude (Debye)      :      1.85945

Rotational constants in cm-1:     0.018710     0.009091     0.006466
Rotational constants in MHz :   560.912064   272.549253   193.850370

                             ****ORCA TERMINATED NORMALLY****
TOTAL RUN TIME: 0 days 0 hours 0 minutes 21 seconds 934 msec
