                         Program Version 4.2.1 -  RELEASE  -
|  1> ! wB97X-D3 SP def2-SVP
|  2> %pal
|  3> nprocs 24
|  4> end
|  5>
|  6> * xyz 0 1
|  7> S 	 -120.39 	 53.8094 	 -38.488
|  8> C 	 -119.379 	 52.4937 	 -38.9911
|  9> C 	 -118.091 	 52.9633 	 -39.1771
| 10> C 	 -117.91 	 54.333 	 -38.9444
| 11> C 	 -119.122 	 54.9993 	 -38.7145
| 12> H 	 -117.045 	 54.954 	 -38.9638
| 13> C 	 -117.029 	 52.0696 	 -39.6229
| 14> H 	 -116.956 	 52.2094 	 -40.7028
| 15> H 	 -117.391 	 51.0186 	 -39.5484
| 16> C 	 -115.708 	 52.2298 	 -38.9922
| 17> H 	 -114.966 	 51.6195 	 -39.5314
| 18> H 	 -115.414 	 53.2908 	 -39.2115
| 19> C 	 -115.761 	 51.6696 	 -37.5685
| 20> H 	 -114.846 	 51.7077 	 -36.9879
| 21> H 	 -116.436 	 52.2505 	 -36.9807
| 22> H 	 -116.079 	 50.595 	 -37.5411
| 23> S 	 -121.018 	 56.9164 	 -38.231
| 24> C 	 -120.663 	 58.57 	 -38.6349
| 25> C 	 -119.316 	 58.7608 	 -38.6321
| 26> C 	 -118.528 	 57.5624 	 -38.6765
| 27> C 	 -119.362 	 56.4241 	 -38.6227
| 28> H 	 -118.885 	 59.8189 	 -38.7297
| 29> C 	 -117.017 	 57.6325 	 -38.7748
| 30> H 	 -116.719 	 58.7061 	 -38.9286
| 31> H 	 -116.764 	 57.1299 	 -39.6813
| 32> C 	 -116.195 	 57.1338 	 -37.6405
| 33> H 	 -116.615 	 56.2113 	 -37.2097
| 34> H 	 -116.197 	 57.8217 	 -36.8138
| 35> C 	 -114.718 	 56.9583 	 -38.1493
| 36> H 	 -114.168 	 56.8251 	 -37.2142
| 37> H 	 -114.282 	 57.817 	 -38.7617
| 38> H 	 -114.719 	 56.0115 	 -38.7643
| 39> H 	 -119.594 	 51.4638 	 -39.207
| 40> H 	 -121.371 	 59.3823 	 -38.5497
| 41> *
| 42>
| 43>                          ****END OF INPUT****

CARTESIAN COORDINATES (ANGSTROEM)
---------------------------------
  S    -120.390000   53.809400  -38.488000
  C    -119.379000   52.493700  -38.991100
  C    -118.091000   52.963300  -39.177100
  C    -117.910000   54.333000  -38.944400
  C    -119.122000   54.999300  -38.714500
  H    -117.045000   54.954000  -38.963800
  C    -117.029000   52.069600  -39.622900
  H    -116.956000   52.209400  -40.702800
  H    -117.391000   51.018600  -39.548400
  C    -115.708000   52.229800  -38.992200
  H    -114.966000   51.619500  -39.531400
  H    -115.414000   53.290800  -39.211500
  C    -115.761000   51.669600  -37.568500
  H    -114.846000   51.707700  -36.987900
  H    -116.436000   52.250500  -36.980700
  H    -116.079000   50.595000  -37.541100
  S    -121.018000   56.916400  -38.231000
  C    -120.663000   58.570000  -38.634900
  C    -119.316000   58.760800  -38.632100
  C    -118.528000   57.562400  -38.676500
  C    -119.362000   56.424100  -38.622700
  H    -118.885000   59.818900  -38.729700
  C    -117.017000   57.632500  -38.774800
  H    -116.719000   58.706100  -38.928600
  H    -116.764000   57.129900  -39.681300
  C    -116.195000   57.133800  -37.640500
  H    -116.615000   56.211300  -37.209700
  H    -116.197000   57.821700  -36.813800
  C    -114.718000   56.958300  -38.149300
  H    -114.168000   56.825100  -37.214200
  H    -114.282000   57.817000  -38.761700
  H    -114.719000   56.011500  -38.764300
  H    -119.594000   51.463800  -39.207000
  H    -121.371000   59.382300  -38.549700

 Total Charge           Charge          ....    0
 Multiplicity           Mult            ....    1
 Number of Electrons    NEL             ....  134
 Basis Dimension        Dim             ....  322

ORBITAL ENERGIES
----------------

  NO   OCC          E(Eh)            E(eV)
   0   2.0000     -88.966771     -2420.9089
   1   2.0000     -88.963742     -2420.8265
   2   2.0000     -10.334040      -281.2035
   3   2.0000     -10.333440      -281.1872
   4   2.0000     -10.315067      -280.6872
   5   2.0000     -10.308636      -280.5122
   6   2.0000     -10.308625      -280.5120
   7   2.0000     -10.298891      -280.2471
   8   2.0000     -10.294253      -280.1209
   9   2.0000     -10.293732      -280.1067
  10   2.0000     -10.293455      -280.0992
  11   2.0000     -10.291332      -280.0414
  12   2.0000     -10.288736      -279.9707
  13   2.0000     -10.288229      -279.9569
  14   2.0000     -10.282263      -279.7946
  15   2.0000     -10.276611      -279.6408
  16   2.0000      -8.081373      -219.9053
  17   2.0000      -8.078739      -219.8337
  18   2.0000      -6.040010      -164.3570
  19   2.0000      -6.037370      -164.2852
  20   2.0000      -6.035840      -164.2436
  21   2.0000      -6.033443      -164.1783
  22   2.0000      -6.032058      -164.1406
  23   2.0000      -6.029129      -164.0609
  24   2.0000      -1.010294       -27.4915
  25   2.0000      -0.988440       -26.8968
  26   2.0000      -0.925278       -25.1781
  27   2.0000      -0.917805       -24.9747
  28   2.0000      -0.872406       -23.7394
  29   2.0000      -0.852669       -23.2023
  30   2.0000      -0.843730       -22.9590
  31   2.0000      -0.817880       -22.2556
  32   2.0000      -0.781597       -21.2683
  33   2.0000      -0.773017       -21.0349
  34   2.0000      -0.717290       -19.5184
  35   2.0000      -0.701308       -19.0836
  36   2.0000      -0.692958       -18.8563
  37   2.0000      -0.659255       -17.9392
  38   2.0000      -0.638598       -17.3771
  39   2.0000      -0.626134       -17.0380
  40   2.0000      -0.600387       -16.3373
  41   2.0000      -0.570613       -15.5272
  42   2.0000      -0.565232       -15.3807
  43   2.0000      -0.561253       -15.2725
  44   2.0000      -0.539341       -14.6762
  45   2.0000      -0.530020       -14.4226
  46   2.0000      -0.515167       -14.0184
  47   2.0000      -0.512450       -13.9445
  48   2.0000      -0.509275       -13.8581
  49   2.0000      -0.502451       -13.6724
  50   2.0000      -0.490008       -13.3338
  51   2.0000      -0.483346       -13.1525
  52   2.0000      -0.472427       -12.8554
  53   2.0000      -0.467497       -12.7212
  54   2.0000      -0.459313       -12.4985
  55   2.0000      -0.452829       -12.3221
  56   2.0000      -0.447595       -12.1797
  57   2.0000      -0.441531       -12.0147
  58   2.0000      -0.433786       -11.8039
  59   2.0000      -0.427701       -11.6383
  60   2.0000      -0.416500       -11.3335
  61   2.0000      -0.412820       -11.2334
  62   2.0000      -0.408610       -11.1188
  63   2.0000      -0.363884        -9.9018
  64   2.0000      -0.334864        -9.1121
  65   2.0000      -0.324500        -8.8301
  66   2.0000      -0.276757        -7.5309
  67   0.0000       0.009325         0.2538
  68   0.0000       0.085853         2.3362
  69   0.0000       0.096502         2.6259
  70   0.0000       0.120579         3.2811
  71   0.0000       0.128197         3.4884

MULLIKEN ATOMIC CHARGES
-----------------------
   0 S :    0.110559
   1 C :   -0.094642
   2 C :   -0.082597
   3 C :    0.025056
   4 C :   -0.120868
   5 H :   -0.041498
   6 C :    0.045977
   7 H :    0.039043
   8 H :    0.005369
   9 C :   -0.063980
  10 H :    0.025947
  11 H :    0.037645
  12 C :   -0.042374
  13 H :    0.028976
  14 H :    0.030218
  15 H :    0.035780
  16 S :    0.086284
  17 C :   -0.071500
  18 C :   -0.061803
  19 C :   -0.054712
  20 C :   -0.124724
  21 H :    0.042098
  22 C :    0.050293
  23 H :    0.021784
  24 H :    0.030446
  25 C :   -0.073341
  26 H :    0.039883
  27 H :    0.023346
  28 C :   -0.085185
  29 H :    0.043924
  30 H :    0.054250
  31 H :    0.045672
  32 H :    0.037739
  33 H :    0.056938
Sum of atomic charges:    0.0000000

LOEWDIN ATOMIC CHARGES
----------------------
   0 S :    0.410128
   1 C :   -0.207652
   2 C :   -0.064161
   3 C :   -0.071660
   4 C :   -0.179288
   5 H :    0.022536
   6 C :   -0.041094
   7 H :    0.035917
   8 H :    0.027642
   9 C :   -0.046265
  10 H :    0.027304
  11 H :    0.028624
  12 C :   -0.064722
  13 H :    0.023557
  14 H :    0.022123
  15 H :    0.034050
  16 S :    0.392398
  17 C :   -0.186605
  18 C :   -0.079084
  19 C :   -0.055501
  20 C :   -0.182738
  21 H :    0.042897
  22 C :   -0.040015
  23 H :    0.037460
  24 H :    0.026786
  25 C :   -0.043637
  26 H :    0.026777
  27 H :    0.021297
  28 C :   -0.068698
  29 H :    0.028472
  30 H :    0.034944
  31 H :    0.027336
  32 H :    0.030590
  33 H :    0.030281

  Mayer bond orders larger than 0.100000
B(  0-S ,  1-C ) :   1.1234 B(  0-S ,  4-C ) :   1.1585 B(  1-C ,  2-C ) :   1.5898
B(  1-C , 32-H ) :   0.9688 B(  2-C ,  3-C ) :   1.2448 B(  2-C ,  6-C ) :   1.0373
B(  3-C ,  4-C ) :   1.5335 B(  3-C ,  5-H ) :   0.9928 B(  4-C , 20-C ) :   1.1258
B(  6-C ,  7-H ) :   0.9224 B(  6-C ,  8-H ) :   0.9344 B(  6-C ,  9-C ) :   1.0899
B(  9-C , 10-H ) :   0.9478 B(  9-C , 11-H ) :   0.9460 B(  9-C , 12-C ) :   1.0649
B( 12-C , 13-H ) :   0.9750 B( 12-C , 14-H ) :   0.9775 B( 12-C , 15-H ) :   0.9702
B( 16-S , 17-C ) :   1.1416 B( 16-S , 20-C ) :   1.1335 B( 17-C , 18-C ) :   1.6211
B( 17-C , 33-H ) :   0.9659 B( 18-C , 19-C ) :   1.2630 B( 18-C , 21-H ) :   0.9713
B( 19-C , 20-C ) :   1.5474 B( 19-C , 22-C ) :   1.0335 B( 22-C , 23-H ) :   0.9252
B( 22-C , 24-H ) :   0.9355 B( 22-C , 25-C ) :   1.0610 B( 25-C , 26-H ) :   0.9572
B( 25-C , 27-H ) :   0.9515 B( 25-C , 28-C ) :   1.0624 B( 28-C , 29-H ) :   0.9740
B( 28-C , 30-H ) :   0.9716 B( 28-C , 31-H ) :   0.9756

Dispersion correction           -0.014912070
FINAL SINGLE POINT ENERGY     -1339.869513978656

DIPOLE MOMENT
-------------
                                X             Y             Z
Electronic contribution:    -30.74641       5.82689      -0.88576
Nuclear contribution   :     31.46691      -5.66802       0.82988
                        -----------------------------------------
Total Dipole Moment    :      0.72050       0.15886      -0.05587
                        -----------------------------------------
Magnitude (a.u.)       :      0.73992
Magnitude (Debye)      :      1.88073

Rotational constants in cm-1:     0.018438     0.010378     0.007016
Rotational constants in MHz :   552.750337   311.115549   210.319857

                             ****ORCA TERMINATED NORMALLY****
TOTAL RUN TIME: 0 days 0 hours 0 minutes 23 seconds 88 msec
