                         Program Version 4.2.1 -  RELEASE  -
|  1> ! wB97X-D3 SP def2-SVP
|  2> %pal
|  3> nprocs 24
|  4> end
|  5>
|  6> * xyz 0 1
|  7> S 	 -109.464 	 22.5636 	 -113.277
|  8> C 	 -108.683 	 21.1092 	 -112.755
|  9> C 	 -108.138 	 20.3931 	 -113.815
| 10> C 	 -108.368 	 21.1068 	 -115.038
| 11> C 	 -109.141 	 22.2646 	 -114.936
| 12> H 	 -108.01 	 20.8778 	 -116.046
| 13> C 	 -107.275 	 19.1397 	 -113.676
| 14> H 	 -107.9 	 18.2799 	 -113.764
| 15> H 	 -106.813 	 19.1297 	 -112.631
| 16> C 	 -106.092 	 19.1061 	 -114.682
| 17> H 	 -105.71 	 18.0843 	 -114.814
| 18> H 	 -106.471 	 19.4142 	 -115.695
| 19> C 	 -104.972 	 20.0871 	 -114.398
| 20> H 	 -104.254 	 20.0948 	 -115.242
| 21> H 	 -105.257 	 21.14 	 -114.172
| 22> H 	 -104.347 	 19.5809 	 -113.678
| 23> S 	 -109.643 	 24.9322 	 -115.489
| 24> C 	 -110.058 	 25.5307 	 -117.064
| 25> C 	 -110.098 	 24.4301 	 -117.924
| 26> C 	 -109.804 	 23.1094 	 -117.387
| 27> C 	 -109.55 	 23.1864 	 -115.993
| 28> H 	 -110.255 	 24.7526 	 -118.941
| 29> C 	 -110.092 	 21.8004 	 -118.122
| 30> H 	 -110.86 	 22.0087 	 -118.834
| 31> H 	 -110.368 	 21.1784 	 -117.297
| 32> C 	 -108.888 	 21.2275 	 -118.918
| 33> H 	 -108.004 	 21.535 	 -118.359
| 34> H 	 -108.763 	 21.8587 	 -119.78
| 35> C 	 -108.978 	 19.7085 	 -119.231
| 36> H 	 -108.311 	 19.2865 	 -119.964
| 37> H 	 -109.984 	 19.5997 	 -119.677
| 38> H 	 -108.772 	 19.0007 	 -118.383
| 39> H 	 -108.605 	 20.7886 	 -111.695
| 40> H 	 -110.242 	 26.5441 	 -117.32
| 41> *
| 42>
| 43>                          ****END OF INPUT****

CARTESIAN COORDINATES (ANGSTROEM)
---------------------------------
  S    -109.464000   22.563600  -113.277000
  C    -108.683000   21.109200  -112.755000
  C    -108.138000   20.393100  -113.815000
  C    -108.368000   21.106800  -115.038000
  C    -109.141000   22.264600  -114.936000
  H    -108.010000   20.877800  -116.046000
  C    -107.275000   19.139700  -113.676000
  H    -107.900000   18.279900  -113.764000
  H    -106.813000   19.129700  -112.631000
  C    -106.092000   19.106100  -114.682000
  H    -105.710000   18.084300  -114.814000
  H    -106.471000   19.414200  -115.695000
  C    -104.972000   20.087100  -114.398000
  H    -104.254000   20.094800  -115.242000
  H    -105.257000   21.140000  -114.172000
  H    -104.347000   19.580900  -113.678000
  S    -109.643000   24.932200  -115.489000
  C    -110.058000   25.530700  -117.064000
  C    -110.098000   24.430100  -117.924000
  C    -109.804000   23.109400  -117.387000
  C    -109.550000   23.186400  -115.993000
  H    -110.255000   24.752600  -118.941000
  C    -110.092000   21.800400  -118.122000
  H    -110.860000   22.008700  -118.834000
  H    -110.368000   21.178400  -117.297000
  C    -108.888000   21.227500  -118.918000
  H    -108.004000   21.535000  -118.359000
  H    -108.763000   21.858700  -119.780000
  C    -108.978000   19.708500  -119.231000
  H    -108.311000   19.286500  -119.964000
  H    -109.984000   19.599700  -119.677000
  H    -108.772000   19.000700  -118.383000
  H    -108.605000   20.788600  -111.695000
  H    -110.242000   26.544100  -117.320000

 Total Charge           Charge          ....    0
 Multiplicity           Mult            ....    1
 Number of Electrons    NEL             ....  134
 Basis Dimension        Dim             ....  322

ORBITAL ENERGIES
----------------

  NO   OCC          E(Eh)            E(eV)
   0   2.0000     -88.968059     -2420.9440
   1   2.0000     -88.961986     -2420.7787
   2   2.0000     -10.339707      -281.3577
   3   2.0000     -10.332083      -281.1503
   4   2.0000     -10.318927      -280.7923
   5   2.0000     -10.317873      -280.7636
   6   2.0000     -10.314681      -280.6767
   7   2.0000     -10.306547      -280.4554
   8   2.0000     -10.300307      -280.2856
   9   2.0000     -10.298148      -280.2269
  10   2.0000     -10.297644      -280.2131
  11   2.0000     -10.292042      -280.0607
  12   2.0000     -10.291247      -280.0391
  13   2.0000     -10.288821      -279.9730
  14   2.0000     -10.286962      -279.9225
  15   2.0000     -10.278234      -279.6850
  16   2.0000      -8.083538      -219.9643
  17   2.0000      -8.076133      -219.7628
  18   2.0000      -6.041998      -164.4111
  19   2.0000      -6.037843      -164.2980
  20   2.0000      -6.034748      -164.2138
  21   2.0000      -6.034397      -164.2043
  22   2.0000      -6.030574      -164.1003
  23   2.0000      -6.026962      -164.0020
  24   2.0000      -1.007596       -27.4181
  25   2.0000      -0.979906       -26.6646
  26   2.0000      -0.911918       -24.8146
  27   2.0000      -0.907834       -24.7034
  28   2.0000      -0.870234       -23.6803
  29   2.0000      -0.849915       -23.1274
  30   2.0000      -0.840763       -22.8783
  31   2.0000      -0.814412       -22.1613
  32   2.0000      -0.784030       -21.3345
  33   2.0000      -0.775389       -21.0994
  34   2.0000      -0.712229       -19.3807
  35   2.0000      -0.701913       -19.1000
  36   2.0000      -0.689219       -18.7546
  37   2.0000      -0.659023       -17.9329
  38   2.0000      -0.639731       -17.4080
  39   2.0000      -0.622282       -16.9332
  40   2.0000      -0.590866       -16.0783
  41   2.0000      -0.572035       -15.5659
  42   2.0000      -0.564688       -15.3659
  43   2.0000      -0.556441       -15.1415
  44   2.0000      -0.539263       -14.6741
  45   2.0000      -0.527645       -14.3580
  46   2.0000      -0.518530       -14.1099
  47   2.0000      -0.510541       -13.8925
  48   2.0000      -0.508280       -13.8310
  49   2.0000      -0.498967       -13.5776
  50   2.0000      -0.488740       -13.2993
  51   2.0000      -0.485000       -13.1975
  52   2.0000      -0.469501       -12.7758
  53   2.0000      -0.465397       -12.6641
  54   2.0000      -0.459212       -12.4958
  55   2.0000      -0.447714       -12.1829
  56   2.0000      -0.445321       -12.1178
  57   2.0000      -0.438000       -11.9186
  58   2.0000      -0.430167       -11.7054
  59   2.0000      -0.427443       -11.6313
  60   2.0000      -0.420143       -11.4327
  61   2.0000      -0.406580       -11.0636
  62   2.0000      -0.405378       -11.0309
  63   2.0000      -0.358245        -9.7483
  64   2.0000      -0.333387        -9.0719
  65   2.0000      -0.326694        -8.8898
  66   2.0000      -0.285464        -7.7679
  67   0.0000       0.018222         0.4959
  68   0.0000       0.078903         2.1471
  69   0.0000       0.110326         3.0021
  70   0.0000       0.117226         3.1899
  71   0.0000       0.127117         3.4590

MULLIKEN ATOMIC CHARGES
-----------------------
   0 S :    0.119616
   1 C :   -0.135663
   2 C :   -0.087418
   3 C :    0.000507
   4 C :   -0.132625
   5 H :   -0.002888
   6 C :    0.097452
   7 H :    0.039216
   8 H :    0.031759
   9 C :   -0.114705
  10 H :    0.030769
  11 H :    0.028761
  12 C :   -0.049727
  13 H :    0.026977
  14 H :    0.065011
  15 H :    0.019597
  16 S :    0.070646
  17 C :   -0.081239
  18 C :   -0.048666
  19 C :   -0.051320
  20 C :   -0.136866
  21 H :    0.016358
  22 C :    0.080783
  23 H :    0.026923
  24 H :    0.033889
  25 C :   -0.066571
  26 H :    0.025387
  27 H :    0.017142
  28 C :   -0.050747
  29 H :    0.029301
  30 H :    0.036951
  31 H :    0.044363
  32 H :    0.062910
  33 H :    0.054117
Sum of atomic charges:    0.0000000

LOEWDIN ATOMIC CHARGES
----------------------
   0 S :    0.432445
   1 C :   -0.206096
   2 C :   -0.066318
   3 C :   -0.070335
   4 C :   -0.210574
   5 H :    0.028473
   6 C :   -0.028125
   7 H :    0.029853
   8 H :    0.037133
   9 C :   -0.047320
  10 H :    0.026698
  11 H :    0.022292
  12 C :   -0.072632
  13 H :    0.030195
  14 H :    0.036018
  15 H :    0.022815
  16 S :    0.376396
  17 C :   -0.184312
  18 C :   -0.077862
  19 C :   -0.055393
  20 C :   -0.169563
  21 H :    0.027768
  22 C :   -0.020687
  23 H :    0.029454
  24 H :    0.031666
  25 C :   -0.044512
  26 H :    0.018344
  27 H :    0.023492
  28 C :   -0.073960
  29 H :    0.024590
  30 H :    0.031338
  31 H :    0.033069
  32 H :    0.037102
  33 H :    0.028547

  Mayer bond orders larger than 0.100000
B(  0-S ,  1-C ) :   1.1574 B(  0-S ,  4-C ) :   1.1613 B(  1-C ,  2-C ) :   1.5908
B(  1-C , 32-H ) :   0.9640 B(  2-C ,  3-C ) :   1.2561 B(  2-C ,  6-C ) :   1.0038
B(  3-C ,  4-C ) :   1.5505 B(  3-C ,  5-H ) :   0.9898 B(  4-C , 20-C ) :   1.0669
B(  6-C ,  7-H ) :   0.9324 B(  6-C ,  8-H ) :   0.9497 B(  6-C ,  9-C ) :   1.0695
B(  9-C , 10-H ) :   0.9549 B(  9-C , 11-H ) :   0.9566 B(  9-C , 12-C ) :   1.0780
B( 12-C , 13-H ) :   0.9702 B( 12-C , 14-H ) :   0.9739 B( 12-C , 15-H ) :   0.9720
B( 16-S , 17-C ) :   1.1507 B( 16-S , 20-C ) :   1.1336 B( 17-C , 18-C ) :   1.6119
B( 17-C , 20-C ) :   0.1037 B( 17-C , 33-H ) :   0.9739 B( 18-C , 19-C ) :   1.2240
B( 18-C , 21-H ) :   0.9901 B( 19-C , 20-C ) :   1.5640 B( 19-C , 22-C ) :   1.0379
B( 22-C , 23-H ) :   0.9378 B( 22-C , 24-H ) :   0.9440 B( 22-C , 25-C ) :   1.0459
B( 25-C , 26-H ) :   0.9601 B( 25-C , 27-H ) :   0.9509 B( 25-C , 28-C ) :   1.0641
B( 28-C , 29-H ) :   0.9759 B( 28-C , 30-H ) :   0.9736 B( 28-C , 31-H ) :   0.9756

Dispersion correction           -0.014498473
FINAL SINGLE POINT ENERGY     -1339.871428983839

DIPOLE MOMENT
-------------
                                X             Y             Z
Electronic contribution:    -14.01150      22.36263      13.88821
Nuclear contribution   :     14.28724     -22.83655     -14.32842
                        -----------------------------------------
Total Dipole Moment    :      0.27573      -0.47392      -0.44021
                        -----------------------------------------
Magnitude (a.u.)       :      0.70315
Magnitude (Debye)      :      1.78726

Rotational constants in cm-1:     0.016395     0.010098     0.007118
Rotational constants in MHz :   491.518427   302.741671   213.382865

                             ****ORCA TERMINATED NORMALLY****
TOTAL RUN TIME: 0 days 0 hours 0 minutes 22 seconds 43 msec
