                         Program Version 4.2.1 -  RELEASE  -
|  1> ! wB97X-D3 SP def2-SVP
|  2> %pal
|  3> nprocs 24
|  4> end
|  5>
|  6> * xyz 0 1
|  7> S 	 -91.2403 	 5.43565 	 -0.712491
|  8> C 	 -90.1691 	 4.05033 	 -0.356096
|  9> C 	 -90.3343 	 3.65558 	 0.974736
| 10> C 	 -91.3503 	 4.45264 	 1.68505
| 11> C 	 -91.9754 	 5.37332 	 0.921607
| 12> H 	 -91.6009 	 4.52648 	 2.7197
| 13> C 	 -89.4216 	 2.65092 	 1.6342
| 14> H 	 -89.2651 	 3.02738 	 2.68293
| 15> H 	 -88.3822 	 2.60602 	 1.21943
| 16> C 	 -89.9847 	 1.24652 	 1.72829
| 17> H 	 -90.9723 	 1.28346 	 2.16441
| 18> H 	 -90.0159 	 0.808751 	 0.771096
| 19> C 	 -89.1286 	 0.280434 	 2.61431
| 20> H 	 -88.2749 	 -0.206485 	 2.09526
| 21> H 	 -88.6538 	 0.843043 	 3.44415
| 22> H 	 -89.7469 	 -0.538844 	 2.87582
| 23> S 	 -94.6005 	 5.86654 	 0.235572
| 24> C 	 -95.5318 	 6.95603 	 1.16951
| 25> C 	 -94.8716 	 7.47207 	 2.25197
| 26> C 	 -93.4868 	 7.00073 	 2.29114
| 27> C 	 -93.1558 	 6.09227 	 1.29743
| 28> H 	 -95.313 	 8.13096 	 2.97051
| 29> C 	 -92.5482 	 7.47262 	 3.43622
| 30> H 	 -91.8454 	 8.23967 	 3.10815
| 31> H 	 -91.8906 	 6.61162 	 3.78438
| 32> C 	 -93.1604 	 8.02135 	 4.76774
| 33> H 	 -93.7179 	 8.91882 	 4.57967
| 34> H 	 -92.4902 	 8.49529 	 5.55655
| 35> C 	 -93.945 	 6.96289 	 5.66542
| 36> H 	 -94.7147 	 6.38786 	 5.13498
| 37> H 	 -94.4685 	 7.48778 	 6.46065
| 38> H 	 -93.3482 	 6.16074 	 6.06342
| 39> H 	 -89.4441 	 3.61451 	 -1.10842
| 40> H 	 -96.5164 	 7.36568 	 1.01801
| 41> *
| 42>
| 43>                          ****END OF INPUT****

CARTESIAN COORDINATES (ANGSTROEM)
---------------------------------
  S    -91.240300    5.435650   -0.712491
  C    -90.169100    4.050330   -0.356096
  C    -90.334300    3.655580    0.974736
  C    -91.350300    4.452640    1.685050
  C    -91.975400    5.373320    0.921607
  H    -91.600900    4.526480    2.719700
  C    -89.421600    2.650920    1.634200
  H    -89.265100    3.027380    2.682930
  H    -88.382200    2.606020    1.219430
  C    -89.984700    1.246520    1.728290
  H    -90.972300    1.283460    2.164410
  H    -90.015900    0.808751    0.771096
  C    -89.128600    0.280434    2.614310
  H    -88.274900   -0.206485    2.095260
  H    -88.653800    0.843043    3.444150
  H    -89.746900   -0.538844    2.875820
  S    -94.600500    5.866540    0.235572
  C    -95.531800    6.956030    1.169510
  C    -94.871600    7.472070    2.251970
  C    -93.486800    7.000730    2.291140
  C    -93.155800    6.092270    1.297430
  H    -95.313000    8.130960    2.970510
  C    -92.548200    7.472620    3.436220
  H    -91.845400    8.239670    3.108150
  H    -91.890600    6.611620    3.784380
  C    -93.160400    8.021350    4.767740
  H    -93.717900    8.918820    4.579670
  H    -92.490200    8.495290    5.556550
  C    -93.945000    6.962890    5.665420
  H    -94.714700    6.387860    5.134980
  H    -94.468500    7.487780    6.460650
  H    -93.348200    6.160740    6.063420
  H    -89.444100    3.614510   -1.108420
  H    -96.516400    7.365680    1.018010

 Total Charge           Charge          ....    0
 Multiplicity           Mult            ....    1
 Number of Electrons    NEL             ....  134
 Basis Dimension        Dim             ....  322

ORBITAL ENERGIES
----------------

  NO   OCC          E(Eh)            E(eV)
   0   2.0000     -88.965991     -2420.8877
   1   2.0000     -88.964271     -2420.8409
   2   2.0000     -10.330646      -281.1112
   3   2.0000     -10.329083      -281.0686
   4   2.0000     -10.326179      -280.9896
   5   2.0000     -10.314491      -280.6716
   6   2.0000     -10.313679      -280.6495
   7   2.0000     -10.310576      -280.5650
   8   2.0000     -10.304513      -280.4001
   9   2.0000     -10.299273      -280.2575
  10   2.0000     -10.296416      -280.1797
  11   2.0000     -10.296311      -280.1769
  12   2.0000     -10.292815      -280.0817
  13   2.0000     -10.280536      -279.7476
  14   2.0000     -10.279853      -279.7290
  15   2.0000     -10.278739      -279.6987
  16   2.0000      -8.080587      -219.8839
  17   2.0000      -8.077918      -219.8113
  18   2.0000      -6.039240      -164.3361
  19   2.0000      -6.036586      -164.2639
  20   2.0000      -6.035045      -164.2219
  21   2.0000      -6.032654      -164.1569
  22   2.0000      -6.031238      -164.1183
  23   2.0000      -6.028473      -164.0431
  24   2.0000      -1.002410       -27.2770
  25   2.0000      -0.977891       -26.6098
  26   2.0000      -0.910737       -24.7824
  27   2.0000      -0.897404       -24.4196
  28   2.0000      -0.873455       -23.7679
  29   2.0000      -0.844620       -22.9833
  30   2.0000      -0.839023       -22.8310
  31   2.0000      -0.818405       -22.2699
  32   2.0000      -0.783046       -21.3078
  33   2.0000      -0.769666       -20.9437
  34   2.0000      -0.711196       -19.3526
  35   2.0000      -0.698148       -18.9976
  36   2.0000      -0.696372       -18.9493
  37   2.0000      -0.658132       -17.9087
  38   2.0000      -0.646254       -17.5855
  39   2.0000      -0.614756       -16.7284
  40   2.0000      -0.593403       -16.1473
  41   2.0000      -0.569674       -15.5016
  42   2.0000      -0.561679       -15.2841
  43   2.0000      -0.548177       -14.9167
  44   2.0000      -0.531407       -14.4603
  45   2.0000      -0.523520       -14.2457
  46   2.0000      -0.514464       -13.9993
  47   2.0000      -0.512587       -13.9482
  48   2.0000      -0.504778       -13.7357
  49   2.0000      -0.502251       -13.6669
  50   2.0000      -0.498871       -13.5750
  51   2.0000      -0.473532       -12.8855
  52   2.0000      -0.466769       -12.7014
  53   2.0000      -0.465530       -12.6677
  54   2.0000      -0.456994       -12.4354
  55   2.0000      -0.445081       -12.1113
  56   2.0000      -0.441084       -12.0025
  57   2.0000      -0.438809       -11.9406
  58   2.0000      -0.436115       -11.8673
  59   2.0000      -0.426909       -11.6168
  60   2.0000      -0.424177       -11.5425
  61   2.0000      -0.408626       -11.1193
  62   2.0000      -0.401399       -10.9226
  63   2.0000      -0.346743        -9.4353
  64   2.0000      -0.331830        -9.0295
  65   2.0000      -0.323539        -8.8039
  66   2.0000      -0.299385        -8.1467
  67   0.0000       0.030200         0.8218
  68   0.0000       0.063829         1.7369
  69   0.0000       0.103769         2.8237
  70   0.0000       0.118704         3.2301
  71   0.0000       0.134131         3.6499

MULLIKEN ATOMIC CHARGES
-----------------------
   0 S :    0.096274
   1 C :   -0.146385
   2 C :   -0.054229
   3 C :    0.052087
   4 C :   -0.155613
   5 H :    0.007637
   6 C :    0.011208
   7 H :    0.027156
   8 H :    0.034825
   9 C :   -0.050799
  10 H :    0.030741
  11 H :    0.021266
  12 C :   -0.052121
  13 H :    0.028301
  14 H :    0.031579
  15 H :    0.031959
  16 S :    0.114924
  17 C :   -0.051200
  18 C :   -0.048697
  19 C :   -0.015079
  20 C :   -0.173888
  21 H :    0.017163
  22 C :    0.051889
  23 H :    0.049715
  24 H :    0.034244
  25 C :   -0.114655
  26 H :    0.022042
  27 H :    0.038321
  28 C :   -0.061641
  29 H :    0.028711
  30 H :    0.034732
  31 H :    0.029679
  32 H :    0.081436
  33 H :    0.048419
Sum of atomic charges:    0.0000000

LOEWDIN ATOMIC CHARGES
----------------------
   0 S :    0.364708
   1 C :   -0.188665
   2 C :   -0.061669
   3 C :   -0.052650
   4 C :   -0.184684
   5 H :    0.030192
   6 C :   -0.041606
   7 H :    0.033359
   8 H :    0.033796
   9 C :   -0.035593
  10 H :    0.024606
  11 H :    0.018902
  12 C :   -0.067492
  13 H :    0.026213
  14 H :    0.025897
  15 H :    0.022680
  16 S :    0.404415
  17 C :   -0.192009
  18 C :   -0.074097
  19 C :   -0.047048
  20 C :   -0.185406
  21 H :    0.029147
  22 C :   -0.037325
  23 H :    0.037951
  24 H :    0.034820
  25 C :   -0.053869
  26 H :    0.016278
  27 H :    0.038855
  28 C :   -0.072315
  29 H :    0.023161
  30 H :    0.026945
  31 H :    0.022660
  32 H :    0.045790
  33 H :    0.034055

  Mayer bond orders larger than 0.100000
B(  0-S ,  1-C ) :   1.1213 B(  0-S ,  4-C ) :   1.1146 B(  1-C ,  2-C ) :   1.6327
B(  1-C , 32-H ) :   0.9632 B(  2-C ,  3-C ) :   1.1876 B(  2-C ,  6-C ) :   1.0248
B(  3-C ,  4-C ) :   1.6322 B(  3-C ,  5-H ) :   0.9909 B(  4-C , 20-C ) :   1.0599
B(  6-C ,  7-H ) :   0.9393 B(  6-C ,  8-H ) :   0.9490 B(  6-C ,  9-C ) :   1.0711
B(  9-C , 10-H ) :   0.9593 B(  9-C , 11-H ) :   0.9537 B(  9-C , 12-C ) :   1.0748
B( 12-C , 13-H ) :   0.9758 B( 12-C , 14-H ) :   0.9769 B( 12-C , 15-H ) :   0.9764
B( 16-S , 17-C ) :   1.1575 B( 16-S , 20-C ) :   1.1097 B( 17-C , 18-C ) :   1.6305
B( 17-C , 33-H ) :   0.9563 B( 18-C , 19-C ) :   1.2295 B( 18-C , 21-H ) :   0.9868
B( 19-C , 20-C ) :   1.6329 B( 19-C , 22-C ) :   1.0152 B( 22-C , 23-H ) :   0.9330
B( 22-C , 24-H ) :   0.9477 B( 22-C , 25-C ) :   1.0677 B( 25-C , 26-H ) :   0.9519
B( 25-C , 27-H ) :   0.9560 B( 25-C , 28-C ) :   1.0616 B( 28-C , 29-H ) :   0.9788
B( 28-C , 30-H ) :   0.9770 B( 28-C , 31-H ) :   0.9770

Dispersion correction           -0.013599207
FINAL SINGLE POINT ENERGY     -1339.862026865538

DIPOLE MOMENT
-------------
                                X             Y             Z
Electronic contribution:     -9.33595       9.60377     -24.49193
Nuclear contribution   :      9.52523      -9.63481      25.10419
                        -----------------------------------------
Total Dipole Moment    :      0.18928      -0.03105       0.61225
                        -----------------------------------------
Magnitude (a.u.)       :      0.64160
Magnitude (Debye)      :      1.63081

Rotational constants in cm-1:     0.018209     0.007642     0.006182
Rotational constants in MHz :   545.903563   229.105914   185.318602

                             ****ORCA TERMINATED NORMALLY****
TOTAL RUN TIME: 0 days 0 hours 0 minutes 19 seconds 586 msec
