                         Program Version 4.2.1 -  RELEASE  -
|  1> ! wB97X-D3 SP def2-SVP
|  2> %pal
|  3> nprocs 24
|  4> end
|  5>
|  6> * xyz 0 1
|  7> S 	 -129.208 	 62.5625 	 -58.2999
|  8> C 	 -128.017 	 63.6411 	 -58.9718
|  9> C 	 -127.072 	 62.9463 	 -59.732
| 10> C 	 -127.229 	 61.4924 	 -59.5817
| 11> C 	 -128.198 	 61.1678 	 -58.6714
| 12> H 	 -126.569 	 60.7495 	 -60.1237
| 13> C 	 -125.961 	 63.5339 	 -60.6337
| 14> H 	 -125.129 	 62.9222 	 -60.715
| 15> H 	 -125.619 	 64.3954 	 -59.9875
| 16> C 	 -126.39 	 63.9883 	 -62.0013
| 17> H 	 -127.231 	 64.6836 	 -61.9793
| 18> H 	 -125.551 	 64.6479 	 -62.3671
| 19> C 	 -126.587 	 62.824 	 -62.9437
| 20> H 	 -126.488 	 62.9991 	 -63.9999
| 21> H 	 -125.886 	 62.0741 	 -62.6153
| 22> H 	 -127.606 	 62.4365 	 -62.9496
| 23> S 	 -130.133 	 59.401 	 -59.4821
| 24> C 	 -130.115 	 57.7628 	 -58.9786
| 25> C 	 -129.056 	 57.596 	 -58.1114
| 26> C 	 -128.356 	 58.7567 	 -57.738
| 27> C 	 -128.825 	 59.8871 	 -58.402
| 28> H 	 -128.824 	 56.5859 	 -57.7847
| 29> C 	 -127.229 	 58.6518 	 -56.7056
| 30> H 	 -126.258 	 59.021 	 -57.0798
| 31> H 	 -127.105 	 57.5736 	 -56.5081
| 32> C 	 -127.51 	 59.5154 	 -55.4731
| 33> H 	 -128.442 	 59.093 	 -55.0801
| 34> H 	 -127.929 	 60.5254 	 -55.524
| 35> C 	 -126.39 	 59.376 	 -54.3741
| 36> H 	 -126.268 	 58.2946 	 -54.1475
| 37> H 	 -126.836 	 59.9665 	 -53.5736
| 38> H 	 -125.474 	 59.8265 	 -54.8182
| 39> H 	 -127.978 	 64.6685 	 -58.7221
| 40> H 	 -130.761 	 57.0195 	 -59.315
| 41> *
| 42>
| 43>                          ****END OF INPUT****

CARTESIAN COORDINATES (ANGSTROEM)
---------------------------------
  S    -129.208000   62.562500  -58.299900
  C    -128.017000   63.641100  -58.971800
  C    -127.072000   62.946300  -59.732000
  C    -127.229000   61.492400  -59.581700
  C    -128.198000   61.167800  -58.671400
  H    -126.569000   60.749500  -60.123700
  C    -125.961000   63.533900  -60.633700
  H    -125.129000   62.922200  -60.715000
  H    -125.619000   64.395400  -59.987500
  C    -126.390000   63.988300  -62.001300
  H    -127.231000   64.683600  -61.979300
  H    -125.551000   64.647900  -62.367100
  C    -126.587000   62.824000  -62.943700
  H    -126.488000   62.999100  -63.999900
  H    -125.886000   62.074100  -62.615300
  H    -127.606000   62.436500  -62.949600
  S    -130.133000   59.401000  -59.482100
  C    -130.115000   57.762800  -58.978600
  C    -129.056000   57.596000  -58.111400
  C    -128.356000   58.756700  -57.738000
  C    -128.825000   59.887100  -58.402000
  H    -128.824000   56.585900  -57.784700
  C    -127.229000   58.651800  -56.705600
  H    -126.258000   59.021000  -57.079800
  H    -127.105000   57.573600  -56.508100
  C    -127.510000   59.515400  -55.473100
  H    -128.442000   59.093000  -55.080100
  H    -127.929000   60.525400  -55.524000
  C    -126.390000   59.376000  -54.374100
  H    -126.268000   58.294600  -54.147500
  H    -126.836000   59.966500  -53.573600
  H    -125.474000   59.826500  -54.818200
  H    -127.978000   64.668500  -58.722100
  H    -130.761000   57.019500  -59.315000

 Total Charge           Charge          ....    0
 Multiplicity           Mult            ....    1
 Number of Electrons    NEL             ....  134
 Basis Dimension        Dim             ....  322

ORBITAL ENERGIES
----------------

  NO   OCC          E(Eh)            E(eV)
   0   2.0000     -88.962088     -2420.7815
   1   2.0000     -88.961328     -2420.7608
   2   2.0000     -10.327222      -281.0180
   3   2.0000     -10.322166      -280.8804
   4   2.0000     -10.313841      -280.6539
   5   2.0000     -10.310161      -280.5537
   6   2.0000     -10.307939      -280.4933
   7   2.0000     -10.303218      -280.3648
   8   2.0000     -10.300995      -280.3043
   9   2.0000     -10.294623      -280.1309
  10   2.0000     -10.292640      -280.0770
  11   2.0000     -10.287946      -279.9493
  12   2.0000     -10.287434      -279.9353
  13   2.0000     -10.282403      -279.7984
  14   2.0000     -10.280750      -279.7534
  15   2.0000     -10.272664      -279.5334
  16   2.0000      -8.077126      -219.7898
  17   2.0000      -8.076567      -219.7746
  18   2.0000      -6.035697      -164.2397
  19   2.0000      -6.034989      -164.2204
  20   2.0000      -6.031695      -164.1308
  21   2.0000      -6.030834      -164.1073
  22   2.0000      -6.027695      -164.0219
  23   2.0000      -6.027535      -164.0176
  24   2.0000      -1.007343       -27.4112
  25   2.0000      -0.983281       -26.7564
  26   2.0000      -0.916218       -24.9315
  27   2.0000      -0.904190       -24.6043
  28   2.0000      -0.869476       -23.6596
  29   2.0000      -0.846877       -23.0447
  30   2.0000      -0.842466       -22.9247
  31   2.0000      -0.812090       -22.0981
  32   2.0000      -0.781994       -21.2791
  33   2.0000      -0.770602       -20.9691
  34   2.0000      -0.704108       -19.1597
  35   2.0000      -0.702636       -19.1197
  36   2.0000      -0.690252       -18.7827
  37   2.0000      -0.660249       -17.9663
  38   2.0000      -0.643969       -17.5233
  39   2.0000      -0.612860       -16.6768
  40   2.0000      -0.598911       -16.2972
  41   2.0000      -0.578304       -15.7364
  42   2.0000      -0.555731       -15.1222
  43   2.0000      -0.551747       -15.0138
  44   2.0000      -0.540166       -14.6987
  45   2.0000      -0.525727       -14.3058
  46   2.0000      -0.515236       -14.0203
  47   2.0000      -0.513818       -13.9817
  48   2.0000      -0.503844       -13.7103
  49   2.0000      -0.497383       -13.5345
  50   2.0000      -0.486419       -13.2361
  51   2.0000      -0.477665       -12.9979
  52   2.0000      -0.475428       -12.9371
  53   2.0000      -0.464843       -12.6490
  54   2.0000      -0.455991       -12.4081
  55   2.0000      -0.452819       -12.3218
  56   2.0000      -0.442980       -12.0541
  57   2.0000      -0.437277       -11.8989
  58   2.0000      -0.430451       -11.7132
  59   2.0000      -0.426485       -11.6052
  60   2.0000      -0.411592       -11.2000
  61   2.0000      -0.403263       -10.9733
  62   2.0000      -0.399510       -10.8712
  63   2.0000      -0.339253        -9.2316
  64   2.0000      -0.326015        -8.8713
  65   2.0000      -0.322292        -8.7700
  66   2.0000      -0.301501        -8.2043
  67   0.0000       0.038403         1.0450
  68   0.0000       0.049714         1.3528
  69   0.0000       0.109271         2.9734
  70   0.0000       0.122892         3.3441
  71   0.0000       0.129484         3.5234

MULLIKEN ATOMIC CHARGES
-----------------------
   0 S :    0.091919
   1 C :   -0.099009
   2 C :   -0.113706
   3 C :    0.033417
   4 C :   -0.159302
   5 H :    0.042694
   6 C :    0.052856
   7 H :    0.008225
   8 H :    0.032158
   9 C :   -0.054316
  10 H :    0.026074
  11 H :    0.031801
  12 C :   -0.032494
  13 H :    0.027603
  14 H :    0.019067
  15 H :    0.038397
  16 S :    0.112297
  17 C :   -0.069116
  18 C :   -0.051984
  19 C :   -0.031211
  20 C :   -0.159912
  21 H :    0.012884
  22 C :    0.116845
  23 H :    0.023100
  24 H :    0.020785
  25 C :   -0.134502
  26 H :    0.010907
  27 H :    0.038072
  28 C :   -0.038567
  29 H :    0.040168
  30 H :    0.042973
  31 H :    0.044164
  32 H :    0.040779
  33 H :    0.036934
Sum of atomic charges:    0.0000000

LOEWDIN ATOMIC CHARGES
----------------------
   0 S :    0.400667
   1 C :   -0.191823
   2 C :   -0.057219
   3 C :   -0.057555
   4 C :   -0.195377
   5 H :    0.044109
   6 C :   -0.031162
   7 H :    0.016933
   8 H :    0.040751
   9 C :   -0.042813
  10 H :    0.023249
  11 H :    0.030470
  12 C :   -0.067252
  13 H :    0.025740
  14 H :    0.022203
  15 H :    0.031448
  16 S :    0.422824
  17 C :   -0.186446
  18 C :   -0.079656
  19 C :   -0.054010
  20 C :   -0.213752
  21 H :    0.027970
  22 C :   -0.027135
  23 H :    0.028026
  24 H :    0.032105
  25 C :   -0.055916
  26 H :    0.021316
  27 H :    0.029417
  28 C :   -0.063688
  29 H :    0.028347
  30 H :    0.030343
  31 H :    0.027790
  32 H :    0.020143
  33 H :    0.019953

  Mayer bond orders larger than 0.100000
B(  0-S ,  1-C ) :   1.1409 B(  0-S ,  4-C ) :   1.1403 B(  1-C ,  2-C ) :   1.6169
B(  1-C , 32-H ) :   0.9754 B(  2-C ,  3-C ) :   1.2209 B(  2-C ,  6-C ) :   1.0110
B(  3-C ,  4-C ) :   1.6050 B(  3-C ,  5-H ) :   0.9867 B(  4-C , 20-C ) :   0.9925
B(  6-C ,  7-H ) :   0.9453 B(  6-C ,  8-H ) :   0.9372 B(  6-C ,  9-C ) :   1.0847
B(  9-C , 10-H ) :   0.9557 B(  9-C , 11-H ) :   0.9518 B(  9-C , 12-C ) :   1.0674
B( 12-C , 13-H ) :   0.9724 B( 12-C , 14-H ) :   0.9758 B( 12-C , 15-H ) :   0.9719
B( 16-S , 17-C ) :   1.1796 B( 16-S , 20-C ) :   1.1533 B( 17-C , 18-C ) :   1.5657
B( 17-C , 20-C ) :   0.1064 B( 17-C , 33-H ) :   0.9778 B( 18-C , 19-C ) :   1.2925
B( 18-C , 21-H ) :   0.9891 B( 19-C , 20-C ) :   1.5683 B( 19-C , 22-C ) :   1.0348
B( 22-C , 23-H ) :   0.9315 B( 22-C , 24-H ) :   0.9368 B( 22-C , 25-C ) :   1.0432
B( 25-C , 26-H ) :   0.9479 B( 25-C , 27-H ) :   0.9612 B( 25-C , 28-C ) :   1.0717
B( 28-C , 29-H ) :   0.9752 B( 28-C , 30-H ) :   0.9753 B( 28-C , 31-H ) :   0.9777

Dispersion correction           -0.014142507
FINAL SINGLE POINT ENERGY     -1339.857348239506

DIPOLE MOMENT
-------------
                                X             Y             Z
Electronic contribution:    -18.41759      -2.02984      -0.84881
Nuclear contribution   :     18.91459       1.93841       0.65153
                        -----------------------------------------
Total Dipole Moment    :      0.49699      -0.09143      -0.19729
                        -----------------------------------------
Magnitude (a.u.)       :      0.54248
Magnitude (Debye)      :      1.37887

Rotational constants in cm-1:     0.018781     0.008428     0.007132
Rotational constants in MHz :   563.034345   252.662146   213.818538

                             ****ORCA TERMINATED NORMALLY****
TOTAL RUN TIME: 0 days 0 hours 0 minutes 22 seconds 423 msec
