                         Program Version 4.2.1 -  RELEASE  -
|  1> ! wB97X-D3 SP def2-SVP
|  2> %pal
|  3> nprocs 24
|  4> end
|  5>
|  6> * xyz 0 1
|  7> S 	 -72.4086 	 16.5078 	 -73.5082
|  8> C 	 -70.8855 	 15.6393 	 -73.3549
|  9> C 	 -70.1036 	 15.87 	 -74.4855
| 10> C 	 -70.6091 	 16.8773 	 -75.3448
| 11> C 	 -71.8179 	 17.3835 	 -74.9187
| 12> H 	 -70.1009 	 17.2175 	 -76.1968
| 13> C 	 -68.6498 	 15.3969 	 -74.577
| 14> H 	 -68.6317 	 14.4288 	 -75.1115
| 15> H 	 -68.4091 	 15.1801 	 -73.5268
| 16> C 	 -67.5855 	 16.3212 	 -75.0782
| 17> H 	 -66.7386 	 15.707 	 -75.5058
| 18> H 	 -67.9763 	 16.7928 	 -75.9566
| 19> C 	 -67.1009 	 17.3405 	 -74.1062
| 20> H 	 -67.282 	 17.0319 	 -73.0692
| 21> H 	 -66.081 	 17.6793 	 -74.1012
| 22> H 	 -67.6505 	 18.2762 	 -74.1446
| 23> S 	 -74.263 	 17.9724 	 -76.0509
| 24> C 	 -74.43 	 19.4938 	 -76.7923
| 25> C 	 -73.2984 	 20.2924 	 -76.8269
| 26> C 	 -72.293 	 19.6411 	 -76.1161
| 27> C 	 -72.6379 	 18.4141 	 -75.5856
| 28> H 	 -73.2477 	 21.3156 	 -77.3287
| 29> C 	 -71.0156 	 20.425 	 -75.8407
| 30> H 	 -70.6499 	 20.1747 	 -74.8819
| 31> H 	 -71.2399 	 21.3882 	 -75.7425
| 32> C 	 -69.8793 	 20.2463 	 -76.8527
| 33> H 	 -70.2514 	 20.6632 	 -77.8186
| 34> H 	 -69.6531 	 19.2111 	 -76.997
| 35> C 	 -68.6103 	 20.9518 	 -76.4319
| 36> H 	 -67.9097 	 20.8344 	 -77.3615
| 37> H 	 -68.1339 	 20.4032 	 -75.5406
| 38> H 	 -68.7578 	 21.9676 	 -76.1277
| 39> H 	 -70.6559 	 14.8434 	 -72.6221
| 40> H 	 -75.3241 	 19.8302 	 -77.3431
| 41> *
| 42>
| 43>                          ****END OF INPUT****

CARTESIAN COORDINATES (ANGSTROEM)
---------------------------------
  S    -72.408600   16.507800  -73.508200
  C    -70.885500   15.639300  -73.354900
  C    -70.103600   15.870000  -74.485500
  C    -70.609100   16.877300  -75.344800
  C    -71.817900   17.383500  -74.918700
  H    -70.100900   17.217500  -76.196800
  C    -68.649800   15.396900  -74.577000
  H    -68.631700   14.428800  -75.111500
  H    -68.409100   15.180100  -73.526800
  C    -67.585500   16.321200  -75.078200
  H    -66.738600   15.707000  -75.505800
  H    -67.976300   16.792800  -75.956600
  C    -67.100900   17.340500  -74.106200
  H    -67.282000   17.031900  -73.069200
  H    -66.081000   17.679300  -74.101200
  H    -67.650500   18.276200  -74.144600
  S    -74.263000   17.972400  -76.050900
  C    -74.430000   19.493800  -76.792300
  C    -73.298400   20.292400  -76.826900
  C    -72.293000   19.641100  -76.116100
  C    -72.637900   18.414100  -75.585600
  H    -73.247700   21.315600  -77.328700
  C    -71.015600   20.425000  -75.840700
  H    -70.649900   20.174700  -74.881900
  H    -71.239900   21.388200  -75.742500
  C    -69.879300   20.246300  -76.852700
  H    -70.251400   20.663200  -77.818600
  H    -69.653100   19.211100  -76.997000
  C    -68.610300   20.951800  -76.431900
  H    -67.909700   20.834400  -77.361500
  H    -68.133900   20.403200  -75.540600
  H    -68.757800   21.967600  -76.127700
  H    -70.655900   14.843400  -72.622100
  H    -75.324100   19.830200  -77.343100

 Total Charge           Charge          ....    0
 Multiplicity           Mult            ....    1
 Number of Electrons    NEL             ....  134
 Basis Dimension        Dim             ....  322

ORBITAL ENERGIES
----------------

  NO   OCC          E(Eh)            E(eV)
   0   2.0000     -88.969607     -2420.9861
   1   2.0000     -88.966881     -2420.9119
   2   2.0000     -10.331699      -281.1398
   3   2.0000     -10.323430      -280.9148
   4   2.0000     -10.317071      -280.7418
   5   2.0000     -10.314612      -280.6749
   6   2.0000     -10.299485      -280.2632
   7   2.0000     -10.297462      -280.2082
   8   2.0000     -10.294807      -280.1359
   9   2.0000     -10.290668      -280.0233
  10   2.0000     -10.289423      -279.9894
  11   2.0000     -10.289328      -279.9869
  12   2.0000     -10.286825      -279.9188
  13   2.0000     -10.284427      -279.8535
  14   2.0000     -10.273182      -279.5475
  15   2.0000     -10.273158      -279.5468
  16   2.0000      -8.085214      -220.0098
  17   2.0000      -8.081192      -219.9004
  18   2.0000      -6.043440      -164.4504
  19   2.0000      -6.039735      -164.3495
  20   2.0000      -6.039682      -164.3481
  21   2.0000      -6.036132      -164.2515
  22   2.0000      -6.035718      -164.2402
  23   2.0000      -6.031980      -164.1385
  24   2.0000      -1.011013       -27.5111
  25   2.0000      -0.987700       -26.8767
  26   2.0000      -0.917645       -24.9704
  27   2.0000      -0.914584       -24.8871
  28   2.0000      -0.867961       -23.6184
  29   2.0000      -0.857527       -23.3345
  30   2.0000      -0.847006       -23.0482
  31   2.0000      -0.814863       -22.1736
  32   2.0000      -0.785154       -21.3651
  33   2.0000      -0.772991       -21.0342
  34   2.0000      -0.710122       -19.3234
  35   2.0000      -0.698438       -19.0055
  36   2.0000      -0.688767       -18.7423
  37   2.0000      -0.661250       -17.9935
  38   2.0000      -0.638118       -17.3641
  39   2.0000      -0.627841       -17.0844
  40   2.0000      -0.599326       -16.3085
  41   2.0000      -0.568832       -15.4787
  42   2.0000      -0.563657       -15.3379
  43   2.0000      -0.562556       -15.3079
  44   2.0000      -0.536362       -14.5952
  45   2.0000      -0.529666       -14.4130
  46   2.0000      -0.513958       -13.9855
  47   2.0000      -0.509307       -13.8590
  48   2.0000      -0.499029       -13.5793
  49   2.0000      -0.495748       -13.4900
  50   2.0000      -0.491721       -13.3804
  51   2.0000      -0.481687       -13.1074
  52   2.0000      -0.475984       -12.9522
  53   2.0000      -0.468786       -12.7563
  54   2.0000      -0.458926       -12.4880
  55   2.0000      -0.452386       -12.3100
  56   2.0000      -0.446645       -12.1538
  57   2.0000      -0.440620       -11.9899
  58   2.0000      -0.439538       -11.9604
  59   2.0000      -0.424080       -11.5398
  60   2.0000      -0.419353       -11.4112
  61   2.0000      -0.415652       -11.3105
  62   2.0000      -0.404407       -11.0045
  63   2.0000      -0.346015        -9.4155
  64   2.0000      -0.336550        -9.1580
  65   2.0000      -0.330431        -8.9915
  66   2.0000      -0.290779        -7.9125
  67   0.0000       0.030972         0.8428
  68   0.0000       0.067243         1.8298
  69   0.0000       0.111643         3.0380
  70   0.0000       0.116186         3.1616
  71   0.0000       0.128734         3.5030

MULLIKEN ATOMIC CHARGES
-----------------------
   0 S :    0.105908
   1 C :   -0.130699
   2 C :   -0.090209
   3 C :    0.060995
   4 C :   -0.146515
   5 H :   -0.020944
   6 C :    0.040284
   7 H :    0.042990
   8 H :    0.015551
   9 C :   -0.050834
  10 H :    0.034808
  11 H :    0.013657
  12 C :   -0.034843
  13 H :    0.018182
  14 H :    0.031821
  15 H :    0.022855
  16 S :    0.132240
  17 C :   -0.092934
  18 C :   -0.071176
  19 C :   -0.035913
  20 C :   -0.153228
  21 H :    0.050306
  22 C :    0.134060
  23 H :    0.000784
  24 H :   -0.023834
  25 C :   -0.061113
  26 H :    0.022518
  27 H :    0.013141
  28 C :   -0.079110
  29 H :    0.053170
  30 H :    0.043420
  31 H :    0.032573
  32 H :    0.064942
  33 H :    0.057150
Sum of atomic charges:   -0.0000000

LOEWDIN ATOMIC CHARGES
----------------------
   0 S :    0.396741
   1 C :   -0.203805
   2 C :   -0.064831
   3 C :   -0.059046
   4 C :   -0.182481
   5 H :    0.019570
   6 C :   -0.034528
   7 H :    0.036774
   8 H :    0.028786
   9 C :   -0.048940
  10 H :    0.036406
  11 H :    0.018594
  12 C :   -0.070897
  13 H :    0.027591
  14 H :    0.027119
  15 H :    0.026150
  16 S :    0.435703
  17 C :   -0.199949
  18 C :   -0.083100
  19 C :   -0.052009
  20 C :   -0.208628
  21 H :    0.049462
  22 C :   -0.018098
  23 H :    0.024497
  24 H :    0.010087
  25 C :   -0.037764
  26 H :    0.023873
  27 H :    0.015828
  28 C :   -0.071580
  29 H :    0.040691
  30 H :    0.031793
  31 H :    0.018455
  32 H :    0.036832
  33 H :    0.030705

  Mayer bond orders larger than 0.100000
B(  0-S ,  1-C ) :   1.1319 B(  0-S ,  4-C ) :   1.1580 B(  1-C ,  2-C ) :   1.6131
B(  1-C ,  4-C ) :   0.1031 B(  1-C , 32-H ) :   0.9603 B(  2-C ,  3-C ) :   1.2526
B(  2-C ,  6-C ) :   1.0055 B(  3-C ,  4-C ) :   1.5649 B(  3-C ,  5-H ) :   1.0016
B(  4-C , 20-C ) :   1.0167 B(  6-C ,  7-H ) :   0.9279 B(  6-C ,  8-H ) :   0.9527
B(  6-C ,  9-C ) :   1.0947 B(  9-C , 10-H ) :   0.9485 B(  9-C , 11-H ) :   0.9508
B(  9-C , 12-C ) :   1.0646 B( 12-C , 13-H ) :   0.9739 B( 12-C , 14-H ) :   0.9755
B( 12-C , 15-H ) :   0.9697 B( 16-S , 17-C ) :   1.1868 B( 16-S , 20-C ) :   1.1430
B( 17-C , 18-C ) :   1.5858 B( 17-C , 33-H ) :   0.9587 B( 18-C , 19-C ) :   1.2713
B( 18-C , 21-H ) :   0.9804 B( 19-C , 20-C ) :   1.6042 B( 19-C , 22-C ) :   1.0336
B( 22-C , 23-H ) :   0.9308 B( 22-C , 24-H ) :   0.9285 B( 22-C , 25-C ) :   1.0653
B( 25-C , 26-H ) :   0.9503 B( 25-C , 27-H ) :   0.9535 B( 25-C , 28-C ) :   1.0866
B( 28-C , 29-H ) :   0.9721 B( 28-C , 30-H ) :   0.9712 B( 28-C , 31-H ) :   0.9719

Dispersion correction           -0.015399094
FINAL SINGLE POINT ENERGY     -1339.867349837853

DIPOLE MOMENT
-------------
                                X             Y             Z
Electronic contribution:    -31.06512      -9.00522       3.77573
Nuclear contribution   :     31.60683       9.25368      -4.02946
                        -----------------------------------------
Total Dipole Moment    :      0.54171       0.24846      -0.25373
                        -----------------------------------------
Magnitude (a.u.)       :      0.64774
Magnitude (Debye)      :      1.64642

Rotational constants in cm-1:     0.017220     0.010879     0.007194
Rotational constants in MHz :   516.250787   326.154339   215.658811

                             ****ORCA TERMINATED NORMALLY****
TOTAL RUN TIME: 0 days 0 hours 0 minutes 23 seconds 36 msec
