                         Program Version 4.2.1 -  RELEASE  -
|  1> ! wB97X-D3 SP def2-SVP
|  2> %pal
|  3> nprocs 24
|  4> end
|  5>
|  6> * xyz 0 1
|  7> S 	 27.7743 	 -26.4905 	 -130.46
|  8> C 	 26.0633 	 -26.474 	 -130.035
|  9> C 	 25.3209 	 -27.4524 	 -130.557
| 10> C 	 26.2081 	 -28.4651 	 -131.113
| 11> C 	 27.5678 	 -28.1382 	 -131.062
| 12> H 	 25.9685 	 -29.4619 	 -131.355
| 13> C 	 23.8118 	 -27.6196 	 -130.564
| 14> H 	 23.7659 	 -28.6735 	 -130.782
| 15> H 	 23.5349 	 -27.0846 	 -131.505
| 16> C 	 22.9703 	 -27.304 	 -129.294
| 17> H 	 23.2967 	 -27.7641 	 -128.376
| 18> H 	 22.9679 	 -26.2037 	 -129.113
| 19> C 	 21.582 	 -27.7258 	 -129.425
| 20> H 	 21.052 	 -27.2409 	 -130.182
| 21> H 	 21.548 	 -28.812 	 -129.785
| 22> H 	 21.0023 	 -27.518 	 -128.473
| 23> S 	 29.8987 	 -28.1345 	 -132.418
| 24> C 	 31.0098 	 -29.4569 	 -132.36
| 25> C 	 30.43 	 -30.4949 	 -131.666
| 26> C 	 29.065 	 -30.2884 	 -131.154
| 27> C 	 28.7583 	 -28.9689 	 -131.34
| 28> H 	 30.9023 	 -31.4331 	 -131.559
| 29> C 	 28.2982 	 -31.2729 	 -130.321
| 30> H 	 27.612 	 -30.5751 	 -129.935
| 31> H 	 28.8319 	 -31.6575 	 -129.487
| 32> C 	 27.6535 	 -32.3638 	 -131.122
| 33> H 	 28.4505 	 -32.7041 	 -131.734
| 34> H 	 26.8374 	 -32.0528 	 -131.757
| 35> C 	 27.1319 	 -33.4637 	 -130.17
| 36> H 	 28.0281 	 -34.0466 	 -129.886
| 37> H 	 26.4519 	 -34.1329 	 -130.628
| 38> H 	 26.5023 	 -33.1266 	 -129.346
| 39> H 	 25.6918 	 -25.5835 	 -129.633
| 40> H 	 32.0024 	 -29.438 	 -132.773
| 41> *
| 42>
| 43>                          ****END OF INPUT****

CARTESIAN COORDINATES (ANGSTROEM)
---------------------------------
  S     27.774300  -26.490500  -130.460000
  C     26.063300  -26.474000  -130.035000
  C     25.320900  -27.452400  -130.557000
  C     26.208100  -28.465100  -131.113000
  C     27.567800  -28.138200  -131.062000
  H     25.968500  -29.461900  -131.355000
  C     23.811800  -27.619600  -130.564000
  H     23.765900  -28.673500  -130.782000
  H     23.534900  -27.084600  -131.505000
  C     22.970300  -27.304000  -129.294000
  H     23.296700  -27.764100  -128.376000
  H     22.967900  -26.203700  -129.113000
  C     21.582000  -27.725800  -129.425000
  H     21.052000  -27.240900  -130.182000
  H     21.548000  -28.812000  -129.785000
  H     21.002300  -27.518000  -128.473000
  S     29.898700  -28.134500  -132.418000
  C     31.009800  -29.456900  -132.360000
  C     30.430000  -30.494900  -131.666000
  C     29.065000  -30.288400  -131.154000
  C     28.758300  -28.968900  -131.340000
  H     30.902300  -31.433100  -131.559000
  C     28.298200  -31.272900  -130.321000
  H     27.612000  -30.575100  -129.935000
  H     28.831900  -31.657500  -129.487000
  C     27.653500  -32.363800  -131.122000
  H     28.450500  -32.704100  -131.734000
  H     26.837400  -32.052800  -131.757000
  C     27.131900  -33.463700  -130.170000
  H     28.028100  -34.046600  -129.886000
  H     26.451900  -34.132900  -130.628000
  H     26.502300  -33.126600  -129.346000
  H     25.691800  -25.583500  -129.633000
  H     32.002400  -29.438000  -132.773000

 Total Charge           Charge          ....    0
 Multiplicity           Mult            ....    1
 Number of Electrons    NEL             ....  134
 Basis Dimension        Dim             ....  322

ORBITAL ENERGIES
----------------

  NO   OCC          E(Eh)            E(eV)
   0   2.0000     -88.961500     -2420.7655
   1   2.0000     -88.959377     -2420.7077
   2   2.0000     -10.331136      -281.1245
   3   2.0000     -10.327582      -281.0278
   4   2.0000     -10.314615      -280.6749
   5   2.0000     -10.303758      -280.3795
   6   2.0000     -10.302878      -280.3556
   7   2.0000     -10.300834      -280.3000
   8   2.0000     -10.300513      -280.2912
   9   2.0000     -10.295075      -280.1432
  10   2.0000     -10.291160      -280.0367
  11   2.0000     -10.290590      -280.0212
  12   2.0000     -10.283033      -279.8156
  13   2.0000     -10.281425      -279.7718
  14   2.0000     -10.279990      -279.7328
  15   2.0000     -10.277946      -279.6771
  16   2.0000      -8.076263      -219.7663
  17   2.0000      -8.074551      -219.7197
  18   2.0000      -6.034816      -164.2157
  19   2.0000      -6.033194      -164.1716
  20   2.0000      -6.030994      -164.1117
  21   2.0000      -6.028982      -164.0569
  22   2.0000      -6.026752      -163.9963
  23   2.0000      -6.025168      -163.9531
  24   2.0000      -1.004301       -27.3284
  25   2.0000      -0.982640       -26.7390
  26   2.0000      -0.920377       -25.0447
  27   2.0000      -0.917634       -24.9701
  28   2.0000      -0.873912       -23.7804
  29   2.0000      -0.856565       -23.3083
  30   2.0000      -0.844996       -22.9935
  31   2.0000      -0.812865       -22.1192
  32   2.0000      -0.785333       -21.3700
  33   2.0000      -0.776492       -21.1294
  34   2.0000      -0.710193       -19.3253
  35   2.0000      -0.707408       -19.2496
  36   2.0000      -0.693361       -18.8673
  37   2.0000      -0.666418       -18.1341
  38   2.0000      -0.644645       -17.5417
  39   2.0000      -0.613046       -16.6818
  40   2.0000      -0.598568       -16.2879
  41   2.0000      -0.579625       -15.7724
  42   2.0000      -0.574474       -15.6322
  43   2.0000      -0.558903       -15.2085
  44   2.0000      -0.537301       -14.6207
  45   2.0000      -0.526701       -14.3323
  46   2.0000      -0.521770       -14.1981
  47   2.0000      -0.518138       -14.0993
  48   2.0000      -0.510030       -13.8786
  49   2.0000      -0.499268       -13.5858
  50   2.0000      -0.492238       -13.3945
  51   2.0000      -0.479368       -13.0443
  52   2.0000      -0.476054       -12.9541
  53   2.0000      -0.464870       -12.6498
  54   2.0000      -0.456420       -12.4198
  55   2.0000      -0.445770       -12.1300
  56   2.0000      -0.443237       -12.0611
  57   2.0000      -0.437951       -11.9173
  58   2.0000      -0.434513       -11.8237
  59   2.0000      -0.425015       -11.5652
  60   2.0000      -0.418721       -11.3940
  61   2.0000      -0.417759       -11.3678
  62   2.0000      -0.415274       -11.3002
  63   2.0000      -0.348419        -9.4810
  64   2.0000      -0.329422        -8.9640
  65   2.0000      -0.326765        -8.8917
  66   2.0000      -0.294258        -8.0072
  67   0.0000       0.031033         0.8444
  68   0.0000       0.072571         1.9748
  69   0.0000       0.107430         2.9233
  70   0.0000       0.124801         3.3960
  71   0.0000       0.132108         3.5948

MULLIKEN ATOMIC CHARGES
-----------------------
   0 S :    0.096980
   1 C :   -0.117321
   2 C :   -0.079570
   3 C :    0.039437
   4 C :   -0.162230
   5 H :   -0.012827
   6 C :    0.073334
   7 H :    0.010562
   8 H :    0.058255
   9 C :   -0.043145
  10 H :    0.033271
  11 H :    0.032232
  12 C :   -0.057565
  13 H :    0.010141
  14 H :    0.030047
  15 H :    0.047785
  16 S :    0.081548
  17 C :   -0.068298
  18 C :   -0.021412
  19 C :   -0.061570
  20 C :   -0.138950
  21 H :   -0.002866
  22 C :    0.099908
  23 H :    0.004516
  24 H :    0.024703
  25 C :   -0.055536
  26 H :    0.020134
  27 H :    0.029454
  28 C :   -0.040803
  29 H :    0.039677
  30 H :    0.017198
  31 H :    0.033574
  32 H :    0.021472
  33 H :    0.057864
Sum of atomic charges:   -0.0000000

LOEWDIN ATOMIC CHARGES
----------------------
   0 S :    0.383494
   1 C :   -0.176615
   2 C :   -0.063044
   3 C :   -0.060458
   4 C :   -0.187844
   5 H :    0.019170
   6 C :   -0.029952
   7 H :    0.027854
   8 H :    0.047155
   9 C :   -0.044473
  10 H :    0.028900
  11 H :    0.028601
  12 C :   -0.069711
  13 H :    0.012161
  14 H :    0.031409
  15 H :    0.036853
  16 S :    0.390778
  17 C :   -0.188681
  18 C :   -0.066149
  19 C :   -0.053279
  20 C :   -0.180306
  21 H :    0.018521
  22 C :   -0.026840
  23 H :    0.026982
  24 H :    0.030490
  25 C :   -0.031769
  26 H :    0.020867
  27 H :    0.022329
  28 C :   -0.066283
  29 H :    0.031436
  30 H :    0.018902
  31 H :    0.028123
  32 H :    0.010666
  33 H :    0.030713

  Mayer bond orders larger than 0.100000
B(  0-S ,  1-C ) :   1.1202 B(  0-S ,  4-C ) :   1.1401 B(  1-C ,  2-C ) :   1.6719
B(  1-C , 32-H ) :   0.9745 B(  2-C ,  3-C ) :   1.1942 B(  2-C ,  6-C ) :   0.9957
B(  3-C ,  4-C ) :   1.6153 B(  3-C ,  5-H ) :   0.9920 B(  4-C , 20-C ) :   0.9979
B(  6-C ,  7-H ) :   0.9409 B(  6-C ,  8-H ) :   0.9277 B(  6-C ,  9-C ) :   1.0664
B(  9-C , 10-H ) :   0.9575 B(  9-C , 11-H ) :   0.9441 B(  9-C , 12-C ) :   1.1021
B( 12-C , 13-H ) :   0.9708 B( 12-C , 14-H ) :   0.9688 B( 12-C , 15-H ) :   0.9702
B( 16-S , 17-C ) :   1.1305 B( 16-S , 20-C ) :   1.1406 B( 17-C , 18-C ) :   1.6301
B( 17-C , 33-H ) :   0.9728 B( 18-C , 19-C ) :   1.1824 B( 18-C , 21-H ) :   0.9915
B( 19-C , 20-C ) :   1.6512 B( 19-C , 22-C ) :   1.0287 B( 22-C , 23-H ) :   0.9207
B( 22-C , 24-H ) :   0.9450 B( 22-C , 25-C ) :   1.0533 B( 25-C , 26-H ) :   0.9640
B( 25-C , 27-H ) :   0.9503 B( 25-C , 28-C ) :   1.0832 B( 28-C , 29-H ) :   0.9761
B( 28-C , 30-H ) :   0.9745 B( 28-C , 31-H ) :   0.9725

Dispersion correction           -0.013466946
FINAL SINGLE POINT ENERGY     -1339.855481847814

DIPOLE MOMENT
-------------
                                X             Y             Z
Electronic contribution:     24.51212      17.56452      -8.84517
Nuclear contribution   :    -25.06216     -18.05291       9.01232
                        -----------------------------------------
Total Dipole Moment    :     -0.55003      -0.48840       0.16715
                        -----------------------------------------
Magnitude (a.u.)       :      0.75433
Magnitude (Debye)      :      1.91735

Rotational constants in cm-1:     0.018043     0.008233     0.005931
Rotational constants in MHz :   540.909247   246.817166   177.797372

                             ****ORCA TERMINATED NORMALLY****
TOTAL RUN TIME: 0 days 0 hours 0 minutes 22 seconds 377 msec
