                         Program Version 4.2.1 -  RELEASE  -
|  1> ! wB97X-D3 SP def2-SVP
|  2> %pal
|  3> nprocs 24
|  4> end
|  5>
|  6> * xyz 0 1
|  7> S 	 -43.3686 	 -46.1662 	 -80.1192
|  8> C 	 -41.7871 	 -46.3878 	 -80.8394
|  9> C 	 -40.9223 	 -46.8695 	 -79.8908
| 10> C 	 -41.5959 	 -47.4318 	 -78.7303
| 11> C 	 -42.9775 	 -47.1422 	 -78.7849
| 12> H 	 -41.2249 	 -47.9809 	 -77.9334
| 13> C 	 -39.3924 	 -46.9882 	 -80.0813
| 14> H 	 -38.9947 	 -46.1036 	 -79.4952
| 15> H 	 -39.2593 	 -46.9637 	 -81.1301
| 16> C 	 -38.7588 	 -48.3698 	 -79.5581
| 17> H 	 -38.9517 	 -48.5958 	 -78.5835
| 18> H 	 -39.1507 	 -49.2128 	 -79.9958
| 19> C 	 -37.2687 	 -48.3825 	 -79.6808
| 20> H 	 -36.7669 	 -47.7168 	 -78.8981
| 21> H 	 -36.8316 	 -49.3719 	 -79.6557
| 22> H 	 -36.9862 	 -47.8551 	 -80.5731
| 23> S 	 -45.3509 	 -46.6271 	 -77.3922
| 24> C 	 -46.0561 	 -47.7723 	 -76.3041
| 25> C 	 -45.2956 	 -48.951 	 -76.3001
| 26> C 	 -44.1491 	 -48.9022 	 -77.2306
| 27> C 	 -44.0487 	 -47.6575 	 -77.8586
| 28> H 	 -45.5369 	 -49.7713 	 -75.6122
| 29> C 	 -43.2755 	 -50.0988 	 -77.2856
| 30> H 	 -43.6363 	 -50.9104 	 -76.618
| 31> H 	 -42.2353 	 -49.843 	 -76.9793
| 32> C 	 -43.0532 	 -50.7613 	 -78.6501
| 33> H 	 -42.4615 	 -51.7452 	 -78.6444
| 34> H 	 -42.4663 	 -50.1241 	 -79.2362
| 35> C 	 -44.3358 	 -51.0695 	 -79.4564
| 36> H 	 -44.8593 	 -51.7374 	 -78.8888
| 37> H 	 -44.0901 	 -51.4965 	 -80.4612
| 38> H 	 -44.9578 	 -50.2132 	 -79.4726
| 39> H 	 -41.5216 	 -45.8357 	 -81.7288
| 40> H 	 -46.9016 	 -47.551 	 -75.6534
| 41> *
| 42>
| 43>                          ****END OF INPUT****

CARTESIAN COORDINATES (ANGSTROEM)
---------------------------------
  S    -43.368600  -46.166200  -80.119200
  C    -41.787100  -46.387800  -80.839400
  C    -40.922300  -46.869500  -79.890800
  C    -41.595900  -47.431800  -78.730300
  C    -42.977500  -47.142200  -78.784900
  H    -41.224900  -47.980900  -77.933400
  C    -39.392400  -46.988200  -80.081300
  H    -38.994700  -46.103600  -79.495200
  H    -39.259300  -46.963700  -81.130100
  C    -38.758800  -48.369800  -79.558100
  H    -38.951700  -48.595800  -78.583500
  H    -39.150700  -49.212800  -79.995800
  C    -37.268700  -48.382500  -79.680800
  H    -36.766900  -47.716800  -78.898100
  H    -36.831600  -49.371900  -79.655700
  H    -36.986200  -47.855100  -80.573100
  S    -45.350900  -46.627100  -77.392200
  C    -46.056100  -47.772300  -76.304100
  C    -45.295600  -48.951000  -76.300100
  C    -44.149100  -48.902200  -77.230600
  C    -44.048700  -47.657500  -77.858600
  H    -45.536900  -49.771300  -75.612200
  C    -43.275500  -50.098800  -77.285600
  H    -43.636300  -50.910400  -76.618000
  H    -42.235300  -49.843000  -76.979300
  C    -43.053200  -50.761300  -78.650100
  H    -42.461500  -51.745200  -78.644400
  H    -42.466300  -50.124100  -79.236200
  C    -44.335800  -51.069500  -79.456400
  H    -44.859300  -51.737400  -78.888800
  H    -44.090100  -51.496500  -80.461200
  H    -44.957800  -50.213200  -79.472600
  H    -41.521600  -45.835700  -81.728800
  H    -46.901600  -47.551000  -75.653400

 Total Charge           Charge          ....    0
 Multiplicity           Mult            ....    1
 Number of Electrons    NEL             ....  134
 Basis Dimension        Dim             ....  322

ORBITAL ENERGIES
----------------

  NO   OCC          E(Eh)            E(eV)
   0   2.0000     -88.968068     -2420.9442
   1   2.0000     -88.964858     -2420.8569
   2   2.0000     -10.334940      -281.2280
   3   2.0000     -10.333488      -281.1885
   4   2.0000     -10.321684      -280.8673
   5   2.0000     -10.312254      -280.6107
   6   2.0000     -10.309770      -280.5431
   7   2.0000     -10.308010      -280.4952
   8   2.0000     -10.303778      -280.3801
   9   2.0000     -10.302644      -280.3492
  10   2.0000     -10.295616      -280.1580
  11   2.0000     -10.295359      -280.1509
  12   2.0000     -10.279211      -279.7115
  13   2.0000     -10.277861      -279.6748
  14   2.0000     -10.276209      -279.6299
  15   2.0000     -10.259899      -279.1860
  16   2.0000      -8.083518      -219.9637
  17   2.0000      -8.080750      -219.8884
  18   2.0000      -6.042043      -164.4123
  19   2.0000      -6.039185      -164.3346
  20   2.0000      -6.037746      -164.2954
  21   2.0000      -6.035146      -164.2247
  22   2.0000      -6.034404      -164.2045
  23   2.0000      -6.031472      -164.1247
  24   2.0000      -1.008946       -27.4548
  25   2.0000      -0.987162       -26.8620
  26   2.0000      -0.910720       -24.7819
  27   2.0000      -0.909795       -24.7568
  28   2.0000      -0.870074       -23.6759
  29   2.0000      -0.850086       -23.1320
  30   2.0000      -0.844578       -22.9821
  31   2.0000      -0.815910       -22.2020
  32   2.0000      -0.782307       -21.2877
  33   2.0000      -0.772384       -21.0176
  34   2.0000      -0.716461       -19.4959
  35   2.0000      -0.702293       -19.1104
  36   2.0000      -0.681627       -18.5480
  37   2.0000      -0.665915       -18.1205
  38   2.0000      -0.646607       -17.5951
  39   2.0000      -0.616801       -16.7840
  40   2.0000      -0.590000       -16.0547
  41   2.0000      -0.569762       -15.5040
  42   2.0000      -0.565598       -15.3907
  43   2.0000      -0.553515       -15.0619
  44   2.0000      -0.546956       -14.8834
  45   2.0000      -0.530980       -14.4487
  46   2.0000      -0.518006       -14.0957
  47   2.0000      -0.511169       -13.9096
  48   2.0000      -0.503308       -13.6957
  49   2.0000      -0.499504       -13.5922
  50   2.0000      -0.491734       -13.3808
  51   2.0000      -0.485666       -13.2156
  52   2.0000      -0.475363       -12.9353
  53   2.0000      -0.470848       -12.8124
  54   2.0000      -0.460102       -12.5200
  55   2.0000      -0.449173       -12.2226
  56   2.0000      -0.439948       -11.9716
  57   2.0000      -0.436185       -11.8692
  58   2.0000      -0.432018       -11.7558
  59   2.0000      -0.420622       -11.4457
  60   2.0000      -0.419061       -11.4032
  61   2.0000      -0.415636       -11.3100
  62   2.0000      -0.409277       -11.1370
  63   2.0000      -0.353524        -9.6199
  64   2.0000      -0.330196        -8.9851
  65   2.0000      -0.326641        -8.8883
  66   2.0000      -0.292628        -7.9628
  67   0.0000       0.025879         0.7042
  68   0.0000       0.074102         2.0164
  69   0.0000       0.102982         2.8023
  70   0.0000       0.117569         3.1992
  71   0.0000       0.131852         3.5879

MULLIKEN ATOMIC CHARGES
-----------------------
   0 S :    0.106232
   1 C :   -0.124275
   2 C :   -0.097221
   3 C :    0.039061
   4 C :   -0.129785
   5 H :   -0.022277
   6 C :    0.063960
   7 H :    0.063235
   8 H :    0.023651
   9 C :   -0.018990
  10 H :    0.001143
  11 H :    0.006676
  12 C :   -0.055896
  13 H :    0.030413
  14 H :    0.038924
  15 H :    0.015627
  16 S :    0.110061
  17 C :   -0.098521
  18 C :   -0.049013
  19 C :   -0.057995
  20 C :   -0.126243
  21 H :    0.032497
  22 C :    0.051164
  23 H :    0.028195
  24 H :    0.039800
  25 C :   -0.101815
  26 H :    0.031188
  27 H :    0.018121
  28 C :   -0.009855
  29 H :   -0.004008
  30 H :    0.042667
  31 H :    0.031360
  32 H :    0.053069
  33 H :    0.068848
Sum of atomic charges:   -0.0000000

LOEWDIN ATOMIC CHARGES
----------------------
   0 S :    0.422298
   1 C :   -0.205780
   2 C :   -0.055261
   3 C :   -0.062633
   4 C :   -0.195039
   5 H :    0.016642
   6 C :   -0.019484
   7 H :    0.046751
   8 H :    0.025619
   9 C :   -0.035058
  10 H :    0.011389
  11 H :    0.017759
  12 C :   -0.064728
  13 H :    0.030879
  14 H :    0.026590
  15 H :    0.019131
  16 S :    0.426256
  17 C :   -0.196734
  18 C :   -0.070886
  19 C :   -0.060704
  20 C :   -0.208112
  21 H :    0.034345
  22 C :   -0.038652
  23 H :    0.034722
  24 H :    0.036623
  25 C :   -0.042639
  26 H :    0.030322
  27 H :    0.008912
  28 C :   -0.056758
  29 H :    0.008115
  30 H :    0.033373
  31 H :    0.021233
  32 H :    0.026792
  33 H :    0.034714

  Mayer bond orders larger than 0.100000
B(  0-S ,  1-C ) :   1.1245 B(  0-S ,  4-C ) :   1.1915 B(  1-C ,  2-C ) :   1.6260
B(  1-C , 32-H ) :   0.9691 B(  2-C ,  3-C ) :   1.2151 B(  2-C ,  6-C ) :   1.0121
B(  3-C ,  4-C ) :   1.5479 B(  3-C ,  5-H ) :   1.0107 B(  4-C , 20-C ) :   1.0152
B(  6-C ,  7-H ) :   0.9368 B(  6-C ,  8-H ) :   0.9458 B(  6-C ,  9-C ) :   1.0652
B(  9-C , 10-H ) :   0.9453 B(  9-C , 11-H ) :   0.9534 B(  9-C , 12-C ) :   1.0912
B( 12-C , 13-H ) :   0.9744 B( 12-C , 14-H ) :   0.9726 B( 12-C , 15-H ) :   0.9733
B( 16-S , 17-C ) :   1.1647 B( 16-S , 20-C ) :   1.1534 B( 17-C , 18-C ) :   1.5907
B( 17-C , 33-H ) :   0.9691 B( 18-C , 19-C ) :   1.2451 B( 18-C , 21-H ) :   0.9869
B( 19-C , 20-C ) :   1.5726 B( 19-C , 22-C ) :   1.0520 B( 22-C , 23-H ) :   0.9373
B( 22-C , 24-H ) :   0.9309 B( 22-C , 25-C ) :   1.0645 B( 25-C , 26-H ) :   0.9575
B( 25-C , 27-H ) :   0.9548 B( 25-C , 28-C ) :   1.0769 B( 28-C , 29-H ) :   0.9753
B( 28-C , 30-H ) :   0.9744 B( 28-C , 31-H ) :   0.9707

Dispersion correction           -0.015029134
FINAL SINGLE POINT ENERGY     -1339.857193957642

DIPOLE MOMENT
-------------
                                X             Y             Z
Electronic contribution:    -21.77984      19.35227       3.45001
Nuclear contribution   :     22.25346     -19.70295      -3.26045
                        -----------------------------------------
Total Dipole Moment    :      0.47362      -0.35068       0.18955
                        -----------------------------------------
Magnitude (a.u.)       :      0.61905
Magnitude (Debye)      :      1.57350

Rotational constants in cm-1:     0.020109     0.008730     0.007157
Rotational constants in MHz :   602.857522   261.710018   214.547894

                             ****ORCA TERMINATED NORMALLY****
TOTAL RUN TIME: 0 days 0 hours 0 minutes 22 seconds 235 msec
