                         Program Version 4.2.1 -  RELEASE  -
|  1> ! wB97X-D3 SP def2-SVP
|  2> %pal
|  3> nprocs 24
|  4> end
|  5>
|  6> * xyz 0 1
|  7> S 	 -109.325 	 41.4075 	 -13.1368
|  8> C 	 -109.053 	 43.1678 	 -13.2535
|  9> C 	 -109.106 	 43.7742 	 -12.0305
| 10> C 	 -109.161 	 42.8454 	 -10.9075
| 11> C 	 -109.161 	 41.4899 	 -11.3507
| 12> H 	 -109.245 	 43.0393 	 -9.87406
| 13> C 	 -108.877 	 45.2468 	 -11.8063
| 14> H 	 -107.884 	 45.4976 	 -12.0329
| 15> H 	 -108.989 	 45.3698 	 -10.7475
| 16> C 	 -109.775 	 46.1614 	 -12.4182
| 17> H 	 -109.434 	 47.1583 	 -12.0709
| 18> H 	 -109.796 	 46.1142 	 -13.4824
| 19> C 	 -111.27 	 45.9466 	 -11.9526
| 20> H 	 -111.433 	 46.3016 	 -10.9531
| 21> H 	 -111.808 	 46.6926 	 -12.5277
| 22> H 	 -111.529 	 44.9429 	 -12.1408
| 23> S 	 -110.499 	 39.1435 	 -11.0227
| 24> C 	 -110.222 	 38.0447 	 -9.59355
| 25> C 	 -109.199 	 38.5837 	 -8.83129
| 26> C 	 -108.74 	 39.825 	 -9.32111
| 27> C 	 -109.291 	 40.2841 	 -10.4671
| 28> H 	 -108.807 	 38.0136 	 -8.01916
| 29> C 	 -107.539 	 40.4305 	 -8.63258
| 30> H 	 -107.344 	 41.4057 	 -9.03672
| 31> H 	 -106.717 	 39.7743 	 -8.8372
| 32> C 	 -107.785 	 40.7012 	 -7.15173
| 33> H 	 -106.957 	 41.2669 	 -6.77429
| 34> H 	 -107.72 	 39.8238 	 -6.64501
| 35> C 	 -109.137 	 41.4181 	 -6.95013
| 36> H 	 -109.152 	 41.9512 	 -6.0632
| 37> H 	 -109.884 	 40.6801 	 -6.91559
| 38> H 	 -109.273 	 42.1382 	 -7.75276
| 39> H 	 -108.998 	 43.7216 	 -14.1719
| 40> H 	 -110.651 	 37.0716 	 -9.39479
| 41> *
| 42>
| 43>                          ****END OF INPUT****

CARTESIAN COORDINATES (ANGSTROEM)
---------------------------------
  S    -109.325000   41.407500  -13.136800
  C    -109.053000   43.167800  -13.253500
  C    -109.106000   43.774200  -12.030500
  C    -109.161000   42.845400  -10.907500
  C    -109.161000   41.489900  -11.350700
  H    -109.245000   43.039300   -9.874060
  C    -108.877000   45.246800  -11.806300
  H    -107.884000   45.497600  -12.032900
  H    -108.989000   45.369800  -10.747500
  C    -109.775000   46.161400  -12.418200
  H    -109.434000   47.158300  -12.070900
  H    -109.796000   46.114200  -13.482400
  C    -111.270000   45.946600  -11.952600
  H    -111.433000   46.301600  -10.953100
  H    -111.808000   46.692600  -12.527700
  H    -111.529000   44.942900  -12.140800
  S    -110.499000   39.143500  -11.022700
  C    -110.222000   38.044700   -9.593550
  C    -109.199000   38.583700   -8.831290
  C    -108.740000   39.825000   -9.321110
  C    -109.291000   40.284100  -10.467100
  H    -108.807000   38.013600   -8.019160
  C    -107.539000   40.430500   -8.632580
  H    -107.344000   41.405700   -9.036720
  H    -106.717000   39.774300   -8.837200
  C    -107.785000   40.701200   -7.151730
  H    -106.957000   41.266900   -6.774290
  H    -107.720000   39.823800   -6.645010
  C    -109.137000   41.418100   -6.950130
  H    -109.152000   41.951200   -6.063200
  H    -109.884000   40.680100   -6.915590
  H    -109.273000   42.138200   -7.752760
  H    -108.998000   43.721600  -14.171900
  H    -110.651000   37.071600   -9.394790

 Total Charge           Charge          ....    0
 Multiplicity           Mult            ....    1
 Number of Electrons    NEL             ....  134
 Basis Dimension        Dim             ....  322

ORBITAL ENERGIES
----------------

  NO   OCC          E(Eh)            E(eV)
   0   2.0000     -88.970862     -2421.0202
   1   2.0000     -88.961505     -2420.7656
   2   2.0000     -10.344185      -281.4796
   3   2.0000     -10.328924      -281.0643
   4   2.0000     -10.324003      -280.9304
   5   2.0000     -10.315753      -280.7059
   6   2.0000     -10.302326      -280.3405
   7   2.0000     -10.301778      -280.3256
   8   2.0000     -10.296392      -280.1791
   9   2.0000     -10.293009      -280.0870
  10   2.0000     -10.280430      -279.7447
  11   2.0000     -10.279295      -279.7138
  12   2.0000     -10.275954      -279.6229
  13   2.0000     -10.272813      -279.5374
  14   2.0000     -10.269527      -279.4480
  15   2.0000     -10.267012      -279.3796
  16   2.0000      -8.084030      -219.9776
  17   2.0000      -8.075409      -219.7431
  18   2.0000      -6.042766      -164.4320
  19   2.0000      -6.038895      -164.3267
  20   2.0000      -6.034497      -164.2070
  21   2.0000      -6.034149      -164.1975
  22   2.0000      -6.030044      -164.0858
  23   2.0000      -6.025937      -163.9741
  24   2.0000      -1.001262       -27.2457
  25   2.0000      -0.979653       -26.6577
  26   2.0000      -0.926332       -25.2068
  27   2.0000      -0.913464       -24.8566
  28   2.0000      -0.867518       -23.6064
  29   2.0000      -0.846051       -23.0222
  30   2.0000      -0.840107       -22.8605
  31   2.0000      -0.816100       -22.2072
  32   2.0000      -0.786978       -21.4148
  33   2.0000      -0.779215       -21.2035
  34   2.0000      -0.710317       -19.3287
  35   2.0000      -0.705077       -19.1861
  36   2.0000      -0.694606       -18.9012
  37   2.0000      -0.667994       -18.1770
  38   2.0000      -0.641754       -17.4630
  39   2.0000      -0.610850       -16.6221
  40   2.0000      -0.595364       -16.2007
  41   2.0000      -0.584932       -15.9168
  42   2.0000      -0.566302       -15.4099
  43   2.0000      -0.565195       -15.3797
  44   2.0000      -0.549312       -14.9475
  45   2.0000      -0.541622       -14.7383
  46   2.0000      -0.520959       -14.1760
  47   2.0000      -0.516123       -14.0444
  48   2.0000      -0.501144       -13.6368
  49   2.0000      -0.496285       -13.5046
  50   2.0000      -0.488878       -13.3030
  51   2.0000      -0.477128       -12.9833
  52   2.0000      -0.472860       -12.8672
  53   2.0000      -0.470808       -12.8113
  54   2.0000      -0.459544       -12.5048
  55   2.0000      -0.448531       -12.2051
  56   2.0000      -0.442077       -12.0295
  57   2.0000      -0.439973       -11.9723
  58   2.0000      -0.436151       -11.8683
  59   2.0000      -0.422845       -11.5062
  60   2.0000      -0.416365       -11.3299
  61   2.0000      -0.411940       -11.2095
  62   2.0000      -0.406782       -11.0691
  63   2.0000      -0.352450        -9.5907
  64   2.0000      -0.332071        -9.0361
  65   2.0000      -0.328001        -8.9254
  66   2.0000      -0.292529        -7.9601
  67   0.0000       0.023599         0.6422
  68   0.0000       0.066756         1.8165
  69   0.0000       0.097678         2.6580
  70   0.0000       0.120989         3.2923
  71   0.0000       0.129534         3.5248

MULLIKEN ATOMIC CHARGES
-----------------------
   0 S :    0.102355
   1 C :   -0.114835
   2 C :   -0.112239
   3 C :    0.048271
   4 C :   -0.120933
   5 H :   -0.007141
   6 C :    0.148140
   7 H :    0.027225
   8 H :   -0.004340
   9 C :   -0.096370
  10 H :    0.024844
  11 H :    0.020953
  12 C :   -0.038009
  13 H :    0.021648
  14 H :    0.024450
  15 H :    0.050056
  16 S :    0.067894
  17 C :   -0.090180
  18 C :   -0.026295
  19 C :   -0.087140
  20 C :   -0.125186
  21 H :    0.017643
  22 C :    0.084122
  23 H :    0.005611
  24 H :    0.036658
  25 C :   -0.058763
  26 H :    0.018021
  27 H :   -0.002359
  28 C :    0.026163
  29 H :    0.014414
  30 H :    0.029708
  31 H :    0.012562
  32 H :    0.045130
  33 H :    0.057922
Sum of atomic charges:   -0.0000000

LOEWDIN ATOMIC CHARGES
----------------------
   0 S :    0.375198
   1 C :   -0.183351
   2 C :   -0.058629
   3 C :   -0.055080
   4 C :   -0.169522
   5 H :    0.021203
   6 C :   -0.034415
   7 H :    0.029444
   8 H :    0.028348
   9 C :   -0.037088
  10 H :    0.029304
  11 H :    0.015075
  12 C :   -0.053881
  13 H :    0.021172
  14 H :    0.026668
  15 H :    0.021612
  16 S :    0.368276
  17 C :   -0.158093
  18 C :   -0.065555
  19 C :   -0.068975
  20 C :   -0.188239
  21 H :    0.030820
  22 C :   -0.021468
  23 H :    0.022219
  24 H :    0.030749
  25 C :   -0.030396
  26 H :    0.021530
  27 H :    0.004252
  28 C :   -0.044649
  29 H :    0.016985
  30 H :    0.024083
  31 H :    0.023561
  32 H :    0.027232
  33 H :    0.031610

  Mayer bond orders larger than 0.100000
B(  0-S ,  1-C ) :   1.1128 B(  0-S ,  4-C ) :   1.1441 B(  1-C ,  2-C ) :   1.6345
B(  1-C , 32-H ) :   0.9710 B(  2-C ,  3-C ) :   1.2146 B(  2-C ,  6-C ) :   1.0061
B(  3-C ,  4-C ) :   1.5726 B(  3-C ,  5-H ) :   0.9978 B(  4-C , 20-C ) :   1.0222
B(  6-C ,  7-H ) :   0.9322 B(  6-C ,  8-H ) :   0.9279 B(  6-C ,  9-C ) :   1.0956
B(  9-C , 10-H ) :   0.9492 B(  9-C , 11-H ) :   0.9575 B(  9-C , 12-C ) :   1.0756
B( 12-C , 13-H ) :   0.9748 B( 12-C , 14-H ) :   0.9753 B( 12-C , 15-H ) :   0.9769
B( 16-S , 17-C ) :   1.1357 B( 16-S , 20-C ) :   1.1137 B( 17-C , 18-C ) :   1.6253
B( 17-C , 33-H ) :   0.9679 B( 18-C , 19-C ) :   1.2167 B( 18-C , 21-H ) :   0.9949
B( 19-C , 20-C ) :   1.6566 B( 19-C , 22-C ) :   1.0377 B( 22-C , 23-H ) :   0.9343
B( 22-C , 24-H ) :   0.9427 B( 22-C , 25-C ) :   1.0725 B( 25-C , 26-H ) :   0.9574
B( 25-C , 27-H ) :   0.9520 B( 25-C , 28-C ) :   1.0788 B( 28-C , 29-H ) :   0.9679
B( 28-C , 30-H ) :   0.9641 B( 28-C , 31-H ) :   0.9780

Dispersion correction           -0.014912383
FINAL SINGLE POINT ENERGY     -1339.851833404071

DIPOLE MOMENT
-------------
                                X             Y             Z
Electronic contribution:     -2.39745     -20.23403     -14.55846
Nuclear contribution   :      2.70039      20.62063      15.07775
                        -----------------------------------------
Total Dipole Moment    :      0.30294       0.38660       0.51929
                        -----------------------------------------
Magnitude (a.u.)       :      0.71476
Magnitude (Debye)      :      1.81679

Rotational constants in cm-1:     0.021093     0.008431     0.006850
Rotational constants in MHz :   632.349111   252.740147   205.365297

                             ****ORCA TERMINATED NORMALLY****
TOTAL RUN TIME: 0 days 0 hours 0 minutes 22 seconds 312 msec
