                         Program Version 4.2.1 -  RELEASE  -
|  1> ! wB97X-D3 SP def2-SVP
|  2> %pal
|  3> nprocs 24
|  4> end
|  5>
|  6> * xyz 0 1
|  7> S 	 -42.9983 	 -49.0669 	 -70.5822
|  8> C 	 -42.1913 	 -49.6548 	 -69.0935
|  9> C 	 -41.6141 	 -50.8939 	 -69.313
| 10> C 	 -42.0048 	 -51.4607 	 -70.6092
| 11> C 	 -42.7786 	 -50.5993 	 -71.3863
| 12> H 	 -41.6648 	 -52.3726 	 -70.949
| 13> C 	 -40.6742 	 -51.553 	 -68.394
| 14> H 	 -40.5234 	 -50.8398 	 -67.5165
| 15> H 	 -39.7247 	 -51.5698 	 -68.9997
| 16> C 	 -41.2542 	 -52.9539 	 -67.9869
| 17> H 	 -41.9722 	 -52.749 	 -67.2407
| 18> H 	 -41.7829 	 -53.4415 	 -68.8024
| 19> C 	 -40.2584 	 -53.8675 	 -67.2763
| 20> H 	 -39.8626 	 -53.3743 	 -66.3792
| 21> H 	 -40.6451 	 -54.8667 	 -67.0754
| 22> H 	 -39.5654 	 -54.0184 	 -68.1042
| 23> S 	 -42.2414 	 -49.9785 	 -73.9452
| 24> C 	 -43.2422 	 -50.6895 	 -75.1852
| 25> C 	 -44.0726 	 -51.6626 	 -74.7661
| 26> C 	 -44.0933 	 -51.6797 	 -73.3588
| 27> C 	 -43.1289 	 -50.8362 	 -72.7545
| 28> H 	 -44.6633 	 -52.1653 	 -75.4783
| 29> C 	 -45.1125 	 -52.5072 	 -72.558
| 30> H 	 -45.9372 	 -52.5079 	 -73.186
| 31> H 	 -45.4796 	 -51.966 	 -71.6246
| 32> C 	 -44.6549 	 -53.9321 	 -72.2224
| 33> H 	 -43.8075 	 -53.8997 	 -71.4131
| 34> H 	 -44.2165 	 -54.4466 	 -73.082
| 35> C 	 -45.884 	 -54.6933 	 -71.6181
| 36> H 	 -46.6786 	 -54.8213 	 -72.3045
| 37> H 	 -46.2663 	 -54.1749 	 -70.8053
| 38> H 	 -45.5447 	 -55.7177 	 -71.2498
| 39> H 	 -42.221 	 -49.0263 	 -68.2385
| 40> H 	 -43.2221 	 -50.2609 	 -76.1394
| 41> *
| 42>
| 43>                          ****END OF INPUT****

CARTESIAN COORDINATES (ANGSTROEM)
---------------------------------
  S    -42.998300  -49.066900  -70.582200
  C    -42.191300  -49.654800  -69.093500
  C    -41.614100  -50.893900  -69.313000
  C    -42.004800  -51.460700  -70.609200
  C    -42.778600  -50.599300  -71.386300
  H    -41.664800  -52.372600  -70.949000
  C    -40.674200  -51.553000  -68.394000
  H    -40.523400  -50.839800  -67.516500
  H    -39.724700  -51.569800  -68.999700
  C    -41.254200  -52.953900  -67.986900
  H    -41.972200  -52.749000  -67.240700
  H    -41.782900  -53.441500  -68.802400
  C    -40.258400  -53.867500  -67.276300
  H    -39.862600  -53.374300  -66.379200
  H    -40.645100  -54.866700  -67.075400
  H    -39.565400  -54.018400  -68.104200
  S    -42.241400  -49.978500  -73.945200
  C    -43.242200  -50.689500  -75.185200
  C    -44.072600  -51.662600  -74.766100
  C    -44.093300  -51.679700  -73.358800
  C    -43.128900  -50.836200  -72.754500
  H    -44.663300  -52.165300  -75.478300
  C    -45.112500  -52.507200  -72.558000
  H    -45.937200  -52.507900  -73.186000
  H    -45.479600  -51.966000  -71.624600
  C    -44.654900  -53.932100  -72.222400
  H    -43.807500  -53.899700  -71.413100
  H    -44.216500  -54.446600  -73.082000
  C    -45.884000  -54.693300  -71.618100
  H    -46.678600  -54.821300  -72.304500
  H    -46.266300  -54.174900  -70.805300
  H    -45.544700  -55.717700  -71.249800
  H    -42.221000  -49.026300  -68.238500
  H    -43.222100  -50.260900  -76.139400

 Total Charge           Charge          ....    0
 Multiplicity           Mult            ....    1
 Number of Electrons    NEL             ....  134
 Basis Dimension        Dim             ....  322

ORBITAL ENERGIES
----------------

  NO   OCC          E(Eh)            E(eV)
   0   2.0000     -88.961648     -2420.7695
   1   2.0000     -88.960761     -2420.7454
   2   2.0000     -10.327161      -281.0163
   3   2.0000     -10.318138      -280.7708
   4   2.0000     -10.314447      -280.6704
   5   2.0000     -10.307146      -280.4717
   6   2.0000     -10.302870      -280.3553
   7   2.0000     -10.302605      -280.3481
   8   2.0000     -10.301632      -280.3216
   9   2.0000     -10.295071      -280.1431
  10   2.0000     -10.292041      -280.0607
  11   2.0000     -10.287797      -279.9452
  12   2.0000     -10.287620      -279.9404
  13   2.0000     -10.285000      -279.8691
  14   2.0000     -10.278455      -279.6910
  15   2.0000     -10.274475      -279.5827
  16   2.0000      -8.077575      -219.8020
  17   2.0000      -8.075274      -219.7394
  18   2.0000      -6.035894      -164.2450
  19   2.0000      -6.033852      -164.1895
  20   2.0000      -6.031923      -164.1370
  21   2.0000      -6.029825      -164.0799
  22   2.0000      -6.028476      -164.0432
  23   2.0000      -6.025969      -163.9750
  24   2.0000      -1.008027       -27.4298
  25   2.0000      -0.981401       -26.7053
  26   2.0000      -0.914900       -24.8957
  27   2.0000      -0.903589       -24.5879
  28   2.0000      -0.875041       -23.8111
  29   2.0000      -0.849146       -23.1064
  30   2.0000      -0.845649       -23.0113
  31   2.0000      -0.816164       -22.2090
  32   2.0000      -0.778929       -21.1957
  33   2.0000      -0.765558       -20.8319
  34   2.0000      -0.709455       -19.3052
  35   2.0000      -0.699074       -19.0228
  36   2.0000      -0.692378       -18.8406
  37   2.0000      -0.664224       -18.0744
  38   2.0000      -0.646513       -17.5925
  39   2.0000      -0.621577       -16.9140
  40   2.0000      -0.597130       -16.2487
  41   2.0000      -0.568617       -15.4728
  42   2.0000      -0.567137       -15.4326
  43   2.0000      -0.555900       -15.1268
  44   2.0000      -0.530076       -14.4241
  45   2.0000      -0.520825       -14.1724
  46   2.0000      -0.518000       -14.0955
  47   2.0000      -0.516194       -14.0464
  48   2.0000      -0.508168       -13.8280
  49   2.0000      -0.500007       -13.6059
  50   2.0000      -0.493549       -13.4301
  51   2.0000      -0.476888       -12.9768
  52   2.0000      -0.470895       -12.8137
  53   2.0000      -0.466084       -12.6828
  54   2.0000      -0.459048       -12.4913
  55   2.0000      -0.449100       -12.2206
  56   2.0000      -0.444292       -12.0898
  57   2.0000      -0.441614       -12.0169
  58   2.0000      -0.435127       -11.8404
  59   2.0000      -0.420941       -11.4544
  60   2.0000      -0.420342       -11.4381
  61   2.0000      -0.411595       -11.2001
  62   2.0000      -0.409164       -11.1339
  63   2.0000      -0.341626        -9.2961
  64   2.0000      -0.323037        -8.7903
  65   2.0000      -0.321970        -8.7612
  66   2.0000      -0.297978        -8.1084
  67   0.0000       0.038765         1.0548
  68   0.0000       0.063329         1.7233
  69   0.0000       0.111705         3.0396
  70   0.0000       0.124566         3.3896
  71   0.0000       0.125699         3.4204

MULLIKEN ATOMIC CHARGES
-----------------------
   0 S :    0.093126
   1 C :   -0.133565
   2 C :   -0.080026
   3 C :    0.070600
   4 C :   -0.146626
   5 H :   -0.016241
   6 C :    0.039239
   7 H :    0.034780
   8 H :    0.053687
   9 C :   -0.091406
  10 H :    0.018938
  11 H :    0.035875
  12 C :   -0.027081
  13 H :    0.043663
  14 H :    0.034413
  15 H :    0.024177
  16 S :    0.113704
  17 C :   -0.086799
  18 C :   -0.001329
  19 C :   -0.032858
  20 C :   -0.176732
  21 H :    0.004657
  22 C :    0.077272
  23 H :   -0.004164
  24 H :    0.042607
  25 C :   -0.102602
  26 H :    0.040708
  27 H :    0.032717
  28 C :   -0.016158
  29 H :    0.023128
  30 H :    0.015271
  31 H :    0.037473
  32 H :    0.041875
  33 H :    0.037677
Sum of atomic charges:    0.0000000

LOEWDIN ATOMIC CHARGES
----------------------
   0 S :    0.382973
   1 C :   -0.181725
   2 C :   -0.059318
   3 C :   -0.046993
   4 C :   -0.198158
   5 H :    0.014029
   6 C :   -0.037056
   7 H :    0.038792
   8 H :    0.041227
   9 C :   -0.038792
  10 H :    0.019848
  11 H :    0.024036
  12 C :   -0.065438
  13 H :    0.029297
  14 H :    0.026217
  15 H :    0.024984
  16 S :    0.422814
  17 C :   -0.168008
  18 C :   -0.067019
  19 C :   -0.048755
  20 C :   -0.220764
  21 H :    0.030522
  22 C :   -0.032780
  23 H :    0.016444
  24 H :    0.041247
  25 C :   -0.040735
  26 H :    0.031383
  27 H :    0.021910
  28 C :   -0.059580
  29 H :    0.017774
  30 H :    0.015282
  31 H :    0.032557
  32 H :    0.019525
  33 H :    0.014261

  Mayer bond orders larger than 0.100000
B(  0-S ,  1-C ) :   1.1211 B(  0-S ,  4-C ) :   1.1492 B(  1-C ,  2-C ) :   1.6091
B(  1-C , 32-H ) :   0.9799 B(  2-C ,  3-C ) :   1.2115 B(  2-C ,  6-C ) :   1.0315
B(  3-C ,  4-C ) :   1.5835 B(  3-C ,  5-H ) :   0.9977 B(  4-C , 20-C ) :   1.0350
B(  6-C ,  7-H ) :   0.9415 B(  6-C ,  8-H ) :   0.9370 B(  6-C ,  9-C ) :   1.0373
B(  9-C , 10-H ) :   0.9515 B(  9-C , 11-H ) :   0.9661 B(  9-C , 12-C ) :   1.0769
B( 12-C , 13-H ) :   0.9723 B( 12-C , 14-H ) :   0.9731 B( 12-C , 15-H ) :   0.9806
B( 16-S , 17-C ) :   1.1707 B( 16-S , 20-C ) :   1.1589 B( 17-C , 18-C ) :   1.5988
B( 17-C , 20-C ) :   0.1008 B( 17-C , 33-H ) :   0.9726 B( 18-C , 19-C ) :   1.2452
B( 18-C , 21-H ) :   1.0024 B( 19-C , 20-C ) :   1.5847 B( 19-C , 22-C ) :   1.0308
B( 22-C , 23-H ) :   0.9343 B( 22-C , 24-H ) :   0.9348 B( 22-C , 25-C ) :   1.0616
B( 25-C , 26-H ) :   0.9520 B( 25-C , 27-H ) :   0.9586 B( 25-C , 28-C ) :   1.0714
B( 28-C , 29-H ) :   0.9774 B( 28-C , 30-H ) :   0.9728 B( 28-C , 31-H ) :   0.9747

Dispersion correction           -0.014149577
FINAL SINGLE POINT ENERGY     -1339.861473537984

DIPOLE MOMENT
-------------
                                X             Y             Z
Electronic contribution:      2.23024      25.27829     -15.59087
Nuclear contribution   :     -2.30307     -25.75620      15.74666
                        -----------------------------------------
Total Dipole Moment    :     -0.07283      -0.47791       0.15579
                        -----------------------------------------
Magnitude (a.u.)       :      0.50791
Magnitude (Debye)      :      1.29100

Rotational constants in cm-1:     0.016585     0.009172     0.006926
Rotational constants in MHz :   497.213317   274.972596   207.643699

                             ****ORCA TERMINATED NORMALLY****
TOTAL RUN TIME: 0 days 0 hours 0 minutes 21 seconds 585 msec
