                         Program Version 4.2.1 -  RELEASE  -
|  1> ! wB97X-D3 SP def2-SVP
|  2> %pal
|  3> nprocs 24
|  4> end
|  5>
|  6> * xyz 0 1
|  7> S 	 -59.6832 	 6.70784 	 -8.80605
|  8> C 	 -59.1865 	 5.09113 	 -8.99327
|  9> C 	 -59.1149 	 4.73382 	 -10.3028
| 10> C 	 -59.6846 	 5.76452 	 -11.1504
| 11> C 	 -59.9359 	 6.9913 	 -10.605
| 12> H 	 -59.9385 	 5.66254 	 -12.2047
| 13> C 	 -58.6709 	 3.31353 	 -10.7493
| 14> H 	 -57.6861 	 3.17764 	 -10.4037
| 15> H 	 -58.6226 	 3.31967 	 -11.8612
| 16> C 	 -59.5229 	 2.15662 	 -10.1709
| 17> H 	 -59.5344 	 2.21949 	 -9.13029
| 18> H 	 -60.5147 	 2.35582 	 -10.4773
| 19> C 	 -59.1162 	 0.738695 	 -10.5571
| 20> H 	 -59.8877 	 0.0208719 	 -10.1305
| 21> H 	 -59.2438 	 0.533726 	 -11.6475
| 22> H 	 -58.1251 	 0.571791 	 -10.2776
| 23> S 	 -61.8902 	 8.81487 	 -10.0248
| 24> C 	 -62.4414 	 10.0776 	 -11.1215
| 25> C 	 -61.7771 	 9.93373 	 -12.331
| 26> C 	 -60.8555 	 8.77501 	 -12.4162
| 27> C 	 -60.6818 	 8.11268 	 -11.1765
| 28> H 	 -62.0386 	 10.6421 	 -13.0723
| 29> C 	 -59.9641 	 8.55833 	 -13.577
| 30> H 	 -60.0633 	 7.44542 	 -13.89
| 31> H 	 -58.9253 	 8.54888 	 -13.2445
| 32> C 	 -60.0442 	 9.44405 	 -14.8327
| 33> H 	 -59.1813 	 9.34887 	 -15.503
| 34> H 	 -60.0759 	 10.5433 	 -14.6527
| 35> C 	 -61.2789 	 9.07559 	 -15.6387
| 36> H 	 -61.3012 	 9.65071 	 -16.5697
| 37> H 	 -62.1881 	 9.28814 	 -15.1386
| 38> H 	 -61.1547 	 8.0281 	 -15.978
| 39> H 	 -59.0301 	 4.47208 	 -8.10409
| 40> H 	 -63.1846 	 10.7914 	 -10.8801
| 41> *
| 42>
| 43>                          ****END OF INPUT****

CARTESIAN COORDINATES (ANGSTROEM)
---------------------------------
  S    -59.683200    6.707840   -8.806050
  C    -59.186500    5.091130   -8.993270
  C    -59.114900    4.733820  -10.302800
  C    -59.684600    5.764520  -11.150400
  C    -59.935900    6.991300  -10.605000
  H    -59.938500    5.662540  -12.204700
  C    -58.670900    3.313530  -10.749300
  H    -57.686100    3.177640  -10.403700
  H    -58.622600    3.319670  -11.861200
  C    -59.522900    2.156620  -10.170900
  H    -59.534400    2.219490   -9.130290
  H    -60.514700    2.355820  -10.477300
  C    -59.116200    0.738695  -10.557100
  H    -59.887700    0.020872  -10.130500
  H    -59.243800    0.533726  -11.647500
  H    -58.125100    0.571791  -10.277600
  S    -61.890200    8.814870  -10.024800
  C    -62.441400   10.077600  -11.121500
  C    -61.777100    9.933730  -12.331000
  C    -60.855500    8.775010  -12.416200
  C    -60.681800    8.112680  -11.176500
  H    -62.038600   10.642100  -13.072300
  C    -59.964100    8.558330  -13.577000
  H    -60.063300    7.445420  -13.890000
  H    -58.925300    8.548880  -13.244500
  C    -60.044200    9.444050  -14.832700
  H    -59.181300    9.348870  -15.503000
  H    -60.075900   10.543300  -14.652700
  C    -61.278900    9.075590  -15.638700
  H    -61.301200    9.650710  -16.569700
  H    -62.188100    9.288140  -15.138600
  H    -61.154700    8.028100  -15.978000
  H    -59.030100    4.472080   -8.104090
  H    -63.184600   10.791400  -10.880100

 Total Charge           Charge          ....    0
 Multiplicity           Mult            ....    1
 Number of Electrons    NEL             ....  134
 Basis Dimension        Dim             ....  322

ORBITAL ENERGIES
----------------

  NO   OCC          E(Eh)            E(eV)
   0   2.0000     -88.962101     -2420.7818
   1   2.0000     -88.959351     -2420.7070
   2   2.0000     -10.339672      -281.3568
   3   2.0000     -10.337924      -281.3092
   4   2.0000     -10.319281      -280.8019
   5   2.0000     -10.317844      -280.7628
   6   2.0000     -10.315886      -280.7095
   7   2.0000     -10.304810      -280.4081
   8   2.0000     -10.300206      -280.2829
   9   2.0000     -10.299339      -280.2593
  10   2.0000     -10.298258      -280.2298
  11   2.0000     -10.294580      -280.1298
  12   2.0000     -10.291655      -280.0502
  13   2.0000     -10.282612      -279.8041
  14   2.0000     -10.279675      -279.7242
  15   2.0000     -10.274144      -279.5737
  16   2.0000      -8.076804      -219.7810
  17   2.0000      -8.073310      -219.6859
  18   2.0000      -6.035513      -164.2347
  19   2.0000      -6.032012      -164.1394
  20   2.0000      -6.031244      -164.1185
  21   2.0000      -6.027764      -164.0238
  22   2.0000      -6.027357      -164.0127
  23   2.0000      -6.024033      -163.9223
  24   2.0000      -1.001831       -27.2612
  25   2.0000      -0.978316       -26.6213
  26   2.0000      -0.911543       -24.8043
  27   2.0000      -0.909185       -24.7402
  28   2.0000      -0.875871       -23.8337
  29   2.0000      -0.849354       -23.1121
  30   2.0000      -0.843154       -22.9434
  31   2.0000      -0.820147       -22.3173
  32   2.0000      -0.779394       -21.2084
  33   2.0000      -0.769725       -20.9453
  34   2.0000      -0.708452       -19.2780
  35   2.0000      -0.706586       -19.2272
  36   2.0000      -0.696521       -18.9533
  37   2.0000      -0.659658       -17.9502
  38   2.0000      -0.645569       -17.5668
  39   2.0000      -0.618956       -16.8426
  40   2.0000      -0.599832       -16.3223
  41   2.0000      -0.570000       -15.5105
  42   2.0000      -0.566417       -15.4130
  43   2.0000      -0.553209       -15.0536
  44   2.0000      -0.542668       -14.7667
  45   2.0000      -0.528416       -14.3789
  46   2.0000      -0.521876       -14.2010
  47   2.0000      -0.516749       -14.0614
  48   2.0000      -0.508740       -13.8435
  49   2.0000      -0.499965       -13.6047
  50   2.0000      -0.495236       -13.4761
  51   2.0000      -0.481296       -13.0967
  52   2.0000      -0.470118       -12.7925
  53   2.0000      -0.466543       -12.6953
  54   2.0000      -0.460573       -12.5328
  55   2.0000      -0.444967       -12.1082
  56   2.0000      -0.437617       -11.9082
  57   2.0000      -0.432085       -11.7576
  58   2.0000      -0.430006       -11.7011
  59   2.0000      -0.426020       -11.5926
  60   2.0000      -0.423422       -11.5219
  61   2.0000      -0.417004       -11.3472
  62   2.0000      -0.404161       -10.9978
  63   2.0000      -0.362536        -9.8651
  64   2.0000      -0.326345        -8.8803
  65   2.0000      -0.321981        -8.7615
  66   2.0000      -0.288169        -7.8415
  67   0.0000       0.016913         0.4602
  68   0.0000       0.076198         2.0735
  69   0.0000       0.102768         2.7965
  70   0.0000       0.119151         3.2423
  71   0.0000       0.133393         3.6298

MULLIKEN ATOMIC CHARGES
-----------------------
   0 S :    0.088278
   1 C :   -0.137752
   2 C :   -0.078370
   3 C :   -0.003448
   4 C :   -0.113522
   5 H :    0.016707
   6 C :    0.090640
   7 H :    0.017305
   8 H :    0.023443
   9 C :   -0.054549
  10 H :    0.010561
  11 H :    0.018462
  12 C :   -0.044913
  13 H :    0.044745
  14 H :    0.031223
  15 H :    0.027144
  16 S :    0.069267
  17 C :   -0.071962
  18 C :   -0.039470
  19 C :   -0.001198
  20 C :   -0.137156
  21 H :    0.013532
  22 C :   -0.004151
  23 H :    0.037303
  24 H :    0.044911
  25 C :   -0.071524
  26 H :    0.029671
  27 H :    0.034591
  28 C :   -0.050427
  29 H :    0.025211
  30 H :    0.033033
  31 H :    0.030203
  32 H :    0.070091
  33 H :    0.052122
Sum of atomic charges:   -0.0000000

LOEWDIN ATOMIC CHARGES
----------------------
   0 S :    0.384948
   1 C :   -0.194579
   2 C :   -0.073295
   3 C :   -0.056833
   4 C :   -0.180023
   5 H :    0.030714
   6 C :   -0.024285
   7 H :    0.023007
   8 H :    0.031048
   9 C :   -0.035703
  10 H :    0.014264
  11 H :    0.020442
  12 C :   -0.062832
  13 H :    0.038749
  14 H :    0.028265
  15 H :    0.015182
  16 S :    0.374097
  17 C :   -0.170672
  18 C :   -0.072459
  19 C :   -0.053379
  20 C :   -0.169347
  21 H :    0.025005
  22 C :   -0.047335
  23 H :    0.040693
  24 H :    0.037739
  25 C :   -0.046831
  26 H :    0.029569
  27 H :    0.027008
  28 C :   -0.064421
  29 H :    0.024827
  30 H :    0.017182
  31 H :    0.027449
  32 H :    0.035598
  33 H :    0.026206

  Mayer bond orders larger than 0.100000
B(  0-S ,  1-C ) :   1.1646 B(  0-S ,  4-C ) :   1.1087 B(  1-C ,  2-C ) :   1.5953
B(  1-C , 32-H ) :   0.9663 B(  2-C ,  3-C ) :   1.2393 B(  2-C ,  6-C ) :   1.0190
B(  3-C ,  4-C ) :   1.5988 B(  3-C ,  5-H ) :   0.9840 B(  4-C , 20-C ) :   1.0805
B(  6-C ,  7-H ) :   0.9339 B(  6-C ,  8-H ) :   0.9460 B(  6-C ,  9-C ) :   1.0640
B(  9-C , 10-H ) :   0.9521 B(  9-C , 11-H ) :   0.9554 B(  9-C , 12-C ) :   1.0906
B( 12-C , 13-H ) :   0.9716 B( 12-C , 14-H ) :   0.9755 B( 12-C , 15-H ) :   0.9755
B( 16-S , 17-C ) :   1.1491 B( 16-S , 20-C ) :   1.1231 B( 17-C , 18-C ) :   1.6188
B( 17-C , 33-H ) :   0.9720 B( 18-C , 19-C ) :   1.2119 B( 18-C , 21-H ) :   0.9907
B( 19-C , 20-C ) :   1.5809 B( 19-C , 22-C ) :   1.0422 B( 22-C , 23-H ) :   0.9250
B( 22-C , 24-H ) :   0.9382 B( 22-C , 25-C ) :   1.0833 B( 25-C , 26-H ) :   0.9528
B( 25-C , 27-H ) :   0.9491 B( 25-C , 28-C ) :   1.0816 B( 28-C , 29-H ) :   0.9721
B( 28-C , 30-H ) :   0.9792 B( 28-C , 31-H ) :   0.9727

Dispersion correction           -0.013243079
FINAL SINGLE POINT ENERGY     -1339.860025490460

DIPOLE MOMENT
-------------
                                X             Y             Z
Electronic contribution:     -4.59528      15.62339      20.48915
Nuclear contribution   :      4.66604     -15.96905     -21.05796
                        -----------------------------------------
Total Dipole Moment    :      0.07076      -0.34566      -0.56881
                        -----------------------------------------
Magnitude (a.u.)       :      0.66935
Magnitude (Debye)      :      1.70136

Rotational constants in cm-1:     0.020716     0.006976     0.005613
Rotational constants in MHz :   621.051979   209.120929   168.280810

                             ****ORCA TERMINATED NORMALLY****
TOTAL RUN TIME: 0 days 0 hours 0 minutes 20 seconds 707 msec
