                         Program Version 4.2.1 -  RELEASE  -
|  1> ! wB97X-D3 SP def2-SVP
|  2> %pal
|  3> nprocs 24
|  4> end
|  5>
|  6> * xyz 0 1
|  7> S 	 -104.895 	 6.03404 	 -125.044
|  8> C 	 -106.159 	 4.8979 	 -125.363
|  9> C 	 -106.598 	 4.33872 	 -124.133
| 10> C 	 -106.068 	 4.95419 	 -122.963
| 11> C 	 -105.135 	 5.92675 	 -123.302
| 12> H 	 -106.324 	 4.73157 	 -121.899
| 13> C 	 -107.558 	 3.17709 	 -123.972
| 14> H 	 -107.603 	 2.59866 	 -124.884
| 15> H 	 -108.542 	 3.62389 	 -123.739
| 16> C 	 -107.176 	 2.2491 	 -122.885
| 17> H 	 -106.161 	 2.11781 	 -122.884
| 18> H 	 -107.241 	 2.66799 	 -121.853
| 19> C 	 -107.869 	 0.882591 	 -122.91
| 20> H 	 -107.589 	 0.217895 	 -123.808
| 21> H 	 -107.73 	 0.303331 	 -121.949
| 22> H 	 -108.999 	 1.04575 	 -123.007
| 23> S 	 -104.969 	 8.56986 	 -122.41
| 24> C 	 -103.778 	 9.0144 	 -121.194
| 25> C 	 -103.381 	 7.86884 	 -120.605
| 26> C 	 -103.823 	 6.65221 	 -121.244
| 27> C 	 -104.51 	 6.88587 	 -122.421
| 28> H 	 -102.742 	 7.90459 	 -119.663
| 29> C 	 -103.505 	 5.36312 	 -120.595
| 30> H 	 -103.205 	 4.60902 	 -121.354
| 31> H 	 -104.455 	 5.06183 	 -120.203
| 32> C 	 -102.37 	 5.30836 	 -119.549
| 33> H 	 -101.478 	 5.8325 	 -119.829
| 34> H 	 -101.896 	 4.35978 	 -119.498
| 35> C 	 -102.839 	 5.6966 	 -118.114
| 36> H 	 -102.01 	 5.56783 	 -117.417
| 37> H 	 -103.513 	 4.98161 	 -117.667
| 38> H 	 -103.175 	 6.64625 	 -117.94
| 39> H 	 -106.658 	 4.66887 	 -126.33
| 40> H 	 -103.688 	 9.88312 	 -120.551
| 41> *
| 42>
| 43>                          ****END OF INPUT****

CARTESIAN COORDINATES (ANGSTROEM)
---------------------------------
  S    -104.895000    6.034040  -125.044000
  C    -106.159000    4.897900  -125.363000
  C    -106.598000    4.338720  -124.133000
  C    -106.068000    4.954190  -122.963000
  C    -105.135000    5.926750  -123.302000
  H    -106.324000    4.731570  -121.899000
  C    -107.558000    3.177090  -123.972000
  H    -107.603000    2.598660  -124.884000
  H    -108.542000    3.623890  -123.739000
  C    -107.176000    2.249100  -122.885000
  H    -106.161000    2.117810  -122.884000
  H    -107.241000    2.667990  -121.853000
  C    -107.869000    0.882591  -122.910000
  H    -107.589000    0.217895  -123.808000
  H    -107.730000    0.303331  -121.949000
  H    -108.999000    1.045750  -123.007000
  S    -104.969000    8.569860  -122.410000
  C    -103.778000    9.014400  -121.194000
  C    -103.381000    7.868840  -120.605000
  C    -103.823000    6.652210  -121.244000
  C    -104.510000    6.885870  -122.421000
  H    -102.742000    7.904590  -119.663000
  C    -103.505000    5.363120  -120.595000
  H    -103.205000    4.609020  -121.354000
  H    -104.455000    5.061830  -120.203000
  C    -102.370000    5.308360  -119.549000
  H    -101.478000    5.832500  -119.829000
  H    -101.896000    4.359780  -119.498000
  C    -102.839000    5.696600  -118.114000
  H    -102.010000    5.567830  -117.417000
  H    -103.513000    4.981610  -117.667000
  H    -103.175000    6.646250  -117.940000
  H    -106.658000    4.668870  -126.330000
  H    -103.688000    9.883120  -120.551000

 Total Charge           Charge          ....    0
 Multiplicity           Mult            ....    1
 Number of Electrons    NEL             ....  134
 Basis Dimension        Dim             ....  322

ORBITAL ENERGIES
----------------

  NO   OCC          E(Eh)            E(eV)
   0   2.0000     -88.968396     -2420.9531
   1   2.0000     -88.959625     -2420.7145
   2   2.0000     -10.329811      -281.0885
   3   2.0000     -10.322135      -280.8796
   4   2.0000     -10.319815      -280.8164
   5   2.0000     -10.310993      -280.5764
   6   2.0000     -10.303730      -280.3787
   7   2.0000     -10.300259      -280.2843
   8   2.0000     -10.299268      -280.2573
   9   2.0000     -10.295086      -280.1435
  10   2.0000     -10.290935      -280.0306
  11   2.0000     -10.290540      -280.0198
  12   2.0000     -10.288974      -279.9772
  13   2.0000     -10.288412      -279.9619
  14   2.0000     -10.279278      -279.7134
  15   2.0000     -10.273185      -279.5476
  16   2.0000      -8.082976      -219.9490
  17   2.0000      -8.074348      -219.7142
  18   2.0000      -6.041434      -164.3958
  19   2.0000      -6.037396      -164.2859
  20   2.0000      -6.033893      -164.1906
  21   2.0000      -6.033105      -164.1691
  22   2.0000      -6.029035      -164.0584
  23   2.0000      -6.024604      -163.9378
  24   2.0000      -1.008174       -27.4338
  25   2.0000      -0.985835       -26.8259
  26   2.0000      -0.920023       -25.0351
  27   2.0000      -0.910719       -24.7819
  28   2.0000      -0.873700       -23.7746
  29   2.0000      -0.849250       -23.1093
  30   2.0000      -0.843738       -22.9593
  31   2.0000      -0.816450       -22.2167
  32   2.0000      -0.783057       -21.3081
  33   2.0000      -0.770221       -20.9588
  34   2.0000      -0.720766       -19.6130
  35   2.0000      -0.709069       -19.2948
  36   2.0000      -0.692774       -18.8513
  37   2.0000      -0.650173       -17.6921
  38   2.0000      -0.640918       -17.4403
  39   2.0000      -0.620117       -16.8742
  40   2.0000      -0.593903       -16.1609
  41   2.0000      -0.571584       -15.5536
  42   2.0000      -0.567171       -15.4335
  43   2.0000      -0.551839       -15.0163
  44   2.0000      -0.536465       -14.5980
  45   2.0000      -0.527160       -14.3447
  46   2.0000      -0.516465       -14.0537
  47   2.0000      -0.510447       -13.8900
  48   2.0000      -0.508104       -13.8262
  49   2.0000      -0.501895       -13.6573
  50   2.0000      -0.489666       -13.3245
  51   2.0000      -0.483304       -13.1514
  52   2.0000      -0.475801       -12.9472
  53   2.0000      -0.464466       -12.6388
  54   2.0000      -0.456778       -12.4296
  55   2.0000      -0.455504       -12.3949
  56   2.0000      -0.446948       -12.1621
  57   2.0000      -0.436742       -11.8843
  58   2.0000      -0.436415       -11.8755
  59   2.0000      -0.422975       -11.5097
  60   2.0000      -0.414561       -11.2808
  61   2.0000      -0.411136       -11.1876
  62   2.0000      -0.410252       -11.1635
  63   2.0000      -0.346263        -9.4223
  64   2.0000      -0.326478        -8.8839
  65   2.0000      -0.318263        -8.6604
  66   2.0000      -0.296767        -8.0754
  67   0.0000       0.026130         0.7110
  68   0.0000       0.065663         1.7868
  69   0.0000       0.114613         3.1188
  70   0.0000       0.117201         3.1892
  71   0.0000       0.127892         3.4801

MULLIKEN ATOMIC CHARGES
-----------------------
   0 S :    0.131090
   1 C :   -0.129141
   2 C :   -0.135027
   3 C :    0.024268
   4 C :   -0.194205
   5 H :    0.038797
   6 C :    0.116649
   7 H :    0.015697
   8 H :    0.042450
   9 C :   -0.077014
  10 H :    0.006113
  11 H :    0.022040
  12 C :   -0.096765
  13 H :    0.049489
  14 H :    0.047826
  15 H :    0.035386
  16 S :    0.096513
  17 C :   -0.051632
  18 C :   -0.098386
  19 C :   -0.048723
  20 C :   -0.134365
  21 H :    0.047097
  22 C :    0.079866
  23 H :    0.041105
  24 H :    0.029932
  25 C :   -0.047057
  26 H :    0.021749
  27 H :    0.011698
  28 C :   -0.027634
  29 H :    0.016101
  30 H :    0.022974
  31 H :    0.014720
  32 H :    0.067712
  33 H :    0.060676
Sum of atomic charges:    0.0000000

LOEWDIN ATOMIC CHARGES
----------------------
   0 S :    0.423542
   1 C :   -0.220114
   2 C :   -0.062031
   3 C :   -0.061233
   4 C :   -0.193417
   5 H :    0.042194
   6 C :   -0.031397
   7 H :    0.028684
   8 H :    0.037849
   9 C :   -0.052895
  10 H :    0.013243
  11 H :    0.026877
  12 C :   -0.077256
  13 H :    0.032220
  14 H :    0.033125
  15 H :    0.029179
  16 S :    0.400403
  17 C :   -0.193827
  18 C :   -0.081783
  19 C :   -0.053844
  20 C :   -0.212870
  21 H :    0.041681
  22 C :   -0.034394
  23 H :    0.041583
  24 H :    0.031728
  25 C :   -0.039159
  26 H :    0.025422
  27 H :    0.026193
  28 C :   -0.063325
  29 H :    0.029095
  30 H :    0.026141
  31 H :    0.006884
  32 H :    0.041330
  33 H :    0.040171

  Mayer bond orders larger than 0.100000
B(  0-S ,  1-C ) :   1.1478 B(  0-S ,  4-C ) :   1.1676 B(  1-C ,  2-C ) :   1.5874
B(  1-C ,  4-C ) :   0.1012 B(  1-C , 32-H ) :   0.9655 B(  2-C ,  3-C ) :   1.2577
B(  2-C ,  6-C ) :   1.0238 B(  3-C ,  4-C ) :   1.5522 B(  3-C ,  5-H ) :   0.9823
B(  4-C , 20-C ) :   1.0478 B(  6-C ,  7-H ) :   0.9467 B(  6-C ,  8-H ) :   0.9215
B(  6-C ,  9-C ) :   1.0765 B(  9-C , 10-H ) :   0.9527 B(  9-C , 11-H ) :   0.9368
B(  9-C , 12-C ) :   1.0851 B( 12-C , 13-H ) :   0.9721 B( 12-C , 14-H ) :   0.9731
B( 12-C , 15-H ) :   0.9733 B( 16-S , 17-C ) :   1.1373 B( 16-S , 20-C ) :   1.1355
B( 17-C , 18-C ) :   1.6261 B( 17-C , 33-H ) :   0.9545 B( 18-C , 19-C ) :   1.2595
B( 18-C , 21-H ) :   0.9642 B( 19-C , 20-C ) :   1.5752 B( 19-C , 22-C ) :   1.0468
B( 22-C , 23-H ) :   0.9278 B( 22-C , 24-H ) :   0.9205 B( 22-C , 25-C ) :   1.0727
B( 25-C , 26-H ) :   0.9537 B( 25-C , 27-H ) :   0.9488 B( 25-C , 28-C ) :   1.0748
B( 28-C , 29-H ) :   0.9680 B( 28-C , 30-H ) :   0.9712 B( 28-C , 31-H ) :   0.9812

Dispersion correction           -0.014007265
FINAL SINGLE POINT ENERGY     -1339.844509326637

DIPOLE MOMENT
-------------
                                X             Y             Z
Electronic contribution:      2.20477      23.48806     -17.91544
Nuclear contribution   :     -2.29536     -24.11882      18.58267
                        -----------------------------------------
Total Dipole Moment    :     -0.09059      -0.63077       0.66723
                        -----------------------------------------
Magnitude (a.u.)       :      0.92264
Magnitude (Debye)      :      2.34517

Rotational constants in cm-1:     0.017780     0.008606     0.006362
Rotational constants in MHz :   533.039979   258.013543   190.718916

                             ****ORCA TERMINATED NORMALLY****
TOTAL RUN TIME: 0 days 0 hours 0 minutes 21 seconds 498 msec
