                         Program Version 4.2.1 -  RELEASE  -
|  1> ! wB97X-D3 SP def2-SVP
|  2> %pal
|  3> nprocs 24
|  4> end
|  5>
|  6> * xyz 0 1
|  7> S 	 -52.4708 	 3.78011 	 -24.467
|  8> C 	 -52.0272 	 3.73873 	 -22.7645
|  9> C 	 -53.017 	 3.07547 	 -22.0745
| 10> C 	 -54.0788 	 2.51923 	 -22.9106
| 11> C 	 -53.9257 	 2.73663 	 -24.289
| 12> H 	 -54.8253 	 1.93466 	 -22.5686
| 13> C 	 -53.0355 	 2.66659 	 -20.6247
| 14> H 	 -54.0116 	 2.86684 	 -20.3408
| 15> H 	 -52.2753 	 3.22965 	 -20.074
| 16> C 	 -52.8252 	 1.15307 	 -20.2488
| 17> H 	 -53.4841 	 0.556311 	 -20.8042
| 18> H 	 -51.8996 	 0.788879 	 -20.6481
| 19> C 	 -52.9267 	 0.72797 	 -18.7522
| 20> H 	 -52.2845 	 1.22885 	 -18.101
| 21> H 	 -53.9184 	 1.00315 	 -18.3835
| 22> H 	 -52.7907 	 -0.364261 	 -18.7263
| 23> S 	 -55.0585 	 3.55191 	 -26.6092
| 24> C 	 -56.1193 	 2.54753 	 -27.5288
| 25> C 	 -56.3605 	 1.38177 	 -26.8832
| 26> C 	 -55.4509 	 1.16597 	 -25.7852
| 27> C 	 -54.7925 	 2.32451 	 -25.4465
| 28> H 	 -57.0794 	 0.698431 	 -27.2816
| 29> C 	 -55.4552 	 -0.118358 	 -24.9576
| 30> H 	 -56.3868 	 -0.224968 	 -24.3775
| 31> H 	 -54.6966 	 0.00201402 	 -24.1519
| 32> C 	 -55.3231 	 -1.42759 	 -25.6513
| 33> H 	 -54.3246 	 -1.57961 	 -26.0855
| 34> H 	 -56.0813 	 -1.68274 	 -26.3747
| 35> C 	 -55.57 	 -2.64876 	 -24.7558
| 36> H 	 -56.3546 	 -2.30942 	 -24.0792
| 37> H 	 -54.8235 	 -2.8313 	 -24.0692
| 38> H 	 -55.8154 	 -3.57173 	 -25.3167
| 39> H 	 -51.1481 	 4.00296 	 -22.3161
| 40> H 	 -56.5724 	 2.83979 	 -28.4112
| 41> *
| 42>
| 43>                          ****END OF INPUT****

CARTESIAN COORDINATES (ANGSTROEM)
---------------------------------
  S    -52.470800    3.780110  -24.467000
  C    -52.027200    3.738730  -22.764500
  C    -53.017000    3.075470  -22.074500
  C    -54.078800    2.519230  -22.910600
  C    -53.925700    2.736630  -24.289000
  H    -54.825300    1.934660  -22.568600
  C    -53.035500    2.666590  -20.624700
  H    -54.011600    2.866840  -20.340800
  H    -52.275300    3.229650  -20.074000
  C    -52.825200    1.153070  -20.248800
  H    -53.484100    0.556311  -20.804200
  H    -51.899600    0.788879  -20.648100
  C    -52.926700    0.727970  -18.752200
  H    -52.284500    1.228850  -18.101000
  H    -53.918400    1.003150  -18.383500
  H    -52.790700   -0.364261  -18.726300
  S    -55.058500    3.551910  -26.609200
  C    -56.119300    2.547530  -27.528800
  C    -56.360500    1.381770  -26.883200
  C    -55.450900    1.165970  -25.785200
  C    -54.792500    2.324510  -25.446500
  H    -57.079400    0.698431  -27.281600
  C    -55.455200   -0.118358  -24.957600
  H    -56.386800   -0.224968  -24.377500
  H    -54.696600    0.002014  -24.151900
  C    -55.323100   -1.427590  -25.651300
  H    -54.324600   -1.579610  -26.085500
  H    -56.081300   -1.682740  -26.374700
  C    -55.570000   -2.648760  -24.755800
  H    -56.354600   -2.309420  -24.079200
  H    -54.823500   -2.831300  -24.069200
  H    -55.815400   -3.571730  -25.316700
  H    -51.148100    4.002960  -22.316100
  H    -56.572400    2.839790  -28.411200

 Total Charge           Charge          ....    0
 Multiplicity           Mult            ....    1
 Number of Electrons    NEL             ....  134
 Basis Dimension        Dim             ....  322

ORBITAL ENERGIES
----------------

  NO   OCC          E(Eh)            E(eV)
   0   2.0000     -88.965389     -2420.8713
   1   2.0000     -88.962971     -2420.8055
   2   2.0000     -10.343398      -281.4582
   3   2.0000     -10.331354      -281.1304
   4   2.0000     -10.312979      -280.6304
   5   2.0000     -10.310037      -280.5504
   6   2.0000     -10.307514      -280.4817
   7   2.0000     -10.303782      -280.3802
   8   2.0000     -10.296134      -280.1721
   9   2.0000     -10.293333      -280.0958
  10   2.0000     -10.292630      -280.0767
  11   2.0000     -10.289659      -279.9959
  12   2.0000     -10.284018      -279.8424
  13   2.0000     -10.282059      -279.7891
  14   2.0000     -10.280647      -279.7506
  15   2.0000     -10.272433      -279.5271
  16   2.0000      -8.079347      -219.8502
  17   2.0000      -8.079023      -219.8414
  18   2.0000      -6.037833      -164.2978
  19   2.0000      -6.037752      -164.2956
  20   2.0000      -6.033593      -164.1824
  21   2.0000      -6.033552      -164.1813
  22   2.0000      -6.030124      -164.0880
  23   2.0000      -6.029627      -164.0745
  24   2.0000      -1.011544       -27.5255
  25   2.0000      -0.983734       -26.7688
  26   2.0000      -0.917473       -24.9657
  27   2.0000      -0.907210       -24.6864
  28   2.0000      -0.872624       -23.7453
  29   2.0000      -0.856344       -23.3023
  30   2.0000      -0.845645       -23.0112
  31   2.0000      -0.823879       -22.4189
  32   2.0000      -0.783146       -21.3105
  33   2.0000      -0.776775       -21.1371
  34   2.0000      -0.712021       -19.3751
  35   2.0000      -0.705962       -19.2102
  36   2.0000      -0.700468       -19.0607
  37   2.0000      -0.664757       -18.0890
  38   2.0000      -0.648852       -17.6562
  39   2.0000      -0.625748       -17.0275
  40   2.0000      -0.605410       -16.4740
  41   2.0000      -0.574519       -15.6335
  42   2.0000      -0.571244       -15.5443
  43   2.0000      -0.563762       -15.3407
  44   2.0000      -0.538094       -14.6423
  45   2.0000      -0.529137       -14.3986
  46   2.0000      -0.520664       -14.1680
  47   2.0000      -0.515448       -14.0261
  48   2.0000      -0.510569       -13.8933
  49   2.0000      -0.506886       -13.7931
  50   2.0000      -0.491930       -13.3861
  51   2.0000      -0.481994       -13.1157
  52   2.0000      -0.476586       -12.9686
  53   2.0000      -0.465323       -12.6621
  54   2.0000      -0.462695       -12.5906
  55   2.0000      -0.458724       -12.4825
  56   2.0000      -0.444325       -12.0907
  57   2.0000      -0.437132       -11.8950
  58   2.0000      -0.432380       -11.7657
  59   2.0000      -0.423402       -11.5213
  60   2.0000      -0.419149       -11.4056
  61   2.0000      -0.414794       -11.2871
  62   2.0000      -0.410099       -11.1594
  63   2.0000      -0.355013        -9.6604
  64   2.0000      -0.330636        -8.9971
  65   2.0000      -0.324852        -8.8397
  66   2.0000      -0.297167        -8.0863
  67   0.0000       0.028527         0.7763
  68   0.0000       0.074300         2.0218
  69   0.0000       0.108867         2.9624
  70   0.0000       0.117878         3.2076
  71   0.0000       0.130584         3.5534

MULLIKEN ATOMIC CHARGES
-----------------------
   0 S :    0.090998
   1 C :   -0.063986
   2 C :   -0.097187
   3 C :    0.060668
   4 C :   -0.127640
   5 H :   -0.033249
   6 C :    0.097186
   7 H :    0.011757
   8 H :    0.020482
   9 C :   -0.060432
  10 H :    0.000052
  11 H :    0.012273
  12 C :   -0.028549
  13 H :    0.021974
  14 H :    0.021952
  15 H :    0.045361
  16 S :    0.103549
  17 C :   -0.056629
  18 C :   -0.020650
  19 C :   -0.027195
  20 C :   -0.135247
  21 H :    0.016443
  22 C :    0.039356
  23 H :    0.027830
  24 H :    0.026409
  25 C :   -0.074076
  26 H :    0.036070
  27 H :    0.026358
  28 C :   -0.035432
  29 H :    0.004711
  30 H :    0.006948
  31 H :    0.048290
  32 H :    0.011919
  33 H :    0.029686
Sum of atomic charges:   -0.0000000

LOEWDIN ATOMIC CHARGES
----------------------
   0 S :    0.378261
   1 C :   -0.178180
   2 C :   -0.057662
   3 C :   -0.051051
   4 C :   -0.170040
   5 H :    0.007712
   6 C :   -0.025844
   7 H :    0.023157
   8 H :    0.029041
   9 C :   -0.035907
  10 H :    0.012613
  11 H :    0.018650
  12 C :   -0.055291
  13 H :    0.014925
  14 H :    0.024338
  15 H :    0.034941
  16 S :    0.428197
  17 C :   -0.173241
  18 C :   -0.062236
  19 C :   -0.056686
  20 C :   -0.203974
  21 H :    0.029504
  22 C :   -0.040137
  23 H :    0.032723
  24 H :    0.034266
  25 C :   -0.045678
  26 H :    0.027010
  27 H :    0.025223
  28 C :   -0.060534
  29 H :    0.022378
  30 H :    0.009542
  31 H :    0.032674
  32 H :    0.015564
  33 H :    0.015739

  Mayer bond orders larger than 0.100000
B(  0-S ,  1-C ) :   1.1203 B(  0-S ,  4-C ) :   1.1386 B(  1-C ,  2-C ) :   1.6234
B(  1-C , 32-H ) :   0.9801 B(  2-C ,  3-C ) :   1.2089 B(  2-C ,  6-C ) :   1.0425
B(  3-C ,  4-C ) :   1.5793 B(  3-C ,  5-H ) :   1.0101 B(  4-C , 20-C ) :   1.0161
B(  6-C ,  7-H ) :   0.9279 B(  6-C ,  8-H ) :   0.9448 B(  6-C ,  9-C ) :   1.0616
B(  9-C , 10-H ) :   0.9507 B(  9-C , 11-H ) :   0.9544 B(  9-C , 12-C ) :   1.0808
B( 12-C , 13-H ) :   0.9788 B( 12-C , 14-H ) :   0.9752 B( 12-C , 15-H ) :   0.9739
B( 16-S , 17-C ) :   1.1545 B( 16-S , 20-C ) :   1.1533 B( 17-C , 18-C ) :   1.6230
B( 17-C , 33-H ) :   0.9783 B( 18-C , 19-C ) :   1.2160 B( 18-C , 21-H ) :   0.9929
B( 19-C , 20-C ) :   1.6098 B( 19-C , 22-C ) :   1.0491 B( 22-C , 23-H ) :   0.9292
B( 22-C , 24-H ) :   0.9317 B( 22-C , 25-C ) :   1.0777 B( 25-C , 26-H ) :   0.9519
B( 25-C , 27-H ) :   0.9566 B( 25-C , 28-C ) :   1.0726 B( 28-C , 29-H ) :   0.9668
B( 28-C , 30-H ) :   0.9722 B( 28-C , 31-H ) :   0.9782

Dispersion correction           -0.013225076
FINAL SINGLE POINT ENERGY     -1339.850029409899

DIPOLE MOMENT
-------------
                                X             Y             Z
Electronic contribution:      2.69004      25.65517     -20.93903
Nuclear contribution   :     -2.96115     -26.29272      21.34405
                        -----------------------------------------
Total Dipole Moment    :     -0.27111      -0.63755       0.40501
                        -----------------------------------------
Magnitude (a.u.)       :      0.80250
Magnitude (Debye)      :      2.03979

Rotational constants in cm-1:     0.015858     0.008975     0.006111
Rotational constants in MHz :   475.402258   269.058321   183.197811

                             ****ORCA TERMINATED NORMALLY****
TOTAL RUN TIME: 0 days 0 hours 0 minutes 20 seconds 980 msec
