                         Program Version 4.2.1 -  RELEASE  -
|  1> ! wB97X-D3 SP def2-SVP
|  2> %pal
|  3> nprocs 24
|  4> end
|  5>
|  6> * xyz 0 1
|  7> S 	 -60.3165 	 7.92841 	 -15.6765
|  8> C 	 -60.2472 	 6.40034 	 -14.9231
|  9> C 	 -60.2763 	 5.35392 	 -15.8569
| 10> C 	 -60.3291 	 5.77178 	 -17.2344
| 11> C 	 -60.3193 	 7.14456 	 -17.3057
| 12> H 	 -60.305 	 5.07539 	 -18.0764
| 13> C 	 -60.126 	 3.8733 	 -15.5909
| 14> H 	 -60.7302 	 3.18686 	 -16.2182
| 15> H 	 -60.4853 	 3.6286 	 -14.658
| 16> C 	 -58.6322 	 3.45619 	 -15.6721
| 17> H 	 -58.2237 	 3.87421 	 -16.5762
| 18> H 	 -58.2662 	 3.92008 	 -14.7559
| 19> C 	 -58.4876 	 1.93215 	 -15.4255
| 20> H 	 -59.0183 	 1.60732 	 -14.5449
| 21> H 	 -58.7971 	 1.36676 	 -16.2893
| 22> H 	 -57.4241 	 1.8381 	 -15.2427
| 23> S 	 -61.6617 	 9.20278 	 -18.4148
| 24> C 	 -61.3956 	 9.58022 	 -20.1031
| 25> C 	 -60.3328 	 8.86811 	 -20.591
| 26> C 	 -59.7526 	 7.89896 	 -19.7393
| 27> C 	 -60.4466 	 7.93503 	 -18.4972
| 28> H 	 -60.0779 	 9.14378 	 -21.5927
| 29> C 	 -58.5674 	 7.01142 	 -20.1696
| 30> H 	 -58.1321 	 6.46156 	 -19.3124
| 31> H 	 -57.7497 	 7.70747 	 -20.2882
| 32> C 	 -58.692 	 6.05711 	 -21.381
| 33> H 	 -57.8059 	 5.46793 	 -21.4651
| 34> H 	 -58.8306 	 6.69147 	 -22.2965
| 35> C 	 -59.7988 	 5.06571 	 -21.1956
| 36> H 	 -59.6892 	 4.47316 	 -20.3307
| 37> H 	 -59.6494 	 4.35493 	 -21.9989
| 38> H 	 -60.7821 	 5.45698 	 -21.1484
| 39> H 	 -60.4152 	 6.18512 	 -13.8464
| 40> H 	 -61.8056 	 10.4354 	 -20.6331
| 41> *
| 42>
| 43>                          ****END OF INPUT****

CARTESIAN COORDINATES (ANGSTROEM)
---------------------------------
  S    -60.316500    7.928410  -15.676500
  C    -60.247200    6.400340  -14.923100
  C    -60.276300    5.353920  -15.856900
  C    -60.329100    5.771780  -17.234400
  C    -60.319300    7.144560  -17.305700
  H    -60.305000    5.075390  -18.076400
  C    -60.126000    3.873300  -15.590900
  H    -60.730200    3.186860  -16.218200
  H    -60.485300    3.628600  -14.658000
  C    -58.632200    3.456190  -15.672100
  H    -58.223700    3.874210  -16.576200
  H    -58.266200    3.920080  -14.755900
  C    -58.487600    1.932150  -15.425500
  H    -59.018300    1.607320  -14.544900
  H    -58.797100    1.366760  -16.289300
  H    -57.424100    1.838100  -15.242700
  S    -61.661700    9.202780  -18.414800
  C    -61.395600    9.580220  -20.103100
  C    -60.332800    8.868110  -20.591000
  C    -59.752600    7.898960  -19.739300
  C    -60.446600    7.935030  -18.497200
  H    -60.077900    9.143780  -21.592700
  C    -58.567400    7.011420  -20.169600
  H    -58.132100    6.461560  -19.312400
  H    -57.749700    7.707470  -20.288200
  C    -58.692000    6.057110  -21.381000
  H    -57.805900    5.467930  -21.465100
  H    -58.830600    6.691470  -22.296500
  C    -59.798800    5.065710  -21.195600
  H    -59.689200    4.473160  -20.330700
  H    -59.649400    4.354930  -21.998900
  H    -60.782100    5.456980  -21.148400
  H    -60.415200    6.185120  -13.846400
  H    -61.805600   10.435400  -20.633100

 Total Charge           Charge          ....    0
 Multiplicity           Mult            ....    1
 Number of Electrons    NEL             ....  134
 Basis Dimension        Dim             ....  322

ORBITAL ENERGIES
----------------

  NO   OCC          E(Eh)            E(eV)
   0   2.0000     -88.967783     -2420.9364
   1   2.0000     -88.964908     -2420.8582
   2   2.0000     -10.329512      -281.0803
   3   2.0000     -10.328116      -281.0423
   4   2.0000     -10.313882      -280.6550
   5   2.0000     -10.312466      -280.6165
   6   2.0000     -10.310546      -280.5642
   7   2.0000     -10.299345      -280.2594
   8   2.0000     -10.294540      -280.1287
   9   2.0000     -10.294336      -280.1231
  10   2.0000     -10.290057      -280.0067
  11   2.0000     -10.288911      -279.9755
  12   2.0000     -10.284071      -279.8438
  13   2.0000     -10.281257      -279.7672
  14   2.0000     -10.276805      -279.6461
  15   2.0000     -10.267903      -279.4038
  16   2.0000      -8.082311      -219.9309
  17   2.0000      -8.079591      -219.8569
  18   2.0000      -6.040949      -164.3826
  19   2.0000      -6.038031      -164.3032
  20   2.0000      -6.036929      -164.2732
  21   2.0000      -6.034100      -164.1962
  22   2.0000      -6.032861      -164.1625
  23   2.0000      -6.030428      -164.0963
  24   2.0000      -1.004374       -27.3304
  25   2.0000      -0.980878       -26.6911
  26   2.0000      -0.912118       -24.8200
  27   2.0000      -0.909953       -24.7611
  28   2.0000      -0.870630       -23.6910
  29   2.0000      -0.855351       -23.2753
  30   2.0000      -0.847912       -23.0729
  31   2.0000      -0.813538       -22.1375
  32   2.0000      -0.785656       -21.3788
  33   2.0000      -0.767806       -20.8931
  34   2.0000      -0.709425       -19.3044
  35   2.0000      -0.697203       -18.9719
  36   2.0000      -0.694568       -18.9001
  37   2.0000      -0.656298       -17.8588
  38   2.0000      -0.636399       -17.3173
  39   2.0000      -0.625436       -17.0190
  40   2.0000      -0.596950       -16.2438
  41   2.0000      -0.568683       -15.4746
  42   2.0000      -0.560272       -15.2458
  43   2.0000      -0.556979       -15.1562
  44   2.0000      -0.546450       -14.8697
  45   2.0000      -0.522394       -14.2151
  46   2.0000      -0.519692       -14.1415
  47   2.0000      -0.505561       -13.7570
  48   2.0000      -0.503195       -13.6926
  49   2.0000      -0.499749       -13.5989
  50   2.0000      -0.496240       -13.5034
  51   2.0000      -0.478127       -13.0105
  52   2.0000      -0.471278       -12.8241
  53   2.0000      -0.467482       -12.7208
  54   2.0000      -0.461768       -12.5653
  55   2.0000      -0.447333       -12.1726
  56   2.0000      -0.445477       -12.1220
  57   2.0000      -0.437849       -11.9145
  58   2.0000      -0.433550       -11.7975
  59   2.0000      -0.424161       -11.5420
  60   2.0000      -0.419072       -11.4035
  61   2.0000      -0.416110       -11.3229
  62   2.0000      -0.413370       -11.2484
  63   2.0000      -0.351397        -9.5620
  64   2.0000      -0.332895        -9.0585
  65   2.0000      -0.324479        -8.8295
  66   2.0000      -0.285380        -7.7656
  67   0.0000       0.026180         0.7124
  68   0.0000       0.070430         1.9165
  69   0.0000       0.109501         2.9797
  70   0.0000       0.122230         3.3260
  71   0.0000       0.126657         3.4465

MULLIKEN ATOMIC CHARGES
-----------------------
   0 S :    0.112723
   1 C :   -0.114827
   2 C :   -0.108778
   3 C :    0.040769
   4 C :   -0.136291
   5 H :    0.010176
   6 C :    0.065088
   7 H :    0.017928
   8 H :   -0.018848
   9 C :   -0.084833
  10 H :    0.032126
  11 H :    0.024872
  12 C :   -0.017748
  13 H :    0.028343
  14 H :    0.034600
  15 H :    0.034778
  16 S :    0.105076
  17 C :   -0.094855
  18 C :   -0.048459
  19 C :    0.004642
  20 C :   -0.178173
  21 H :    0.006388
  22 C :    0.048929
  23 H :    0.016788
  24 H :    0.027958
  25 C :   -0.050468
  26 H :    0.024712
  27 H :    0.039184
  28 C :   -0.016696
  29 H :    0.008796
  30 H :    0.023551
  31 H :    0.041024
  32 H :    0.063255
  33 H :    0.058272
Sum of atomic charges:    0.0000000

LOEWDIN ATOMIC CHARGES
----------------------
   0 S :    0.399208
   1 C :   -0.227065
   2 C :   -0.058771
   3 C :   -0.054614
   4 C :   -0.175803
   5 H :    0.035128
   6 C :   -0.036038
   7 H :    0.026625
   8 H :    0.010906
   9 C :   -0.029791
  10 H :    0.020080
  11 H :    0.026106
  12 C :   -0.059555
  13 H :    0.024805
  14 H :    0.022065
  15 H :    0.028583
  16 S :    0.403427
  17 C :   -0.192455
  18 C :   -0.070853
  19 C :   -0.053579
  20 C :   -0.191831
  21 H :    0.027173
  22 C :   -0.040448
  23 H :    0.032113
  24 H :    0.033538
  25 C :   -0.034190
  26 H :    0.025630
  27 H :    0.028675
  28 C :   -0.058888
  29 H :    0.016172
  30 H :    0.029271
  31 H :    0.023902
  32 H :    0.038702
  33 H :    0.031772

  Mayer bond orders larger than 0.100000
B(  0-S ,  1-C ) :   1.1297 B(  0-S ,  4-C ) :   1.1369 B(  1-C ,  2-C ) :   1.6187
B(  1-C , 32-H ) :   0.9566 B(  2-C ,  3-C ) :   1.2343 B(  2-C ,  6-C ) :   1.0422
B(  3-C ,  4-C ) :   1.5652 B(  3-C ,  5-H ) :   0.9938 B(  4-C , 20-C ) :   1.0673
B(  6-C ,  7-H ) :   0.9454 B(  6-C ,  8-H ) :   0.9323 B(  6-C ,  9-C ) :   1.0459
B(  9-C , 10-H ) :   0.9640 B(  9-C , 11-H ) :   0.9582 B(  9-C , 12-C ) :   1.0743
B( 12-C , 13-H ) :   0.9720 B( 12-C , 14-H ) :   0.9769 B( 12-C , 15-H ) :   0.9759
B( 16-S , 17-C ) :   1.1378 B( 16-S , 20-C ) :   1.1607 B( 17-C , 18-C ) :   1.6304
B( 17-C , 20-C ) :   0.1043 B( 17-C , 33-H ) :   0.9644 B( 18-C , 19-C ) :   1.2290
B( 18-C , 21-H ) :   0.9911 B( 19-C , 20-C ) :   1.5496 B( 19-C , 22-C ) :   1.0334
B( 22-C , 23-H ) :   0.9330 B( 22-C , 24-H ) :   0.9308 B( 22-C , 25-C ) :   1.0775
B( 25-C , 26-H ) :   0.9515 B( 25-C , 27-H ) :   0.9537 B( 25-C , 28-C ) :   1.0851
B( 28-C , 29-H ) :   0.9661 B( 28-C , 30-H ) :   0.9681 B( 28-C , 31-H ) :   0.9754

Dispersion correction           -0.014588596
FINAL SINGLE POINT ENERGY     -1339.870988558866

DIPOLE MOMENT
-------------
                                X             Y             Z
Electronic contribution:    -12.17723      27.48409       7.08962
Nuclear contribution   :     12.50550     -28.00614      -7.39793
                        -----------------------------------------
Total Dipole Moment    :      0.32827      -0.52205      -0.30831
                        -----------------------------------------
Magnitude (a.u.)       :      0.68946
Magnitude (Debye)      :      1.75247

Rotational constants in cm-1:     0.018383     0.009332     0.006629
Rotational constants in MHz :   551.107181   279.780796   198.737882

                             ****ORCA TERMINATED NORMALLY****
TOTAL RUN TIME: 0 days 0 hours 0 minutes 20 seconds 989 msec
