                         Program Version 4.2.1 -  RELEASE  -
|  1> ! wB97X-D3 SP def2-SVP
|  2> %pal
|  3> nprocs 24
|  4> end
|  5>
|  6> * xyz 0 1
|  7> S 	 -2.52991 	 -24.6591 	 -108.731
|  8> C 	 -2.9068 	 -23.6798 	 -110.064
|  9> C 	 -3.44097 	 -24.3498 	 -111.173
| 10> C 	 -3.61912 	 -25.7315 	 -110.775
| 11> C 	 -3.25291 	 -26.0691 	 -109.503
| 12> H 	 -3.88772 	 -26.4873 	 -111.556
| 13> C 	 -3.811 	 -23.7691 	 -112.519
| 14> H 	 -4.14768 	 -22.7502 	 -112.341
| 15> H 	 -4.60909 	 -24.3872 	 -112.988
| 16> C 	 -2.64699 	 -23.5794 	 -113.443
| 17> H 	 -2.05486 	 -24.4956 	 -113.577
| 18> H 	 -3.02372 	 -23.5126 	 -114.452
| 19> C 	 -1.67182 	 -22.4175 	 -113.109
| 20> H 	 -0.87586 	 -22.3697 	 -113.868
| 21> H 	 -2.11338 	 -21.4058 	 -113.229
| 22> H 	 -1.22778 	 -22.5247 	 -112.132
| 23> S 	 -1.68282 	 -27.9388 	 -108.155
| 24> C 	 -2.24415 	 -29.5898 	 -108.031
| 25> C 	 -3.52956 	 -29.718 	 -108.409
| 26> C 	 -4.05619 	 -28.4961 	 -109.085
| 27> C 	 -3.19653 	 -27.3954 	 -108.932
| 28> H 	 -3.98265 	 -30.6982 	 -108.527
| 29> C 	 -5.23383 	 -28.531 	 -110.005
| 30> H 	 -5.65249 	 -27.5198 	 -110.1
| 31> H 	 -6.06037 	 -29.013 	 -109.484
| 32> C 	 -5.0691 	 -29.2024 	 -111.41
| 33> H 	 -4.23871 	 -28.7277 	 -111.892
| 34> H 	 -6.02282 	 -29.1305 	 -111.905
| 35> C 	 -4.80143 	 -30.7481 	 -111.355
| 36> H 	 -4.78347 	 -31.2114 	 -112.298
| 37> H 	 -5.44993 	 -31.3541 	 -110.743
| 38> H 	 -3.86309 	 -31.0286 	 -110.874
| 39> H 	 -2.53967 	 -22.662 	 -110.157
| 40> H 	 -1.55936 	 -30.3321 	 -107.755
| 41> *
| 42>
| 43>                          ****END OF INPUT****

CARTESIAN COORDINATES (ANGSTROEM)
---------------------------------
  S     -2.529910  -24.659100  -108.731000
  C     -2.906800  -23.679800  -110.064000
  C     -3.440970  -24.349800  -111.173000
  C     -3.619120  -25.731500  -110.775000
  C     -3.252910  -26.069100  -109.503000
  H     -3.887720  -26.487300  -111.556000
  C     -3.811000  -23.769100  -112.519000
  H     -4.147680  -22.750200  -112.341000
  H     -4.609090  -24.387200  -112.988000
  C     -2.646990  -23.579400  -113.443000
  H     -2.054860  -24.495600  -113.577000
  H     -3.023720  -23.512600  -114.452000
  C     -1.671820  -22.417500  -113.109000
  H     -0.875860  -22.369700  -113.868000
  H     -2.113380  -21.405800  -113.229000
  H     -1.227780  -22.524700  -112.132000
  S     -1.682820  -27.938800  -108.155000
  C     -2.244150  -29.589800  -108.031000
  C     -3.529560  -29.718000  -108.409000
  C     -4.056190  -28.496100  -109.085000
  C     -3.196530  -27.395400  -108.932000
  H     -3.982650  -30.698200  -108.527000
  C     -5.233830  -28.531000  -110.005000
  H     -5.652490  -27.519800  -110.100000
  H     -6.060370  -29.013000  -109.484000
  C     -5.069100  -29.202400  -111.410000
  H     -4.238710  -28.727700  -111.892000
  H     -6.022820  -29.130500  -111.905000
  C     -4.801430  -30.748100  -111.355000
  H     -4.783470  -31.211400  -112.298000
  H     -5.449930  -31.354100  -110.743000
  H     -3.863090  -31.028600  -110.874000
  H     -2.539670  -22.662000  -110.157000
  H     -1.559360  -30.332100  -107.755000

 Total Charge           Charge          ....    0
 Multiplicity           Mult            ....    1
 Number of Electrons    NEL             ....  134
 Basis Dimension        Dim             ....  322

ORBITAL ENERGIES
----------------

  NO   OCC          E(Eh)            E(eV)
   0   2.0000     -88.967213     -2420.9210
   1   2.0000     -88.959997     -2420.7246
   2   2.0000     -10.329809      -281.0884
   3   2.0000     -10.327756      -281.0325
   4   2.0000     -10.314785      -280.6796
   5   2.0000     -10.311659      -280.5945
   6   2.0000     -10.308993      -280.5219
   7   2.0000     -10.302680      -280.3502
   8   2.0000     -10.296839      -280.1912
   9   2.0000     -10.296411      -280.1796
  10   2.0000     -10.296361      -280.1782
  11   2.0000     -10.294648      -280.1316
  12   2.0000     -10.290947      -280.0309
  13   2.0000     -10.286531      -279.9107
  14   2.0000     -10.283695      -279.8336
  15   2.0000     -10.274200      -279.5752
  16   2.0000      -8.082685      -219.9410
  17   2.0000      -8.074843      -219.7276
  18   2.0000      -6.041129      -164.3875
  19   2.0000      -6.037175      -164.2799
  20   2.0000      -6.033513      -164.1802
  21   2.0000      -6.033384      -164.1767
  22   2.0000      -6.029414      -164.0687
  23   2.0000      -6.025342      -163.9579
  24   2.0000      -1.006119       -27.3779
  25   2.0000      -0.982044       -26.7228
  26   2.0000      -0.916956       -24.9516
  27   2.0000      -0.905118       -24.6295
  28   2.0000      -0.872389       -23.7389
  29   2.0000      -0.849331       -23.1115
  30   2.0000      -0.840792       -22.8791
  31   2.0000      -0.815168       -22.1818
  32   2.0000      -0.788097       -21.4452
  33   2.0000      -0.777075       -21.1453
  34   2.0000      -0.714029       -19.4297
  35   2.0000      -0.703159       -19.1339
  36   2.0000      -0.694094       -18.8873
  37   2.0000      -0.661836       -18.0095
  38   2.0000      -0.637586       -17.3496
  39   2.0000      -0.621881       -16.9222
  40   2.0000      -0.598789       -16.2939
  41   2.0000      -0.571902       -15.5622
  42   2.0000      -0.558975       -15.2105
  43   2.0000      -0.552065       -15.0225
  44   2.0000      -0.539887       -14.6911
  45   2.0000      -0.538630       -14.6569
  46   2.0000      -0.520125       -14.1533
  47   2.0000      -0.503194       -13.6926
  48   2.0000      -0.502256       -13.6671
  49   2.0000      -0.499640       -13.5959
  50   2.0000      -0.487232       -13.2582
  51   2.0000      -0.484004       -13.1704
  52   2.0000      -0.473260       -12.8781
  53   2.0000      -0.466316       -12.6891
  54   2.0000      -0.459886       -12.5141
  55   2.0000      -0.445474       -12.1220
  56   2.0000      -0.442264       -12.0346
  57   2.0000      -0.438869       -11.9422
  58   2.0000      -0.435371       -11.8470
  59   2.0000      -0.430049       -11.7022
  60   2.0000      -0.420813       -11.4509
  61   2.0000      -0.416161       -11.3243
  62   2.0000      -0.413785       -11.2597
  63   2.0000      -0.358621        -9.7586
  64   2.0000      -0.329440        -8.9645
  65   2.0000      -0.323436        -8.8011
  66   2.0000      -0.287362        -7.8195
  67   0.0000       0.029750         0.8095
  68   0.0000       0.070948         1.9306
  69   0.0000       0.110987         3.0201
  70   0.0000       0.114372         3.1122
  71   0.0000       0.131236         3.5711

MULLIKEN ATOMIC CHARGES
-----------------------
   0 S :    0.120482
   1 C :   -0.121625
   2 C :   -0.111549
   3 C :   -0.018544
   4 C :   -0.127830
   5 H :    0.020158
   6 C :    0.093553
   7 H :    0.024502
   8 H :    0.036031
   9 C :   -0.062697
  10 H :    0.020711
  11 H :    0.018354
  12 C :   -0.067034
  13 H :    0.033101
  14 H :    0.032006
  15 H :    0.042635
  16 S :    0.076546
  17 C :   -0.083726
  18 C :    0.010358
  19 C :   -0.089815
  20 C :   -0.109046
  21 H :    0.025998
  22 C :    0.026874
  23 H :    0.032313
  24 H :    0.017792
  25 C :   -0.023463
  26 H :    0.041071
  27 H :    0.039757
  28 C :   -0.058584
  29 H :    0.024391
  30 H :    0.014535
  31 H :    0.023996
  32 H :    0.050111
  33 H :    0.048637
Sum of atomic charges:   -0.0000000

LOEWDIN ATOMIC CHARGES
----------------------
   0 S :    0.424014
   1 C :   -0.213860
   2 C :   -0.062582
   3 C :   -0.066186
   4 C :   -0.197412
   5 H :    0.035453
   6 C :   -0.032474
   7 H :    0.035490
   8 H :    0.038510
   9 C :   -0.045655
  10 H :    0.025058
  11 H :    0.023185
  12 C :   -0.068752
  13 H :    0.031070
  14 H :    0.026707
  15 H :    0.022863
  16 S :    0.374765
  17 C :   -0.165105
  18 C :   -0.070089
  19 C :   -0.049737
  20 C :   -0.185583
  21 H :    0.032085
  22 C :   -0.044589
  23 H :    0.034496
  24 H :    0.030478
  25 C :   -0.021831
  26 H :    0.021689
  27 H :    0.029210
  28 C :   -0.071553
  29 H :    0.020458
  30 H :    0.020645
  31 H :    0.023998
  32 H :    0.024676
  33 H :    0.020557

  Mayer bond orders larger than 0.100000
B(  0-S ,  1-C ) :   1.1657 B(  0-S ,  4-C ) :   1.1350 B(  1-C ,  2-C ) :   1.5970
B(  1-C , 32-H ) :   0.9551 B(  2-C ,  3-C ) :   1.2721 B(  2-C ,  6-C ) :   1.0246
B(  3-C ,  4-C ) :   1.5670 B(  3-C ,  5-H ) :   0.9794 B(  4-C , 20-C ) :   1.0644
B(  6-C ,  7-H ) :   0.9352 B(  6-C ,  8-H ) :   0.9388 B(  6-C ,  9-C ) :   1.0733
B(  9-C , 10-H ) :   0.9515 B(  9-C , 11-H ) :   0.9516 B(  9-C , 12-C ) :   1.0783
B( 12-C , 13-H ) :   0.9711 B( 12-C , 14-H ) :   0.9740 B( 12-C , 15-H ) :   0.9732
B( 16-S , 17-C ) :   1.1440 B( 16-S , 20-C ) :   1.1121 B( 17-C , 18-C ) :   1.6381
B( 17-C , 33-H ) :   0.9752 B( 18-C , 19-C ) :   1.1953 B( 18-C , 21-H ) :   0.9819
B( 19-C , 20-C ) :   1.6255 B( 19-C , 22-C ) :   1.0737 B( 22-C , 23-H ) :   0.9272
B( 22-C , 24-H ) :   0.9266 B( 22-C , 25-C ) :   1.0629 B( 25-C , 26-H ) :   0.9513
B( 25-C , 27-H ) :   0.9548 B( 25-C , 28-C ) :   1.0765 B( 28-C , 29-H ) :   0.9728
B( 28-C , 30-H ) :   0.9749 B( 28-C , 31-H ) :   0.9694

Dispersion correction           -0.014836060
FINAL SINGLE POINT ENERGY     -1339.878676245136

DIPOLE MOMENT
-------------
                                X             Y             Z
Electronic contribution:      8.21806       1.07888      23.91972
Nuclear contribution   :     -8.39027      -1.31228     -24.75886
                        -----------------------------------------
Total Dipole Moment    :     -0.17221      -0.23340      -0.83914
                        -----------------------------------------
Magnitude (a.u.)       :      0.88785
Magnitude (Debye)      :      2.25675

Rotational constants in cm-1:     0.020826     0.008334     0.006605
Rotational constants in MHz :   624.362627   249.832351   198.013526

                             ****ORCA TERMINATED NORMALLY****
TOTAL RUN TIME: 0 days 0 hours 0 minutes 21 seconds 952 msec
