                         Program Version 4.2.1 -  RELEASE  -
|  1> ! wB97X-D3 SP def2-SVP
|  2> %pal
|  3> nprocs 24
|  4> end
|  5>
|  6> * xyz 0 1
|  7> S 	 -66.3971 	 19.3806 	 -116.033
|  8> C 	 -66.9721 	 19.6237 	 -117.673
|  9> C 	 -66.036 	 20.1851 	 -118.455
| 10> C 	 -64.8745 	 20.5051 	 -117.712
| 11> C 	 -64.8744 	 20.0911 	 -116.424
| 12> H 	 -63.9699 	 21.0551 	 -118.117
| 13> C 	 -66.2687 	 20.5281 	 -119.968
| 14> H 	 -67.2475 	 21.0768 	 -120.102
| 15> H 	 -66.4342 	 19.5135 	 -120.371
| 16> C 	 -65.145 	 21.086 	 -120.774
| 17> H 	 -64.8554 	 22.0462 	 -120.348
| 18> H 	 -64.3653 	 20.2908 	 -120.799
| 19> C 	 -65.5714 	 21.3315 	 -122.217
| 20> H 	 -65.8215 	 20.3723 	 -122.755
| 21> H 	 -66.4404 	 21.9548 	 -122.36
| 22> H 	 -64.7359 	 21.8366 	 -122.658
| 23> S 	 -63.7554 	 18.9484 	 -114.185
| 24> C 	 -62.2673 	 19.6411 	 -113.518
| 25> C 	 -61.9089 	 20.8187 	 -114.18
| 26> C 	 -62.8108 	 21.0972 	 -115.212
| 27> C 	 -63.8018 	 20.1667 	 -115.406
| 28> H 	 -61.1719 	 21.433 	 -113.908
| 29> C 	 -62.6309 	 22.2764 	 -116.106
| 30> H 	 -62.4413 	 21.9565 	 -117.133
| 31> H 	 -61.6821 	 22.6921 	 -115.733
| 32> C 	 -63.5606 	 23.3872 	 -115.813
| 33> H 	 -63.5269 	 23.824 	 -114.853
| 34> H 	 -64.5958 	 23.1322 	 -116.048
| 35> C 	 -63.1792 	 24.5037 	 -116.81
| 36> H 	 -63.1258 	 24.1359 	 -117.824
| 37> H 	 -62.1953 	 24.9582 	 -116.578
| 38> H 	 -63.8809 	 25.3281 	 -116.79
| 39> H 	 -67.8548 	 19.2067 	 -118.041
| 40> H 	 -61.6999 	 19.1495 	 -112.736
| 41> *
| 42>
| 43>                          ****END OF INPUT****

CARTESIAN COORDINATES (ANGSTROEM)
---------------------------------
  S    -66.397100   19.380600  -116.033000
  C    -66.972100   19.623700  -117.673000
  C    -66.036000   20.185100  -118.455000
  C    -64.874500   20.505100  -117.712000
  C    -64.874400   20.091100  -116.424000
  H    -63.969900   21.055100  -118.117000
  C    -66.268700   20.528100  -119.968000
  H    -67.247500   21.076800  -120.102000
  H    -66.434200   19.513500  -120.371000
  C    -65.145000   21.086000  -120.774000
  H    -64.855400   22.046200  -120.348000
  H    -64.365300   20.290800  -120.799000
  C    -65.571400   21.331500  -122.217000
  H    -65.821500   20.372300  -122.755000
  H    -66.440400   21.954800  -122.360000
  H    -64.735900   21.836600  -122.658000
  S    -63.755400   18.948400  -114.185000
  C    -62.267300   19.641100  -113.518000
  C    -61.908900   20.818700  -114.180000
  C    -62.810800   21.097200  -115.212000
  C    -63.801800   20.166700  -115.406000
  H    -61.171900   21.433000  -113.908000
  C    -62.630900   22.276400  -116.106000
  H    -62.441300   21.956500  -117.133000
  H    -61.682100   22.692100  -115.733000
  C    -63.560600   23.387200  -115.813000
  H    -63.526900   23.824000  -114.853000
  H    -64.595800   23.132200  -116.048000
  C    -63.179200   24.503700  -116.810000
  H    -63.125800   24.135900  -117.824000
  H    -62.195300   24.958200  -116.578000
  H    -63.880900   25.328100  -116.790000
  H    -67.854800   19.206700  -118.041000
  H    -61.699900   19.149500  -112.736000

 Total Charge           Charge          ....    0
 Multiplicity           Mult            ....    1
 Number of Electrons    NEL             ....  134
 Basis Dimension        Dim             ....  322

ORBITAL ENERGIES
----------------

  NO   OCC          E(Eh)            E(eV)
   0   2.0000     -88.966367     -2420.8979
   1   2.0000     -88.962402     -2420.7900
   2   2.0000     -10.326178      -280.9896
   3   2.0000     -10.321931      -280.8740
   4   2.0000     -10.321072      -280.8506
   5   2.0000     -10.302451      -280.3439
   6   2.0000     -10.297785      -280.2170
   7   2.0000     -10.297159      -280.1999
   8   2.0000     -10.290925      -280.0303
   9   2.0000     -10.290866      -280.0287
  10   2.0000     -10.290718      -280.0247
  11   2.0000     -10.286824      -279.9187
  12   2.0000     -10.285789      -279.8906
  13   2.0000     -10.280758      -279.7536
  14   2.0000     -10.278164      -279.6831
  15   2.0000     -10.273808      -279.5645
  16   2.0000      -8.081159      -219.8995
  17   2.0000      -8.077787      -219.8078
  18   2.0000      -6.039566      -164.3449
  19   2.0000      -6.036355      -164.2576
  20   2.0000      -6.035598      -164.2370
  21   2.0000      -6.032248      -164.1458
  22   2.0000      -6.032109      -164.1420
  23   2.0000      -6.028429      -164.0419
  24   2.0000      -1.013157       -27.5694
  25   2.0000      -0.990381       -26.9496
  26   2.0000      -0.921455       -25.0741
  27   2.0000      -0.916843       -24.9486
  28   2.0000      -0.874611       -23.7994
  29   2.0000      -0.854472       -23.2514
  30   2.0000      -0.844420       -22.9778
  31   2.0000      -0.817619       -22.2486
  32   2.0000      -0.782393       -21.2900
  33   2.0000      -0.770449       -20.9650
  34   2.0000      -0.709651       -19.3106
  35   2.0000      -0.698904       -19.0182
  36   2.0000      -0.690152       -18.7800
  37   2.0000      -0.673716       -18.3327
  38   2.0000      -0.640902       -17.4398
  39   2.0000      -0.620676       -16.8894
  40   2.0000      -0.599636       -16.3169
  41   2.0000      -0.581947       -15.8356
  42   2.0000      -0.575305       -15.6548
  43   2.0000      -0.566704       -15.4208
  44   2.0000      -0.534646       -14.5485
  45   2.0000      -0.530190       -14.4272
  46   2.0000      -0.515426       -14.0255
  47   2.0000      -0.506732       -13.7889
  48   2.0000      -0.504486       -13.7278
  49   2.0000      -0.498886       -13.5754
  50   2.0000      -0.491988       -13.3877
  51   2.0000      -0.481289       -13.0965
  52   2.0000      -0.476117       -12.9558
  53   2.0000      -0.464905       -12.6507
  54   2.0000      -0.458821       -12.4852
  55   2.0000      -0.454134       -12.3576
  56   2.0000      -0.450531       -12.2596
  57   2.0000      -0.438775       -11.9397
  58   2.0000      -0.432870       -11.7790
  59   2.0000      -0.429109       -11.6767
  60   2.0000      -0.416285       -11.3277
  61   2.0000      -0.412247       -11.2178
  62   2.0000      -0.407512       -11.0890
  63   2.0000      -0.354162        -9.6372
  64   2.0000      -0.336042        -9.1442
  65   2.0000      -0.330479        -8.9928
  66   2.0000      -0.285864        -7.7788
  67   0.0000       0.027761         0.7554
  68   0.0000       0.078496         2.1360
  69   0.0000       0.105106         2.8601
  70   0.0000       0.122857         3.3431
  71   0.0000       0.137703         3.7471

MULLIKEN ATOMIC CHARGES
-----------------------
   0 S :    0.095504
   1 C :   -0.113666
   2 C :   -0.041305
   3 C :   -0.051757
   4 C :   -0.096410
   5 H :    0.019979
   6 C :    0.019288
   7 H :    0.046524
   8 H :    0.028127
   9 C :   -0.082222
  10 H :    0.036032
  11 H :    0.044386
  12 C :   -0.034627
  13 H :    0.034961
  14 H :    0.026229
  15 H :    0.032561
  16 S :    0.100953
  17 C :   -0.091960
  18 C :    0.040733
  19 C :   -0.065654
  20 C :   -0.120678
  21 H :   -0.035930
  22 C :    0.026925
  23 H :    0.046653
  24 H :   -0.003021
  25 C :   -0.021720
  26 H :    0.025340
  27 H :    0.037032
  28 C :   -0.048062
  29 H :    0.017871
  30 H :    0.024147
  31 H :    0.025993
  32 H :    0.018300
  33 H :    0.059473
Sum of atomic charges:    0.0000000

LOEWDIN ATOMIC CHARGES
----------------------
   0 S :    0.402940
   1 C :   -0.186049
   2 C :   -0.062853
   3 C :   -0.086781
   4 C :   -0.190250
   5 H :    0.037408
   6 C :   -0.039358
   7 H :    0.035965
   8 H :    0.034954
   9 C :   -0.046972
  10 H :    0.023564
  11 H :    0.035311
  12 C :   -0.061376
  13 H :    0.030603
  14 H :    0.021426
  15 H :    0.025706
  16 S :    0.409327
  17 C :   -0.171153
  18 C :   -0.051245
  19 C :   -0.061532
  20 C :   -0.202999
  21 H :    0.010808
  22 C :   -0.034806
  23 H :    0.031348
  24 H :    0.032212
  25 C :   -0.029541
  26 H :    0.024129
  27 H :    0.025337
  28 C :   -0.061413
  29 H :    0.018784
  30 H :    0.022918
  31 H :    0.020329
  32 H :    0.015582
  33 H :    0.027675

  Mayer bond orders larger than 0.100000
B(  0-S ,  1-C ) :   1.1218 B(  0-S ,  4-C ) :   1.1526 B(  1-C ,  2-C ) :   1.6509
B(  1-C , 32-H ) :   0.9783 B(  2-C ,  3-C ) :   1.2452 B(  2-C ,  6-C ) :   0.9739
B(  3-C ,  4-C ) :   1.5830 B(  3-C ,  5-H ) :   0.9801 B(  4-C , 20-C ) :   1.0303
B(  6-C ,  7-H ) :   0.9494 B(  6-C ,  8-H ) :   0.9374 B(  6-C ,  9-C ) :   1.0950
B(  9-C , 10-H ) :   0.9454 B(  9-C , 11-H ) :   0.9473 B(  9-C , 12-C ) :   1.0907
B( 12-C , 13-H ) :   0.9728 B( 12-C , 14-H ) :   0.9742 B( 12-C , 15-H ) :   0.9724
B( 16-S , 17-C ) :   1.1706 B( 16-S , 20-C ) :   1.1408 B( 17-C , 18-C ) :   1.5516
B( 17-C , 20-C ) :   0.1033 B( 17-C , 33-H ) :   0.9694 B( 18-C , 19-C ) :   1.2948
B( 18-C , 21-H ) :   1.0078 B( 19-C , 20-C ) :   1.5785 B( 19-C , 22-C ) :   1.0296
B( 22-C , 23-H ) :   0.9406 B( 22-C , 24-H ) :   0.9234 B( 22-C , 25-C ) :   1.0694
B( 25-C , 26-H ) :   0.9510 B( 25-C , 27-H ) :   0.9533 B( 25-C , 28-C ) :   1.0839
B( 28-C , 29-H ) :   0.9735 B( 28-C , 30-H ) :   0.9741 B( 28-C , 31-H ) :   0.9739

Dispersion correction           -0.014162305
FINAL SINGLE POINT ENERGY     -1339.870918060511

DIPOLE MOMENT
-------------
                                X             Y             Z
Electronic contribution:     -4.05184     -20.48689      24.35236
Nuclear contribution   :      4.32868      20.90767     -24.84056
                        -----------------------------------------
Total Dipole Moment    :      0.27684       0.42077      -0.48821
                        -----------------------------------------
Magnitude (a.u.)       :      0.70145
Magnitude (Debye)      :      1.78295

Rotational constants in cm-1:     0.018528     0.009072     0.006825
Rotational constants in MHz :   555.440585   271.962433   204.613601

                             ****ORCA TERMINATED NORMALLY****
TOTAL RUN TIME: 0 days 0 hours 0 minutes 22 seconds 159 msec
