                         Program Version 4.2.1 -  RELEASE  -
|  1> ! wB97X-D3 SP def2-SVP
|  2> %pal
|  3> nprocs 24
|  4> end
|  5>
|  6> * xyz 0 1
|  7> S 	 -141.669 	 8.09848 	 4.66797
|  8> C 	 -140.351 	 9.17311 	 4.5974
|  9> C 	 -140.026 	 9.56314 	 3.31983
| 10> C 	 -140.916 	 8.98642 	 2.36268
| 11> C 	 -141.852 	 8.0983 	 2.85519
| 12> H 	 -140.873 	 9.22355 	 1.30019
| 13> C 	 -138.775 	 10.4864 	 2.90513
| 14> H 	 -138.287 	 10.8357 	 3.78907
| 15> H 	 -139.176 	 11.4144 	 2.56728
| 16> C 	 -137.777 	 10.0578 	 1.83065
| 17> H 	 -137.112 	 9.21454 	 2.17032
| 18> H 	 -138.46 	 9.65941 	 1.0906
| 19> C 	 -136.867 	 11.1463 	 1.28788
| 20> H 	 -136.127 	 10.7205 	 0.550453
| 21> H 	 -137.483 	 11.94 	 0.792196
| 22> H 	 -136.314 	 11.5972 	 2.12139
| 23> S 	 -142.487 	 5.41949 	 2.72774
| 24> C 	 -143.325 	 4.92515 	 1.24175
| 25> C 	 -143.942 	 5.96644 	 0.565784
| 26> C 	 -143.501 	 7.22662 	 1.11676
| 27> C 	 -142.723 	 7.1378 	 2.23878
| 28> H 	 -144.417 	 5.8108 	 -0.333945
| 29> C 	 -143.992 	 8.52554 	 0.561843
| 30> H 	 -144.05 	 9.28309 	 1.34206
| 31> H 	 -144.993 	 8.39512 	 0.162857
| 32> C 	 -143.096 	 9.01392 	 -0.664078
| 33> H 	 -143.25 	 8.4653 	 -1.57837
| 34> H 	 -142.048 	 8.8448 	 -0.511943
| 35> C 	 -143.206 	 10.53 	 -0.927506
| 36> H 	 -143.082 	 11.1572 	 -0.0912047
| 37> H 	 -144.186 	 10.759 	 -1.39306
| 38> H 	 -142.579 	 10.8247 	 -1.68919
| 39> H 	 -139.826 	 9.58018 	 5.49415
| 40> H 	 -143.442 	 3.94901 	 0.84203
| 41> *
| 42>
| 43>                          ****END OF INPUT****

CARTESIAN COORDINATES (ANGSTROEM)
---------------------------------
  S    -141.669000    8.098480    4.667970
  C    -140.351000    9.173110    4.597400
  C    -140.026000    9.563140    3.319830
  C    -140.916000    8.986420    2.362680
  C    -141.852000    8.098300    2.855190
  H    -140.873000    9.223550    1.300190
  C    -138.775000   10.486400    2.905130
  H    -138.287000   10.835700    3.789070
  H    -139.176000   11.414400    2.567280
  C    -137.777000   10.057800    1.830650
  H    -137.112000    9.214540    2.170320
  H    -138.460000    9.659410    1.090600
  C    -136.867000   11.146300    1.287880
  H    -136.127000   10.720500    0.550453
  H    -137.483000   11.940000    0.792196
  H    -136.314000   11.597200    2.121390
  S    -142.487000    5.419490    2.727740
  C    -143.325000    4.925150    1.241750
  C    -143.942000    5.966440    0.565784
  C    -143.501000    7.226620    1.116760
  C    -142.723000    7.137800    2.238780
  H    -144.417000    5.810800   -0.333945
  C    -143.992000    8.525540    0.561843
  H    -144.050000    9.283090    1.342060
  H    -144.993000    8.395120    0.162857
  C    -143.096000    9.013920   -0.664078
  H    -143.250000    8.465300   -1.578370
  H    -142.048000    8.844800   -0.511943
  C    -143.206000   10.530000   -0.927506
  H    -143.082000   11.157200   -0.091205
  H    -144.186000   10.759000   -1.393060
  H    -142.579000   10.824700   -1.689190
  H    -139.826000    9.580180    5.494150
  H    -143.442000    3.949010    0.842030

 Total Charge           Charge          ....    0
 Multiplicity           Mult            ....    1
 Number of Electrons    NEL             ....  134
 Basis Dimension        Dim             ....  322

ORBITAL ENERGIES
----------------

  NO   OCC          E(Eh)            E(eV)
   0   2.0000     -88.966666     -2420.9061
   1   2.0000     -88.962778     -2420.8003
   2   2.0000     -10.333859      -281.1986
   3   2.0000     -10.325793      -280.9791
   4   2.0000     -10.320486      -280.8347
   5   2.0000     -10.314893      -280.6825
   6   2.0000     -10.305264      -280.4205
   7   2.0000     -10.303214      -280.3647
   8   2.0000     -10.297699      -280.2146
   9   2.0000     -10.293715      -280.1062
  10   2.0000     -10.293112      -280.0898
  11   2.0000     -10.292002      -280.0596
  12   2.0000     -10.288911      -279.9755
  13   2.0000     -10.288616      -279.9675
  14   2.0000     -10.288234      -279.9571
  15   2.0000     -10.270115      -279.4640
  16   2.0000      -8.080340      -219.8772
  17   2.0000      -8.077637      -219.8037
  18   2.0000      -6.039043      -164.3307
  19   2.0000      -6.036105      -164.2508
  20   2.0000      -6.035198      -164.2261
  21   2.0000      -6.032134      -164.1427
  22   2.0000      -6.030726      -164.1044
  23   2.0000      -6.028432      -164.0420
  24   2.0000      -1.002978       -27.2924
  25   2.0000      -0.980362       -26.6770
  26   2.0000      -0.907007       -24.6809
  27   2.0000      -0.904048       -24.6004
  28   2.0000      -0.873390       -23.7662
  29   2.0000      -0.853295       -23.2193
  30   2.0000      -0.844897       -22.9908
  31   2.0000      -0.816599       -22.2208
  32   2.0000      -0.783469       -21.3193
  33   2.0000      -0.770726       -20.9725
  34   2.0000      -0.712456       -19.3869
  35   2.0000      -0.702864       -19.1259
  36   2.0000      -0.689976       -18.7752
  37   2.0000      -0.669681       -18.2229
  38   2.0000      -0.641121       -17.4458
  39   2.0000      -0.621955       -16.9243
  40   2.0000      -0.594292       -16.1715
  41   2.0000      -0.568485       -15.4693
  42   2.0000      -0.565600       -15.3908
  43   2.0000      -0.557335       -15.1659
  44   2.0000      -0.530198       -14.4274
  45   2.0000      -0.525858       -14.3093
  46   2.0000      -0.511681       -13.9235
  47   2.0000      -0.510322       -13.8866
  48   2.0000      -0.504881       -13.7385
  49   2.0000      -0.496749       -13.5172
  50   2.0000      -0.491804       -13.3827
  51   2.0000      -0.480289       -13.0693
  52   2.0000      -0.476238       -12.9591
  53   2.0000      -0.469760       -12.7828
  54   2.0000      -0.461558       -12.5596
  55   2.0000      -0.451478       -12.2853
  56   2.0000      -0.446284       -12.1440
  57   2.0000      -0.437104       -11.8942
  58   2.0000      -0.428352       -11.6560
  59   2.0000      -0.424149       -11.5417
  60   2.0000      -0.418843       -11.3973
  61   2.0000      -0.416271       -11.3273
  62   2.0000      -0.414406       -11.2766
  63   2.0000      -0.354283        -9.6405
  64   2.0000      -0.331972        -9.0334
  65   2.0000      -0.328750        -8.9457
  66   2.0000      -0.286502        -7.7961
  67   0.0000       0.027752         0.7552
  68   0.0000       0.059306         1.6138
  69   0.0000       0.109679         2.9845
  70   0.0000       0.122762         3.3405
  71   0.0000       0.126551         3.4436

MULLIKEN ATOMIC CHARGES
-----------------------
   0 S :    0.090789
   1 C :   -0.128836
   2 C :   -0.086655
   3 C :    0.030371
   4 C :   -0.156968
   5 H :    0.005570
   6 C :    0.092605
   7 H :   -0.004012
   8 H :    0.009728
   9 C :   -0.074935
  10 H :    0.041196
  11 H :    0.020801
  12 C :   -0.077794
  13 H :    0.053023
  14 H :    0.038140
  15 H :    0.038515
  16 S :    0.102701
  17 C :   -0.074696
  18 C :    0.011540
  19 C :   -0.062546
  20 C :   -0.109556
  21 H :   -0.003919
  22 C :    0.070341
  23 H :    0.037150
  24 H :    0.026546
  25 C :   -0.080401
  26 H :    0.019356
  27 H :    0.019212
  28 C :   -0.013246
  29 H :    0.030304
  30 H :    0.018892
  31 H :    0.009816
  32 H :    0.063630
  33 H :    0.043338
Sum of atomic charges:    0.0000000

LOEWDIN ATOMIC CHARGES
----------------------
   0 S :    0.387737
   1 C :   -0.209633
   2 C :   -0.068621
   3 C :   -0.060502
   4 C :   -0.170766
   5 H :    0.029153
   6 C :   -0.028164
   7 H :    0.019945
   8 H :    0.025715
   9 C :   -0.049099
  10 H :    0.030163
  11 H :    0.020954
  12 C :   -0.069327
  13 H :    0.036722
  14 H :    0.027907
  15 H :    0.026492
  16 S :    0.373973
  17 C :   -0.156749
  18 C :   -0.059455
  19 C :   -0.046426
  20 C :   -0.191258
  21 H :    0.019985
  22 C :   -0.023627
  23 H :    0.032334
  24 H :    0.032723
  25 C :   -0.034353
  26 H :    0.022564
  27 H :    0.014941
  28 C :   -0.059133
  29 H :    0.019298
  30 H :    0.027642
  31 H :    0.015962
  32 H :    0.039139
  33 H :    0.023767

  Mayer bond orders larger than 0.100000
B(  0-S ,  1-C ) :   1.1517 B(  0-S ,  4-C ) :   1.1219 B(  1-C ,  2-C ) :   1.6334
B(  1-C , 32-H ) :   0.9539 B(  2-C ,  3-C ) :   1.2507 B(  2-C ,  6-C ) :   1.0052
B(  3-C ,  4-C ) :   1.5874 B(  3-C ,  5-H ) :   0.9848 B(  4-C , 20-C ) :   1.0531
B(  6-C ,  7-H ) :   0.9398 B(  6-C ,  8-H ) :   0.9370 B(  6-C ,  9-C ) :   1.0541
B(  9-C , 10-H ) :   0.9547 B(  9-C , 11-H ) :   0.9541 B(  9-C , 12-C ) :   1.0837
B( 12-C , 13-H ) :   0.9733 B( 12-C , 14-H ) :   0.9725 B( 12-C , 15-H ) :   0.9758
B( 16-S , 17-C ) :   1.1480 B( 16-S , 20-C ) :   1.0854 B( 17-C , 18-C ) :   1.6443
B( 17-C , 33-H ) :   0.9656 B( 18-C , 19-C ) :   1.2005 B( 18-C , 21-H ) :   0.9960
B( 19-C , 20-C ) :   1.6455 B( 19-C , 22-C ) :   1.0571 B( 22-C , 23-H ) :   0.9500
B( 22-C , 24-H ) :   0.9358 B( 22-C , 25-C ) :   1.0276 B( 25-C , 26-H ) :   0.9500
B( 25-C , 27-H ) :   0.9645 B( 25-C , 28-C ) :   1.0905 B( 28-C , 29-H ) :   0.9772
B( 28-C , 30-H ) :   0.9712 B( 28-C , 31-H ) :   0.9711

Dispersion correction           -0.014101199
FINAL SINGLE POINT ENERGY     -1339.864400058334

DIPOLE MOMENT
-------------
                                X             Y             Z
Electronic contribution:    -11.64390     -21.99503      19.75601
Nuclear contribution   :     11.83023      22.37528     -20.47920
                        -----------------------------------------
Total Dipole Moment    :      0.18633       0.38025      -0.72319
                        -----------------------------------------
Magnitude (a.u.)       :      0.83804
Magnitude (Debye)      :      2.13013

Rotational constants in cm-1:     0.016460     0.009017     0.006891
Rotational constants in MHz :   493.450645   270.335165   206.585852

                             ****ORCA TERMINATED NORMALLY****
TOTAL RUN TIME: 0 days 0 hours 0 minutes 21 seconds 451 msec
