                         Program Version 4.2.1 -  RELEASE  -
|  1> ! wB97X-D3 SP def2-SVP
|  2> %pal
|  3> nprocs 24
|  4> end
|  5>
|  6> * xyz 0 1
|  7> S 	 -62.9646 	 -0.19274 	 -21.0032
|  8> C 	 -63.1365 	 0.485039 	 -19.3627
|  9> C 	 -62.7894 	 -0.447325 	 -18.3999
| 10> C 	 -62.2057 	 -1.62962 	 -19.0035
| 11> C 	 -62.1836 	 -1.58395 	 -20.4027
| 12> H 	 -61.8392 	 -2.46208 	 -18.4378
| 13> C 	 -62.8602 	 -0.23361 	 -16.8792
| 14> H 	 -62.5768 	 0.752137 	 -16.7129
| 15> H 	 -62.1199 	 -0.847429 	 -16.367
| 16> C 	 -64.1441 	 -0.584663 	 -16.1468
| 17> H 	 -64.3048 	 -1.65493 	 -16.0965
| 18> H 	 -63.9305 	 -0.315345 	 -15.1004
| 19> C 	 -65.4204 	 0.0457733 	 -16.7923
| 20> H 	 -65.6196 	 -0.642486 	 -17.5464
| 21> H 	 -66.313 	 -0.056571 	 -16.0856
| 22> H 	 -65.2641 	 1.06599 	 -17.1857
| 23> S 	 -60.962 	 -2.24333 	 -22.7876
| 24> C 	 -60.7846 	 -3.93105 	 -23.2192
| 25> C 	 -61.5308 	 -4.74777 	 -22.369
| 26> C 	 -62.0768 	 -4.01714 	 -21.269
| 27> C 	 -61.8542 	 -2.6515 	 -21.3473
| 28> H 	 -61.581 	 -5.76572 	 -22.5225
| 29> C 	 -62.7034 	 -4.65803 	 -20.0732
| 30> H 	 -63.5881 	 -4.09155 	 -19.752
| 31> H 	 -62.002 	 -4.359 	 -19.2707
| 32> C 	 -62.8994 	 -6.23665 	 -20.1248
| 33> H 	 -62.9671 	 -6.57315 	 -19.0981
| 34> H 	 -61.9552 	 -6.70742 	 -20.5995
| 35> C 	 -64.0787 	 -6.72362 	 -20.9506
| 36> H 	 -64.0461 	 -7.80376 	 -21.0735
| 37> H 	 -63.8745 	 -6.25225 	 -21.9437
| 38> H 	 -65.0916 	 -6.34552 	 -20.5492
| 39> H 	 -63.6491 	 1.36764 	 -19.2091
| 40> H 	 -60.3095 	 -4.21276 	 -24.1519
| 41> *
| 42>
| 43>                          ****END OF INPUT****

CARTESIAN COORDINATES (ANGSTROEM)
---------------------------------
  S    -62.964600   -0.192740  -21.003200
  C    -63.136500    0.485039  -19.362700
  C    -62.789400   -0.447325  -18.399900
  C    -62.205700   -1.629620  -19.003500
  C    -62.183600   -1.583950  -20.402700
  H    -61.839200   -2.462080  -18.437800
  C    -62.860200   -0.233610  -16.879200
  H    -62.576800    0.752137  -16.712900
  H    -62.119900   -0.847429  -16.367000
  C    -64.144100   -0.584663  -16.146800
  H    -64.304800   -1.654930  -16.096500
  H    -63.930500   -0.315345  -15.100400
  C    -65.420400    0.045773  -16.792300
  H    -65.619600   -0.642486  -17.546400
  H    -66.313000   -0.056571  -16.085600
  H    -65.264100    1.065990  -17.185700
  S    -60.962000   -2.243330  -22.787600
  C    -60.784600   -3.931050  -23.219200
  C    -61.530800   -4.747770  -22.369000
  C    -62.076800   -4.017140  -21.269000
  C    -61.854200   -2.651500  -21.347300
  H    -61.581000   -5.765720  -22.522500
  C    -62.703400   -4.658030  -20.073200
  H    -63.588100   -4.091550  -19.752000
  H    -62.002000   -4.359000  -19.270700
  C    -62.899400   -6.236650  -20.124800
  H    -62.967100   -6.573150  -19.098100
  H    -61.955200   -6.707420  -20.599500
  C    -64.078700   -6.723620  -20.950600
  H    -64.046100   -7.803760  -21.073500
  H    -63.874500   -6.252250  -21.943700
  H    -65.091600   -6.345520  -20.549200
  H    -63.649100    1.367640  -19.209100
  H    -60.309500   -4.212760  -24.151900

 Total Charge           Charge          ....    0
 Multiplicity           Mult            ....    1
 Number of Electrons    NEL             ....  134
 Basis Dimension        Dim             ....  322

ORBITAL ENERGIES
----------------

  NO   OCC          E(Eh)            E(eV)
   0   2.0000     -88.965569     -2420.8762
   1   2.0000     -88.964889     -2420.8577
   2   2.0000     -10.329780      -281.0876
   3   2.0000     -10.321975      -280.8752
   4   2.0000     -10.320566      -280.8369
   5   2.0000     -10.311115      -280.5797
   6   2.0000     -10.306185      -280.4455
   7   2.0000     -10.303030      -280.3597
   8   2.0000     -10.298562      -280.2381
   9   2.0000     -10.295868      -280.1648
  10   2.0000     -10.295840      -280.1641
  11   2.0000     -10.293203      -280.0923
  12   2.0000     -10.288752      -279.9712
  13   2.0000     -10.288657      -279.9686
  14   2.0000     -10.287897      -279.9479
  15   2.0000     -10.280770      -279.7540
  16   2.0000      -8.080774      -219.8890
  17   2.0000      -8.079820      -219.8631
  18   2.0000      -6.039207      -164.3352
  19   2.0000      -6.038227      -164.3085
  20   2.0000      -6.035233      -164.2270
  21   2.0000      -6.034247      -164.2002
  22   2.0000      -6.031566      -164.1273
  23   2.0000      -6.030744      -164.1049
  24   2.0000      -1.008220       -27.4351
  25   2.0000      -0.983180       -26.7537
  26   2.0000      -0.914075       -24.8732
  27   2.0000      -0.906352       -24.6631
  28   2.0000      -0.868640       -23.6369
  29   2.0000      -0.852886       -23.2082
  30   2.0000      -0.841491       -22.8981
  31   2.0000      -0.813549       -22.1378
  32   2.0000      -0.789986       -21.4966
  33   2.0000      -0.774308       -21.0700
  34   2.0000      -0.706752       -19.2317
  35   2.0000      -0.697137       -18.9700
  36   2.0000      -0.695284       -18.9196
  37   2.0000      -0.659747       -17.9526
  38   2.0000      -0.645042       -17.5525
  39   2.0000      -0.622552       -16.9405
  40   2.0000      -0.599573       -16.3152
  41   2.0000      -0.569373       -15.4934
  42   2.0000      -0.552617       -15.0375
  43   2.0000      -0.549996       -14.9662
  44   2.0000      -0.542352       -14.7582
  45   2.0000      -0.534469       -14.5436
  46   2.0000      -0.524469       -14.2715
  47   2.0000      -0.522357       -14.2140
  48   2.0000      -0.502011       -13.6604
  49   2.0000      -0.495230       -13.4759
  50   2.0000      -0.490971       -13.3600
  51   2.0000      -0.478850       -13.0302
  52   2.0000      -0.474480       -12.9113
  53   2.0000      -0.464326       -12.6350
  54   2.0000      -0.462605       -12.5881
  55   2.0000      -0.450588       -12.2611
  56   2.0000      -0.444693       -12.1007
  57   2.0000      -0.440697       -11.9920
  58   2.0000      -0.431201       -11.7336
  59   2.0000      -0.424287       -11.5454
  60   2.0000      -0.421754       -11.4765
  61   2.0000      -0.415875       -11.3165
  62   2.0000      -0.412466       -11.2238
  63   2.0000      -0.348783        -9.4909
  64   2.0000      -0.331727        -9.0268
  65   2.0000      -0.327533        -8.9126
  66   2.0000      -0.289382        -7.8745
  67   0.0000       0.027335         0.7438
  68   0.0000       0.069937         1.9031
  69   0.0000       0.107335         2.9207
  70   0.0000       0.120695         3.2843
  71   0.0000       0.131346         3.5741

MULLIKEN ATOMIC CHARGES
-----------------------
   0 S :    0.101892
   1 C :   -0.100497
   2 C :   -0.089757
   3 C :   -0.001212
   4 C :   -0.109096
   5 H :    0.001537
   6 C :    0.085195
   7 H :    0.018584
   8 H :    0.018200
   9 C :   -0.079445
  10 H :    0.021774
  11 H :    0.030497
  12 C :   -0.056770
  13 H :    0.032043
  14 H :    0.043516
  15 H :    0.042991
  16 S :    0.107946
  17 C :   -0.090961
  18 C :   -0.017089
  19 C :   -0.032116
  20 C :   -0.162664
  21 H :   -0.009085
  22 C :    0.022103
  23 H :    0.041271
  24 H :    0.044460
  25 C :   -0.084753
  26 H :    0.029766
  27 H :    0.040583
  28 C :   -0.060587
  29 H :    0.045248
  30 H :    0.033202
  31 H :    0.049831
  32 H :    0.021658
  33 H :    0.061733
Sum of atomic charges:   -0.0000000

LOEWDIN ATOMIC CHARGES
----------------------
   0 S :    0.414706
   1 C :   -0.179123
   2 C :   -0.052434
   3 C :   -0.070248
   4 C :   -0.199473
   5 H :    0.023964
   6 C :   -0.026866
   7 H :    0.023390
   8 H :    0.033559
   9 C :   -0.038943
  10 H :    0.021068
  11 H :    0.023825
  12 C :   -0.067322
  13 H :    0.020142
  14 H :    0.035720
  15 H :    0.025280
  16 S :    0.410552
  17 C :   -0.177131
  18 C :   -0.066819
  19 C :   -0.052180
  20 C :   -0.214308
  21 H :    0.016819
  22 C :   -0.040809
  23 H :    0.035778
  24 H :    0.038578
  25 C :   -0.044660
  26 H :    0.020956
  27 H :    0.032617
  28 C :   -0.074073
  29 H :    0.026764
  30 H :    0.029313
  31 H :    0.034771
  32 H :    0.008500
  33 H :    0.028089

  Mayer bond orders larger than 0.100000
B(  0-S ,  1-C ) :   1.1318 B(  0-S ,  4-C ) :   1.1807 B(  1-C ,  2-C ) :   1.6020
B(  1-C , 32-H ) :   0.9812 B(  2-C ,  3-C ) :   1.2468 B(  2-C ,  6-C ) :   1.0126
B(  3-C ,  4-C ) :   1.5460 B(  3-C ,  5-H ) :   1.0002 B(  4-C , 20-C ) :   1.0296
B(  6-C ,  7-H ) :   0.9437 B(  6-C ,  8-H ) :   0.9400 B(  6-C ,  9-C ) :   1.0799
B(  9-C , 10-H ) :   0.9587 B(  9-C , 11-H ) :   0.9563 B(  9-C , 12-C ) :   1.0616
B( 12-C , 13-H ) :   0.9730 B( 12-C , 14-H ) :   0.9733 B( 12-C , 15-H ) :   0.9790
B( 16-S , 17-C ) :   1.1752 B( 16-S , 20-C ) :   1.1419 B( 17-C , 18-C ) :   1.5712
B( 17-C , 20-C ) :   0.1054 B( 17-C , 33-H ) :   0.9667 B( 18-C , 19-C ) :   1.2537
B( 18-C , 21-H ) :   0.9998 B( 19-C , 20-C ) :   1.5807 B( 19-C , 22-C ) :   1.0324
B( 22-C , 23-H ) :   0.9274 B( 22-C , 24-H ) :   0.9296 B( 22-C , 25-C ) :   1.0606
B( 25-C , 26-H ) :   0.9547 B( 25-C , 27-H ) :   0.9499 B( 25-C , 28-C ) :   1.0763
B( 28-C , 29-H ) :   0.9733 B( 28-C , 30-H ) :   0.9738 B( 28-C , 31-H ) :   0.9712

Dispersion correction           -0.014361347
FINAL SINGLE POINT ENERGY     -1339.874956758823

DIPOLE MOMENT
-------------
                                X             Y             Z
Electronic contribution:     13.15500      12.19810     -20.70153
Nuclear contribution   :    -13.33806     -12.67432      21.24993
                        -----------------------------------------
Total Dipole Moment    :     -0.18305      -0.47621       0.54839
                        -----------------------------------------
Magnitude (a.u.)       :      0.74902
Magnitude (Debye)      :      1.90385

Rotational constants in cm-1:     0.019459     0.008545     0.006487
Rotational constants in MHz :   583.356111   256.182993   194.477865

                             ****ORCA TERMINATED NORMALLY****
TOTAL RUN TIME: 0 days 0 hours 0 minutes 21 seconds 730 msec
