                         Program Version 4.2.1 -  RELEASE  -
|  1> ! wB97X-D3 SP def2-SVP
|  2> %pal
|  3> nprocs 24
|  4> end
|  5>
|  6> * xyz 0 1
|  7> S 	 -52.8392 	 13.0501 	 -98.894
|  8> C 	 -53.2119 	 11.4657 	 -99.5828
|  9> C 	 -52.076 	 10.808 	 -99.9936
| 10> C 	 -50.9438 	 11.5865 	 -99.7601
| 11> C 	 -51.1248 	 12.7058 	 -98.9748
| 12> H 	 -49.9119 	 11.4599 	 -100.057
| 13> C 	 -52.0256 	 9.47673 	 -100.573
| 14> H 	 -53.0372 	 9.20869 	 -100.915
| 15> H 	 -51.5956 	 8.69869 	 -99.9197
| 16> C 	 -51.1267 	 9.30776 	 -101.783
| 17> H 	 -50.0388 	 9.28428 	 -101.564
| 18> H 	 -51.585 	 8.37214 	 -102.101
| 19> C 	 -51.3648 	 10.2351 	 -102.961
| 20> H 	 -50.8403 	 9.94639 	 -103.833
| 21> H 	 -52.418 	 10.3576 	 -103.139
| 22> H 	 -51.0139 	 11.2688 	 -102.664
| 23> S 	 -50.7195 	 15.5316 	 -98.8488
| 24> C 	 -49.1457 	 16.1096 	 -98.4624
| 25> C 	 -48.3039 	 15.0616 	 -98.2391
| 26> C 	 -48.8671 	 13.7425 	 -98.3549
| 27> C 	 -50.1951 	 13.8084 	 -98.7609
| 28> H 	 -47.3629 	 15.3222 	 -97.8625
| 29> C 	 -48.0887 	 12.5102 	 -98.003
| 30> H 	 -47.929 	 11.9507 	 -98.8984
| 31> H 	 -48.7335 	 11.8614 	 -97.3502
| 32> C 	 -46.8256 	 12.7019 	 -97.2516
| 33> H 	 -46.9637 	 13.3074 	 -96.3151
| 34> H 	 -46.141 	 13.3792 	 -97.9025
| 35> C 	 -46.2055 	 11.342 	 -96.979
| 36> H 	 -45.3218 	 11.5583 	 -96.3998
| 37> H 	 -45.9153 	 10.7553 	 -97.9061
| 38> H 	 -46.8703 	 10.7226 	 -96.3985
| 39> H 	 -54.252 	 11.0766 	 -99.6182
| 40> H 	 -48.9448 	 17.1754 	 -98.4173
| 41> *
| 42>
| 43>                          ****END OF INPUT****

CARTESIAN COORDINATES (ANGSTROEM)
---------------------------------
  S    -52.839200   13.050100  -98.894000
  C    -53.211900   11.465700  -99.582800
  C    -52.076000   10.808000  -99.993600
  C    -50.943800   11.586500  -99.760100
  C    -51.124800   12.705800  -98.974800
  H    -49.911900   11.459900  -100.057000
  C    -52.025600    9.476730  -100.573000
  H    -53.037200    9.208690  -100.915000
  H    -51.595600    8.698690  -99.919700
  C    -51.126700    9.307760  -101.783000
  H    -50.038800    9.284280  -101.564000
  H    -51.585000    8.372140  -102.101000
  C    -51.364800   10.235100  -102.961000
  H    -50.840300    9.946390  -103.833000
  H    -52.418000   10.357600  -103.139000
  H    -51.013900   11.268800  -102.664000
  S    -50.719500   15.531600  -98.848800
  C    -49.145700   16.109600  -98.462400
  C    -48.303900   15.061600  -98.239100
  C    -48.867100   13.742500  -98.354900
  C    -50.195100   13.808400  -98.760900
  H    -47.362900   15.322200  -97.862500
  C    -48.088700   12.510200  -98.003000
  H    -47.929000   11.950700  -98.898400
  H    -48.733500   11.861400  -97.350200
  C    -46.825600   12.701900  -97.251600
  H    -46.963700   13.307400  -96.315100
  H    -46.141000   13.379200  -97.902500
  C    -46.205500   11.342000  -96.979000
  H    -45.321800   11.558300  -96.399800
  H    -45.915300   10.755300  -97.906100
  H    -46.870300   10.722600  -96.398500
  H    -54.252000   11.076600  -99.618200
  H    -48.944800   17.175400  -98.417300

 Total Charge           Charge          ....    0
 Multiplicity           Mult            ....    1
 Number of Electrons    NEL             ....  134
 Basis Dimension        Dim             ....  322

ORBITAL ENERGIES
----------------

  NO   OCC          E(Eh)            E(eV)
   0   2.0000     -88.962786     -2420.8005
   1   2.0000     -88.962249     -2420.7859
   2   2.0000     -10.328092      -281.0417
   3   2.0000     -10.326699      -281.0038
   4   2.0000     -10.317843      -280.7628
   5   2.0000     -10.314052      -280.6596
   6   2.0000     -10.302034      -280.3326
   7   2.0000     -10.295816      -280.1634
   8   2.0000     -10.294827      -280.1365
   9   2.0000     -10.291026      -280.0330
  10   2.0000     -10.290909      -280.0299
  11   2.0000     -10.289532      -279.9924
  12   2.0000     -10.286620      -279.9132
  13   2.0000     -10.285220      -279.8751
  14   2.0000     -10.282623      -279.8044
  15   2.0000     -10.271630      -279.5053
  16   2.0000      -8.077567      -219.8018
  17   2.0000      -8.076808      -219.7811
  18   2.0000      -6.036023      -164.2485
  19   2.0000      -6.035467      -164.2334
  20   2.0000      -6.032206      -164.1447
  21   2.0000      -6.031293      -164.1198
  22   2.0000      -6.028244      -164.0369
  23   2.0000      -6.027486      -164.0162
  24   2.0000      -1.008290       -27.4370
  25   2.0000      -0.986235       -26.8368
  26   2.0000      -0.923932       -25.1415
  27   2.0000      -0.920532       -25.0490
  28   2.0000      -0.872627       -23.7454
  29   2.0000      -0.854275       -23.2460
  30   2.0000      -0.841626       -22.9018
  31   2.0000      -0.816775       -22.2256
  32   2.0000      -0.787877       -21.4392
  33   2.0000      -0.776209       -21.1217
  34   2.0000      -0.707365       -19.2484
  35   2.0000      -0.701716       -19.0947
  36   2.0000      -0.688757       -18.7420
  37   2.0000      -0.647905       -17.6304
  38   2.0000      -0.640263       -17.4225
  39   2.0000      -0.626220       -17.0403
  40   2.0000      -0.606704       -16.5093
  41   2.0000      -0.573937       -15.6176
  42   2.0000      -0.571348       -15.5472
  43   2.0000      -0.565436       -15.3863
  44   2.0000      -0.536373       -14.5955
  45   2.0000      -0.533069       -14.5055
  46   2.0000      -0.524778       -14.2799
  47   2.0000      -0.513094       -13.9620
  48   2.0000      -0.501669       -13.6511
  49   2.0000      -0.498013       -13.5516
  50   2.0000      -0.490411       -13.3448
  51   2.0000      -0.481953       -13.1146
  52   2.0000      -0.474426       -12.9098
  53   2.0000      -0.468276       -12.7424
  54   2.0000      -0.458240       -12.4693
  55   2.0000      -0.452128       -12.3030
  56   2.0000      -0.438914       -11.9434
  57   2.0000      -0.437311       -11.8998
  58   2.0000      -0.432710       -11.7746
  59   2.0000      -0.429489       -11.6870
  60   2.0000      -0.415552       -11.3077
  61   2.0000      -0.413274       -11.2458
  62   2.0000      -0.404312       -11.0019
  63   2.0000      -0.355727        -9.6798
  64   2.0000      -0.331208        -9.0126
  65   2.0000      -0.327287        -8.9059
  66   2.0000      -0.284436        -7.7399
  67   0.0000       0.021805         0.5933
  68   0.0000       0.077448         2.1075
  69   0.0000       0.104344         2.8393
  70   0.0000       0.122642         3.3372
  71   0.0000       0.134660         3.6643

MULLIKEN ATOMIC CHARGES
-----------------------
   0 S :    0.080383
   1 C :   -0.140707
   2 C :   -0.039275
   3 C :   -0.007597
   4 C :   -0.132773
   5 H :    0.007306
   6 C :    0.091359
   7 H :    0.011172
   8 H :    0.049996
   9 C :   -0.127824
  10 H :    0.045102
  11 H :    0.026519
  12 C :   -0.027704
  13 H :    0.034042
  14 H :    0.017972
  15 H :    0.031648
  16 S :    0.088973
  17 C :   -0.092008
  18 C :   -0.021657
  19 C :   -0.037471
  20 C :   -0.137012
  21 H :   -0.004219
  22 C :    0.065206
  23 H :    0.029417
  24 H :    0.036506
  25 C :   -0.148058
  26 H :    0.046052
  27 H :    0.040576
  28 C :   -0.011893
  29 H :    0.031567
  30 H :    0.041630
  31 H :    0.028548
  32 H :    0.061042
  33 H :    0.063181
Sum of atomic charges:   -0.0000000

LOEWDIN ATOMIC CHARGES
----------------------
   0 S :    0.391986
   1 C :   -0.185310
   2 C :   -0.075656
   3 C :   -0.059573
   4 C :   -0.185178
   5 H :    0.029435
   6 C :   -0.032510
   7 H :    0.030402
   8 H :    0.043641
   9 C :   -0.048074
  10 H :    0.025569
  11 H :    0.030083
  12 C :   -0.064673
  13 H :    0.021162
  14 H :    0.021801
  15 H :    0.029719
  16 S :    0.385895
  17 C :   -0.186982
  18 C :   -0.075038
  19 C :   -0.055306
  20 C :   -0.185285
  21 H :    0.020191
  22 C :   -0.040816
  23 H :    0.027522
  24 H :    0.039626
  25 C :   -0.052507
  26 H :    0.030969
  27 H :    0.028987
  28 C :   -0.061433
  29 H :    0.026538
  30 H :    0.033970
  31 H :    0.023120
  32 H :    0.034722
  33 H :    0.033003

  Mayer bond orders larger than 0.100000
B(  0-S ,  1-C ) :   1.1447 B(  0-S ,  4-C ) :   1.1399 B(  1-C ,  2-C ) :   1.5850
B(  1-C , 32-H ) :   0.9649 B(  2-C ,  3-C ) :   1.2324 B(  2-C ,  6-C ) :   1.0454
B(  3-C ,  4-C ) :   1.5690 B(  3-C ,  5-H ) :   0.9893 B(  4-C , 20-C ) :   1.0769
B(  6-C ,  7-H ) :   0.9359 B(  6-C ,  8-H ) :   0.9291 B(  6-C ,  9-C ) :   1.0687
B(  9-C , 10-H ) :   0.9496 B(  9-C , 11-H ) :   0.9590 B(  9-C , 12-C ) :   1.0952
B( 12-C , 13-H ) :   0.9745 B( 12-C , 14-H ) :   0.9711 B( 12-C , 15-H ) :   0.9671
B( 16-S , 17-C ) :   1.1553 B( 16-S , 20-C ) :   1.1214 B( 17-C , 18-C ) :   1.6027
B( 17-C , 33-H ) :   0.9659 B( 18-C , 19-C ) :   1.2417 B( 18-C , 21-H ) :   0.9953
B( 19-C , 20-C ) :   1.6005 B( 19-C , 22-C ) :   1.0301 B( 22-C , 23-H ) :   0.9194
B( 22-C , 24-H ) :   0.9246 B( 22-C , 25-C ) :   1.0986 B( 25-C , 26-H ) :   0.9509
B( 25-C , 27-H ) :   0.9374 B( 25-C , 28-C ) :   1.0823 B( 28-C , 29-H ) :   0.9704
B( 28-C , 30-H ) :   0.9712 B( 28-C , 31-H ) :   0.9715

Dispersion correction           -0.013886754
FINAL SINGLE POINT ENERGY     -1339.872334961709

DIPOLE MOMENT
-------------
                                X             Y             Z
Electronic contribution:    -16.57866      20.76180       5.58821
Nuclear contribution   :     17.05472     -21.27493      -5.65312
                        -----------------------------------------
Total Dipole Moment    :      0.47606      -0.51312      -0.06491
                        -----------------------------------------
Magnitude (a.u.)       :      0.70295
Magnitude (Debye)      :      1.78677

Rotational constants in cm-1:     0.016793     0.009213     0.006877
Rotational constants in MHz :   503.442606   276.185319   206.156048

                             ****ORCA TERMINATED NORMALLY****
TOTAL RUN TIME: 0 days 0 hours 0 minutes 21 seconds 940 msec
