                         Program Version 4.2.1 -  RELEASE  -
|  1> ! wB97X-D3 SP def2-SVP
|  2> %pal
|  3> nprocs 24
|  4> end
|  5>
|  6> * xyz 0 1
|  7> S 	 -117.314 	 61.1556 	 -38.6286
|  8> C 	 -117.429 	 62.5254 	 -39.6661
|  9> C 	 -116.229 	 63.1826 	 -39.713
| 10> C 	 -115.246 	 62.5481 	 -38.8915
| 11> C 	 -115.722 	 61.5288 	 -38.0883
| 12> H 	 -114.293 	 62.9807 	 -38.6681
| 13> C 	 -115.961 	 64.5271 	 -40.4364
| 14> H 	 -115.273 	 65.1164 	 -39.8017
| 15> H 	 -116.923 	 65.0242 	 -40.4193
| 16> C 	 -115.444 	 64.4757 	 -41.8921
| 17> H 	 -115.309 	 65.4966 	 -42.2092
| 18> H 	 -114.518 	 63.9542 	 -41.8722
| 19> C 	 -116.36 	 63.828 	 -42.8489
| 20> H 	 -116.169 	 62.7636 	 -42.7689
| 21> H 	 -117.357 	 64.1722 	 -42.5022
| 22> H 	 -116.022 	 64.127 	 -43.8257
| 23> S 	 -114.296 	 59.2252 	 -37.4839
| 24> C 	 -113.397 	 59.1125 	 -36.0701
| 25> C 	 -113.648 	 60.2325 	 -35.2709
| 26> C 	 -114.552 	 61.1893 	 -35.8402
| 27> C 	 -115.048 	 60.7704 	 -37.0766
| 28> H 	 -113.013 	 60.2985 	 -34.3851
| 29> C 	 -114.857 	 62.5484 	 -35.2591
| 30> H 	 -115.021 	 62.376 	 -34.2168
| 31> H 	 -115.843 	 62.7599 	 -35.7641
| 32> C 	 -113.902 	 63.7582 	 -35.5832
| 33> H 	 -114.344 	 64.6517 	 -35.057
| 34> H 	 -113.943 	 64.0096 	 -36.6301
| 35> C 	 -112.373 	 63.5121 	 -35.275
| 36> H 	 -111.886 	 64.5383 	 -35.2687
| 37> H 	 -111.806 	 63.1082 	 -36.1439
| 38> H 	 -112.286 	 63.0215 	 -34.2625
| 39> H 	 -118.333 	 62.7716 	 -40.2302
| 40> H 	 -112.751 	 58.3097 	 -35.7647
| 41> *
| 42>
| 43>                          ****END OF INPUT****

CARTESIAN COORDINATES (ANGSTROEM)
---------------------------------
  S    -117.314000   61.155600  -38.628600
  C    -117.429000   62.525400  -39.666100
  C    -116.229000   63.182600  -39.713000
  C    -115.246000   62.548100  -38.891500
  C    -115.722000   61.528800  -38.088300
  H    -114.293000   62.980700  -38.668100
  C    -115.961000   64.527100  -40.436400
  H    -115.273000   65.116400  -39.801700
  H    -116.923000   65.024200  -40.419300
  C    -115.444000   64.475700  -41.892100
  H    -115.309000   65.496600  -42.209200
  H    -114.518000   63.954200  -41.872200
  C    -116.360000   63.828000  -42.848900
  H    -116.169000   62.763600  -42.768900
  H    -117.357000   64.172200  -42.502200
  H    -116.022000   64.127000  -43.825700
  S    -114.296000   59.225200  -37.483900
  C    -113.397000   59.112500  -36.070100
  C    -113.648000   60.232500  -35.270900
  C    -114.552000   61.189300  -35.840200
  C    -115.048000   60.770400  -37.076600
  H    -113.013000   60.298500  -34.385100
  C    -114.857000   62.548400  -35.259100
  H    -115.021000   62.376000  -34.216800
  H    -115.843000   62.759900  -35.764100
  C    -113.902000   63.758200  -35.583200
  H    -114.344000   64.651700  -35.057000
  H    -113.943000   64.009600  -36.630100
  C    -112.373000   63.512100  -35.275000
  H    -111.886000   64.538300  -35.268700
  H    -111.806000   63.108200  -36.143900
  H    -112.286000   63.021500  -34.262500
  H    -118.333000   62.771600  -40.230200
  H    -112.751000   58.309700  -35.764700

 Total Charge           Charge          ....    0
 Multiplicity           Mult            ....    1
 Number of Electrons    NEL             ....  134
 Basis Dimension        Dim             ....  322

ORBITAL ENERGIES
----------------

  NO   OCC          E(Eh)            E(eV)
   0   2.0000     -88.962513     -2420.7931
   1   2.0000     -88.962246     -2420.7858
   2   2.0000     -10.325596      -280.9738
   3   2.0000     -10.322315      -280.8845
   4   2.0000     -10.314291      -280.6661
   5   2.0000     -10.314086      -280.6605
   6   2.0000     -10.304700      -280.4051
   7   2.0000     -10.300813      -280.2994
   8   2.0000     -10.295804      -280.1631
   9   2.0000     -10.294683      -280.1326
  10   2.0000     -10.292303      -280.0678
  11   2.0000     -10.292246      -280.0663
  12   2.0000     -10.292120      -280.0628
  13   2.0000     -10.291730      -280.0522
  14   2.0000     -10.276156      -279.6284
  15   2.0000     -10.272899      -279.5398
  16   2.0000      -8.078313      -219.8221
  17   2.0000      -8.078215      -219.8194
  18   2.0000      -6.036657      -164.2658
  19   2.0000      -6.036552      -164.2629
  20   2.0000      -6.032413      -164.1503
  21   2.0000      -6.032316      -164.1477
  22   2.0000      -6.029419      -164.0688
  23   2.0000      -6.029302      -164.0656
  24   2.0000      -1.012556       -27.5531
  25   2.0000      -0.990338       -26.9485
  26   2.0000      -0.917490       -24.9662
  27   2.0000      -0.902048       -24.5460
  28   2.0000      -0.874696       -23.8017
  29   2.0000      -0.850376       -23.1399
  30   2.0000      -0.843013       -22.9396
  31   2.0000      -0.813259       -22.1299
  32   2.0000      -0.783923       -21.3316
  33   2.0000      -0.773656       -21.0522
  34   2.0000      -0.709800       -19.3146
  35   2.0000      -0.694337       -18.8939
  36   2.0000      -0.688194       -18.7267
  37   2.0000      -0.656724       -17.8704
  38   2.0000      -0.645620       -17.5682
  39   2.0000      -0.620362       -16.8809
  40   2.0000      -0.583532       -15.8787
  41   2.0000      -0.574745       -15.6396
  42   2.0000      -0.558431       -15.1957
  43   2.0000      -0.555966       -15.1286
  44   2.0000      -0.553112       -15.0509
  45   2.0000      -0.533046       -14.5049
  46   2.0000      -0.524122       -14.2621
  47   2.0000      -0.515921       -14.0389
  48   2.0000      -0.510270       -13.8852
  49   2.0000      -0.492954       -13.4140
  50   2.0000      -0.485281       -13.2052
  51   2.0000      -0.480826       -13.0839
  52   2.0000      -0.468726       -12.7547
  53   2.0000      -0.466695       -12.6994
  54   2.0000      -0.463209       -12.6046
  55   2.0000      -0.442483       -12.0406
  56   2.0000      -0.438417       -11.9299
  57   2.0000      -0.436772       -11.8852
  58   2.0000      -0.427247       -11.6260
  59   2.0000      -0.426039       -11.5931
  60   2.0000      -0.419663       -11.4196
  61   2.0000      -0.410827       -11.1792
  62   2.0000      -0.407986       -11.1019
  63   2.0000      -0.335443        -9.1279
  64   2.0000      -0.327061        -8.8998
  65   2.0000      -0.325819        -8.8660
  66   2.0000      -0.308219        -8.3871
  67   0.0000       0.041755         1.1362
  68   0.0000       0.055399         1.5075
  69   0.0000       0.116027         3.1573
  70   0.0000       0.124232         3.3805
  71   0.0000       0.135960         3.6997

MULLIKEN ATOMIC CHARGES
-----------------------
   0 S :    0.118352
   1 C :   -0.129931
   2 C :   -0.102176
   3 C :    0.072951
   4 C :   -0.210516
   5 H :    0.001410
   6 C :    0.039680
   7 H :    0.029570
   8 H :    0.019400
   9 C :   -0.050626
  10 H :    0.024829
  11 H :    0.016587
  12 C :   -0.023475
  13 H :    0.040941
  14 H :    0.027320
  15 H :    0.030990
  16 S :    0.122623
  17 C :   -0.095750
  18 C :   -0.058149
  19 C :   -0.033155
  20 C :   -0.154329
  21 H :    0.019979
  22 C :    0.058971
  23 H :    0.028508
  24 H :    0.043087
  25 C :   -0.051046
  26 H :    0.043439
  27 H :    0.011164
  28 C :   -0.095789
  29 H :    0.034989
  30 H :    0.051219
  31 H :    0.054407
  32 H :    0.056705
  33 H :    0.057821
Sum of atomic charges:   -0.0000000

LOEWDIN ATOMIC CHARGES
----------------------
   0 S :    0.432039
   1 C :   -0.203476
   2 C :   -0.071600
   3 C :   -0.055843
   4 C :   -0.212935
   5 H :    0.023180
   6 C :   -0.028532
   7 H :    0.031921
   8 H :    0.025573
   9 C :   -0.038806
  10 H :    0.021354
  11 H :    0.018376
  12 C :   -0.060728
  13 H :    0.029073
  14 H :    0.026904
  15 H :    0.026897
  16 S :    0.436183
  17 C :   -0.204874
  18 C :   -0.085121
  19 C :   -0.049104
  20 C :   -0.215369
  21 H :    0.030571
  22 C :   -0.036617
  23 H :    0.027534
  24 H :    0.043760
  25 C :   -0.038754
  26 H :    0.031959
  27 H :    0.017448
  28 C :   -0.084320
  29 H :    0.033355
  30 H :    0.033867
  31 H :    0.031334
  32 H :    0.032460
  33 H :    0.032292

  Mayer bond orders larger than 0.100000
B(  0-S ,  1-C ) :   1.1623 B(  0-S ,  4-C ) :   1.1664 B(  1-C ,  2-C ) :   1.5884
B(  1-C , 32-H ) :   0.9702 B(  2-C ,  3-C ) :   1.2658 B(  2-C ,  6-C ) :   1.0026
B(  3-C ,  4-C ) :   1.5628 B(  3-C ,  5-H ) :   0.9923 B(  4-C , 20-C ) :   1.0211
B(  6-C ,  7-H ) :   0.9458 B(  6-C ,  8-H ) :   0.9427 B(  6-C ,  9-C ) :   1.0811
B(  9-C , 10-H ) :   0.9551 B(  9-C , 11-H ) :   0.9521 B(  9-C , 12-C ) :   1.0818
B( 12-C , 13-H ) :   0.9732 B( 12-C , 14-H ) :   0.9759 B( 12-C , 15-H ) :   0.9707
B( 16-S , 17-C ) :   1.1953 B( 16-S , 20-C ) :   1.1535 B( 17-C , 18-C ) :   1.5748
B( 17-C , 20-C ) :   0.1033 B( 17-C , 33-H ) :   0.9683 B( 18-C , 19-C ) :   1.2545
B( 18-C , 21-H ) :   0.9917 B( 19-C , 20-C ) :   1.5678 B( 19-C , 22-C ) :   1.0394
B( 22-C , 23-H ) :   0.9377 B( 22-C , 24-H ) :   0.9271 B( 22-C , 25-C ) :   1.0692
B( 25-C , 26-H ) :   0.9571 B( 25-C , 27-H ) :   0.9515 B( 25-C , 28-C ) :   1.0685
B( 28-C , 29-H ) :   0.9718 B( 28-C , 30-H ) :   0.9724 B( 28-C , 31-H ) :   0.9764

Dispersion correction           -0.015226992
FINAL SINGLE POINT ENERGY     -1339.872490465265

DIPOLE MOMENT
-------------
                                X             Y             Z
Electronic contribution:     -7.53997     -23.06229       4.86167
Nuclear contribution   :      7.92493      23.70777      -4.86603
                        -----------------------------------------
Total Dipole Moment    :      0.38496       0.64548      -0.00436
                        -----------------------------------------
Magnitude (a.u.)       :      0.75157
Magnitude (Debye)      :      1.91034

Rotational constants in cm-1:     0.020690     0.008387     0.007044
Rotational constants in MHz :   620.280447   251.443193   211.166488

                             ****ORCA TERMINATED NORMALLY****
TOTAL RUN TIME: 0 days 0 hours 0 minutes 22 seconds 194 msec
