                         Program Version 4.2.1 -  RELEASE  -
|  1> ! wB97X-D3 SP def2-SVP
|  2> %pal
|  3> nprocs 24
|  4> end
|  5>
|  6> * xyz 0 1
|  7> S 	 -51.4652 	 16.1291 	 27.1001
|  8> C 	 -50.7707 	 17.3436 	 28.1474
|  9> C 	 -50.4307 	 18.4623 	 27.4214
| 10> C 	 -50.7923 	 18.4068 	 26.0399
| 11> C 	 -51.3036 	 17.1806 	 25.6581
| 12> H 	 -50.6154 	 19.1297 	 25.3078
| 13> C 	 -49.983 	 19.8615 	 27.9808
| 14> H 	 -49.2625 	 20.2652 	 27.332
| 15> H 	 -49.4998 	 19.5914 	 28.8529
| 16> C 	 -51.0607 	 20.6957 	 28.5322
| 17> H 	 -51.5791 	 20.0911 	 29.3192
| 18> H 	 -50.6248 	 21.6621 	 28.8696
| 19> C 	 -52.2171 	 21.2012 	 27.6243
| 20> H 	 -53.0539 	 21.6041 	 28.243
| 21> H 	 -52.0262 	 22.1123 	 27.069
| 22> H 	 -52.5364 	 20.5154 	 26.8673
| 23> S 	 -53.2641 	 15.6926 	 24.1803
| 24> C 	 -52.873 	 15.3182 	 22.5361
| 25> C 	 -51.9809 	 16.22 	 22.0624
| 26> C 	 -51.3973 	 17.157 	 23.0202
| 27> C 	 -51.8719 	 16.826 	 24.31
| 28> H 	 -51.6872 	 16.2755 	 21.0649
| 29> C 	 -50.1407 	 17.9277 	 22.6976
| 30> H 	 -49.561 	 17.2255 	 22.0871
| 31> H 	 -49.3526 	 18.0692 	 23.4314
| 32> C 	 -50.223 	 19.2581 	 21.9884
| 33> H 	 -50.6315 	 19.8649 	 22.8018
| 34> H 	 -51.0905 	 19.1519 	 21.3346
| 35> C 	 -48.9751 	 19.9456 	 21.592
| 36> H 	 -48.2935 	 20.1849 	 22.3769
| 37> H 	 -49.1609 	 20.9506 	 21.2263
| 38> H 	 -48.4122 	 19.2294 	 20.9479
| 39> H 	 -50.6551 	 17.1123 	 29.1931
| 40> H 	 -53.2365 	 14.4924 	 21.9897
| 41> *
| 42>
| 43>                          ****END OF INPUT****

CARTESIAN COORDINATES (ANGSTROEM)
---------------------------------
  S    -51.465200   16.129100   27.100100
  C    -50.770700   17.343600   28.147400
  C    -50.430700   18.462300   27.421400
  C    -50.792300   18.406800   26.039900
  C    -51.303600   17.180600   25.658100
  H    -50.615400   19.129700   25.307800
  C    -49.983000   19.861500   27.980800
  H    -49.262500   20.265200   27.332000
  H    -49.499800   19.591400   28.852900
  C    -51.060700   20.695700   28.532200
  H    -51.579100   20.091100   29.319200
  H    -50.624800   21.662100   28.869600
  C    -52.217100   21.201200   27.624300
  H    -53.053900   21.604100   28.243000
  H    -52.026200   22.112300   27.069000
  H    -52.536400   20.515400   26.867300
  S    -53.264100   15.692600   24.180300
  C    -52.873000   15.318200   22.536100
  C    -51.980900   16.220000   22.062400
  C    -51.397300   17.157000   23.020200
  C    -51.871900   16.826000   24.310000
  H    -51.687200   16.275500   21.064900
  C    -50.140700   17.927700   22.697600
  H    -49.561000   17.225500   22.087100
  H    -49.352600   18.069200   23.431400
  C    -50.223000   19.258100   21.988400
  H    -50.631500   19.864900   22.801800
  H    -51.090500   19.151900   21.334600
  C    -48.975100   19.945600   21.592000
  H    -48.293500   20.184900   22.376900
  H    -49.160900   20.950600   21.226300
  H    -48.412200   19.229400   20.947900
  H    -50.655100   17.112300   29.193100
  H    -53.236500   14.492400   21.989700

 Total Charge           Charge          ....    0
 Multiplicity           Mult            ....    1
 Number of Electrons    NEL             ....  134
 Basis Dimension        Dim             ....  322

ORBITAL ENERGIES
----------------

  NO   OCC          E(Eh)            E(eV)
   0   2.0000     -88.966568     -2420.9034
   1   2.0000     -88.963916     -2420.8312
   2   2.0000     -10.339565      -281.3539
   3   2.0000     -10.337107      -281.2870
   4   2.0000     -10.318390      -280.7777
   5   2.0000     -10.313860      -280.6544
   6   2.0000     -10.311495      -280.5901
   7   2.0000     -10.304288      -280.3939
   8   2.0000     -10.291977      -280.0589
   9   2.0000     -10.291616      -280.0491
  10   2.0000     -10.291026      -280.0331
  11   2.0000     -10.290200      -280.0106
  12   2.0000     -10.282777      -279.8086
  13   2.0000     -10.282457      -279.7999
  14   2.0000     -10.282192      -279.7927
  15   2.0000     -10.270634      -279.4782
  16   2.0000      -8.080716      -219.8874
  17   2.0000      -8.078546      -219.8284
  18   2.0000      -6.039356      -164.3392
  19   2.0000      -6.037195      -164.2804
  20   2.0000      -6.035222      -164.2267
  21   2.0000      -6.033176      -164.1711
  22   2.0000      -6.031446      -164.1240
  23   2.0000      -6.029044      -164.0586
  24   2.0000      -1.000869       -27.2350
  25   2.0000      -0.983391       -26.7594
  26   2.0000      -0.920371       -25.0446
  27   2.0000      -0.914085       -24.8735
  28   2.0000      -0.867763       -23.6130
  29   2.0000      -0.854817       -23.2607
  30   2.0000      -0.843444       -22.9513
  31   2.0000      -0.816948       -22.2303
  32   2.0000      -0.790959       -21.5231
  33   2.0000      -0.780275       -21.2324
  34   2.0000      -0.706129       -19.2148
  35   2.0000      -0.698545       -19.0084
  36   2.0000      -0.692320       -18.8390
  37   2.0000      -0.664165       -18.0728
  38   2.0000      -0.647849       -17.6289
  39   2.0000      -0.621211       -16.9040
  40   2.0000      -0.606869       -16.5137
  41   2.0000      -0.577991       -15.7279
  42   2.0000      -0.566650       -15.4193
  43   2.0000      -0.549700       -14.9581
  44   2.0000      -0.544283       -14.8107
  45   2.0000      -0.530097       -14.4247
  46   2.0000      -0.526036       -14.3142
  47   2.0000      -0.519156       -14.1269
  48   2.0000      -0.511755       -13.9255
  49   2.0000      -0.496425       -13.5084
  50   2.0000      -0.490911       -13.3584
  51   2.0000      -0.486719       -13.2443
  52   2.0000      -0.477470       -12.9926
  53   2.0000      -0.465954       -12.6793
  54   2.0000      -0.459394       -12.5008
  55   2.0000      -0.450875       -12.2689
  56   2.0000      -0.444021       -12.0824
  57   2.0000      -0.433513       -11.7965
  58   2.0000      -0.430954       -11.7268
  59   2.0000      -0.422486       -11.4964
  60   2.0000      -0.416722       -11.3396
  61   2.0000      -0.399994       -10.8844
  62   2.0000      -0.395169       -10.7531
  63   2.0000      -0.356340        -9.6965
  64   2.0000      -0.332712        -9.0536
  65   2.0000      -0.327879        -8.9220
  66   2.0000      -0.289371        -7.8742
  67   0.0000       0.016434         0.4472
  68   0.0000       0.079945         2.1754
  69   0.0000       0.101433         2.7601
  70   0.0000       0.119910         3.2629
  71   0.0000       0.127387         3.4664

MULLIKEN ATOMIC CHARGES
-----------------------
   0 S :    0.099315
   1 C :   -0.144771
   2 C :   -0.096133
   3 C :    0.039708
   4 C :   -0.123469
   5 H :   -0.010290
   6 C :    0.150929
   7 H :    0.015833
   8 H :   -0.003296
   9 C :   -0.070068
  10 H :    0.037251
  11 H :    0.039326
  12 C :   -0.071512
  13 H :    0.032226
  14 H :    0.010963
  15 H :    0.038008
  16 S :    0.094308
  17 C :   -0.068137
  18 C :   -0.004378
  19 C :    0.007715
  20 C :   -0.151591
  21 H :   -0.002229
  22 C :   -0.017879
  23 H :    0.013273
  24 H :    0.012961
  25 C :   -0.050128
  26 H :    0.008368
  27 H :    0.022241
  28 C :   -0.006911
  29 H :    0.018098
  30 H :    0.040591
  31 H :    0.033754
  32 H :    0.055953
  33 H :    0.049971
Sum of atomic charges:   -0.0000000

LOEWDIN ATOMIC CHARGES
----------------------
   0 S :    0.391203
   1 C :   -0.192867
   2 C :   -0.059476
   3 C :   -0.056238
   4 C :   -0.173453
   5 H :    0.021212
   6 C :   -0.024827
   7 H :    0.022816
   8 H :    0.026458
   9 C :   -0.040049
  10 H :    0.033553
  11 H :    0.033982
  12 C :   -0.080360
  13 H :    0.032763
  14 H :    0.019126
  15 H :    0.020362
  16 S :    0.379541
  17 C :   -0.180057
  18 C :   -0.057463
  19 C :   -0.055493
  20 C :   -0.167894
  21 H :    0.019294
  22 C :   -0.046107
  23 H :    0.028171
  24 H :    0.027976
  25 C :   -0.051279
  26 H :    0.022692
  27 H :    0.024184
  28 C :   -0.064083
  29 H :    0.025224
  30 H :    0.035341
  31 H :    0.030233
  32 H :    0.028376
  33 H :    0.027139

  Mayer bond orders larger than 0.100000
B(  0-S ,  1-C ) :   1.1422 B(  0-S ,  4-C ) :   1.1441 B(  1-C ,  2-C ) :   1.5941
B(  1-C , 32-H ) :   0.9755 B(  2-C ,  3-C ) :   1.2389 B(  2-C ,  6-C ) :   1.0167
B(  3-C ,  4-C ) :   1.5621 B(  3-C ,  5-H ) :   0.9992 B(  4-C , 20-C ) :   1.0603
B(  6-C ,  7-H ) :   0.9418 B(  6-C ,  8-H ) :   0.9210 B(  6-C ,  9-C ) :   1.0798
B(  9-C , 10-H ) :   0.9541 B(  9-C , 11-H ) :   0.9527 B(  9-C , 12-C ) :   1.0764
B( 12-C , 13-H ) :   0.9733 B( 12-C , 14-H ) :   0.9749 B( 12-C , 15-H ) :   0.9742
B( 16-S , 17-C ) :   1.1222 B( 16-S , 20-C ) :   1.1335 B( 17-C , 18-C ) :   1.6364
B( 17-C , 33-H ) :   0.9763 B( 18-C , 19-C ) :   1.2243 B( 18-C , 21-H ) :   0.9935
B( 19-C , 20-C ) :   1.5816 B( 19-C , 22-C ) :   1.0316 B( 22-C , 23-H ) :   0.9366
B( 22-C , 24-H ) :   0.9420 B( 22-C , 25-C ) :   1.0502 B( 25-C , 26-H ) :   0.9441
B( 25-C , 27-H ) :   0.9543 B( 25-C , 28-C ) :   1.0841 B( 28-C , 29-H ) :   0.9636
B( 28-C , 30-H ) :   0.9668 B( 28-C , 31-H ) :   0.9742

Dispersion correction           -0.014144373
FINAL SINGLE POINT ENERGY     -1339.835356936672

DIPOLE MOMENT
-------------
                                X             Y             Z
Electronic contribution:    -11.34469     -26.05632       3.82619
Nuclear contribution   :     11.82576      26.53213      -3.94875
                        -----------------------------------------
Total Dipole Moment    :      0.48107       0.47581      -0.12256
                        -----------------------------------------
Magnitude (a.u.)       :      0.68764
Magnitude (Debye)      :      1.74784

Rotational constants in cm-1:     0.015988     0.009592     0.006870
Rotational constants in MHz :   479.293429   287.546992   205.966448

                             ****ORCA TERMINATED NORMALLY****
TOTAL RUN TIME: 0 days 0 hours 0 minutes 21 seconds 501 msec
