                         Program Version 4.2.1 -  RELEASE  -
|  1> ! wB97X-D3 SP def2-SVP
|  2> %pal
|  3> nprocs 24
|  4> end
|  5>
|  6> * xyz 0 1
|  7> S 	 -51.0748 	 14.6113 	 25.4399
|  8> C 	 -51.5976 	 15.6913 	 26.7151
|  9> C 	 -52.3874 	 16.6905 	 26.1963
| 10> C 	 -52.5984 	 16.6061 	 24.8012
| 11> C 	 -51.8022 	 15.6602 	 24.2204
| 12> H 	 -53.1512 	 17.2919 	 24.2165
| 13> C 	 -53.0922 	 17.7771 	 27.0343
| 14> H 	 -53.9193 	 18.2437 	 26.443
| 15> H 	 -52.43 	 18.5893 	 27.2557
| 16> C 	 -53.6266 	 17.3509 	 28.3809
| 17> H 	 -52.8663 	 16.8337 	 28.9493
| 18> H 	 -53.8675 	 18.2971 	 28.9305
| 19> C 	 -55.0165 	 16.7183 	 28.2634
| 20> H 	 -54.8724 	 15.8226 	 27.6482
| 21> H 	 -55.3111 	 16.3298 	 29.2496
| 22> H 	 -55.696 	 17.4314 	 27.8497
| 23> S 	 -52.5112 	 14.1354 	 21.9967
| 24> C 	 -51.7547 	 14.4704 	 20.4982
| 25> C 	 -51.1267 	 15.6605 	 20.4902
| 26> C 	 -51.2071 	 16.3247 	 21.7863
| 27> C 	 -51.7501 	 15.4558 	 22.7873
| 28> H 	 -50.6717 	 16.0584 	 19.6054
| 29> C 	 -50.5656 	 17.6765 	 22.1148
| 30> H 	 -49.5668 	 17.5785 	 21.7836
| 31> H 	 -50.5278 	 17.8639 	 23.2287
| 32> C 	 -51.2008 	 18.9292 	 21.4847
| 33> H 	 -52.2356 	 18.6995 	 21.3309
| 34> H 	 -50.908 	 19.0698 	 20.4636
| 35> C 	 -50.7776 	 20.3018 	 22.1867
| 36> H 	 -51.1894 	 20.5485 	 23.1726
| 37> H 	 -51.1911 	 21.1776 	 21.5407
| 38> H 	 -49.7286 	 20.5518 	 22.242
| 39> H 	 -51.3243 	 15.6044 	 27.7526
| 40> H 	 -51.8454 	 13.8783 	 19.5844
| 41> *
| 42>
| 43>                          ****END OF INPUT****

CARTESIAN COORDINATES (ANGSTROEM)
---------------------------------
  S    -51.074800   14.611300   25.439900
  C    -51.597600   15.691300   26.715100
  C    -52.387400   16.690500   26.196300
  C    -52.598400   16.606100   24.801200
  C    -51.802200   15.660200   24.220400
  H    -53.151200   17.291900   24.216500
  C    -53.092200   17.777100   27.034300
  H    -53.919300   18.243700   26.443000
  H    -52.430000   18.589300   27.255700
  C    -53.626600   17.350900   28.380900
  H    -52.866300   16.833700   28.949300
  H    -53.867500   18.297100   28.930500
  C    -55.016500   16.718300   28.263400
  H    -54.872400   15.822600   27.648200
  H    -55.311100   16.329800   29.249600
  H    -55.696000   17.431400   27.849700
  S    -52.511200   14.135400   21.996700
  C    -51.754700   14.470400   20.498200
  C    -51.126700   15.660500   20.490200
  C    -51.207100   16.324700   21.786300
  C    -51.750100   15.455800   22.787300
  H    -50.671700   16.058400   19.605400
  C    -50.565600   17.676500   22.114800
  H    -49.566800   17.578500   21.783600
  H    -50.527800   17.863900   23.228700
  C    -51.200800   18.929200   21.484700
  H    -52.235600   18.699500   21.330900
  H    -50.908000   19.069800   20.463600
  C    -50.777600   20.301800   22.186700
  H    -51.189400   20.548500   23.172600
  H    -51.191100   21.177600   21.540700
  H    -49.728600   20.551800   22.242000
  H    -51.324300   15.604400   27.752600
  H    -51.845400   13.878300   19.584400

 Total Charge           Charge          ....    0
 Multiplicity           Mult            ....    1
 Number of Electrons    NEL             ....  134
 Basis Dimension        Dim             ....  322

ORBITAL ENERGIES
----------------

  NO   OCC          E(Eh)            E(eV)
   0   2.0000     -88.968084     -2420.9446
   1   2.0000     -88.962808     -2420.8011
   2   2.0000     -10.327097      -281.0146
   3   2.0000     -10.323998      -280.9303
   4   2.0000     -10.314042      -280.6594
   5   2.0000     -10.311182      -280.5815
   6   2.0000     -10.308464      -280.5076
   7   2.0000     -10.299495      -280.2635
   8   2.0000     -10.291292      -280.0403
   9   2.0000     -10.290531      -280.0196
  10   2.0000     -10.290040      -280.0062
  11   2.0000     -10.288746      -279.9710
  12   2.0000     -10.288733      -279.9707
  13   2.0000     -10.287578      -279.9392
  14   2.0000     -10.284529      -279.8563
  15   2.0000     -10.274444      -279.5818
  16   2.0000      -8.082438      -219.9343
  17   2.0000      -8.078873      -219.8373
  18   2.0000      -6.041054      -164.3854
  19   2.0000      -6.037327      -164.2840
  20   2.0000      -6.037004      -164.2752
  21   2.0000      -6.033163      -164.1707
  22   2.0000      -6.033099      -164.1690
  23   2.0000      -6.029642      -164.0749
  24   2.0000      -1.009451       -27.4686
  25   2.0000      -0.988602       -26.9012
  26   2.0000      -0.913785       -24.8654
  27   2.0000      -0.900353       -24.4999
  28   2.0000      -0.872672       -23.7466
  29   2.0000      -0.850196       -23.1350
  30   2.0000      -0.841607       -22.9013
  31   2.0000      -0.815527       -22.1916
  32   2.0000      -0.781871       -21.2758
  33   2.0000      -0.769295       -20.9336
  34   2.0000      -0.710989       -19.3470
  35   2.0000      -0.702903       -19.1270
  36   2.0000      -0.691276       -18.8106
  37   2.0000      -0.654424       -17.8078
  38   2.0000      -0.643441       -17.5089
  39   2.0000      -0.613992       -16.7076
  40   2.0000      -0.595076       -16.1928
  41   2.0000      -0.581046       -15.8111
  42   2.0000      -0.558449       -15.1962
  43   2.0000      -0.551690       -15.0122
  44   2.0000      -0.543662       -14.7938
  45   2.0000      -0.520250       -14.1567
  46   2.0000      -0.517515       -14.0823
  47   2.0000      -0.508192       -13.8286
  48   2.0000      -0.503829       -13.7099
  49   2.0000      -0.497102       -13.5268
  50   2.0000      -0.488338       -13.2883
  51   2.0000      -0.481488       -13.1020
  52   2.0000      -0.473950       -12.8968
  53   2.0000      -0.468623       -12.7519
  54   2.0000      -0.460308       -12.5256
  55   2.0000      -0.449334       -12.2270
  56   2.0000      -0.445662       -12.1271
  57   2.0000      -0.434914       -11.8346
  58   2.0000      -0.431053       -11.7296
  59   2.0000      -0.426648       -11.6097
  60   2.0000      -0.417980       -11.3738
  61   2.0000      -0.412682       -11.2297
  62   2.0000      -0.404969       -11.0198
  63   2.0000      -0.341762        -9.2998
  64   2.0000      -0.330258        -8.9868
  65   2.0000      -0.324343        -8.8258
  66   2.0000      -0.299759        -8.1569
  67   0.0000       0.034591         0.9413
  68   0.0000       0.063338         1.7235
  69   0.0000       0.117861         3.2072
  70   0.0000       0.120263         3.2725
  71   0.0000       0.133743         3.6393

MULLIKEN ATOMIC CHARGES
-----------------------
   0 S :    0.122393
   1 C :   -0.129469
   2 C :   -0.063588
   3 C :    0.052131
   4 C :   -0.170147
   5 H :    0.003987
   6 C :    0.070433
   7 H :    0.017617
   8 H :    0.031563
   9 C :   -0.112180
  10 H :    0.027589
  11 H :    0.025267
  12 C :   -0.027258
  13 H :    0.034270
  14 H :    0.033162
  15 H :    0.033761
  16 S :    0.124900
  17 C :   -0.087322
  18 C :   -0.019091
  19 C :   -0.051994
  20 C :   -0.176555
  21 H :    0.012611
  22 C :    0.059747
  23 H :    0.021657
  24 H :    0.045955
  25 C :   -0.042034
  26 H :    0.024316
  27 H :    0.016710
  28 C :   -0.094173
  29 H :    0.037877
  30 H :    0.034475
  31 H :    0.038263
  32 H :    0.045873
  33 H :    0.059254
Sum of atomic charges:   -0.0000000

LOEWDIN ATOMIC CHARGES
----------------------
   0 S :    0.404807
   1 C :   -0.196813
   2 C :   -0.063827
   3 C :   -0.049719
   4 C :   -0.189861
   5 H :    0.028113
   6 C :   -0.033511
   7 H :    0.031412
   8 H :    0.030473
   9 C :   -0.046300
  10 H :    0.018162
  11 H :    0.027590
  12 C :   -0.060054
  13 H :    0.026316
  14 H :    0.026902
  15 H :    0.022540
  16 S :    0.431410
  17 C :   -0.197769
  18 C :   -0.074317
  19 C :   -0.047312
  20 C :   -0.218338
  21 H :    0.030073
  22 C :   -0.037827
  23 H :    0.025173
  24 H :    0.038863
  25 C :   -0.040286
  26 H :    0.022979
  27 H :    0.021590
  28 C :   -0.076557
  29 H :    0.023036
  30 H :    0.036390
  31 H :    0.025054
  32 H :    0.026785
  33 H :    0.034822

  Mayer bond orders larger than 0.100000
B(  0-S ,  1-C ) :   1.1326 B(  0-S ,  4-C ) :   1.1467 B(  1-C ,  2-C ) :   1.6126
B(  1-C , 32-H ) :   0.9705 B(  2-C ,  3-C ) :   1.2434 B(  2-C ,  6-C ) :   1.0058
B(  3-C ,  4-C ) :   1.5717 B(  3-C ,  5-H ) :   1.0015 B(  4-C , 20-C ) :   1.0499
B(  6-C ,  7-H ) :   0.9466 B(  6-C ,  8-H ) :   0.9310 B(  6-C ,  9-C ) :   1.0858
B(  9-C , 10-H ) :   0.9536 B(  9-C , 11-H ) :   0.9538 B(  9-C , 12-C ) :   1.0750
B( 12-C , 13-H ) :   0.9791 B( 12-C , 14-H ) :   0.9741 B( 12-C , 15-H ) :   0.9730
B( 16-S , 17-C ) :   1.1582 B( 16-S , 20-C ) :   1.1597 B( 17-C , 18-C ) :   1.6131
B( 17-C , 33-H ) :   0.9639 B( 18-C , 19-C ) :   1.2380 B( 18-C , 21-H ) :   0.9963
B( 19-C , 20-C ) :   1.5592 B( 19-C , 22-C ) :   1.0526 B( 22-C , 23-H ) :   0.9333
B( 22-C , 24-H ) :   0.9436 B( 22-C , 25-C ) :   1.0474 B( 25-C , 26-H ) :   0.9627
B( 25-C , 27-H ) :   0.9515 B( 25-C , 28-C ) :   1.0641 B( 28-C , 29-H ) :   0.9793
B( 28-C , 30-H ) :   0.9764 B( 28-C , 31-H ) :   0.9780

Dispersion correction           -0.014162097
FINAL SINGLE POINT ENERGY     -1339.866851068610

DIPOLE MOMENT
-------------
                                X             Y             Z
Electronic contribution:      5.10262     -25.05730      -8.52513
Nuclear contribution   :     -5.11304      25.71254       8.50436
                        -----------------------------------------
Total Dipole Moment    :     -0.01041       0.65524      -0.02077
                        -----------------------------------------
Magnitude (a.u.)       :      0.65566
Magnitude (Debye)      :      1.66654

Rotational constants in cm-1:     0.018050     0.008512     0.006642
Rotational constants in MHz :   541.133559   255.170181   199.130660

                             ****ORCA TERMINATED NORMALLY****
TOTAL RUN TIME: 0 days 0 hours 0 minutes 21 seconds 294 msec
