                         Program Version 4.2.1 -  RELEASE  -
|  1> ! wB97X-D3 SP def2-SVP
|  2> %pal
|  3> nprocs 24
|  4> end
|  5>
|  6> * xyz 0 1
|  7> S 	 -61.1222 	 13.6913 	 -94.7861
|  8> C 	 -62.5229 	 14.5133 	 -95.2399
|  9> C 	 -63.4592 	 14.5863 	 -94.2232
| 10> C 	 -62.9147 	 14.1256 	 -92.9977
| 11> C 	 -61.619 	 13.7016 	 -93.0911
| 12> H 	 -63.4138 	 14.1968 	 -91.9933
| 13> C 	 -64.8069 	 15.2561 	 -94.3435
| 14> H 	 -65.4923 	 14.7562 	 -93.6199
| 15> H 	 -65.1053 	 15.176 	 -95.4557
| 16> C 	 -64.8129 	 16.7144 	 -94.0142
| 17> H 	 -64.1378 	 17.2768 	 -94.593
| 18> H 	 -65.8185 	 17.186 	 -94.1908
| 19> C 	 -64.252 	 17.0321 	 -92.6211
| 20> H 	 -64.0753 	 18.0947 	 -92.3876
| 21> H 	 -64.8945 	 16.6233 	 -91.7749
| 22> H 	 -63.2645 	 16.6018 	 -92.6248
| 23> S 	 -60.7216 	 11.2371 	 -92.0096
| 24> C 	 -59.8317 	 11.2764 	 -90.471
| 25> C 	 -59.5907 	 12.5834 	 -90.1074
| 26> C 	 -60.208 	 13.6214 	 -90.9489
| 27> C 	 -60.8371 	 13.0503 	 -92.0378
| 28> H 	 -59.0763 	 12.8312 	 -89.1721
| 29> C 	 -60.019 	 15.0705 	 -90.7124
| 30> H 	 -60.6197 	 15.2638 	 -89.7632
| 31> H 	 -60.4519 	 15.7122 	 -91.4628
| 32> C 	 -58.5772 	 15.5959 	 -90.5367
| 33> H 	 -58.0389 	 15.1408 	 -91.3374
| 34> H 	 -58.2634 	 15.2412 	 -89.5604
| 35> C 	 -58.4933 	 17.0759 	 -90.485
| 36> H 	 -59.0703 	 17.5981 	 -89.6806
| 37> H 	 -58.8242 	 17.4555 	 -91.4493
| 38> H 	 -57.4652 	 17.3599 	 -90.2593
| 39> H 	 -62.7276 	 14.8255 	 -96.1719
| 40> H 	 -59.3867 	 10.4418 	 -89.9084
| 41> *
| 42>
| 43>                          ****END OF INPUT****

CARTESIAN COORDINATES (ANGSTROEM)
---------------------------------
  S    -61.122200   13.691300  -94.786100
  C    -62.522900   14.513300  -95.239900
  C    -63.459200   14.586300  -94.223200
  C    -62.914700   14.125600  -92.997700
  C    -61.619000   13.701600  -93.091100
  H    -63.413800   14.196800  -91.993300
  C    -64.806900   15.256100  -94.343500
  H    -65.492300   14.756200  -93.619900
  H    -65.105300   15.176000  -95.455700
  C    -64.812900   16.714400  -94.014200
  H    -64.137800   17.276800  -94.593000
  H    -65.818500   17.186000  -94.190800
  C    -64.252000   17.032100  -92.621100
  H    -64.075300   18.094700  -92.387600
  H    -64.894500   16.623300  -91.774900
  H    -63.264500   16.601800  -92.624800
  S    -60.721600   11.237100  -92.009600
  C    -59.831700   11.276400  -90.471000
  C    -59.590700   12.583400  -90.107400
  C    -60.208000   13.621400  -90.948900
  C    -60.837100   13.050300  -92.037800
  H    -59.076300   12.831200  -89.172100
  C    -60.019000   15.070500  -90.712400
  H    -60.619700   15.263800  -89.763200
  H    -60.451900   15.712200  -91.462800
  C    -58.577200   15.595900  -90.536700
  H    -58.038900   15.140800  -91.337400
  H    -58.263400   15.241200  -89.560400
  C    -58.493300   17.075900  -90.485000
  H    -59.070300   17.598100  -89.680600
  H    -58.824200   17.455500  -91.449300
  H    -57.465200   17.359900  -90.259300
  H    -62.727600   14.825500  -96.171900
  H    -59.386700   10.441800  -89.908400

 Total Charge           Charge          ....    0
 Multiplicity           Mult            ....    1
 Number of Electrons    NEL             ....  134
 Basis Dimension        Dim             ....  322

ORBITAL ENERGIES
----------------

  NO   OCC          E(Eh)            E(eV)
   0   2.0000     -88.966512     -2420.9019
   1   2.0000     -88.962633     -2420.7963
   2   2.0000     -10.328759      -281.0598
   3   2.0000     -10.325902      -280.9821
   4   2.0000     -10.322638      -280.8933
   5   2.0000     -10.305247      -280.4200
   6   2.0000     -10.304321      -280.3948
   7   2.0000     -10.299754      -280.2705
   8   2.0000     -10.297586      -280.2116
   9   2.0000     -10.296888      -280.1926
  10   2.0000     -10.296364      -280.1783
  11   2.0000     -10.290459      -280.0176
  12   2.0000     -10.282943      -279.8131
  13   2.0000     -10.281608      -279.7768
  14   2.0000     -10.279359      -279.7156
  15   2.0000     -10.278004      -279.6787
  16   2.0000      -8.082222      -219.9284
  17   2.0000      -8.076039      -219.7602
  18   2.0000      -6.040525      -164.3710
  19   2.0000      -6.036617      -164.2647
  20   2.0000      -6.034844      -164.2165
  21   2.0000      -6.033121      -164.1696
  22   2.0000      -6.030825      -164.1071
  23   2.0000      -6.026451      -163.9881
  24   2.0000      -1.008439       -27.4410
  25   2.0000      -0.978920       -26.6378
  26   2.0000      -0.918087       -24.9824
  27   2.0000      -0.914415       -24.8825
  28   2.0000      -0.871217       -23.7070
  29   2.0000      -0.850336       -23.1388
  30   2.0000      -0.847808       -23.0700
  31   2.0000      -0.814560       -22.1653
  32   2.0000      -0.781712       -21.2715
  33   2.0000      -0.770106       -20.9557
  34   2.0000      -0.704912       -19.1816
  35   2.0000      -0.698784       -19.0149
  36   2.0000      -0.694868       -18.9083
  37   2.0000      -0.652464       -17.7545
  38   2.0000      -0.648379       -17.6433
  39   2.0000      -0.611278       -16.6337
  40   2.0000      -0.596867       -16.2416
  41   2.0000      -0.577447       -15.7131
  42   2.0000      -0.575578       -15.6623
  43   2.0000      -0.548418       -14.9232
  44   2.0000      -0.545796       -14.8519
  45   2.0000      -0.522947       -14.2301
  46   2.0000      -0.516627       -14.0581
  47   2.0000      -0.511132       -13.9086
  48   2.0000      -0.509232       -13.8569
  49   2.0000      -0.501998       -13.6601
  50   2.0000      -0.489128       -13.3099
  51   2.0000      -0.478307       -13.0154
  52   2.0000      -0.467573       -12.7233
  53   2.0000      -0.465022       -12.6539
  54   2.0000      -0.460149       -12.5213
  55   2.0000      -0.452153       -12.3037
  56   2.0000      -0.441353       -12.0098
  57   2.0000      -0.437774       -11.9124
  58   2.0000      -0.425402       -11.5758
  59   2.0000      -0.421932       -11.4813
  60   2.0000      -0.417958       -11.3732
  61   2.0000      -0.414721       -11.2851
  62   2.0000      -0.413143       -11.2422
  63   2.0000      -0.342264        -9.3135
  64   2.0000      -0.325561        -8.8590
  65   2.0000      -0.324560        -8.8317
  66   2.0000      -0.304660        -8.2902
  67   0.0000       0.042229         1.1491
  68   0.0000       0.055340         1.5059
  69   0.0000       0.115287         3.1371
  70   0.0000       0.119967         3.2645
  71   0.0000       0.123119         3.3502

MULLIKEN ATOMIC CHARGES
-----------------------
   0 S :    0.124856
   1 C :   -0.051341
   2 C :   -0.121711
   3 C :    0.032758
   4 C :   -0.197406
   5 H :    0.038641
   6 C :    0.059920
   7 H :    0.037672
   8 H :    0.041202
   9 C :   -0.034701
  10 H :    0.008148
  11 H :    0.038516
  12 C :   -0.108775
  13 H :    0.035428
  14 H :    0.035537
  15 H :    0.047175
  16 S :    0.093593
  17 C :   -0.092486
  18 C :   -0.041027
  19 C :   -0.012047
  20 C :   -0.164354
  21 H :    0.024196
  22 C :    0.025540
  23 H :    0.035886
  24 H :    0.020682
  25 C :   -0.051280
  26 H :    0.037995
  27 H :    0.018723
  28 C :   -0.041598
  29 H :    0.032892
  30 H :    0.030182
  31 H :    0.034136
  32 H :   -0.007258
  33 H :    0.070305
Sum of atomic charges:    0.0000000

LOEWDIN ATOMIC CHARGES
----------------------
   0 S :    0.429559
   1 C :   -0.189662
   2 C :   -0.071575
   3 C :   -0.056482
   4 C :   -0.202246
   5 H :    0.044165
   6 C :   -0.035315
   7 H :    0.036956
   8 H :    0.042952
   9 C :   -0.046077
  10 H :    0.017919
  11 H :    0.028102
  12 C :   -0.074219
  13 H :    0.026956
  14 H :    0.024844
  15 H :    0.025194
  16 S :    0.358658
  17 C :   -0.179797
  18 C :   -0.073911
  19 C :   -0.052989
  20 C :   -0.182891
  21 H :    0.030169
  22 C :   -0.038685
  23 H :    0.039775
  24 H :    0.024965
  25 C :   -0.035564
  26 H :    0.026191
  27 H :    0.020484
  28 C :   -0.064767
  29 H :    0.031002
  30 H :    0.023723
  31 H :    0.029164
  32 H :    0.002768
  33 H :    0.040635

  Mayer bond orders larger than 0.100000
B(  0-S ,  1-C ) :   1.1697 B(  0-S ,  4-C ) :   1.1485 B(  1-C ,  2-C ) :   1.5860
B(  1-C , 32-H ) :   0.9793 B(  2-C ,  3-C ) :   1.2513 B(  2-C ,  6-C ) :   1.0278
B(  3-C ,  4-C ) :   1.5875 B(  3-C ,  5-H ) :   0.9835 B(  4-C , 20-C ) :   1.0213
B(  6-C ,  7-H ) :   0.9379 B(  6-C ,  8-H ) :   0.9349 B(  6-C ,  9-C ) :   1.0810
B(  9-C , 10-H ) :   0.9489 B(  9-C , 11-H ) :   0.9552 B(  9-C , 12-C ) :   1.0724
B( 12-C , 13-H ) :   0.9725 B( 12-C , 14-H ) :   0.9739 B( 12-C , 15-H ) :   0.9682
B( 16-S , 17-C ) :   1.1256 B( 16-S , 20-C ) :   1.1077 B( 17-C , 18-C ) :   1.6629
B( 17-C , 33-H ) :   0.9615 B( 18-C , 19-C ) :   1.1919 B( 18-C , 21-H ) :   0.9798
B( 19-C , 20-C ) :   1.6484 B( 19-C , 22-C ) :   1.0638 B( 22-C , 23-H ) :   0.9182
B( 22-C , 24-H ) :   0.9391 B( 22-C , 25-C ) :   1.0596 B( 25-C , 26-H ) :   0.9576
B( 25-C , 27-H ) :   0.9441 B( 25-C , 28-C ) :   1.1026 B( 28-C , 29-H ) :   0.9711
B( 28-C , 30-H ) :   0.9715 B( 28-C , 31-H ) :   0.9710

Dispersion correction           -0.014642927
FINAL SINGLE POINT ENERGY     -1339.875628117718

DIPOLE MOMENT
-------------
                                X             Y             Z
Electronic contribution:      4.42782     -25.42007      -9.40685
Nuclear contribution   :     -4.48327      26.00827       9.71354
                        -----------------------------------------
Total Dipole Moment    :     -0.05546       0.58819       0.30670
                        -----------------------------------------
Magnitude (a.u.)       :      0.66567
Magnitude (Debye)      :      1.69199

Rotational constants in cm-1:     0.016997     0.009384     0.007266
Rotational constants in MHz :   509.558345   281.330723   217.826568

                             ****ORCA TERMINATED NORMALLY****
TOTAL RUN TIME: 0 days 0 hours 0 minutes 22 seconds 111 msec
