                         Program Version 4.2.1 -  RELEASE  -
|  1> ! wB97X-D3 SP def2-SVP
|  2> %pal
|  3> nprocs 24
|  4> end
|  5>
|  6> * xyz 0 1
|  7> S 	 -49.7805 	 14.0891 	 -105.615
|  8> C 	 -51.2255 	 13.232 	 -104.994
|  9> C 	 -50.863 	 12.4723 	 -103.85
| 10> C 	 -49.4639 	 12.489 	 -103.619
| 11> C 	 -48.7679 	 13.3282 	 -104.422
| 12> H 	 -48.9463 	 11.817 	 -102.881
| 13> C 	 -51.7317 	 11.4903 	 -103.155
| 14> H 	 -52.2113 	 10.9557 	 -103.904
| 15> H 	 -52.4938 	 12.0368 	 -102.547
| 16> C 	 -51.0543 	 10.5103 	 -102.207
| 17> H 	 -50.4067 	 11.0839 	 -101.567
| 18> H 	 -51.81 	 10.0698 	 -101.573
| 19> C 	 -50.3271 	 9.38484 	 -102.833
| 20> H 	 -50.0876 	 8.54265 	 -102.16
| 21> H 	 -51.0343 	 8.78011 	 -103.52
| 22> H 	 -49.4168 	 9.64311 	 -103.448
| 23> S 	 -46.5787 	 13.2904 	 -106.087
| 24> C 	 -45.0218 	 13.7022 	 -105.578
| 25> C 	 -45.0573 	 13.9873 	 -104.236
| 26> C 	 -46.334 	 13.8357 	 -103.581
| 27> C 	 -47.2769 	 13.473 	 -104.507
| 28> H 	 -44.1002 	 14.2771 	 -103.82
| 29> C 	 -46.6952 	 14.2809 	 -102.155
| 30> H 	 -47.7145 	 14.6954 	 -102.197
| 31> H 	 -46.1015 	 15.1742 	 -101.822
| 32> C 	 -46.7639 	 13.0739 	 -101.163
| 33> H 	 -45.7568 	 12.9077 	 -100.92
| 34> H 	 -47.1808 	 12.2649 	 -101.637
| 35> C 	 -47.65 	 13.2619 	 -99.9465
| 36> H 	 -47.4043 	 14.182 	 -99.4212
| 37> H 	 -47.521 	 12.4027 	 -99.2931
| 38> H 	 -48.7174 	 13.3247 	 -100.247
| 39> H 	 -52.1991 	 13.4396 	 -105.387
| 40> H 	 -44.0944 	 13.7827 	 -106.123
| 41> *
| 42>
| 43>                          ****END OF INPUT****

CARTESIAN COORDINATES (ANGSTROEM)
---------------------------------
  S    -49.780500   14.089100  -105.615000
  C    -51.225500   13.232000  -104.994000
  C    -50.863000   12.472300  -103.850000
  C    -49.463900   12.489000  -103.619000
  C    -48.767900   13.328200  -104.422000
  H    -48.946300   11.817000  -102.881000
  C    -51.731700   11.490300  -103.155000
  H    -52.211300   10.955700  -103.904000
  H    -52.493800   12.036800  -102.547000
  C    -51.054300   10.510300  -102.207000
  H    -50.406700   11.083900  -101.567000
  H    -51.810000   10.069800  -101.573000
  C    -50.327100    9.384840  -102.833000
  H    -50.087600    8.542650  -102.160000
  H    -51.034300    8.780110  -103.520000
  H    -49.416800    9.643110  -103.448000
  S    -46.578700   13.290400  -106.087000
  C    -45.021800   13.702200  -105.578000
  C    -45.057300   13.987300  -104.236000
  C    -46.334000   13.835700  -103.581000
  C    -47.276900   13.473000  -104.507000
  H    -44.100200   14.277100  -103.820000
  C    -46.695200   14.280900  -102.155000
  H    -47.714500   14.695400  -102.197000
  H    -46.101500   15.174200  -101.822000
  C    -46.763900   13.073900  -101.163000
  H    -45.756800   12.907700  -100.920000
  H    -47.180800   12.264900  -101.637000
  C    -47.650000   13.261900  -99.946500
  H    -47.404300   14.182000  -99.421200
  H    -47.521000   12.402700  -99.293100
  H    -48.717400   13.324700  -100.247000
  H    -52.199100   13.439600  -105.387000
  H    -44.094400   13.782700  -106.123000

 Total Charge           Charge          ....    0
 Multiplicity           Mult            ....    1
 Number of Electrons    NEL             ....  134
 Basis Dimension        Dim             ....  322

ORBITAL ENERGIES
----------------

  NO   OCC          E(Eh)            E(eV)
   0   2.0000     -88.967845     -2420.9381
   1   2.0000     -88.962060     -2420.7807
   2   2.0000     -10.329655      -281.0842
   3   2.0000     -10.324772      -280.9513
   4   2.0000     -10.319357      -280.8040
   5   2.0000     -10.309034      -280.5231
   6   2.0000     -10.304304      -280.3944
   7   2.0000     -10.303506      -280.3727
   8   2.0000     -10.295392      -280.1519
   9   2.0000     -10.293937      -280.1123
  10   2.0000     -10.289637      -279.9953
  11   2.0000     -10.286689      -279.9150
  12   2.0000     -10.286436      -279.9081
  13   2.0000     -10.284301      -279.8500
  14   2.0000     -10.277621      -279.6683
  15   2.0000     -10.274270      -279.5771
  16   2.0000      -8.081902      -219.9197
  17   2.0000      -8.078108      -219.8165
  18   2.0000      -6.040436      -164.3686
  19   2.0000      -6.036534      -164.2624
  20   2.0000      -6.036388      -164.2585
  21   2.0000      -6.032792      -164.1606
  22   2.0000      -6.032274      -164.1465
  23   2.0000      -6.029021      -164.0580
  24   2.0000      -1.010691       -27.5023
  25   2.0000      -0.987420       -26.8691
  26   2.0000      -0.922716       -25.1084
  27   2.0000      -0.908492       -24.7213
  28   2.0000      -0.867876       -23.6161
  29   2.0000      -0.853420       -23.2227
  30   2.0000      -0.843830       -22.9618
  31   2.0000      -0.819860       -22.3095
  32   2.0000      -0.782457       -21.2917
  33   2.0000      -0.772549       -21.0221
  34   2.0000      -0.708282       -19.2733
  35   2.0000      -0.699659       -19.0387
  36   2.0000      -0.692329       -18.8392
  37   2.0000      -0.655478       -17.8365
  38   2.0000      -0.641708       -17.4618
  39   2.0000      -0.630423       -17.1547
  40   2.0000      -0.592733       -16.1291
  41   2.0000      -0.571871       -15.5614
  42   2.0000      -0.568379       -15.4664
  43   2.0000      -0.558260       -15.1910
  44   2.0000      -0.537589       -14.6285
  45   2.0000      -0.527422       -14.3519
  46   2.0000      -0.520677       -14.1683
  47   2.0000      -0.514047       -13.9879
  48   2.0000      -0.508473       -13.8363
  49   2.0000      -0.498442       -13.5633
  50   2.0000      -0.490311       -13.3420
  51   2.0000      -0.479753       -13.0547
  52   2.0000      -0.474990       -12.9251
  53   2.0000      -0.464069       -12.6280
  54   2.0000      -0.459630       -12.5072
  55   2.0000      -0.449040       -12.2190
  56   2.0000      -0.442135       -12.0311
  57   2.0000      -0.436339       -11.8734
  58   2.0000      -0.434002       -11.8098
  59   2.0000      -0.425696       -11.5838
  60   2.0000      -0.419406       -11.4126
  61   2.0000      -0.414354       -11.2751
  62   2.0000      -0.410994       -11.1837
  63   2.0000      -0.345971        -9.4144
  64   2.0000      -0.332829        -9.0567
  65   2.0000      -0.326730        -8.8908
  66   2.0000      -0.295663        -8.0454
  67   0.0000       0.032225         0.8769
  68   0.0000       0.071999         1.9592
  69   0.0000       0.116011         3.1568
  70   0.0000       0.124083         3.3765
  71   0.0000       0.127996         3.4830

MULLIKEN ATOMIC CHARGES
-----------------------
   0 S :    0.108732
   1 C :   -0.138702
   2 C :   -0.086103
   3 C :   -0.007545
   4 C :   -0.124564
   5 H :    0.037017
   6 C :    0.099537
   7 H :    0.014619
   8 H :    0.042307
   9 C :   -0.055923
  10 H :    0.021518
  11 H :    0.023679
  12 C :   -0.098047
  13 H :    0.037179
  14 H :    0.026037
  15 H :    0.056001
  16 S :    0.115154
  17 C :   -0.081634
  18 C :   -0.068344
  19 C :    0.000265
  20 C :   -0.179706
  21 H :    0.009744
  22 C :    0.027946
  23 H :    0.025301
  24 H :    0.039338
  25 C :   -0.012825
  26 H :    0.018505
  27 H :    0.000528
  28 C :   -0.057641
  29 H :    0.030384
  30 H :    0.037530
  31 H :    0.037450
  32 H :    0.049228
  33 H :    0.053035
Sum of atomic charges:    0.0000000

LOEWDIN ATOMIC CHARGES
----------------------
   0 S :    0.400603
   1 C :   -0.185769
   2 C :   -0.056619
   3 C :   -0.077101
   4 C :   -0.192920
   5 H :    0.040639
   6 C :   -0.028308
   7 H :    0.024519
   8 H :    0.041876
   9 C :   -0.047776
  10 H :    0.019071
  11 H :    0.030690
  12 C :   -0.082047
  13 H :    0.029760
  14 H :    0.032266
  15 H :    0.030395
  16 S :    0.433289
  17 C :   -0.210512
  18 C :   -0.076972
  19 C :   -0.059794
  20 C :   -0.199457
  21 H :    0.027174
  22 C :   -0.030936
  23 H :    0.030475
  24 H :    0.035433
  25 C :   -0.029132
  26 H :    0.018353
  27 H :    0.009667
  28 C :   -0.062672
  29 H :    0.022761
  30 H :    0.027987
  31 H :    0.027121
  32 H :    0.022673
  33 H :    0.035263

  Mayer bond orders larger than 0.100000
B(  0-S ,  1-C ) :   1.1375 B(  0-S ,  4-C ) :   1.1659 B(  1-C ,  2-C ) :   1.5758
B(  1-C ,  4-C ) :   0.1023 B(  1-C , 32-H ) :   0.9797 B(  2-C ,  3-C ) :   1.2739
B(  2-C ,  6-C ) :   1.0098 B(  3-C ,  4-C ) :   1.5819 B(  3-C ,  5-H ) :   0.9634
B(  4-C , 20-C ) :   0.9902 B(  6-C ,  7-H ) :   0.9358 B(  6-C ,  8-H ) :   0.9228
B(  6-C ,  9-C ) :   1.1044 B(  9-C , 10-H ) :   0.9424 B(  9-C , 11-H ) :   0.9433
B(  9-C , 12-C ) :   1.0871 B( 12-C , 13-H ) :   0.9704 B( 12-C , 14-H ) :   0.9651
B( 12-C , 15-H ) :   0.9712 B( 16-S , 17-C ) :   1.1547 B( 16-S , 20-C ) :   1.1647
B( 17-C , 18-C ) :   1.6192 B( 17-C , 33-H ) :   0.9680 B( 18-C , 19-C ) :   1.2307
B( 18-C , 21-H ) :   0.9926 B( 19-C , 20-C ) :   1.5991 B( 19-C , 22-C ) :   1.0349
B( 22-C , 23-H ) :   0.9387 B( 22-C , 24-H ) :   0.9461 B( 22-C , 25-C ) :   1.0456
B( 25-C , 26-H ) :   0.9519 B( 25-C , 27-H ) :   0.9575 B( 25-C , 28-C ) :   1.0907
B( 28-C , 29-H ) :   0.9739 B( 28-C , 30-H ) :   0.9733 B( 28-C , 31-H ) :   0.9714

Dispersion correction           -0.015191714
FINAL SINGLE POINT ENERGY     -1339.876066520849

DIPOLE MOMENT
-------------
                                X             Y             Z
Electronic contribution:      5.56333      12.68171     -25.37502
Nuclear contribution   :     -5.67177     -12.93031      25.91672
                        -----------------------------------------
Total Dipole Moment    :     -0.10844      -0.24860       0.54170
                        -----------------------------------------
Magnitude (a.u.)       :      0.60581
Magnitude (Debye)      :      1.53984

Rotational constants in cm-1:     0.016874     0.010575     0.007878
Rotational constants in MHz :   505.854947   317.030986   236.163941

                             ****ORCA TERMINATED NORMALLY****
TOTAL RUN TIME: 0 days 0 hours 0 minutes 21 seconds 548 msec
