                         Program Version 4.2.1 -  RELEASE  -
|  1> ! wB97X-D3 SP def2-SVP
|  2> %pal
|  3> nprocs 24
|  4> end
|  5>
|  6> * xyz 0 1
|  7> S 	 -107.543 	 41.6508 	 -10.8692
|  8> C 	 -107.26 	 43.3505 	 -11.2802
|  9> C 	 -108.026 	 43.7087 	 -12.3417
| 10> C 	 -108.948 	 42.701 	 -12.6698
| 11> C 	 -108.771 	 41.4898 	 -12.0169
| 12> H 	 -109.68 	 42.6666 	 -13.4182
| 13> C 	 -107.838 	 45.0009 	 -13.1782
| 14> H 	 -107.424 	 45.6838 	 -12.4166
| 15> H 	 -108.875 	 45.3868 	 -13.4397
| 16> C 	 -106.868 	 44.8995 	 -14.4093
| 17> H 	 -106.417 	 45.8686 	 -14.7695
| 18> H 	 -105.983 	 44.3482 	 -14.1072
| 19> C 	 -107.454 	 44.1462 	 -15.5742
| 20> H 	 -108.524 	 44.4994 	 -15.7382
| 21> H 	 -106.919 	 44.3982 	 -16.5318
| 22> H 	 -107.366 	 43.0906 	 -15.4081
| 23> S 	 -108.797 	 38.8443 	 -12.6737
| 24> C 	 -110.31 	 37.8986 	 -12.7315
| 25> C 	 -111.339 	 38.6791 	 -12.279
| 26> C 	 -110.943 	 40.0342 	 -11.9369
| 27> C 	 -109.609 	 40.2995 	 -12.1297
| 28> H 	 -112.355 	 38.3091 	 -12.2464
| 29> C 	 -112 	 41.0559 	 -11.4815
| 30> H 	 -111.466 	 41.8404 	 -10.9767
| 31> H 	 -112.547 	 40.4787 	 -10.7197
| 32> C 	 -112.846 	 41.6109 	 -12.6628
| 33> H 	 -113.491 	 40.873 	 -13.0367
| 34> H 	 -112.286 	 41.9183 	 -13.5287
| 35> C 	 -113.642 	 42.8953 	 -12.1875
| 36> H 	 -114.352 	 42.6272 	 -11.333
| 37> H 	 -114.195 	 43.2995 	 -13.0414
| 38> H 	 -112.973 	 43.7187 	 -11.8967
| 39> H 	 -106.362 	 43.8733 	 -10.9146
| 40> H 	 -110.328 	 36.8435 	 -13.0275
| 41> *
| 42>
| 43>                          ****END OF INPUT****

CARTESIAN COORDINATES (ANGSTROEM)
---------------------------------
  S    -107.543000   41.650800  -10.869200
  C    -107.260000   43.350500  -11.280200
  C    -108.026000   43.708700  -12.341700
  C    -108.948000   42.701000  -12.669800
  C    -108.771000   41.489800  -12.016900
  H    -109.680000   42.666600  -13.418200
  C    -107.838000   45.000900  -13.178200
  H    -107.424000   45.683800  -12.416600
  H    -108.875000   45.386800  -13.439700
  C    -106.868000   44.899500  -14.409300
  H    -106.417000   45.868600  -14.769500
  H    -105.983000   44.348200  -14.107200
  C    -107.454000   44.146200  -15.574200
  H    -108.524000   44.499400  -15.738200
  H    -106.919000   44.398200  -16.531800
  H    -107.366000   43.090600  -15.408100
  S    -108.797000   38.844300  -12.673700
  C    -110.310000   37.898600  -12.731500
  C    -111.339000   38.679100  -12.279000
  C    -110.943000   40.034200  -11.936900
  C    -109.609000   40.299500  -12.129700
  H    -112.355000   38.309100  -12.246400
  C    -112.000000   41.055900  -11.481500
  H    -111.466000   41.840400  -10.976700
  H    -112.547000   40.478700  -10.719700
  C    -112.846000   41.610900  -12.662800
  H    -113.491000   40.873000  -13.036700
  H    -112.286000   41.918300  -13.528700
  C    -113.642000   42.895300  -12.187500
  H    -114.352000   42.627200  -11.333000
  H    -114.195000   43.299500  -13.041400
  H    -112.973000   43.718700  -11.896700
  H    -106.362000   43.873300  -10.914600
  H    -110.328000   36.843500  -13.027500

 Total Charge           Charge          ....    0
 Multiplicity           Mult            ....    1
 Number of Electrons    NEL             ....  134
 Basis Dimension        Dim             ....  322

ORBITAL ENERGIES
----------------

  NO   OCC          E(Eh)            E(eV)
   0   2.0000     -88.964607     -2420.8500
   1   2.0000     -88.959151     -2420.7016
   2   2.0000     -10.325788      -280.9790
   3   2.0000     -10.325491      -280.9709
   4   2.0000     -10.322900      -280.9004
   5   2.0000     -10.315215      -280.6913
   6   2.0000     -10.305152      -280.4174
   7   2.0000     -10.304156      -280.3903
   8   2.0000     -10.301944      -280.3302
   9   2.0000     -10.296564      -280.1838
  10   2.0000     -10.292229      -280.0658
  11   2.0000     -10.291931      -280.0577
  12   2.0000     -10.287251      -279.9303
  13   2.0000     -10.286965      -279.9225
  14   2.0000     -10.286364      -279.9062
  15   2.0000     -10.280596      -279.7492
  16   2.0000      -8.080324      -219.8768
  17   2.0000      -8.073873      -219.7013
  18   2.0000      -6.038674      -164.3207
  19   2.0000      -6.034580      -164.2093
  20   2.0000      -6.032505      -164.1528
  21   2.0000      -6.031285      -164.1196
  22   2.0000      -6.028341      -164.0395
  23   2.0000      -6.024529      -163.9358
  24   2.0000      -1.012124       -27.5413
  25   2.0000      -0.985229       -26.8094
  26   2.0000      -0.908506       -24.7217
  27   2.0000      -0.900895       -24.5146
  28   2.0000      -0.872541       -23.7430
  29   2.0000      -0.847928       -23.0733
  30   2.0000      -0.841154       -22.8890
  31   2.0000      -0.817371       -22.2418
  32   2.0000      -0.779778       -21.2189
  33   2.0000      -0.767176       -20.8759
  34   2.0000      -0.707168       -19.2430
  35   2.0000      -0.697398       -18.9772
  36   2.0000      -0.695989       -18.9388
  37   2.0000      -0.663915       -18.0660
  38   2.0000      -0.647239       -17.6123
  39   2.0000      -0.612844       -16.6763
  40   2.0000      -0.590792       -16.0763
  41   2.0000      -0.572161       -15.5693
  42   2.0000      -0.560807       -15.2603
  43   2.0000      -0.549367       -14.9490
  44   2.0000      -0.541556       -14.7365
  45   2.0000      -0.523834       -14.2542
  46   2.0000      -0.515984       -14.0406
  47   2.0000      -0.511231       -13.9113
  48   2.0000      -0.509677       -13.8690
  49   2.0000      -0.498704       -13.5704
  50   2.0000      -0.482555       -13.1310
  51   2.0000      -0.479582       -13.0501
  52   2.0000      -0.473291       -12.8789
  53   2.0000      -0.464667       -12.6442
  54   2.0000      -0.456268       -12.4157
  55   2.0000      -0.444278       -12.0894
  56   2.0000      -0.440347       -11.9825
  57   2.0000      -0.434825       -11.8322
  58   2.0000      -0.431844       -11.7511
  59   2.0000      -0.430400       -11.7118
  60   2.0000      -0.426252       -11.5989
  61   2.0000      -0.413647       -11.2559
  62   2.0000      -0.404651       -11.0111
  63   2.0000      -0.344354        -9.3703
  64   2.0000      -0.334124        -9.0920
  65   2.0000      -0.324061        -8.8182
  66   2.0000      -0.304857        -8.2956
  67   0.0000       0.037647         1.0244
  68   0.0000       0.065724         1.7884
  69   0.0000       0.113667         3.0930
  70   0.0000       0.125253         3.4083
  71   0.0000       0.132531         3.6064

MULLIKEN ATOMIC CHARGES
-----------------------
   0 S :    0.115507
   1 C :   -0.144719
   2 C :   -0.071376
   3 C :    0.045940
   4 C :   -0.154836
   5 H :   -0.021418
   6 C :    0.045552
   7 H :    0.028206
   8 H :    0.042271
   9 C :   -0.053878
  10 H :    0.039201
  11 H :    0.022093
  12 C :   -0.079087
  13 H :    0.033953
  14 H :    0.038255
  15 H :    0.050530
  16 S :    0.077676
  17 C :   -0.100080
  18 C :   -0.021177
  19 C :   -0.059583
  20 C :   -0.164550
  21 H :    0.020577
  22 C :    0.080106
  23 H :    0.024426
  24 H :    0.033857
  25 C :   -0.042190
  26 H :    0.016791
  27 H :    0.028053
  28 C :   -0.085612
  29 H :    0.047131
  30 H :    0.034200
  31 H :    0.040999
  32 H :    0.061357
  33 H :    0.071825
Sum of atomic charges:    0.0000000

LOEWDIN ATOMIC CHARGES
----------------------
   0 S :    0.428136
   1 C :   -0.194511
   2 C :   -0.068300
   3 C :   -0.062484
   4 C :   -0.216485
   5 H :    0.019802
   6 C :   -0.030312
   7 H :    0.032851
   8 H :    0.034836
   9 C :   -0.048167
  10 H :    0.030554
  11 H :    0.025059
  12 C :   -0.073029
  13 H :    0.028183
  14 H :    0.032296
  15 H :    0.025146
  16 S :    0.380120
  17 C :   -0.170207
  18 C :   -0.073956
  19 C :   -0.054865
  20 C :   -0.201544
  21 H :    0.031598
  22 C :   -0.025831
  23 H :    0.027544
  24 H :    0.035361
  25 C :   -0.031209
  26 H :    0.016466
  27 H :    0.023193
  28 C :   -0.071501
  29 H :    0.032232
  30 H :    0.024190
  31 H :    0.026189
  32 H :    0.032922
  33 H :    0.035725

  Mayer bond orders larger than 0.100000
B(  0-S ,  1-C ) :   1.1466 B(  0-S ,  4-C ) :   1.1827 B(  1-C ,  2-C ) :   1.6073
B(  1-C ,  4-C ) :   0.1030 B(  1-C , 32-H ) :   0.9635 B(  2-C ,  3-C ) :   1.2416
B(  2-C ,  6-C ) :   1.0049 B(  3-C ,  4-C ) :   1.5633 B(  3-C ,  5-H ) :   1.0133
B(  4-C , 20-C ) :   0.9936 B(  6-C ,  7-H ) :   0.9389 B(  6-C ,  8-H ) :   0.9492
B(  6-C ,  9-C ) :   1.0555 B(  9-C , 10-H ) :   0.9608 B(  9-C , 11-H ) :   0.9528
B(  9-C , 12-C ) :   1.0776 B( 12-C , 13-H ) :   0.9760 B( 12-C , 14-H ) :   0.9718
B( 12-C , 15-H ) :   0.9759 B( 16-S , 17-C ) :   1.1441 B( 16-S , 20-C ) :   1.1281
B( 17-C , 18-C ) :   1.6173 B( 17-C , 33-H ) :   0.9687 B( 18-C , 19-C ) :   1.2147
B( 18-C , 21-H ) :   0.9921 B( 19-C , 20-C ) :   1.6418 B( 19-C , 22-C ) :   1.0360
B( 22-C , 23-H ) :   0.9408 B( 22-C , 24-H ) :   0.9347 B( 22-C , 25-C ) :   1.0518
B( 25-C , 26-H ) :   0.9547 B( 25-C , 27-H ) :   0.9583 B( 25-C , 28-C ) :   1.0804
B( 28-C , 29-H ) :   0.9757 B( 28-C , 30-H ) :   0.9761 B( 28-C , 31-H ) :   0.9773

Dispersion correction           -0.014669477
FINAL SINGLE POINT ENERGY     -1339.884270568038

DIPOLE MOMENT
-------------
                                X             Y             Z
Electronic contribution:     12.34744     -19.47161      11.40143
Nuclear contribution   :    -12.68145      19.78439     -11.71887
                        -----------------------------------------
Total Dipole Moment    :     -0.33400       0.31278      -0.31743
                        -----------------------------------------
Magnitude (a.u.)       :      0.55691
Magnitude (Debye)      :      1.41556

Rotational constants in cm-1:     0.016847     0.009138     0.007492
Rotational constants in MHz :   505.048534   273.942548   224.619422

                             ****ORCA TERMINATED NORMALLY****
TOTAL RUN TIME: 0 days 0 hours 0 minutes 21 seconds 613 msec
