                         Program Version 4.2.1 -  RELEASE  -
|  1> ! wB97X-D3 SP def2-SVP
|  2> %pal
|  3> nprocs 24
|  4> end
|  5>
|  6> * xyz 0 1
|  7> S 	 -82.0185 	 -19.8582 	 -46.3837
|  8> C 	 -81.9424 	 -18.1669 	 -46.0546
|  9> C 	 -80.9042 	 -17.5596 	 -46.7741
| 10> C 	 -80.0217 	 -18.5515 	 -47.4038
| 11> C 	 -80.5307 	 -19.8252 	 -47.2837
| 12> H 	 -79.0875 	 -18.453 	 -47.9173
| 13> C 	 -80.8169 	 -16.0302 	 -47.0564
| 14> H 	 -81.4498 	 -15.3819 	 -46.4864
| 15> H 	 -80.9135 	 -15.8582 	 -48.1263
| 16> C 	 -79.3868 	 -15.5828 	 -46.6554
| 17> H 	 -78.7344 	 -16.1147 	 -47.3155
| 18> H 	 -79.1993 	 -14.4859 	 -46.7647
| 19> C 	 -79.0592 	 -15.7643 	 -45.1523
| 20> H 	 -79.6481 	 -15.1346 	 -44.5274
| 21> H 	 -79.1873 	 -16.7677 	 -44.7656
| 22> H 	 -78.0022 	 -15.5714 	 -44.9641
| 23> S 	 -78.6566 	 -21.863 	 -47.0428
| 24> C 	 -78.3272 	 -22.7926 	 -48.4357
| 25> C 	 -79.0491 	 -22.4201 	 -49.5604
| 26> C 	 -79.9275 	 -21.3006 	 -49.3443
| 27> C 	 -79.9045 	 -20.9516 	 -47.9646
| 28> H 	 -78.9603 	 -22.9292 	 -50.5238
| 29> C 	 -80.7341 	 -20.5718 	 -50.392
| 30> H 	 -79.951 	 -20.2295 	 -51.1043
| 31> H 	 -81.1261 	 -19.6885 	 -49.8858
| 32> C 	 -81.8911 	 -21.38 	 -51.0167
| 33> H 	 -82.6568 	 -20.6554 	 -51.4229
| 34> H 	 -82.3303 	 -21.9403 	 -50.1181
| 35> C 	 -81.4428 	 -22.4458 	 -52.0013
| 36> H 	 -82.2468 	 -22.9264 	 -52.6105
| 37> H 	 -80.8002 	 -23.1885 	 -51.5311
| 38> H 	 -80.7746 	 -21.8805 	 -52.6051
| 39> H 	 -82.7361 	 -17.6487 	 -45.55
| 40> H 	 -77.7366 	 -23.7655 	 -48.426
| 41> *
| 42>
| 43>                          ****END OF INPUT****

CARTESIAN COORDINATES (ANGSTROEM)
---------------------------------
  S    -82.018500  -19.858200  -46.383700
  C    -81.942400  -18.166900  -46.054600
  C    -80.904200  -17.559600  -46.774100
  C    -80.021700  -18.551500  -47.403800
  C    -80.530700  -19.825200  -47.283700
  H    -79.087500  -18.453000  -47.917300
  C    -80.816900  -16.030200  -47.056400
  H    -81.449800  -15.381900  -46.486400
  H    -80.913500  -15.858200  -48.126300
  C    -79.386800  -15.582800  -46.655400
  H    -78.734400  -16.114700  -47.315500
  H    -79.199300  -14.485900  -46.764700
  C    -79.059200  -15.764300  -45.152300
  H    -79.648100  -15.134600  -44.527400
  H    -79.187300  -16.767700  -44.765600
  H    -78.002200  -15.571400  -44.964100
  S    -78.656600  -21.863000  -47.042800
  C    -78.327200  -22.792600  -48.435700
  C    -79.049100  -22.420100  -49.560400
  C    -79.927500  -21.300600  -49.344300
  C    -79.904500  -20.951600  -47.964600
  H    -78.960300  -22.929200  -50.523800
  C    -80.734100  -20.571800  -50.392000
  H    -79.951000  -20.229500  -51.104300
  H    -81.126100  -19.688500  -49.885800
  C    -81.891100  -21.380000  -51.016700
  H    -82.656800  -20.655400  -51.422900
  H    -82.330300  -21.940300  -50.118100
  C    -81.442800  -22.445800  -52.001300
  H    -82.246800  -22.926400  -52.610500
  H    -80.800200  -23.188500  -51.531100
  H    -80.774600  -21.880500  -52.605100
  H    -82.736100  -17.648700  -45.550000
  H    -77.736600  -23.765500  -48.426000

 Total Charge           Charge          ....    0
 Multiplicity           Mult            ....    1
 Number of Electrons    NEL             ....  134
 Basis Dimension        Dim             ....  322

ORBITAL ENERGIES
----------------

  NO   OCC          E(Eh)            E(eV)
   0   2.0000     -88.967728     -2420.9349
   1   2.0000     -88.965673     -2420.8790
   2   2.0000     -10.328063      -281.0409
   3   2.0000     -10.324567      -280.9457
   4   2.0000     -10.320279      -280.8291
   5   2.0000     -10.314109      -280.6612
   6   2.0000     -10.311456      -280.5890
   7   2.0000     -10.308883      -280.5190
   8   2.0000     -10.297070      -280.1975
   9   2.0000     -10.295638      -280.1586
  10   2.0000     -10.295475      -280.1541
  11   2.0000     -10.294916      -280.1389
  12   2.0000     -10.294815      -280.1362
  13   2.0000     -10.285433      -279.8809
  14   2.0000     -10.278025      -279.6793
  15   2.0000     -10.268855      -279.4298
  16   2.0000      -8.082406      -219.9334
  17   2.0000      -8.080987      -219.8948
  18   2.0000      -6.040763      -164.3775
  19   2.0000      -6.039408      -164.3406
  20   2.0000      -6.036948      -164.2737
  21   2.0000      -6.035403      -164.2317
  22   2.0000      -6.033302      -164.1745
  23   2.0000      -6.031805      -164.1338
  24   2.0000      -1.003738       -27.3131
  25   2.0000      -0.981424       -26.7059
  26   2.0000      -0.911807       -24.8115
  27   2.0000      -0.907226       -24.6869
  28   2.0000      -0.868867       -23.6431
  29   2.0000      -0.849761       -23.1232
  30   2.0000      -0.839930       -22.8557
  31   2.0000      -0.810114       -22.0443
  32   2.0000      -0.785830       -21.3835
  33   2.0000      -0.771009       -20.9802
  34   2.0000      -0.703835       -19.1523
  35   2.0000      -0.691640       -18.8205
  36   2.0000      -0.684268       -18.6199
  37   2.0000      -0.654001       -17.7963
  38   2.0000      -0.647527       -17.6201
  39   2.0000      -0.617082       -16.7917
  40   2.0000      -0.594119       -16.1668
  41   2.0000      -0.563909       -15.3448
  42   2.0000      -0.555525       -15.1166
  43   2.0000      -0.548003       -14.9119
  44   2.0000      -0.542589       -14.7646
  45   2.0000      -0.534729       -14.5507
  46   2.0000      -0.520628       -14.1670
  47   2.0000      -0.512145       -13.9362
  48   2.0000      -0.502993       -13.6871
  49   2.0000      -0.492070       -13.3899
  50   2.0000      -0.482711       -13.1352
  51   2.0000      -0.480842       -13.0844
  52   2.0000      -0.475215       -12.9313
  53   2.0000      -0.469649       -12.7798
  54   2.0000      -0.454235       -12.3604
  55   2.0000      -0.444239       -12.0884
  56   2.0000      -0.440905       -11.9976
  57   2.0000      -0.438900       -11.9431
  58   2.0000      -0.431635       -11.7454
  59   2.0000      -0.430669       -11.7191
  60   2.0000      -0.420255       -11.4357
  61   2.0000      -0.410297       -11.1647
  62   2.0000      -0.409104       -11.1323
  63   2.0000      -0.336885        -9.1671
  64   2.0000      -0.328398        -8.9362
  65   2.0000      -0.314447        -8.5565
  66   2.0000      -0.312160        -8.4943
  67   0.0000       0.043595         1.1863
  68   0.0000       0.054296         1.4775
  69   0.0000       0.106461         2.8969
  70   0.0000       0.117941         3.2093
  71   0.0000       0.126472         3.4415

MULLIKEN ATOMIC CHARGES
-----------------------
   0 S :    0.121942
   1 C :   -0.114864
   2 C :   -0.097320
   3 C :    0.044085
   4 C :   -0.187787
   5 H :    0.017786
   6 C :    0.111838
   7 H :    0.014213
   8 H :    0.044628
   9 C :   -0.118455
  10 H :    0.025024
  11 H :    0.034739
  12 C :   -0.043143
  13 H :    0.020465
  14 H :    0.031955
  15 H :    0.029945
  16 S :    0.123082
  17 C :   -0.103858
  18 C :   -0.053998
  19 C :   -0.037282
  20 C :   -0.211459
  21 H :    0.022185
  22 C :    0.065858
  23 H :    0.041246
  24 H :    0.032261
  25 C :   -0.100518
  26 H :    0.049943
  27 H :    0.042967
  28 C :   -0.028772
  29 H :    0.053426
  30 H :    0.030393
  31 H :    0.008778
  32 H :    0.049607
  33 H :    0.081088
Sum of atomic charges:   -0.0000000

LOEWDIN ATOMIC CHARGES
----------------------
   0 S :    0.420102
   1 C :   -0.206240
   2 C :   -0.053538
   3 C :   -0.056074
   4 C :   -0.212479
   5 H :    0.031702
   6 C :   -0.021711
   7 H :    0.023670
   8 H :    0.034574
   9 C :   -0.043370
  10 H :    0.014215
  11 H :    0.027168
  12 C :   -0.065999
  13 H :    0.018704
  14 H :    0.022404
  15 H :    0.028042
  16 S :    0.410318
  17 C :   -0.209388
  18 C :   -0.084398
  19 C :   -0.043431
  20 C :   -0.196423
  21 H :    0.030081
  22 C :   -0.036155
  23 H :    0.035638
  24 H :    0.034923
  25 C :   -0.045449
  26 H :    0.032084
  27 H :    0.033364
  28 C :   -0.069706
  29 H :    0.035162
  30 H :    0.024132
  31 H :    0.017645
  32 H :    0.026061
  33 H :    0.044373

  Mayer bond orders larger than 0.100000
B(  0-S ,  1-C ) :   1.1460 B(  0-S ,  4-C ) :   1.1538 B(  1-C ,  2-C ) :   1.6171
B(  1-C , 32-H ) :   0.9722 B(  2-C ,  3-C ) :   1.1947 B(  2-C ,  6-C ) :   1.0198
B(  3-C ,  4-C ) :   1.5983 B(  3-C ,  5-H ) :   0.9954 B(  4-C , 20-C ) :   1.0195
B(  6-C ,  7-H ) :   0.9474 B(  6-C ,  8-H ) :   0.9467 B(  6-C ,  9-C ) :   1.0584
B(  9-C , 10-H ) :   0.9608 B(  9-C , 11-H ) :   0.9599 B(  9-C , 12-C ) :   1.0707
B( 12-C , 13-H ) :   0.9759 B( 12-C , 14-H ) :   0.9731 B( 12-C , 15-H ) :   0.9740
B( 16-S , 17-C ) :   1.1686 B( 16-S , 20-C ) :   1.1457 B( 17-C , 18-C ) :   1.6096
B( 17-C , 33-H ) :   0.9517 B( 18-C , 19-C ) :   1.2404 B( 18-C , 21-H ) :   0.9803
B( 19-C , 20-C ) :   1.5877 B( 19-C , 22-C ) :   1.0366 B( 22-C , 23-H ) :   0.9352
B( 22-C , 24-H ) :   0.9219 B( 22-C , 25-C ) :   1.0586 B( 25-C , 26-H ) :   0.9584
B( 25-C , 27-H ) :   0.9534 B( 25-C , 28-C ) :   1.0650 B( 28-C , 29-H ) :   0.9700
B( 28-C , 30-H ) :   0.9689 B( 28-C , 31-H ) :   0.9756

Dispersion correction           -0.014928660
FINAL SINGLE POINT ENERGY     -1339.874573800153

DIPOLE MOMENT
-------------
                                X             Y             Z
Electronic contribution:      0.16426     -13.17647      11.89748
Nuclear contribution   :     -0.16998      13.51302     -12.38649
                        -----------------------------------------
Total Dipole Moment    :     -0.00573       0.33655      -0.48901
                        -----------------------------------------
Magnitude (a.u.)       :      0.59366
Magnitude (Debye)      :      1.50896

Rotational constants in cm-1:     0.020729     0.007940     0.007112
Rotational constants in MHz :   621.427293   238.028409   213.208641

                             ****ORCA TERMINATED NORMALLY****
TOTAL RUN TIME: 0 days 0 hours 0 minutes 21 seconds 740 msec
