                         Program Version 4.2.1 -  RELEASE  -
|  1> ! wB97X-D3 SP def2-SVP
|  2> %pal
|  3> nprocs 24
|  4> end
|  5>
|  6> * xyz 0 1
|  7> S 	 -15.192 	 -31.9679 	 -106.343
|  8> C 	 -14.845 	 -30.8717 	 -104.974
|  9> C 	 -14.4575 	 -31.6448 	 -103.906
| 10> C 	 -14.3166 	 -33.0357 	 -104.183
| 11> C 	 -14.7288 	 -33.4105 	 -105.43
| 12> H 	 -13.9662 	 -33.7539 	 -103.503
| 13> C 	 -14.2253 	 -31.1044 	 -102.516
| 14> H 	 -15.2215 	 -30.973 	 -102.117
| 15> H 	 -13.9815 	 -30.0417 	 -102.529
| 16> C 	 -13.2171 	 -31.7509 	 -101.487
| 17> H 	 -13.1971 	 -31.1281 	 -100.633
| 18> H 	 -13.6554 	 -32.6979 	 -101.347
| 19> C 	 -11.8021 	 -31.9134 	 -102.088
| 20> H 	 -10.9875 	 -31.9396 	 -101.271
| 21> H 	 -11.6098 	 -32.7773 	 -102.763
| 22> H 	 -11.638 	 -31.0118 	 -102.771
| 23> S 	 -16.2931 	 -35.2284 	 -106.623
| 24> C 	 -15.7321 	 -36.8804 	 -106.865
| 25> C 	 -14.4046 	 -37.0392 	 -106.52
| 26> C 	 -13.8796 	 -35.8749 	 -105.839
| 27> C 	 -14.791 	 -34.73 	 -105.961
| 28> H 	 -13.8827 	 -37.9473 	 -106.696
| 29> C 	 -12.4298 	 -35.8388 	 -105.26
| 30> H 	 -12.4148 	 -36.6957 	 -104.578
| 31> H 	 -12.2564 	 -34.9727 	 -104.621
| 32> C 	 -11.2945 	 -36.0269 	 -106.281
| 33> H 	 -11.4489 	 -36.8922 	 -106.81
| 34> H 	 -10.3457 	 -36.3016 	 -105.889
| 35> C 	 -11.1468 	 -34.8908 	 -107.292
| 36> H 	 -12.1767 	 -34.6565 	 -107.759
| 37> H 	 -10.5255 	 -35.1307 	 -108.162
| 38> H 	 -10.8611 	 -33.9666 	 -106.854
| 39> H 	 -14.8972 	 -29.7968 	 -105.018
| 40> H 	 -16.3439 	 -37.8007 	 -107.108
| 41> *
| 42>
| 43>                          ****END OF INPUT****

CARTESIAN COORDINATES (ANGSTROEM)
---------------------------------
  S    -15.192000  -31.967900  -106.343000
  C    -14.845000  -30.871700  -104.974000
  C    -14.457500  -31.644800  -103.906000
  C    -14.316600  -33.035700  -104.183000
  C    -14.728800  -33.410500  -105.430000
  H    -13.966200  -33.753900  -103.503000
  C    -14.225300  -31.104400  -102.516000
  H    -15.221500  -30.973000  -102.117000
  H    -13.981500  -30.041700  -102.529000
  C    -13.217100  -31.750900  -101.487000
  H    -13.197100  -31.128100  -100.633000
  H    -13.655400  -32.697900  -101.347000
  C    -11.802100  -31.913400  -102.088000
  H    -10.987500  -31.939600  -101.271000
  H    -11.609800  -32.777300  -102.763000
  H    -11.638000  -31.011800  -102.771000
  S    -16.293100  -35.228400  -106.623000
  C    -15.732100  -36.880400  -106.865000
  C    -14.404600  -37.039200  -106.520000
  C    -13.879600  -35.874900  -105.839000
  C    -14.791000  -34.730000  -105.961000
  H    -13.882700  -37.947300  -106.696000
  C    -12.429800  -35.838800  -105.260000
  H    -12.414800  -36.695700  -104.578000
  H    -12.256400  -34.972700  -104.621000
  C    -11.294500  -36.026900  -106.281000
  H    -11.448900  -36.892200  -106.810000
  H    -10.345700  -36.301600  -105.889000
  C    -11.146800  -34.890800  -107.292000
  H    -12.176700  -34.656500  -107.759000
  H    -10.525500  -35.130700  -108.162000
  H    -10.861100  -33.966600  -106.854000
  H    -14.897200  -29.796800  -105.018000
  H    -16.343900  -37.800700  -107.108000

 Total Charge           Charge          ....    0
 Multiplicity           Mult            ....    1
 Number of Electrons    NEL             ....  134
 Basis Dimension        Dim             ....  322

ORBITAL ENERGIES
----------------

  NO   OCC          E(Eh)            E(eV)
   0   2.0000     -88.970995     -2421.0239
   1   2.0000     -88.963637     -2420.8236
   2   2.0000     -10.332033      -281.1489
   3   2.0000     -10.329552      -281.0814
   4   2.0000     -10.323380      -280.9134
   5   2.0000     -10.318210      -280.7728
   6   2.0000     -10.315378      -280.6957
   7   2.0000     -10.302540      -280.3464
   8   2.0000     -10.298573      -280.2384
   9   2.0000     -10.297705      -280.2148
  10   2.0000     -10.292772      -280.0806
  11   2.0000     -10.289652      -279.9957
  12   2.0000     -10.289191      -279.9831
  13   2.0000     -10.287507      -279.9373
  14   2.0000     -10.276800      -279.6459
  15   2.0000     -10.272851      -279.5385
  16   2.0000      -8.085789      -220.0255
  17   2.0000      -8.077610      -219.8029
  18   2.0000      -6.044254      -164.4725
  19   2.0000      -6.040151      -164.3609
  20   2.0000      -6.036709      -164.2672
  21   2.0000      -6.036324      -164.2567
  22   2.0000      -6.032216      -164.1449
  23   2.0000      -6.028191      -164.0354
  24   2.0000      -1.006367       -27.3846
  25   2.0000      -0.980946       -26.6929
  26   2.0000      -0.909465       -24.7478
  27   2.0000      -0.905774       -24.6474
  28   2.0000      -0.874585       -23.7987
  29   2.0000      -0.846883       -23.0449
  30   2.0000      -0.840320       -22.8663
  31   2.0000      -0.816115       -22.2076
  32   2.0000      -0.781838       -21.2749
  33   2.0000      -0.767877       -20.8950
  34   2.0000      -0.715578       -19.4719
  35   2.0000      -0.701571       -19.0907
  36   2.0000      -0.695812       -18.9340
  37   2.0000      -0.657471       -17.8907
  38   2.0000      -0.640706       -17.4345
  39   2.0000      -0.629430       -17.1277
  40   2.0000      -0.592899       -16.1336
  41   2.0000      -0.567221       -15.4349
  42   2.0000      -0.552108       -15.0236
  43   2.0000      -0.551659       -15.0114
  44   2.0000      -0.541763       -14.7421
  45   2.0000      -0.535694       -14.5770
  46   2.0000      -0.519396       -14.1335
  47   2.0000      -0.512293       -13.9402
  48   2.0000      -0.502485       -13.6733
  49   2.0000      -0.498522       -13.5655
  50   2.0000      -0.494379       -13.4527
  51   2.0000      -0.474730       -12.9180
  52   2.0000      -0.467492       -12.7211
  53   2.0000      -0.463598       -12.6151
  54   2.0000      -0.452510       -12.3134
  55   2.0000      -0.448970       -12.2171
  56   2.0000      -0.444088       -12.0843
  57   2.0000      -0.437316       -11.9000
  58   2.0000      -0.434865       -11.8333
  59   2.0000      -0.428321       -11.6552
  60   2.0000      -0.419701       -11.4206
  61   2.0000      -0.411256       -11.1908
  62   2.0000      -0.406318       -11.0565
  63   2.0000      -0.354598        -9.6491
  64   2.0000      -0.330787        -9.0012
  65   2.0000      -0.327516        -8.9122
  66   2.0000      -0.284671        -7.7463
  67   0.0000       0.025511         0.6942
  68   0.0000       0.067764         1.8440
  69   0.0000       0.112363         3.0575
  70   0.0000       0.115279         3.1369
  71   0.0000       0.125937         3.4269

MULLIKEN ATOMIC CHARGES
-----------------------
   0 S :    0.092730
   1 C :   -0.132010
   2 C :   -0.047125
   3 C :    0.028657
   4 C :   -0.125526
   5 H :   -0.011347
   6 C :    0.006063
   7 H :    0.036663
   8 H :    0.006732
   9 C :    0.001909
  10 H :    0.031956
  11 H :    0.027946
  12 C :   -0.119829
  13 H :    0.050759
  14 H :    0.045273
  15 H :    0.041753
  16 S :    0.124942
  17 C :   -0.114004
  18 C :   -0.025975
  19 C :   -0.061780
  20 C :   -0.153662
  21 H :    0.015411
  22 C :    0.066747
  23 H :    0.027695
  24 H :    0.022494
  25 C :    0.001933
  26 H :   -0.011539
  27 H :    0.009923
  28 C :   -0.069432
  29 H :    0.040440
  30 H :    0.035565
  31 H :    0.026281
  32 H :    0.048785
  33 H :    0.081569
Sum of atomic charges:   -0.0000000

LOEWDIN ATOMIC CHARGES
----------------------
   0 S :    0.377073
   1 C :   -0.186953
   2 C :   -0.058513
   3 C :   -0.064392
   4 C :   -0.183906
   5 H :    0.021288
   6 C :   -0.042976
   7 H :    0.036392
   8 H :    0.025751
   9 C :   -0.029249
  10 H :    0.026397
  11 H :    0.017133
  12 C :   -0.082178
  13 H :    0.034504
  14 H :    0.026671
  15 H :    0.033283
  16 S :    0.432441
  17 C :   -0.200060
  18 C :   -0.066889
  19 C :   -0.045687
  20 C :   -0.216199
  21 H :    0.028346
  22 C :   -0.028172
  23 H :    0.034663
  24 H :    0.026456
  25 C :   -0.040104
  26 H :    0.012891
  27 H :    0.022393
  28 C :   -0.067711
  29 H :    0.036193
  30 H :    0.026727
  31 H :    0.017444
  32 H :    0.029948
  33 H :    0.046995

  Mayer bond orders larger than 0.100000
B(  0-S ,  1-C ) :   1.1101 B(  0-S ,  4-C ) :   1.1417 B(  1-C ,  2-C ) :   1.6133
B(  1-C , 32-H ) :   0.9771 B(  2-C ,  3-C ) :   1.2282 B(  2-C ,  6-C ) :   1.0105
B(  3-C ,  4-C ) :   1.5797 B(  3-C ,  5-H ) :   1.0023 B(  4-C , 20-C ) :   1.0635
B(  6-C ,  7-H ) :   0.9338 B(  6-C ,  8-H ) :   0.9359 B(  6-C ,  9-C ) :   1.0725
B(  9-C , 10-H ) :   0.9534 B(  9-C , 11-H ) :   0.9537 B(  9-C , 12-C ) :   1.0676
B( 12-C , 13-H ) :   0.9760 B( 12-C , 14-H ) :   0.9736 B( 12-C , 15-H ) :   0.9763
B( 16-S , 17-C ) :   1.1574 B( 16-S , 20-C ) :   1.1682 B( 17-C , 18-C ) :   1.5979
B( 17-C , 20-C ) :   0.1054 B( 17-C , 33-H ) :   0.9575 B( 18-C , 19-C ) :   1.2644
B( 18-C , 21-H ) :   0.9903 B( 19-C , 20-C ) :   1.5155 B( 19-C , 22-C ) :   1.0356
B( 22-C , 23-H ) :   0.9282 B( 22-C , 24-H ) :   0.9460 B( 22-C , 25-C ) :   1.0752
B( 25-C , 26-H ) :   0.9444 B( 25-C , 27-H ) :   0.9473 B( 25-C , 28-C ) :   1.0755
B( 28-C , 29-H ) :   0.9731 B( 28-C , 30-H ) :   0.9743 B( 28-C , 31-H ) :   0.9780

Dispersion correction           -0.015142826
FINAL SINGLE POINT ENERGY     -1339.859092175393

DIPOLE MOMENT
-------------
                                X             Y             Z
Electronic contribution:    -23.06607      -0.76523     -13.14530
Nuclear contribution   :     23.45563       0.50827      13.67882
                        -----------------------------------------
Total Dipole Moment    :      0.38957      -0.25697       0.53352
                        -----------------------------------------
Magnitude (a.u.)       :      0.70883
Magnitude (Debye)      :      1.80170

Rotational constants in cm-1:     0.017837     0.009591     0.007636
Rotational constants in MHz :   534.737360   287.544575   228.925354

                             ****ORCA TERMINATED NORMALLY****
TOTAL RUN TIME: 0 days 0 hours 0 minutes 22 seconds 306 msec
