                         Program Version 4.2.1 -  RELEASE  -
|  1> ! wB97X-D3 SP def2-SVP
|  2> %pal
|  3> nprocs 24
|  4> end
|  5>
|  6> * xyz 0 1
|  7> S 	 -73.142 	 9.79068 	 -110.663
|  8> C 	 -74.3617 	 8.60994 	 -110.204
|  9> C 	 -73.7861 	 7.40313 	 -109.795
| 10> C 	 -72.3706 	 7.50446 	 -109.944
| 11> C 	 -71.9009 	 8.63205 	 -110.524
| 12> H 	 -71.6494 	 6.72379 	 -109.64
| 13> C 	 -74.3932 	 6.16237 	 -109.137
| 14> H 	 -73.875 	 5.26625 	 -109.512
| 15> H 	 -75.4537 	 6.01018 	 -109.455
| 16> C 	 -74.4972 	 6.05217 	 -107.628
| 17> H 	 -74.6 	 5.04627 	 -107.215
| 18> H 	 -73.4971 	 6.35521 	 -107.197
| 19> C 	 -75.5048 	 7.01946 	 -106.999
| 20> H 	 -76.5291 	 6.62747 	 -107.12
| 21> H 	 -75.3707 	 6.99066 	 -105.952
| 22> H 	 -75.4121 	 8.0917 	 -107.309
| 23> S 	 -69.4166 	 7.7398 	 -111.182
| 24> C 	 -67.955 	 8.72881 	 -111.067
| 25> C 	 -68.3101 	 10.0733 	 -111.064
| 26> C 	 -69.695 	 10.2344 	 -110.83
| 27> C 	 -70.4723 	 9.04245 	 -110.882
| 28> H 	 -67.5656 	 10.8621 	 -111.173
| 29> C 	 -70.2566 	 11.5744 	 -110.439
| 30> H 	 -69.6375 	 12.0652 	 -109.656
| 31> H 	 -71.2021 	 11.3181 	 -110.008
| 32> C 	 -70.5906 	 12.5204 	 -111.606
| 33> H 	 -71.4721 	 13.1856 	 -111.441
| 34> H 	 -70.8168 	 11.7893 	 -112.401
| 35> C 	 -69.4706 	 13.3607 	 -112.201
| 36> H 	 -68.9757 	 13.9839 	 -111.469
| 37> H 	 -69.8402 	 13.9612 	 -113.004
| 38> H 	 -68.7092 	 12.7712 	 -112.66
| 39> H 	 -75.4142 	 8.76255 	 -110.048
| 40> H 	 -66.9888 	 8.36178 	 -111.388
| 41> *
| 42>
| 43>                          ****END OF INPUT****

CARTESIAN COORDINATES (ANGSTROEM)
---------------------------------
  S    -73.142000    9.790680  -110.663000
  C    -74.361700    8.609940  -110.204000
  C    -73.786100    7.403130  -109.795000
  C    -72.370600    7.504460  -109.944000
  C    -71.900900    8.632050  -110.524000
  H    -71.649400    6.723790  -109.640000
  C    -74.393200    6.162370  -109.137000
  H    -73.875000    5.266250  -109.512000
  H    -75.453700    6.010180  -109.455000
  C    -74.497200    6.052170  -107.628000
  H    -74.600000    5.046270  -107.215000
  H    -73.497100    6.355210  -107.197000
  C    -75.504800    7.019460  -106.999000
  H    -76.529100    6.627470  -107.120000
  H    -75.370700    6.990660  -105.952000
  H    -75.412100    8.091700  -107.309000
  S    -69.416600    7.739800  -111.182000
  C    -67.955000    8.728810  -111.067000
  C    -68.310100   10.073300  -111.064000
  C    -69.695000   10.234400  -110.830000
  C    -70.472300    9.042450  -110.882000
  H    -67.565600   10.862100  -111.173000
  C    -70.256600   11.574400  -110.439000
  H    -69.637500   12.065200  -109.656000
  H    -71.202100   11.318100  -110.008000
  C    -70.590600   12.520400  -111.606000
  H    -71.472100   13.185600  -111.441000
  H    -70.816800   11.789300  -112.401000
  C    -69.470600   13.360700  -112.201000
  H    -68.975700   13.983900  -111.469000
  H    -69.840200   13.961200  -113.004000
  H    -68.709200   12.771200  -112.660000
  H    -75.414200    8.762550  -110.048000
  H    -66.988800    8.361780  -111.388000

 Total Charge           Charge          ....    0
 Multiplicity           Mult            ....    1
 Number of Electrons    NEL             ....  134
 Basis Dimension        Dim             ....  322

ORBITAL ENERGIES
----------------

  NO   OCC          E(Eh)            E(eV)
   0   2.0000     -88.971309     -2421.0324
   1   2.0000     -88.966680     -2420.9064
   2   2.0000     -10.336733      -281.2768
   3   2.0000     -10.334622      -281.2194
   4   2.0000     -10.320071      -280.8234
   5   2.0000     -10.318927      -280.7923
   6   2.0000     -10.308524      -280.5092
   7   2.0000     -10.305748      -280.4337
   8   2.0000     -10.299116      -280.2532
   9   2.0000     -10.298658      -280.2407
  10   2.0000     -10.293332      -280.0958
  11   2.0000     -10.291382      -280.0427
  12   2.0000     -10.286212      -279.9021
  13   2.0000     -10.284419      -279.8533
  14   2.0000     -10.277621      -279.6683
  15   2.0000     -10.268251      -279.4133
  16   2.0000      -8.086202      -220.0367
  17   2.0000      -8.081788      -219.9166
  18   2.0000      -6.044803      -164.4874
  19   2.0000      -6.040653      -164.3745
  20   2.0000      -6.040223      -164.3628
  21   2.0000      -6.036885      -164.2720
  22   2.0000      -6.036096      -164.2505
  23   2.0000      -6.032746      -164.1594
  24   2.0000      -1.013682       -27.5837
  25   2.0000      -0.991489       -26.9798
  26   2.0000      -0.913137       -24.8477
  27   2.0000      -0.908543       -24.7227
  28   2.0000      -0.869319       -23.6554
  29   2.0000      -0.854938       -23.2640
  30   2.0000      -0.843971       -22.9656
  31   2.0000      -0.818241       -22.2655
  32   2.0000      -0.787984       -21.4421
  33   2.0000      -0.775525       -21.1031
  34   2.0000      -0.702677       -19.1208
  35   2.0000      -0.696412       -18.9503
  36   2.0000      -0.685739       -18.6599
  37   2.0000      -0.669475       -18.2173
  38   2.0000      -0.635284       -17.2870
  39   2.0000      -0.623817       -16.9749
  40   2.0000      -0.595818       -16.2130
  41   2.0000      -0.576119       -15.6770
  42   2.0000      -0.556456       -15.1419
  43   2.0000      -0.550238       -14.9727
  44   2.0000      -0.545567       -14.8456
  45   2.0000      -0.538065       -14.6415
  46   2.0000      -0.521538       -14.1918
  47   2.0000      -0.511272       -13.9124
  48   2.0000      -0.504742       -13.7347
  49   2.0000      -0.496282       -13.5045
  50   2.0000      -0.487219       -13.2579
  51   2.0000      -0.482281       -13.1235
  52   2.0000      -0.470902       -12.8139
  53   2.0000      -0.468592       -12.7510
  54   2.0000      -0.462104       -12.5745
  55   2.0000      -0.451032       -12.2732
  56   2.0000      -0.443555       -12.0697
  57   2.0000      -0.440170       -11.9776
  58   2.0000      -0.431217       -11.7340
  59   2.0000      -0.421619       -11.4728
  60   2.0000      -0.416727       -11.3397
  61   2.0000      -0.409393       -11.1401
  62   2.0000      -0.406420       -11.0592
  63   2.0000      -0.357898        -9.7389
  64   2.0000      -0.334679        -9.1071
  65   2.0000      -0.331355        -9.0166
  66   2.0000      -0.291577        -7.9342
  67   0.0000       0.023158         0.6302
  68   0.0000       0.072286         1.9670
  69   0.0000       0.102135         2.7792
  70   0.0000       0.123202         3.3525
  71   0.0000       0.130092         3.5400

MULLIKEN ATOMIC CHARGES
-----------------------
   0 S :    0.105013
   1 C :   -0.099761
   2 C :   -0.082783
   3 C :   -0.018814
   4 C :   -0.109040
   5 H :    0.023657
   6 C :    0.063268
   7 H :    0.032908
   8 H :    0.021514
   9 C :   -0.077455
  10 H :    0.035108
  11 H :    0.021270
  12 C :   -0.059970
  13 H :    0.028248
  14 H :    0.021647
  15 H :    0.049143
  16 S :    0.089377
  17 C :   -0.096737
  18 C :   -0.023853
  19 C :   -0.105618
  20 C :   -0.096245
  21 H :    0.032971
  22 C :    0.078766
  23 H :    0.036800
  24 H :    0.003782
  25 C :   -0.090612
  26 H :    0.043159
  27 H :    0.029477
  28 C :   -0.024151
  29 H :    0.022236
  30 H :    0.028029
  31 H :    0.014983
  32 H :    0.041844
  33 H :    0.061837
Sum of atomic charges:    0.0000000

LOEWDIN ATOMIC CHARGES
----------------------
   0 S :    0.436656
   1 C :   -0.192762
   2 C :   -0.057863
   3 C :   -0.076023
   4 C :   -0.202092
   5 H :    0.031713
   6 C :   -0.037901
   7 H :    0.035661
   8 H :    0.032815
   9 C :   -0.047125
  10 H :    0.028845
  11 H :    0.025267
  12 C :   -0.070502
  13 H :    0.024202
  14 H :    0.021482
  15 H :    0.032587
  16 S :    0.430844
  17 C :   -0.184686
  18 C :   -0.065263
  19 C :   -0.066498
  20 C :   -0.207981
  21 H :    0.036409
  22 C :   -0.038881
  23 H :    0.031809
  24 H :    0.013639
  25 C :   -0.045490
  26 H :    0.029069
  27 H :    0.029056
  28 C :   -0.065122
  29 H :    0.019531
  30 H :    0.026354
  31 H :    0.018708
  32 H :    0.026334
  33 H :    0.027207

  Mayer bond orders larger than 0.100000
B(  0-S ,  1-C ) :   1.1443 B(  0-S ,  4-C ) :   1.1519 B(  1-C ,  2-C ) :   1.6102
B(  1-C , 32-H ) :   0.9664 B(  2-C ,  3-C ) :   1.2462 B(  2-C ,  6-C ) :   1.0279
B(  3-C ,  4-C ) :   1.5980 B(  3-C ,  5-H ) :   0.9789 B(  4-C , 20-C ) :   0.9902
B(  6-C ,  7-H ) :   0.9380 B(  6-C ,  8-H ) :   0.9402 B(  6-C ,  9-C ) :   1.0694
B(  9-C , 10-H ) :   0.9542 B(  9-C , 11-H ) :   0.9537 B(  9-C , 12-C ) :   1.0808
B( 12-C , 13-H ) :   0.9731 B( 12-C , 14-H ) :   0.9713 B( 12-C , 15-H ) :   0.9739
B( 16-S , 17-C ) :   1.1720 B( 16-S , 20-C ) :   1.1706 B( 17-C , 18-C ) :   1.5685
B( 17-C , 20-C ) :   0.1029 B( 17-C , 33-H ) :   0.9633 B( 18-C , 19-C ) :   1.2863
B( 18-C , 21-H ) :   0.9865 B( 19-C , 20-C ) :   1.5377 B( 19-C , 22-C ) :   1.0487
B( 22-C , 23-H ) :   0.9416 B( 22-C , 24-H ) :   0.9180 B( 22-C , 25-C ) :   1.0517
B( 25-C , 26-H ) :   0.9601 B( 25-C , 27-H ) :   0.9510 B( 25-C , 28-C ) :   1.0900
B( 28-C , 29-H ) :   0.9755 B( 28-C , 30-H ) :   0.9703 B( 28-C , 31-H ) :   0.9712

Dispersion correction           -0.014346311
FINAL SINGLE POINT ENERGY     -1339.872259388860

DIPOLE MOMENT
-------------
                                X             Y             Z
Electronic contribution:      7.59329      -5.69032      -8.52595
Nuclear contribution   :     -7.60603       5.65689       8.81901
                        -----------------------------------------
Total Dipole Moment    :     -0.01274      -0.03343       0.29305
                        -----------------------------------------
Magnitude (a.u.)       :      0.29523
Magnitude (Debye)      :      0.75041

Rotational constants in cm-1:     0.024388     0.007477     0.006176
Rotational constants in MHz :   731.135057   224.166850   185.143704

                             ****ORCA TERMINATED NORMALLY****
TOTAL RUN TIME: 0 days 0 hours 0 minutes 21 seconds 202 msec
