                         Program Version 4.2.1 -  RELEASE  -
|  1> ! wB97X-D3 SP def2-SVP
|  2> %pal
|  3> nprocs 24
|  4> end
|  5>
|  6> * xyz 0 1
|  7> S 	 -117.713 	 62.1498 	 -38.7981
|  8> C 	 -117.767 	 62.1847 	 -40.5035
|  9> C 	 -117.488 	 60.9173 	 -41.0994
| 10> C 	 -117.052 	 59.9856 	 -40.0737
| 11> C 	 -117.134 	 60.5194 	 -38.7987
| 12> H 	 -116.735 	 58.9557 	 -40.3156
| 13> C 	 -117.529 	 60.6048 	 -42.5595
| 14> H 	 -116.484 	 60.3798 	 -42.8473
| 15> H 	 -117.68 	 61.4488 	 -43.1416
| 16> C 	 -118.563 	 59.5377 	 -43.0097
| 17> H 	 -118.474 	 59.3312 	 -44.0771
| 18> H 	 -118.423 	 58.6051 	 -42.5951
| 19> C 	 -120.045 	 59.9669 	 -42.7954
| 20> H 	 -120.328 	 60.9219 	 -43.2965
| 21> H 	 -120.767 	 59.1321 	 -43.0307
| 22> H 	 -120.241 	 60.124 	 -41.759
| 23> S 	 -115.09 	 59.9557 	 -36.9765
| 24> C 	 -115.438 	 59.0615 	 -35.5673
| 25> C 	 -116.721 	 58.6241 	 -35.6287
| 26> C 	 -117.49 	 59.0823 	 -36.7259
| 27> C 	 -116.746 	 59.8562 	 -37.5467
| 28> H 	 -117.083 	 57.9269 	 -34.8511
| 29> C 	 -118.936 	 58.6351 	 -37.0682
| 30> H 	 -118.953 	 57.759 	 -37.7669
| 31> H 	 -119.523 	 59.3529 	 -37.6512
| 32> C 	 -119.786 	 58.1252 	 -35.878
| 33> H 	 -119.967 	 58.9532 	 -35.137
| 34> H 	 -119.176 	 57.3067 	 -35.4497
| 35> C 	 -121.198 	 57.5941 	 -36.0897
| 36> H 	 -121.287 	 56.9459 	 -36.961
| 37> H 	 -121.889 	 58.4165 	 -36.2415
| 38> H 	 -121.498 	 57.0416 	 -35.1807
| 39> H 	 -118.237 	 63.0338 	 -41.0897
| 40> H 	 -114.742 	 58.77 	 -34.7835
| 41> *
| 42>
| 43>                          ****END OF INPUT****

CARTESIAN COORDINATES (ANGSTROEM)
---------------------------------
  S    -117.713000   62.149800  -38.798100
  C    -117.767000   62.184700  -40.503500
  C    -117.488000   60.917300  -41.099400
  C    -117.052000   59.985600  -40.073700
  C    -117.134000   60.519400  -38.798700
  H    -116.735000   58.955700  -40.315600
  C    -117.529000   60.604800  -42.559500
  H    -116.484000   60.379800  -42.847300
  H    -117.680000   61.448800  -43.141600
  C    -118.563000   59.537700  -43.009700
  H    -118.474000   59.331200  -44.077100
  H    -118.423000   58.605100  -42.595100
  C    -120.045000   59.966900  -42.795400
  H    -120.328000   60.921900  -43.296500
  H    -120.767000   59.132100  -43.030700
  H    -120.241000   60.124000  -41.759000
  S    -115.090000   59.955700  -36.976500
  C    -115.438000   59.061500  -35.567300
  C    -116.721000   58.624100  -35.628700
  C    -117.490000   59.082300  -36.725900
  C    -116.746000   59.856200  -37.546700
  H    -117.083000   57.926900  -34.851100
  C    -118.936000   58.635100  -37.068200
  H    -118.953000   57.759000  -37.766900
  H    -119.523000   59.352900  -37.651200
  C    -119.786000   58.125200  -35.878000
  H    -119.967000   58.953200  -35.137000
  H    -119.176000   57.306700  -35.449700
  C    -121.198000   57.594100  -36.089700
  H    -121.287000   56.945900  -36.961000
  H    -121.889000   58.416500  -36.241500
  H    -121.498000   57.041600  -35.180700
  H    -118.237000   63.033800  -41.089700
  H    -114.742000   58.770000  -34.783500

 Total Charge           Charge          ....    0
 Multiplicity           Mult            ....    1
 Number of Electrons    NEL             ....  134
 Basis Dimension        Dim             ....  322

ORBITAL ENERGIES
----------------

  NO   OCC          E(Eh)            E(eV)
   0   2.0000     -88.968714     -2420.9618
   1   2.0000     -88.961557     -2420.7670
   2   2.0000     -10.326508      -280.9986
   3   2.0000     -10.319509      -280.8081
   4   2.0000     -10.318005      -280.7672
   5   2.0000     -10.311445      -280.5887
   6   2.0000     -10.305420      -280.4247
   7   2.0000     -10.301103      -280.3073
   8   2.0000     -10.299028      -280.2508
   9   2.0000     -10.297380      -280.2060
  10   2.0000     -10.290245      -280.0118
  11   2.0000     -10.288739      -279.9708
  12   2.0000     -10.288611      -279.9673
  13   2.0000     -10.285434      -279.8809
  14   2.0000     -10.280375      -279.7432
  15   2.0000     -10.278806      -279.7005
  16   2.0000      -8.084186      -219.9819
  17   2.0000      -8.077232      -219.7927
  18   2.0000      -6.042526      -164.4255
  19   2.0000      -6.038528      -164.3167
  20   2.0000      -6.035656      -164.2386
  21   2.0000      -6.035159      -164.2250
  22   2.0000      -6.031575      -164.1275
  23   2.0000      -6.028049      -164.0315
  24   2.0000      -1.011477       -27.5237
  25   2.0000      -0.989014       -26.9124
  26   2.0000      -0.910755       -24.7829
  27   2.0000      -0.903339       -24.5811
  28   2.0000      -0.868130       -23.6230
  29   2.0000      -0.848968       -23.1016
  30   2.0000      -0.847770       -23.0690
  31   2.0000      -0.812404       -22.1066
  32   2.0000      -0.784504       -21.3474
  33   2.0000      -0.773070       -21.0363
  34   2.0000      -0.711462       -19.3599
  35   2.0000      -0.692437       -18.8422
  36   2.0000      -0.689275       -18.7561
  37   2.0000      -0.648359       -17.6427
  38   2.0000      -0.639214       -17.3939
  39   2.0000      -0.622472       -16.9383
  40   2.0000      -0.602559       -16.3965
  41   2.0000      -0.566264       -15.4088
  42   2.0000      -0.564684       -15.3658
  43   2.0000      -0.549400       -14.9499
  44   2.0000      -0.540570       -14.7097
  45   2.0000      -0.524725       -14.2785
  46   2.0000      -0.511247       -13.9117
  47   2.0000      -0.508459       -13.8359
  48   2.0000      -0.501716       -13.6524
  49   2.0000      -0.495502       -13.4833
  50   2.0000      -0.485500       -13.2111
  51   2.0000      -0.479247       -13.0410
  52   2.0000      -0.470022       -12.7900
  53   2.0000      -0.468276       -12.7424
  54   2.0000      -0.461436       -12.5563
  55   2.0000      -0.451664       -12.2904
  56   2.0000      -0.447429       -12.1752
  57   2.0000      -0.440399       -11.9839
  58   2.0000      -0.429316       -11.6823
  59   2.0000      -0.421515       -11.4700
  60   2.0000      -0.417995       -11.3742
  61   2.0000      -0.415200       -11.2982
  62   2.0000      -0.413116       -11.2415
  63   2.0000      -0.336375        -9.1532
  64   2.0000      -0.328663        -8.9434
  65   2.0000      -0.321168        -8.7394
  66   2.0000      -0.311611        -8.4794
  67   0.0000       0.050717         1.3801
  68   0.0000       0.056880         1.5478
  69   0.0000       0.114803         3.1239
  70   0.0000       0.128102         3.4858
  71   0.0000       0.128529         3.4974

MULLIKEN ATOMIC CHARGES
-----------------------
   0 S :    0.143384
   1 C :   -0.140155
   2 C :   -0.126088
   3 C :    0.045894
   4 C :   -0.192180
   5 H :    0.025516
   6 C :    0.098248
   7 H :    0.037139
   8 H :   -0.008133
   9 C :   -0.030261
  10 H :    0.026794
  11 H :    0.008216
  12 C :   -0.086495
  13 H :    0.036847
  14 H :    0.040953
  15 H :    0.028648
  16 S :    0.120629
  17 C :   -0.087331
  18 C :   -0.069952
  19 C :    0.034318
  20 C :   -0.194218
  21 H :    0.025058
  22 C :    0.075368
  23 H :    0.032448
  24 H :    0.026608
  25 C :   -0.147523
  26 H :    0.041672
  27 H :    0.036158
  28 C :   -0.030557
  29 H :    0.023550
  30 H :    0.031016
  31 H :    0.042174
  32 H :    0.072723
  33 H :    0.059533
Sum of atomic charges:    0.0000000

LOEWDIN ATOMIC CHARGES
----------------------
   0 S :    0.443139
   1 C :   -0.228499
   2 C :   -0.062480
   3 C :   -0.056305
   4 C :   -0.208653
   5 H :    0.037362
   6 C :   -0.032715
   7 H :    0.040720
   8 H :    0.021018
   9 C :   -0.031600
  10 H :    0.027149
  11 H :    0.011453
  12 C :   -0.071703
  13 H :    0.027273
  14 H :    0.033645
  15 H :    0.019278
  16 S :    0.422414
  17 C :   -0.199853
  18 C :   -0.082423
  19 C :   -0.056182
  20 C :   -0.204180
  21 H :    0.033198
  22 C :   -0.033997
  23 H :    0.036473
  24 H :    0.028415
  25 C :   -0.053495
  26 H :    0.029760
  27 H :    0.022473
  28 C :   -0.065581
  29 H :    0.020034
  30 H :    0.023736
  31 H :    0.034320
  32 H :    0.039329
  33 H :    0.036475

  Mayer bond orders larger than 0.100000
B(  0-S ,  1-C ) :   1.1655 B(  0-S ,  4-C ) :   1.1734 B(  1-C ,  2-C ) :   1.5796
B(  1-C , 32-H ) :   0.9548 B(  2-C ,  3-C ) :   1.2515 B(  2-C ,  6-C ) :   1.0391
B(  3-C ,  4-C ) :   1.5734 B(  3-C ,  5-H ) :   0.9901 B(  4-C , 20-C ) :   0.9964
B(  6-C ,  7-H ) :   0.9352 B(  6-C ,  8-H ) :   0.9346 B(  6-C ,  9-C ) :   1.0611
B(  9-C , 10-H ) :   0.9558 B(  9-C , 11-H ) :   0.9592 B(  9-C , 12-C ) :   1.0686
B( 12-C , 13-H ) :   0.9766 B( 12-C , 14-H ) :   0.9740 B( 12-C , 15-H ) :   0.9771
B( 16-S , 17-C ) :   1.1616 B( 16-S , 20-C ) :   1.1551 B( 17-C , 18-C ) :   1.6126
B( 17-C , 33-H ) :   0.9645 B( 18-C , 19-C ) :   1.2480 B( 18-C , 21-H ) :   0.9808
B( 19-C , 20-C ) :   1.6235 B( 19-C , 22-C ) :   1.0343 B( 22-C , 23-H ) :   0.9328
B( 22-C , 24-H ) :   0.9339 B( 22-C , 25-C ) :   1.0603 B( 25-C , 26-H ) :   0.9605
B( 25-C , 27-H ) :   0.9498 B( 25-C , 28-C ) :   1.0875 B( 28-C , 29-H ) :   0.9726
B( 28-C , 30-H ) :   0.9749 B( 28-C , 31-H ) :   0.9725

Dispersion correction           -0.014116642
FINAL SINGLE POINT ENERGY     -1339.885943237350

DIPOLE MOMENT
-------------
                                X             Y             Z
Electronic contribution:     21.93225      13.44674      10.37849
Nuclear contribution   :    -22.28841     -13.88950     -10.63706
                        -----------------------------------------
Total Dipole Moment    :     -0.35616      -0.44276      -0.25858
                        -----------------------------------------
Magnitude (a.u.)       :      0.62430
Magnitude (Debye)      :      1.58683

Rotational constants in cm-1:     0.016942     0.008755     0.006762
Rotational constants in MHz :   507.894243   262.470934   202.705679

                             ****ORCA TERMINATED NORMALLY****
TOTAL RUN TIME: 0 days 0 hours 0 minutes 19 seconds 908 msec
