                         Program Version 4.2.1 -  RELEASE  -
|  1> ! wB97X-D3 SP def2-SVP
|  2> %pal
|  3> nprocs 24
|  4> end
|  5>
|  6> * xyz 0 1
|  7> S 	 -107.331 	 16.9051 	 -119.998
|  8> C 	 -106.442 	 15.746 	 -118.968
|  9> C 	 -105.562 	 15.0616 	 -119.73
| 10> C 	 -105.464 	 15.505 	 -121.111
| 11> C 	 -106.36 	 16.5028 	 -121.364
| 12> H 	 -104.749 	 15.2323 	 -121.942
| 13> C 	 -104.591 	 14.0245 	 -119.191
| 14> H 	 -104.417 	 13.3106 	 -119.978
| 15> H 	 -104.989 	 13.5389 	 -118.368
| 16> C 	 -103.262 	 14.7355 	 -118.863
| 17> H 	 -103.412 	 15.548 	 -118.242
| 18> H 	 -102.805 	 13.8662 	 -118.285
| 19> C 	 -102.392 	 15.0482 	 -120.086
| 20> H 	 -101.489 	 15.6231 	 -119.745
| 21> H 	 -101.936 	 14.2126 	 -120.652
| 22> H 	 -102.817 	 15.7727 	 -120.846
| 23> S 	 -106.118 	 18.9039 	 -122.465
| 24> C 	 -106.609 	 19.2369 	 -124.123
| 25> C 	 -106.91 	 18.0859 	 -124.768
| 26> C 	 -106.803 	 16.9155 	 -123.967
| 27> C 	 -106.406 	 17.2295 	 -122.644
| 28> H 	 -107.24 	 18.1175 	 -125.758
| 29> C 	 -107.382 	 15.5396 	 -124.366
| 30> H 	 -106.963 	 14.8474 	 -123.71
| 31> H 	 -106.983 	 15.2289 	 -125.301
| 32> C 	 -108.919 	 15.3246 	 -124.391
| 33> H 	 -109.372 	 15.8462 	 -125.206
| 34> H 	 -109.405 	 15.6287 	 -123.516
| 35> C 	 -109.336 	 13.8131 	 -124.491
| 36> H 	 -109.015 	 13.2789 	 -123.566
| 37> H 	 -108.847 	 13.3586 	 -125.398
| 38> H 	 -110.366 	 13.5567 	 -124.525
| 39> H 	 -106.692 	 15.4342 	 -117.938
| 40> H 	 -106.565 	 20.1664 	 -124.63
| 41> *
| 42>
| 43>                          ****END OF INPUT****

CARTESIAN COORDINATES (ANGSTROEM)
---------------------------------
  S    -107.331000   16.905100  -119.998000
  C    -106.442000   15.746000  -118.968000
  C    -105.562000   15.061600  -119.730000
  C    -105.464000   15.505000  -121.111000
  C    -106.360000   16.502800  -121.364000
  H    -104.749000   15.232300  -121.942000
  C    -104.591000   14.024500  -119.191000
  H    -104.417000   13.310600  -119.978000
  H    -104.989000   13.538900  -118.368000
  C    -103.262000   14.735500  -118.863000
  H    -103.412000   15.548000  -118.242000
  H    -102.805000   13.866200  -118.285000
  C    -102.392000   15.048200  -120.086000
  H    -101.489000   15.623100  -119.745000
  H    -101.936000   14.212600  -120.652000
  H    -102.817000   15.772700  -120.846000
  S    -106.118000   18.903900  -122.465000
  C    -106.609000   19.236900  -124.123000
  C    -106.910000   18.085900  -124.768000
  C    -106.803000   16.915500  -123.967000
  C    -106.406000   17.229500  -122.644000
  H    -107.240000   18.117500  -125.758000
  C    -107.382000   15.539600  -124.366000
  H    -106.963000   14.847400  -123.710000
  H    -106.983000   15.228900  -125.301000
  C    -108.919000   15.324600  -124.391000
  H    -109.372000   15.846200  -125.206000
  H    -109.405000   15.628700  -123.516000
  C    -109.336000   13.813100  -124.491000
  H    -109.015000   13.278900  -123.566000
  H    -108.847000   13.358600  -125.398000
  H    -110.366000   13.556700  -124.525000
  H    -106.692000   15.434200  -117.938000
  H    -106.565000   20.166400  -124.630000

 Total Charge           Charge          ....    0
 Multiplicity           Mult            ....    1
 Number of Electrons    NEL             ....  134
 Basis Dimension        Dim             ....  322

ORBITAL ENERGIES
----------------

  NO   OCC          E(Eh)            E(eV)
   0   2.0000     -88.965182     -2420.8657
   1   2.0000     -88.963548     -2420.8212
   2   2.0000     -10.326509      -280.9986
   3   2.0000     -10.326367      -280.9947
   4   2.0000     -10.313302      -280.6392
   5   2.0000     -10.310532      -280.5638
   6   2.0000     -10.306258      -280.4476
   7   2.0000     -10.298418      -280.2342
   8   2.0000     -10.295378      -280.1515
   9   2.0000     -10.288803      -279.9726
  10   2.0000     -10.286148      -279.9003
  11   2.0000     -10.286055      -279.8978
  12   2.0000     -10.284945      -279.8676
  13   2.0000     -10.283300      -279.8228
  14   2.0000     -10.280606      -279.7495
  15   2.0000     -10.279658      -279.7237
  16   2.0000      -8.079759      -219.8614
  17   2.0000      -8.078965      -219.8398
  18   2.0000      -6.038465      -164.3150
  19   2.0000      -6.037403      -164.2861
  20   2.0000      -6.034285      -164.2013
  21   2.0000      -6.033213      -164.1721
  22   2.0000      -6.030288      -164.0925
  23   2.0000      -6.029903      -164.0820
  24   2.0000      -1.009984       -27.4831
  25   2.0000      -0.985883       -26.8273
  26   2.0000      -0.915082       -24.9006
  27   2.0000      -0.900909       -24.5150
  28   2.0000      -0.872063       -23.7301
  29   2.0000      -0.845826       -23.0161
  30   2.0000      -0.838861       -22.8266
  31   2.0000      -0.819176       -22.2909
  32   2.0000      -0.783453       -21.3188
  33   2.0000      -0.770941       -20.9784
  34   2.0000      -0.706200       -19.2167
  35   2.0000      -0.702025       -19.1031
  36   2.0000      -0.697691       -18.9851
  37   2.0000      -0.662518       -18.0280
  38   2.0000      -0.640139       -17.4191
  39   2.0000      -0.614882       -16.7318
  40   2.0000      -0.595857       -16.2141
  41   2.0000      -0.577536       -15.7156
  42   2.0000      -0.563439       -15.3320
  43   2.0000      -0.550357       -14.9760
  44   2.0000      -0.529717       -14.4143
  45   2.0000      -0.520763       -14.1707
  46   2.0000      -0.515958       -14.0399
  47   2.0000      -0.511739       -13.9251
  48   2.0000      -0.505995       -13.7688
  49   2.0000      -0.500958       -13.6318
  50   2.0000      -0.484367       -13.1803
  51   2.0000      -0.479683       -13.0528
  52   2.0000      -0.474246       -12.9049
  53   2.0000      -0.461856       -12.5677
  54   2.0000      -0.455730       -12.4011
  55   2.0000      -0.450265       -12.2523
  56   2.0000      -0.447018       -12.1640
  57   2.0000      -0.436140       -11.8680
  58   2.0000      -0.432668       -11.7735
  59   2.0000      -0.426938       -11.6176
  60   2.0000      -0.422243       -11.4898
  61   2.0000      -0.416199       -11.3254
  62   2.0000      -0.402850       -10.9621
  63   2.0000      -0.344855        -9.3840
  64   2.0000      -0.332627        -9.0513
  65   2.0000      -0.325316        -8.8523
  66   2.0000      -0.299523        -8.1504
  67   0.0000       0.038148         1.0381
  68   0.0000       0.069820         1.8999
  69   0.0000       0.116389         3.1671
  70   0.0000       0.125209         3.4071
  71   0.0000       0.131324         3.5735

MULLIKEN ATOMIC CHARGES
-----------------------
   0 S :    0.114840
   1 C :   -0.136752
   2 C :   -0.106534
   3 C :    0.015188
   4 C :   -0.146899
   5 H :    0.048021
   6 C :    0.115666
   7 H :    0.016812
   8 H :    0.000905
   9 C :   -0.039142
  10 H :    0.021711
  11 H :    0.038944
  12 C :   -0.100725
  13 H :    0.034064
  14 H :    0.039335
  15 H :    0.049929
  16 S :    0.108885
  17 C :   -0.073923
  18 C :   -0.020729
  19 C :   -0.032011
  20 C :   -0.194053
  21 H :   -0.003382
  22 C :    0.128684
  23 H :   -0.011747
  24 H :    0.005627
  25 C :   -0.018936
  26 H :    0.021567
  27 H :    0.019895
  28 C :   -0.095843
  29 H :    0.036705
  30 H :    0.033818
  31 H :    0.030336
  32 H :    0.056980
  33 H :    0.042764
Sum of atomic charges:    0.0000000

LOEWDIN ATOMIC CHARGES
----------------------
   0 S :    0.395799
   1 C :   -0.201186
   2 C :   -0.058119
   3 C :   -0.075084
   4 C :   -0.206244
   5 H :    0.045604
   6 C :   -0.021710
   7 H :    0.028900
   8 H :    0.016248
   9 C :   -0.028269
  10 H :    0.015677
  11 H :    0.035876
  12 C :   -0.083759
  13 H :    0.032901
  14 H :    0.028066
  15 H :    0.032211
  16 S :    0.425016
  17 C :   -0.179047
  18 C :   -0.063893
  19 C :   -0.056567
  20 C :   -0.205596
  21 H :    0.023909
  22 C :   -0.023109
  23 H :    0.020360
  24 H :    0.025143
  25 C :   -0.027434
  26 H :    0.018381
  27 H :    0.018720
  28 C :   -0.070435
  29 H :    0.028825
  30 H :    0.026034
  31 H :    0.020517
  32 H :    0.037750
  33 H :    0.024515

  Mayer bond orders larger than 0.100000
B(  0-S ,  1-C ) :   1.0956 B(  0-S ,  4-C ) :   1.1560 B(  1-C ,  2-C ) :   1.6674
B(  1-C , 32-H ) :   0.9632 B(  2-C ,  3-C ) :   1.1887 B(  2-C ,  6-C ) :   1.0355
B(  3-C ,  4-C ) :   1.6104 B(  3-C ,  5-H ) :   0.9774 B(  4-C , 20-C ) :   1.0018
B(  6-C ,  7-H ) :   0.9358 B(  6-C ,  8-H ) :   0.9391 B(  6-C ,  9-C ) :   1.0587
B(  9-C , 10-H ) :   0.9572 B(  9-C , 11-H ) :   0.9567 B(  9-C , 12-C ) :   1.0839
B( 12-C , 13-H ) :   0.9696 B( 12-C , 14-H ) :   0.9745 B( 12-C , 15-H ) :   0.9659
B( 16-S , 17-C ) :   1.1438 B( 16-S , 20-C ) :   1.1806 B( 17-C , 18-C ) :   1.6125
B( 17-C , 33-H ) :   0.9713 B( 18-C , 19-C ) :   1.2498 B( 18-C , 21-H ) :   0.9999
B( 19-C , 20-C ) :   1.5658 B( 19-C , 22-C ) :   1.0540 B( 22-C , 23-H ) :   0.9270
B( 22-C , 24-H ) :   0.9253 B( 22-C , 25-C ) :   1.0585 B( 25-C , 26-H ) :   0.9573
B( 25-C , 27-H ) :   0.9583 B( 25-C , 28-C ) :   1.0738 B( 28-C , 29-H ) :   0.9766
B( 28-C , 30-H ) :   0.9781 B( 28-C , 31-H ) :   0.9768

Dispersion correction           -0.014411593
FINAL SINGLE POINT ENERGY     -1339.864831834789

DIPOLE MOMENT
-------------
                                X             Y             Z
Electronic contribution:     -4.92019      20.29789       4.57191
Nuclear contribution   :      5.07792     -20.75580      -4.70315
                        -----------------------------------------
Total Dipole Moment    :      0.15773      -0.45791      -0.13124
                        -----------------------------------------
Magnitude (a.u.)       :      0.50178
Magnitude (Debye)      :      1.27542

Rotational constants in cm-1:     0.017825     0.008821     0.007554
Rotational constants in MHz :   534.388147   264.441454   226.472200

                             ****ORCA TERMINATED NORMALLY****
TOTAL RUN TIME: 0 days 0 hours 0 minutes 21 seconds 602 msec
