                         Program Version 4.2.1 -  RELEASE  -
|  1> ! wB97X-D3 SP def2-SVP
|  2> %pal
|  3> nprocs 24
|  4> end
|  5>
|  6> * xyz 0 1
|  7> S 	 -59.4006 	 7.10945 	 -13.7821
|  8> C 	 -58.7996 	 5.48201 	 -13.4128
|  9> C 	 -58.3304 	 4.916 	 -14.5956
| 10> C 	 -58.6007 	 5.71452 	 -15.7635
| 11> C 	 -59.2434 	 6.89157 	 -15.538
| 12> H 	 -58.2428 	 5.43564 	 -16.7512
| 13> C 	 -57.6338 	 3.59568 	 -14.7316
| 14> H 	 -58.0005 	 3.258 	 -15.7166
| 15> H 	 -57.9587 	 2.94985 	 -13.8823
| 16> C 	 -56.0662 	 3.75451 	 -14.6192
| 17> H 	 -55.7334 	 4.3504 	 -15.5
| 18> H 	 -55.7486 	 4.34232 	 -13.7433
| 19> C 	 -55.2567 	 2.49761 	 -14.4657
| 20> H 	 -55.7512 	 1.84055 	 -13.8482
| 21> H 	 -55.2988 	 2.03347 	 -15.4296
| 22> H 	 -54.282 	 2.62894 	 -14.0399
| 23> S 	 -61.1678 	 8.55502 	 -16.5736
| 24> C 	 -60.8697 	 9.52134 	 -17.9718
| 25> C 	 -59.5996 	 9.27722 	 -18.4538
| 26> C 	 -58.916 	 8.35039 	 -17.6781
| 27> C 	 -59.5415 	 7.9669 	 -16.4733
| 28> H 	 -59.2382 	 9.68852 	 -19.363
| 29> C 	 -57.4844 	 7.96577 	 -18.036
| 30> H 	 -57.1708 	 7.36818 	 -17.2521
| 31> H 	 -56.847 	 8.83999 	 -18.0888
| 32> C 	 -57.3165 	 7.27633 	 -19.3767
| 33> H 	 -56.2296 	 7.13046 	 -19.4718
| 34> H 	 -57.6481 	 7.98474 	 -20.1164
| 35> C 	 -58.0819 	 6.02519 	 -19.6073
| 36> H 	 -57.9193 	 5.25412 	 -18.8789
| 37> H 	 -57.9979 	 5.70939 	 -20.6223
| 38> H 	 -59.1079 	 6.3157 	 -19.4883
| 39> H 	 -58.7306 	 5.06181 	 -12.4694
| 40> H 	 -61.6659 	 10.0766 	 -18.4289
| 41> *
| 42>
| 43>                          ****END OF INPUT****

CARTESIAN COORDINATES (ANGSTROEM)
---------------------------------
  S    -59.400600    7.109450  -13.782100
  C    -58.799600    5.482010  -13.412800
  C    -58.330400    4.916000  -14.595600
  C    -58.600700    5.714520  -15.763500
  C    -59.243400    6.891570  -15.538000
  H    -58.242800    5.435640  -16.751200
  C    -57.633800    3.595680  -14.731600
  H    -58.000500    3.258000  -15.716600
  H    -57.958700    2.949850  -13.882300
  C    -56.066200    3.754510  -14.619200
  H    -55.733400    4.350400  -15.500000
  H    -55.748600    4.342320  -13.743300
  C    -55.256700    2.497610  -14.465700
  H    -55.751200    1.840550  -13.848200
  H    -55.298800    2.033470  -15.429600
  H    -54.282000    2.628940  -14.039900
  S    -61.167800    8.555020  -16.573600
  C    -60.869700    9.521340  -17.971800
  C    -59.599600    9.277220  -18.453800
  C    -58.916000    8.350390  -17.678100
  C    -59.541500    7.966900  -16.473300
  H    -59.238200    9.688520  -19.363000
  C    -57.484400    7.965770  -18.036000
  H    -57.170800    7.368180  -17.252100
  H    -56.847000    8.839990  -18.088800
  C    -57.316500    7.276330  -19.376700
  H    -56.229600    7.130460  -19.471800
  H    -57.648100    7.984740  -20.116400
  C    -58.081900    6.025190  -19.607300
  H    -57.919300    5.254120  -18.878900
  H    -57.997900    5.709390  -20.622300
  H    -59.107900    6.315700  -19.488300
  H    -58.730600    5.061810  -12.469400
  H    -61.665900   10.076600  -18.428900

 Total Charge           Charge          ....    0
 Multiplicity           Mult            ....    1
 Number of Electrons    NEL             ....  134
 Basis Dimension        Dim             ....  322

ORBITAL ENERGIES
----------------

  NO   OCC          E(Eh)            E(eV)
   0   2.0000     -88.965376     -2420.8710
   1   2.0000     -88.962580     -2420.7949
   2   2.0000     -10.332200      -281.1535
   3   2.0000     -10.327025      -281.0126
   4   2.0000     -10.319163      -280.7987
   5   2.0000     -10.313587      -280.6470
   6   2.0000     -10.301469      -280.3172
   7   2.0000     -10.301401      -280.3154
   8   2.0000     -10.299928      -280.2753
   9   2.0000     -10.293348      -280.0962
  10   2.0000     -10.291034      -280.0333
  11   2.0000     -10.289656      -279.9958
  12   2.0000     -10.281122      -279.7635
  13   2.0000     -10.278981      -279.7053
  14   2.0000     -10.268771      -279.4275
  15   2.0000     -10.266185      -279.3571
  16   2.0000      -8.080967      -219.8943
  17   2.0000      -8.076663      -219.7772
  18   2.0000      -6.039209      -164.3352
  19   2.0000      -6.035344      -164.2301
  20   2.0000      -6.035209      -164.2264
  21   2.0000      -6.032079      -164.1412
  22   2.0000      -6.031276      -164.1194
  23   2.0000      -6.027243      -164.0096
  24   2.0000      -1.011127       -27.5142
  25   2.0000      -0.986146       -26.8344
  26   2.0000      -0.919718       -25.0268
  27   2.0000      -0.911026       -24.7903
  28   2.0000      -0.874895       -23.8071
  29   2.0000      -0.855201       -23.2712
  30   2.0000      -0.850112       -23.1327
  31   2.0000      -0.820624       -22.3303
  32   2.0000      -0.788448       -21.4548
  33   2.0000      -0.773247       -21.0411
  34   2.0000      -0.708576       -19.2813
  35   2.0000      -0.701826       -19.0977
  36   2.0000      -0.697644       -18.9839
  37   2.0000      -0.659915       -17.9572
  38   2.0000      -0.644077       -17.5262
  39   2.0000      -0.625846       -17.0301
  40   2.0000      -0.604440       -16.4476
  41   2.0000      -0.571102       -15.5405
  42   2.0000      -0.565506       -15.3882
  43   2.0000      -0.556812       -15.1516
  44   2.0000      -0.548714       -14.9313
  45   2.0000      -0.534595       -14.5471
  46   2.0000      -0.532755       -14.4970
  47   2.0000      -0.516151       -14.0452
  48   2.0000      -0.508850       -13.8465
  49   2.0000      -0.506888       -13.7931
  50   2.0000      -0.499257       -13.5855
  51   2.0000      -0.484247       -13.1770
  52   2.0000      -0.470859       -12.8127
  53   2.0000      -0.467059       -12.7093
  54   2.0000      -0.463245       -12.6055
  55   2.0000      -0.447452       -12.1758
  56   2.0000      -0.443230       -12.0609
  57   2.0000      -0.440607       -11.9895
  58   2.0000      -0.431549       -11.7431
  59   2.0000      -0.428973       -11.6730
  60   2.0000      -0.420614       -11.4455
  61   2.0000      -0.408439       -11.1142
  62   2.0000      -0.406594       -11.0640
  63   2.0000      -0.351678        -9.5696
  64   2.0000      -0.331488        -9.0202
  65   2.0000      -0.326437        -8.8828
  66   2.0000      -0.294094        -8.0027
  67   0.0000       0.024805         0.6750
  68   0.0000       0.070040         1.9059
  69   0.0000       0.114523         3.1163
  70   0.0000       0.117840         3.2066
  71   0.0000       0.127165         3.4603

MULLIKEN ATOMIC CHARGES
-----------------------
   0 S :    0.090724
   1 C :   -0.086194
   2 C :   -0.102645
   3 C :    0.033546
   4 C :   -0.117240
   5 H :   -0.028137
   6 C :    0.054524
   7 H :    0.037176
   8 H :    0.028699
   9 C :   -0.114994
  10 H :    0.028591
  11 H :    0.028937
  12 C :    0.031503
  13 H :   -0.002560
  14 H :    0.018605
  15 H :    0.037760
  16 S :    0.108353
  17 C :   -0.085014
  18 C :   -0.010189
  19 C :   -0.095854
  20 C :   -0.118449
  21 H :    0.006872
  22 C :    0.115983
  23 H :   -0.006754
  24 H :    0.031509
  25 C :   -0.088640
  26 H :    0.030271
  27 H :    0.015642
  28 C :   -0.017433
  29 H :    0.038363
  30 H :    0.029765
  31 H :    0.025699
  32 H :    0.021919
  33 H :    0.059660
Sum of atomic charges:   -0.0000000

LOEWDIN ATOMIC CHARGES
----------------------
   0 S :    0.383367
   1 C :   -0.177692
   2 C :   -0.059739
   3 C :   -0.069029
   4 C :   -0.182662
   5 H :    0.025118
   6 C :   -0.031897
   7 H :    0.034003
   8 H :    0.033748
   9 C :   -0.043690
  10 H :    0.023560
  11 H :    0.026184
  12 C :   -0.058802
  13 H :    0.013279
  14 H :    0.024979
  15 H :    0.028527
  16 S :    0.438087
  17 C :   -0.179433
  18 C :   -0.072301
  19 C :   -0.053598
  20 C :   -0.216922
  21 H :    0.027723
  22 C :   -0.024019
  23 H :    0.014936
  24 H :    0.035003
  25 C :   -0.038815
  26 H :    0.024960
  27 H :    0.019671
  28 C :   -0.061012
  29 H :    0.018457
  30 H :    0.027164
  31 H :    0.028026
  32 H :    0.015517
  33 H :    0.027303

  Mayer bond orders larger than 0.100000
B(  0-S ,  1-C ) :   1.1256 B(  0-S ,  4-C ) :   1.1413 B(  1-C ,  2-C ) :   1.5995
B(  1-C , 32-H ) :   0.9840 B(  2-C ,  3-C ) :   1.2460 B(  2-C ,  6-C ) :   1.0267
B(  3-C ,  4-C ) :   1.5854 B(  3-C ,  5-H ) :   0.9855 B(  4-C , 20-C ) :   1.0205
B(  6-C ,  7-H ) :   0.9431 B(  6-C ,  8-H ) :   0.9385 B(  6-C ,  9-C ) :   1.0523
B(  9-C , 10-H ) :   0.9576 B(  9-C , 11-H ) :   0.9618 B(  9-C , 12-C ) :   1.0837
B( 12-C , 13-H ) :   0.9666 B( 12-C , 14-H ) :   0.9702 B( 12-C , 15-H ) :   0.9746
B( 16-S , 17-C ) :   1.2034 B( 16-S , 20-C ) :   1.1616 B( 17-C , 18-C ) :   1.5196
B( 17-C , 20-C ) :   0.1105 B( 17-C , 33-H ) :   0.9729 B( 18-C , 19-C ) :   1.3028
B( 18-C , 21-H ) :   1.0039 B( 19-C , 20-C ) :   1.5254 B( 19-C , 22-C ) :   1.0349
B( 22-C , 23-H ) :   0.9318 B( 22-C , 24-H ) :   0.9378 B( 22-C , 25-C ) :   1.0764
B( 25-C , 26-H ) :   0.9528 B( 25-C , 27-H ) :   0.9525 B( 25-C , 28-C ) :   1.0907
B( 28-C , 29-H ) :   0.9659 B( 28-C , 30-H ) :   0.9655 B( 28-C , 31-H ) :   0.9662

Dispersion correction           -0.014904485
FINAL SINGLE POINT ENERGY     -1339.872282235288

DIPOLE MOMENT
-------------
                                X             Y             Z
Electronic contribution:    -21.61982      18.63448      10.81737
Nuclear contribution   :     22.07199     -18.95680     -11.29900
                        -----------------------------------------
Total Dipole Moment    :      0.45217      -0.32232      -0.48164
                        -----------------------------------------
Magnitude (a.u.)       :      0.73506
Magnitude (Debye)      :      1.86838

Rotational constants in cm-1:     0.019971     0.008976     0.006645
Rotational constants in MHz :   598.725725   269.107809   199.222988

                             ****ORCA TERMINATED NORMALLY****
TOTAL RUN TIME: 0 days 0 hours 0 minutes 22 seconds 429 msec
