                         Program Version 4.2.1 -  RELEASE  -
|  1> ! wB97X-D3 SP def2-SVP
|  2> %pal
|  3> nprocs 24
|  4> end
|  5>
|  6> * xyz 0 1
|  7> S 	 -110.199 	 60.3834 	 -74.7035
|  8> C 	 -109.014 	 61.4086 	 -73.9219
|  9> C 	 -109.667 	 62.3752 	 -73.1669
| 10> C 	 -111.072 	 62.1829 	 -73.0809
| 11> C 	 -111.556 	 61.1799 	 -73.9758
| 12> H 	 -111.808 	 62.6552 	 -72.4467
| 13> C 	 -108.967 	 63.4521 	 -72.3312
| 14> H 	 -108.128 	 62.9535 	 -71.7405
| 15> H 	 -109.718 	 63.7433 	 -71.5539
| 16> C 	 -108.381 	 64.5845 	 -73.2014
| 17> H 	 -107.845 	 65.2894 	 -72.5367
| 18> H 	 -107.547 	 64.1804 	 -73.6794
| 19> C 	 -109.345 	 65.2991 	 -74.1702
| 20> H 	 -108.845 	 66.0898 	 -74.7576
| 21> H 	 -109.86 	 64.6056 	 -74.86
| 22> H 	 -110.163 	 65.7269 	 -73.684
| 23> S 	 -114.133 	 61.7174 	 -73.5671
| 24> C 	 -115.343 	 60.5533 	 -74.0676
| 25> C 	 -114.768 	 59.3732 	 -74.3278
| 26> C 	 -113.353 	 59.3508 	 -74.4251
| 27> C 	 -112.896 	 60.6289 	 -74.0564
| 28> H 	 -115.397 	 58.5224 	 -74.5485
| 29> C 	 -112.509 	 58.1138 	 -74.7901
| 30> H 	 -112.796 	 57.3652 	 -74.0491
| 31> H 	 -111.466 	 58.204 	 -74.6854
| 32> C 	 -112.756 	 57.5984 	 -76.2269
| 33> H 	 -112.045 	 58.118 	 -76.8269
| 34> H 	 -113.624 	 58.0395 	 -76.5789
| 35> C 	 -112.456 	 56.0679 	 -76.4487
| 36> H 	 -112.869 	 55.611 	 -77.3876
| 37> H 	 -112.855 	 55.5125 	 -75.6439
| 38> H 	 -111.382 	 55.8698 	 -76.405
| 39> H 	 -107.923 	 61.419 	 -73.9567
| 40> H 	 -116.447 	 60.6289 	 -74.016
| 41> *
| 42>
| 43>                          ****END OF INPUT****

CARTESIAN COORDINATES (ANGSTROEM)
---------------------------------
  S    -110.199000   60.383400  -74.703500
  C    -109.014000   61.408600  -73.921900
  C    -109.667000   62.375200  -73.166900
  C    -111.072000   62.182900  -73.080900
  C    -111.556000   61.179900  -73.975800
  H    -111.808000   62.655200  -72.446700
  C    -108.967000   63.452100  -72.331200
  H    -108.128000   62.953500  -71.740500
  H    -109.718000   63.743300  -71.553900
  C    -108.381000   64.584500  -73.201400
  H    -107.845000   65.289400  -72.536700
  H    -107.547000   64.180400  -73.679400
  C    -109.345000   65.299100  -74.170200
  H    -108.845000   66.089800  -74.757600
  H    -109.860000   64.605600  -74.860000
  H    -110.163000   65.726900  -73.684000
  S    -114.133000   61.717400  -73.567100
  C    -115.343000   60.553300  -74.067600
  C    -114.768000   59.373200  -74.327800
  C    -113.353000   59.350800  -74.425100
  C    -112.896000   60.628900  -74.056400
  H    -115.397000   58.522400  -74.548500
  C    -112.509000   58.113800  -74.790100
  H    -112.796000   57.365200  -74.049100
  H    -111.466000   58.204000  -74.685400
  C    -112.756000   57.598400  -76.226900
  H    -112.045000   58.118000  -76.826900
  H    -113.624000   58.039500  -76.578900
  C    -112.456000   56.067900  -76.448700
  H    -112.869000   55.611000  -77.387600
  H    -112.855000   55.512500  -75.643900
  H    -111.382000   55.869800  -76.405000
  H    -107.923000   61.419000  -73.956700
  H    -116.447000   60.628900  -74.016000

 Total Charge           Charge          ....    0
 Multiplicity           Mult            ....    1
 Number of Electrons    NEL             ....  134
 Basis Dimension        Dim             ....  322

ORBITAL ENERGIES
----------------

  NO   OCC          E(Eh)            E(eV)
   0   2.0000     -88.969868     -2420.9932
   1   2.0000     -88.967571     -2420.9307
   2   2.0000     -10.331229      -281.1270
   3   2.0000     -10.328568      -281.0546
   4   2.0000     -10.314885      -280.6823
   5   2.0000     -10.313570      -280.6465
   6   2.0000     -10.307519      -280.4819
   7   2.0000     -10.300125      -280.2806
   8   2.0000     -10.299542      -280.2648
   9   2.0000     -10.295367      -280.1512
  10   2.0000     -10.290861      -280.0286
  11   2.0000     -10.289506      -279.9917
  12   2.0000     -10.285045      -279.8703
  13   2.0000     -10.282305      -279.7957
  14   2.0000     -10.278779      -279.6998
  15   2.0000     -10.272906      -279.5400
  16   2.0000      -8.083846      -219.9726
  17   2.0000      -8.082876      -219.9462
  18   2.0000      -6.042460      -164.4237
  19   2.0000      -6.041489      -164.3973
  20   2.0000      -6.038249      -164.3091
  21   2.0000      -6.037475      -164.2880
  22   2.0000      -6.034757      -164.2141
  23   2.0000      -6.033326      -164.1752
  24   2.0000      -1.012430       -27.5496
  25   2.0000      -0.986336       -26.8396
  26   2.0000      -0.908473       -24.7208
  27   2.0000      -0.906433       -24.6653
  28   2.0000      -0.871973       -23.7276
  29   2.0000      -0.851870       -23.1806
  30   2.0000      -0.840268       -22.8648
  31   2.0000      -0.811640       -22.0858
  32   2.0000      -0.784769       -21.3547
  33   2.0000      -0.774259       -21.0687
  34   2.0000      -0.713843       -19.4247
  35   2.0000      -0.707929       -19.2637
  36   2.0000      -0.700066       -19.0498
  37   2.0000      -0.663811       -18.0632
  38   2.0000      -0.631904       -17.1950
  39   2.0000      -0.611434       -16.6380
  40   2.0000      -0.597533       -16.2597
  41   2.0000      -0.569994       -15.5103
  42   2.0000      -0.554839       -15.0979
  43   2.0000      -0.544429       -14.8147
  44   2.0000      -0.538151       -14.6438
  45   2.0000      -0.522047       -14.2056
  46   2.0000      -0.519196       -14.1280
  47   2.0000      -0.509605       -13.8671
  48   2.0000      -0.504365       -13.7245
  49   2.0000      -0.494834       -13.4651
  50   2.0000      -0.489599       -13.3227
  51   2.0000      -0.481296       -13.0967
  52   2.0000      -0.476989       -12.9795
  53   2.0000      -0.466878       -12.7044
  54   2.0000      -0.460922       -12.5423
  55   2.0000      -0.452744       -12.3198
  56   2.0000      -0.442136       -12.0311
  57   2.0000      -0.440199       -11.9784
  58   2.0000      -0.435321       -11.8457
  59   2.0000      -0.429628       -11.6908
  60   2.0000      -0.425057       -11.5664
  61   2.0000      -0.412542       -11.2258
  62   2.0000      -0.402336       -10.9481
  63   2.0000      -0.362521        -9.8647
  64   2.0000      -0.334191        -9.0938
  65   2.0000      -0.329649        -8.9702
  66   2.0000      -0.279152        -7.5961
  67   0.0000       0.017582         0.4784
  68   0.0000       0.085450         2.3252
  69   0.0000       0.105904         2.8818
  70   0.0000       0.126405         3.4397
  71   0.0000       0.136688         3.7195

MULLIKEN ATOMIC CHARGES
-----------------------
   0 S :    0.100114
   1 C :   -0.106891
   2 C :   -0.095634
   3 C :   -0.015632
   4 C :   -0.121475
   5 H :    0.019982
   6 C :    0.016889
   7 H :    0.042547
   8 H :    0.032231
   9 C :   -0.031565
  10 H :    0.022699
  11 H :    0.004136
  12 C :   -0.032971
  13 H :    0.039251
  14 H :    0.044481
  15 H :    0.014442
  16 S :    0.095959
  17 C :   -0.080934
  18 C :   -0.033738
  19 C :   -0.065304
  20 C :   -0.134824
  21 H :    0.013400
  22 C :    0.065463
  23 H :    0.032537
  24 H :    0.018230
  25 C :   -0.027656
  26 H :    0.014166
  27 H :    0.009354
  28 C :   -0.050421
  29 H :    0.047908
  30 H :    0.018728
  31 H :    0.034307
  32 H :    0.047482
  33 H :    0.062739
Sum of atomic charges:   -0.0000000

LOEWDIN ATOMIC CHARGES
----------------------
   0 S :    0.440101
   1 C :   -0.211646
   2 C :   -0.066029
   3 C :   -0.078536
   4 C :   -0.195440
   5 H :    0.022993
   6 C :   -0.035531
   7 H :    0.038992
   8 H :    0.030932
   9 C :   -0.040673
  10 H :    0.027272
  11 H :    0.014381
  12 C :   -0.064326
  13 H :    0.031511
  14 H :    0.033236
  15 H :    0.016764
  16 S :    0.418813
  17 C :   -0.191900
  18 C :   -0.068933
  19 C :   -0.057986
  20 C :   -0.197403
  21 H :    0.030747
  22 C :   -0.029677
  23 H :    0.034139
  24 H :    0.007307
  25 C :   -0.035746
  26 H :    0.024100
  27 H :    0.012927
  28 C :   -0.064102
  29 H :    0.035071
  30 H :    0.015615
  31 H :    0.028497
  32 H :    0.034317
  33 H :    0.040213

  Mayer bond orders larger than 0.100000
B(  0-S ,  1-C ) :   1.1410 B(  0-S ,  4-C ) :   1.1733 B(  1-C ,  2-C ) :   1.5855
B(  1-C ,  4-C ) :   0.1011 B(  1-C , 32-H ) :   0.9656 B(  2-C ,  3-C ) :   1.2814
B(  2-C ,  6-C ) :   1.0084 B(  3-C ,  4-C ) :   1.5131 B(  3-C ,  5-H ) :   0.9801
B(  4-C , 20-C ) :   1.0789 B(  6-C ,  7-H ) :   0.9462 B(  6-C ,  8-H ) :   0.9503
B(  6-C ,  9-C ) :   1.0625 B(  9-C , 10-H ) :   0.9530 B(  9-C , 11-H ) :   0.9537
B(  9-C , 12-C ) :   1.0692 B( 12-C , 13-H ) :   0.9748 B( 12-C , 14-H ) :   0.9704
B( 12-C , 15-H ) :   0.9762 B( 16-S , 17-C ) :   1.1227 B( 16-S , 20-C ) :   1.1546
B( 17-C , 18-C ) :   1.6496 B( 17-C , 33-H ) :   0.9614 B( 18-C , 19-C ) :   1.2388
B( 18-C , 21-H ) :   0.9819 B( 19-C , 20-C ) :   1.5588 B( 19-C , 22-C ) :   1.0342
B( 22-C , 23-H ) :   0.9378 B( 22-C , 24-H ) :   0.9346 B( 22-C , 25-C ) :   1.0372
B( 25-C , 26-H ) :   0.9488 B( 25-C , 27-H ) :   0.9703 B( 25-C , 28-C ) :   1.0552
B( 28-C , 29-H ) :   0.9769 B( 28-C , 30-H ) :   0.9821 B( 28-C , 31-H ) :   0.9772

Dispersion correction           -0.014131671
FINAL SINGLE POINT ENERGY     -1339.866688058783

DIPOLE MOMENT
-------------
                                X             Y             Z
Electronic contribution:     -9.18106       1.57611       4.18216
Nuclear contribution   :      9.25073      -1.75838      -4.04426
                        -----------------------------------------
Total Dipole Moment    :      0.06967      -0.18227       0.13791
                        -----------------------------------------
Magnitude (a.u.)       :      0.23894
Magnitude (Debye)      :      0.60735

Rotational constants in cm-1:     0.022597     0.007940     0.006230
Rotational constants in MHz :   677.439551   238.043681   186.774194

                             ****ORCA TERMINATED NORMALLY****
TOTAL RUN TIME: 0 days 0 hours 0 minutes 21 seconds 329 msec
