                         Program Version 4.2.1 -  RELEASE  -
|  1> ! wB97X-D3 SP def2-SVP
|  2> %pal
|  3> nprocs 24
|  4> end
|  5>
|  6> * xyz 0 1
|  7> S 	 -57.3788 	 5.02049 	 -20.872
|  8> C 	 -57.4324 	 4.11652 	 -19.3744
|  9> C 	 -56.1522 	 3.72697 	 -18.9801
| 10> C 	 -55.1438 	 4.22229 	 -19.9
| 11> C 	 -55.6687 	 4.96391 	 -20.9802
| 12> H 	 -54.123 	 3.98464 	 -19.8738
| 13> C 	 -55.8148 	 2.86859 	 -17.7798
| 14> H 	 -55.6525 	 1.86814 	 -18.16
| 15> H 	 -56.7057 	 2.78457 	 -17.1927
| 16> C 	 -54.5751 	 3.33088 	 -16.9921
| 17> H 	 -53.6778 	 3.51698 	 -17.5365
| 18> H 	 -54.8217 	 4.24357 	 -16.4772
| 19> C 	 -54.2011 	 2.48085 	 -15.7755
| 20> H 	 -55.1574 	 2.2571 	 -15.1909
| 21> H 	 -53.8278 	 1.48063 	 -16.0257
| 22> H 	 -53.3959 	 2.95826 	 -15.1443
| 23> S 	 -53.8048 	 4.25957 	 -22.937
| 24> C 	 -53.6482 	 5.46365 	 -24.2529
| 25> C 	 -54.1482 	 6.7235 	 -23.9306
| 26> C 	 -54.8519 	 6.72265 	 -22.6791
| 27> C 	 -54.912 	 5.43397 	 -22.0918
| 28> H 	 -54.1858 	 7.4704 	 -24.7268
| 29> C 	 -55.7147 	 7.94304 	 -22.2739
| 30> H 	 -56.0523 	 7.70357 	 -21.2317
| 31> H 	 -56.6892 	 7.94743 	 -22.7787
| 32> C 	 -55.1018 	 9.2842 	 -22.238
| 33> H 	 -54.7005 	 9.64036 	 -23.159
| 34> H 	 -54.2179 	 9.32067 	 -21.6097
| 35> C 	 -56.0372 	 10.3007 	 -21.5822
| 36> H 	 -56.3363 	 10.1193 	 -20.58
| 37> H 	 -57.0348 	 10.4101 	 -22.1816
| 38> H 	 -55.5198 	 11.2655 	 -21.4492
| 39> H 	 -58.2879 	 3.88543 	 -18.7874
| 40> H 	 -53.2442 	 5.20262 	 -25.2642
| 41> *
| 42>
| 43>                          ****END OF INPUT****

CARTESIAN COORDINATES (ANGSTROEM)
---------------------------------
  S    -57.378800    5.020490  -20.872000
  C    -57.432400    4.116520  -19.374400
  C    -56.152200    3.726970  -18.980100
  C    -55.143800    4.222290  -19.900000
  C    -55.668700    4.963910  -20.980200
  H    -54.123000    3.984640  -19.873800
  C    -55.814800    2.868590  -17.779800
  H    -55.652500    1.868140  -18.160000
  H    -56.705700    2.784570  -17.192700
  C    -54.575100    3.330880  -16.992100
  H    -53.677800    3.516980  -17.536500
  H    -54.821700    4.243570  -16.477200
  C    -54.201100    2.480850  -15.775500
  H    -55.157400    2.257100  -15.190900
  H    -53.827800    1.480630  -16.025700
  H    -53.395900    2.958260  -15.144300
  S    -53.804800    4.259570  -22.937000
  C    -53.648200    5.463650  -24.252900
  C    -54.148200    6.723500  -23.930600
  C    -54.851900    6.722650  -22.679100
  C    -54.912000    5.433970  -22.091800
  H    -54.185800    7.470400  -24.726800
  C    -55.714700    7.943040  -22.273900
  H    -56.052300    7.703570  -21.231700
  H    -56.689200    7.947430  -22.778700
  C    -55.101800    9.284200  -22.238000
  H    -54.700500    9.640360  -23.159000
  H    -54.217900    9.320670  -21.609700
  C    -56.037200   10.300700  -21.582200
  H    -56.336300   10.119300  -20.580000
  H    -57.034800   10.410100  -22.181600
  H    -55.519800   11.265500  -21.449200
  H    -58.287900    3.885430  -18.787400
  H    -53.244200    5.202620  -25.264200

 Total Charge           Charge          ....    0
 Multiplicity           Mult            ....    1
 Number of Electrons    NEL             ....  134
 Basis Dimension        Dim             ....  322

ORBITAL ENERGIES
----------------

  NO   OCC          E(Eh)            E(eV)
   0   2.0000     -88.968718     -2420.9619
   1   2.0000     -88.968669     -2420.9606
   2   2.0000     -10.332332      -281.1570
   3   2.0000     -10.326505      -280.9985
   4   2.0000     -10.326235      -280.9911
   5   2.0000     -10.312371      -280.6139
   6   2.0000     -10.311614      -280.5933
   7   2.0000     -10.303448      -280.3711
   8   2.0000     -10.299128      -280.2535
   9   2.0000     -10.293423      -280.0983
  10   2.0000     -10.292317      -280.0682
  11   2.0000     -10.290422      -280.0166
  12   2.0000     -10.286607      -279.9128
  13   2.0000     -10.283904      -279.8393
  14   2.0000     -10.282227      -279.7936
  15   2.0000     -10.280871      -279.7567
  16   2.0000      -8.083312      -219.9581
  17   2.0000      -8.081731      -219.9151
  18   2.0000      -6.041862      -164.4074
  19   2.0000      -6.040284      -164.3645
  20   2.0000      -6.037670      -164.2934
  21   2.0000      -6.036751      -164.2683
  22   2.0000      -6.034197      -164.1988
  23   2.0000      -6.032275      -164.1465
  24   2.0000      -1.001651       -27.2563
  25   2.0000      -0.974141       -26.5077
  26   2.0000      -0.912974       -24.8433
  27   2.0000      -0.912197       -24.8221
  28   2.0000      -0.870172       -23.6786
  29   2.0000      -0.850272       -23.1371
  30   2.0000      -0.843575       -22.9548
  31   2.0000      -0.808970       -22.0132
  32   2.0000      -0.782486       -21.2925
  33   2.0000      -0.768230       -20.9046
  34   2.0000      -0.710972       -19.3465
  35   2.0000      -0.702140       -19.1062
  36   2.0000      -0.691952       -18.8290
  37   2.0000      -0.658621       -17.9220
  38   2.0000      -0.637729       -17.3535
  39   2.0000      -0.615475       -16.7479
  40   2.0000      -0.597132       -16.2488
  41   2.0000      -0.567825       -15.4513
  42   2.0000      -0.565318       -15.3831
  43   2.0000      -0.561375       -15.2758
  44   2.0000      -0.530129       -14.4255
  45   2.0000      -0.527128       -14.3439
  46   2.0000      -0.518320       -14.1042
  47   2.0000      -0.510503       -13.8915
  48   2.0000      -0.502725       -13.6799
  49   2.0000      -0.497743       -13.5443
  50   2.0000      -0.488322       -13.2879
  51   2.0000      -0.477231       -12.9861
  52   2.0000      -0.468055       -12.7364
  53   2.0000      -0.461440       -12.5564
  54   2.0000      -0.454834       -12.3767
  55   2.0000      -0.450737       -12.2652
  56   2.0000      -0.448359       -12.2005
  57   2.0000      -0.439169       -11.9504
  58   2.0000      -0.434361       -11.8196
  59   2.0000      -0.422359       -11.4930
  60   2.0000      -0.418649       -11.3920
  61   2.0000      -0.415405       -11.3037
  62   2.0000      -0.408706       -11.1214
  63   2.0000      -0.341975        -9.3056
  64   2.0000      -0.332982        -9.0609
  65   2.0000      -0.327052        -8.8995
  66   2.0000      -0.287655        -7.8275
  67   0.0000       0.024791         0.6746
  68   0.0000       0.059704         1.6246
  69   0.0000       0.098383         2.6771
  70   0.0000       0.122304         3.3280
  71   0.0000       0.128874         3.5068

MULLIKEN ATOMIC CHARGES
-----------------------
   0 S :    0.126419
   1 C :   -0.119250
   2 C :   -0.096774
   3 C :    0.020306
   4 C :   -0.156878
   5 H :   -0.008702
   6 C :    0.116907
   7 H :    0.036471
   8 H :    0.005477
   9 C :   -0.073182
  10 H :    0.034202
  11 H :    0.029174
  12 C :   -0.093010
  13 H :    0.034011
  14 H :    0.025166
  15 H :    0.050188
  16 S :    0.100056
  17 C :   -0.121053
  18 C :   -0.025979
  19 C :   -0.003699
  20 C :   -0.147258
  21 H :    0.034973
  22 C :    0.032283
  23 H :    0.021245
  24 H :    0.041504
  25 C :   -0.032398
  26 H :    0.019787
  27 H :    0.021378
  28 C :   -0.077506
  29 H :    0.024668
  30 H :    0.039931
  31 H :    0.032601
  32 H :    0.033696
  33 H :    0.075244
Sum of atomic charges:   -0.0000000

LOEWDIN ATOMIC CHARGES
----------------------
   0 S :    0.433320
   1 C :   -0.206460
   2 C :   -0.053053
   3 C :   -0.062721
   4 C :   -0.210435
   5 H :    0.016598
   6 C :   -0.026078
   7 H :    0.034894
   8 H :    0.027029
   9 C :   -0.042518
  10 H :    0.021892
  11 H :    0.028552
  12 C :   -0.073756
  13 H :    0.029929
  14 H :    0.016880
  15 H :    0.033885
  16 S :    0.360507
  17 C :   -0.170939
  18 C :   -0.073677
  19 C :   -0.044356
  20 C :   -0.177894
  21 H :    0.036338
  22 C :   -0.041898
  23 H :    0.032507
  24 H :    0.034554
  25 C :   -0.044878
  26 H :    0.018545
  27 H :    0.029397
  28 C :   -0.067262
  29 H :    0.019003
  30 H :    0.032606
  31 H :    0.029187
  32 H :    0.023186
  33 H :    0.037117

  Mayer bond orders larger than 0.100000
B(  0-S ,  1-C ) :   1.1381 B(  0-S ,  4-C ) :   1.1633 B(  1-C ,  2-C ) :   1.5945
B(  1-C , 32-H ) :   0.9715 B(  2-C ,  3-C ) :   1.2507 B(  2-C ,  6-C ) :   1.0301
B(  3-C ,  4-C ) :   1.5293 B(  3-C ,  5-H ) :   1.0026 B(  4-C , 20-C ) :   1.0845
B(  6-C ,  7-H ) :   0.9311 B(  6-C ,  8-H ) :   0.9349 B(  6-C ,  9-C ) :   1.0594
B(  9-C , 10-H ) :   0.9560 B(  9-C , 11-H ) :   0.9559 B(  9-C , 12-C ) :   1.0837
B( 12-C , 13-H ) :   0.9726 B( 12-C , 14-H ) :   0.9751 B( 12-C , 15-H ) :   0.9752
B( 16-S , 17-C ) :   1.1387 B( 16-S , 20-C ) :   1.1037 B( 17-C , 18-C ) :   1.6511
B( 17-C , 33-H ) :   0.9589 B( 18-C , 19-C ) :   1.1981 B( 18-C , 21-H ) :   0.9832
B( 19-C , 20-C ) :   1.5999 B( 19-C , 22-C ) :   1.0379 B( 22-C , 23-H ) :   0.9268
B( 22-C , 24-H ) :   0.9395 B( 22-C , 25-C ) :   1.0692 B( 25-C , 26-H ) :   0.9508
B( 25-C , 27-H ) :   0.9467 B( 25-C , 28-C ) :   1.0900 B( 28-C , 29-H ) :   0.9741
B( 28-C , 30-H ) :   0.9728 B( 28-C , 31-H ) :   0.9725

Dispersion correction           -0.013419693
FINAL SINGLE POINT ENERGY     -1339.866970460967

DIPOLE MOMENT
-------------
                                X             Y             Z
Electronic contribution:     -2.14274      -9.29220     -17.56279
Nuclear contribution   :      2.17048       9.43061      17.73487
                        -----------------------------------------
Total Dipole Moment    :      0.02774       0.13841       0.17208
                        -----------------------------------------
Magnitude (a.u.)       :      0.22257
Magnitude (Debye)      :      0.56574

Rotational constants in cm-1:     0.018428     0.007427     0.006428
Rotational constants in MHz :   552.444743   222.644500   192.717313

                             ****ORCA TERMINATED NORMALLY****
TOTAL RUN TIME: 0 days 0 hours 0 minutes 19 seconds 623 msec
