                         Program Version 4.2.1 -  RELEASE  -
|  1> ! wB97X-D3 SP def2-SVP
|  2> %pal
|  3> nprocs 24
|  4> end
|  5>
|  6> * xyz 0 1
|  7> S 	 -62.6456 	 1.74501 	 -16.2715
|  8> C 	 -62.681 	 2.34614 	 -14.6824
|  9> C 	 -61.6979 	 3.34058 	 -14.5602
| 10> C 	 -61.0762 	 3.70737 	 -15.8142
| 11> C 	 -61.3138 	 2.77639 	 -16.8069
| 12> H 	 -60.3759 	 4.46674 	 -16.015
| 13> C 	 -61.4616 	 3.98964 	 -13.2527
| 14> H 	 -60.8746 	 4.91044 	 -13.4887
| 15> H 	 -60.8569 	 3.46979 	 -12.5816
| 16> C 	 -62.6871 	 4.46961 	 -12.5186
| 17> H 	 -63.4388 	 3.65242 	 -12.3494
| 18> H 	 -62.4354 	 4.75856 	 -11.4884
| 19> C 	 -63.2488 	 5.74602 	 -13.1595
| 20> H 	 -63.3787 	 5.53826 	 -14.2361
| 21> H 	 -64.255 	 5.99026 	 -12.8165
| 22> H 	 -62.6475 	 6.60932 	 -13.0121
| 23> S 	 -60.1463 	 4.04929 	 -18.9399
| 24> C 	 -58.9681 	 3.11629 	 -19.8279
| 25> C 	 -59.1956 	 1.77149 	 -19.7175
| 26> C 	 -60.16 	 1.40141 	 -18.7064
| 27> C 	 -60.6362 	 2.52587 	 -18.1003
| 28> H 	 -58.477 	 1.06114 	 -20.241
| 29> C 	 -60.4209 	 -0.0518605 	 -18.3018
| 30> H 	 -60.4607 	 -0.622018 	 -19.2297
| 31> H 	 -61.4655 	 -0.00825965 	 -17.8742
| 32> C 	 -59.4526 	 -0.707284 	 -17.2609
| 33> H 	 -59.6964 	 -1.79438 	 -17.079
| 34> H 	 -59.4442 	 -0.0736556 	 -16.3609
| 35> C 	 -57.9837 	 -0.773842 	 -17.7868
| 36> H 	 -57.5562 	 0.215373 	 -17.8676
| 37> H 	 -57.9767 	 -1.27179 	 -18.7633
| 38> H 	 -57.2439 	 -1.07386 	 -17.0454
| 39> H 	 -63.2538 	 1.94585 	 -13.8468
| 40> H 	 -58.3895 	 3.38955 	 -20.7004
| 41> *
| 42>
| 43>                          ****END OF INPUT****

CARTESIAN COORDINATES (ANGSTROEM)
---------------------------------
  S    -62.645600    1.745010  -16.271500
  C    -62.681000    2.346140  -14.682400
  C    -61.697900    3.340580  -14.560200
  C    -61.076200    3.707370  -15.814200
  C    -61.313800    2.776390  -16.806900
  H    -60.375900    4.466740  -16.015000
  C    -61.461600    3.989640  -13.252700
  H    -60.874600    4.910440  -13.488700
  H    -60.856900    3.469790  -12.581600
  C    -62.687100    4.469610  -12.518600
  H    -63.438800    3.652420  -12.349400
  H    -62.435400    4.758560  -11.488400
  C    -63.248800    5.746020  -13.159500
  H    -63.378700    5.538260  -14.236100
  H    -64.255000    5.990260  -12.816500
  H    -62.647500    6.609320  -13.012100
  S    -60.146300    4.049290  -18.939900
  C    -58.968100    3.116290  -19.827900
  C    -59.195600    1.771490  -19.717500
  C    -60.160000    1.401410  -18.706400
  C    -60.636200    2.525870  -18.100300
  H    -58.477000    1.061140  -20.241000
  C    -60.420900   -0.051860  -18.301800
  H    -60.460700   -0.622018  -19.229700
  H    -61.465500   -0.008260  -17.874200
  C    -59.452600   -0.707284  -17.260900
  H    -59.696400   -1.794380  -17.079000
  H    -59.444200   -0.073656  -16.360900
  C    -57.983700   -0.773842  -17.786800
  H    -57.556200    0.215373  -17.867600
  H    -57.976700   -1.271790  -18.763300
  H    -57.243900   -1.073860  -17.045400
  H    -63.253800    1.945850  -13.846800
  H    -58.389500    3.389550  -20.700400

 Total Charge           Charge          ....    0
 Multiplicity           Mult            ....    1
 Number of Electrons    NEL             ....  134
 Basis Dimension        Dim             ....  322

ORBITAL ENERGIES
----------------

  NO   OCC          E(Eh)            E(eV)
   0   2.0000     -88.967334     -2420.9242
   1   2.0000     -88.964579     -2420.8493
   2   2.0000     -10.335339      -281.2389
   3   2.0000     -10.334901      -281.2270
   4   2.0000     -10.314529      -280.6726
   5   2.0000     -10.312937      -280.6293
   6   2.0000     -10.308433      -280.5067
   7   2.0000     -10.303041      -280.3600
   8   2.0000     -10.299463      -280.2626
   9   2.0000     -10.299185      -280.2551
  10   2.0000     -10.296734      -280.1884
  11   2.0000     -10.296143      -280.1723
  12   2.0000     -10.287674      -279.9418
  13   2.0000     -10.283333      -279.8237
  14   2.0000     -10.275466      -279.6097
  15   2.0000     -10.271705      -279.5073
  16   2.0000      -8.081343      -219.9045
  17   2.0000      -8.079604      -219.8572
  18   2.0000      -6.039976      -164.3561
  19   2.0000      -6.038082      -164.3046
  20   2.0000      -6.036193      -164.2532
  21   2.0000      -6.033871      -164.1900
  22   2.0000      -6.031771      -164.1328
  23   2.0000      -6.030574      -164.1003
  24   2.0000      -1.007560       -27.4171
  25   2.0000      -0.986654       -26.8482
  26   2.0000      -0.917520       -24.9670
  27   2.0000      -0.902311       -24.5531
  28   2.0000      -0.868925       -23.6447
  29   2.0000      -0.850417       -23.1410
  30   2.0000      -0.843146       -22.9432
  31   2.0000      -0.816144       -22.2084
  32   2.0000      -0.783931       -21.3318
  33   2.0000      -0.771982       -21.0067
  34   2.0000      -0.706742       -19.2314
  35   2.0000      -0.704482       -19.1699
  36   2.0000      -0.688064       -18.7232
  37   2.0000      -0.661679       -18.0052
  38   2.0000      -0.642890       -17.4939
  39   2.0000      -0.607901       -16.5418
  40   2.0000      -0.588035       -16.0013
  41   2.0000      -0.576953       -15.6997
  42   2.0000      -0.560625       -15.2554
  43   2.0000      -0.558122       -15.1873
  44   2.0000      -0.537070       -14.6144
  45   2.0000      -0.536776       -14.6064
  46   2.0000      -0.520885       -14.1740
  47   2.0000      -0.516775       -14.0622
  48   2.0000      -0.506943       -13.7946
  49   2.0000      -0.490156       -13.3378
  50   2.0000      -0.483919       -13.1681
  51   2.0000      -0.475755       -12.9460
  52   2.0000      -0.473496       -12.8845
  53   2.0000      -0.468216       -12.7408
  54   2.0000      -0.457077       -12.4377
  55   2.0000      -0.447420       -12.1749
  56   2.0000      -0.438823       -11.9410
  57   2.0000      -0.433707       -11.8018
  58   2.0000      -0.427975       -11.6458
  59   2.0000      -0.424710       -11.5569
  60   2.0000      -0.419998       -11.4287
  61   2.0000      -0.412599       -11.2274
  62   2.0000      -0.405231       -11.0269
  63   2.0000      -0.355100        -9.6628
  64   2.0000      -0.333658        -9.0793
  65   2.0000      -0.326991        -8.8979
  66   2.0000      -0.289204        -7.8696
  67   0.0000       0.020322         0.5530
  68   0.0000       0.078940         2.1481
  69   0.0000       0.094496         2.5714
  70   0.0000       0.122253         3.3267
  71   0.0000       0.128554         3.4981

MULLIKEN ATOMIC CHARGES
-----------------------
   0 S :    0.101372
   1 C :   -0.106313
   2 C :   -0.125281
   3 C :    0.061439
   4 C :   -0.145757
   5 H :    0.000277
   6 C :    0.087350
   7 H :    0.015563
   8 H :    0.024941
   9 C :   -0.096374
  10 H :    0.029477
  11 H :    0.020998
  12 C :   -0.044653
  13 H :    0.037091
  14 H :    0.025613
  15 H :    0.029855
  16 S :    0.094878
  17 C :   -0.072582
  18 C :   -0.089078
  19 C :   -0.044819
  20 C :   -0.150468
  21 H :    0.046036
  22 C :    0.056577
  23 H :    0.030462
  24 H :    0.039488
  25 C :   -0.054077
  26 H :    0.051396
  27 H :    0.041583
  28 C :   -0.080606
  29 H :    0.025567
  30 H :    0.039187
  31 H :    0.032766
  32 H :    0.061075
  33 H :    0.057014
Sum of atomic charges:   -0.0000000

LOEWDIN ATOMIC CHARGES
----------------------
   0 S :    0.428683
   1 C :   -0.215937
   2 C :   -0.063668
   3 C :   -0.061446
   4 C :   -0.185587
   5 H :    0.021711
   6 C :   -0.036602
   7 H :    0.035888
   8 H :    0.025199
   9 C :   -0.043504
  10 H :    0.023025
  11 H :    0.023056
  12 C :   -0.064346
  13 H :    0.028668
  14 H :    0.024819
  15 H :    0.020555
  16 S :    0.379453
  17 C :   -0.194466
  18 C :   -0.074988
  19 C :   -0.057169
  20 C :   -0.168162
  21 H :    0.042038
  22 C :   -0.037537
  23 H :    0.031275
  24 H :    0.026891
  25 C :   -0.035130
  26 H :    0.033786
  27 H :    0.029764
  28 C :   -0.081530
  29 H :    0.023830
  30 H :    0.024267
  31 H :    0.030151
  32 H :    0.033686
  33 H :    0.033324

  Mayer bond orders larger than 0.100000
B(  0-S ,  1-C ) :   1.1522 B(  0-S ,  4-C ) :   1.1602 B(  1-C ,  2-C ) :   1.5752
B(  1-C , 32-H ) :   0.9705 B(  2-C ,  3-C ) :   1.2469 B(  2-C ,  6-C ) :   1.0308
B(  3-C ,  4-C ) :   1.5663 B(  3-C ,  5-H ) :   0.9916 B(  4-C , 20-C ) :   1.0198
B(  6-C ,  7-H ) :   0.9407 B(  6-C ,  8-H ) :   0.9293 B(  6-C ,  9-C ) :   1.0847
B(  9-C , 10-H ) :   0.9532 B(  9-C , 11-H ) :   0.9513 B(  9-C , 12-C ) :   1.0733
B( 12-C , 13-H ) :   0.9790 B( 12-C , 14-H ) :   0.9727 B( 12-C , 15-H ) :   0.9742
B( 16-S , 17-C ) :   1.1221 B( 16-S , 20-C ) :   1.1210 B( 17-C , 18-C ) :   1.6819
B( 17-C , 33-H ) :   0.9555 B( 18-C , 19-C ) :   1.2034 B( 18-C , 21-H ) :   0.9688
B( 19-C , 20-C ) :   1.6412 B( 19-C , 22-C ) :   1.0236 B( 22-C , 23-H ) :   0.9340
B( 22-C , 24-H ) :   0.9303 B( 22-C , 25-C ) :   1.0619 B( 25-C , 26-H ) :   0.9585
B( 25-C , 27-H ) :   0.9541 B( 25-C , 28-C ) :   1.0786 B( 28-C , 29-H ) :   0.9664
B( 28-C , 30-H ) :   0.9760 B( 28-C , 31-H ) :   0.9690

Dispersion correction           -0.014864630
FINAL SINGLE POINT ENERGY     -1339.861647118986

DIPOLE MOMENT
-------------
                                X             Y             Z
Electronic contribution:     -3.96986       3.79430     -14.55655
Nuclear contribution   :      4.31951      -3.99019      14.87052
                        -----------------------------------------
Total Dipole Moment    :      0.34965      -0.19589       0.31397
                        -----------------------------------------
Magnitude (a.u.)       :      0.50912
Magnitude (Debye)      :      1.29409

Rotational constants in cm-1:     0.023065     0.007936     0.006747
Rotational constants in MHz :   691.463633   237.924768   202.266388

                             ****ORCA TERMINATED NORMALLY****
TOTAL RUN TIME: 0 days 0 hours 0 minutes 22 seconds 772 msec
