                         Program Version 4.2.1 -  RELEASE  -
|  1> ! wB97X-D3 SP def2-SVP
|  2> %pal
|  3> nprocs 24
|  4> end
|  5>
|  6> * xyz 0 1
|  7> S 	 -31.8169 	 18.3667 	 4.14028
|  8> C 	 -32.5362 	 16.8639 	 3.76507
|  9> C 	 -32.2886 	 15.9168 	 4.70367
| 10> C 	 -31.8416 	 16.4842 	 5.96252
| 11> C 	 -31.5457 	 17.8363 	 5.81281
| 12> H 	 -31.6248 	 15.9598 	 6.89793
| 13> C 	 -32.528 	 14.4137 	 4.62045
| 14> H 	 -33.2437 	 14.0696 	 3.9231
| 15> H 	 -32.9872 	 14.1952 	 5.60467
| 16> C 	 -31.2727 	 13.5074 	 4.35026
| 17> H 	 -30.8701 	 13.7389 	 3.38731
| 18> H 	 -30.6677 	 13.6663 	 5.25682
| 19> C 	 -31.5948 	 12.0381 	 4.38033
| 20> H 	 -32.3512 	 11.8303 	 5.16318
| 21> H 	 -31.9937 	 11.7531 	 3.42391
| 22> H 	 -30.6561 	 11.4734 	 4.51204
| 23> S 	 -31.8656 	 20.1997 	 7.30626
| 24> C 	 -30.687 	 20.4867 	 8.58052
| 25> C 	 -29.7463 	 19.4871 	 8.59505
| 26> C 	 -29.9384 	 18.494 	 7.59689
| 27> C 	 -31.03 	 18.7468 	 6.78558
| 28> H 	 -29.0821 	 19.5521 	 9.40697
| 29> C 	 -28.9588 	 17.3819 	 7.35385
| 30> H 	 -27.9956 	 17.8747 	 6.97316
| 31> H 	 -29.2387 	 16.6223 	 6.65467
| 32> C 	 -28.5626 	 16.5639 	 8.54666
| 33> H 	 -29.3716 	 16.1488 	 9.07178
| 34> H 	 -27.9738 	 17.1912 	 9.25098
| 35> C 	 -27.4215 	 15.4665 	 8.4451
| 36> H 	 -27.2569 	 14.9323 	 9.41597
| 37> H 	 -26.4743 	 15.95 	 8.23225
| 38> H 	 -27.5702 	 14.8135 	 7.60677
| 39> H 	 -32.8111 	 16.6351 	 2.77421
| 40> H 	 -30.6652 	 21.3231 	 9.19788
| 41> *
| 42>
| 43>                          ****END OF INPUT****

CARTESIAN COORDINATES (ANGSTROEM)
---------------------------------
  S    -31.816900   18.366700    4.140280
  C    -32.536200   16.863900    3.765070
  C    -32.288600   15.916800    4.703670
  C    -31.841600   16.484200    5.962520
  C    -31.545700   17.836300    5.812810
  H    -31.624800   15.959800    6.897930
  C    -32.528000   14.413700    4.620450
  H    -33.243700   14.069600    3.923100
  H    -32.987200   14.195200    5.604670
  C    -31.272700   13.507400    4.350260
  H    -30.870100   13.738900    3.387310
  H    -30.667700   13.666300    5.256820
  C    -31.594800   12.038100    4.380330
  H    -32.351200   11.830300    5.163180
  H    -31.993700   11.753100    3.423910
  H    -30.656100   11.473400    4.512040
  S    -31.865600   20.199700    7.306260
  C    -30.687000   20.486700    8.580520
  C    -29.746300   19.487100    8.595050
  C    -29.938400   18.494000    7.596890
  C    -31.030000   18.746800    6.785580
  H    -29.082100   19.552100    9.406970
  C    -28.958800   17.381900    7.353850
  H    -27.995600   17.874700    6.973160
  H    -29.238700   16.622300    6.654670
  C    -28.562600   16.563900    8.546660
  H    -29.371600   16.148800    9.071780
  H    -27.973800   17.191200    9.250980
  C    -27.421500   15.466500    8.445100
  H    -27.256900   14.932300    9.415970
  H    -26.474300   15.950000    8.232250
  H    -27.570200   14.813500    7.606770
  H    -32.811100   16.635100    2.774210
  H    -30.665200   21.323100    9.197880

 Total Charge           Charge          ....    0
 Multiplicity           Mult            ....    1
 Number of Electrons    NEL             ....  134
 Basis Dimension        Dim             ....  322

ORBITAL ENERGIES
----------------

  NO   OCC          E(Eh)            E(eV)
   0   2.0000     -88.964872     -2420.8572
   1   2.0000     -88.962390     -2420.7897
   2   2.0000     -10.327921      -281.0370
   3   2.0000     -10.321989      -280.8756
   4   2.0000     -10.315031      -280.6863
   5   2.0000     -10.304578      -280.4018
   6   2.0000     -10.303693      -280.3777
   7   2.0000     -10.301085      -280.3068
   8   2.0000     -10.298776      -280.2440
   9   2.0000     -10.291561      -280.0476
  10   2.0000     -10.290469      -280.0179
  11   2.0000     -10.290382      -280.0155
  12   2.0000     -10.286236      -279.9027
  13   2.0000     -10.283174      -279.8194
  14   2.0000     -10.282762      -279.8082
  15   2.0000     -10.278686      -279.6973
  16   2.0000      -8.079483      -219.8539
  17   2.0000      -8.077877      -219.8102
  18   2.0000      -6.037961      -164.3013
  19   2.0000      -6.036237      -164.2544
  20   2.0000      -6.033987      -164.1931
  21   2.0000      -6.032482      -164.1522
  22   2.0000      -6.030288      -164.0925
  23   2.0000      -6.028550      -164.0452
  24   2.0000      -1.008644       -27.4466
  25   2.0000      -0.986515       -26.8444
  26   2.0000      -0.911421       -24.8010
  27   2.0000      -0.910388       -24.7729
  28   2.0000      -0.877280       -23.8720
  29   2.0000      -0.853544       -23.2261
  30   2.0000      -0.847064       -23.0498
  31   2.0000      -0.817194       -22.2370
  32   2.0000      -0.784195       -21.3390
  33   2.0000      -0.772472       -21.0200
  34   2.0000      -0.708355       -19.2753
  35   2.0000      -0.697835       -18.9891
  36   2.0000      -0.693451       -18.8698
  37   2.0000      -0.659479       -17.9453
  38   2.0000      -0.645351       -17.5609
  39   2.0000      -0.622792       -16.9470
  40   2.0000      -0.604099       -16.4384
  41   2.0000      -0.577500       -15.7146
  42   2.0000      -0.571071       -15.5396
  43   2.0000      -0.565985       -15.4012
  44   2.0000      -0.530921       -14.4471
  45   2.0000      -0.523859       -14.2549
  46   2.0000      -0.518258       -14.1025
  47   2.0000      -0.513295       -13.9675
  48   2.0000      -0.509899       -13.8751
  49   2.0000      -0.498794       -13.5729
  50   2.0000      -0.490244       -13.3402
  51   2.0000      -0.482224       -13.1220
  52   2.0000      -0.475077       -12.9275
  53   2.0000      -0.465368       -12.6633
  54   2.0000      -0.461039       -12.5455
  55   2.0000      -0.450837       -12.2679
  56   2.0000      -0.449032       -12.2188
  57   2.0000      -0.438558       -11.9338
  58   2.0000      -0.433519       -11.7967
  59   2.0000      -0.424107       -11.5405
  60   2.0000      -0.420381       -11.4391
  61   2.0000      -0.411086       -11.1862
  62   2.0000      -0.401764       -10.9325
  63   2.0000      -0.344849        -9.3838
  64   2.0000      -0.330672        -8.9980
  65   2.0000      -0.326195        -8.8762
  66   2.0000      -0.296873        -8.0783
  67   0.0000       0.029766         0.8100
  68   0.0000       0.070932         1.9302
  69   0.0000       0.109795         2.9877
  70   0.0000       0.118407         3.2220
  71   0.0000       0.127325         3.4647

MULLIKEN ATOMIC CHARGES
-----------------------
   0 S :    0.106874
   1 C :   -0.083163
   2 C :   -0.078030
   3 C :    0.031558
   4 C :   -0.188215
   5 H :    0.025027
   6 C :    0.028315
   7 H :    0.005355
   8 H :    0.026077
   9 C :   -0.058846
  10 H :    0.032648
  11 H :    0.027422
  12 C :   -0.045823
  13 H :    0.034231
  14 H :    0.022339
  15 H :    0.043221
  16 S :    0.111703
  17 C :   -0.080400
  18 C :   -0.018032
  19 C :    0.004204
  20 C :   -0.133176
  21 H :    0.003775
  22 C :    0.083169
  23 H :    0.043827
  24 H :    0.024510
  25 C :   -0.125000
  26 H :    0.023492
  27 H :    0.026036
  28 C :   -0.049055
  29 H :    0.048197
  30 H :    0.020420
  31 H :    0.021462
  32 H :    0.030172
  33 H :    0.035705
Sum of atomic charges:   -0.0000000

LOEWDIN ATOMIC CHARGES
----------------------
   0 S :    0.407490
   1 C :   -0.199563
   2 C :   -0.061642
   3 C :   -0.055279
   4 C :   -0.180225
   5 H :    0.035503
   6 C :   -0.034792
   7 H :    0.018406
   8 H :    0.032127
   9 C :   -0.035121
  10 H :    0.023093
  11 H :    0.024591
  12 C :   -0.065525
  13 H :    0.027909
  14 H :    0.019197
  15 H :    0.031943
  16 S :    0.401136
  17 C :   -0.163776
  18 C :   -0.063465
  19 C :   -0.050298
  20 C :   -0.209069
  21 H :    0.025823
  22 C :   -0.035468
  23 H :    0.045150
  24 H :    0.025843
  25 C :   -0.046056
  26 H :    0.013181
  27 H :    0.025206
  28 C :   -0.064255
  29 H :    0.035882
  30 H :    0.021246
  31 H :    0.014403
  32 H :    0.018079
  33 H :    0.018328

  Mayer bond orders larger than 0.100000
B(  0-S ,  1-C ) :   1.1364 B(  0-S ,  4-C ) :   1.1519 B(  1-C ,  2-C ) :   1.6412
B(  1-C , 32-H ) :   0.9692 B(  2-C ,  3-C ) :   1.2077 B(  2-C ,  6-C ) :   1.0214
B(  3-C ,  4-C ) :   1.5887 B(  3-C ,  5-H ) :   0.9887 B(  4-C , 20-C ) :   1.0551
B(  6-C ,  7-H ) :   0.9484 B(  6-C ,  8-H ) :   0.9411 B(  6-C ,  9-C ) :   1.0627
B(  9-C , 10-H ) :   0.9576 B(  9-C , 11-H ) :   0.9571 B(  9-C , 12-C ) :   1.0880
B( 12-C , 13-H ) :   0.9726 B( 12-C , 14-H ) :   0.9742 B( 12-C , 15-H ) :   0.9734
B( 16-S , 17-C ) :   1.1536 B( 16-S , 20-C ) :   1.1327 B( 17-C , 18-C ) :   1.6213
B( 17-C , 33-H ) :   0.9745 B( 18-C , 19-C ) :   1.2158 B( 18-C , 21-H ) :   1.0015
B( 19-C , 20-C ) :   1.5800 B( 19-C , 22-C ) :   1.0578 B( 22-C , 23-H ) :   0.9299
B( 22-C , 24-H ) :   0.9313 B( 22-C , 25-C ) :   1.0551 B( 25-C , 26-H ) :   0.9635
B( 25-C , 27-H ) :   0.9558 B( 25-C , 28-C ) :   1.0695 B( 28-C , 29-H ) :   0.9759
B( 28-C , 30-H ) :   0.9773 B( 28-C , 31-H ) :   0.9757

Dispersion correction           -0.013938012
FINAL SINGLE POINT ENERGY     -1339.864603149874

DIPOLE MOMENT
-------------
                                X             Y             Z
Electronic contribution:    -13.18819      30.51495      -4.17074
Nuclear contribution   :     13.60743     -31.09712       4.38935
                        -----------------------------------------
Total Dipole Moment    :      0.41924      -0.58217       0.21862
                        -----------------------------------------
Magnitude (a.u.)       :      0.74999
Magnitude (Debye)      :      1.90631

Rotational constants in cm-1:     0.016870     0.009253     0.006426
Rotational constants in MHz :   505.737040   277.412752   192.643898

                             ****ORCA TERMINATED NORMALLY****
TOTAL RUN TIME: 0 days 0 hours 0 minutes 21 seconds 662 msec
