                         Program Version 4.2.1 -  RELEASE  -
|  1> ! wB97X-D3 SP def2-SVP
|  2> %pal
|  3> nprocs 24
|  4> end
|  5>
|  6> * xyz 0 1
|  7> S 	 -34.3608 	 1.77799 	 1.94585
|  8> C 	 -35.1305 	 0.3004 	 1.47443
|  9> C 	 -35.7771 	 -0.313742 	 2.54607
| 10> C 	 -35.3262 	 0.261304 	 3.7673
| 11> C 	 -34.5771 	 1.40408 	 3.64454
| 12> H 	 -35.5526 	 -0.203196 	 4.71772
| 13> C 	 -36.7614 	 -1.41611 	 2.54539
| 14> H 	 -36.9178 	 -1.68003 	 1.46477
| 15> H 	 -37.6847 	 -0.966592 	 2.83933
| 16> C 	 -36.3196 	 -2.71823 	 3.14567
| 17> H 	 -35.3806 	 -2.92016 	 2.70351
| 18> H 	 -36.2001 	 -2.63591 	 4.25849
| 19> C 	 -37.3696 	 -3.80644 	 2.99645
| 20> H 	 -37.8716 	 -3.88092 	 3.91797
| 21> H 	 -37.9844 	 -3.80207 	 2.05101
| 22> H 	 -36.8046 	 -4.737 	 2.99815
| 23> S 	 -34.8713 	 3.86699 	 4.74293
| 24> C 	 -34.19 	 4.1566 	 6.33022
| 25> C 	 -33.4961 	 3.07265 	 6.79465
| 26> C 	 -33.4427 	 1.95589 	 5.88515
| 27> C 	 -34.2146 	 2.22827 	 4.72881
| 28> H 	 -32.9656 	 3.14533 	 7.69286
| 29> C 	 -32.5229 	 0.817574 	 6.05248
| 30> H 	 -32.9624 	 0.0150701 	 5.4548
| 31> H 	 -32.6497 	 0.39585 	 7.0715
| 32> C 	 -31.0463 	 1.1713 	 5.80977
| 33> H 	 -30.397 	 0.339642 	 6.22162
| 34> H 	 -30.7694 	 2.03161 	 6.40283
| 35> C 	 -30.5717 	 1.47472 	 4.34403
| 36> H 	 -31.0609 	 2.32962 	 3.88894
| 37> H 	 -30.6307 	 0.594306 	 3.64021
| 38> H 	 -29.5086 	 1.74121 	 4.32207
| 39> H 	 -35.386 	 0.166668 	 0.481954
| 40> H 	 -34.2276 	 5.03883 	 6.96739
| 41> *
| 42>
| 43>                          ****END OF INPUT****

CARTESIAN COORDINATES (ANGSTROEM)
---------------------------------
  S    -34.360800    1.777990    1.945850
  C    -35.130500    0.300400    1.474430
  C    -35.777100   -0.313742    2.546070
  C    -35.326200    0.261304    3.767300
  C    -34.577100    1.404080    3.644540
  H    -35.552600   -0.203196    4.717720
  C    -36.761400   -1.416110    2.545390
  H    -36.917800   -1.680030    1.464770
  H    -37.684700   -0.966592    2.839330
  C    -36.319600   -2.718230    3.145670
  H    -35.380600   -2.920160    2.703510
  H    -36.200100   -2.635910    4.258490
  C    -37.369600   -3.806440    2.996450
  H    -37.871600   -3.880920    3.917970
  H    -37.984400   -3.802070    2.051010
  H    -36.804600   -4.737000    2.998150
  S    -34.871300    3.866990    4.742930
  C    -34.190000    4.156600    6.330220
  C    -33.496100    3.072650    6.794650
  C    -33.442700    1.955890    5.885150
  C    -34.214600    2.228270    4.728810
  H    -32.965600    3.145330    7.692860
  C    -32.522900    0.817574    6.052480
  H    -32.962400    0.015070    5.454800
  H    -32.649700    0.395850    7.071500
  C    -31.046300    1.171300    5.809770
  H    -30.397000    0.339642    6.221620
  H    -30.769400    2.031610    6.402830
  C    -30.571700    1.474720    4.344030
  H    -31.060900    2.329620    3.888940
  H    -30.630700    0.594306    3.640210
  H    -29.508600    1.741210    4.322070
  H    -35.386000    0.166668    0.481954
  H    -34.227600    5.038830    6.967390

 Total Charge           Charge          ....    0
 Multiplicity           Mult            ....    1
 Number of Electrons    NEL             ....  134
 Basis Dimension        Dim             ....  322

ORBITAL ENERGIES
----------------

  NO   OCC          E(Eh)            E(eV)
   0   2.0000     -88.965443     -2420.8728
   1   2.0000     -88.964607     -2420.8500
   2   2.0000     -10.324037      -280.9313
   3   2.0000     -10.322515      -280.8899
   4   2.0000     -10.313572      -280.6466
   5   2.0000     -10.307008      -280.4680
   6   2.0000     -10.301049      -280.3058
   7   2.0000     -10.296992      -280.1954
   8   2.0000     -10.292782      -280.0808
   9   2.0000     -10.289886      -280.0020
  10   2.0000     -10.288180      -279.9556
  11   2.0000     -10.287988      -279.9504
  12   2.0000     -10.286262      -279.9034
  13   2.0000     -10.285524      -279.8833
  14   2.0000     -10.277998      -279.6785
  15   2.0000     -10.276962      -279.6503
  16   2.0000      -8.079813      -219.8629
  17   2.0000      -8.079672      -219.8591
  18   2.0000      -6.038402      -164.3133
  19   2.0000      -6.038144      -164.3063
  20   2.0000      -6.034400      -164.2044
  21   2.0000      -6.034191      -164.1987
  22   2.0000      -6.030480      -164.0977
  23   2.0000      -6.030415      -164.0959
  24   2.0000      -1.007917       -27.4268
  25   2.0000      -0.982395       -26.7323
  26   2.0000      -0.922282       -25.0966
  27   2.0000      -0.904598       -24.6154
  28   2.0000      -0.875886       -23.8341
  29   2.0000      -0.853995       -23.2384
  30   2.0000      -0.841081       -22.8870
  31   2.0000      -0.814944       -22.1758
  32   2.0000      -0.784698       -21.3527
  33   2.0000      -0.770154       -20.9570
  34   2.0000      -0.711424       -19.3588
  35   2.0000      -0.700198       -19.0533
  36   2.0000      -0.695294       -18.9199
  37   2.0000      -0.656639       -17.8680
  38   2.0000      -0.643812       -17.5190
  39   2.0000      -0.625480       -17.0202
  40   2.0000      -0.592019       -16.1097
  41   2.0000      -0.578944       -15.7539
  42   2.0000      -0.565322       -15.3832
  43   2.0000      -0.543038       -14.7768
  44   2.0000      -0.537376       -14.6227
  45   2.0000      -0.526588       -14.3292
  46   2.0000      -0.517230       -14.0746
  47   2.0000      -0.506782       -13.7902
  48   2.0000      -0.504422       -13.7260
  49   2.0000      -0.501477       -13.6459
  50   2.0000      -0.494613       -13.4591
  51   2.0000      -0.479183       -13.0392
  52   2.0000      -0.467467       -12.7204
  53   2.0000      -0.466090       -12.6830
  54   2.0000      -0.456280       -12.4160
  55   2.0000      -0.445560       -12.1243
  56   2.0000      -0.441200       -12.0057
  57   2.0000      -0.437042       -11.8925
  58   2.0000      -0.433737       -11.8026
  59   2.0000      -0.424748       -11.5580
  60   2.0000      -0.417415       -11.3584
  61   2.0000      -0.415677       -11.3111
  62   2.0000      -0.412116       -11.2142
  63   2.0000      -0.344790        -9.3822
  64   2.0000      -0.328164        -8.9298
  65   2.0000      -0.326782        -8.8922
  66   2.0000      -0.289717        -7.8836
  67   0.0000       0.032695         0.8897
  68   0.0000       0.066469         1.8087
  69   0.0000       0.114958         3.1282
  70   0.0000       0.125578         3.4171
  71   0.0000       0.126942         3.4543

MULLIKEN ATOMIC CHARGES
-----------------------
   0 S :    0.106752
   1 C :   -0.080325
   2 C :   -0.122999
   3 C :    0.036200
   4 C :   -0.155142
   5 H :    0.009220
   6 C :    0.073515
   7 H :    0.009533
   8 H :    0.035985
   9 C :   -0.083501
  10 H :    0.027931
  11 H :    0.031190
  12 C :   -0.017686
  13 H :    0.025695
  14 H :    0.047435
  15 H :    0.021224
  16 S :    0.111262
  17 C :   -0.080287
  18 C :   -0.026212
  19 C :   -0.050346
  20 C :   -0.167779
  21 H :   -0.004975
  22 C :    0.098918
  23 H :    0.017222
  24 H :    0.022349
  25 C :   -0.069555
  26 H :    0.036542
  27 H :    0.025891
  28 C :   -0.064744
  29 H :    0.040055
  30 H :    0.040448
  31 H :    0.027813
  32 H :    0.024679
  33 H :    0.053691
Sum of atomic charges:    0.0000000

LOEWDIN ATOMIC CHARGES
----------------------
   0 S :    0.410649
   1 C :   -0.194258
   2 C :   -0.059460
   3 C :   -0.053831
   4 C :   -0.203477
   5 H :    0.028246
   6 C :   -0.037681
   7 H :    0.033732
   8 H :    0.031975
   9 C :   -0.037511
  10 H :    0.021067
  11 H :    0.027675
  12 C :   -0.066486
  13 H :    0.023191
  14 H :    0.032438
  15 H :    0.030295
  16 S :    0.399385
  17 C :   -0.189296
  18 C :   -0.066094
  19 C :   -0.054280
  20 C :   -0.192767
  21 H :    0.020904
  22 C :   -0.041362
  23 H :    0.031939
  24 H :    0.036214
  25 C :   -0.038770
  26 H :    0.031113
  27 H :    0.023291
  28 C :   -0.072257
  29 H :    0.024292
  30 H :    0.030291
  31 H :    0.027001
  32 H :    0.009364
  33 H :    0.034468

  Mayer bond orders larger than 0.100000
B(  0-S ,  1-C ) :   1.1433 B(  0-S ,  4-C ) :   1.1427 B(  1-C ,  2-C ) :   1.5997
B(  1-C , 32-H ) :   0.9691 B(  2-C ,  3-C ) :   1.2521 B(  2-C ,  6-C ) :   1.0357
B(  3-C ,  4-C ) :   1.5618 B(  3-C ,  5-H ) :   0.9940 B(  4-C , 20-C ) :   1.0739
B(  6-C ,  7-H ) :   0.9325 B(  6-C ,  8-H ) :   0.9306 B(  6-C ,  9-C ) :   1.0639
B(  9-C , 10-H ) :   0.9585 B(  9-C , 11-H ) :   0.9535 B(  9-C , 12-C ) :   1.0790
B( 12-C , 13-H ) :   0.9760 B( 12-C , 14-H ) :   0.9733 B( 12-C , 15-H ) :   0.9706
B( 16-S , 17-C ) :   1.1331 B( 16-S , 20-C ) :   1.1369 B( 17-C , 18-C ) :   1.6403
B( 17-C , 33-H ) :   0.9629 B( 18-C , 19-C ) :   1.2236 B( 18-C , 21-H ) :   0.9922
B( 19-C , 20-C ) :   1.5757 B( 19-C , 22-C ) :   1.0667 B( 22-C , 23-H ) :   0.9244
B( 22-C , 24-H ) :   0.9215 B( 22-C , 25-C ) :   1.0614 B( 25-C , 26-H ) :   0.9551
B( 25-C , 27-H ) :   0.9560 B( 25-C , 28-C ) :   1.0737 B( 28-C , 29-H ) :   0.9761
B( 28-C , 30-H ) :   0.9769 B( 28-C , 31-H ) :   0.9724

Dispersion correction           -0.014631921
FINAL SINGLE POINT ENERGY     -1339.871991067464

DIPOLE MOMENT
-------------
                                X             Y             Z
Electronic contribution:     -3.99066      23.09673      -3.69917
Nuclear contribution   :      3.94960     -23.63473       4.01684
                        -----------------------------------------
Total Dipole Moment    :     -0.04106      -0.53800       0.31767
                        -----------------------------------------
Magnitude (a.u.)       :      0.62613
Magnitude (Debye)      :      1.59151

Rotational constants in cm-1:     0.019940     0.007905     0.007343
Rotational constants in MHz :   597.797195   236.983724   220.141321

                             ****ORCA TERMINATED NORMALLY****
TOTAL RUN TIME: 0 days 0 hours 0 minutes 20 seconds 812 msec
