                         Program Version 4.2.1 -  RELEASE  -
|  1> ! wB97X-D3 SP def2-SVP
|  2> %pal
|  3> nprocs 24
|  4> end
|  5>
|  6> * xyz 0 1
|  7> S 	 -49.6578 	 19.3864 	 25.3848
|  8> C 	 -49.4107 	 17.6721 	 25.436
|  9> C 	 -50.1364 	 17.1389 	 26.4567
| 10> C 	 -50.9797 	 18.099 	 27.0979
| 11> C 	 -50.893 	 19.4002 	 26.5965
| 12> H 	 -51.4782 	 17.8669 	 27.9869
| 13> C 	 -50.0697 	 15.6733 	 26.8703
| 14> H 	 -50.5763 	 15.6407 	 27.8554
| 15> H 	 -48.9536 	 15.4382 	 27.1072
| 16> C 	 -50.7517 	 14.6769 	 25.9915
| 17> H 	 -50.5489 	 14.7797 	 24.899
| 18> H 	 -50.5344 	 13.6236 	 26.2591
| 19> C 	 -52.252 	 14.9215 	 26.1287
| 20> H 	 -52.7368 	 14.1897 	 25.5053
| 21> H 	 -52.5526 	 14.8182 	 27.1797
| 22> H 	 -52.4987 	 15.8159 	 25.6837
| 23> S 	 -49.821 	 21.6734 	 27.8372
| 24> C 	 -50.9292 	 22.84 	 28.538
| 25> C 	 -52.2244 	 22.5922 	 28.1963
| 26> C 	 -52.3665 	 21.3603 	 27.4425
| 27> C 	 -51.1666 	 20.6854 	 27.304
| 28> H 	 -52.984 	 23.3483 	 28.4654
| 29> C 	 -53.6413 	 20.9534 	 26.7091
| 30> H 	 -53.6837 	 21.0186 	 25.6087
| 31> H 	 -54.3125 	 21.7583 	 26.938
| 32> C 	 -54.3329 	 19.6763 	 27.302
| 33> H 	 -54.4878 	 19.7493 	 28.3791
| 34> H 	 -53.6577 	 18.8231 	 27.0513
| 35> C 	 -55.7227 	 19.4532 	 26.6553
| 36> H 	 -55.6571 	 18.7358 	 25.8705
| 37> H 	 -56.3174 	 20.3317 	 26.328
| 38> H 	 -56.382 	 18.9658 	 27.3724
| 39> H 	 -48.781 	 17.0918 	 24.7424
| 40> H 	 -50.7425 	 23.7591 	 28.923
| 41> *
| 42>
| 43>                          ****END OF INPUT****

CARTESIAN COORDINATES (ANGSTROEM)
---------------------------------
  S    -49.657800   19.386400   25.384800
  C    -49.410700   17.672100   25.436000
  C    -50.136400   17.138900   26.456700
  C    -50.979700   18.099000   27.097900
  C    -50.893000   19.400200   26.596500
  H    -51.478200   17.866900   27.986900
  C    -50.069700   15.673300   26.870300
  H    -50.576300   15.640700   27.855400
  H    -48.953600   15.438200   27.107200
  C    -50.751700   14.676900   25.991500
  H    -50.548900   14.779700   24.899000
  H    -50.534400   13.623600   26.259100
  C    -52.252000   14.921500   26.128700
  H    -52.736800   14.189700   25.505300
  H    -52.552600   14.818200   27.179700
  H    -52.498700   15.815900   25.683700
  S    -49.821000   21.673400   27.837200
  C    -50.929200   22.840000   28.538000
  C    -52.224400   22.592200   28.196300
  C    -52.366500   21.360300   27.442500
  C    -51.166600   20.685400   27.304000
  H    -52.984000   23.348300   28.465400
  C    -53.641300   20.953400   26.709100
  H    -53.683700   21.018600   25.608700
  H    -54.312500   21.758300   26.938000
  C    -54.332900   19.676300   27.302000
  H    -54.487800   19.749300   28.379100
  H    -53.657700   18.823100   27.051300
  C    -55.722700   19.453200   26.655300
  H    -55.657100   18.735800   25.870500
  H    -56.317400   20.331700   26.328000
  H    -56.382000   18.965800   27.372400
  H    -48.781000   17.091800   24.742400
  H    -50.742500   23.759100   28.923000

 Total Charge           Charge          ....    0
 Multiplicity           Mult            ....    1
 Number of Electrons    NEL             ....  134
 Basis Dimension        Dim             ....  322

ORBITAL ENERGIES
----------------

  NO   OCC          E(Eh)            E(eV)
   0   2.0000     -88.966756     -2420.9085
   1   2.0000     -88.965083     -2420.8630
   2   2.0000     -10.332222      -281.1541
   3   2.0000     -10.328101      -281.0419
   4   2.0000     -10.315716      -280.7049
   5   2.0000     -10.307206      -280.4733
   6   2.0000     -10.303311      -280.3673
   7   2.0000     -10.299394      -280.2608
   8   2.0000     -10.298444      -280.2349
   9   2.0000     -10.295438      -280.1531
  10   2.0000     -10.294782      -280.1352
  11   2.0000     -10.289098      -279.9806
  12   2.0000     -10.288404      -279.9617
  13   2.0000     -10.287915      -279.9484
  14   2.0000     -10.273178      -279.5474
  15   2.0000     -10.267586      -279.3952
  16   2.0000      -8.081147      -219.8992
  17   2.0000      -8.080479      -219.8810
  18   2.0000      -6.039758      -164.3502
  19   2.0000      -6.038922      -164.3274
  20   2.0000      -6.035809      -164.2427
  21   2.0000      -6.034645      -164.2110
  22   2.0000      -6.031691      -164.1307
  23   2.0000      -6.031504      -164.1256
  24   2.0000      -1.009822       -27.4786
  25   2.0000      -0.987034       -26.8586
  26   2.0000      -0.919582       -25.0231
  27   2.0000      -0.899801       -24.4848
  28   2.0000      -0.871366       -23.7111
  29   2.0000      -0.847143       -23.0519
  30   2.0000      -0.843822       -22.9616
  31   2.0000      -0.820274       -22.3208
  32   2.0000      -0.780734       -21.2449
  33   2.0000      -0.770600       -20.9691
  34   2.0000      -0.707296       -19.2465
  35   2.0000      -0.699646       -19.0383
  36   2.0000      -0.690817       -18.7981
  37   2.0000      -0.659273       -17.9397
  38   2.0000      -0.642438       -17.4816
  39   2.0000      -0.616353       -16.7718
  40   2.0000      -0.593222       -16.1424
  41   2.0000      -0.581778       -15.8310
  42   2.0000      -0.559518       -15.2253
  43   2.0000      -0.556375       -15.1397
  44   2.0000      -0.545577       -14.8459
  45   2.0000      -0.516068       -14.0429
  46   2.0000      -0.513276       -13.9670
  47   2.0000      -0.509492       -13.8640
  48   2.0000      -0.507563       -13.8115
  49   2.0000      -0.496570       -13.5123
  50   2.0000      -0.488443       -13.2912
  51   2.0000      -0.479150       -13.0383
  52   2.0000      -0.470150       -12.7934
  53   2.0000      -0.464581       -12.6419
  54   2.0000      -0.460118       -12.5205
  55   2.0000      -0.448180       -12.1956
  56   2.0000      -0.441762       -12.0209
  57   2.0000      -0.439382       -11.9562
  58   2.0000      -0.429459       -11.6862
  59   2.0000      -0.420703       -11.4479
  60   2.0000      -0.418925       -11.3995
  61   2.0000      -0.412725       -11.2308
  62   2.0000      -0.409164       -11.1339
  63   2.0000      -0.346123        -9.4185
  64   2.0000      -0.330948        -9.0056
  65   2.0000      -0.327280        -8.9057
  66   2.0000      -0.300245        -8.1701
  67   0.0000       0.032204         0.8763
  68   0.0000       0.059620         1.6224
  69   0.0000       0.111270         3.0278
  70   0.0000       0.120656         3.2832
  71   0.0000       0.135696         3.6925

MULLIKEN ATOMIC CHARGES
-----------------------
   0 S :    0.098723
   1 C :   -0.118961
   2 C :   -0.129564
   3 C :    0.072661
   4 C :   -0.139353
   5 H :   -0.001091
   6 C :    0.038263
   7 H :    0.016270
   8 H :    0.051937
   9 C :   -0.065447
  10 H :    0.030771
  11 H :    0.035474
  12 C :   -0.028369
  13 H :    0.019538
  14 H :    0.030772
  15 H :    0.026378
  16 S :    0.114469
  17 C :   -0.037870
  18 C :   -0.053648
  19 C :   -0.046327
  20 C :   -0.152064
  21 H :    0.032985
  22 C :    0.068748
  23 H :    0.047452
  24 H :   -0.006859
  25 C :   -0.096760
  26 H :    0.035347
  27 H :    0.048238
  28 C :   -0.043705
  29 H :    0.024887
  30 H :    0.035175
  31 H :    0.020363
  32 H :    0.059591
  33 H :    0.011979
Sum of atomic charges:   -0.0000000

LOEWDIN ATOMIC CHARGES
----------------------
   0 S :    0.425771
   1 C :   -0.196635
   2 C :   -0.074059
   3 C :   -0.050622
   4 C :   -0.204244
   5 H :    0.020624
   6 C :   -0.041078
   7 H :    0.029910
   8 H :    0.039760
   9 C :   -0.044985
  10 H :    0.026605
  11 H :    0.026811
  12 C :   -0.053458
  13 H :    0.023843
  14 H :    0.024880
  15 H :    0.015085
  16 S :    0.402895
  17 C :   -0.173486
  18 C :   -0.069198
  19 C :   -0.057906
  20 C :   -0.198073
  21 H :    0.038855
  22 C :   -0.036138
  23 H :    0.037125
  24 H :    0.023043
  25 C :   -0.037545
  26 H :    0.024589
  27 H :    0.028469
  28 C :   -0.073543
  29 H :    0.021634
  30 H :    0.027557
  31 H :    0.025597
  32 H :    0.036943
  33 H :    0.010975

  Mayer bond orders larger than 0.100000
B(  0-S ,  1-C ) :   1.1576 B(  0-S ,  4-C ) :   1.1724 B(  1-C ,  2-C ) :   1.5809
B(  1-C , 32-H ) :   0.9688 B(  2-C ,  3-C ) :   1.2956 B(  2-C ,  6-C ) :   1.0091
B(  3-C ,  4-C ) :   1.5259 B(  3-C ,  5-H ) :   0.9902 B(  4-C , 20-C ) :   1.0158
B(  6-C ,  7-H ) :   0.9422 B(  6-C ,  8-H ) :   0.9416 B(  6-C ,  9-C ) :   1.0692
B(  9-C , 10-H ) :   0.9577 B(  9-C , 11-H ) :   0.9554 B(  9-C , 12-C ) :   1.0735
B( 12-C , 13-H ) :   0.9691 B( 12-C , 14-H ) :   0.9760 B( 12-C , 15-H ) :   0.9767
B( 16-S , 17-C ) :   1.1392 B( 16-S , 20-C ) :   1.1347 B( 17-C , 18-C ) :   1.6521
B( 17-C , 33-H ) :   0.9677 B( 18-C , 19-C ) :   1.2390 B( 18-C , 21-H ) :   0.9818
B( 19-C , 20-C ) :   1.6187 B( 19-C , 22-C ) :   1.0309 B( 22-C , 23-H ) :   0.9439
B( 22-C , 24-H ) :   0.9282 B( 22-C , 25-C ) :   1.0560 B( 25-C , 26-H ) :   0.9625
B( 25-C , 27-H ) :   0.9558 B( 25-C , 28-C ) :   1.0704 B( 28-C , 29-H ) :   0.9765
B( 28-C , 30-H ) :   0.9759 B( 28-C , 31-H ) :   0.9761

Dispersion correction           -0.014477717
FINAL SINGLE POINT ENERGY     -1339.860895174890

DIPOLE MOMENT
-------------
                                X             Y             Z
Electronic contribution:     21.52234      19.82741       0.65129
Nuclear contribution   :    -21.86807     -20.12963      -0.61861
                        -----------------------------------------
Total Dipole Moment    :     -0.34574      -0.30221       0.03268
                        -----------------------------------------
Magnitude (a.u.)       :      0.46037
Magnitude (Debye)      :      1.17016

Rotational constants in cm-1:     0.018278     0.009513     0.006936
Rotational constants in MHz :   547.947841   285.178706   207.932235

                             ****ORCA TERMINATED NORMALLY****
TOTAL RUN TIME: 0 days 0 hours 0 minutes 22 seconds 81 msec
