                         Program Version 4.2.1 -  RELEASE  -
|  1> ! wB97X-D3 SP def2-SVP
|  2> %pal
|  3> nprocs 24
|  4> end
|  5>
|  6> * xyz 0 1
|  7> S 	 -100.82 	 -2.72535 	 -104.58
|  8> C 	 -100.172 	 -4.16534 	 -105.185
|  9> C 	 -100.896 	 -4.87009 	 -106.154
| 10> C 	 -102.055 	 -4.14215 	 -106.447
| 11> C 	 -102.251 	 -3.03131 	 -105.565
| 12> H 	 -102.737 	 -4.52124 	 -107.13
| 13> C 	 -100.611 	 -6.20487 	 -106.797
| 14> H 	 -100.245 	 -6.88603 	 -105.975
| 15> H 	 -99.7834 	 -6.10033 	 -107.524
| 16> C 	 -101.644 	 -6.87065 	 -107.695
| 17> H 	 -101.915 	 -6.17535 	 -108.462
| 18> H 	 -101.222 	 -7.77301 	 -108.233
| 19> C 	 -102.92 	 -7.28937 	 -106.98
| 20> H 	 -103.298 	 -6.6057 	 -106.172
| 21> H 	 -103.749 	 -7.37753 	 -107.682
| 22> H 	 -102.726 	 -8.23778 	 -106.504
| 23> S 	 -103.164 	 -0.644052 	 -106.49
| 24> C 	 -104.821 	 -0.111486 	 -106.259
| 25> C 	 -105.543 	 -1.13581 	 -105.694
| 26> C 	 -104.776 	 -2.31912 	 -105.441
| 27> C 	 -103.432 	 -2.18092 	 -105.782
| 28> H 	 -106.514 	 -0.955963 	 -105.446
| 29> C 	 -105.46 	 -3.48547 	 -104.776
| 30> H 	 -105.932 	 -3.21243 	 -103.83
| 31> H 	 -104.674 	 -4.19153 	 -104.659
| 32> C 	 -106.589 	 -4.14329 	 -105.572
| 33> H 	 -106.099 	 -4.49658 	 -106.596
| 34> H 	 -107.314 	 -3.35859 	 -105.767
| 35> C 	 -107.097 	 -5.333 	 -104.788
| 36> H 	 -107.805 	 -6.001 	 -105.325
| 37> H 	 -107.581 	 -5.18951 	 -103.811
| 38> H 	 -106.311 	 -6.02251 	 -104.492
| 39> H 	 -99.2623 	 -4.58649 	 -104.728
| 40> H 	 -105.215 	 0.918434 	 -106.386
| 41> *
| 42>
| 43>                          ****END OF INPUT****

CARTESIAN COORDINATES (ANGSTROEM)
---------------------------------
  S    -100.820000   -2.725350  -104.580000
  C    -100.172000   -4.165340  -105.185000
  C    -100.896000   -4.870090  -106.154000
  C    -102.055000   -4.142150  -106.447000
  C    -102.251000   -3.031310  -105.565000
  H    -102.737000   -4.521240  -107.130000
  C    -100.611000   -6.204870  -106.797000
  H    -100.245000   -6.886030  -105.975000
  H    -99.783400   -6.100330  -107.524000
  C    -101.644000   -6.870650  -107.695000
  H    -101.915000   -6.175350  -108.462000
  H    -101.222000   -7.773010  -108.233000
  C    -102.920000   -7.289370  -106.980000
  H    -103.298000   -6.605700  -106.172000
  H    -103.749000   -7.377530  -107.682000
  H    -102.726000   -8.237780  -106.504000
  S    -103.164000   -0.644052  -106.490000
  C    -104.821000   -0.111486  -106.259000
  C    -105.543000   -1.135810  -105.694000
  C    -104.776000   -2.319120  -105.441000
  C    -103.432000   -2.180920  -105.782000
  H    -106.514000   -0.955963  -105.446000
  C    -105.460000   -3.485470  -104.776000
  H    -105.932000   -3.212430  -103.830000
  H    -104.674000   -4.191530  -104.659000
  C    -106.589000   -4.143290  -105.572000
  H    -106.099000   -4.496580  -106.596000
  H    -107.314000   -3.358590  -105.767000
  C    -107.097000   -5.333000  -104.788000
  H    -107.805000   -6.001000  -105.325000
  H    -107.581000   -5.189510  -103.811000
  H    -106.311000   -6.022510  -104.492000
  H    -99.262300   -4.586490  -104.728000
  H    -105.215000    0.918434  -106.386000

 Total Charge           Charge          ....    0
 Multiplicity           Mult            ....    1
 Number of Electrons    NEL             ....  134
 Basis Dimension        Dim             ....  322

ORBITAL ENERGIES
----------------

  NO   OCC          E(Eh)            E(eV)
   0   2.0000     -88.978774     -2421.2355
   1   2.0000     -88.958138     -2420.6740
   2   2.0000     -10.331528      -281.1352
   3   2.0000     -10.321882      -280.8727
   4   2.0000     -10.314416      -280.6695
   5   2.0000     -10.314336      -280.6674
   6   2.0000     -10.299946      -280.2758
   7   2.0000     -10.299670      -280.2683
   8   2.0000     -10.297297      -280.2037
   9   2.0000     -10.294569      -280.1295
  10   2.0000     -10.293332      -280.0958
  11   2.0000     -10.291063      -280.0341
  12   2.0000     -10.281903      -279.7848
  13   2.0000     -10.281002      -279.7603
  14   2.0000     -10.279133      -279.7094
  15   2.0000     -10.278397      -279.6894
  16   2.0000      -8.093560      -220.2370
  17   2.0000      -8.073637      -219.6948
  18   2.0000      -6.051828      -164.6786
  19   2.0000      -6.048070      -164.5763
  20   2.0000      -6.044572      -164.4812
  21   2.0000      -6.032186      -164.1441
  22   2.0000      -6.027845      -164.0260
  23   2.0000      -6.024508      -163.9352
  24   2.0000      -1.007455       -27.4142
  25   2.0000      -0.987120       -26.8609
  26   2.0000      -0.918024       -24.9807
  27   2.0000      -0.910562       -24.7776
  28   2.0000      -0.868265       -23.6267
  29   2.0000      -0.857473       -23.3330
  30   2.0000      -0.844924       -22.9916
  31   2.0000      -0.812564       -22.1110
  32   2.0000      -0.783903       -21.3311
  33   2.0000      -0.767691       -20.8899
  34   2.0000      -0.706772       -19.2322
  35   2.0000      -0.696096       -18.9417
  36   2.0000      -0.691298       -18.8112
  37   2.0000      -0.660441       -17.9715
  38   2.0000      -0.643701       -17.5160
  39   2.0000      -0.623832       -16.9753
  40   2.0000      -0.592318       -16.1178
  41   2.0000      -0.572651       -15.5826
  42   2.0000      -0.564907       -15.3719
  43   2.0000      -0.554780       -15.0963
  44   2.0000      -0.539576       -14.6826
  45   2.0000      -0.521223       -14.1832
  46   2.0000      -0.516104       -14.0439
  47   2.0000      -0.513067       -13.9613
  48   2.0000      -0.504199       -13.7200
  49   2.0000      -0.497629       -13.5412
  50   2.0000      -0.487222       -13.2580
  51   2.0000      -0.484941       -13.1959
  52   2.0000      -0.470848       -12.8124
  53   2.0000      -0.466132       -12.6841
  54   2.0000      -0.460656       -12.5351
  55   2.0000      -0.453169       -12.3314
  56   2.0000      -0.439473       -11.9587
  57   2.0000      -0.438508       -11.9324
  58   2.0000      -0.426169       -11.5966
  59   2.0000      -0.424649       -11.5553
  60   2.0000      -0.419847       -11.4246
  61   2.0000      -0.417144       -11.3511
  62   2.0000      -0.415630       -11.3099
  63   2.0000      -0.343125        -9.3369
  64   2.0000      -0.327996        -8.9252
  65   2.0000      -0.320432        -8.7194
  66   2.0000      -0.296482        -8.0677
  67   0.0000       0.035253         0.9593
  68   0.0000       0.061205         1.6655
  69   0.0000       0.114883         3.1261
  70   0.0000       0.121074         3.2946
  71   0.0000       0.131162         3.5691

MULLIKEN ATOMIC CHARGES
-----------------------
   0 S :    0.163854
   1 C :   -0.138182
   2 C :   -0.068535
   3 C :    0.041254
   4 C :   -0.169947
   5 H :   -0.010679
   6 C :    0.062956
   7 H :    0.040255
   8 H :    0.045089
   9 C :   -0.099474
  10 H :    0.028404
  11 H :    0.046697
  12 C :   -0.070776
  13 H :    0.046734
  14 H :    0.033426
  15 H :    0.028894
  16 S :    0.098115
  17 C :   -0.107973
  18 C :   -0.006734
  19 C :   -0.019762
  20 C :   -0.173161
  21 H :   -0.019266
  22 C :    0.071895
  23 H :    0.028906
  24 H :    0.009815
  25 C :   -0.091795
  26 H :    0.043158
  27 H :    0.033777
  28 C :   -0.044368
  29 H :    0.033956
  30 H :    0.027456
  31 H :    0.018443
  32 H :    0.048420
  33 H :    0.069146
Sum of atomic charges:    0.0000000

LOEWDIN ATOMIC CHARGES
----------------------
   0 S :    0.449558
   1 C :   -0.214915
   2 C :   -0.066761
   3 C :   -0.037325
   4 C :   -0.211489
   5 H :    0.018578
   6 C :   -0.038762
   7 H :    0.038068
   8 H :    0.041300
   9 C :   -0.047907
  10 H :    0.019784
  11 H :    0.039150
  12 C :   -0.075230
  13 H :    0.030374
  14 H :    0.025848
  15 H :    0.023702
  16 S :    0.414058
  17 C :   -0.191444
  18 C :   -0.063929
  19 C :   -0.059029
  20 C :   -0.212524
  21 H :    0.013446
  22 C :   -0.031270
  23 H :    0.031186
  24 H :    0.021449
  25 C :   -0.041192
  26 H :    0.036532
  27 H :    0.020465
  28 C :   -0.079582
  29 H :    0.028818
  30 H :    0.027318
  31 H :    0.026248
  32 H :    0.026476
  33 H :    0.039004

  Mayer bond orders larger than 0.100000
B(  0-S ,  1-C ) :   1.1833 B(  0-S ,  4-C ) :   1.1636 B(  1-C ,  2-C ) :   1.5656
B(  1-C ,  4-C ) :   0.1020 B(  1-C , 32-H ) :   0.9579 B(  2-C ,  3-C ) :   1.3209
B(  2-C ,  6-C ) :   1.0036 B(  3-C ,  4-C ) :   1.5059 B(  3-C ,  5-H ) :   0.9874
B(  4-C , 20-C ) :   1.0289 B(  6-C ,  7-H ) :   0.9397 B(  6-C ,  8-H ) :   0.9283
B(  6-C ,  9-C ) :   1.0919 B(  9-C , 10-H ) :   0.9489 B(  9-C , 11-H ) :   0.9522
B(  9-C , 12-C ) :   1.0708 B( 12-C , 13-H ) :   0.9761 B( 12-C , 14-H ) :   0.9750
B( 12-C , 15-H ) :   0.9736 B( 16-S , 17-C ) :   1.1509 B( 16-S , 20-C ) :   1.1569
B( 17-C , 18-C ) :   1.6095 B( 17-C , 33-H ) :   0.9628 B( 18-C , 19-C ) :   1.2321
B( 18-C , 21-H ) :   1.0049 B( 19-C , 20-C ) :   1.5953 B( 19-C , 22-C ) :   1.0495
B( 22-C , 23-H ) :   0.9372 B( 22-C , 24-H ) :   0.9299 B( 22-C , 25-C ) :   1.0614
B( 25-C , 26-H ) :   0.9499 B( 25-C , 27-H ) :   0.9578 B( 25-C , 28-C ) :   1.0775
B( 28-C , 29-H ) :   0.9738 B( 28-C , 30-H ) :   0.9708 B( 28-C , 31-H ) :   0.9691

Dispersion correction           -0.014647171
FINAL SINGLE POINT ENERGY     -1339.865267759637

DIPOLE MOMENT
-------------
                                X             Y             Z
Electronic contribution:     15.18788      26.45043       3.38199
Nuclear contribution   :    -15.34423     -27.03070      -3.35736
                        -----------------------------------------
Total Dipole Moment    :     -0.15635      -0.58027       0.02463
                        -----------------------------------------
Magnitude (a.u.)       :      0.60147
Magnitude (Debye)      :      1.52882

Rotational constants in cm-1:     0.015356     0.010633     0.007322
Rotational constants in MHz :   460.368776   318.761607   219.494550

                             ****ORCA TERMINATED NORMALLY****
TOTAL RUN TIME: 0 days 0 hours 0 minutes 22 seconds 301 msec
