                         Program Version 4.2.1 -  RELEASE  -
|  1> ! wB97X-D3 SP def2-SVP
|  2> %pal
|  3> nprocs 24
|  4> end
|  5>
|  6> * xyz 0 1
|  7> S 	 -40.1808 	 -49.5724 	 -69.8474
|  8> C 	 -38.6927 	 -49.3014 	 -68.8818
|  9> C 	 -38.4311 	 -50.4216 	 -68.1671
| 10> C 	 -39.2659 	 -51.5338 	 -68.5463
| 11> C 	 -40.2169 	 -51.2797 	 -69.485
| 12> H 	 -39.2217 	 -52.5982 	 -68.2551
| 13> C 	 -37.3256 	 -50.4661 	 -67.1182
| 14> H 	 -36.4309 	 -49.9559 	 -67.4515
| 15> H 	 -37.1594 	 -51.5412 	 -67.041
| 16> C 	 -37.8258 	 -49.8549 	 -65.7341
| 17> H 	 -38.8794 	 -50.1144 	 -65.5553
| 18> H 	 -37.3333 	 -50.2451 	 -64.8012
| 19> C 	 -37.779 	 -48.2971 	 -65.6881
| 20> H 	 -38.5654 	 -47.7334 	 -66.1688
| 21> H 	 -37.893 	 -47.97 	 -64.6353
| 22> H 	 -36.7987 	 -47.9838 	 -66.0084
| 23> S 	 -42.8912 	 -51.534 	 -70.1089
| 24> C 	 -43.5501 	 -53.126 	 -70.543
| 25> C 	 -42.5482 	 -54.0248 	 -70.6463
| 26> C 	 -41.26 	 -53.4978 	 -70.5441
| 27> C 	 -41.2689 	 -52.1672 	 -70.0076
| 28> H 	 -42.7632 	 -55.075 	 -70.7739
| 29> C 	 -39.9841 	 -54.353 	 -70.6909
| 30> H 	 -39.4419 	 -54.2577 	 -69.7902
| 31> H 	 -39.4496 	 -54.0726 	 -71.6032
| 32> C 	 -40.2081 	 -55.8507 	 -70.8875
| 33> H 	 -40.8213 	 -55.9743 	 -71.8099
| 34> H 	 -40.6646 	 -56.3296 	 -69.9595
| 35> C 	 -38.9156 	 -56.5609 	 -71.3041
| 36> H 	 -39.1657 	 -57.5085 	 -71.7748
| 37> H 	 -38.2091 	 -56.6984 	 -70.4969
| 38> H 	 -38.3786 	 -56.0424 	 -72.12
| 39> H 	 -38.1902 	 -48.2774 	 -68.7076
| 40> H 	 -44.6758 	 -53.353 	 -70.5601
| 41> *
| 42>
| 43>                          ****END OF INPUT****

CARTESIAN COORDINATES (ANGSTROEM)
---------------------------------
  S    -40.180800  -49.572400  -69.847400
  C    -38.692700  -49.301400  -68.881800
  C    -38.431100  -50.421600  -68.167100
  C    -39.265900  -51.533800  -68.546300
  C    -40.216900  -51.279700  -69.485000
  H    -39.221700  -52.598200  -68.255100
  C    -37.325600  -50.466100  -67.118200
  H    -36.430900  -49.955900  -67.451500
  H    -37.159400  -51.541200  -67.041000
  C    -37.825800  -49.854900  -65.734100
  H    -38.879400  -50.114400  -65.555300
  H    -37.333300  -50.245100  -64.801200
  C    -37.779000  -48.297100  -65.688100
  H    -38.565400  -47.733400  -66.168800
  H    -37.893000  -47.970000  -64.635300
  H    -36.798700  -47.983800  -66.008400
  S    -42.891200  -51.534000  -70.108900
  C    -43.550100  -53.126000  -70.543000
  C    -42.548200  -54.024800  -70.646300
  C    -41.260000  -53.497800  -70.544100
  C    -41.268900  -52.167200  -70.007600
  H    -42.763200  -55.075000  -70.773900
  C    -39.984100  -54.353000  -70.690900
  H    -39.441900  -54.257700  -69.790200
  H    -39.449600  -54.072600  -71.603200
  C    -40.208100  -55.850700  -70.887500
  H    -40.821300  -55.974300  -71.809900
  H    -40.664600  -56.329600  -69.959500
  C    -38.915600  -56.560900  -71.304100
  H    -39.165700  -57.508500  -71.774800
  H    -38.209100  -56.698400  -70.496900
  H    -38.378600  -56.042400  -72.120000
  H    -38.190200  -48.277400  -68.707600
  H    -44.675800  -53.353000  -70.560100

 Total Charge           Charge          ....    0
 Multiplicity           Mult            ....    1
 Number of Electrons    NEL             ....  134
 Basis Dimension        Dim             ....  322

ORBITAL ENERGIES
----------------

  NO   OCC          E(Eh)            E(eV)
   0   2.0000     -88.966042     -2420.8891
   1   2.0000     -88.960028     -2420.7254
   2   2.0000     -10.333813      -281.1974
   3   2.0000     -10.330345      -281.1030
   4   2.0000     -10.321645      -280.8662
   5   2.0000     -10.319802      -280.8161
   6   2.0000     -10.306674      -280.4588
   7   2.0000     -10.302276      -280.3392
   8   2.0000     -10.298179      -280.2277
   9   2.0000     -10.296505      -280.1821
  10   2.0000     -10.295519      -280.1553
  11   2.0000     -10.295161      -280.1456
  12   2.0000     -10.290216      -280.0110
  13   2.0000     -10.289175      -279.9827
  14   2.0000     -10.279974      -279.7323
  15   2.0000     -10.279214      -279.7116
  16   2.0000      -8.080445      -219.8801
  17   2.0000      -8.074575      -219.7204
  18   2.0000      -6.038968      -164.3287
  19   2.0000      -6.034927      -164.2187
  20   2.0000      -6.033248      -164.1730
  21   2.0000      -6.031277      -164.1194
  22   2.0000      -6.029166      -164.0619
  23   2.0000      -6.025083      -163.9509
  24   2.0000      -1.006441       -27.3867
  25   2.0000      -0.985199       -26.8086
  26   2.0000      -0.912987       -24.8436
  27   2.0000      -0.905293       -24.6343
  28   2.0000      -0.867415       -23.6036
  29   2.0000      -0.849538       -23.1171
  30   2.0000      -0.839838       -22.8532
  31   2.0000      -0.817537       -22.2463
  32   2.0000      -0.782008       -21.2795
  33   2.0000      -0.771553       -20.9950
  34   2.0000      -0.704949       -19.1826
  35   2.0000      -0.695548       -18.9268
  36   2.0000      -0.694805       -18.9066
  37   2.0000      -0.648608       -17.6495
  38   2.0000      -0.637945       -17.3594
  39   2.0000      -0.615257       -16.7420
  40   2.0000      -0.596944       -16.2437
  41   2.0000      -0.585156       -15.9229
  42   2.0000      -0.566828       -15.4242
  43   2.0000      -0.543348       -14.7852
  44   2.0000      -0.536759       -14.6059
  45   2.0000      -0.525084       -14.2883
  46   2.0000      -0.515569       -14.0293
  47   2.0000      -0.512706       -13.9514
  48   2.0000      -0.500032       -13.6066
  49   2.0000      -0.497207       -13.5297
  50   2.0000      -0.489322       -13.3151
  51   2.0000      -0.480030       -13.0623
  52   2.0000      -0.474608       -12.9147
  53   2.0000      -0.462972       -12.5981
  54   2.0000      -0.462880       -12.5956
  55   2.0000      -0.449888       -12.2421
  56   2.0000      -0.440258       -11.9800
  57   2.0000      -0.435565       -11.8523
  58   2.0000      -0.434434       -11.8215
  59   2.0000      -0.426301       -11.6002
  60   2.0000      -0.417716       -11.3666
  61   2.0000      -0.414980       -11.2922
  62   2.0000      -0.405131       -11.0242
  63   2.0000      -0.352592        -9.5945
  64   2.0000      -0.333570        -9.0769
  65   2.0000      -0.326914        -8.8958
  66   2.0000      -0.289852        -7.8873
  67   0.0000       0.025027         0.6810
  68   0.0000       0.071079         1.9342
  69   0.0000       0.104425         2.8416
  70   0.0000       0.124872         3.3979
  71   0.0000       0.136087         3.7031

MULLIKEN ATOMIC CHARGES
-----------------------
   0 S :    0.082413
   1 C :   -0.147943
   2 C :   -0.097166
   3 C :    0.010548
   4 C :   -0.132566
   5 H :    0.016463
   6 C :    0.089341
   7 H :    0.036681
   8 H :    0.022871
   9 C :   -0.083911
  10 H :    0.032974
  11 H :    0.041642
  12 C :   -0.067503
  13 H :    0.042875
  14 H :    0.030941
  15 H :    0.022839
  16 S :    0.097734
  17 C :   -0.108357
  18 C :   -0.035423
  19 C :   -0.052235
  20 C :   -0.155650
  21 H :    0.024901
  22 C :    0.115597
  23 H :    0.018580
  24 H :    0.037736
  25 C :   -0.160720
  26 H :    0.039633
  27 H :    0.051123
  28 C :   -0.034820
  29 H :    0.031240
  30 H :    0.033456
  31 H :    0.026099
  32 H :    0.084891
  33 H :    0.085716
Sum of atomic charges:   -0.0000000

LOEWDIN ATOMIC CHARGES
----------------------
   0 S :    0.375076
   1 C :   -0.192154
   2 C :   -0.069027
   3 C :   -0.074846
   4 C :   -0.189976
   5 H :    0.034190
   6 C :   -0.024456
   7 H :    0.029665
   8 H :    0.031421
   9 C :   -0.042243
  10 H :    0.027353
  11 H :    0.029508
  12 C :   -0.071994
  13 H :    0.023414
  14 H :    0.031854
  15 H :    0.017798
  16 S :    0.401241
  17 C :   -0.190404
  18 C :   -0.078928
  19 C :   -0.056934
  20 C :   -0.195965
  21 H :    0.034432
  22 C :   -0.027883
  23 H :    0.023253
  24 H :    0.038236
  25 C :   -0.051566
  26 H :    0.028320
  27 H :    0.031312
  28 C :   -0.066144
  29 H :    0.027048
  30 H :    0.021169
  31 H :    0.027473
  32 H :    0.050751
  33 H :    0.049006

  Mayer bond orders larger than 0.100000
B(  0-S ,  1-C ) :   1.1137 B(  0-S ,  4-C ) :   1.1361 B(  1-C ,  2-C ) :   1.6499
B(  1-C , 32-H ) :   0.9536 B(  2-C ,  3-C ) :   1.2120 B(  2-C ,  6-C ) :   1.0103
B(  3-C ,  4-C ) :   1.6187 B(  3-C ,  5-H ) :   0.9852 B(  4-C , 20-C ) :   1.0471
B(  6-C ,  7-H ) :   0.9544 B(  6-C ,  8-H ) :   0.9389 B(  6-C ,  9-C ) :   1.0467
B(  9-C , 10-H ) :   0.9579 B(  9-C , 11-H ) :   0.9638 B(  9-C , 12-C ) :   1.0702
B( 12-C , 13-H ) :   0.9752 B( 12-C , 14-H ) :   0.9720 B( 12-C , 15-H ) :   0.9783
B( 16-S , 17-C ) :   1.1487 B( 16-S , 20-C ) :   1.1618 B( 17-C , 18-C ) :   1.5907
B( 17-C , 20-C ) :   0.1109 B( 17-C , 33-H ) :   0.9535 B( 18-C , 19-C ) :   1.2855
B( 18-C , 21-H ) :   0.9813 B( 19-C , 20-C ) :   1.5430 B( 19-C , 22-C ) :   1.0204
B( 22-C , 23-H ) :   0.9352 B( 22-C , 24-H ) :   0.9237 B( 22-C , 25-C ) :   1.1033
B( 25-C , 26-H ) :   0.9483 B( 25-C , 27-H ) :   0.9481 B( 25-C , 28-C ) :   1.0829
B( 28-C , 29-H ) :   0.9747 B( 28-C , 30-H ) :   0.9750 B( 28-C , 31-H ) :   0.9705

Dispersion correction           -0.013513738
FINAL SINGLE POINT ENERGY     -1339.865996776667

DIPOLE MOMENT
-------------
                                X             Y             Z
Electronic contribution:    -18.05200      12.02351      -9.63594
Nuclear contribution   :     18.39634     -12.58070       9.98897
                        -----------------------------------------
Total Dipole Moment    :      0.34435      -0.55718       0.35303
                        -----------------------------------------
Magnitude (a.u.)       :      0.74408
Magnitude (Debye)      :      1.89131

Rotational constants in cm-1:     0.019851     0.007532     0.006018
Rotational constants in MHz :   595.112491   225.798307   180.429466

                             ****ORCA TERMINATED NORMALLY****
TOTAL RUN TIME: 0 days 0 hours 0 minutes 20 seconds 875 msec
