                         Program Version 4.2.1 -  RELEASE  -
|  1> ! wB97X-D3 SP def2-SVP
|  2> %pal
|  3> nprocs 24
|  4> end
|  5>
|  6> * xyz 0 1
|  7> S 	 -41.9671 	 -5.02651 	 15.2454
|  8> C 	 -42.9484 	 -3.58428 	 15.2398
|  9> C 	 -44.0832 	 -3.76077 	 14.5212
| 10> C 	 -44.0161 	 -4.97603 	 13.8119
| 11> C 	 -42.9106 	 -5.75847 	 13.9287
| 12> H 	 -44.7873 	 -5.28041 	 13.1251
| 13> C 	 -45.1071 	 -2.67476 	 14.2979
| 14> H 	 -45.1713 	 -2.08222 	 15.2094
| 15> H 	 -46.0718 	 -3.1887 	 14.1904
| 16> C 	 -44.9817 	 -1.78299 	 13.0955
| 17> H 	 -43.9113 	 -1.63842 	 13.0301
| 18> H 	 -45.2103 	 -2.28788 	 12.1404
| 19> C 	 -45.8104 	 -0.507537 	 13.3168
| 20> H 	 -46.7747 	 -0.821255 	 13.6809
| 21> H 	 -45.1673 	 0.113831 	 14.0246
| 22> H 	 -46.0305 	 0.0689395 	 12.4042
| 23> S 	 -42.7697 	 -8.45925 	 14.5029
| 24> C 	 -42.4924 	 -9.61454 	 13.2673
| 25> C 	 -42.5232 	 -9.08069 	 12.0088
| 26> C 	 -42.6371 	 -7.60287 	 12.0792
| 27> C 	 -42.8424 	 -7.10636 	 13.3806
| 28> H 	 -42.4608 	 -9.7016 	 11.0992
| 29> C 	 -42.1921 	 -6.70316 	 10.9012
| 30> H 	 -41.2154 	 -7.11655 	 10.6139
| 31> H 	 -42.0639 	 -5.70789 	 11.3373
| 32> C 	 -43.1215 	 -6.71328 	 9.72628
| 33> H 	 -44.0735 	 -6.57729 	 10.0639
| 34> H 	 -43.0186 	 -7.65976 	 9.15739
| 35> C 	 -42.6586 	 -5.6421 	 8.70265
| 36> H 	 -41.6397 	 -5.71466 	 8.40636
| 37> H 	 -42.5942 	 -4.67019 	 9.25267
| 38> H 	 -43.3347 	 -5.47586 	 7.85691
| 39> H 	 -42.8101 	 -2.68004 	 15.7518
| 40> H 	 -42.2649 	 -10.6759 	 13.4901
| 41> *
| 42>
| 43>                          ****END OF INPUT****

CARTESIAN COORDINATES (ANGSTROEM)
---------------------------------
  S    -41.967100   -5.026510   15.245400
  C    -42.948400   -3.584280   15.239800
  C    -44.083200   -3.760770   14.521200
  C    -44.016100   -4.976030   13.811900
  C    -42.910600   -5.758470   13.928700
  H    -44.787300   -5.280410   13.125100
  C    -45.107100   -2.674760   14.297900
  H    -45.171300   -2.082220   15.209400
  H    -46.071800   -3.188700   14.190400
  C    -44.981700   -1.782990   13.095500
  H    -43.911300   -1.638420   13.030100
  H    -45.210300   -2.287880   12.140400
  C    -45.810400   -0.507537   13.316800
  H    -46.774700   -0.821255   13.680900
  H    -45.167300    0.113831   14.024600
  H    -46.030500    0.068939   12.404200
  S    -42.769700   -8.459250   14.502900
  C    -42.492400   -9.614540   13.267300
  C    -42.523200   -9.080690   12.008800
  C    -42.637100   -7.602870   12.079200
  C    -42.842400   -7.106360   13.380600
  H    -42.460800   -9.701600   11.099200
  C    -42.192100   -6.703160   10.901200
  H    -41.215400   -7.116550   10.613900
  H    -42.063900   -5.707890   11.337300
  C    -43.121500   -6.713280    9.726280
  H    -44.073500   -6.577290   10.063900
  H    -43.018600   -7.659760    9.157390
  C    -42.658600   -5.642100    8.702650
  H    -41.639700   -5.714660    8.406360
  H    -42.594200   -4.670190    9.252670
  H    -43.334700   -5.475860    7.856910
  H    -42.810100   -2.680040   15.751800
  H    -42.264900  -10.675900   13.490100

 Total Charge           Charge          ....    0
 Multiplicity           Mult            ....    1
 Number of Electrons    NEL             ....  134
 Basis Dimension        Dim             ....  322

ORBITAL ENERGIES
----------------

  NO   OCC          E(Eh)            E(eV)
   0   2.0000     -88.967170     -2420.9198
   1   2.0000     -88.960514     -2420.7387
   2   2.0000     -10.329379      -281.0767
   3   2.0000     -10.329080      -281.0686
   4   2.0000     -10.318264      -280.7742
   5   2.0000     -10.311405      -280.5876
   6   2.0000     -10.309648      -280.5398
   7   2.0000     -10.299371      -280.2601
   8   2.0000     -10.293825      -280.1092
   9   2.0000     -10.291005      -280.0325
  10   2.0000     -10.289160      -279.9823
  11   2.0000     -10.289110      -279.9809
  12   2.0000     -10.288411      -279.9619
  13   2.0000     -10.285513      -279.8830
  14   2.0000     -10.279493      -279.7192
  15   2.0000     -10.276566      -279.6396
  16   2.0000      -8.081467      -219.9079
  17   2.0000      -8.076175      -219.7639
  18   2.0000      -6.040118      -164.3600
  19   2.0000      -6.036075      -164.2500
  20   2.0000      -6.034741      -164.2136
  21   2.0000      -6.032014      -164.1394
  22   2.0000      -6.030479      -164.0977
  23   2.0000      -6.026889      -164.0000
  24   2.0000      -1.009186       -27.4613
  25   2.0000      -0.986881       -26.8544
  26   2.0000      -0.919580       -25.0230
  27   2.0000      -0.911681       -24.8081
  28   2.0000      -0.875801       -23.8317
  29   2.0000      -0.849047       -23.1037
  30   2.0000      -0.842269       -22.9193
  31   2.0000      -0.818085       -22.2612
  32   2.0000      -0.779486       -21.2109
  33   2.0000      -0.769913       -20.9504
  34   2.0000      -0.710502       -19.3337
  35   2.0000      -0.701713       -19.0946
  36   2.0000      -0.698428       -19.0052
  37   2.0000      -0.655115       -17.8266
  38   2.0000      -0.642890       -17.4939
  39   2.0000      -0.622355       -16.9351
  40   2.0000      -0.591557       -16.0971
  41   2.0000      -0.578688       -15.7469
  42   2.0000      -0.573294       -15.6001
  43   2.0000      -0.565149       -15.3785
  44   2.0000      -0.530039       -14.4231
  45   2.0000      -0.522091       -14.2068
  46   2.0000      -0.520926       -14.1751
  47   2.0000      -0.510836       -13.9006
  48   2.0000      -0.507833       -13.8188
  49   2.0000      -0.501248       -13.6396
  50   2.0000      -0.492817       -13.4102
  51   2.0000      -0.480682       -13.0800
  52   2.0000      -0.468249       -12.7417
  53   2.0000      -0.464331       -12.6351
  54   2.0000      -0.456767       -12.4293
  55   2.0000      -0.448634       -12.2080
  56   2.0000      -0.445556       -12.1242
  57   2.0000      -0.442492       -12.0408
  58   2.0000      -0.439003       -11.9459
  59   2.0000      -0.423643       -11.5279
  60   2.0000      -0.417860       -11.3705
  61   2.0000      -0.412160       -11.2154
  62   2.0000      -0.407993       -11.1020
  63   2.0000      -0.345848        -9.4110
  64   2.0000      -0.331055        -9.0085
  65   2.0000      -0.324651        -8.8342
  66   2.0000      -0.301330        -8.1996
  67   0.0000       0.034557         0.9403
  68   0.0000       0.064411         1.7527
  69   0.0000       0.112826         3.0702
  70   0.0000       0.117754         3.2042
  71   0.0000       0.132512         3.6058

MULLIKEN ATOMIC CHARGES
-----------------------
   0 S :    0.110908
   1 C :   -0.088917
   2 C :   -0.075220
   3 C :    0.020800
   4 C :   -0.134057
   5 H :    0.003631
   6 C :    0.041942
   7 H :    0.021102
   8 H :    0.024175
   9 C :   -0.050014
  10 H :    0.018713
  11 H :    0.026611
  12 C :   -0.057614
  13 H :    0.032950
  14 H :    0.050909
  15 H :    0.040193
  16 S :    0.099340
  17 C :   -0.105563
  18 C :   -0.026878
  19 C :   -0.062882
  20 C :   -0.164019
  21 H :    0.036007
  22 C :    0.030274
  23 H :    0.035763
  24 H :    0.032299
  25 C :   -0.031613
  26 H :    0.010477
  27 H :    0.032430
  28 C :   -0.040895
  29 H :    0.018351
  30 H :    0.013067
  31 H :    0.042004
  32 H :    0.022246
  33 H :    0.073482
Sum of atomic charges:    0.0000000

LOEWDIN ATOMIC CHARGES
----------------------
   0 S :    0.394872
   1 C :   -0.175290
   2 C :   -0.073754
   3 C :   -0.050091
   4 C :   -0.199327
   5 H :    0.026905
   6 C :   -0.034098
   7 H :    0.029393
   8 H :    0.031945
   9 C :   -0.046134
  10 H :    0.019557
  11 H :    0.024049
  12 C :   -0.063831
  13 H :    0.023408
  14 H :    0.037773
  15 H :    0.028241
  16 S :    0.406858
  17 C :   -0.193828
  18 C :   -0.080464
  19 C :   -0.049761
  20 C :   -0.201342
  21 H :    0.037740
  22 C :   -0.027023
  23 H :    0.034305
  24 H :    0.029861
  25 C :   -0.032609
  26 H :    0.010745
  27 H :    0.028341
  28 C :   -0.067884
  29 H :    0.020584
  30 H :    0.025801
  31 H :    0.025933
  32 H :    0.021534
  33 H :    0.037589

  Mayer bond orders larger than 0.100000
B(  0-S ,  1-C ) :   1.1464 B(  0-S ,  4-C ) :   1.1134 B(  1-C ,  2-C ) :   1.6042
B(  1-C , 32-H ) :   0.9705 B(  2-C ,  3-C ) :   1.2477 B(  2-C ,  6-C ) :   1.0398
B(  3-C ,  4-C ) :   1.5780 B(  3-C ,  5-H ) :   0.9976 B(  4-C , 20-C ) :   1.0517
B(  6-C ,  7-H ) :   0.9423 B(  6-C ,  8-H ) :   0.9251 B(  6-C ,  9-C ) :   1.0550
B(  9-C , 10-H ) :   0.9608 B(  9-C , 11-H ) :   0.9510 B(  9-C , 12-C ) :   1.0653
B( 12-C , 13-H ) :   0.9749 B( 12-C , 14-H ) :   0.9763 B( 12-C , 15-H ) :   0.9752
B( 16-S , 17-C ) :   1.1651 B( 16-S , 20-C ) :   1.1216 B( 17-C , 18-C ) :   1.6293
B( 17-C , 33-H ) :   0.9604 B( 18-C , 19-C ) :   1.2141 B( 18-C , 21-H ) :   0.9868
B( 19-C , 20-C ) :   1.6202 B( 19-C , 22-C ) :   1.0375 B( 22-C , 23-H ) :   0.9393
B( 22-C , 24-H ) :   0.9417 B( 22-C , 25-C ) :   1.0648 B( 25-C , 26-H ) :   0.9599
B( 25-C , 27-H ) :   0.9523 B( 25-C , 28-C ) :   1.0819 B( 28-C , 29-H ) :   0.9708
B( 28-C , 30-H ) :   0.9725 B( 28-C , 31-H ) :   0.9757

Dispersion correction           -0.013544150
FINAL SINGLE POINT ENERGY     -1339.866353705730

DIPOLE MOMENT
-------------
                                X             Y             Z
Electronic contribution:     10.12439     -19.50961      21.36355
Nuclear contribution   :    -10.36148      19.80765     -21.86221
                        -----------------------------------------
Total Dipole Moment    :     -0.23709       0.29804      -0.49865
                        -----------------------------------------
Magnitude (a.u.)       :      0.62745
Magnitude (Debye)      :      1.59485

Rotational constants in cm-1:     0.017247     0.008564     0.006306
Rotational constants in MHz :   517.057459   256.746849   189.055894

                             ****ORCA TERMINATED NORMALLY****
TOTAL RUN TIME: 0 days 0 hours 0 minutes 21 seconds 165 msec
