                         Program Version 4.2.1 -  RELEASE  -
|  1> ! wB97X-D3 SP def2-SVP
|  2> %pal
|  3> nprocs 24
|  4> end
|  5>
|  6> * xyz 0 1
|  7> S 	 -40.8379 	 20.0231 	 21.4013
|  8> C 	 -41.6836 	 18.7366 	 22.1975
|  9> C 	 -41.5377 	 18.7537 	 23.5698
| 10> C 	 -40.5022 	 19.7 	 23.9288
| 11> C 	 -40.0709 	 20.4974 	 22.8847
| 12> H 	 -40.1731 	 19.901 	 24.9246
| 13> C 	 -42.0332 	 17.7686 	 24.6287
| 14> H 	 -41.8093 	 18.1473 	 25.6547
| 15> H 	 -41.5513 	 16.8178 	 24.4252
| 16> C 	 -43.5309 	 17.5617 	 24.5089
| 17> H 	 -44.0551 	 18.4559 	 24.6103
| 18> H 	 -43.8089 	 17.1427 	 23.5714
| 19> C 	 -44.1171 	 16.4924 	 25.415
| 20> H 	 -45.2294 	 16.513 	 25.3634
| 21> H 	 -43.7991 	 15.5187 	 25.1856
| 22> H 	 -43.878 	 16.7289 	 26.4919
| 23> S 	 -39.2624 	 23.0056 	 22.1351
| 24> C 	 -37.69 	 23.5694 	 22.7108
| 25> C 	 -37.0331 	 22.643 	 23.4595
| 26> C 	 -37.7803 	 21.4271 	 23.6345
| 27> C 	 -39.0241 	 21.4713 	 22.9974
| 28> H 	 -36.1263 	 22.839 	 23.9403
| 29> C 	 -37.2737 	 20.1861 	 24.4528
| 30> H 	 -37.2284 	 19.3399 	 23.7713
| 31> H 	 -38.0703 	 19.9861 	 25.2328
| 32> C 	 -35.8906 	 20.3368 	 25.1993
| 33> H 	 -35.176 	 20.7364 	 24.4608
| 34> H 	 -35.5213 	 19.3347 	 25.4941
| 35> C 	 -36.0393 	 21.227 	 26.4299
| 36> H 	 -36.6517 	 22.0934 	 26.1962
| 37> H 	 -34.9574 	 21.5754 	 26.7031
| 38> H 	 -36.4736 	 20.7985 	 27.3539
| 39> H 	 -42.3364 	 18.0942 	 21.6083
| 40> H 	 -37.2354 	 24.4738 	 22.3195
| 41> *
| 42>
| 43>                          ****END OF INPUT****

CARTESIAN COORDINATES (ANGSTROEM)
---------------------------------
  S    -40.837900   20.023100   21.401300
  C    -41.683600   18.736600   22.197500
  C    -41.537700   18.753700   23.569800
  C    -40.502200   19.700000   23.928800
  C    -40.070900   20.497400   22.884700
  H    -40.173100   19.901000   24.924600
  C    -42.033200   17.768600   24.628700
  H    -41.809300   18.147300   25.654700
  H    -41.551300   16.817800   24.425200
  C    -43.530900   17.561700   24.508900
  H    -44.055100   18.455900   24.610300
  H    -43.808900   17.142700   23.571400
  C    -44.117100   16.492400   25.415000
  H    -45.229400   16.513000   25.363400
  H    -43.799100   15.518700   25.185600
  H    -43.878000   16.728900   26.491900
  S    -39.262400   23.005600   22.135100
  C    -37.690000   23.569400   22.710800
  C    -37.033100   22.643000   23.459500
  C    -37.780300   21.427100   23.634500
  C    -39.024100   21.471300   22.997400
  H    -36.126300   22.839000   23.940300
  C    -37.273700   20.186100   24.452800
  H    -37.228400   19.339900   23.771300
  H    -38.070300   19.986100   25.232800
  C    -35.890600   20.336800   25.199300
  H    -35.176000   20.736400   24.460800
  H    -35.521300   19.334700   25.494100
  C    -36.039300   21.227000   26.429900
  H    -36.651700   22.093400   26.196200
  H    -34.957400   21.575400   26.703100
  H    -36.473600   20.798500   27.353900
  H    -42.336400   18.094200   21.608300
  H    -37.235400   24.473800   22.319500

 Total Charge           Charge          ....    0
 Multiplicity           Mult            ....    1
 Number of Electrons    NEL             ....  134
 Basis Dimension        Dim             ....  322

ORBITAL ENERGIES
----------------

  NO   OCC          E(Eh)            E(eV)
   0   2.0000     -88.966649     -2420.9056
   1   2.0000     -88.963638     -2420.8237
   2   2.0000     -10.325442      -280.9696
   3   2.0000     -10.323649      -280.9208
   4   2.0000     -10.316483      -280.7258
   5   2.0000     -10.315096      -280.6880
   6   2.0000     -10.307638      -280.4851
   7   2.0000     -10.303294      -280.3669
   8   2.0000     -10.300512      -280.2912
   9   2.0000     -10.297037      -280.1966
  10   2.0000     -10.295831      -280.1638
  11   2.0000     -10.290888      -280.0293
  12   2.0000     -10.290335      -280.0143
  13   2.0000     -10.287631      -279.9407
  14   2.0000     -10.278159      -279.6829
  15   2.0000     -10.275140      -279.6008
  16   2.0000      -8.081969      -219.9215
  17   2.0000      -8.077992      -219.8133
  18   2.0000      -6.040453      -164.3691
  19   2.0000      -6.036503      -164.2616
  20   2.0000      -6.036376      -164.2581
  21   2.0000      -6.032750      -164.1595
  22   2.0000      -6.032623      -164.1560
  23   2.0000      -6.028727      -164.0500
  24   2.0000      -1.006375       -27.3848
  25   2.0000      -0.981460       -26.7069
  26   2.0000      -0.917022       -24.9534
  27   2.0000      -0.901227       -24.5236
  28   2.0000      -0.873097       -23.7582
  29   2.0000      -0.853488       -23.2246
  30   2.0000      -0.841837       -22.9075
  31   2.0000      -0.811999       -22.0956
  32   2.0000      -0.782284       -21.2870
  33   2.0000      -0.768870       -20.9220
  34   2.0000      -0.706416       -19.2226
  35   2.0000      -0.701212       -19.0809
  36   2.0000      -0.691028       -18.8038
  37   2.0000      -0.661068       -17.9886
  38   2.0000      -0.644721       -17.5438
  39   2.0000      -0.616685       -16.7809
  40   2.0000      -0.594662       -16.1816
  41   2.0000      -0.579257       -15.7624
  42   2.0000      -0.562648       -15.3104
  43   2.0000      -0.548233       -14.9182
  44   2.0000      -0.536435       -14.5971
  45   2.0000      -0.522210       -14.2101
  46   2.0000      -0.520180       -14.1548
  47   2.0000      -0.511464       -13.9176
  48   2.0000      -0.502943       -13.6858
  49   2.0000      -0.498682       -13.5698
  50   2.0000      -0.494960       -13.4685
  51   2.0000      -0.477785       -13.0012
  52   2.0000      -0.476442       -12.9646
  53   2.0000      -0.466885       -12.7046
  54   2.0000      -0.460533       -12.5318
  55   2.0000      -0.447767       -12.1844
  56   2.0000      -0.441919       -12.0252
  57   2.0000      -0.440448       -11.9852
  58   2.0000      -0.437720       -11.9110
  59   2.0000      -0.424919       -11.5626
  60   2.0000      -0.418400       -11.3852
  61   2.0000      -0.415623       -11.3097
  62   2.0000      -0.409231       -11.1357
  63   2.0000      -0.350300        -9.5322
  64   2.0000      -0.332295        -9.0422
  65   2.0000      -0.330472        -8.9926
  66   2.0000      -0.286952        -7.8084
  67   0.0000       0.027920         0.7597
  68   0.0000       0.072029         1.9600
  69   0.0000       0.107231         2.9179
  70   0.0000       0.122674         3.3381
  71   0.0000       0.136341         3.7100

MULLIKEN ATOMIC CHARGES
-----------------------
   0 S :    0.120088
   1 C :   -0.148312
   2 C :   -0.048418
   3 C :   -0.013215
   4 C :   -0.116434
   5 H :    0.005261
   6 C :    0.083568
   7 H :    0.030752
   8 H :    0.039962
   9 C :   -0.073628
  10 H :    0.019350
  11 H :    0.013212
  12 C :   -0.046280
  13 H :    0.035641
  14 H :    0.022744
  15 H :    0.023994
  16 S :    0.089691
  17 C :   -0.079858
  18 C :   -0.014222
  19 C :   -0.053076
  20 C :   -0.165100
  21 H :   -0.000105
  22 C :    0.033408
  23 H :    0.047241
  24 H :    0.038487
  25 C :   -0.069480
  26 H :    0.040436
  27 H :    0.038497
  28 C :   -0.092995
  29 H :    0.040538
  30 H :    0.043065
  31 H :    0.043353
  32 H :    0.053223
  33 H :    0.058612
Sum of atomic charges:   -0.0000000

LOEWDIN ATOMIC CHARGES
----------------------
   0 S :    0.418629
   1 C :   -0.199431
   2 C :   -0.060173
   3 C :   -0.056894
   4 C :   -0.205108
   5 H :    0.023819
   6 C :   -0.023650
   7 H :    0.034017
   8 H :    0.035947
   9 C :   -0.040671
  10 H :    0.017934
  11 H :    0.020225
  12 C :   -0.061994
  13 H :    0.031218
  14 H :    0.014342
  15 H :    0.023740
  16 S :    0.381106
  17 C :   -0.174644
  18 C :   -0.069003
  19 C :   -0.053488
  20 C :   -0.189007
  21 H :    0.023164
  22 C :   -0.031947
  23 H :    0.033569
  24 H :    0.033360
  25 C :   -0.046692
  26 H :    0.025800
  27 H :    0.030303
  28 C :   -0.077874
  29 H :    0.023211
  30 H :    0.036613
  31 H :    0.028898
  32 H :    0.025362
  33 H :    0.029321

  Mayer bond orders larger than 0.100000
B(  0-S ,  1-C ) :   1.1502 B(  0-S ,  4-C ) :   1.1439 B(  1-C ,  2-C ) :   1.5952
B(  1-C , 32-H ) :   0.9680 B(  2-C ,  3-C ) :   1.2343 B(  2-C ,  6-C ) :   1.0202
B(  3-C ,  4-C ) :   1.5685 B(  3-C ,  5-H ) :   0.9975 B(  4-C , 20-C ) :   1.0680
B(  6-C ,  7-H ) :   0.9436 B(  6-C ,  8-H ) :   0.9376 B(  6-C ,  9-C ) :   1.0693
B(  9-C , 10-H ) :   0.9603 B(  9-C , 11-H ) :   0.9517 B(  9-C , 12-C ) :   1.0887
B( 12-C , 13-H ) :   0.9733 B( 12-C , 14-H ) :   0.9760 B( 12-C , 15-H ) :   0.9724
B( 16-S , 17-C ) :   1.1444 B( 16-S , 20-C ) :   1.1298 B( 17-C , 18-C ) :   1.6194
B( 17-C , 33-H ) :   0.9622 B( 18-C , 19-C ) :   1.2421 B( 18-C , 21-H ) :   0.9913
B( 19-C , 20-C ) :   1.6126 B( 19-C , 22-C ) :   1.0073 B( 22-C , 23-H ) :   0.9358
B( 22-C , 24-H ) :   0.9410 B( 22-C , 25-C ) :   1.0754 B( 25-C , 26-H ) :   0.9550
B( 25-C , 27-H ) :   0.9535 B( 25-C , 28-C ) :   1.0655 B( 28-C , 29-H ) :   0.9785
B( 28-C , 30-H ) :   0.9745 B( 28-C , 31-H ) :   0.9727

Dispersion correction           -0.013706769
FINAL SINGLE POINT ENERGY     -1339.884089365995

DIPOLE MOMENT
-------------
                                X             Y             Z
Electronic contribution:     -0.52437      16.46752     -22.59285
Nuclear contribution   :      0.69478     -16.92568      23.05629
                        -----------------------------------------
Total Dipole Moment    :      0.17041      -0.45816       0.46344
                        -----------------------------------------
Magnitude (a.u.)       :      0.67360
Magnitude (Debye)      :      1.71215

Rotational constants in cm-1:     0.020063     0.007572     0.005912
Rotational constants in MHz :   601.479086   227.013294   177.232996

                             ****ORCA TERMINATED NORMALLY****
TOTAL RUN TIME: 0 days 0 hours 0 minutes 21 seconds 210 msec
