                         Program Version 4.2.1 -  RELEASE  -
|  1> ! wB97X-D3 SP def2-SVP
|  2> %pal
|  3> nprocs 24
|  4> end
|  5>
|  6> * xyz 0 1
|  7> S 	 -126.342 	 63.9017 	 -39.214
|  8> C 	 -125.101 	 63.0734 	 -40.1047
|  9> C 	 -123.883 	 63.7258 	 -40.1174
| 10> C 	 -124.049 	 64.9294 	 -39.3933
| 11> C 	 -125.276 	 65.2435 	 -38.9614
| 12> H 	 -123.336 	 65.7691 	 -39.2283
| 13> C 	 -122.671 	 63.1894 	 -40.7651
| 14> H 	 -122.628 	 62.0487 	 -40.5983
| 15> H 	 -121.875 	 63.7305 	 -40.1819
| 16> C 	 -122.607 	 63.5059 	 -42.3349
| 17> H 	 -121.633 	 63.1259 	 -42.7051
| 18> H 	 -123.406 	 62.9143 	 -42.8242
| 19> C 	 -122.861 	 64.9764 	 -42.8037
| 20> H 	 -122.14 	 65.6409 	 -42.2906
| 21> H 	 -122.555 	 65.1165 	 -43.8645
| 22> H 	 -123.818 	 65.4607 	 -42.5979
| 23> S 	 -126.385 	 66.0338 	 -36.6058
| 24> C 	 -126.357 	 67.7024 	 -36.1661
| 25> C 	 -125.904 	 68.4904 	 -37.1817
| 26> C 	 -125.285 	 67.7597 	 -38.2647
| 27> C 	 -125.61 	 66.4369 	 -38.1043
| 28> H 	 -125.952 	 69.5617 	 -37.2458
| 29> C 	 -124.713 	 68.3589 	 -39.4962
| 30> H 	 -125.185 	 69.2596 	 -39.723
| 31> H 	 -125.108 	 67.8196 	 -40.2894
| 32> C 	 -123.165 	 68.6844 	 -39.4654
| 33> H 	 -122.669 	 67.8953 	 -38.948
| 34> H 	 -123.026 	 69.5846 	 -38.8075
| 35> C 	 -122.591 	 68.7733 	 -40.9677
| 36> H 	 -123.024 	 69.6272 	 -41.4392
| 37> H 	 -122.741 	 67.9263 	 -41.533
| 38> H 	 -121.517 	 68.9227 	 -40.999
| 39> H 	 -125.184 	 62.1318 	 -40.5467
| 40> H 	 -126.708 	 68.1358 	 -35.2292
| 41> *
| 42>
| 43>                          ****END OF INPUT****

CARTESIAN COORDINATES (ANGSTROEM)
---------------------------------
  S    -126.342000   63.901700  -39.214000
  C    -125.101000   63.073400  -40.104700
  C    -123.883000   63.725800  -40.117400
  C    -124.049000   64.929400  -39.393300
  C    -125.276000   65.243500  -38.961400
  H    -123.336000   65.769100  -39.228300
  C    -122.671000   63.189400  -40.765100
  H    -122.628000   62.048700  -40.598300
  H    -121.875000   63.730500  -40.181900
  C    -122.607000   63.505900  -42.334900
  H    -121.633000   63.125900  -42.705100
  H    -123.406000   62.914300  -42.824200
  C    -122.861000   64.976400  -42.803700
  H    -122.140000   65.640900  -42.290600
  H    -122.555000   65.116500  -43.864500
  H    -123.818000   65.460700  -42.597900
  S    -126.385000   66.033800  -36.605800
  C    -126.357000   67.702400  -36.166100
  C    -125.904000   68.490400  -37.181700
  C    -125.285000   67.759700  -38.264700
  C    -125.610000   66.436900  -38.104300
  H    -125.952000   69.561700  -37.245800
  C    -124.713000   68.358900  -39.496200
  H    -125.185000   69.259600  -39.723000
  H    -125.108000   67.819600  -40.289400
  C    -123.165000   68.684400  -39.465400
  H    -122.669000   67.895300  -38.948000
  H    -123.026000   69.584600  -38.807500
  C    -122.591000   68.773300  -40.967700
  H    -123.024000   69.627200  -41.439200
  H    -122.741000   67.926300  -41.533000
  H    -121.517000   68.922700  -40.999000
  H    -125.184000   62.131800  -40.546700
  H    -126.708000   68.135800  -35.229200

 Total Charge           Charge          ....    0
 Multiplicity           Mult            ....    1
 Number of Electrons    NEL             ....  134
 Basis Dimension        Dim             ....  322

ORBITAL ENERGIES
----------------

  NO   OCC          E(Eh)            E(eV)
   0   2.0000     -88.965830     -2420.8833
   1   2.0000     -88.965250     -2420.8675
   2   2.0000     -10.325043      -280.9587
   3   2.0000     -10.320773      -280.8425
   4   2.0000     -10.311985      -280.6034
   5   2.0000     -10.306511      -280.4544
   6   2.0000     -10.305194      -280.4186
   7   2.0000     -10.301954      -280.3304
   8   2.0000     -10.298788      -280.2443
   9   2.0000     -10.297790      -280.2171
  10   2.0000     -10.295779      -280.1624
  11   2.0000     -10.290403      -280.0161
  12   2.0000     -10.286681      -279.9148
  13   2.0000     -10.285727      -279.8889
  14   2.0000     -10.281453      -279.7726
  15   2.0000     -10.277033      -279.6523
  16   2.0000      -8.081318      -219.9039
  17   2.0000      -8.080437      -219.8799
  18   2.0000      -6.039819      -164.3518
  19   2.0000      -6.038870      -164.3260
  20   2.0000      -6.035825      -164.2431
  21   2.0000      -6.034936      -164.2190
  22   2.0000      -6.031946      -164.1376
  23   2.0000      -6.031218      -164.1178
  24   2.0000      -1.013053       -27.5666
  25   2.0000      -0.991529       -26.9809
  26   2.0000      -0.907498       -24.6943
  27   2.0000      -0.906473       -24.6664
  28   2.0000      -0.863258       -23.4904
  29   2.0000      -0.851448       -23.1691
  30   2.0000      -0.844726       -22.9862
  31   2.0000      -0.817817       -22.2539
  32   2.0000      -0.786274       -21.3956
  33   2.0000      -0.774100       -21.0643
  34   2.0000      -0.716028       -19.4841
  35   2.0000      -0.705988       -19.2109
  36   2.0000      -0.692982       -18.8570
  37   2.0000      -0.665071       -18.0975
  38   2.0000      -0.640650       -17.4330
  39   2.0000      -0.611331       -16.6352
  40   2.0000      -0.599288       -16.3075
  41   2.0000      -0.566757       -15.4223
  42   2.0000      -0.558548       -15.1989
  43   2.0000      -0.540150       -14.6982
  44   2.0000      -0.537858       -14.6358
  45   2.0000      -0.525506       -14.2997
  46   2.0000      -0.516862       -14.0645
  47   2.0000      -0.507376       -13.8064
  48   2.0000      -0.505804       -13.7636
  49   2.0000      -0.497649       -13.5417
  50   2.0000      -0.492021       -13.3886
  51   2.0000      -0.479842       -13.0572
  52   2.0000      -0.472835       -12.8665
  53   2.0000      -0.468163       -12.7394
  54   2.0000      -0.454734       -12.3739
  55   2.0000      -0.450639       -12.2625
  56   2.0000      -0.447629       -12.1806
  57   2.0000      -0.444088       -12.0843
  58   2.0000      -0.433576       -11.7982
  59   2.0000      -0.428342       -11.6558
  60   2.0000      -0.425476       -11.5778
  61   2.0000      -0.418925       -11.3995
  62   2.0000      -0.413690       -11.2571
  63   2.0000      -0.348627        -9.4866
  64   2.0000      -0.330985        -9.0066
  65   2.0000      -0.329539        -8.9672
  66   2.0000      -0.292114        -7.9488
  67   0.0000       0.038643         1.0515
  68   0.0000       0.072321         1.9679
  69   0.0000       0.113938         3.1004
  70   0.0000       0.119849         3.2613
  71   0.0000       0.133672         3.6374

MULLIKEN ATOMIC CHARGES
-----------------------
   0 S :    0.110062
   1 C :   -0.092898
   2 C :   -0.071831
   3 C :    0.013466
   4 C :   -0.153426
   5 H :   -0.004033
   6 C :    0.029181
   7 H :    0.053450
   8 H :    0.039611
   9 C :   -0.065611
  10 H :    0.040722
  11 H :    0.035734
  12 C :   -0.089477
  13 H :    0.025287
  14 H :    0.042649
  15 H :    0.058815
  16 S :    0.118193
  17 C :   -0.084729
  18 C :   -0.009483
  19 C :   -0.072006
  20 C :   -0.148202
  21 H :    0.007117
  22 C :    0.090974
  23 H :   -0.005790
  24 H :    0.010867
  25 C :   -0.078212
  26 H :    0.030832
  27 H :    0.040533
  28 C :   -0.010625
  29 H :    0.027322
  30 H :    0.012052
  31 H :    0.029148
  32 H :    0.014854
  33 H :    0.055456
Sum of atomic charges:    0.0000000

LOEWDIN ATOMIC CHARGES
----------------------
   0 S :    0.408969
   1 C :   -0.186779
   2 C :   -0.071583
   3 C :   -0.074146
   4 C :   -0.205316
   5 H :    0.034265
   6 C :   -0.039343
   7 H :    0.045459
   8 H :    0.038063
   9 C :   -0.037625
  10 H :    0.027556
  11 H :    0.025877
  12 C :   -0.078944
  13 H :    0.022265
  14 H :    0.034547
  15 H :    0.029126
  16 S :    0.418740
  17 C :   -0.199314
  18 C :   -0.063125
  19 C :   -0.060779
  20 C :   -0.187521
  21 H :    0.026564
  22 C :   -0.033340
  23 H :    0.025671
  24 H :    0.027105
  25 C :   -0.026038
  26 H :    0.011834
  27 H :    0.031746
  28 C :   -0.053651
  29 H :    0.023378
  30 H :    0.013752
  31 H :    0.027146
  32 H :    0.013493
  33 H :    0.031952

  Mayer bond orders larger than 0.100000
B(  0-S ,  1-C ) :   1.1484 B(  0-S ,  4-C ) :   1.1391 B(  1-C ,  2-C ) :   1.6018
B(  1-C , 32-H ) :   0.9690 B(  2-C ,  3-C ) :   1.2318 B(  2-C ,  6-C ) :   1.0157
B(  3-C ,  4-C ) :   1.6170 B(  3-C ,  5-H ) :   0.9821 B(  4-C , 20-C ) :   0.9881
B(  6-C ,  7-H ) :   0.9424 B(  6-C ,  8-H ) :   0.9401 B(  6-C ,  9-C ) :   1.0539
B(  9-C , 10-H ) :   0.9592 B(  9-C , 11-H ) :   0.9573 B(  9-C , 12-C ) :   1.0710
B( 12-C , 13-H ) :   0.9708 B( 12-C , 14-H ) :   0.9704 B( 12-C , 15-H ) :   0.9742
B( 16-S , 17-C ) :   1.1391 B( 16-S , 20-C ) :   1.1536 B( 17-C , 18-C ) :   1.6241
B( 17-C , 33-H ) :   0.9667 B( 18-C , 19-C ) :   1.2290 B( 18-C , 21-H ) :   0.9859
B( 19-C , 20-C ) :   1.6252 B( 19-C , 22-C ) :   1.0509 B( 22-C , 23-H ) :   0.9250
B( 22-C , 24-H ) :   0.9401 B( 22-C , 25-C ) :   1.0198 B( 25-C , 26-H ) :   0.9661
B( 25-C , 27-H ) :   0.9563 B( 25-C , 28-C ) :   1.0629 B( 28-C , 29-H ) :   0.9758
B( 28-C , 30-H ) :   0.9780 B( 28-C , 31-H ) :   0.9760

Dispersion correction           -0.015745658
FINAL SINGLE POINT ENERGY     -1339.861425991346

DIPOLE MOMENT
-------------
                                X             Y             Z
Electronic contribution:    -21.40112      -9.32106      21.33957
Nuclear contribution   :     21.87404       9.62879     -21.74741
                        -----------------------------------------
Total Dipole Moment    :      0.47293       0.30773      -0.40785
                        -----------------------------------------
Magnitude (a.u.)       :      0.69620
Magnitude (Debye)      :      1.76960

Rotational constants in cm-1:     0.017981     0.010580     0.007130
Rotational constants in MHz :   539.055507   317.185740   213.759809

                             ****ORCA TERMINATED NORMALLY****
TOTAL RUN TIME: 0 days 0 hours 0 minutes 22 seconds 899 msec
