                         Program Version 4.2.1 -  RELEASE  -
|  1> ! wB97X-D3 SP def2-SVP
|  2> %pal
|  3> nprocs 24
|  4> end
|  5>
|  6> * xyz 0 1
|  7> S 	 -101.821 	 61.6408 	 -104.917
|  8> C 	 -101.362 	 60.1632 	 -104.142
|  9> C 	 -102.296 	 59.1768 	 -104.367
| 10> C 	 -103.519 	 59.6994 	 -104.932
| 11> C 	 -103.465 	 61.0629 	 -105.143
| 12> H 	 -104.295 	 59.1035 	 -105.37
| 13> C 	 -102.057 	 57.6695 	 -104.203
| 14> H 	 -102.971 	 57.2026 	 -103.912
| 15> H 	 -101.424 	 57.5502 	 -103.36
| 16> C 	 -101.461 	 56.8959 	 -105.342
| 17> H 	 -100.582 	 57.3738 	 -105.844
| 18> H 	 -101.21 	 55.9032 	 -104.999
| 19> C 	 -102.526 	 56.7956 	 -106.523
| 20> H 	 -102.461 	 57.6631 	 -107.172
| 21> H 	 -102.438 	 55.9254 	 -107.121
| 22> H 	 -103.501 	 56.7874 	 -106.094
| 23> S 	 -104.084 	 63.5183 	 -106.038
| 24> C 	 -105.729 	 64.072 	 -106.288
| 25> C 	 -106.618 	 63.1416 	 -105.7
| 26> C 	 -105.957 	 61.9071 	 -105.261
| 27> C 	 -104.571 	 61.9805 	 -105.478
| 28> H 	 -107.644 	 63.4025 	 -105.636
| 29> C 	 -106.765 	 60.8666 	 -104.438
| 30> H 	 -107.477 	 61.3682 	 -103.78
| 31> H 	 -106.06 	 60.3523 	 -103.827
| 32> C 	 -107.61 	 59.968 	 -105.372
| 33> H 	 -106.971 	 59.7054 	 -106.204
| 34> H 	 -108.427 	 60.5577 	 -105.821
| 35> C 	 -108.236 	 58.7381 	 -104.661
| 36> H 	 -108.733 	 59.0385 	 -103.727
| 37> H 	 -107.533 	 57.941 	 -104.451
| 38> H 	 -109.116 	 58.4554 	 -105.254
| 39> H 	 -100.371 	 59.9276 	 -103.656
| 40> H 	 -106.037 	 65.0543 	 -106.578
| 41> *
| 42>
| 43>                          ****END OF INPUT****

CARTESIAN COORDINATES (ANGSTROEM)
---------------------------------
  S    -101.821000   61.640800  -104.917000
  C    -101.362000   60.163200  -104.142000
  C    -102.296000   59.176800  -104.367000
  C    -103.519000   59.699400  -104.932000
  C    -103.465000   61.062900  -105.143000
  H    -104.295000   59.103500  -105.370000
  C    -102.057000   57.669500  -104.203000
  H    -102.971000   57.202600  -103.912000
  H    -101.424000   57.550200  -103.360000
  C    -101.461000   56.895900  -105.342000
  H    -100.582000   57.373800  -105.844000
  H    -101.210000   55.903200  -104.999000
  C    -102.526000   56.795600  -106.523000
  H    -102.461000   57.663100  -107.172000
  H    -102.438000   55.925400  -107.121000
  H    -103.501000   56.787400  -106.094000
  S    -104.084000   63.518300  -106.038000
  C    -105.729000   64.072000  -106.288000
  C    -106.618000   63.141600  -105.700000
  C    -105.957000   61.907100  -105.261000
  C    -104.571000   61.980500  -105.478000
  H    -107.644000   63.402500  -105.636000
  C    -106.765000   60.866600  -104.438000
  H    -107.477000   61.368200  -103.780000
  H    -106.060000   60.352300  -103.827000
  C    -107.610000   59.968000  -105.372000
  H    -106.971000   59.705400  -106.204000
  H    -108.427000   60.557700  -105.821000
  C    -108.236000   58.738100  -104.661000
  H    -108.733000   59.038500  -103.727000
  H    -107.533000   57.941000  -104.451000
  H    -109.116000   58.455400  -105.254000
  H    -100.371000   59.927600  -103.656000
  H    -106.037000   65.054300  -106.578000

 Total Charge           Charge          ....    0
 Multiplicity           Mult            ....    1
 Number of Electrons    NEL             ....  134
 Basis Dimension        Dim             ....  322

ORBITAL ENERGIES
----------------

  NO   OCC          E(Eh)            E(eV)
   0   2.0000     -88.967469     -2420.9279
   1   2.0000     -88.965763     -2420.8815
   2   2.0000     -10.333736      -281.1953
   3   2.0000     -10.331352      -281.1304
   4   2.0000     -10.319766      -280.8151
   5   2.0000     -10.317161      -280.7442
   6   2.0000     -10.310975      -280.5759
   7   2.0000     -10.301803      -280.3263
   8   2.0000     -10.299105      -280.2529
   9   2.0000     -10.293093      -280.0893
  10   2.0000     -10.292146      -280.0635
  11   2.0000     -10.290061      -280.0068
  12   2.0000     -10.287649      -279.9411
  13   2.0000     -10.286435      -279.9081
  14   2.0000     -10.281127      -279.7637
  15   2.0000     -10.270656      -279.4788
  16   2.0000      -8.082536      -219.9370
  17   2.0000      -8.081296      -219.9033
  18   2.0000      -6.041174      -164.3887
  19   2.0000      -6.039850      -164.3527
  20   2.0000      -6.037236      -164.2815
  21   2.0000      -6.035683      -164.2393
  22   2.0000      -6.032900      -164.1635
  23   2.0000      -6.031991      -164.1388
  24   2.0000      -1.009198       -27.4617
  25   2.0000      -0.984161       -26.7804
  26   2.0000      -0.912563       -24.8321
  27   2.0000      -0.904837       -24.6219
  28   2.0000      -0.867466       -23.6050
  29   2.0000      -0.849761       -23.1232
  30   2.0000      -0.839658       -22.8483
  31   2.0000      -0.815557       -22.1924
  32   2.0000      -0.783237       -21.3130
  33   2.0000      -0.773659       -21.0523
  34   2.0000      -0.703943       -19.1553
  35   2.0000      -0.701550       -19.0902
  36   2.0000      -0.693907       -18.8822
  37   2.0000      -0.667180       -18.1549
  38   2.0000      -0.635321       -17.2880
  39   2.0000      -0.618405       -16.8277
  40   2.0000      -0.590861       -16.0781
  41   2.0000      -0.574465       -15.6320
  42   2.0000      -0.567477       -15.4418
  43   2.0000      -0.549251       -14.9459
  44   2.0000      -0.540813       -14.7163
  45   2.0000      -0.525662       -14.3040
  46   2.0000      -0.517205       -14.0739
  47   2.0000      -0.509059       -13.8522
  48   2.0000      -0.504964       -13.7408
  49   2.0000      -0.499238       -13.5849
  50   2.0000      -0.491151       -13.3649
  51   2.0000      -0.481041       -13.0898
  52   2.0000      -0.470175       -12.7941
  53   2.0000      -0.467958       -12.7338
  54   2.0000      -0.463082       -12.6011
  55   2.0000      -0.451803       -12.2942
  56   2.0000      -0.445036       -12.1100
  57   2.0000      -0.437948       -11.9172
  58   2.0000      -0.436066       -11.8659
  59   2.0000      -0.424240       -11.5441
  60   2.0000      -0.418779       -11.3956
  61   2.0000      -0.416733       -11.3399
  62   2.0000      -0.410940       -11.1822
  63   2.0000      -0.360507        -9.8099
  64   2.0000      -0.333147        -9.0654
  65   2.0000      -0.322837        -8.7849
  66   2.0000      -0.282514        -7.6876
  67   0.0000       0.017440         0.4746
  68   0.0000       0.075744         2.0611
  69   0.0000       0.096142         2.6162
  70   0.0000       0.110739         3.0134
  71   0.0000       0.128455         3.4954

MULLIKEN ATOMIC CHARGES
-----------------------
   0 S :    0.106417
   1 C :   -0.130725
   2 C :   -0.104613
   3 C :   -0.012200
   4 C :   -0.105342
   5 H :    0.018752
   6 C :    0.085652
   7 H :    0.014308
   8 H :    0.007802
   9 C :   -0.058804
  10 H :    0.040313
  11 H :    0.031750
  12 C :   -0.050715
  13 H :    0.043519
  14 H :    0.025926
  15 H :    0.008105
  16 S :    0.090444
  17 C :   -0.079088
  18 C :   -0.032989
  19 C :   -0.077203
  20 C :   -0.113921
  21 H :    0.012585
  22 C :    0.086986
  23 H :    0.026042
  24 H :    0.021452
  25 C :   -0.103819
  26 H :    0.031041
  27 H :    0.027840
  28 C :   -0.027894
  29 H :    0.021086
  30 H :    0.043812
  31 H :    0.032774
  32 H :    0.067676
  33 H :    0.053029
Sum of atomic charges:    0.0000000

LOEWDIN ATOMIC CHARGES
----------------------
   0 S :    0.401683
   1 C :   -0.210324
   2 C :   -0.061437
   3 C :   -0.072835
   4 C :   -0.180445
   5 H :    0.029951
   6 C :   -0.031263
   7 H :    0.025526
   8 H :    0.025730
   9 C :   -0.032377
  10 H :    0.030993
  11 H :    0.023284
  12 C :   -0.061727
  13 H :    0.027782
  14 H :    0.020006
  15 H :    0.013274
  16 S :    0.418795
  17 C :   -0.187258
  18 C :   -0.059734
  19 C :   -0.055361
  20 C :   -0.205500
  21 H :    0.024715
  22 C :   -0.023954
  23 H :    0.030775
  24 H :    0.023090
  25 C :   -0.041900
  26 H :    0.020141
  27 H :    0.025796
  28 C :   -0.068098
  29 H :    0.025875
  30 H :    0.024735
  31 H :    0.030466
  32 H :    0.043320
  33 H :    0.026276

  Mayer bond orders larger than 0.100000
B(  0-S ,  1-C ) :   1.1302 B(  0-S ,  4-C ) :   1.1451 B(  1-C ,  2-C ) :   1.6295
B(  1-C , 32-H ) :   0.9593 B(  2-C ,  3-C ) :   1.2372 B(  2-C ,  6-C ) :   1.0231
B(  3-C ,  4-C ) :   1.5753 B(  3-C ,  5-H ) :   0.9951 B(  4-C , 20-C ) :   1.0660
B(  6-C ,  7-H ) :   0.9388 B(  6-C ,  8-H ) :   0.9315 B(  6-C ,  9-C ) :   1.0830
B(  9-C , 10-H ) :   0.9587 B(  9-C , 11-H ) :   0.9557 B(  9-C , 12-C ) :   1.0643
B( 12-C , 13-H ) :   0.9783 B( 12-C , 14-H ) :   0.9750 B( 12-C , 15-H ) :   0.9777
B( 16-S , 17-C ) :   1.1530 B( 16-S , 20-C ) :   1.1509 B( 17-C , 18-C ) :   1.6031
B( 17-C , 33-H ) :   0.9724 B( 18-C , 19-C ) :   1.2409 B( 18-C , 21-H ) :   0.9924
B( 19-C , 20-C ) :   1.5628 B( 19-C , 22-C ) :   1.0368 B( 22-C , 23-H ) :   0.9385
B( 22-C , 24-H ) :   0.9426 B( 22-C , 25-C ) :   1.0484 B( 25-C , 26-H ) :   0.9600
B( 25-C , 27-H ) :   0.9577 B( 25-C , 28-C ) :   1.0802 B( 28-C , 29-H ) :   0.9697
B( 28-C , 30-H ) :   0.9776 B( 28-C , 31-H ) :   0.9747

Dispersion correction           -0.014396172
FINAL SINGLE POINT ENERGY     -1339.869618939342

DIPOLE MOMENT
-------------
                                X             Y             Z
Electronic contribution:     12.49882      27.03840      -0.98625
Nuclear contribution   :    -12.86748     -27.51592       1.13615
                        -----------------------------------------
Total Dipole Moment    :     -0.36865      -0.47752       0.14990
                        -----------------------------------------
Magnitude (a.u.)       :      0.62161
Magnitude (Debye)      :      1.58001

Rotational constants in cm-1:     0.016691     0.009817     0.006777
Rotational constants in MHz :   500.373380   294.320095   203.175087

                             ****ORCA TERMINATED NORMALLY****
TOTAL RUN TIME: 0 days 0 hours 0 minutes 21 seconds 736 msec
