                         Program Version 4.2.1 -  RELEASE  -
|  1> ! wB97X-D3 SP def2-SVP
|  2> %pal
|  3> nprocs 24
|  4> end
|  5>
|  6> * xyz 0 1
|  7> S 	 -110.746 	 -0.935232 	 -110.806
|  8> C 	 -112.011 	 -0.528163 	 -109.634
|  9> C 	 -111.573 	 0.568533 	 -108.845
| 10> C 	 -110.173 	 0.796047 	 -108.944
| 11> C 	 -109.55 	 -0.0846612 	 -109.791
| 12> H 	 -109.546 	 1.36595 	 -108.21
| 13> C 	 -112.372 	 1.27734 	 -107.846
| 14> H 	 -111.756 	 1.21148 	 -106.891
| 15> H 	 -113.263 	 0.673227 	 -107.746
| 16> C 	 -112.876 	 2.68993 	 -108.148
| 17> H 	 -113.428 	 2.88657 	 -107.185
| 18> H 	 -112.038 	 3.40815 	 -108.183
| 19> C 	 -113.695 	 2.88472 	 -109.367
| 20> H 	 -114.004 	 3.93765 	 -109.345
| 21> H 	 -113.054 	 2.69493 	 -110.201
| 22> H 	 -114.703 	 2.42732 	 -109.404
| 23> S 	 -106.953 	 -0.185233 	 -108.802
| 24> C 	 -105.519 	 -0.291879 	 -109.803
| 25> C 	 -105.917 	 -0.22447 	 -111.145
| 26> C 	 -107.377 	 -0.188997 	 -111.357
| 27> C 	 -108.092 	 -0.104683 	 -110.15
| 28> H 	 -105.182 	 -0.301808 	 -111.869
| 29> C 	 -107.941 	 -0.1544 	 -112.724
| 30> H 	 -108.974 	 -0.413632 	 -112.697
| 31> H 	 -107.445 	 -0.873328 	 -113.388
| 32> C 	 -107.911 	 1.17492 	 -113.459
| 33> H 	 -108.154 	 0.957129 	 -114.497
| 34> H 	 -106.901 	 1.65531 	 -113.419
| 35> C 	 -108.825 	 2.19701 	 -112.867
| 36> H 	 -108.542 	 2.39523 	 -111.874
| 37> H 	 -109.87 	 1.93051 	 -113.005
| 38> H 	 -108.599 	 3.16152 	 -113.305
| 39> H 	 -113.023 	 -0.669396 	 -109.727
| 40> H 	 -104.551 	 -0.441573 	 -109.396
| 41> *
| 42>
| 43>                          ****END OF INPUT****

CARTESIAN COORDINATES (ANGSTROEM)
---------------------------------
  S    -110.746000   -0.935232  -110.806000
  C    -112.011000   -0.528163  -109.634000
  C    -111.573000    0.568533  -108.845000
  C    -110.173000    0.796047  -108.944000
  C    -109.550000   -0.084661  -109.791000
  H    -109.546000    1.365950  -108.210000
  C    -112.372000    1.277340  -107.846000
  H    -111.756000    1.211480  -106.891000
  H    -113.263000    0.673227  -107.746000
  C    -112.876000    2.689930  -108.148000
  H    -113.428000    2.886570  -107.185000
  H    -112.038000    3.408150  -108.183000
  C    -113.695000    2.884720  -109.367000
  H    -114.004000    3.937650  -109.345000
  H    -113.054000    2.694930  -110.201000
  H    -114.703000    2.427320  -109.404000
  S    -106.953000   -0.185233  -108.802000
  C    -105.519000   -0.291879  -109.803000
  C    -105.917000   -0.224470  -111.145000
  C    -107.377000   -0.188997  -111.357000
  C    -108.092000   -0.104683  -110.150000
  H    -105.182000   -0.301808  -111.869000
  C    -107.941000   -0.154400  -112.724000
  H    -108.974000   -0.413632  -112.697000
  H    -107.445000   -0.873328  -113.388000
  C    -107.911000    1.174920  -113.459000
  H    -108.154000    0.957129  -114.497000
  H    -106.901000    1.655310  -113.419000
  C    -108.825000    2.197010  -112.867000
  H    -108.542000    2.395230  -111.874000
  H    -109.870000    1.930510  -113.005000
  H    -108.599000    3.161520  -113.305000
  H    -113.023000   -0.669396  -109.727000
  H    -104.551000   -0.441573  -109.396000

 Total Charge           Charge          ....    0
 Multiplicity           Mult            ....    1
 Number of Electrons    NEL             ....  134
 Basis Dimension        Dim             ....  322

ORBITAL ENERGIES
----------------

  NO   OCC          E(Eh)            E(eV)
   0   2.0000     -88.969347     -2420.9790
   1   2.0000     -88.963200     -2420.8117
   2   2.0000     -10.338686      -281.3300
   3   2.0000     -10.335770      -281.2506
   4   2.0000     -10.320970      -280.8479
   5   2.0000     -10.312758      -280.6244
   6   2.0000     -10.309271      -280.5295
   7   2.0000     -10.300888      -280.3014
   8   2.0000     -10.297203      -280.2011
   9   2.0000     -10.297018      -280.1961
  10   2.0000     -10.290403      -280.0161
  11   2.0000     -10.289752      -279.9984
  12   2.0000     -10.283056      -279.8162
  13   2.0000     -10.280234      -279.7394
  14   2.0000     -10.277113      -279.6545
  15   2.0000     -10.261870      -279.2397
  16   2.0000      -8.082651      -219.9401
  17   2.0000      -8.077677      -219.8048
  18   2.0000      -6.041361      -164.3938
  19   2.0000      -6.037587      -164.2911
  20   2.0000      -6.036321      -164.2566
  21   2.0000      -6.033051      -164.1677
  22   2.0000      -6.032028      -164.1398
  23   2.0000      -6.028517      -164.0443
  24   2.0000      -1.000984       -27.2381
  25   2.0000      -0.980130       -26.6707
  26   2.0000      -0.918434       -24.9919
  27   2.0000      -0.915856       -24.9217
  28   2.0000      -0.867225       -23.5984
  29   2.0000      -0.853855       -23.2346
  30   2.0000      -0.846489       -23.0341
  31   2.0000      -0.817455       -22.2441
  32   2.0000      -0.785262       -21.3681
  33   2.0000      -0.775126       -21.0922
  34   2.0000      -0.706172       -19.2159
  35   2.0000      -0.698880       -19.0175
  36   2.0000      -0.689228       -18.7549
  37   2.0000      -0.663842       -18.0641
  38   2.0000      -0.631017       -17.1709
  39   2.0000      -0.622297       -16.9335
  40   2.0000      -0.601391       -16.3647
  41   2.0000      -0.574086       -15.6217
  42   2.0000      -0.556549       -15.1445
  43   2.0000      -0.552201       -15.0262
  44   2.0000      -0.548809       -14.9338
  45   2.0000      -0.543599       -14.7921
  46   2.0000      -0.523712       -14.2509
  47   2.0000      -0.517806       -14.0902
  48   2.0000      -0.504171       -13.7192
  49   2.0000      -0.496324       -13.5057
  50   2.0000      -0.489154       -13.3106
  51   2.0000      -0.479895       -13.0586
  52   2.0000      -0.468880       -12.7589
  53   2.0000      -0.466071       -12.6824
  54   2.0000      -0.463031       -12.5997
  55   2.0000      -0.442736       -12.0475
  56   2.0000      -0.440220       -11.9790
  57   2.0000      -0.439963       -11.9720
  58   2.0000      -0.427386       -11.6298
  59   2.0000      -0.418767       -11.3952
  60   2.0000      -0.417094       -11.3497
  61   2.0000      -0.412772       -11.2321
  62   2.0000      -0.407906       -11.0997
  63   2.0000      -0.352790        -9.5999
  64   2.0000      -0.327805        -8.9200
  65   2.0000      -0.325111        -8.8467
  66   2.0000      -0.290290        -7.8992
  67   0.0000       0.021577         0.5871
  68   0.0000       0.064884         1.7656
  69   0.0000       0.098901         2.6912
  70   0.0000       0.116011         3.1568
  71   0.0000       0.120177         3.2702

MULLIKEN ATOMIC CHARGES
-----------------------
   0 S :    0.084077
   1 C :   -0.038980
   2 C :   -0.139224
   3 C :    0.010934
   4 C :   -0.110937
   5 H :    0.040194
   6 C :    0.045044
   7 H :    0.047167
   8 H :    0.006449
   9 C :   -0.083624
  10 H :    0.034952
  11 H :    0.029475
  12 C :   -0.034120
  13 H :    0.030857
  14 H :    0.047999
  15 H :    0.032261
  16 S :    0.080314
  17 C :   -0.085847
  18 C :   -0.002949
  19 C :   -0.068427
  20 C :   -0.138979
  21 H :   -0.004595
  22 C :    0.089693
  23 H :   -0.001083
  24 H :    0.026558
  25 C :   -0.083004
  26 H :    0.027471
  27 H :    0.023829
  28 C :   -0.015392
  29 H :    0.022384
  30 H :    0.033905
  31 H :    0.017263
  32 H :    0.019259
  33 H :    0.057074
Sum of atomic charges:    0.0000000

LOEWDIN ATOMIC CHARGES
----------------------
   0 S :    0.389006
   1 C :   -0.184647
   2 C :   -0.060413
   3 C :   -0.070979
   4 C :   -0.168093
   5 H :    0.040346
   6 C :   -0.044163
   7 H :    0.043226
   8 H :    0.028128
   9 C :   -0.044945
  10 H :    0.031136
  11 H :    0.024992
  12 C :   -0.069250
  13 H :    0.034061
  14 H :    0.028273
  15 H :    0.028959
  16 S :    0.395906
  17 C :   -0.177624
  18 C :   -0.057259
  19 C :   -0.058568
  20 C :   -0.190352
  21 H :    0.017385
  22 C :   -0.039472
  23 H :    0.013444
  24 H :    0.035221
  25 C :   -0.038181
  26 H :    0.022586
  27 H :    0.025219
  28 C :   -0.062185
  29 H :    0.021996
  30 H :    0.023833
  31 H :    0.026401
  32 H :    0.010010
  33 H :    0.026002

  Mayer bond orders larger than 0.100000
B(  0-S ,  1-C ) :   1.1166 B(  0-S ,  4-C ) :   1.1389 B(  1-C ,  2-C ) :   1.6091
B(  1-C , 32-H ) :   0.9664 B(  2-C ,  3-C ) :   1.2257 B(  2-C ,  6-C ) :   1.0438
B(  3-C ,  4-C ) :   1.5931 B(  3-C ,  5-H ) :   0.9764 B(  4-C , 20-C ) :   1.0236
B(  6-C ,  7-H ) :   0.9425 B(  6-C ,  8-H ) :   0.9309 B(  6-C ,  9-C ) :   1.0651
B(  9-C , 10-H ) :   0.9534 B(  9-C , 11-H ) :   0.9530 B(  9-C , 12-C ) :   1.0876
B( 12-C , 13-H ) :   0.9662 B( 12-C , 14-H ) :   0.9699 B( 12-C , 15-H ) :   0.9706
B( 16-S , 17-C ) :   1.1545 B( 16-S , 20-C ) :   1.1407 B( 17-C , 18-C ) :   1.5936
B( 17-C , 33-H ) :   0.9762 B( 18-C , 19-C ) :   1.2228 B( 18-C , 21-H ) :   1.0020
B( 19-C , 20-C ) :   1.5774 B( 19-C , 22-C ) :   1.0714 B( 22-C , 23-H ) :   0.9243
B( 22-C , 24-H ) :   0.9227 B( 22-C , 25-C ) :   1.0756 B( 25-C , 26-H ) :   0.9524
B( 25-C , 27-H ) :   0.9555 B( 25-C , 28-C ) :   1.0903 B( 28-C , 29-H ) :   0.9701
B( 28-C , 30-H ) :   0.9738 B( 28-C , 31-H ) :   0.9669

Dispersion correction           -0.015160199
FINAL SINGLE POINT ENERGY     -1339.861034648875

DIPOLE MOMENT
-------------
                                X             Y             Z
Electronic contribution:     12.53418     -16.57794       6.46965
Nuclear contribution   :    -12.64312      17.00138      -6.56461
                        -----------------------------------------
Total Dipole Moment    :     -0.10895       0.42344      -0.09497
                        -----------------------------------------
Magnitude (a.u.)       :      0.44742
Magnitude (Debye)      :      1.13726

Rotational constants in cm-1:     0.021245     0.008496     0.007426
Rotational constants in MHz :   636.920176   254.703959   222.633132

                             ****ORCA TERMINATED NORMALLY****
TOTAL RUN TIME: 0 days 0 hours 0 minutes 24 seconds 253 msec
