                         Program Version 4.2.1 -  RELEASE  -
|  1> ! wB97X-D3 SP def2-SVP
|  2> %pal
|  3> nprocs 24
|  4> end
|  5>
|  6> * xyz 0 1
|  7> S 	 -94.5672 	 -24.8249 	 -59.8224
|  8> C 	 -94.4952 	 -23.3967 	 -58.8684
|  9> C 	 -93.2461 	 -22.7173 	 -58.8537
| 10> C 	 -92.2727 	 -23.6567 	 -59.384
| 11> C 	 -92.7746 	 -24.8025 	 -59.9876
| 12> H 	 -91.2494 	 -23.4117 	 -59.3858
| 13> C 	 -92.8598 	 -21.4735 	 -57.9733
| 14> H 	 -93.8047 	 -21.1222 	 -57.501
| 15> H 	 -92.5148 	 -20.68 	 -58.5941
| 16> C 	 -91.8804 	 -21.6927 	 -56.8239
| 17> H 	 -92.1338 	 -22.6433 	 -56.3185
| 18> H 	 -90.8888 	 -21.9008 	 -57.2788
| 19> C 	 -91.6885 	 -20.5068 	 -55.8111
| 20> H 	 -91.5446 	 -19.5319 	 -56.3534
| 21> H 	 -92.5619 	 -20.3987 	 -55.1734
| 22> H 	 -90.7806 	 -20.5816 	 -55.2304
| 23> S 	 -92.6084 	 -26.1825 	 -62.3527
| 24> C 	 -91.4055 	 -27.4537 	 -62.4944
| 25> C 	 -90.5536 	 -27.4977 	 -61.3766
| 26> C 	 -90.9654 	 -26.6301 	 -60.3233
| 27> C 	 -92.0599 	 -25.8519 	 -60.6967
| 28> H 	 -89.8358 	 -28.1644 	 -61.3391
| 29> C 	 -90.317 	 -26.5937 	 -58.9537
| 30> H 	 -90.1777 	 -25.566 	 -58.7061
| 31> H 	 -89.3267 	 -27.0125 	 -59.1148
| 32> C 	 -91.1679 	 -27.3543 	 -57.8721
| 33> H 	 -91.271 	 -28.261 	 -58.4548
| 34> H 	 -92.1025 	 -26.8699 	 -57.7235
| 35> C 	 -90.4362 	 -27.4807 	 -56.6027
| 36> H 	 -90.1195 	 -26.5263 	 -56.149
| 37> H 	 -89.5081 	 -27.9998 	 -56.6986
| 38> H 	 -90.9448 	 -28.1164 	 -55.9414
| 39> H 	 -95.3865 	 -22.9684 	 -58.4369
| 40> H 	 -91.1593 	 -27.9815 	 -63.3653
| 41> *
| 42>
| 43>                          ****END OF INPUT****

CARTESIAN COORDINATES (ANGSTROEM)
---------------------------------
  S    -94.567200  -24.824900  -59.822400
  C    -94.495200  -23.396700  -58.868400
  C    -93.246100  -22.717300  -58.853700
  C    -92.272700  -23.656700  -59.384000
  C    -92.774600  -24.802500  -59.987600
  H    -91.249400  -23.411700  -59.385800
  C    -92.859800  -21.473500  -57.973300
  H    -93.804700  -21.122200  -57.501000
  H    -92.514800  -20.680000  -58.594100
  C    -91.880400  -21.692700  -56.823900
  H    -92.133800  -22.643300  -56.318500
  H    -90.888800  -21.900800  -57.278800
  C    -91.688500  -20.506800  -55.811100
  H    -91.544600  -19.531900  -56.353400
  H    -92.561900  -20.398700  -55.173400
  H    -90.780600  -20.581600  -55.230400
  S    -92.608400  -26.182500  -62.352700
  C    -91.405500  -27.453700  -62.494400
  C    -90.553600  -27.497700  -61.376600
  C    -90.965400  -26.630100  -60.323300
  C    -92.059900  -25.851900  -60.696700
  H    -89.835800  -28.164400  -61.339100
  C    -90.317000  -26.593700  -58.953700
  H    -90.177700  -25.566000  -58.706100
  H    -89.326700  -27.012500  -59.114800
  C    -91.167900  -27.354300  -57.872100
  H    -91.271000  -28.261000  -58.454800
  H    -92.102500  -26.869900  -57.723500
  C    -90.436200  -27.480700  -56.602700
  H    -90.119500  -26.526300  -56.149000
  H    -89.508100  -27.999800  -56.698600
  H    -90.944800  -28.116400  -55.941400
  H    -95.386500  -22.968400  -58.436900
  H    -91.159300  -27.981500  -63.365300

 Total Charge           Charge          ....    0
 Multiplicity           Mult            ....    1
 Number of Electrons    NEL             ....  134
 Basis Dimension        Dim             ....  322

ORBITAL ENERGIES
----------------

  NO   OCC          E(Eh)            E(eV)
   0   2.0000     -88.969369     -2420.9796
   1   2.0000     -88.966991     -2420.9149
   2   2.0000     -10.331602      -281.1372
   3   2.0000     -10.325326      -280.9664
   4   2.0000     -10.318957      -280.7931
   5   2.0000     -10.314801      -280.6800
   6   2.0000     -10.310576      -280.5650
   7   2.0000     -10.300665      -280.2953
   8   2.0000     -10.299812      -280.2721
   9   2.0000     -10.295622      -280.1581
  10   2.0000     -10.294747      -280.1343
  11   2.0000     -10.287945      -279.9492
  12   2.0000     -10.285950      -279.8949
  13   2.0000     -10.285371      -279.8792
  14   2.0000     -10.278297      -279.6867
  15   2.0000     -10.266842      -279.3750
  16   2.0000      -8.083809      -219.9716
  17   2.0000      -8.081069      -219.8971
  18   2.0000      -6.042204      -164.4167
  19   2.0000      -6.039492      -164.3429
  20   2.0000      -6.038427      -164.3140
  21   2.0000      -6.035681      -164.2392
  22   2.0000      -6.034636      -164.2108
  23   2.0000      -6.031962      -164.1380
  24   2.0000      -0.999693       -27.2030
  25   2.0000      -0.977249       -26.5923
  26   2.0000      -0.911366       -24.7995
  27   2.0000      -0.905019       -24.6268
  28   2.0000      -0.866300       -23.5732
  29   2.0000      -0.856417       -23.3043
  30   2.0000      -0.845713       -23.0130
  31   2.0000      -0.812460       -22.1082
  32   2.0000      -0.784523       -21.3480
  33   2.0000      -0.770195       -20.9581
  34   2.0000      -0.709347       -19.3023
  35   2.0000      -0.699415       -19.0321
  36   2.0000      -0.691088       -18.8055
  37   2.0000      -0.671017       -18.2593
  38   2.0000      -0.642969       -17.4961
  39   2.0000      -0.623414       -16.9640
  40   2.0000      -0.591152       -16.0861
  41   2.0000      -0.573620       -15.6090
  42   2.0000      -0.569034       -15.4842
  43   2.0000      -0.556883       -15.1536
  44   2.0000      -0.528939       -14.3932
  45   2.0000      -0.522563       -14.2197
  46   2.0000      -0.520725       -14.1696
  47   2.0000      -0.507146       -13.8001
  48   2.0000      -0.503273       -13.6948
  49   2.0000      -0.495050       -13.4710
  50   2.0000      -0.491957       -13.3868
  51   2.0000      -0.485753       -13.2180
  52   2.0000      -0.466604       -12.6969
  53   2.0000      -0.463599       -12.6152
  54   2.0000      -0.460842       -12.5401
  55   2.0000      -0.451287       -12.2802
  56   2.0000      -0.447697       -12.1825
  57   2.0000      -0.437080       -11.8935
  58   2.0000      -0.430199       -11.7063
  59   2.0000      -0.425127       -11.5683
  60   2.0000      -0.424873       -11.5614
  61   2.0000      -0.416128       -11.3234
  62   2.0000      -0.415098       -11.2954
  63   2.0000      -0.346135        -9.4188
  64   2.0000      -0.332168        -9.0387
  65   2.0000      -0.330954        -9.0057
  66   2.0000      -0.286198        -7.7878
  67   0.0000       0.029982         0.8159
  68   0.0000       0.058621         1.5951
  69   0.0000       0.108460         2.9513
  70   0.0000       0.116987         3.1834
  71   0.0000       0.129224         3.5164

MULLIKEN ATOMIC CHARGES
-----------------------
   0 S :    0.120762
   1 C :   -0.116899
   2 C :   -0.081408
   3 C :    0.034726
   4 C :   -0.153516
   5 H :    0.000711
   6 C :    0.063021
   7 H :    0.020895
   8 H :    0.030414
   9 C :   -0.103351
  10 H :    0.039941
  11 H :    0.026390
  12 C :   -0.054680
  13 H :    0.031321
  14 H :    0.041050
  15 H :    0.039114
  16 S :    0.109128
  17 C :   -0.068580
  18 C :    0.014568
  19 C :   -0.056717
  20 C :   -0.166683
  21 H :   -0.049438
  22 C :    0.090529
  23 H :    0.004156
  24 H :    0.011739
  25 C :   -0.048593
  26 H :    0.027427
  27 H :    0.037488
  28 C :    0.015308
  29 H :    0.028606
  30 H :    0.002503
  31 H :    0.020623
  32 H :    0.049508
  33 H :    0.039937
Sum of atomic charges:    0.0000000

LOEWDIN ATOMIC CHARGES
----------------------
   0 S :    0.401532
   1 C :   -0.194380
   2 C :   -0.062879
   3 C :   -0.050292
   4 C :   -0.189183
   5 H :    0.020960
   6 C :   -0.030228
   7 H :    0.031320
   8 H :    0.026541
   9 C :   -0.048157
  10 H :    0.027595
  11 H :    0.022027
  12 C :   -0.066462
  13 H :    0.030820
  14 H :    0.024821
  15 H :    0.028189
  16 S :    0.398184
  17 C :   -0.174593
  18 C :   -0.049463
  19 C :   -0.052337
  20 C :   -0.193799
  21 H :    0.001912
  22 C :   -0.024635
  23 H :    0.019636
  24 H :    0.027482
  25 C :   -0.028293
  26 H :    0.028158
  27 H :    0.025138
  28 C :   -0.063984
  29 H :    0.030100
  30 H :    0.021740
  31 H :    0.021748
  32 H :    0.022229
  33 H :    0.018554

  Mayer bond orders larger than 0.100000
B(  0-S ,  1-C ) :   1.1730 B(  0-S ,  4-C ) :   1.1159 B(  1-C ,  2-C ) :   1.5952
B(  1-C , 32-H ) :   0.9603 B(  2-C ,  3-C ) :   1.2349 B(  2-C ,  6-C ) :   1.0294
B(  3-C ,  4-C ) :   1.5944 B(  3-C ,  5-H ) :   0.9931 B(  4-C , 20-C ) :   1.0526
B(  6-C ,  7-H ) :   0.9502 B(  6-C ,  8-H ) :   0.9336 B(  6-C ,  9-C ) :   1.0609
B(  9-C , 10-H ) :   0.9595 B(  9-C , 11-H ) :   0.9510 B(  9-C , 12-C ) :   1.0748
B( 12-C , 13-H ) :   0.9748 B( 12-C , 14-H ) :   0.9777 B( 12-C , 15-H ) :   0.9761
B( 16-S , 17-C ) :   1.1530 B( 16-S , 20-C ) :   1.1454 B( 17-C , 18-C ) :   1.6008
B( 17-C , 20-C ) :   0.1042 B( 17-C , 33-H ) :   0.9704 B( 18-C , 19-C ) :   1.2457
B( 18-C , 21-H ) :   1.0076 B( 19-C , 20-C ) :   1.5824 B( 19-C , 22-C ) :   1.0469
B( 22-C , 23-H ) :   0.9206 B( 22-C , 24-H ) :   0.9342 B( 22-C , 25-C ) :   1.0494
B( 25-C , 26-H ) :   0.9549 B( 25-C , 27-H ) :   0.9546 B( 25-C , 28-C ) :   1.1027
B( 28-C , 29-H ) :   0.9675 B( 28-C , 30-H ) :   0.9645 B( 28-C , 31-H ) :   0.9677

Dispersion correction           -0.014229856
FINAL SINGLE POINT ENERGY     -1339.864453285927

DIPOLE MOMENT
-------------
                                X             Y             Z
Electronic contribution:    -14.23386      -8.61663     -26.24147
Nuclear contribution   :     14.72326       8.79931      26.74714
                        -----------------------------------------
Total Dipole Moment    :      0.48940       0.18268       0.50568
                        -----------------------------------------
Magnitude (a.u.)       :      0.72704
Magnitude (Debye)      :      1.84800

Rotational constants in cm-1:     0.017922     0.008615     0.006763
Rotational constants in MHz :   537.291271   258.271550   202.749841

                             ****ORCA TERMINATED NORMALLY****
TOTAL RUN TIME: 0 days 0 hours 0 minutes 21 seconds 577 msec
