                         Program Version 4.2.1 -  RELEASE  -
|  1> ! wB97X-D3 SP def2-SVP
|  2> %pal
|  3> nprocs 24
|  4> end
|  5>
|  6> * xyz 0 1
|  7> S 	 -39.2151 	 18.365 	 -99.4279
|  8> C 	 -38.2564 	 17.4243 	 -100.499
|  9> C 	 -37.5012 	 16.4121 	 -99.7963
| 10> C 	 -37.7891 	 16.4495 	 -98.4361
| 11> C 	 -38.6577 	 17.4356 	 -98.059
| 12> H 	 -37.3669 	 15.7165 	 -97.7211
| 13> C 	 -36.4701 	 15.4829 	 -100.468
| 14> H 	 -36.3718 	 14.5624 	 -99.8465
| 15> H 	 -35.5493 	 15.9629 	 -100.446
| 16> C 	 -36.8 	 15.0381 	 -101.902
| 17> H 	 -36.7448 	 15.8914 	 -102.625
| 18> H 	 -36.004 	 14.3893 	 -102.185
| 19> C 	 -38.0899 	 14.1704 	 -102.134
| 20> H 	 -38.1493 	 13.7224 	 -103.117
| 21> H 	 -38.0883 	 13.3865 	 -101.384
| 22> H 	 -39.0376 	 14.6761 	 -101.983
| 23> S 	 -39.4151 	 19.3614 	 -96.2328
| 24> C 	 -39.6905 	 18.8617 	 -94.6201
| 25> C 	 -39.9076 	 17.4713 	 -94.4921
| 26> C 	 -39.5452 	 16.7791 	 -95.7074
| 27> C 	 -39.2002 	 17.6885 	 -96.6872
| 28> H 	 -40.2335 	 17.1185 	 -93.4771
| 29> C 	 -39.801 	 15.3366 	 -96.1009
| 30> H 	 -39.9086 	 15.2376 	 -97.2008
| 31> H 	 -40.8098 	 15.1028 	 -95.6309
| 32> C 	 -38.8058 	 14.346 	 -95.5581
| 33> H 	 -39.1469 	 14.2709 	 -94.4814
| 34> H 	 -37.7822 	 14.7528 	 -95.5357
| 35> C 	 -38.6986 	 12.9976 	 -96.2301
| 36> H 	 -38.1753 	 13.124 	 -97.1339
| 37> H 	 -39.703 	 12.5776 	 -96.2809
| 38> H 	 -38.0918 	 12.3134 	 -95.6494
| 39> H 	 -38.2934 	 17.4291 	 -101.645
| 40> H 	 -40.0153 	 19.4697 	 -93.8331
| 41> *
| 42>
| 43>                          ****END OF INPUT****

CARTESIAN COORDINATES (ANGSTROEM)
---------------------------------
  S    -39.215100   18.365000  -99.427900
  C    -38.256400   17.424300  -100.499000
  C    -37.501200   16.412100  -99.796300
  C    -37.789100   16.449500  -98.436100
  C    -38.657700   17.435600  -98.059000
  H    -37.366900   15.716500  -97.721100
  C    -36.470100   15.482900  -100.468000
  H    -36.371800   14.562400  -99.846500
  H    -35.549300   15.962900  -100.446000
  C    -36.800000   15.038100  -101.902000
  H    -36.744800   15.891400  -102.625000
  H    -36.004000   14.389300  -102.185000
  C    -38.089900   14.170400  -102.134000
  H    -38.149300   13.722400  -103.117000
  H    -38.088300   13.386500  -101.384000
  H    -39.037600   14.676100  -101.983000
  S    -39.415100   19.361400  -96.232800
  C    -39.690500   18.861700  -94.620100
  C    -39.907600   17.471300  -94.492100
  C    -39.545200   16.779100  -95.707400
  C    -39.200200   17.688500  -96.687200
  H    -40.233500   17.118500  -93.477100
  C    -39.801000   15.336600  -96.100900
  H    -39.908600   15.237600  -97.200800
  H    -40.809800   15.102800  -95.630900
  C    -38.805800   14.346000  -95.558100
  H    -39.146900   14.270900  -94.481400
  H    -37.782200   14.752800  -95.535700
  C    -38.698600   12.997600  -96.230100
  H    -38.175300   13.124000  -97.133900
  H    -39.703000   12.577600  -96.280900
  H    -38.091800   12.313400  -95.649400
  H    -38.293400   17.429100  -101.645000
  H    -40.015300   19.469700  -93.833100

 Total Charge           Charge          ....    0
 Multiplicity           Mult            ....    1
 Number of Electrons    NEL             ....  134
 Basis Dimension        Dim             ....  322

ORBITAL ENERGIES
----------------

  NO   OCC          E(Eh)            E(eV)
   0   2.0000     -88.971848     -2421.0471
   1   2.0000     -88.967400     -2420.9260
   2   2.0000     -10.327900      -281.0364
   3   2.0000     -10.325409      -280.9687
   4   2.0000     -10.320451      -280.8337
   5   2.0000     -10.311003      -280.5766
   6   2.0000     -10.304576      -280.4018
   7   2.0000     -10.303200      -280.3643
   8   2.0000     -10.303141      -280.3627
   9   2.0000     -10.295862      -280.1646
  10   2.0000     -10.294175      -280.1188
  11   2.0000     -10.292786      -280.0810
  12   2.0000     -10.291720      -280.0519
  13   2.0000     -10.284283      -279.8496
  14   2.0000     -10.278423      -279.6901
  15   2.0000     -10.273970      -279.5689
  16   2.0000      -8.086683      -220.0498
  17   2.0000      -8.082886      -219.9465
  18   2.0000      -6.045089      -164.4952
  19   2.0000      -6.041203      -164.3895
  20   2.0000      -6.041056      -164.3855
  21   2.0000      -6.037699      -164.2941
  22   2.0000      -6.037503      -164.2888
  23   2.0000      -6.033615      -164.1830
  24   2.0000      -1.008904       -27.4537
  25   2.0000      -0.986328       -26.8394
  26   2.0000      -0.913730       -24.8638
  27   2.0000      -0.907948       -24.7065
  28   2.0000      -0.861878       -23.4529
  29   2.0000      -0.855888       -23.2899
  30   2.0000      -0.850492       -23.1431
  31   2.0000      -0.811115       -22.0716
  32   2.0000      -0.787680       -21.4339
  33   2.0000      -0.772965       -21.0335
  34   2.0000      -0.706285       -19.2190
  35   2.0000      -0.693119       -18.8607
  36   2.0000      -0.688423       -18.7330
  37   2.0000      -0.657970       -17.9043
  38   2.0000      -0.630407       -17.1543
  39   2.0000      -0.617870       -16.8131
  40   2.0000      -0.593505       -16.1501
  41   2.0000      -0.571390       -15.5483
  42   2.0000      -0.570460       -15.5230
  43   2.0000      -0.559177       -15.2160
  44   2.0000      -0.533430       -14.5154
  45   2.0000      -0.522381       -14.2147
  46   2.0000      -0.518457       -14.1079
  47   2.0000      -0.507863       -13.8197
  48   2.0000      -0.502916       -13.6850
  49   2.0000      -0.492450       -13.4002
  50   2.0000      -0.486956       -13.2508
  51   2.0000      -0.479772       -13.0553
  52   2.0000      -0.475682       -12.9440
  53   2.0000      -0.468878       -12.7588
  54   2.0000      -0.459082       -12.4923
  55   2.0000      -0.453032       -12.3276
  56   2.0000      -0.446606       -12.1528
  57   2.0000      -0.441119       -12.0035
  58   2.0000      -0.436407       -11.8752
  59   2.0000      -0.426627       -11.6091
  60   2.0000      -0.420626       -11.4458
  61   2.0000      -0.418754       -11.3949
  62   2.0000      -0.405106       -11.0235
  63   2.0000      -0.348856        -9.4929
  64   2.0000      -0.336358        -9.1528
  65   2.0000      -0.331465        -9.0196
  66   2.0000      -0.282182        -7.6786
  67   0.0000       0.028504         0.7756
  68   0.0000       0.067513         1.8371
  69   0.0000       0.104141         2.8338
  70   0.0000       0.115431         3.1410
  71   0.0000       0.129172         3.5149

MULLIKEN ATOMIC CHARGES
-----------------------
   0 S :    0.127556
   1 C :   -0.148474
   2 C :   -0.111852
   3 C :   -0.000034
   4 C :   -0.123126
   5 H :    0.009227
   6 C :    0.093983
   7 H :    0.022775
   8 H :    0.036396
   9 C :   -0.102122
  10 H :    0.034243
  11 H :    0.024354
  12 C :   -0.042527
  13 H :    0.037212
  14 H :    0.020140
  15 H :    0.032810
  16 S :    0.118306
  17 C :   -0.070253
  18 C :   -0.076368
  19 C :   -0.008665
  20 C :   -0.158062
  21 H :    0.039838
  22 C :    0.018597
  23 H :    0.048327
  24 H :    0.039657
  25 C :   -0.132426
  26 H :    0.029309
  27 H :    0.035483
  28 C :    0.008862
  29 H :    0.020744
  30 H :    0.032346
  31 H :    0.027916
  32 H :    0.078713
  33 H :    0.037114
Sum of atomic charges:   -0.0000000

LOEWDIN ATOMIC CHARGES
----------------------
   0 S :    0.429821
   1 C :   -0.231034
   2 C :   -0.062900
   3 C :   -0.074645
   4 C :   -0.195836
   5 H :    0.037201
   6 C :   -0.023359
   7 H :    0.032397
   8 H :    0.029106
   9 C :   -0.043378
  10 H :    0.023650
  11 H :    0.024140
  12 C :   -0.065012
  13 H :    0.027052
  14 H :    0.023486
  15 H :    0.023162
  16 S :    0.420288
  17 C :   -0.196408
  18 C :   -0.071949
  19 C :   -0.058565
  20 C :   -0.192765
  21 H :    0.040619
  22 C :   -0.036770
  23 H :    0.032108
  24 H :    0.039653
  25 C :   -0.055369
  26 H :    0.028017
  27 H :    0.020064
  28 C :   -0.057499
  29 H :    0.018447
  30 H :    0.027393
  31 H :    0.028238
  32 H :    0.043704
  33 H :    0.016943

  Mayer bond orders larger than 0.100000
B(  0-S ,  1-C ) :   1.1647 B(  0-S ,  4-C ) :   1.1706 B(  1-C ,  2-C ) :   1.5541
B(  1-C ,  4-C ) :   0.1083 B(  1-C , 32-H ) :   0.9540 B(  2-C ,  3-C ) :   1.3109
B(  2-C ,  6-C ) :   1.0039 B(  3-C ,  4-C ) :   1.5382 B(  3-C ,  5-H ) :   0.9898
B(  4-C , 20-C ) :   1.0125 B(  6-C ,  7-H ) :   0.9422 B(  6-C ,  8-H ) :   0.9339
B(  6-C ,  9-C ) :   1.0896 B(  9-C , 10-H ) :   0.9512 B(  9-C , 11-H ) :   0.9528
B(  9-C , 12-C ) :   1.0678 B( 12-C , 13-H ) :   0.9774 B( 12-C , 14-H ) :   0.9741
B( 12-C , 15-H ) :   0.9765 B( 16-S , 17-C ) :   1.1652 B( 16-S , 20-C ) :   1.1462
B( 17-C , 18-C ) :   1.6205 B( 17-C , 33-H ) :   0.9677 B( 18-C , 19-C ) :   1.2194
B( 18-C , 21-H ) :   0.9829 B( 19-C , 20-C ) :   1.6019 B( 19-C , 22-C ) :   1.0312
B( 22-C , 23-H ) :   0.9467 B( 22-C , 24-H ) :   0.9374 B( 22-C , 25-C ) :   1.0352
B( 25-C , 26-H ) :   0.9533 B( 25-C , 27-H ) :   0.9603 B( 25-C , 28-C ) :   1.0939
B( 28-C , 29-H ) :   0.9718 B( 28-C , 30-H ) :   0.9704 B( 28-C , 31-H ) :   0.9698

Dispersion correction           -0.014787021
FINAL SINGLE POINT ENERGY     -1339.873064655582

DIPOLE MOMENT
-------------
                                X             Y             Z
Electronic contribution:     -6.71314      29.31132       7.15178
Nuclear contribution   :      6.80284     -29.95792      -7.17368
                        -----------------------------------------
Total Dipole Moment    :      0.08970      -0.64660      -0.02190
                        -----------------------------------------
Magnitude (a.u.)       :      0.65316
Magnitude (Debye)      :      1.66019

Rotational constants in cm-1:     0.019480     0.009219     0.006695
Rotational constants in MHz :   584.005856   276.381915   200.725291

                             ****ORCA TERMINATED NORMALLY****
TOTAL RUN TIME: 0 days 0 hours 0 minutes 20 seconds 963 msec
