                         Program Version 4.2.1 -  RELEASE  -
|  1> ! wB97X-D3 SP def2-SVP
|  2> %pal
|  3> nprocs 24
|  4> end
|  5>
|  6> * xyz 0 1
|  7> S 	 -56.4791 	 13.1177 	 -92.0534
|  8> C 	 -55.5686 	 12.2398 	 -93.2307
|  9> C 	 -54.5204 	 13.0218 	 -93.7485
| 10> C 	 -54.4496 	 14.2919 	 -93.1662
| 11> C 	 -55.5061 	 14.539 	 -92.3118
| 12> H 	 -53.7541 	 15.0734 	 -93.2689
| 13> C 	 -53.4346 	 12.643 	 -94.7399
| 14> H 	 -53.3024 	 13.3377 	 -95.5596
| 15> H 	 -53.6445 	 11.605 	 -95.1522
| 16> C 	 -52.1179 	 12.4489 	 -94.099
| 17> H 	 -51.866 	 13.4597 	 -93.6833
| 18> H 	 -52.228 	 11.7798 	 -93.2233
| 19> C 	 -51.0369 	 11.8435 	 -95.0085
| 20> H 	 -50.4541 	 12.454 	 -95.7273
| 21> H 	 -50.3256 	 11.3566 	 -94.3354
| 22> H 	 -51.4202 	 10.9848 	 -95.5934
| 23> S 	 -55.9241 	 15.9496 	 -90.0063
| 24> C 	 -56.163 	 17.7253 	 -90.185
| 25> C 	 -56.2032 	 18.1562 	 -91.4796
| 26> C 	 -55.8093 	 17.0568 	 -92.3423
| 27> C 	 -55.7694 	 15.7849 	 -91.7169
| 28> H 	 -56.5079 	 19.1283 	 -91.8446
| 29> C 	 -55.7904 	 17.2842 	 -93.796
| 30> H 	 -56.7772 	 17.7704 	 -94.047
| 31> H 	 -55.8031 	 16.3017 	 -94.3246
| 32> C 	 -54.6395 	 18.2495 	 -94.2104
| 33> H 	 -53.7061 	 17.7611 	 -93.9872
| 34> H 	 -54.5566 	 19.1792 	 -93.6253
| 35> C 	 -54.6654 	 18.5147 	 -95.7652
| 36> H 	 -54.5129 	 17.5233 	 -96.2829
| 37> H 	 -53.9005 	 19.1981 	 -95.8388
| 38> H 	 -55.6493 	 18.8702 	 -96.0694
| 39> H 	 -55.7098 	 11.1679 	 -93.4608
| 40> H 	 -56.2493 	 18.3405 	 -89.3469
| 41> *
| 42>
| 43>                          ****END OF INPUT****

CARTESIAN COORDINATES (ANGSTROEM)
---------------------------------
  S    -56.479100   13.117700  -92.053400
  C    -55.568600   12.239800  -93.230700
  C    -54.520400   13.021800  -93.748500
  C    -54.449600   14.291900  -93.166200
  C    -55.506100   14.539000  -92.311800
  H    -53.754100   15.073400  -93.268900
  C    -53.434600   12.643000  -94.739900
  H    -53.302400   13.337700  -95.559600
  H    -53.644500   11.605000  -95.152200
  C    -52.117900   12.448900  -94.099000
  H    -51.866000   13.459700  -93.683300
  H    -52.228000   11.779800  -93.223300
  C    -51.036900   11.843500  -95.008500
  H    -50.454100   12.454000  -95.727300
  H    -50.325600   11.356600  -94.335400
  H    -51.420200   10.984800  -95.593400
  S    -55.924100   15.949600  -90.006300
  C    -56.163000   17.725300  -90.185000
  C    -56.203200   18.156200  -91.479600
  C    -55.809300   17.056800  -92.342300
  C    -55.769400   15.784900  -91.716900
  H    -56.507900   19.128300  -91.844600
  C    -55.790400   17.284200  -93.796000
  H    -56.777200   17.770400  -94.047000
  H    -55.803100   16.301700  -94.324600
  C    -54.639500   18.249500  -94.210400
  H    -53.706100   17.761100  -93.987200
  H    -54.556600   19.179200  -93.625300
  C    -54.665400   18.514700  -95.765200
  H    -54.512900   17.523300  -96.282900
  H    -53.900500   19.198100  -95.838800
  H    -55.649300   18.870200  -96.069400
  H    -55.709800   11.167900  -93.460800
  H    -56.249300   18.340500  -89.346900

 Total Charge           Charge          ....    0
 Multiplicity           Mult            ....    1
 Number of Electrons    NEL             ....  134
 Basis Dimension        Dim             ....  322

ORBITAL ENERGIES
----------------

  NO   OCC          E(Eh)            E(eV)
   0   2.0000     -88.969091     -2420.9721
   1   2.0000     -88.964462     -2420.8461
   2   2.0000     -10.321593      -280.8648
   3   2.0000     -10.320754      -280.8420
   4   2.0000     -10.318084      -280.7693
   5   2.0000     -10.317817      -280.7621
   6   2.0000     -10.301751      -280.3249
   7   2.0000     -10.301005      -280.3046
   8   2.0000     -10.297783      -280.2169
   9   2.0000     -10.290470      -280.0179
  10   2.0000     -10.289605      -279.9944
  11   2.0000     -10.289152      -279.9821
  12   2.0000     -10.287398      -279.9343
  13   2.0000     -10.286119      -279.8995
  14   2.0000     -10.283117      -279.8179
  15   2.0000     -10.278540      -279.6933
  16   2.0000      -8.084183      -219.9818
  17   2.0000      -8.079159      -219.8451
  18   2.0000      -6.042560      -164.4264
  19   2.0000      -6.038601      -164.3187
  20   2.0000      -6.037744      -164.2954
  21   2.0000      -6.035107      -164.2236
  22   2.0000      -6.033793      -164.1879
  23   2.0000      -6.029726      -164.0772
  24   2.0000      -1.011106       -27.5136
  25   2.0000      -0.983660       -26.7667
  26   2.0000      -0.919279       -25.0149
  27   2.0000      -0.905875       -24.6501
  28   2.0000      -0.876483       -23.8503
  29   2.0000      -0.854557       -23.2537
  30   2.0000      -0.847160       -23.0524
  31   2.0000      -0.814553       -22.1651
  32   2.0000      -0.782184       -21.2843
  33   2.0000      -0.763387       -20.7728
  34   2.0000      -0.706489       -19.2245
  35   2.0000      -0.698202       -18.9990
  36   2.0000      -0.691576       -18.8187
  37   2.0000      -0.665793       -18.1171
  38   2.0000      -0.646939       -17.6041
  39   2.0000      -0.622612       -16.9421
  40   2.0000      -0.596827       -16.2405
  41   2.0000      -0.576251       -15.6806
  42   2.0000      -0.562214       -15.2986
  43   2.0000      -0.552842       -15.0436
  44   2.0000      -0.539477       -14.6799
  45   2.0000      -0.524605       -14.2752
  46   2.0000      -0.515249       -14.0206
  47   2.0000      -0.512198       -13.9376
  48   2.0000      -0.507491       -13.8095
  49   2.0000      -0.502520       -13.6743
  50   2.0000      -0.495088       -13.4720
  51   2.0000      -0.474411       -12.9094
  52   2.0000      -0.471592       -12.8327
  53   2.0000      -0.466379       -12.6908
  54   2.0000      -0.455666       -12.3993
  55   2.0000      -0.451228       -12.2785
  56   2.0000      -0.448811       -12.2128
  57   2.0000      -0.439649       -11.9635
  58   2.0000      -0.430863       -11.7244
  59   2.0000      -0.426561       -11.6073
  60   2.0000      -0.418852       -11.3975
  61   2.0000      -0.411948       -11.2097
  62   2.0000      -0.409426       -11.1410
  63   2.0000      -0.350207        -9.5296
  64   2.0000      -0.335281        -9.1235
  65   2.0000      -0.324576        -8.8322
  66   2.0000      -0.284862        -7.7515
  67   0.0000       0.029079         0.7913
  68   0.0000       0.070524         1.9190
  69   0.0000       0.107224         2.9177
  70   0.0000       0.117708         3.2030
  71   0.0000       0.124156         3.3785

MULLIKEN ATOMIC CHARGES
-----------------------
   0 S :    0.128127
   1 C :   -0.130703
   2 C :   -0.058559
   3 C :    0.024122
   4 C :   -0.173346
   5 H :   -0.002147
   6 C :    0.075702
   7 H :    0.031208
   8 H :    0.010478
   9 C :   -0.107632
  10 H :    0.029874
  11 H :    0.033253
  12 C :   -0.044672
  13 H :    0.044373
  14 H :    0.030734
  15 H :    0.023562
  16 S :    0.098064
  17 C :   -0.068370
  18 C :   -0.001969
  19 C :   -0.044755
  20 C :   -0.131649
  21 H :    0.029244
  22 C :    0.005055
  23 H :    0.034788
  24 H :    0.044462
  25 C :   -0.120051
  26 H :    0.016828
  27 H :    0.033400
  28 C :    0.000784
  29 H :    0.039452
  30 H :    0.025963
  31 H :    0.029201
  32 H :    0.058933
  33 H :    0.036245
Sum of atomic charges:   -0.0000000

LOEWDIN ATOMIC CHARGES
----------------------
   0 S :    0.424467
   1 C :   -0.214054
   2 C :   -0.059854
   3 C :   -0.056399
   4 C :   -0.197563
   5 H :    0.025408
   6 C :   -0.036742
   7 H :    0.028692
   8 H :    0.028927
   9 C :   -0.047471
  10 H :    0.024608
  11 H :    0.029068
  12 C :   -0.074635
  13 H :    0.028429
  14 H :    0.030475
  15 H :    0.026820
  16 S :    0.390025
  17 C :   -0.150565
  18 C :   -0.059254
  19 C :   -0.052287
  20 C :   -0.217808
  21 H :    0.036230
  22 C :   -0.044965
  23 H :    0.034873
  24 H :    0.035002
  25 C :   -0.038495
  26 H :    0.017735
  27 H :    0.023674
  28 C :   -0.054327
  29 H :    0.033568
  30 H :    0.014875
  31 H :    0.022510
  32 H :    0.035231
  33 H :    0.013802

  Mayer bond orders larger than 0.100000
B(  0-S ,  1-C ) :   1.1460 B(  0-S ,  4-C ) :   1.1596 B(  1-C ,  2-C ) :   1.5866
B(  1-C ,  4-C ) :   0.1031 B(  1-C , 32-H ) :   0.9650 B(  2-C ,  3-C ) :   1.2350
B(  2-C ,  6-C ) :   1.0354 B(  3-C ,  4-C ) :   1.5475 B(  3-C ,  5-H ) :   1.0061
B(  4-C , 20-C ) :   1.0743 B(  6-C ,  7-H ) :   0.9409 B(  6-C ,  8-H ) :   0.9345
B(  6-C ,  9-C ) :   1.0705 B(  9-C , 10-H ) :   0.9499 B(  9-C , 11-H ) :   0.9545
B(  9-C , 12-C ) :   1.0759 B( 12-C , 13-H ) :   0.9754 B( 12-C , 14-H ) :   0.9761
B( 12-C , 15-H ) :   0.9702 B( 16-S , 17-C ) :   1.1416 B( 16-S , 20-C ) :   1.1217
B( 17-C , 18-C ) :   1.6173 B( 17-C , 33-H ) :   0.9751 B( 18-C , 19-C ) :   1.2165
B( 18-C , 21-H ) :   0.9887 B( 19-C , 20-C ) :   1.5750 B( 19-C , 22-C ) :   1.0673
B( 22-C , 23-H ) :   0.9371 B( 22-C , 24-H ) :   0.9370 B( 22-C , 25-C ) :   1.0391
B( 25-C , 26-H ) :   0.9529 B( 25-C , 27-H ) :   0.9616 B( 25-C , 28-C ) :   1.0706
B( 28-C , 29-H ) :   0.9749 B( 28-C , 30-H ) :   0.9767 B( 28-C , 31-H ) :   0.9777

Dispersion correction           -0.014131780
FINAL SINGLE POINT ENERGY     -1339.867889969517

DIPOLE MOMENT
-------------
                                X             Y             Z
Electronic contribution:    -18.51284      -3.29321      23.72791
Nuclear contribution   :     18.84449       3.57572     -24.13839
                        -----------------------------------------
Total Dipole Moment    :      0.33165       0.28251      -0.41048
                        -----------------------------------------
Magnitude (a.u.)       :      0.59858
Magnitude (Debye)      :      1.52146

Rotational constants in cm-1:     0.016774     0.009076     0.006789
Rotational constants in MHz :   502.879965   272.089709   203.520769

                             ****ORCA TERMINATED NORMALLY****
TOTAL RUN TIME: 0 days 0 hours 0 minutes 22 seconds 40 msec
