                         Program Version 4.2.1 -  RELEASE  -
|  1> ! wB97X-D3 SP def2-SVP
|  2> %pal
|  3> nprocs 24
|  4> end
|  5>
|  6> * xyz 0 1
|  7> S 	 33.2767 	 -30.8695 	 -115.112
|  8> C 	 33.2533 	 -29.8878 	 -113.721
|  9> C 	 34.4341 	 -29.9511 	 -112.998
| 10> C 	 35.4241 	 -30.8233 	 -113.636
| 11> C 	 34.8196 	 -31.6114 	 -114.678
| 12> H 	 36.4877 	 -31.0472 	 -113.364
| 13> C 	 34.6479 	 -29.134 	 -111.737
| 14> H 	 33.7387 	 -28.7419 	 -111.385
| 15> H 	 35.1582 	 -28.2077 	 -111.998
| 16> C 	 35.3933 	 -29.9129 	 -110.58
| 17> H 	 36.294 	 -30.2615 	 -111.027
| 18> H 	 35.6903 	 -29.1758 	 -109.8
| 19> C 	 34.6498 	 -31.1093 	 -109.889
| 20> H 	 33.6964 	 -30.8481 	 -109.482
| 21> H 	 34.3338 	 -31.7489 	 -110.701
| 22> H 	 35.2588 	 -31.7377 	 -109.265
| 23> S 	 35.1205 	 -32.8511 	 -117.094
| 24> C 	 36.017 	 -34.3615 	 -117.279
| 25> C 	 36.5674 	 -34.6492 	 -116.051
| 26> C 	 36.2806 	 -33.7391 	 -114.989
| 27> C 	 35.4902 	 -32.6896 	 -115.391
| 28> H 	 37.134 	 -35.5693 	 -115.874
| 29> C 	 36.651 	 -34.1631 	 -113.593
| 30> H 	 36.899 	 -33.1825 	 -113.009
| 31> H 	 37.6478 	 -34.7424 	 -113.671
| 32> C 	 35.6513 	 -35.0254 	 -112.8
| 33> H 	 35.5381 	 -35.9449 	 -113.366
| 34> H 	 34.7199 	 -34.4709 	 -112.807
| 35> C 	 36.1176 	 -35.2319 	 -111.348
| 36> H 	 35.4525 	 -35.9627 	 -110.859
| 37> H 	 36.278 	 -34.3263 	 -110.782
| 38> H 	 37.086 	 -35.7632 	 -111.451
| 39> H 	 32.4316 	 -29.2037 	 -113.562
| 40> H 	 36.2583 	 -34.9558 	 -118.136
| 41> *
| 42>
| 43>                          ****END OF INPUT****

CARTESIAN COORDINATES (ANGSTROEM)
---------------------------------
  S     33.276700  -30.869500  -115.112000
  C     33.253300  -29.887800  -113.721000
  C     34.434100  -29.951100  -112.998000
  C     35.424100  -30.823300  -113.636000
  C     34.819600  -31.611400  -114.678000
  H     36.487700  -31.047200  -113.364000
  C     34.647900  -29.134000  -111.737000
  H     33.738700  -28.741900  -111.385000
  H     35.158200  -28.207700  -111.998000
  C     35.393300  -29.912900  -110.580000
  H     36.294000  -30.261500  -111.027000
  H     35.690300  -29.175800  -109.800000
  C     34.649800  -31.109300  -109.889000
  H     33.696400  -30.848100  -109.482000
  H     34.333800  -31.748900  -110.701000
  H     35.258800  -31.737700  -109.265000
  S     35.120500  -32.851100  -117.094000
  C     36.017000  -34.361500  -117.279000
  C     36.567400  -34.649200  -116.051000
  C     36.280600  -33.739100  -114.989000
  C     35.490200  -32.689600  -115.391000
  H     37.134000  -35.569300  -115.874000
  C     36.651000  -34.163100  -113.593000
  H     36.899000  -33.182500  -113.009000
  H     37.647800  -34.742400  -113.671000
  C     35.651300  -35.025400  -112.800000
  H     35.538100  -35.944900  -113.366000
  H     34.719900  -34.470900  -112.807000
  C     36.117600  -35.231900  -111.348000
  H     35.452500  -35.962700  -110.859000
  H     36.278000  -34.326300  -110.782000
  H     37.086000  -35.763200  -111.451000
  H     32.431600  -29.203700  -113.562000
  H     36.258300  -34.955800  -118.136000

 Total Charge           Charge          ....    0
 Multiplicity           Mult            ....    1
 Number of Electrons    NEL             ....  134
 Basis Dimension        Dim             ....  322

ORBITAL ENERGIES
----------------

  NO   OCC          E(Eh)            E(eV)
   0   2.0000     -88.968985     -2420.9692
   1   2.0000     -88.965450     -2420.8730
   2   2.0000     -10.338630      -281.3284
   3   2.0000     -10.330883      -281.1176
   4   2.0000     -10.319369      -280.8043
   5   2.0000     -10.313238      -280.6375
   6   2.0000     -10.309634      -280.5394
   7   2.0000     -10.309002      -280.5222
   8   2.0000     -10.302731      -280.3516
   9   2.0000     -10.301174      -280.3092
  10   2.0000     -10.293223      -280.0928
  11   2.0000     -10.292760      -280.0802
  12   2.0000     -10.292410      -280.0707
  13   2.0000     -10.285876      -279.8929
  14   2.0000     -10.281923      -279.7853
  15   2.0000     -10.274950      -279.5956
  16   2.0000      -8.084089      -219.9792
  17   2.0000      -8.079988      -219.8676
  18   2.0000      -6.042581      -164.4270
  19   2.0000      -6.038683      -164.3209
  20   2.0000      -6.038478      -164.3154
  21   2.0000      -6.034908      -164.2182
  22   2.0000      -6.034419      -164.2049
  23   2.0000      -6.030643      -164.1022
  24   2.0000      -1.007541       -27.4166
  25   2.0000      -0.985596       -26.8194
  26   2.0000      -0.907650       -24.6984
  27   2.0000      -0.904529       -24.6135
  28   2.0000      -0.871988       -23.7280
  29   2.0000      -0.851540       -23.1716
  30   2.0000      -0.841715       -22.9042
  31   2.0000      -0.815972       -22.2037
  32   2.0000      -0.781427       -21.2637
  33   2.0000      -0.769944       -20.9512
  34   2.0000      -0.714104       -19.4318
  35   2.0000      -0.698441       -19.0055
  36   2.0000      -0.691116       -18.8062
  37   2.0000      -0.665141       -18.0994
  38   2.0000      -0.642824       -17.4921
  39   2.0000      -0.617820       -16.8117
  40   2.0000      -0.590748       -16.0751
  41   2.0000      -0.566087       -15.4040
  42   2.0000      -0.565634       -15.3917
  43   2.0000      -0.548132       -14.9154
  44   2.0000      -0.532492       -14.4898
  45   2.0000      -0.522785       -14.2257
  46   2.0000      -0.521432       -14.1889
  47   2.0000      -0.515992       -14.0408
  48   2.0000      -0.504531       -13.7290
  49   2.0000      -0.501261       -13.6400
  50   2.0000      -0.491185       -13.3658
  51   2.0000      -0.486762       -13.2455
  52   2.0000      -0.470547       -12.8042
  53   2.0000      -0.466248       -12.6872
  54   2.0000      -0.459812       -12.5121
  55   2.0000      -0.446895       -12.1606
  56   2.0000      -0.442926       -12.0526
  57   2.0000      -0.440378       -11.9833
  58   2.0000      -0.429496       -11.6872
  59   2.0000      -0.427666       -11.6374
  60   2.0000      -0.419887       -11.4257
  61   2.0000      -0.414878       -11.2894
  62   2.0000      -0.408281       -11.1099
  63   2.0000      -0.358922        -9.7668
  64   2.0000      -0.331740        -9.0271
  65   2.0000      -0.326224        -8.8770
  66   2.0000      -0.286611        -7.7991
  67   0.0000       0.017369         0.4726
  68   0.0000       0.078636         2.1398
  69   0.0000       0.104287         2.8378
  70   0.0000       0.116527         3.1709
  71   0.0000       0.123497         3.3605

MULLIKEN ATOMIC CHARGES
-----------------------
   0 S :    0.121892
   1 C :   -0.118766
   2 C :   -0.091877
   3 C :   -0.013967
   4 C :   -0.145289
   5 H :    0.053241
   6 C :    0.097062
   7 H :   -0.002738
   8 H :    0.038989
   9 C :   -0.092477
  10 H :    0.019548
  11 H :    0.034119
  12 C :   -0.023812
  13 H :    0.024759
  14 H :    0.020075
  15 H :    0.040040
  16 S :    0.088246
  17 C :   -0.068158
  18 C :   -0.054876
  19 C :   -0.023659
  20 C :   -0.146015
  21 H :    0.021779
  22 C :   -0.033604
  23 H :    0.019829
  24 H :    0.031791
  25 C :   -0.029070
  26 H :    0.025693
  27 H :    0.034811
  28 C :   -0.041245
  29 H :    0.042661
  30 H :    0.041050
  31 H :    0.022285
  32 H :    0.053998
  33 H :    0.053683
Sum of atomic charges:   -0.0000000

LOEWDIN ATOMIC CHARGES
----------------------
   0 S :    0.421405
   1 C :   -0.211981
   2 C :   -0.063620
   3 C :   -0.065701
   4 C :   -0.192702
   5 H :    0.038598
   6 C :   -0.028747
   7 H :    0.020268
   8 H :    0.038249
   9 C :   -0.035486
  10 H :    0.015288
  11 H :    0.025847
  12 C :   -0.065480
  13 H :    0.023041
  14 H :    0.026754
  15 H :    0.025840
  16 S :    0.397342
  17 C :   -0.181121
  18 C :   -0.071565
  19 C :   -0.070994
  20 C :   -0.191176
  21 H :    0.030958
  22 C :   -0.044181
  23 H :    0.030623
  24 H :    0.033418
  25 C :   -0.036417
  26 H :    0.024661
  27 H :    0.025210
  28 C :   -0.064070
  29 H :    0.030855
  30 H :    0.024997
  31 H :    0.027006
  32 H :    0.029069
  33 H :    0.033810

  Mayer bond orders larger than 0.100000
B(  0-S ,  1-C ) :   1.1502 B(  0-S ,  4-C ) :   1.1591 B(  1-C ,  2-C ) :   1.5898
B(  1-C , 32-H ) :   0.9697 B(  2-C ,  3-C ) :   1.2367 B(  2-C ,  6-C ) :   1.0280
B(  3-C ,  4-C ) :   1.5355 B(  3-C ,  5-H ) :   0.9767 B(  4-C , 20-C ) :   1.0866
B(  6-C ,  7-H ) :   0.9399 B(  6-C ,  8-H ) :   0.9337 B(  6-C ,  9-C ) :   1.0632
B(  9-C , 10-H ) :   0.9594 B(  9-C , 11-H ) :   0.9585 B(  9-C , 12-C ) :   1.0687
B( 12-C , 13-H ) :   0.9734 B( 12-C , 14-H ) :   0.9715 B( 12-C , 15-H ) :   0.9758
B( 16-S , 17-C ) :   1.1375 B( 16-S , 20-C ) :   1.1305 B( 17-C , 18-C ) :   1.6113
B( 17-C , 33-H ) :   0.9706 B( 18-C , 19-C ) :   1.2586 B( 18-C , 21-H ) :   0.9806
B( 19-C , 20-C ) :   1.5854 B( 19-C , 22-C ) :   1.0487 B( 22-C , 23-H ) :   0.9315
B( 22-C , 24-H ) :   0.9309 B( 22-C , 25-C ) :   1.0625 B( 25-C , 26-H ) :   0.9510
B( 25-C , 27-H ) :   0.9525 B( 25-C , 28-C ) :   1.0797 B( 28-C , 29-H ) :   0.9732
B( 28-C , 30-H ) :   0.9748 B( 28-C , 31-H ) :   0.9726

Dispersion correction           -0.015001007
FINAL SINGLE POINT ENERGY     -1339.876636509748

DIPOLE MOMENT
-------------
                                X             Y             Z
Electronic contribution:     -7.71527       5.61604     -30.15267
Nuclear contribution   :      7.93725      -5.75656      30.66806
                        -----------------------------------------
Total Dipole Moment    :      0.22198      -0.14052       0.51539
                        -----------------------------------------
Magnitude (a.u.)       :      0.57849
Magnitude (Debye)      :      1.47040

Rotational constants in cm-1:     0.017258     0.010437     0.007090
Rotational constants in MHz :   517.370203   312.900964   212.548446

                             ****ORCA TERMINATED NORMALLY****
TOTAL RUN TIME: 0 days 0 hours 0 minutes 22 seconds 447 msec
