                         Program Version 4.2.1 -  RELEASE  -
|  1> ! wB97X-D3 SP def2-SVP
|  2> %pal
|  3> nprocs 24
|  4> end
|  5>
|  6> * xyz 0 1
|  7> S 	 -104.319 	 47.3168 	 -96.5815
|  8> C 	 -103.981 	 48.9253 	 -95.9465
|  9> C 	 -105.129 	 49.5074 	 -95.4482
| 10> C 	 -106.261 	 48.8169 	 -95.8945
| 11> C 	 -106.068 	 47.6619 	 -96.6491
| 12> H 	 -107.281 	 49.1071 	 -95.5477
| 13> C 	 -105.161 	 50.6524 	 -94.4991
| 14> H 	 -105.214 	 51.5053 	 -95.1539
| 15> H 	 -104.205 	 50.5438 	 -93.9259
| 16> C 	 -106.168 	 50.6747 	 -93.4386
| 17> H 	 -105.925 	 51.5631 	 -92.8624
| 18> H 	 -107.175 	 50.9246 	 -93.8518
| 19> C 	 -106.2 	 49.4885 	 -92.5266
| 20> H 	 -106.88 	 49.6876 	 -91.7214
| 21> H 	 -106.571 	 48.6497 	 -93.0498
| 22> H 	 -105.242 	 49.3736 	 -92.0875
| 23> S 	 -107.366 	 45.1789 	 -96.3672
| 24> C 	 -108.189 	 44.5468 	 -97.7631
| 25> C 	 -108.498 	 45.5895 	 -98.6515
| 26> C 	 -107.803 	 46.7934 	 -98.366
| 27> C 	 -107.049 	 46.7193 	 -97.1951
| 28> H 	 -108.995 	 45.3248 	 -99.5308
| 29> C 	 -108.024 	 48.049 	 -99.3457
| 30> H 	 -107.308 	 48.0551 	 -100.112
| 31> H 	 -107.806 	 48.9179 	 -98.6855
| 32> C 	 -109.432 	 48.2634 	 -99.9806
| 33> H 	 -110.229 	 48.0763 	 -99.2527
| 34> H 	 -109.421 	 47.6183 	 -100.87
| 35> C 	 -109.564 	 49.7569 	 -100.437
| 36> H 	 -110.469 	 49.9042 	 -101.015
| 37> H 	 -108.731 	 50.1287 	 -101.055
| 38> H 	 -109.506 	 50.506 	 -99.6619
| 39> H 	 -102.932 	 49.1039 	 -95.669
| 40> H 	 -108.46 	 43.5375 	 -97.9697
| 41> *
| 42>
| 43>                          ****END OF INPUT****

CARTESIAN COORDINATES (ANGSTROEM)
---------------------------------
  S    -104.319000   47.316800  -96.581500
  C    -103.981000   48.925300  -95.946500
  C    -105.129000   49.507400  -95.448200
  C    -106.261000   48.816900  -95.894500
  C    -106.068000   47.661900  -96.649100
  H    -107.281000   49.107100  -95.547700
  C    -105.161000   50.652400  -94.499100
  H    -105.214000   51.505300  -95.153900
  H    -104.205000   50.543800  -93.925900
  C    -106.168000   50.674700  -93.438600
  H    -105.925000   51.563100  -92.862400
  H    -107.175000   50.924600  -93.851800
  C    -106.200000   49.488500  -92.526600
  H    -106.880000   49.687600  -91.721400
  H    -106.571000   48.649700  -93.049800
  H    -105.242000   49.373600  -92.087500
  S    -107.366000   45.178900  -96.367200
  C    -108.189000   44.546800  -97.763100
  C    -108.498000   45.589500  -98.651500
  C    -107.803000   46.793400  -98.366000
  C    -107.049000   46.719300  -97.195100
  H    -108.995000   45.324800  -99.530800
  C    -108.024000   48.049000  -99.345700
  H    -107.308000   48.055100  -100.112000
  H    -107.806000   48.917900  -98.685500
  C    -109.432000   48.263400  -99.980600
  H    -110.229000   48.076300  -99.252700
  H    -109.421000   47.618300  -100.870000
  C    -109.564000   49.756900  -100.437000
  H    -110.469000   49.904200  -101.015000
  H    -108.731000   50.128700  -101.055000
  H    -109.506000   50.506000  -99.661900
  H    -102.932000   49.103900  -95.669000
  H    -108.460000   43.537500  -97.969700

 Total Charge           Charge          ....    0
 Multiplicity           Mult            ....    1
 Number of Electrons    NEL             ....  134
 Basis Dimension        Dim             ....  322

ORBITAL ENERGIES
----------------

  NO   OCC          E(Eh)            E(eV)
   0   2.0000     -88.965395     -2420.8715
   1   2.0000     -88.961146     -2420.7558
   2   2.0000     -10.331282      -281.1285
   3   2.0000     -10.327768      -281.0329
   4   2.0000     -10.316127      -280.7161
   5   2.0000     -10.314462      -280.6708
   6   2.0000     -10.308306      -280.5033
   7   2.0000     -10.295655      -280.1590
   8   2.0000     -10.295506      -280.1550
   9   2.0000     -10.294983      -280.1407
  10   2.0000     -10.293475      -280.0997
  11   2.0000     -10.287630      -279.9407
  12   2.0000     -10.287423      -279.9350
  13   2.0000     -10.282084      -279.7897
  14   2.0000     -10.279567      -279.7212
  15   2.0000     -10.267569      -279.3948
  16   2.0000      -8.079792      -219.8623
  17   2.0000      -8.075408      -219.7430
  18   2.0000      -6.038298      -164.3104
  19   2.0000      -6.034382      -164.2039
  20   2.0000      -6.033824      -164.1887
  21   2.0000      -6.030547      -164.0995
  22   2.0000      -6.030170      -164.0893
  23   2.0000      -6.026095      -163.9784
  24   2.0000      -1.000603       -27.2278
  25   2.0000      -0.982304       -26.7298
  26   2.0000      -0.926462       -25.2103
  27   2.0000      -0.898531       -24.4503
  28   2.0000      -0.868134       -23.6231
  29   2.0000      -0.845629       -23.0107
  30   2.0000      -0.843258       -22.9462
  31   2.0000      -0.813421       -22.1343
  32   2.0000      -0.786811       -21.4102
  33   2.0000      -0.773243       -21.0410
  34   2.0000      -0.708923       -19.2908
  35   2.0000      -0.699384       -19.0312
  36   2.0000      -0.690325       -18.7847
  37   2.0000      -0.654279       -17.8038
  38   2.0000      -0.634479       -17.2650
  39   2.0000      -0.624508       -16.9937
  40   2.0000      -0.590623       -16.0717
  41   2.0000      -0.578007       -15.7284
  42   2.0000      -0.568958       -15.4821
  43   2.0000      -0.563957       -15.3460
  44   2.0000      -0.544505       -14.8167
  45   2.0000      -0.521675       -14.1955
  46   2.0000      -0.519195       -14.1280
  47   2.0000      -0.511025       -13.9057
  48   2.0000      -0.499561       -13.5937
  49   2.0000      -0.494010       -13.4427
  50   2.0000      -0.482322       -13.1247
  51   2.0000      -0.480326       -13.0703
  52   2.0000      -0.473950       -12.8968
  53   2.0000      -0.469542       -12.7769
  54   2.0000      -0.457053       -12.4370
  55   2.0000      -0.445132       -12.1126
  56   2.0000      -0.443806       -12.0766
  57   2.0000      -0.434813       -11.8319
  58   2.0000      -0.432439       -11.7673
  59   2.0000      -0.423189       -11.5156
  60   2.0000      -0.421445       -11.4681
  61   2.0000      -0.413751       -11.2587
  62   2.0000      -0.409538       -11.1441
  63   2.0000      -0.332613        -9.0509
  64   2.0000      -0.328942        -8.9510
  65   2.0000      -0.320887        -8.7318
  66   2.0000      -0.300333        -8.1725
  67   0.0000       0.029197         0.7945
  68   0.0000       0.052529         1.4294
  69   0.0000       0.110847         3.0163
  70   0.0000       0.113366         3.0849
  71   0.0000       0.137028         3.7287

MULLIKEN ATOMIC CHARGES
-----------------------
   0 S :    0.098713
   1 C :   -0.143296
   2 C :   -0.116615
   3 C :    0.034334
   4 C :   -0.168010
   5 H :    0.022637
   6 C :    0.100207
   7 H :    0.045003
   8 H :    0.021431
   9 C :   -0.105315
  10 H :    0.022821
  11 H :    0.021014
  12 C :    0.017746
  13 H :    0.024596
  14 H :    0.032343
  15 H :    0.019550
  16 S :    0.116660
  17 C :   -0.090274
  18 C :   -0.027551
  19 C :   -0.006442
  20 C :   -0.195230
  21 H :    0.002060
  22 C :    0.061872
  23 H :    0.028858
  24 H :    0.027321
  25 C :   -0.069447
  26 H :    0.047839
  27 H :    0.042440
  28 C :   -0.062471
  29 H :    0.036773
  30 H :    0.023776
  31 H :    0.026992
  32 H :    0.060245
  33 H :    0.049419
Sum of atomic charges:   -0.0000000

LOEWDIN ATOMIC CHARGES
----------------------
   0 S :    0.390742
   1 C :   -0.190199
   2 C :   -0.074651
   3 C :   -0.065000
   4 C :   -0.191079
   5 H :    0.034584
   6 C :   -0.033548
   7 H :    0.038232
   8 H :    0.036733
   9 C :   -0.050090
  10 H :    0.028480
  11 H :    0.021363
  12 C :   -0.049483
  13 H :    0.028245
  14 H :    0.023402
  15 H :    0.022910
  16 S :    0.400643
  17 C :   -0.179072
  18 C :   -0.072221
  19 C :   -0.044803
  20 C :   -0.207020
  21 H :    0.020904
  22 C :   -0.023835
  23 H :    0.023330
  24 H :    0.030743
  25 C :   -0.035802
  26 H :    0.029881
  27 H :    0.027829
  28 C :   -0.070106
  29 H :    0.025486
  30 H :    0.026930
  31 H :    0.022951
  32 H :    0.027891
  33 H :    0.025631

  Mayer bond orders larger than 0.100000
B(  0-S ,  1-C ) :   1.1602 B(  0-S ,  4-C ) :   1.1531 B(  1-C ,  2-C ) :   1.5773
B(  1-C ,  4-C ) :   0.1118 B(  1-C , 32-H ) :   0.9663 B(  2-C ,  3-C ) :   1.2837
B(  2-C ,  6-C ) :   0.9920 B(  3-C ,  4-C ) :   1.5505 B(  3-C ,  5-H ) :   0.9819
B(  4-C , 20-C ) :   1.0448 B(  6-C ,  7-H ) :   0.9276 B(  6-C ,  8-H ) :   0.9411
B(  6-C ,  9-C ) :   1.1072 B(  9-C , 10-H ) :   0.9464 B(  9-C , 11-H ) :   0.9374
B(  9-C , 12-C ) :   1.0893 B( 12-C , 13-H ) :   0.9682 B( 12-C , 14-H ) :   0.9700
B( 12-C , 15-H ) :   0.9703 B( 16-S , 17-C ) :   1.1661 B( 16-S , 20-C ) :   1.1359
B( 17-C , 18-C ) :   1.5969 B( 17-C , 20-C ) :   0.1028 B( 17-C , 33-H ) :   0.9693
B( 18-C , 19-C ) :   1.2523 B( 18-C , 21-H ) :   0.9950 B( 19-C , 20-C ) :   1.6093
B( 19-C , 22-C ) :   1.0033 B( 22-C , 23-H ) :   0.9367 B( 22-C , 24-H ) :   0.9488
B( 22-C , 25-C ) :   1.0658 B( 25-C , 26-H ) :   0.9608 B( 25-C , 27-H ) :   0.9498
B( 25-C , 28-C ) :   1.0786 B( 28-C , 29-H ) :   0.9754 B( 28-C , 30-H ) :   0.9737
B( 28-C , 31-H ) :   0.9755

Dispersion correction           -0.013914517
FINAL SINGLE POINT ENERGY     -1339.854039772996

DIPOLE MOMENT
-------------
                                X             Y             Z
Electronic contribution:     10.70019     -20.52704       0.37211
Nuclear contribution   :    -10.96394      20.99761      -0.33306
                        -----------------------------------------
Total Dipole Moment    :     -0.26375       0.47057       0.03906
                        -----------------------------------------
Magnitude (a.u.)       :      0.54086
Magnitude (Debye)      :      1.37474

Rotational constants in cm-1:     0.017120     0.008344     0.006969
Rotational constants in MHz :   513.255133   250.133183   208.927752

                             ****ORCA TERMINATED NORMALLY****
TOTAL RUN TIME: 0 days 0 hours 0 minutes 21 seconds 218 msec
