                         Program Version 4.2.1 -  RELEASE  -
|  1> ! wB97X-D3 SP def2-SVP
|  2> %pal
|  3> nprocs 24
|  4> end
|  5>
|  6> * xyz 0 1
|  7> S 	 -87.0202 	 -32.8499 	 -67.6412
|  8> C 	 -86.505 	 -34.2088 	 -68.6248
|  9> C 	 -87.3456 	 -35.2733 	 -68.4147
| 10> C 	 -88.3082 	 -35.0661 	 -67.3985
| 11> C 	 -88.3536 	 -33.7212 	 -66.9668
| 12> H 	 -89.0147 	 -35.7293 	 -66.9899
| 13> C 	 -87.4053 	 -36.6563 	 -69.1526
| 14> H 	 -88.1089 	 -37.3309 	 -68.7212
| 15> H 	 -86.3181 	 -37.1384 	 -69.1031
| 16> C 	 -87.7543 	 -36.482 	 -70.6125
| 17> H 	 -87.337 	 -35.5573 	 -70.9191
| 18> H 	 -87.2529 	 -37.1778 	 -71.3262
| 19> C 	 -89.2194 	 -36.3188 	 -70.934
| 20> H 	 -89.514 	 -35.3467 	 -70.7233
| 21> H 	 -89.4517 	 -36.6548 	 -71.9516
| 22> H 	 -89.9081 	 -36.8312 	 -70.3595
| 23> S 	 -88.1957 	 -32.6848 	 -64.4655
| 24> C 	 -89.588 	 -32.1498 	 -63.6167
| 25> C 	 -90.7444 	 -32.5167 	 -64.3218
| 26> C 	 -90.5011 	 -33.0597 	 -65.6322
| 27> C 	 -89.1343 	 -33.1273 	 -65.8548
| 28> H 	 -91.656 	 -32.3307 	 -63.8729
| 29> C 	 -91.5716 	 -33.6977 	 -66.4599
| 30> H 	 -92.3461 	 -34.226 	 -65.8521
| 31> H 	 -91.1008 	 -34.5163 	 -67.0635
| 32> C 	 -92.3408 	 -32.793 	 -67.471
| 33> H 	 -92.798 	 -31.8936 	 -67.0283
| 34> H 	 -93.2042 	 -33.3535 	 -67.9547
| 35> C 	 -91.5634 	 -32.1155 	 -68.6488
| 36> H 	 -92.2337 	 -31.4851 	 -69.2104
| 37> H 	 -91.0225 	 -32.8352 	 -69.3087
| 38> H 	 -90.6698 	 -31.5413 	 -68.3111
| 39> H 	 -85.8341 	 -34.1659 	 -69.5224
| 40> H 	 -89.7907 	 -31.7702 	 -62.6432
| 41> *
| 42>
| 43>                          ****END OF INPUT****

CARTESIAN COORDINATES (ANGSTROEM)
---------------------------------
  S    -87.020200  -32.849900  -67.641200
  C    -86.505000  -34.208800  -68.624800
  C    -87.345600  -35.273300  -68.414700
  C    -88.308200  -35.066100  -67.398500
  C    -88.353600  -33.721200  -66.966800
  H    -89.014700  -35.729300  -66.989900
  C    -87.405300  -36.656300  -69.152600
  H    -88.108900  -37.330900  -68.721200
  H    -86.318100  -37.138400  -69.103100
  C    -87.754300  -36.482000  -70.612500
  H    -87.337000  -35.557300  -70.919100
  H    -87.252900  -37.177800  -71.326200
  C    -89.219400  -36.318800  -70.934000
  H    -89.514000  -35.346700  -70.723300
  H    -89.451700  -36.654800  -71.951600
  H    -89.908100  -36.831200  -70.359500
  S    -88.195700  -32.684800  -64.465500
  C    -89.588000  -32.149800  -63.616700
  C    -90.744400  -32.516700  -64.321800
  C    -90.501100  -33.059700  -65.632200
  C    -89.134300  -33.127300  -65.854800
  H    -91.656000  -32.330700  -63.872900
  C    -91.571600  -33.697700  -66.459900
  H    -92.346100  -34.226000  -65.852100
  H    -91.100800  -34.516300  -67.063500
  C    -92.340800  -32.793000  -67.471000
  H    -92.798000  -31.893600  -67.028300
  H    -93.204200  -33.353500  -67.954700
  C    -91.563400  -32.115500  -68.648800
  H    -92.233700  -31.485100  -69.210400
  H    -91.022500  -32.835200  -69.308700
  H    -90.669800  -31.541300  -68.311100
  H    -85.834100  -34.165900  -69.522400
  H    -89.790700  -31.770200  -62.643200

 Total Charge           Charge          ....    0
 Multiplicity           Mult            ....    1
 Number of Electrons    NEL             ....  134
 Basis Dimension        Dim             ....  322

ORBITAL ENERGIES
----------------

  NO   OCC          E(Eh)            E(eV)
   0   2.0000     -88.970937     -2421.0223
   1   2.0000     -88.970796     -2421.0184
   2   2.0000     -10.333463      -281.1878
   3   2.0000     -10.328780      -281.0604
   4   2.0000     -10.319149      -280.7983
   5   2.0000     -10.313513      -280.6449
   6   2.0000     -10.306076      -280.4426
   7   2.0000     -10.305375      -280.4235
   8   2.0000     -10.302270      -280.3390
   9   2.0000     -10.302063      -280.3334
  10   2.0000     -10.294335      -280.1231
  11   2.0000     -10.293959      -280.1129
  12   2.0000     -10.289450      -279.9902
  13   2.0000     -10.280332      -279.7421
  14   2.0000     -10.276607      -279.6407
  15   2.0000     -10.262869      -279.2669
  16   2.0000      -8.085981      -220.0307
  17   2.0000      -8.085415      -220.0153
  18   2.0000      -6.044551      -164.4806
  19   2.0000      -6.043870      -164.4621
  20   2.0000      -6.040352      -164.3663
  21   2.0000      -6.039746      -164.3498
  22   2.0000      -6.036721      -164.2675
  23   2.0000      -6.036405      -164.2589
  24   2.0000      -1.011447       -27.5229
  25   2.0000      -0.988655       -26.9027
  26   2.0000      -0.914793       -24.8928
  27   2.0000      -0.902621       -24.5616
  28   2.0000      -0.869358       -23.6564
  29   2.0000      -0.850611       -23.1463
  30   2.0000      -0.846080       -23.0230
  31   2.0000      -0.813957       -22.1489
  32   2.0000      -0.786787       -21.4096
  33   2.0000      -0.776284       -21.1238
  34   2.0000      -0.708104       -19.2685
  35   2.0000      -0.701178       -19.0800
  36   2.0000      -0.688851       -18.7446
  37   2.0000      -0.663551       -18.0561
  38   2.0000      -0.643473       -17.5098
  39   2.0000      -0.615060       -16.7366
  40   2.0000      -0.594019       -16.1641
  41   2.0000      -0.578833       -15.7509
  42   2.0000      -0.555460       -15.1148
  43   2.0000      -0.545478       -14.8432
  44   2.0000      -0.540861       -14.7176
  45   2.0000      -0.529618       -14.4116
  46   2.0000      -0.515170       -14.0185
  47   2.0000      -0.512045       -13.9334
  48   2.0000      -0.505064       -13.7435
  49   2.0000      -0.500862       -13.6291
  50   2.0000      -0.491821       -13.3831
  51   2.0000      -0.485916       -13.2224
  52   2.0000      -0.471883       -12.8406
  53   2.0000      -0.469893       -12.7865
  54   2.0000      -0.455634       -12.3984
  55   2.0000      -0.443547       -12.0695
  56   2.0000      -0.442859       -12.0508
  57   2.0000      -0.438526       -11.9329
  58   2.0000      -0.429934       -11.6991
  59   2.0000      -0.428756       -11.6670
  60   2.0000      -0.417960       -11.3733
  61   2.0000      -0.408857       -11.1256
  62   2.0000      -0.404808       -11.0154
  63   2.0000      -0.343290        -9.3414
  64   2.0000      -0.335243        -9.1224
  65   2.0000      -0.329424        -8.9641
  66   2.0000      -0.298873        -8.1327
  67   0.0000       0.030451         0.8286
  68   0.0000       0.060468         1.6454
  69   0.0000       0.104835         2.8527
  70   0.0000       0.118498         3.2245
  71   0.0000       0.125255         3.4084

MULLIKEN ATOMIC CHARGES
-----------------------
   0 S :    0.116992
   1 C :   -0.131823
   2 C :   -0.091525
   3 C :    0.056483
   4 C :   -0.179375
   5 H :    0.002428
   6 C :    0.048749
   7 H :    0.021941
   8 H :    0.054554
   9 C :   -0.064524
  10 H :    0.004892
  11 H :    0.029962
  12 C :    0.002843
  13 H :    0.015538
  14 H :    0.032835
  15 H :   -0.006958
  16 S :    0.140887
  17 C :   -0.067216
  18 C :   -0.046549
  19 C :    0.011088
  20 C :   -0.171499
  21 H :   -0.010372
  22 C :    0.052737
  23 H :    0.041905
  24 H :    0.023205
  25 C :   -0.097390
  26 H :    0.030890
  27 H :    0.038273
  28 C :   -0.079424
  29 H :    0.039349
  30 H :    0.028895
  31 H :    0.036346
  32 H :    0.072839
  33 H :    0.043024
Sum of atomic charges:    0.0000000

LOEWDIN ATOMIC CHARGES
----------------------
   0 S :    0.425609
   1 C :   -0.214144
   2 C :   -0.062959
   3 C :   -0.060325
   4 C :   -0.201926
   5 H :    0.023016
   6 C :   -0.026299
   7 H :    0.021621
   8 H :    0.047257
   9 C :   -0.049844
  10 H :    0.019020
  11 H :    0.027022
  12 C :   -0.058523
  13 H :    0.020334
  14 H :    0.033124
  15 H :    0.011993
  16 S :    0.441273
  17 C :   -0.203695
  18 C :   -0.056903
  19 C :   -0.059525
  20 C :   -0.207599
  21 H :    0.015681
  22 C :   -0.037972
  23 H :    0.040916
  24 H :    0.034444
  25 C :   -0.047878
  26 H :    0.024364
  27 H :    0.029649
  28 C :   -0.076295
  29 H :    0.024365
  30 H :    0.023263
  31 H :    0.028239
  32 H :    0.042281
  33 H :    0.030413

  Mayer bond orders larger than 0.100000
B(  0-S ,  1-C ) :   1.1412 B(  0-S ,  4-C ) :   1.1832 B(  1-C ,  2-C ) :   1.6082
B(  1-C ,  4-C ) :   0.1061 B(  1-C , 32-H ) :   0.9541 B(  2-C ,  3-C ) :   1.2582
B(  2-C ,  6-C ) :   1.0114 B(  3-C ,  4-C ) :   1.5401 B(  3-C ,  5-H ) :   0.9977
B(  4-C , 20-C ) :   0.9938 B(  6-C ,  7-H ) :   0.9559 B(  6-C ,  8-H ) :   0.9405
B(  6-C ,  9-C ) :   1.0610 B(  9-C , 10-H ) :   0.9578 B(  9-C , 11-H ) :   0.9591
B(  9-C , 12-C ) :   1.0680 B( 12-C , 13-H ) :   0.9752 B( 12-C , 14-H ) :   0.9726
B( 12-C , 15-H ) :   0.9721 B( 16-S , 17-C ) :   1.1512 B( 16-S , 20-C ) :   1.1715
B( 17-C , 18-C ) :   1.6157 B( 17-C , 33-H ) :   0.9682 B( 18-C , 19-C ) :   1.2419
B( 18-C , 21-H ) :   0.9962 B( 19-C , 20-C ) :   1.5819 B( 19-C , 22-C ) :   1.0376
B( 22-C , 23-H ) :   0.9411 B( 22-C , 24-H ) :   0.9353 B( 22-C , 25-C ) :   1.0614
B( 25-C , 26-H ) :   0.9602 B( 25-C , 27-H ) :   0.9574 B( 25-C , 28-C ) :   1.0704
B( 28-C , 29-H ) :   0.9758 B( 28-C , 30-H ) :   0.9749 B( 28-C , 31-H ) :   0.9728

Dispersion correction           -0.015187089
FINAL SINGLE POINT ENERGY     -1339.854669443774

DIPOLE MOMENT
-------------
                                X             Y             Z
Electronic contribution:     15.67744      10.88113      20.68919
Nuclear contribution   :    -16.12506     -11.28824     -20.84288
                        -----------------------------------------
Total Dipole Moment    :     -0.44762      -0.40711      -0.15369
                        -----------------------------------------
Magnitude (a.u.)       :      0.62428
Magnitude (Debye)      :      1.58679

Rotational constants in cm-1:     0.019633     0.009456     0.007428
Rotational constants in MHz :   588.580584   283.495050   222.674692

                             ****ORCA TERMINATED NORMALLY****
TOTAL RUN TIME: 0 days 0 hours 0 minutes 22 seconds 399 msec
