                         Program Version 4.2.1 -  RELEASE  -
|  1> ! wB97X-D3 SP def2-SVP
|  2> %pal
|  3> nprocs 24
|  4> end
|  5>
|  6> * xyz 0 1
|  7> S 	 0.830433 	 -28.9732 	 -113.364
|  8> C 	 1.77041 	 -28.6348 	 -114.764
|  9> C 	 3.03514 	 -28.129 	 -114.419
| 10> C 	 3.09952 	 -27.9093 	 -112.981
| 11> C 	 1.92541 	 -28.1572 	 -112.299
| 12> H 	 3.87082 	 -27.3163 	 -112.504
| 13> C 	 4.22055 	 -27.9479 	 -115.357
| 14> H 	 3.99696 	 -28.5185 	 -116.272
| 15> H 	 5.09627 	 -28.4835 	 -114.945
| 16> C 	 4.67605 	 -26.5393 	 -115.556
| 17> H 	 3.97703 	 -26.1692 	 -116.353
| 18> H 	 4.74807 	 -25.9251 	 -114.696
| 19> C 	 6.04982 	 -26.5085 	 -116.194
| 20> H 	 6.56987 	 -27.4232 	 -116.113
| 21> H 	 6.04357 	 -26.3767 	 -117.216
| 22> H 	 6.84377 	 -25.7093 	 -115.918
| 23> S 	 1.66489 	 -26.3518 	 -110.268
| 24> C 	 1.51547 	 -26.9707 	 -108.699
| 25> C 	 1.5071 	 -28.3396 	 -108.555
| 26> C 	 1.63509 	 -28.9859 	 -109.834
| 27> C 	 1.73857 	 -28.0195 	 -110.85
| 28> H 	 1.38248 	 -28.7585 	 -107.562
| 29> C 	 1.65654 	 -30.4803 	 -109.923
| 30> H 	 0.802467 	 -30.7785 	 -110.452
| 31> H 	 1.59121 	 -30.9895 	 -108.974
| 32> C 	 2.87543 	 -31.048 	 -110.727
| 33> H 	 3.83414 	 -30.6904 	 -110.328
| 34> H 	 2.85773 	 -30.4307 	 -111.605
| 35> C 	 2.81941 	 -32.5297 	 -111.08
| 36> H 	 3.37621 	 -32.7708 	 -111.98
| 37> H 	 1.71194 	 -32.5902 	 -111.333
| 38> H 	 3.12491 	 -33.2583 	 -110.275
| 39> H 	 1.45541 	 -28.8215 	 -115.779
| 40> H 	 1.41118 	 -26.2582 	 -107.859
| 41> *
| 42>
| 43>                          ****END OF INPUT****

CARTESIAN COORDINATES (ANGSTROEM)
---------------------------------
  S      0.830433  -28.973200  -113.364000
  C      1.770410  -28.634800  -114.764000
  C      3.035140  -28.129000  -114.419000
  C      3.099520  -27.909300  -112.981000
  C      1.925410  -28.157200  -112.299000
  H      3.870820  -27.316300  -112.504000
  C      4.220550  -27.947900  -115.357000
  H      3.996960  -28.518500  -116.272000
  H      5.096270  -28.483500  -114.945000
  C      4.676050  -26.539300  -115.556000
  H      3.977030  -26.169200  -116.353000
  H      4.748070  -25.925100  -114.696000
  C      6.049820  -26.508500  -116.194000
  H      6.569870  -27.423200  -116.113000
  H      6.043570  -26.376700  -117.216000
  H      6.843770  -25.709300  -115.918000
  S      1.664890  -26.351800  -110.268000
  C      1.515470  -26.970700  -108.699000
  C      1.507100  -28.339600  -108.555000
  C      1.635090  -28.985900  -109.834000
  C      1.738570  -28.019500  -110.850000
  H      1.382480  -28.758500  -107.562000
  C      1.656540  -30.480300  -109.923000
  H      0.802467  -30.778500  -110.452000
  H      1.591210  -30.989500  -108.974000
  C      2.875430  -31.048000  -110.727000
  H      3.834140  -30.690400  -110.328000
  H      2.857730  -30.430700  -111.605000
  C      2.819410  -32.529700  -111.080000
  H      3.376210  -32.770800  -111.980000
  H      1.711940  -32.590200  -111.333000
  H      3.124910  -33.258300  -110.275000
  H      1.455410  -28.821500  -115.779000
  H      1.411180  -26.258200  -107.859000

 Total Charge           Charge          ....    0
 Multiplicity           Mult            ....    1
 Number of Electrons    NEL             ....  134
 Basis Dimension        Dim             ....  322

ORBITAL ENERGIES
----------------

  NO   OCC          E(Eh)            E(eV)
   0   2.0000     -88.969050     -2420.9709
   1   2.0000     -88.965542     -2420.8755
   2   2.0000     -10.327336      -281.0211
   3   2.0000     -10.326232      -280.9911
   4   2.0000     -10.314920      -280.6832
   5   2.0000     -10.312915      -280.6287
   6   2.0000     -10.308267      -280.5022
   7   2.0000     -10.305132      -280.4169
   8   2.0000     -10.295013      -280.1415
   9   2.0000     -10.293268      -280.0941
  10   2.0000     -10.292565      -280.0749
  11   2.0000     -10.285825      -279.8915
  12   2.0000     -10.285397      -279.8799
  13   2.0000     -10.282640      -279.8048
  14   2.0000     -10.276826      -279.6466
  15   2.0000     -10.270487      -279.4742
  16   2.0000      -8.084561      -219.9921
  17   2.0000      -8.080742      -219.8882
  18   2.0000      -6.042795      -164.4328
  19   2.0000      -6.039242      -164.3361
  20   2.0000      -6.039126      -164.3330
  21   2.0000      -6.035407      -164.2318
  22   2.0000      -6.035058      -164.2223
  23   2.0000      -6.031621      -164.1288
  24   2.0000      -1.008048       -27.4304
  25   2.0000      -0.986991       -26.8574
  26   2.0000      -0.919856       -25.0306
  27   2.0000      -0.908672       -24.7262
  28   2.0000      -0.868714       -23.6389
  29   2.0000      -0.852931       -23.2094
  30   2.0000      -0.847069       -23.0499
  31   2.0000      -0.810964       -22.0675
  32   2.0000      -0.784712       -21.3531
  33   2.0000      -0.770322       -20.9615
  34   2.0000      -0.708173       -19.2704
  35   2.0000      -0.700833       -19.0706
  36   2.0000      -0.686368       -18.6770
  37   2.0000      -0.660091       -17.9620
  38   2.0000      -0.641324       -17.4513
  39   2.0000      -0.620098       -16.8737
  40   2.0000      -0.600897       -16.3513
  41   2.0000      -0.574486       -15.6326
  42   2.0000      -0.566081       -15.4038
  43   2.0000      -0.558276       -15.1914
  44   2.0000      -0.528236       -14.3740
  45   2.0000      -0.520700       -14.1690
  46   2.0000      -0.514036       -13.9876
  47   2.0000      -0.509283       -13.8583
  48   2.0000      -0.504003       -13.7146
  49   2.0000      -0.499969       -13.6049
  50   2.0000      -0.491495       -13.3743
  51   2.0000      -0.483882       -13.1671
  52   2.0000      -0.468543       -12.7497
  53   2.0000      -0.462951       -12.5975
  54   2.0000      -0.455540       -12.3959
  55   2.0000      -0.452577       -12.3153
  56   2.0000      -0.445199       -12.1145
  57   2.0000      -0.438695       -11.9375
  58   2.0000      -0.435199       -11.8424
  59   2.0000      -0.422010       -11.4835
  60   2.0000      -0.421073       -11.4580
  61   2.0000      -0.413019       -11.2388
  62   2.0000      -0.403376       -10.9764
  63   2.0000      -0.337159        -9.1746
  64   2.0000      -0.334898        -9.1130
  65   2.0000      -0.324770        -8.8374
  66   2.0000      -0.297700        -8.1008
  67   0.0000       0.040164         1.0929
  68   0.0000       0.062120         1.6904
  69   0.0000       0.102564         2.7909
  70   0.0000       0.116273         3.1640
  71   0.0000       0.133001         3.6191

MULLIKEN ATOMIC CHARGES
-----------------------
   0 S :    0.117022
   1 C :   -0.118387
   2 C :   -0.084982
   3 C :    0.039601
   4 C :   -0.183605
   5 H :    0.016478
   6 C :    0.032205
   7 H :    0.026199
   8 H :    0.033219
   9 C :   -0.032083
  10 H :    0.040545
  11 H :    0.037067
  12 C :   -0.047019
  13 H :    0.006418
  14 H :    0.004808
  15 H :    0.038580
  16 S :    0.132684
  17 C :   -0.101322
  18 C :   -0.046186
  19 C :   -0.005359
  20 C :   -0.203713
  21 H :    0.020486
  22 C :    0.126271
  23 H :    0.010908
  24 H :    0.015031
  25 C :   -0.093207
  26 H :    0.018963
  27 H :    0.027384
  28 C :   -0.050279
  29 H :    0.038085
  30 H :    0.028938
  31 H :    0.050040
  32 H :    0.044910
  33 H :    0.060298
Sum of atomic charges:    0.0000000

LOEWDIN ATOMIC CHARGES
----------------------
   0 S :    0.422947
   1 C :   -0.205876
   2 C :   -0.059695
   3 C :   -0.064395
   4 C :   -0.213048
   5 H :    0.028093
   6 C :   -0.036765
   7 H :    0.032903
   8 H :    0.033712
   9 C :   -0.040000
  10 H :    0.037612
  11 H :    0.024844
  12 C :   -0.074661
  13 H :    0.016257
  14 H :    0.014665
  15 H :    0.038139
  16 S :    0.432474
  17 C :   -0.201806
  18 C :   -0.073888
  19 C :   -0.041537
  20 C :   -0.201894
  21 H :    0.035117
  22 C :   -0.025993
  23 H :    0.024379
  24 H :    0.027519
  25 C :   -0.047431
  26 H :    0.020127
  27 H :    0.022739
  28 C :   -0.072470
  29 H :    0.027518
  30 H :    0.034477
  31 H :    0.030567
  32 H :    0.026659
  33 H :    0.028709

  Mayer bond orders larger than 0.100000
B(  0-S ,  1-C ) :   1.1535 B(  0-S ,  4-C ) :   1.1520 B(  1-C ,  2-C ) :   1.5932
B(  1-C , 32-H ) :   0.9711 B(  2-C ,  3-C ) :   1.2486 B(  2-C ,  6-C ) :   1.0292
B(  3-C ,  4-C ) :   1.5878 B(  3-C ,  5-H ) :   0.9851 B(  4-C , 20-C ) :   1.0106
B(  6-C ,  7-H ) :   0.9429 B(  6-C ,  8-H ) :   0.9417 B(  6-C ,  9-C ) :   1.0621
B(  9-C , 10-H ) :   0.9563 B(  9-C , 11-H ) :   0.9647 B(  9-C , 12-C ) :   1.0610
B( 12-C , 13-H ) :   0.9721 B( 12-C , 14-H ) :   0.9718 B( 12-C , 15-H ) :   0.9754
B( 16-S , 17-C ) :   1.1741 B( 16-S , 20-C ) :   1.1567 B( 17-C , 18-C ) :   1.6144
B( 17-C , 33-H ) :   0.9592 B( 18-C , 19-C ) :   1.2272 B( 18-C , 21-H ) :   0.9949
B( 19-C , 20-C ) :   1.5873 B( 19-C , 22-C ) :   1.0522 B( 22-C , 23-H ) :   0.9146
B( 22-C , 24-H ) :   0.9345 B( 22-C , 25-C ) :   1.0578 B( 25-C , 26-H ) :   0.9527
B( 25-C , 27-H ) :   0.9519 B( 25-C , 28-C ) :   1.0733 B( 28-C , 29-H ) :   0.9732
B( 28-C , 30-H ) :   0.9717 B( 28-C , 31-H ) :   0.9755

Dispersion correction           -0.014555342
FINAL SINGLE POINT ENERGY     -1339.860922396520

DIPOLE MOMENT
-------------
                                X             Y             Z
Electronic contribution:    -17.65875       9.79136      10.39043
Nuclear contribution   :     18.02557      -9.88612     -10.51867
                        -----------------------------------------
Total Dipole Moment    :      0.36682      -0.09476      -0.12824
                        -----------------------------------------
Magnitude (a.u.)       :      0.39998
Magnitude (Debye)      :      1.01666

Rotational constants in cm-1:     0.018228     0.008472     0.007043
Rotational constants in MHz :   546.456449   253.997576   211.137358

                             ****ORCA TERMINATED NORMALLY****
TOTAL RUN TIME: 0 days 0 hours 0 minutes 21 seconds 578 msec
