                         Program Version 4.2.1 -  RELEASE  -
|  1> ! wB97X-D3 SP def2-SVP
|  2> %pal
|  3> nprocs 24
|  4> end
|  5>
|  6> * xyz 0 1
|  7> S 	 -106.115 	 -0.434608 	 -109.264
|  8> C 	 -106.176 	 0.381545 	 -107.707
|  9> C 	 -104.896 	 0.395137 	 -107.1
| 10> C 	 -103.923 	 -0.299272 	 -107.88
| 11> C 	 -104.36 	 -0.665337 	 -109.123
| 12> H 	 -102.882 	 -0.30354 	 -107.658
| 13> C 	 -104.609 	 0.952974 	 -105.7
| 14> H 	 -104.36 	 0.126091 	 -105.147
| 15> H 	 -105.536 	 1.29899 	 -105.304
| 16> C 	 -103.387 	 2.01526 	 -105.571
| 17> H 	 -102.439 	 1.59991 	 -105.987
| 18> H 	 -103.522 	 2.83055 	 -106.275
| 19> C 	 -103.01 	 2.58065 	 -104.167
| 20> H 	 -102.248 	 3.31848 	 -104.274
| 21> H 	 -103.844 	 3.10495 	 -103.609
| 22> H 	 -102.604 	 1.74921 	 -103.554
| 23> S 	 -103.872 	 -2.5906 	 -111.142
| 24> C 	 -102.689 	 -2.20449 	 -112.334
| 25> C 	 -102.034 	 -0.973026 	 -112.11
| 26> C 	 -102.625 	 -0.279389 	 -110.975
| 27> C 	 -103.52 	 -1.09044 	 -110.255
| 28> H 	 -101.289 	 -0.538399 	 -112.812
| 29> C 	 -102.282 	 1.12902 	 -110.694
| 30> H 	 -102.935 	 1.52539 	 -109.924
| 31> H 	 -102.325 	 1.66924 	 -111.594
| 32> C 	 -100.86 	 1.39999 	 -110.263
| 33> H 	 -100.172 	 1.62701 	 -111.13
| 34> H 	 -100.369 	 0.552717 	 -109.823
| 35> C 	 -100.793 	 2.50199 	 -109.325
| 36> H 	 -101.33 	 2.29334 	 -108.358
| 37> H 	 -101.181 	 3.33885 	 -109.885
| 38> H 	 -99.7516 	 2.58927 	 -109.122
| 39> H 	 -107.081 	 0.500593 	 -107.202
| 40> H 	 -102.559 	 -2.71189 	 -113.286
| 41> *
| 42>
| 43>                          ****END OF INPUT****

CARTESIAN COORDINATES (ANGSTROEM)
---------------------------------
  S    -106.115000   -0.434608  -109.264000
  C    -106.176000    0.381545  -107.707000
  C    -104.896000    0.395137  -107.100000
  C    -103.923000   -0.299272  -107.880000
  C    -104.360000   -0.665337  -109.123000
  H    -102.882000   -0.303540  -107.658000
  C    -104.609000    0.952974  -105.700000
  H    -104.360000    0.126091  -105.147000
  H    -105.536000    1.298990  -105.304000
  C    -103.387000    2.015260  -105.571000
  H    -102.439000    1.599910  -105.987000
  H    -103.522000    2.830550  -106.275000
  C    -103.010000    2.580650  -104.167000
  H    -102.248000    3.318480  -104.274000
  H    -103.844000    3.104950  -103.609000
  H    -102.604000    1.749210  -103.554000
  S    -103.872000   -2.590600  -111.142000
  C    -102.689000   -2.204490  -112.334000
  C    -102.034000   -0.973026  -112.110000
  C    -102.625000   -0.279389  -110.975000
  C    -103.520000   -1.090440  -110.255000
  H    -101.289000   -0.538399  -112.812000
  C    -102.282000    1.129020  -110.694000
  H    -102.935000    1.525390  -109.924000
  H    -102.325000    1.669240  -111.594000
  C    -100.860000    1.399990  -110.263000
  H    -100.172000    1.627010  -111.130000
  H    -100.369000    0.552717  -109.823000
  C    -100.793000    2.501990  -109.325000
  H    -101.330000    2.293340  -108.358000
  H    -101.181000    3.338850  -109.885000
  H    -99.751600    2.589270  -109.122000
  H    -107.081000    0.500593  -107.202000
  H    -102.559000   -2.711890  -113.286000

 Total Charge           Charge          ....    0
 Multiplicity           Mult            ....    1
 Number of Electrons    NEL             ....  134
 Basis Dimension        Dim             ....  322

ORBITAL ENERGIES
----------------

  NO   OCC          E(Eh)            E(eV)
   0   2.0000     -88.968400     -2420.9532
   1   2.0000     -88.963760     -2420.8270
   2   2.0000     -10.330098      -281.0962
   3   2.0000     -10.326759      -281.0054
   4   2.0000     -10.321991      -280.8756
   5   2.0000     -10.313446      -280.6431
   6   2.0000     -10.306738      -280.4606
   7   2.0000     -10.306612      -280.4572
   8   2.0000     -10.301228      -280.3107
   9   2.0000     -10.299217      -280.2559
  10   2.0000     -10.292664      -280.0776
  11   2.0000     -10.290647      -280.0227
  12   2.0000     -10.287938      -279.9490
  13   2.0000     -10.279039      -279.7069
  14   2.0000     -10.277049      -279.6527
  15   2.0000     -10.272279      -279.5229
  16   2.0000      -8.082963      -219.9486
  17   2.0000      -8.078071      -219.8155
  18   2.0000      -6.041426      -164.3955
  19   2.0000      -6.037531      -164.2896
  20   2.0000      -6.036573      -164.2635
  21   2.0000      -6.033757      -164.1869
  22   2.0000      -6.032611      -164.1557
  23   2.0000      -6.028880      -164.0542
  24   2.0000      -1.000368       -27.2214
  25   2.0000      -0.978806       -26.6347
  26   2.0000      -0.927529       -25.2394
  27   2.0000      -0.898173       -24.4405
  28   2.0000      -0.866216       -23.5709
  29   2.0000      -0.858176       -23.3522
  30   2.0000      -0.846762       -23.0416
  31   2.0000      -0.814950       -22.1759
  32   2.0000      -0.785234       -21.3673
  33   2.0000      -0.768821       -20.9207
  34   2.0000      -0.707027       -19.2392
  35   2.0000      -0.694566       -18.9001
  36   2.0000      -0.691356       -18.8128
  37   2.0000      -0.655506       -17.8372
  38   2.0000      -0.646204       -17.5841
  39   2.0000      -0.621367       -16.9083
  40   2.0000      -0.602134       -16.3849
  41   2.0000      -0.578095       -15.7308
  42   2.0000      -0.562547       -15.3077
  43   2.0000      -0.551474       -15.0064
  44   2.0000      -0.535510       -14.5720
  45   2.0000      -0.523512       -14.2455
  46   2.0000      -0.520863       -14.1734
  47   2.0000      -0.515309       -14.0223
  48   2.0000      -0.504176       -13.7193
  49   2.0000      -0.495818       -13.4919
  50   2.0000      -0.493584       -13.4311
  51   2.0000      -0.477684       -12.9984
  52   2.0000      -0.477137       -12.9835
  53   2.0000      -0.466674       -12.6988
  54   2.0000      -0.457944       -12.4613
  55   2.0000      -0.450459       -12.2576
  56   2.0000      -0.440467       -11.9857
  57   2.0000      -0.434621       -11.8266
  58   2.0000      -0.433462       -11.7951
  59   2.0000      -0.429162       -11.6781
  60   2.0000      -0.424266       -11.5449
  61   2.0000      -0.419412       -11.4128
  62   2.0000      -0.409892       -11.1537
  63   2.0000      -0.336752        -9.1635
  64   2.0000      -0.328053        -8.9268
  65   2.0000      -0.326116        -8.8741
  66   2.0000      -0.297771        -8.1028
  67   0.0000       0.030071         0.8183
  68   0.0000       0.063330         1.7233
  69   0.0000       0.109595         2.9822
  70   0.0000       0.117037         3.1847
  71   0.0000       0.125429         3.4131

MULLIKEN ATOMIC CHARGES
-----------------------
   0 S :    0.103257
   1 C :   -0.099340
   2 C :   -0.138998
   3 C :    0.052378
   4 C :   -0.156112
   5 H :    0.003029
   6 C :    0.152277
   7 H :    0.014627
   8 H :    0.007596
   9 C :   -0.122996
  10 H :    0.032589
  11 H :    0.032266
  12 C :   -0.060768
  13 H :    0.031546
  14 H :    0.044917
  15 H :    0.040921
  16 S :    0.114923
  17 C :   -0.094729
  18 C :   -0.042931
  19 C :   -0.059721
  20 C :   -0.169256
  21 H :    0.037297
  22 C :    0.129779
  23 H :    0.032233
  24 H :    0.017797
  25 C :   -0.109735
  26 H :    0.024619
  27 H :    0.016038
  28 C :   -0.030848
  29 H :    0.040700
  30 H :    0.029797
  31 H :    0.021959
  32 H :    0.038977
  33 H :    0.065915
Sum of atomic charges:   -0.0000000

LOEWDIN ATOMIC CHARGES
----------------------
   0 S :    0.389905
   1 C :   -0.191691
   2 C :   -0.054803
   3 C :   -0.062122
   4 C :   -0.181686
   5 H :    0.026703
   6 C :   -0.018005
   7 H :    0.022205
   8 H :    0.025543
   9 C :   -0.044599
  10 H :    0.024429
  11 H :    0.021108
  12 C :   -0.069397
  13 H :    0.024171
  14 H :    0.031139
  15 H :    0.028848
  16 S :    0.408338
  17 C :   -0.190273
  18 C :   -0.077338
  19 C :   -0.035627
  20 C :   -0.211137
  21 H :    0.037892
  22 C :   -0.031551
  23 H :    0.033481
  24 H :    0.033087
  25 C :   -0.046463
  26 H :    0.025668
  27 H :    0.015296
  28 C :   -0.058849
  29 H :    0.028927
  30 H :    0.025139
  31 H :    0.023769
  32 H :    0.015497
  33 H :    0.032396

  Mayer bond orders larger than 0.100000
B(  0-S ,  1-C ) :   1.1404 B(  0-S ,  4-C ) :   1.1444 B(  1-C ,  2-C ) :   1.5983
B(  1-C , 32-H ) :   0.9714 B(  2-C ,  3-C ) :   1.2439 B(  2-C ,  6-C ) :   1.0280
B(  3-C ,  4-C ) :   1.5835 B(  3-C ,  5-H ) :   0.9964 B(  4-C , 20-C ) :   1.0346
B(  6-C ,  7-H ) :   0.9352 B(  6-C ,  8-H ) :   0.9428 B(  6-C ,  9-C ) :   1.0327
B(  9-C , 10-H ) :   0.9536 B(  9-C , 11-H ) :   0.9633 B(  9-C , 12-C ) :   1.0830
B( 12-C , 13-H ) :   0.9739 B( 12-C , 14-H ) :   0.9765 B( 12-C , 15-H ) :   0.9758
B( 16-S , 17-C ) :   1.1780 B( 16-S , 20-C ) :   1.1161 B( 17-C , 18-C ) :   1.5990
B( 17-C , 33-H ) :   0.9635 B( 18-C , 19-C ) :   1.2349 B( 18-C , 21-H ) :   0.9826
B( 19-C , 20-C ) :   1.5861 B( 19-C , 22-C ) :   1.0795 B( 22-C , 23-H ) :   0.9351
B( 22-C , 24-H ) :   0.9097 B( 22-C , 25-C ) :   1.0396 B( 25-C , 26-H ) :   0.9468
B( 25-C , 27-H ) :   0.9584 B( 25-C , 28-C ) :   1.1080 B( 28-C , 29-H ) :   0.9690
B( 28-C , 30-H ) :   0.9691 B( 28-C , 31-H ) :   0.9679

Dispersion correction           -0.014806428
FINAL SINGLE POINT ENERGY     -1339.860635974873

DIPOLE MOMENT
-------------
                                X             Y             Z
Electronic contribution:    -17.36182     -22.77542     -17.70194
Nuclear contribution   :     17.85099      23.27512      17.84278
                        -----------------------------------------
Total Dipole Moment    :      0.48917       0.49970       0.14084
                        -----------------------------------------
Magnitude (a.u.)       :      0.71332
Magnitude (Debye)      :      1.81312

Rotational constants in cm-1:     0.018173     0.009239     0.006679
Rotational constants in MHz :   544.802263   276.976769   200.237679

                             ****ORCA TERMINATED NORMALLY****
TOTAL RUN TIME: 0 days 0 hours 0 minutes 22 seconds 124 msec
