                         Program Version 4.2.1 -  RELEASE  -
|  1> ! wB97X-D3 SP def2-SVP
|  2> %pal
|  3> nprocs 24
|  4> end
|  5>
|  6> * xyz 0 1
|  7> S 	 -58.7404 	 4.31992 	 -20.5131
|  8> C 	 -60.4706 	 4.38134 	 -20.555
|  9> C 	 -61.043 	 3.158 	 -20.9028
| 10> C 	 -60.0427 	 2.11698 	 -21.005
| 11> C 	 -58.8058 	 2.60919 	 -20.7415
| 12> H 	 -60.0953 	 1.09192 	 -21.224
| 13> C 	 -62.4484 	 3.04269 	 -21.4006
| 14> H 	 -63.186 	 3.45064 	 -20.7059
| 15> H 	 -62.7958 	 2.02291 	 -21.4136
| 16> C 	 -62.601 	 3.63256 	 -22.7828
| 17> H 	 -62.2757 	 4.63932 	 -22.8882
| 18> H 	 -61.8442 	 3.12273 	 -23.4197
| 19> C 	 -63.9586 	 3.44093 	 -23.4993
| 20> H 	 -64.2499 	 2.39703 	 -23.4311
| 21> H 	 -64.7568 	 3.84486 	 -22.942
| 22> H 	 -64.0121 	 3.79433 	 -24.4565
| 23> S 	 -56.4332 	 1.94806 	 -21.9337
| 24> C 	 -55.4152 	 0.693049 	 -21.1924
| 25> C 	 -56.05 	 0.110175 	 -20.1175
| 26> C 	 -57.3358 	 0.667634 	 -19.841
| 27> C 	 -57.6397 	 1.78341 	 -20.6757
| 28> H 	 -55.5036 	 -0.613231 	 -19.5
| 29> C 	 -58.1828 	 0.000558105 	 -18.7745
| 30> H 	 -59.2389 	 0.365209 	 -18.7342
| 31> H 	 -57.8492 	 0.0925583 	 -17.7835
| 32> C 	 -58.4197 	 -1.53097 	 -18.9852
| 33> H 	 -58.744 	 -1.89481 	 -17.9948
| 34> H 	 -57.4814 	 -1.99871 	 -19.0916
| 35> C 	 -59.3036 	 -1.83203 	 -20.1844
| 36> H 	 -59.3353 	 -2.89284 	 -20.3597
| 37> H 	 -58.7868 	 -1.41163 	 -21.0424
| 38> H 	 -60.2856 	 -1.33241 	 -20.0162
| 39> H 	 -60.9542 	 5.28395 	 -20.6241
| 40> H 	 -54.3704 	 0.362389 	 -21.4136
| 41> *
| 42>
| 43>                          ****END OF INPUT****

CARTESIAN COORDINATES (ANGSTROEM)
---------------------------------
  S    -58.740400    4.319920  -20.513100
  C    -60.470600    4.381340  -20.555000
  C    -61.043000    3.158000  -20.902800
  C    -60.042700    2.116980  -21.005000
  C    -58.805800    2.609190  -20.741500
  H    -60.095300    1.091920  -21.224000
  C    -62.448400    3.042690  -21.400600
  H    -63.186000    3.450640  -20.705900
  H    -62.795800    2.022910  -21.413600
  C    -62.601000    3.632560  -22.782800
  H    -62.275700    4.639320  -22.888200
  H    -61.844200    3.122730  -23.419700
  C    -63.958600    3.440930  -23.499300
  H    -64.249900    2.397030  -23.431100
  H    -64.756800    3.844860  -22.942000
  H    -64.012100    3.794330  -24.456500
  S    -56.433200    1.948060  -21.933700
  C    -55.415200    0.693049  -21.192400
  C    -56.050000    0.110175  -20.117500
  C    -57.335800    0.667634  -19.841000
  C    -57.639700    1.783410  -20.675700
  H    -55.503600   -0.613231  -19.500000
  C    -58.182800    0.000558  -18.774500
  H    -59.238900    0.365209  -18.734200
  H    -57.849200    0.092558  -17.783500
  C    -58.419700   -1.530970  -18.985200
  H    -58.744000   -1.894810  -17.994800
  H    -57.481400   -1.998710  -19.091600
  C    -59.303600   -1.832030  -20.184400
  H    -59.335300   -2.892840  -20.359700
  H    -58.786800   -1.411630  -21.042400
  H    -60.285600   -1.332410  -20.016200
  H    -60.954200    5.283950  -20.624100
  H    -54.370400    0.362389  -21.413600

 Total Charge           Charge          ....    0
 Multiplicity           Mult            ....    1
 Number of Electrons    NEL             ....  134
 Basis Dimension        Dim             ....  322

ORBITAL ENERGIES
----------------

  NO   OCC          E(Eh)            E(eV)
   0   2.0000     -88.967819     -2420.9374
   1   2.0000     -88.966644     -2420.9055
   2   2.0000     -10.327403      -281.0229
   3   2.0000     -10.320873      -280.8452
   4   2.0000     -10.319907      -280.8189
   5   2.0000     -10.307633      -280.4849
   6   2.0000     -10.307494      -280.4812
   7   2.0000     -10.304839      -280.4089
   8   2.0000     -10.293721      -280.1064
   9   2.0000     -10.290544      -280.0199
  10   2.0000     -10.289109      -279.9809
  11   2.0000     -10.287623      -279.9404
  12   2.0000     -10.283057      -279.8162
  13   2.0000     -10.281695      -279.7791
  14   2.0000     -10.277506      -279.6651
  15   2.0000     -10.267231      -279.3855
  16   2.0000      -8.082276      -219.9299
  17   2.0000      -8.081868      -219.9188
  18   2.0000      -6.040624      -164.3737
  19   2.0000      -6.040503      -164.3704
  20   2.0000      -6.036787      -164.2693
  21   2.0000      -6.036387      -164.2584
  22   2.0000      -6.033038      -164.1673
  23   2.0000      -6.032619      -164.1559
  24   2.0000      -1.009972       -27.4827
  25   2.0000      -0.982207       -26.7272
  26   2.0000      -0.915930       -24.9237
  27   2.0000      -0.908549       -24.7229
  28   2.0000      -0.873137       -23.7593
  29   2.0000      -0.853687       -23.2300
  30   2.0000      -0.844557       -22.9816
  31   2.0000      -0.817259       -22.2388
  32   2.0000      -0.786226       -21.3943
  33   2.0000      -0.772247       -21.0139
  34   2.0000      -0.709739       -19.3130
  35   2.0000      -0.706960       -19.2374
  36   2.0000      -0.691146       -18.8071
  37   2.0000      -0.660130       -17.9631
  38   2.0000      -0.649090       -17.6626
  39   2.0000      -0.618777       -16.8378
  40   2.0000      -0.598737       -16.2925
  41   2.0000      -0.572645       -15.5825
  42   2.0000      -0.556831       -15.1521
  43   2.0000      -0.552526       -15.0350
  44   2.0000      -0.538626       -14.6568
  45   2.0000      -0.534860       -14.5543
  46   2.0000      -0.521154       -14.1813
  47   2.0000      -0.515265       -14.0211
  48   2.0000      -0.509524       -13.8649
  49   2.0000      -0.495384       -13.4801
  50   2.0000      -0.493034       -13.4161
  51   2.0000      -0.477485       -12.9930
  52   2.0000      -0.465973       -12.6798
  53   2.0000      -0.462309       -12.5801
  54   2.0000      -0.457769       -12.4565
  55   2.0000      -0.451731       -12.2922
  56   2.0000      -0.447285       -12.1712
  57   2.0000      -0.443136       -12.0583
  58   2.0000      -0.436504       -11.8779
  59   2.0000      -0.431318       -11.7368
  60   2.0000      -0.417500       -11.3607
  61   2.0000      -0.416069       -11.3218
  62   2.0000      -0.406244       -11.0545
  63   2.0000      -0.342853        -9.3295
  64   2.0000      -0.331774        -9.0280
  65   2.0000      -0.326305        -8.8792
  66   2.0000      -0.297310        -8.0902
  67   0.0000       0.032904         0.8954
  68   0.0000       0.064363         1.7514
  69   0.0000       0.115084         3.1316
  70   0.0000       0.117026         3.1844
  71   0.0000       0.127985         3.4826

MULLIKEN ATOMIC CHARGES
-----------------------
   0 S :    0.125974
   1 C :   -0.079493
   2 C :   -0.083841
   3 C :    0.069021
   4 C :   -0.172681
   5 H :   -0.016331
   6 C :    0.091920
   7 H :    0.022349
   8 H :    0.005233
   9 C :   -0.087973
  10 H :    0.015660
  11 H :    0.024401
  12 C :    0.022324
  13 H :    0.011815
  14 H :    0.005631
  15 H :    0.024514
  16 S :    0.112089
  17 C :   -0.103909
  18 C :   -0.057743
  19 C :   -0.002742
  20 C :   -0.173718
  21 H :    0.033903
  22 C :    0.055989
  23 H :    0.021001
  24 H :    0.021238
  25 C :   -0.092523
  26 H :    0.021959
  27 H :    0.007809
  28 C :   -0.031089
  29 H :    0.035861
  30 H :    0.042241
  31 H :    0.041465
  32 H :    0.021662
  33 H :    0.067984
Sum of atomic charges:    0.0000000

LOEWDIN ATOMIC CHARGES
----------------------
   0 S :    0.426617
   1 C :   -0.184708
   2 C :   -0.051361
   3 C :   -0.047586
   4 C :   -0.206537
   5 H :    0.026304
   6 C :   -0.036684
   7 H :    0.030653
   8 H :    0.027300
   9 C :   -0.038873
  10 H :    0.016504
  11 H :    0.029150
  12 C :   -0.055158
  13 H :    0.025939
  14 H :    0.018691
  15 H :    0.016619
  16 S :    0.398747
  17 C :   -0.191722
  18 C :   -0.074882
  19 C :   -0.055103
  20 C :   -0.201563
  21 H :    0.035948
  22 C :   -0.032585
  23 H :    0.031874
  24 H :    0.024486
  25 C :   -0.037205
  26 H :    0.023337
  27 H :    0.009933
  28 C :   -0.063182
  29 H :    0.026249
  30 H :    0.029479
  31 H :    0.028764
  32 H :    0.008253
  33 H :    0.042301

  Mayer bond orders larger than 0.100000
B(  0-S ,  1-C ) :   1.1471 B(  0-S ,  4-C ) :   1.1571 B(  1-C ,  2-C ) :   1.6018
B(  1-C , 32-H ) :   0.9792 B(  2-C ,  3-C ) :   1.2092 B(  2-C ,  6-C ) :   1.0448
B(  3-C ,  4-C ) :   1.5872 B(  3-C ,  5-H ) :   1.0090 B(  4-C , 20-C ) :   1.0276
B(  6-C ,  7-H ) :   0.9304 B(  6-C ,  8-H ) :   0.9345 B(  6-C ,  9-C ) :   1.0558
B(  9-C , 10-H ) :   0.9583 B(  9-C , 11-H ) :   0.9519 B(  9-C , 12-C ) :   1.0841
B( 12-C , 13-H ) :   0.9699 B( 12-C , 14-H ) :   0.9699 B( 12-C , 15-H ) :   0.9743
B( 16-S , 17-C ) :   1.1379 B( 16-S , 20-C ) :   1.1501 B( 17-C , 18-C ) :   1.6365
B( 17-C , 20-C ) :   0.1029 B( 17-C , 33-H ) :   0.9583 B( 18-C , 19-C ) :   1.2311
B( 18-C , 21-H ) :   0.9805 B( 19-C , 20-C ) :   1.5766 B( 19-C , 22-C ) :   1.0486
B( 22-C , 23-H ) :   0.9399 B( 22-C , 24-H ) :   0.9356 B( 22-C , 25-C ) :   1.0720
B( 25-C , 26-H ) :   0.9552 B( 25-C , 27-H ) :   0.9526 B( 25-C , 28-C ) :   1.0732
B( 28-C , 29-H ) :   0.9706 B( 28-C , 30-H ) :   0.9700 B( 28-C , 31-H ) :   0.9715

Dispersion correction           -0.014879061
FINAL SINGLE POINT ENERGY     -1339.866932177691

DIPOLE MOMENT
-------------
                                X             Y             Z
Electronic contribution:     21.92226      13.55779       0.95168
Nuclear contribution   :    -22.24292     -13.97455      -0.88763
                        -----------------------------------------
Total Dipole Moment    :     -0.32066      -0.41676       0.06405
                        -----------------------------------------
Magnitude (a.u.)       :      0.52973
Magnitude (Debye)      :      1.34647

Rotational constants in cm-1:     0.020113     0.008176     0.006859
Rotational constants in MHz :   602.967103   245.115626   205.615800

                             ****ORCA TERMINATED NORMALLY****
TOTAL RUN TIME: 0 days 0 hours 0 minutes 22 seconds 8 msec
