                         Program Version 4.2.1 -  RELEASE  -
|  1> ! wB97X-D3 SP def2-SVP
|  2> %pal
|  3> nprocs 24
|  4> end
|  5>
|  6> * xyz 0 1
|  7> S 	 -121.385 	 53.544 	 -39.211
|  8> C 	 -121.34 	 54.7885 	 -40.5122
|  9> C 	 -122.601 	 55.3056 	 -40.5804
| 10> C 	 -123.457 	 54.9583 	 -39.5271
| 11> C 	 -122.882 	 54.1134 	 -38.6185
| 12> H 	 -124.398 	 55.3232 	 -39.2558
| 13> C 	 -123.107 	 56.2089 	 -41.6862
| 14> H 	 -122.236 	 56.6317 	 -42.2285
| 15> H 	 -123.737 	 56.9885 	 -41.3073
| 16> C 	 -123.954 	 55.3978 	 -42.7793
| 17> H 	 -124.111 	 56.025 	 -43.6915
| 18> H 	 -123.486 	 54.5022 	 -43.1023
| 19> C 	 -125.382 	 54.9767 	 -42.2482
| 20> H 	 -125.808 	 55.7701 	 -41.7191
| 21> H 	 -125.982 	 54.7267 	 -43.0913
| 22> H 	 -125.279 	 54.0359 	 -41.7079
| 23> S 	 -122.683 	 53.8463 	 -35.9529
| 24> C 	 -123.95 	 53.0455 	 -35.004
| 25> C 	 -125.006 	 52.7459 	 -35.8045
| 26> C 	 -124.772 	 53.0728 	 -37.1653
| 27> C 	 -123.519 	 53.6558 	 -37.4196
| 28> H 	 -125.843 	 52.1693 	 -35.4986
| 29> C 	 -125.799 	 52.6541 	 -38.1996
| 30> H 	 -125.911 	 51.6163 	 -38.0576
| 31> H 	 -125.427 	 52.6348 	 -39.2253
| 32> C 	 -127.063 	 53.5297 	 -38.2094
| 33> H 	 -126.927 	 54.5671 	 -38.3832
| 34> H 	 -127.464 	 53.5951 	 -37.1796
| 35> C 	 -128.272 	 53.0849 	 -39.1417
| 36> H 	 -128.053 	 53.1331 	 -40.2354
| 37> H 	 -129.163 	 53.7436 	 -39.0493
| 38> H 	 -128.739 	 52.1017 	 -38.9529
| 39> H 	 -120.618 	 54.8811 	 -41.35
| 40> H 	 -123.882 	 52.7315 	 -33.9692
| 41> *
| 42>
| 43>                          ****END OF INPUT****

CARTESIAN COORDINATES (ANGSTROEM)
---------------------------------
  S    -121.385000   53.544000  -39.211000
  C    -121.340000   54.788500  -40.512200
  C    -122.601000   55.305600  -40.580400
  C    -123.457000   54.958300  -39.527100
  C    -122.882000   54.113400  -38.618500
  H    -124.398000   55.323200  -39.255800
  C    -123.107000   56.208900  -41.686200
  H    -122.236000   56.631700  -42.228500
  H    -123.737000   56.988500  -41.307300
  C    -123.954000   55.397800  -42.779300
  H    -124.111000   56.025000  -43.691500
  H    -123.486000   54.502200  -43.102300
  C    -125.382000   54.976700  -42.248200
  H    -125.808000   55.770100  -41.719100
  H    -125.982000   54.726700  -43.091300
  H    -125.279000   54.035900  -41.707900
  S    -122.683000   53.846300  -35.952900
  C    -123.950000   53.045500  -35.004000
  C    -125.006000   52.745900  -35.804500
  C    -124.772000   53.072800  -37.165300
  C    -123.519000   53.655800  -37.419600
  H    -125.843000   52.169300  -35.498600
  C    -125.799000   52.654100  -38.199600
  H    -125.911000   51.616300  -38.057600
  H    -125.427000   52.634800  -39.225300
  C    -127.063000   53.529700  -38.209400
  H    -126.927000   54.567100  -38.383200
  H    -127.464000   53.595100  -37.179600
  C    -128.272000   53.084900  -39.141700
  H    -128.053000   53.133100  -40.235400
  H    -129.163000   53.743600  -39.049300
  H    -128.739000   52.101700  -38.952900
  H    -120.618000   54.881100  -41.350000
  H    -123.882000   52.731500  -33.969200

 Total Charge           Charge          ....    0
 Multiplicity           Mult            ....    1
 Number of Electrons    NEL             ....  134
 Basis Dimension        Dim             ....  322

ORBITAL ENERGIES
----------------

  NO   OCC          E(Eh)            E(eV)
   0   2.0000     -88.964575     -2420.8492
   1   2.0000     -88.964542     -2420.8483
   2   2.0000     -10.323786      -280.9245
   3   2.0000     -10.323546      -280.9180
   4   2.0000     -10.318064      -280.7688
   5   2.0000     -10.317398      -280.7507
   6   2.0000     -10.303070      -280.3608
   7   2.0000     -10.298047      -280.2241
   8   2.0000     -10.295478      -280.1542
   9   2.0000     -10.292910      -280.0843
  10   2.0000     -10.291236      -280.0388
  11   2.0000     -10.290452      -280.0174
  12   2.0000     -10.288587      -279.9667
  13   2.0000     -10.287630      -279.9406
  14   2.0000     -10.283048      -279.8160
  15   2.0000     -10.272324      -279.5241
  16   2.0000      -8.079954      -219.8667
  17   2.0000      -8.079343      -219.8501
  18   2.0000      -6.038472      -164.3152
  19   2.0000      -6.037865      -164.2987
  20   2.0000      -6.034198      -164.1989
  21   2.0000      -6.033891      -164.1905
  22   2.0000      -6.030804      -164.1065
  23   2.0000      -6.030003      -164.0847
  24   2.0000      -1.015552       -27.6346
  25   2.0000      -0.990529       -26.9537
  26   2.0000      -0.907723       -24.7004
  27   2.0000      -0.903188       -24.5770
  28   2.0000      -0.874175       -23.7875
  29   2.0000      -0.845965       -23.0199
  30   2.0000      -0.843855       -22.9625
  31   2.0000      -0.820124       -22.3167
  32   2.0000      -0.783107       -21.3094
  33   2.0000      -0.771550       -20.9949
  34   2.0000      -0.712110       -19.3775
  35   2.0000      -0.703395       -19.1403
  36   2.0000      -0.700880       -19.0719
  37   2.0000      -0.667305       -18.1583
  38   2.0000      -0.643332       -17.5060
  39   2.0000      -0.617616       -16.8062
  40   2.0000      -0.599454       -16.3120
  41   2.0000      -0.577588       -15.7170
  42   2.0000      -0.552640       -15.0381
  43   2.0000      -0.543255       -14.7827
  44   2.0000      -0.537429       -14.6242
  45   2.0000      -0.528768       -14.3885
  46   2.0000      -0.520763       -14.1707
  47   2.0000      -0.514718       -14.0062
  48   2.0000      -0.509627       -13.8677
  49   2.0000      -0.503220       -13.6933
  50   2.0000      -0.488396       -13.2899
  51   2.0000      -0.486492       -13.2381
  52   2.0000      -0.469450       -12.7744
  53   2.0000      -0.464301       -12.6343
  54   2.0000      -0.460225       -12.5234
  55   2.0000      -0.452227       -12.3057
  56   2.0000      -0.442416       -12.0387
  57   2.0000      -0.441250       -12.0070
  58   2.0000      -0.437443       -11.9034
  59   2.0000      -0.421968       -11.4823
  60   2.0000      -0.418672       -11.3927
  61   2.0000      -0.414027       -11.2662
  62   2.0000      -0.407659       -11.0930
  63   2.0000      -0.348993        -9.4966
  64   2.0000      -0.332249        -9.0410
  65   2.0000      -0.327071        -8.9000
  66   2.0000      -0.297801        -8.1036
  67   0.0000       0.027936         0.7602
  68   0.0000       0.073975         2.0130
  69   0.0000       0.114133         3.1057
  70   0.0000       0.122385         3.3303
  71   0.0000       0.126992         3.4556

MULLIKEN ATOMIC CHARGES
-----------------------
   0 S :    0.106380
   1 C :   -0.126057
   2 C :   -0.070450
   3 C :    0.051359
   4 C :   -0.136105
   5 H :   -0.021854
   6 C :    0.068013
   7 H :    0.024915
   8 H :    0.028342
   9 C :   -0.096891
  10 H :    0.038105
  11 H :    0.021149
  12 C :   -0.039546
  13 H :    0.023012
  14 H :    0.024354
  15 H :    0.046307
  16 S :    0.113673
  17 C :   -0.090100
  18 C :   -0.011528
  19 C :   -0.048571
  20 C :   -0.171994
  21 H :    0.012958
  22 C :    0.100186
  23 H :    0.017830
  24 H :    0.012885
  25 C :   -0.056025
  26 H :    0.021750
  27 H :    0.020153
  28 C :   -0.087073
  29 H :    0.037631
  30 H :    0.031144
  31 H :    0.034031
  32 H :    0.061981
  33 H :    0.060034
Sum of atomic charges:   -0.0000000

LOEWDIN ATOMIC CHARGES
----------------------
   0 S :    0.402926
   1 C :   -0.193187
   2 C :   -0.063189
   3 C :   -0.058224
   4 C :   -0.202043
   5 H :    0.022559
   6 C :   -0.024983
   7 H :    0.031655
   8 H :    0.025499
   9 C :   -0.031818
  10 H :    0.025172
  11 H :    0.016806
  12 C :   -0.060816
  13 H :    0.013789
  14 H :    0.023592
  15 H :    0.027505
  16 S :    0.425912
  17 C :   -0.177186
  18 C :   -0.066759
  19 C :   -0.054793
  20 C :   -0.218011
  21 H :    0.029831
  22 C :   -0.033406
  23 H :    0.028650
  24 H :    0.029650
  25 C :   -0.038600
  26 H :    0.021756
  27 H :    0.025244
  28 C :   -0.080671
  29 H :    0.026339
  30 H :    0.029619
  31 H :    0.024761
  32 H :    0.039666
  33 H :    0.032755

  Mayer bond orders larger than 0.100000
B(  0-S ,  1-C ) :   1.1100 B(  0-S ,  4-C ) :   1.1695 B(  1-C ,  2-C ) :   1.6218
B(  1-C , 32-H ) :   0.9630 B(  2-C ,  3-C ) :   1.2201 B(  2-C ,  6-C ) :   1.0333
B(  3-C ,  4-C ) :   1.5590 B(  3-C ,  5-H ) :   1.0151 B(  4-C , 20-C ) :   1.0371
B(  6-C ,  7-H ) :   0.9406 B(  6-C ,  8-H ) :   0.9482 B(  6-C ,  9-C ) :   1.0567
B(  9-C , 10-H ) :   0.9639 B(  9-C , 11-H ) :   0.9585 B(  9-C , 12-C ) :   1.0785
B( 12-C , 13-H ) :   0.9778 B( 12-C , 14-H ) :   0.9714 B( 12-C , 15-H ) :   0.9740
B( 16-S , 17-C ) :   1.1540 B( 16-S , 20-C ) :   1.1587 B( 17-C , 18-C ) :   1.5914
B( 17-C , 20-C ) :   0.1003 B( 17-C , 33-H ) :   0.9684 B( 18-C , 19-C ) :   1.2666
B( 18-C , 21-H ) :   0.9908 B( 19-C , 20-C ) :   1.5686 B( 19-C , 22-C ) :   1.0424
B( 22-C , 23-H ) :   0.9352 B( 22-C , 24-H ) :   0.9341 B( 22-C , 25-C ) :   1.0436
B( 25-C , 26-H ) :   0.9542 B( 25-C , 27-H ) :   0.9579 B( 25-C , 28-C ) :   1.0706
B( 28-C , 29-H ) :   0.9770 B( 28-C , 30-H ) :   0.9751 B( 28-C , 31-H ) :   0.9782

Dispersion correction           -0.015450794
FINAL SINGLE POINT ENERGY     -1339.868841504017

DIPOLE MOMENT
-------------
                                X             Y             Z
Electronic contribution:     25.63262      -2.91961      19.01911
Nuclear contribution   :    -26.28228       2.85520     -19.40059
                        -----------------------------------------
Total Dipole Moment    :     -0.64967      -0.06442      -0.38148
                        -----------------------------------------
Magnitude (a.u.)       :      0.75614
Magnitude (Debye)      :      1.92195

Rotational constants in cm-1:     0.016337     0.011062     0.007080
Rotational constants in MHz :   489.773405   331.637018   212.250711

                             ****ORCA TERMINATED NORMALLY****
TOTAL RUN TIME: 0 days 0 hours 0 minutes 22 seconds 608 msec
