                         Program Version 4.2.1 -  RELEASE  -
|  1> ! wB97X-D3 SP def2-SVP
|  2> %pal
|  3> nprocs 24
|  4> end
|  5>
|  6> * xyz 0 1
|  7> S 	 -82.0853 	 -28.2808 	 -55.4042
|  8> C 	 -80.6187 	 -29.1901 	 -55.7061
|  9> C 	 -79.9787 	 -29.6187 	 -54.5189
| 10> C 	 -80.9228 	 -29.5261 	 -53.4535
| 11> C 	 -82.0886 	 -28.8298 	 -53.7039
| 12> H 	 -80.8379 	 -29.6687 	 -52.4014
| 13> C 	 -78.6396 	 -30.3965 	 -54.4517
| 14> H 	 -78.7243 	 -31.2423 	 -55.1578
| 15> H 	 -78.42 	 -30.6779 	 -53.5165
| 16> C 	 -77.4096 	 -29.6393 	 -55.0224
| 17> H 	 -76.5584 	 -30.2937 	 -55.2417
| 18> H 	 -77.7583 	 -29.188 	 -55.958
| 19> C 	 -76.8689 	 -28.5638 	 -54.0791
| 20> H 	 -77.7111 	 -27.78 	 -54.0632
| 21> H 	 -76.7398 	 -28.9884 	 -53.0778
| 22> H 	 -75.9095 	 -28.1673 	 -54.3745
| 23> S 	 -83.4887 	 -26.8888 	 -52.3805
| 24> C 	 -84.7857 	 -27.333 	 -51.3919
| 25> C 	 -84.8248 	 -28.6943 	 -51.1434
| 26> C 	 -83.9353 	 -29.419 	 -52.0224
| 27> C 	 -83.148 	 -28.539 	 -52.7377
| 28> H 	 -85.5531 	 -29.1297 	 -50.4873
| 29> C 	 -83.933 	 -30.9358 	 -52.0907
| 30> H 	 -84.2558 	 -31.199 	 -51.0357
| 31> H 	 -82.892 	 -31.2394 	 -52.2085
| 32> C 	 -84.7596 	 -31.6312 	 -53.1499
| 33> H 	 -85.7996 	 -31.2855 	 -53.0763
| 34> H 	 -84.7905 	 -32.6963 	 -52.991
| 35> C 	 -84.37 	 -31.3151 	 -54.573
| 36> H 	 -84.8449 	 -31.9408 	 -55.3215
| 37> H 	 -83.3354 	 -31.4002 	 -54.7071
| 38> H 	 -84.6028 	 -30.2444 	 -54.8416
| 39> H 	 -80.2533 	 -29.4177 	 -56.7326
| 40> H 	 -85.3873 	 -26.5146 	 -50.9968
| 41> *
| 42>
| 43>                          ****END OF INPUT****

CARTESIAN COORDINATES (ANGSTROEM)
---------------------------------
  S    -82.085300  -28.280800  -55.404200
  C    -80.618700  -29.190100  -55.706100
  C    -79.978700  -29.618700  -54.518900
  C    -80.922800  -29.526100  -53.453500
  C    -82.088600  -28.829800  -53.703900
  H    -80.837900  -29.668700  -52.401400
  C    -78.639600  -30.396500  -54.451700
  H    -78.724300  -31.242300  -55.157800
  H    -78.420000  -30.677900  -53.516500
  C    -77.409600  -29.639300  -55.022400
  H    -76.558400  -30.293700  -55.241700
  H    -77.758300  -29.188000  -55.958000
  C    -76.868900  -28.563800  -54.079100
  H    -77.711100  -27.780000  -54.063200
  H    -76.739800  -28.988400  -53.077800
  H    -75.909500  -28.167300  -54.374500
  S    -83.488700  -26.888800  -52.380500
  C    -84.785700  -27.333000  -51.391900
  C    -84.824800  -28.694300  -51.143400
  C    -83.935300  -29.419000  -52.022400
  C    -83.148000  -28.539000  -52.737700
  H    -85.553100  -29.129700  -50.487300
  C    -83.933000  -30.935800  -52.090700
  H    -84.255800  -31.199000  -51.035700
  H    -82.892000  -31.239400  -52.208500
  C    -84.759600  -31.631200  -53.149900
  H    -85.799600  -31.285500  -53.076300
  H    -84.790500  -32.696300  -52.991000
  C    -84.370000  -31.315100  -54.573000
  H    -84.844900  -31.940800  -55.321500
  H    -83.335400  -31.400200  -54.707100
  H    -84.602800  -30.244400  -54.841600
  H    -80.253300  -29.417700  -56.732600
  H    -85.387300  -26.514600  -50.996800

 Total Charge           Charge          ....    0
 Multiplicity           Mult            ....    1
 Number of Electrons    NEL             ....  134
 Basis Dimension        Dim             ....  322

ORBITAL ENERGIES
----------------

  NO   OCC          E(Eh)            E(eV)
   0   2.0000     -88.968571     -2420.9579
   1   2.0000     -88.963585     -2420.8222
   2   2.0000     -10.328398      -281.0500
   3   2.0000     -10.323035      -280.9041
   4   2.0000     -10.321198      -280.8541
   5   2.0000     -10.313980      -280.6577
   6   2.0000     -10.311726      -280.5963
   7   2.0000     -10.303346      -280.3683
   8   2.0000     -10.294618      -280.1308
   9   2.0000     -10.293604      -280.1032
  10   2.0000     -10.292491      -280.0729
  11   2.0000     -10.291044      -280.0336
  12   2.0000     -10.285904      -279.8937
  13   2.0000     -10.279857      -279.7291
  14   2.0000     -10.278870      -279.7023
  15   2.0000     -10.264292      -279.3056
  16   2.0000      -8.082367      -219.9324
  17   2.0000      -8.080379      -219.8783
  18   2.0000      -6.040817      -164.3790
  19   2.0000      -6.038548      -164.3172
  20   2.0000      -6.037023      -164.2757
  21   2.0000      -6.034642      -164.2110
  22   2.0000      -6.033227      -164.1725
  23   2.0000      -6.031334      -164.1209
  24   2.0000      -1.010546       -27.4983
  25   2.0000      -0.984351       -26.7856
  26   2.0000      -0.911736       -24.8096
  27   2.0000      -0.909740       -24.7553
  28   2.0000      -0.866992       -23.5921
  29   2.0000      -0.853459       -23.2238
  30   2.0000      -0.845807       -23.0156
  31   2.0000      -0.810856       -22.0645
  32   2.0000      -0.784580       -21.3495
  33   2.0000      -0.771706       -20.9992
  34   2.0000      -0.701820       -19.0975
  35   2.0000      -0.698303       -19.0018
  36   2.0000      -0.686291       -18.6749
  37   2.0000      -0.663868       -18.0648
  38   2.0000      -0.645479       -17.5644
  39   2.0000      -0.608667       -16.5627
  40   2.0000      -0.596056       -16.2195
  41   2.0000      -0.577865       -15.7245
  42   2.0000      -0.554879       -15.0990
  43   2.0000      -0.551881       -15.0175
  44   2.0000      -0.547241       -14.8912
  45   2.0000      -0.533137       -14.5074
  46   2.0000      -0.514601       -14.0030
  47   2.0000      -0.511161       -13.9094
  48   2.0000      -0.500283       -13.6134
  49   2.0000      -0.493946       -13.4409
  50   2.0000      -0.486002       -13.2248
  51   2.0000      -0.480717       -13.0810
  52   2.0000      -0.469731       -12.7820
  53   2.0000      -0.462689       -12.5904
  54   2.0000      -0.458849       -12.4859
  55   2.0000      -0.446501       -12.1499
  56   2.0000      -0.446000       -12.1363
  57   2.0000      -0.437371       -11.9015
  58   2.0000      -0.429105       -11.6765
  59   2.0000      -0.426960       -11.6182
  60   2.0000      -0.418415       -11.3856
  61   2.0000      -0.413306       -11.2466
  62   2.0000      -0.410413       -11.1679
  63   2.0000      -0.342316        -9.3149
  64   2.0000      -0.332245        -9.0408
  65   2.0000      -0.329228        -8.9588
  66   2.0000      -0.292481        -7.9588
  67   0.0000       0.032622         0.8877
  68   0.0000       0.059187         1.6106
  69   0.0000       0.109173         2.9707
  70   0.0000       0.120586         3.2813
  71   0.0000       0.127010         3.4561

MULLIKEN ATOMIC CHARGES
-----------------------
   0 S :    0.121392
   1 C :   -0.157095
   2 C :   -0.079673
   3 C :    0.048632
   4 C :   -0.186095
   5 H :    0.010453
   6 C :    0.130387
   7 H :    0.045410
   8 H :   -0.015186
   9 C :   -0.101615
  10 H :    0.030495
  11 H :    0.023562
  12 C :   -0.064871
  13 H :    0.050509
  14 H :    0.025681
  15 H :    0.037178
  16 S :    0.122605
  17 C :   -0.108305
  18 C :   -0.018313
  19 C :   -0.061124
  20 C :   -0.184447
  21 H :    0.015891
  22 C :    0.074022
  23 H :    0.028555
  24 H :    0.018761
  25 C :   -0.031530
  26 H :    0.019380
  27 H :    0.029082
  28 C :   -0.038435
  29 H :    0.029361
  30 H :    0.014674
  31 H :    0.035537
  32 H :    0.070893
  33 H :    0.064230
Sum of atomic charges:    0.0000000

LOEWDIN ATOMIC CHARGES
----------------------
   0 S :    0.394736
   1 C :   -0.198863
   2 C :   -0.060839
   3 C :   -0.064003
   4 C :   -0.186604
   5 H :    0.029795
   6 C :   -0.013187
   7 H :    0.042919
   8 H :    0.007701
   9 C :   -0.042612
  10 H :    0.021979
  11 H :    0.020035
  12 C :   -0.070060
  13 H :    0.037206
  14 H :    0.021793
  15 H :    0.022329
  16 S :    0.440644
  17 C :   -0.199945
  18 C :   -0.071022
  19 C :   -0.054093
  20 C :   -0.217720
  21 H :    0.028646
  22 C :   -0.032661
  23 H :    0.038751
  24 H :    0.028456
  25 C :   -0.040606
  26 H :    0.025599
  27 H :    0.024091
  28 C :   -0.064397
  29 H :    0.025763
  30 H :    0.014036
  31 H :    0.029681
  32 H :    0.034277
  33 H :    0.028175

  Mayer bond orders larger than 0.100000
B(  0-S ,  1-C ) :   1.1640 B(  0-S ,  4-C ) :   1.1235 B(  1-C ,  2-C ) :   1.5709
B(  1-C ,  4-C ) :   0.1067 B(  1-C , 32-H ) :   0.9615 B(  2-C ,  3-C ) :   1.2280
B(  2-C ,  6-C ) :   1.0241 B(  3-C ,  4-C ) :   1.6129 B(  3-C ,  5-H ) :   0.9828
B(  4-C , 20-C ) :   1.0316 B(  6-C ,  7-H ) :   0.9413 B(  6-C ,  8-H ) :   0.9436
B(  6-C ,  9-C ) :   1.0608 B(  9-C , 10-H ) :   0.9585 B(  9-C , 11-H ) :   0.9590
B(  9-C , 12-C ) :   1.0755 B( 12-C , 13-H ) :   0.9765 B( 12-C , 14-H ) :   0.9744
B( 12-C , 15-H ) :   0.9760 B( 16-S , 17-C ) :   1.1848 B( 16-S , 20-C ) :   1.1612
B( 17-C , 18-C ) :   1.5750 B( 17-C , 33-H ) :   0.9696 B( 18-C , 19-C ) :   1.2512
B( 18-C , 21-H ) :   0.9932 B( 19-C , 20-C ) :   1.5928 B( 19-C , 22-C ) :   1.0256
B( 22-C , 23-H ) :   0.9306 B( 22-C , 24-H ) :   0.9301 B( 22-C , 25-C ) :   1.0829
B( 25-C , 26-H ) :   0.9503 B( 25-C , 27-H ) :   0.9528 B( 25-C , 28-C ) :   1.0851
B( 28-C , 29-H ) :   0.9708 B( 28-C , 30-H ) :   0.9736 B( 28-C , 31-H ) :   0.9690

Dispersion correction           -0.015622322
FINAL SINGLE POINT ENERGY     -1339.873105350177

DIPOLE MOMENT
-------------
                                X             Y             Z
Electronic contribution:    -11.98691      16.16157       1.96871
Nuclear contribution   :     12.17083     -16.62257      -1.83385
                        -----------------------------------------
Total Dipole Moment    :      0.18393      -0.46100       0.13486
                        -----------------------------------------
Magnitude (a.u.)       :      0.51433
Magnitude (Debye)      :      1.30732

Rotational constants in cm-1:     0.021628     0.008292     0.007344
Rotational constants in MHz :   648.379468   248.598799   220.177722

                             ****ORCA TERMINATED NORMALLY****
TOTAL RUN TIME: 0 days 0 hours 0 minutes 21 seconds 178 msec
