                         Program Version 4.2.1 -  RELEASE  -
|  1> ! wB97X-D3 SP def2-SVP
|  2> %pal
|  3> nprocs 24
|  4> end
|  5>
|  6> * xyz 0 1
|  7> S 	 -132.212 	 5.42969 	 6.83702
|  8> C 	 -131.705 	 4.91185 	 5.25883
|  9> C 	 -131.423 	 3.56131 	 5.22292
| 10> C 	 -131.717 	 2.92223 	 6.46571
| 11> C 	 -132.263 	 3.73722 	 7.40887
| 12> H 	 -131.499 	 1.85409 	 6.66698
| 13> C 	 -130.881 	 2.76267 	 4.07521
| 14> H 	 -131.041 	 3.41945 	 3.23535
| 15> H 	 -131.564 	 1.92532 	 3.95703
| 16> C 	 -129.475 	 2.28494 	 4.26972
| 17> H 	 -129 	 3.25401 	 4.42141
| 18> H 	 -129.529 	 1.67917 	 5.1693
| 19> C 	 -128.882 	 1.77392 	 2.90808
| 20> H 	 -127.795 	 1.96231 	 2.89089
| 21> H 	 -129.1 	 0.809392 	 2.61687
| 22> H 	 -129.205 	 2.37439 	 2.0756
| 23> S 	 -131.741 	 4.04721 	 10.0566
| 24> C 	 -132.792 	 3.25933 	 11.2255
| 25> C 	 -133.484 	 2.27456 	 10.5185
| 26> C 	 -133.431 	 2.30413 	 9.10504
| 27> C 	 -132.583 	 3.35528 	 8.73357
| 28> H 	 -134.082 	 1.5986 	 11.0912
| 29> C 	 -134.124 	 1.31841 	 8.22916
| 30> H 	 -133.933 	 1.63094 	 7.15301
| 31> H 	 -135.204 	 1.5303 	 8.39016
| 32> C 	 -133.849 	 -0.162316 	 8.44257
| 33> H 	 -134.319 	 -0.649438 	 7.61833
| 34> H 	 -134.443 	 -0.390066 	 9.35585
| 35> C 	 -132.396 	 -0.4144 	 8.65937
| 36> H 	 -131.89 	 -0.67304 	 7.65937
| 37> H 	 -132.291 	 -1.34052 	 9.20118
| 38> H 	 -131.922 	 0.429981 	 9.13382
| 39> H 	 -131.612 	 5.51041 	 4.42436
| 40> H 	 -132.892 	 3.50553 	 12.2826
| 41> *
| 42>
| 43>                          ****END OF INPUT****

CARTESIAN COORDINATES (ANGSTROEM)
---------------------------------
  S    -132.212000    5.429690    6.837020
  C    -131.705000    4.911850    5.258830
  C    -131.423000    3.561310    5.222920
  C    -131.717000    2.922230    6.465710
  C    -132.263000    3.737220    7.408870
  H    -131.499000    1.854090    6.666980
  C    -130.881000    2.762670    4.075210
  H    -131.041000    3.419450    3.235350
  H    -131.564000    1.925320    3.957030
  C    -129.475000    2.284940    4.269720
  H    -129.000000    3.254010    4.421410
  H    -129.529000    1.679170    5.169300
  C    -128.882000    1.773920    2.908080
  H    -127.795000    1.962310    2.890890
  H    -129.100000    0.809392    2.616870
  H    -129.205000    2.374390    2.075600
  S    -131.741000    4.047210   10.056600
  C    -132.792000    3.259330   11.225500
  C    -133.484000    2.274560   10.518500
  C    -133.431000    2.304130    9.105040
  C    -132.583000    3.355280    8.733570
  H    -134.082000    1.598600   11.091200
  C    -134.124000    1.318410    8.229160
  H    -133.933000    1.630940    7.153010
  H    -135.204000    1.530300    8.390160
  C    -133.849000   -0.162316    8.442570
  H    -134.319000   -0.649438    7.618330
  H    -134.443000   -0.390066    9.355850
  C    -132.396000   -0.414400    8.659370
  H    -131.890000   -0.673040    7.659370
  H    -132.291000   -1.340520    9.201180
  H    -131.922000    0.429981    9.133820
  H    -131.612000    5.510410    4.424360
  H    -132.892000    3.505530   12.282600

 Total Charge           Charge          ....    0
 Multiplicity           Mult            ....    1
 Number of Electrons    NEL             ....  134
 Basis Dimension        Dim             ....  322

ORBITAL ENERGIES
----------------

  NO   OCC          E(Eh)            E(eV)
   0   2.0000     -88.964771     -2420.8545
   1   2.0000     -88.964217     -2420.8394
   2   2.0000     -10.323386      -280.9136
   3   2.0000     -10.319620      -280.8111
   4   2.0000     -10.318113      -280.7701
   5   2.0000     -10.309111      -280.5252
   6   2.0000     -10.298786      -280.2442
   7   2.0000     -10.294864      -280.1375
   8   2.0000     -10.292185      -280.0646
   9   2.0000     -10.290883      -280.0292
  10   2.0000     -10.290596      -280.0214
  11   2.0000     -10.289159      -279.9822
  12   2.0000     -10.284469      -279.8546
  13   2.0000     -10.283358      -279.8244
  14   2.0000     -10.277435      -279.6632
  15   2.0000     -10.277420      -279.6628
  16   2.0000      -8.079469      -219.8535
  17   2.0000      -8.079202      -219.8463
  18   2.0000      -6.037991      -164.3021
  19   2.0000      -6.037783      -164.2964
  20   2.0000      -6.033922      -164.1914
  21   2.0000      -6.033853      -164.1895
  22   2.0000      -6.030165      -164.0891
  23   2.0000      -6.029808      -164.0794
  24   2.0000      -1.010950       -27.5093
  25   2.0000      -0.985856       -26.8265
  26   2.0000      -0.919873       -25.0310
  27   2.0000      -0.917847       -24.9759
  28   2.0000      -0.874514       -23.7967
  29   2.0000      -0.851969       -23.1833
  30   2.0000      -0.845682       -23.0122
  31   2.0000      -0.813721       -22.1425
  32   2.0000      -0.784543       -21.3485
  33   2.0000      -0.775460       -21.1013
  34   2.0000      -0.714891       -19.4532
  35   2.0000      -0.703570       -19.1451
  36   2.0000      -0.696175       -18.9439
  37   2.0000      -0.657341       -17.8872
  38   2.0000      -0.641682       -17.4610
  39   2.0000      -0.622315       -16.9341
  40   2.0000      -0.592543       -16.1239
  41   2.0000      -0.577375       -15.7112
  42   2.0000      -0.563920       -15.3451
  43   2.0000      -0.558826       -15.2064
  44   2.0000      -0.549214       -14.9449
  45   2.0000      -0.525288       -14.2938
  46   2.0000      -0.520573       -14.1655
  47   2.0000      -0.513304       -13.9677
  48   2.0000      -0.506620       -13.7858
  49   2.0000      -0.501272       -13.6403
  50   2.0000      -0.496277       -13.5044
  51   2.0000      -0.479524       -13.0485
  52   2.0000      -0.474545       -12.9130
  53   2.0000      -0.461400       -12.5553
  54   2.0000      -0.460635       -12.5345
  55   2.0000      -0.447607       -12.1800
  56   2.0000      -0.442965       -12.0537
  57   2.0000      -0.437479       -11.9044
  58   2.0000      -0.434919       -11.8348
  59   2.0000      -0.426328       -11.6010
  60   2.0000      -0.422545       -11.4980
  61   2.0000      -0.416269       -11.3272
  62   2.0000      -0.405262       -11.0277
  63   2.0000      -0.345450        -9.4002
  64   2.0000      -0.327948        -8.9239
  65   2.0000      -0.325310        -8.8521
  66   2.0000      -0.290761        -7.9120
  67   0.0000       0.026519         0.7216
  68   0.0000       0.070784         1.9261
  69   0.0000       0.108940         2.9644
  70   0.0000       0.121726         3.3123
  71   0.0000       0.128320         3.4918

MULLIKEN ATOMIC CHARGES
-----------------------
   0 S :    0.111529
   1 C :   -0.082060
   2 C :   -0.116846
   3 C :    0.012910
   4 C :   -0.162959
   5 H :    0.025145
   6 C :    0.076498
   7 H :    0.001809
   8 H :    0.022285
   9 C :   -0.058876
  10 H :    0.029386
  11 H :    0.038076
  12 C :   -0.001964
  13 H :    0.034944
  14 H :    0.021203
  15 H :    0.013114
  16 S :    0.119283
  17 C :   -0.111565
  18 C :   -0.037145
  19 C :   -0.056580
  20 C :   -0.161633
  21 H :    0.004065
  22 C :    0.036556
  23 H :    0.035303
  24 H :    0.038143
  25 C :   -0.050538
  26 H :    0.032158
  27 H :    0.030011
  28 C :   -0.052862
  29 H :    0.035562
  30 H :    0.030903
  31 H :    0.066262
  32 H :    0.010822
  33 H :    0.067060
Sum of atomic charges:    0.0000000

LOEWDIN ATOMIC CHARGES
----------------------
   0 S :    0.393986
   1 C :   -0.186466
   2 C :   -0.063925
   3 C :   -0.058784
   4 C :   -0.186904
   5 H :    0.035168
   6 C :   -0.034149
   7 H :    0.022585
   8 H :    0.025618
   9 C :   -0.035235
  10 H :    0.031731
  11 H :    0.027353
  12 C :   -0.057365
  13 H :    0.031906
  14 H :    0.013398
  15 H :    0.026737
  16 S :    0.418202
  17 C :   -0.192201
  18 C :   -0.066804
  19 C :   -0.065108
  20 C :   -0.210713
  21 H :    0.022226
  22 C :   -0.042706
  23 H :    0.034339
  24 H :    0.037575
  25 C :   -0.040994
  26 H :    0.026177
  27 H :    0.026031
  28 C :   -0.068756
  29 H :    0.032776
  30 H :    0.026601
  31 H :    0.029900
  32 H :    0.012511
  33 H :    0.035289

  Mayer bond orders larger than 0.100000
B(  0-S ,  1-C ) :   1.1328 B(  0-S ,  4-C ) :   1.1259 B(  1-C ,  2-C ) :   1.6211
B(  1-C , 32-H ) :   0.9730 B(  2-C ,  3-C ) :   1.2328 B(  2-C ,  6-C ) :   1.0250
B(  3-C ,  4-C ) :   1.5815 B(  3-C ,  5-H ) :   0.9819 B(  4-C , 20-C ) :   1.0640
B(  6-C ,  7-H ) :   0.9353 B(  6-C ,  8-H ) :   0.9330 B(  6-C ,  9-C ) :   1.0535
B(  9-C , 10-H ) :   0.9542 B(  9-C , 11-H ) :   0.9605 B(  9-C , 12-C ) :   1.0701
B( 12-C , 13-H ) :   0.9779 B( 12-C , 14-H ) :   0.9783 B( 12-C , 15-H ) :   0.9699
B( 16-S , 17-C ) :   1.1405 B( 16-S , 20-C ) :   1.1794 B( 17-C , 18-C ) :   1.5816
B( 17-C , 20-C ) :   0.1062 B( 17-C , 33-H ) :   0.9740 B( 18-C , 19-C ) :   1.2516
B( 18-C , 21-H ) :   0.9931 B( 19-C , 20-C ) :   1.5339 B( 19-C , 22-C ) :   1.0493
B( 22-C , 23-H ) :   0.9253 B( 22-C , 24-H ) :   0.9279 B( 22-C , 25-C ) :   1.0686
B( 25-C , 26-H ) :   0.9533 B( 25-C , 27-H ) :   0.9519 B( 25-C , 28-C ) :   1.0849
B( 28-C , 29-H ) :   0.9677 B( 28-C , 30-H ) :   0.9703 B( 28-C , 31-H ) :   0.9684

Dispersion correction           -0.015019006
FINAL SINGLE POINT ENERGY     -1339.861008404842

DIPOLE MOMENT
-------------
                                X             Y             Z
Electronic contribution:     -4.81543      22.68620      15.56482
Nuclear contribution   :      4.78137     -23.30114     -15.88999
                        -----------------------------------------
Total Dipole Moment    :     -0.03406      -0.61495      -0.32517
                        -----------------------------------------
Magnitude (a.u.)       :      0.69646
Magnitude (Debye)      :      1.77026

Rotational constants in cm-1:     0.019184     0.008988     0.007044
Rotational constants in MHz :   575.126549   269.463367   211.165576

                             ****ORCA TERMINATED NORMALLY****
TOTAL RUN TIME: 0 days 0 hours 0 minutes 22 seconds 454 msec
