                         Program Version 4.2.1 -  RELEASE  -
|  1> ! wB97X-D3 SP def2-SVP
|  2> %pal
|  3> nprocs 24
|  4> end
|  5>
|  6> * xyz 0 1
|  7> S 	 -111.553 	 58.4189 	 -17.0236
|  8> C 	 -111.492 	 60.0444 	 -16.3876
|  9> C 	 -111.683 	 60.9834 	 -17.4215
| 10> C 	 -111.77 	 60.2839 	 -18.7279
| 11> C 	 -111.723 	 58.917 	 -18.6679
| 12> H 	 -111.805 	 60.7599 	 -19.6725
| 13> C 	 -111.832 	 62.537 	 -17.1822
| 14> H 	 -111.768 	 62.6524 	 -16.1019
| 15> H 	 -112.846 	 62.8405 	 -17.3466
| 16> C 	 -110.875 	 63.4309 	 -17.9837
| 17> H 	 -109.832 	 63.2312 	 -17.5935
| 18> H 	 -110.9 	 63.2219 	 -19.0995
| 19> C 	 -111.058 	 64.9181 	 -17.5965
| 20> H 	 -111.092 	 64.9213 	 -16.5184
| 21> H 	 -110.177 	 65.5658 	 -17.8744
| 22> H 	 -111.912 	 65.3659 	 -18.0516
| 23> S 	 -113.322 	 57.0169 	 -19.9519
| 24> C 	 -112.67 	 56.2272 	 -21.4087
| 25> C 	 -111.464 	 56.7803 	 -21.7992
| 26> C 	 -111.026 	 57.8427 	 -20.9113
| 27> C 	 -111.856 	 58.0146 	 -19.8058
| 28> H 	 -110.907 	 56.5906 	 -22.7251
| 29> C 	 -109.746 	 58.5983 	 -21.2477
| 30> H 	 -109.031 	 57.8706 	 -21.6817
| 31> H 	 -109.394 	 59.1181 	 -20.3626
| 32> C 	 -109.964 	 59.6571 	 -22.4194
| 33> H 	 -110.858 	 60.3151 	 -22.2071
| 34> H 	 -110.249 	 59.1644 	 -23.3729
| 35> C 	 -108.675 	 60.5046 	 -22.7624
| 36> H 	 -108.887 	 61.1727 	 -23.6537
| 37> H 	 -107.865 	 59.8487 	 -22.9846
| 38> H 	 -108.355 	 61.0804 	 -21.8836
| 39> H 	 -111.156 	 60.3392 	 -15.3732
| 40> H 	 -113.236 	 55.5561 	 -21.9901
| 41> *
| 42>
| 43>                          ****END OF INPUT****

CARTESIAN COORDINATES (ANGSTROEM)
---------------------------------
  S    -111.553000   58.418900  -17.023600
  C    -111.492000   60.044400  -16.387600
  C    -111.683000   60.983400  -17.421500
  C    -111.770000   60.283900  -18.727900
  C    -111.723000   58.917000  -18.667900
  H    -111.805000   60.759900  -19.672500
  C    -111.832000   62.537000  -17.182200
  H    -111.768000   62.652400  -16.101900
  H    -112.846000   62.840500  -17.346600
  C    -110.875000   63.430900  -17.983700
  H    -109.832000   63.231200  -17.593500
  H    -110.900000   63.221900  -19.099500
  C    -111.058000   64.918100  -17.596500
  H    -111.092000   64.921300  -16.518400
  H    -110.177000   65.565800  -17.874400
  H    -111.912000   65.365900  -18.051600
  S    -113.322000   57.016900  -19.951900
  C    -112.670000   56.227200  -21.408700
  C    -111.464000   56.780300  -21.799200
  C    -111.026000   57.842700  -20.911300
  C    -111.856000   58.014600  -19.805800
  H    -110.907000   56.590600  -22.725100
  C    -109.746000   58.598300  -21.247700
  H    -109.031000   57.870600  -21.681700
  H    -109.394000   59.118100  -20.362600
  C    -109.964000   59.657100  -22.419400
  H    -110.858000   60.315100  -22.207100
  H    -110.249000   59.164400  -23.372900
  C    -108.675000   60.504600  -22.762400
  H    -108.887000   61.172700  -23.653700
  H    -107.865000   59.848700  -22.984600
  H    -108.355000   61.080400  -21.883600
  H    -111.156000   60.339200  -15.373200
  H    -113.236000   55.556100  -21.990100

 Total Charge           Charge          ....    0
 Multiplicity           Mult            ....    1
 Number of Electrons    NEL             ....  134
 Basis Dimension        Dim             ....  322

ORBITAL ENERGIES
----------------

  NO   OCC          E(Eh)            E(eV)
   0   2.0000     -88.965832     -2420.8834
   1   2.0000     -88.964875     -2420.8573
   2   2.0000     -10.330001      -281.0936
   3   2.0000     -10.326980      -281.0114
   4   2.0000     -10.320969      -280.8478
   5   2.0000     -10.320730      -280.8413
   6   2.0000     -10.312920      -280.6288
   7   2.0000     -10.306174      -280.4453
   8   2.0000     -10.299280      -280.2577
   9   2.0000     -10.299158      -280.2543
  10   2.0000     -10.298913      -280.2477
  11   2.0000     -10.298898      -280.2473
  12   2.0000     -10.298539      -280.2375
  13   2.0000     -10.294828      -280.1365
  14   2.0000     -10.285746      -279.8894
  15   2.0000     -10.281894      -279.7846
  16   2.0000      -8.080000      -219.8680
  17   2.0000      -8.079756      -219.8613
  18   2.0000      -6.038591      -164.3184
  19   2.0000      -6.038425      -164.3139
  20   2.0000      -6.034423      -164.2050
  21   2.0000      -6.034340      -164.2027
  22   2.0000      -6.030733      -164.1046
  23   2.0000      -6.030334      -164.0937
  24   2.0000      -1.002025       -27.2665
  25   2.0000      -0.977571       -26.6011
  26   2.0000      -0.907321       -24.6895
  27   2.0000      -0.897760       -24.4293
  28   2.0000      -0.869188       -23.6518
  29   2.0000      -0.844671       -22.9847
  30   2.0000      -0.840955       -22.8836
  31   2.0000      -0.813931       -22.1482
  32   2.0000      -0.780176       -21.2297
  33   2.0000      -0.768853       -20.9216
  34   2.0000      -0.704548       -19.1717
  35   2.0000      -0.694972       -18.9111
  36   2.0000      -0.690624       -18.7928
  37   2.0000      -0.662237       -18.0204
  38   2.0000      -0.644326       -17.5330
  39   2.0000      -0.614378       -16.7181
  40   2.0000      -0.594194       -16.1688
  41   2.0000      -0.568997       -15.4832
  42   2.0000      -0.563146       -15.3240
  43   2.0000      -0.558605       -15.2004
  44   2.0000      -0.525257       -14.2930
  45   2.0000      -0.518894       -14.1198
  46   2.0000      -0.516931       -14.0664
  47   2.0000      -0.506302       -13.7772
  48   2.0000      -0.502597       -13.6764
  49   2.0000      -0.499386       -13.5890
  50   2.0000      -0.495996       -13.4967
  51   2.0000      -0.477337       -12.9890
  52   2.0000      -0.469669       -12.7803
  53   2.0000      -0.463470       -12.6117
  54   2.0000      -0.461050       -12.5458
  55   2.0000      -0.449683       -12.2365
  56   2.0000      -0.441305       -12.0085
  57   2.0000      -0.437498       -11.9049
  58   2.0000      -0.434138       -11.8135
  59   2.0000      -0.423550       -11.5254
  60   2.0000      -0.421080       -11.4582
  61   2.0000      -0.418217       -11.3803
  62   2.0000      -0.414341       -11.2748
  63   2.0000      -0.341730        -9.2989
  64   2.0000      -0.328895        -8.9497
  65   2.0000      -0.325394        -8.8544
  66   2.0000      -0.301066        -8.1924
  67   0.0000       0.039502         1.0749
  68   0.0000       0.059952         1.6314
  69   0.0000       0.111575         3.0361
  70   0.0000       0.117992         3.2107
  71   0.0000       0.123900         3.3715

MULLIKEN ATOMIC CHARGES
-----------------------
   0 S :    0.119561
   1 C :   -0.136239
   2 C :   -0.102336
   3 C :    0.053172
   4 C :   -0.168701
   5 H :   -0.007186
   6 C :    0.081053
   7 H :    0.007032
   8 H :    0.032043
   9 C :   -0.114902
  10 H :    0.037348
  11 H :    0.052647
  12 C :   -0.049723
  13 H :    0.026195
  14 H :    0.042237
  15 H :    0.034282
  16 S :    0.101693
  17 C :   -0.072659
  18 C :   -0.018853
  19 C :   -0.036474
  20 C :   -0.168551
  21 H :    0.028010
  22 C :    0.069979
  23 H :    0.033880
  24 H :    0.037764
  25 C :   -0.130716
  26 H :    0.039594
  27 H :    0.028573
  28 C :   -0.048863
  29 H :    0.052471
  30 H :    0.025444
  31 H :    0.036840
  32 H :    0.068761
  33 H :    0.046625
Sum of atomic charges:   -0.0000000

LOEWDIN ATOMIC CHARGES
----------------------
   0 S :    0.417912
   1 C :   -0.210098
   2 C :   -0.055803
   3 C :   -0.058245
   4 C :   -0.210527
   5 H :    0.021823
   6 C :   -0.031699
   7 H :    0.028240
   8 H :    0.028762
   9 C :   -0.049121
  10 H :    0.031714
  11 H :    0.029932
  12 C :   -0.065884
  13 H :    0.024103
  14 H :    0.033146
  15 H :    0.018630
  16 S :    0.382337
  17 C :   -0.163224
  18 C :   -0.068102
  19 C :   -0.050918
  20 C :   -0.195173
  21 H :    0.034968
  22 C :   -0.028877
  23 H :    0.035228
  24 H :    0.030743
  25 C :   -0.045849
  26 H :    0.024228
  27 H :    0.021750
  28 C :   -0.069397
  29 H :    0.036360
  30 H :    0.019159
  31 H :    0.025436
  32 H :    0.038393
  33 H :    0.020052

  Mayer bond orders larger than 0.100000
B(  0-S ,  1-C ) :   1.1448 B(  0-S ,  4-C ) :   1.1495 B(  1-C ,  2-C ) :   1.6197
B(  1-C , 32-H ) :   0.9598 B(  2-C ,  3-C ) :   1.2228 B(  2-C ,  6-C ) :   1.0146
B(  3-C ,  4-C ) :   1.5950 B(  3-C ,  5-H ) :   1.0009 B(  4-C , 20-C ) :   1.0219
B(  6-C ,  7-H ) :   0.9386 B(  6-C ,  8-H ) :   0.9440 B(  6-C ,  9-C ) :   1.0519
B(  9-C , 10-H ) :   0.9578 B(  9-C , 11-H ) :   0.9586 B(  9-C , 12-C ) :   1.0717
B( 12-C , 13-H ) :   0.9734 B( 12-C , 14-H ) :   0.9771 B( 12-C , 15-H ) :   0.9779
B( 16-S , 17-C ) :   1.1429 B( 16-S , 20-C ) :   1.1268 B( 17-C , 18-C ) :   1.6146
B( 17-C , 33-H ) :   0.9737 B( 18-C , 19-C ) :   1.2303 B( 18-C , 21-H ) :   0.9806
B( 19-C , 20-C ) :   1.6219 B( 19-C , 22-C ) :   1.0590 B( 22-C , 23-H ) :   0.9345
B( 22-C , 24-H ) :   0.9349 B( 22-C , 25-C ) :   1.0475 B( 25-C , 26-H ) :   0.9579
B( 25-C , 27-H ) :   0.9573 B( 25-C , 28-C ) :   1.0725 B( 28-C , 29-H ) :   0.9753
B( 28-C , 30-H ) :   0.9742 B( 28-C , 31-H ) :   0.9770

Dispersion correction           -0.013850211
FINAL SINGLE POINT ENERGY     -1339.882599242965

DIPOLE MOMENT
-------------
                                X             Y             Z
Electronic contribution:    -14.15381     -27.44806       9.48855
Nuclear contribution   :     14.48651      28.05694      -9.87577
                        -----------------------------------------
Total Dipole Moment    :      0.33270       0.60888      -0.38722
                        -----------------------------------------
Magnitude (a.u.)       :      0.79458
Magnitude (Debye)      :      2.01967

Rotational constants in cm-1:     0.016606     0.008688     0.006343
Rotational constants in MHz :   497.847259   260.446468   190.147159

                             ****ORCA TERMINATED NORMALLY****
TOTAL RUN TIME: 0 days 0 hours 0 minutes 21 seconds 2 msec
