                         Program Version 4.2.1 -  RELEASE  -
|  1> ! wB97X-D3 SP def2-SVP
|  2> %pal
|  3> nprocs 24
|  4> end
|  5>
|  6> * xyz 0 1
|  7> S 	 -40.2441 	 -48.2971 	 -82.1249
|  8> C 	 -41.1887 	 -49.6607 	 -82.8533
|  9> C 	 -42.4496 	 -49.2521 	 -83.1245
| 10> C 	 -42.7865 	 -47.9822 	 -82.5056
| 11> C 	 -41.7136 	 -47.2757 	 -81.9988
| 12> H 	 -43.7339 	 -47.5249 	 -82.6616
| 13> C 	 -43.4947 	 -50.1077 	 -83.756
| 14> H 	 -42.9176 	 -50.6727 	 -84.4912
| 15> H 	 -44.1664 	 -49.5655 	 -84.4622
| 16> C 	 -44.3245 	 -50.848 	 -82.7298
| 17> H 	 -43.8932 	 -51.0768 	 -81.7844
| 18> H 	 -45.1512 	 -50.2377 	 -82.3785
| 19> C 	 -44.8793 	 -52.1293 	 -83.4167
| 20> H 	 -45.5358 	 -52.5054 	 -82.7016
| 21> H 	 -45.2757 	 -52.061 	 -84.4233
| 22> H 	 -44.0573 	 -52.8995 	 -83.4179
| 23> S 	 -41.4391 	 -44.6488 	 -82.8664
| 24> C 	 -41.441 	 -43.4635 	 -81.5699
| 25> C 	 -41.8629 	 -43.899 	 -80.3683
| 26> C 	 -42.0726 	 -45.3452 	 -80.3609
| 27> C 	 -41.7661 	 -45.8734 	 -81.5945
| 28> H 	 -41.8895 	 -43.3269 	 -79.4363
| 29> C 	 -42.4559 	 -46.1254 	 -79.1096
| 30> H 	 -41.9939 	 -45.7969 	 -78.198
| 31> H 	 -42.0488 	 -47.191 	 -79.2953
| 32> C 	 -43.9442 	 -46.0935 	 -78.858
| 33> H 	 -44.2231 	 -46.836 	 -78.1386
| 34> H 	 -44.4419 	 -46.3595 	 -79.71
| 35> C 	 -44.3844 	 -44.6669 	 -78.4564
| 36> H 	 -45.4235 	 -44.7148 	 -78.0891
| 37> H 	 -44.3335 	 -43.9108 	 -79.2544
| 38> H 	 -43.8342 	 -44.3631 	 -77.6181
| 39> H 	 -40.8164 	 -50.6152 	 -83.174
| 40> H 	 -41.1852 	 -42.4644 	 -81.7314
| 41> *
| 42>
| 43>                          ****END OF INPUT****

CARTESIAN COORDINATES (ANGSTROEM)
---------------------------------
  S    -40.244100  -48.297100  -82.124900
  C    -41.188700  -49.660700  -82.853300
  C    -42.449600  -49.252100  -83.124500
  C    -42.786500  -47.982200  -82.505600
  C    -41.713600  -47.275700  -81.998800
  H    -43.733900  -47.524900  -82.661600
  C    -43.494700  -50.107700  -83.756000
  H    -42.917600  -50.672700  -84.491200
  H    -44.166400  -49.565500  -84.462200
  C    -44.324500  -50.848000  -82.729800
  H    -43.893200  -51.076800  -81.784400
  H    -45.151200  -50.237700  -82.378500
  C    -44.879300  -52.129300  -83.416700
  H    -45.535800  -52.505400  -82.701600
  H    -45.275700  -52.061000  -84.423300
  H    -44.057300  -52.899500  -83.417900
  S    -41.439100  -44.648800  -82.866400
  C    -41.441000  -43.463500  -81.569900
  C    -41.862900  -43.899000  -80.368300
  C    -42.072600  -45.345200  -80.360900
  C    -41.766100  -45.873400  -81.594500
  H    -41.889500  -43.326900  -79.436300
  C    -42.455900  -46.125400  -79.109600
  H    -41.993900  -45.796900  -78.198000
  H    -42.048800  -47.191000  -79.295300
  C    -43.944200  -46.093500  -78.858000
  H    -44.223100  -46.836000  -78.138600
  H    -44.441900  -46.359500  -79.710000
  C    -44.384400  -44.666900  -78.456400
  H    -45.423500  -44.714800  -78.089100
  H    -44.333500  -43.910800  -79.254400
  H    -43.834200  -44.363100  -77.618100
  H    -40.816400  -50.615200  -83.174000
  H    -41.185200  -42.464400  -81.731400

 Total Charge           Charge          ....    0
 Multiplicity           Mult            ....    1
 Number of Electrons    NEL             ....  134
 Basis Dimension        Dim             ....  322

ORBITAL ENERGIES
----------------

  NO   OCC          E(Eh)            E(eV)
   0   2.0000     -88.965231     -2420.8670
   1   2.0000     -88.962487     -2420.7923
   2   2.0000     -10.329637      -281.0837
   3   2.0000     -10.325852      -280.9807
   4   2.0000     -10.313201      -280.6365
   5   2.0000     -10.311259      -280.5836
   6   2.0000     -10.304715      -280.4056
   7   2.0000     -10.294182      -280.1189
   8   2.0000     -10.292869      -280.0832
   9   2.0000     -10.292428      -280.0712
  10   2.0000     -10.290784      -280.0265
  11   2.0000     -10.289474      -279.9908
  12   2.0000     -10.285167      -279.8736
  13   2.0000     -10.277404      -279.6624
  14   2.0000     -10.274792      -279.5913
  15   2.0000     -10.274589      -279.5858
  16   2.0000      -8.079557      -219.8559
  17   2.0000      -8.075525      -219.7462
  18   2.0000      -6.038130      -164.3059
  19   2.0000      -6.034492      -164.2069
  20   2.0000      -6.034368      -164.2035
  21   2.0000      -6.030338      -164.0938
  22   2.0000      -6.029900      -164.0819
  23   2.0000      -6.025940      -163.9742
  24   2.0000      -0.998485       -27.1702
  25   2.0000      -0.977189       -26.5907
  26   2.0000      -0.913801       -24.8658
  27   2.0000      -0.913417       -24.8553
  28   2.0000      -0.869174       -23.6514
  29   2.0000      -0.844897       -22.9908
  30   2.0000      -0.840784       -22.8789
  31   2.0000      -0.813717       -22.1424
  32   2.0000      -0.781997       -21.2792
  33   2.0000      -0.770970       -20.9792
  34   2.0000      -0.713686       -19.4204
  35   2.0000      -0.707466       -19.2511
  36   2.0000      -0.694453       -18.8970
  37   2.0000      -0.661560       -18.0020
  38   2.0000      -0.637877       -17.3575
  39   2.0000      -0.614441       -16.7198
  40   2.0000      -0.602019       -16.3818
  41   2.0000      -0.572669       -15.5831
  42   2.0000      -0.551288       -15.0013
  43   2.0000      -0.548591       -14.9279
  44   2.0000      -0.545371       -14.8403
  45   2.0000      -0.539025       -14.6676
  46   2.0000      -0.514844       -14.0096
  47   2.0000      -0.506177       -13.7738
  48   2.0000      -0.497528       -13.5384
  49   2.0000      -0.495108       -13.4726
  50   2.0000      -0.489591       -13.3224
  51   2.0000      -0.479797       -13.0559
  52   2.0000      -0.474850       -12.9213
  53   2.0000      -0.466536       -12.6951
  54   2.0000      -0.458549       -12.4778
  55   2.0000      -0.450818       -12.2674
  56   2.0000      -0.447985       -12.1903
  57   2.0000      -0.436871       -11.8879
  58   2.0000      -0.430571       -11.7164
  59   2.0000      -0.425423       -11.5763
  60   2.0000      -0.416725       -11.3397
  61   2.0000      -0.412126       -11.2145
  62   2.0000      -0.406120       -11.0511
  63   2.0000      -0.334761        -9.1093
  64   2.0000      -0.324356        -8.8262
  65   2.0000      -0.319518        -8.6945
  66   2.0000      -0.313729        -8.5370
  67   0.0000       0.044289         1.2052
  68   0.0000       0.053613         1.4589
  69   0.0000       0.105988         2.8841
  70   0.0000       0.116471         3.1693
  71   0.0000       0.122582         3.3356

MULLIKEN ATOMIC CHARGES
-----------------------
   0 S :    0.093249
   1 C :   -0.111154
   2 C :   -0.101211
   3 C :    0.055331
   4 C :   -0.162279
   5 H :    0.004920
   6 C :    0.053451
   7 H :    0.018557
   8 H :    0.029850
   9 C :   -0.044355
  10 H :    0.025326
  11 H :    0.022308
  12 C :   -0.042922
  13 H :    0.015598
  14 H :    0.044203
  15 H :    0.030826
  16 S :    0.112055
  17 C :   -0.054292
  18 C :   -0.020717
  19 C :   -0.034118
  20 C :   -0.198062
  21 H :    0.027454
  22 C :    0.042125
  23 H :    0.019979
  24 H :    0.047190
  25 C :   -0.000365
  26 H :    0.024235
  27 H :   -0.000390
  28 C :   -0.060297
  29 H :    0.030920
  30 H :    0.053545
  31 H :    0.009938
  32 H :    0.039097
  33 H :    0.030006
Sum of atomic charges:   -0.0000000

LOEWDIN ATOMIC CHARGES
----------------------
   0 S :    0.355932
   1 C :   -0.174669
   2 C :   -0.064666
   3 C :   -0.056885
   4 C :   -0.183743
   5 H :    0.024660
   6 C :   -0.038817
   7 H :    0.028947
   8 H :    0.036322
   9 C :   -0.033916
  10 H :    0.023605
  11 H :    0.024623
  12 C :   -0.059151
  13 H :    0.016156
  14 H :    0.025846
  15 H :    0.030036
  16 S :    0.377915
  17 C :   -0.163503
  18 C :   -0.071142
  19 C :   -0.040888
  20 C :   -0.187222
  21 H :    0.035639
  22 C :   -0.031872
  23 H :    0.023825
  24 H :    0.041729
  25 C :   -0.028495
  26 H :    0.024357
  27 H :    0.011497
  28 C :   -0.062065
  29 H :    0.029925
  30 H :    0.030191
  31 H :    0.013217
  32 H :    0.027228
  33 H :    0.015387

  Mayer bond orders larger than 0.100000
B(  0-S ,  1-C ) :   1.1053 B(  0-S ,  4-C ) :   1.1133 B(  1-C ,  2-C ) :   1.6626
B(  1-C , 32-H ) :   0.9675 B(  2-C ,  3-C ) :   1.1981 B(  2-C ,  6-C ) :   1.0364
B(  3-C ,  4-C ) :   1.6198 B(  3-C ,  5-H ) :   0.9900 B(  4-C , 20-C ) :   1.0376
B(  6-C ,  7-H ) :   0.9509 B(  6-C ,  8-H ) :   0.9325 B(  6-C ,  9-C ) :   1.0401
B(  9-C , 10-H ) :   0.9611 B(  9-C , 11-H ) :   0.9514 B(  9-C , 12-C ) :   1.0762
B( 12-C , 13-H ) :   0.9734 B( 12-C , 14-H ) :   0.9771 B( 12-C , 15-H ) :   0.9780
B( 16-S , 17-C ) :   1.1278 B( 16-S , 20-C ) :   1.1145 B( 17-C , 18-C ) :   1.6670
B( 17-C , 33-H ) :   0.9680 B( 18-C , 19-C ) :   1.1903 B( 18-C , 21-H ) :   0.9801
B( 19-C , 20-C ) :   1.6774 B( 19-C , 22-C ) :   1.0380 B( 22-C , 23-H ) :   0.9452
B( 22-C , 24-H ) :   0.9266 B( 22-C , 25-C ) :   1.0744 B( 25-C , 26-H ) :   0.9535
B( 25-C , 27-H ) :   0.9461 B( 25-C , 28-C ) :   1.0804 B( 28-C , 29-H ) :   0.9701
B( 28-C , 30-H ) :   0.9695 B( 28-C , 31-H ) :   0.9745

Dispersion correction           -0.014574140
FINAL SINGLE POINT ENERGY     -1339.859570756096

DIPOLE MOMENT
-------------
                                X             Y             Z
Electronic contribution:     20.94382      12.35271      -9.12981
Nuclear contribution   :    -21.54406     -12.52282       9.36005
                        -----------------------------------------
Total Dipole Moment    :     -0.60024      -0.17011       0.23024
                        -----------------------------------------
Magnitude (a.u.)       :      0.66501
Magnitude (Debye)      :      1.69031

Rotational constants in cm-1:     0.019974     0.007977     0.006636
Rotational constants in MHz :   598.801692   239.132774   198.941210

                             ****ORCA TERMINATED NORMALLY****
TOTAL RUN TIME: 0 days 0 hours 0 minutes 21 seconds 645 msec
