                         Program Version 4.2.1 -  RELEASE  -
|  1> ! wB97X-D3 SP def2-SVP
|  2> %pal
|  3> nprocs 24
|  4> end
|  5>
|  6> * xyz 0 1
|  7> S 	 23.4161 	 -7.06159 	 -111.659
|  8> C 	 23.7916 	 -7.5498 	 -110.037
|  9> C 	 22.7624 	 -8.30144 	 -109.54
| 10> C 	 21.8145 	 -8.73391 	 -110.458
| 11> C 	 22.2018 	 -8.31482 	 -111.741
| 12> H 	 20.9867 	 -9.32563 	 -110.338
| 13> C 	 22.7719 	 -8.91433 	 -108.094
| 14> H 	 21.8425 	 -8.7347 	 -107.605
| 15> H 	 23.3703 	 -8.1422 	 -107.537
| 16> C 	 23.5395 	 -10.2636 	 -107.884
| 17> H 	 24.4778 	 -10.2794 	 -108.347
| 18> H 	 23.795 	 -10.4138 	 -106.898
| 19> C 	 22.7363 	 -11.4256 	 -108.49
| 20> H 	 23.2069 	 -12.4125 	 -108.226
| 21> H 	 21.6887 	 -11.5294 	 -108.02
| 22> H 	 22.6847 	 -11.3761 	 -109.606
| 23> S 	 21.6903 	 -10.2826 	 -113.582
| 24> C 	 20.5668 	 -9.87594 	 -114.869
| 25> C 	 20.0411 	 -8.60497 	 -114.812
| 26> C 	 20.5852 	 -7.89683 	 -113.735
| 27> C 	 21.4891 	 -8.62565 	 -112.986
| 28> H 	 19.274 	 -8.41382 	 -115.476
| 29> C 	 19.9803 	 -6.5297 	 -113.396
| 30> H 	 19.9932 	 -6.39565 	 -112.293
| 31> H 	 18.9727 	 -6.77732 	 -113.62
| 32> C 	 20.7361 	 -5.30185 	 -113.971
| 33> H 	 20.8103 	 -5.40108 	 -115.052
| 34> H 	 21.817 	 -5.36684 	 -113.544
| 35> C 	 19.974 	 -4.06816 	 -113.59
| 36> H 	 20.6075 	 -3.14069 	 -113.769
| 37> H 	 19.7262 	 -4.04895 	 -112.538
| 38> H 	 19.0419 	 -3.98789 	 -114.078
| 39> H 	 24.7659 	 -7.31785 	 -109.573
| 40> H 	 20.368 	 -10.5206 	 -115.724
| 41> *
| 42>
| 43>                          ****END OF INPUT****

CARTESIAN COORDINATES (ANGSTROEM)
---------------------------------
  S     23.416100   -7.061590  -111.659000
  C     23.791600   -7.549800  -110.037000
  C     22.762400   -8.301440  -109.540000
  C     21.814500   -8.733910  -110.458000
  C     22.201800   -8.314820  -111.741000
  H     20.986700   -9.325630  -110.338000
  C     22.771900   -8.914330  -108.094000
  H     21.842500   -8.734700  -107.605000
  H     23.370300   -8.142200  -107.537000
  C     23.539500  -10.263600  -107.884000
  H     24.477800  -10.279400  -108.347000
  H     23.795000  -10.413800  -106.898000
  C     22.736300  -11.425600  -108.490000
  H     23.206900  -12.412500  -108.226000
  H     21.688700  -11.529400  -108.020000
  H     22.684700  -11.376100  -109.606000
  S     21.690300  -10.282600  -113.582000
  C     20.566800   -9.875940  -114.869000
  C     20.041100   -8.604970  -114.812000
  C     20.585200   -7.896830  -113.735000
  C     21.489100   -8.625650  -112.986000
  H     19.274000   -8.413820  -115.476000
  C     19.980300   -6.529700  -113.396000
  H     19.993200   -6.395650  -112.293000
  H     18.972700   -6.777320  -113.620000
  C     20.736100   -5.301850  -113.971000
  H     20.810300   -5.401080  -115.052000
  H     21.817000   -5.366840  -113.544000
  C     19.974000   -4.068160  -113.590000
  H     20.607500   -3.140690  -113.769000
  H     19.726200   -4.048950  -112.538000
  H     19.041900   -3.987890  -114.078000
  H     24.765900   -7.317850  -109.573000
  H     20.368000  -10.520600  -115.724000

 Total Charge           Charge          ....    0
 Multiplicity           Mult            ....    1
 Number of Electrons    NEL             ....  134
 Basis Dimension        Dim             ....  322

ORBITAL ENERGIES
----------------

  NO   OCC          E(Eh)            E(eV)
   0   2.0000     -88.966513     -2420.9019
   1   2.0000     -88.965529     -2420.8751
   2   2.0000     -10.327672      -281.0302
   3   2.0000     -10.321930      -280.8740
   4   2.0000     -10.313736      -280.6510
   5   2.0000     -10.312314      -280.6123
   6   2.0000     -10.298467      -280.2355
   7   2.0000     -10.297383      -280.2060
   8   2.0000     -10.292669      -280.0778
   9   2.0000     -10.291751      -280.0528
  10   2.0000     -10.287416      -279.9348
  11   2.0000     -10.287062      -279.9252
  12   2.0000     -10.285126      -279.8725
  13   2.0000     -10.283832      -279.8373
  14   2.0000     -10.280306      -279.7413
  15   2.0000     -10.273558      -279.5577
  16   2.0000      -8.080809      -219.8900
  17   2.0000      -8.080455      -219.8804
  18   2.0000      -6.039165      -164.3340
  19   2.0000      -6.038718      -164.3219
  20   2.0000      -6.035534      -164.2352
  21   2.0000      -6.035115      -164.2238
  22   2.0000      -6.031619      -164.1287
  23   2.0000      -6.031307      -164.1202
  24   2.0000      -1.007909       -27.4266
  25   2.0000      -0.986669       -26.8486
  26   2.0000      -0.906867       -24.6771
  27   2.0000      -0.902159       -24.5490
  28   2.0000      -0.867407       -23.6033
  29   2.0000      -0.853337       -23.2205
  30   2.0000      -0.849282       -23.1101
  31   2.0000      -0.812225       -22.1018
  32   2.0000      -0.778781       -21.1917
  33   2.0000      -0.763404       -20.7733
  34   2.0000      -0.705449       -19.1963
  35   2.0000      -0.702716       -19.1219
  36   2.0000      -0.691479       -18.8161
  37   2.0000      -0.664318       -18.0770
  38   2.0000      -0.649441       -17.6722
  39   2.0000      -0.612867       -16.6770
  40   2.0000      -0.591266       -16.0892
  41   2.0000      -0.570818       -15.5328
  42   2.0000      -0.560451       -15.2506
  43   2.0000      -0.546513       -14.8714
  44   2.0000      -0.534999       -14.5581
  45   2.0000      -0.526328       -14.3221
  46   2.0000      -0.518261       -14.1026
  47   2.0000      -0.514504       -14.0004
  48   2.0000      -0.501539       -13.6476
  49   2.0000      -0.500250       -13.6125
  50   2.0000      -0.485601       -13.2139
  51   2.0000      -0.472305       -12.8521
  52   2.0000      -0.469193       -12.7674
  53   2.0000      -0.465174       -12.6580
  54   2.0000      -0.459427       -12.5016
  55   2.0000      -0.447803       -12.1853
  56   2.0000      -0.439143       -11.9497
  57   2.0000      -0.435679       -11.8554
  58   2.0000      -0.431282       -11.7358
  59   2.0000      -0.422478       -11.4962
  60   2.0000      -0.414181       -11.2704
  61   2.0000      -0.412268       -11.2184
  62   2.0000      -0.408170       -11.1069
  63   2.0000      -0.337611        -9.1869
  64   2.0000      -0.334821        -9.1109
  65   2.0000      -0.326848        -8.8940
  66   2.0000      -0.293708        -7.9922
  67   0.0000       0.036016         0.9800
  68   0.0000       0.053451         1.4545
  69   0.0000       0.099351         2.7035
  70   0.0000       0.115445         3.1414
  71   0.0000       0.139451         3.7947

MULLIKEN ATOMIC CHARGES
-----------------------
   0 S :    0.112713
   1 C :   -0.140946
   2 C :   -0.061028
   3 C :    0.081412
   4 C :   -0.176675
   5 H :   -0.015837
   6 C :    0.031035
   7 H :    0.024887
   8 H :    0.011123
   9 C :    0.042179
  10 H :    0.009478
  11 H :    0.010666
  12 C :   -0.119125
  13 H :    0.032450
  14 H :    0.037551
  15 H :    0.056071
  16 S :    0.111999
  17 C :   -0.103160
  18 C :   -0.020171
  19 C :   -0.001933
  20 C :   -0.193742
  21 H :   -0.006031
  22 C :    0.041044
  23 H :    0.024282
  24 H :    0.018208
  25 C :   -0.071981
  26 H :    0.030581
  27 H :    0.044349
  28 C :   -0.010194
  29 H :    0.041490
  30 H :    0.019036
  31 H :    0.021918
  32 H :    0.064128
  33 H :    0.054221
Sum of atomic charges:   -0.0000000

LOEWDIN ATOMIC CHARGES
----------------------
   0 S :    0.416378
   1 C :   -0.203778
   2 C :   -0.065008
   3 C :   -0.046907
   4 C :   -0.189073
   5 H :    0.020583
   6 C :   -0.032943
   7 H :    0.026060
   8 H :    0.031159
   9 C :   -0.028504
  10 H :    0.022593
  11 H :    0.015948
  12 C :   -0.079256
  13 H :    0.026147
  14 H :    0.029072
  15 H :    0.029921
  16 S :    0.397089
  17 C :   -0.178093
  18 C :   -0.067662
  19 C :   -0.056466
  20 C :   -0.200724
  21 H :    0.023852
  22 C :   -0.033022
  23 H :    0.031118
  24 H :    0.026080
  25 C :   -0.041088
  26 H :    0.021895
  27 H :    0.031204
  28 C :   -0.066380
  29 H :    0.033831
  30 H :    0.023064
  31 H :    0.020632
  32 H :    0.035311
  33 H :    0.026967

  Mayer bond orders larger than 0.100000
B(  0-S ,  1-C ) :   1.1439 B(  0-S ,  4-C ) :   1.1725 B(  1-C ,  2-C ) :   1.5894
B(  1-C ,  4-C ) :   0.1057 B(  1-C , 32-H ) :   0.9706 B(  2-C ,  3-C ) :   1.2439
B(  2-C ,  6-C ) :   1.0172 B(  3-C ,  4-C ) :   1.5410 B(  3-C ,  5-H ) :   1.0175
B(  4-C , 20-C ) :   1.0145 B(  6-C ,  7-H ) :   0.9488 B(  6-C ,  8-H ) :   0.9379
B(  6-C ,  9-C ) :   1.0582 B(  9-C , 10-H ) :   0.9485 B(  9-C , 11-H ) :   0.9536
B(  9-C , 12-C ) :   1.0802 B( 12-C , 13-H ) :   0.9728 B( 12-C , 14-H ) :   0.9762
B( 12-C , 15-H ) :   0.9717 B( 16-S , 17-C ) :   1.1553 B( 16-S , 20-C ) :   1.1380
B( 17-C , 18-C ) :   1.6295 B( 17-C , 20-C ) :   0.1021 B( 17-C , 33-H ) :   0.9604
B( 18-C , 19-C ) :   1.2237 B( 18-C , 21-H ) :   1.0046 B( 19-C , 20-C ) :   1.6176
B( 19-C , 22-C ) :   1.0132 B( 22-C , 23-H ) :   0.9339 B( 22-C , 24-H ) :   0.9470
B( 22-C , 25-C ) :   1.0502 B( 25-C , 26-H ) :   0.9576 B( 25-C , 27-H ) :   0.9460
B( 25-C , 28-C ) :   1.0863 B( 28-C , 29-H ) :   0.9717 B( 28-C , 30-H ) :   0.9694
B( 28-C , 31-H ) :   0.9716

Dispersion correction           -0.014976999
FINAL SINGLE POINT ENERGY     -1339.844892210248

DIPOLE MOMENT
-------------
                                X             Y             Z
Electronic contribution:      5.58489      -5.20508     -10.90039
Nuclear contribution   :     -5.83252       5.23942      11.13421
                        -----------------------------------------
Total Dipole Moment    :     -0.24763       0.03433       0.23383
                        -----------------------------------------
Magnitude (a.u.)       :      0.34231
Magnitude (Debye)      :      0.87008

Rotational constants in cm-1:     0.019598     0.008944     0.006891
Rotational constants in MHz :   587.531126   268.145517   206.574651

                             ****ORCA TERMINATED NORMALLY****
TOTAL RUN TIME: 0 days 0 hours 0 minutes 21 seconds 735 msec
