                         Program Version 4.2.1 -  RELEASE  -
|  1> ! wB97X-D3 SP def2-SVP
|  2> %pal
|  3> nprocs 24
|  4> end
|  5>
|  6> * xyz 0 1
|  7> S 	 45.6227 	 -23.5168 	 -113.585
|  8> C 	 47.3364 	 -23.4879 	 -113.69
|  9> C 	 47.88 	 -22.6785 	 -112.755
| 10> C 	 46.8594 	 -21.9143 	 -112.058
| 11> C 	 45.5662 	 -22.2078 	 -112.425
| 12> H 	 47.0589 	 -21.0453 	 -111.429
| 13> C 	 49.3357 	 -22.3976 	 -112.658
| 14> H 	 49.6345 	 -21.3957 	 -112.787
| 15> H 	 49.8249 	 -22.8083 	 -113.508
| 16> C 	 50.0157 	 -22.9341 	 -111.393
| 17> H 	 49.6757 	 -23.9674 	 -111.054
| 18> H 	 51.1042 	 -22.9567 	 -111.464
| 19> C 	 49.6512 	 -21.9719 	 -110.199
| 20> H 	 49.7962 	 -20.9446 	 -110.439
| 21> H 	 48.7024 	 -22.1906 	 -109.828
| 22> H 	 50.3251 	 -22.2 	 -109.383
| 23> S 	 43.0548 	 -21.2778 	 -112.896
| 24> C 	 42.2454 	 -20.4321 	 -111.656
| 25> C 	 42.9272 	 -20.5307 	 -110.415
| 26> C 	 44.1443 	 -21.2289 	 -110.493
| 27> C 	 44.3759 	 -21.6562 	 -111.8
| 28> H 	 42.5558 	 -20.0321 	 -109.549
| 29> C 	 45.0233 	 -21.3991 	 -109.257
| 30> H 	 45.3971 	 -20.4746 	 -108.82
| 31> H 	 45.9921 	 -21.8741 	 -109.524
| 32> C 	 44.3951 	 -22.3119 	 -108.142
| 33> H 	 43.3863 	 -21.8346 	 -107.893
| 34> H 	 44.8649 	 -22.3392 	 -107.174
| 35> C 	 44.2854 	 -23.7872 	 -108.683
| 36> H 	 45.3226 	 -24.1728 	 -109.034
| 37> H 	 43.6641 	 -23.7623 	 -109.62
| 38> H 	 43.8305 	 -24.4692 	 -107.987
| 39> H 	 47.8662 	 -23.9599 	 -114.558
| 40> H 	 41.5267 	 -19.6673 	 -111.792
| 41> *
| 42>
| 43>                          ****END OF INPUT****

CARTESIAN COORDINATES (ANGSTROEM)
---------------------------------
  S     45.622700  -23.516800  -113.585000
  C     47.336400  -23.487900  -113.690000
  C     47.880000  -22.678500  -112.755000
  C     46.859400  -21.914300  -112.058000
  C     45.566200  -22.207800  -112.425000
  H     47.058900  -21.045300  -111.429000
  C     49.335700  -22.397600  -112.658000
  H     49.634500  -21.395700  -112.787000
  H     49.824900  -22.808300  -113.508000
  C     50.015700  -22.934100  -111.393000
  H     49.675700  -23.967400  -111.054000
  H     51.104200  -22.956700  -111.464000
  C     49.651200  -21.971900  -110.199000
  H     49.796200  -20.944600  -110.439000
  H     48.702400  -22.190600  -109.828000
  H     50.325100  -22.200000  -109.383000
  S     43.054800  -21.277800  -112.896000
  C     42.245400  -20.432100  -111.656000
  C     42.927200  -20.530700  -110.415000
  C     44.144300  -21.228900  -110.493000
  C     44.375900  -21.656200  -111.800000
  H     42.555800  -20.032100  -109.549000
  C     45.023300  -21.399100  -109.257000
  H     45.397100  -20.474600  -108.820000
  H     45.992100  -21.874100  -109.524000
  C     44.395100  -22.311900  -108.142000
  H     43.386300  -21.834600  -107.893000
  H     44.864900  -22.339200  -107.174000
  C     44.285400  -23.787200  -108.683000
  H     45.322600  -24.172800  -109.034000
  H     43.664100  -23.762300  -109.620000
  H     43.830500  -24.469200  -107.987000
  H     47.866200  -23.959900  -114.558000
  H     41.526700  -19.667300  -111.792000

 Total Charge           Charge          ....    0
 Multiplicity           Mult            ....    1
 Number of Electrons    NEL             ....  134
 Basis Dimension        Dim             ....  322

ORBITAL ENERGIES
----------------

  NO   OCC          E(Eh)            E(eV)
   0   2.0000     -88.971552     -2421.0390
   1   2.0000     -88.960822     -2420.7470
   2   2.0000     -10.330486      -281.1068
   3   2.0000     -10.327019      -281.0125
   4   2.0000     -10.316312      -280.7211
   5   2.0000     -10.312093      -280.6063
   6   2.0000     -10.309064      -280.5239
   7   2.0000     -10.298605      -280.2393
   8   2.0000     -10.298137      -280.2266
   9   2.0000     -10.295166      -280.1457
  10   2.0000     -10.294718      -280.1335
  11   2.0000     -10.291922      -280.0574
  12   2.0000     -10.291884      -280.0564
  13   2.0000     -10.282872      -279.8112
  14   2.0000     -10.282154      -279.7916
  15   2.0000     -10.268458      -279.4189
  16   2.0000      -8.086879      -220.0552
  17   2.0000      -8.076543      -219.7739
  18   2.0000      -6.045167      -164.4973
  19   2.0000      -6.041230      -164.3902
  20   2.0000      -6.037903      -164.2997
  21   2.0000      -6.035118      -164.2239
  22   2.0000      -6.030878      -164.1085
  23   2.0000      -6.027225      -164.0091
  24   2.0000      -1.011627       -27.5278
  25   2.0000      -0.990347       -26.9487
  26   2.0000      -0.913153       -24.8482
  27   2.0000      -0.904058       -24.6007
  28   2.0000      -0.871257       -23.7081
  29   2.0000      -0.848745       -23.0955
  30   2.0000      -0.840934       -22.8830
  31   2.0000      -0.812547       -22.1105
  32   2.0000      -0.783344       -21.3159
  33   2.0000      -0.772683       -21.0258
  34   2.0000      -0.704520       -19.1710
  35   2.0000      -0.697196       -18.9717
  36   2.0000      -0.695109       -18.9149
  37   2.0000      -0.664358       -18.0781
  38   2.0000      -0.642394       -17.4804
  39   2.0000      -0.621862       -16.9217
  40   2.0000      -0.600188       -16.3319
  41   2.0000      -0.576660       -15.6917
  42   2.0000      -0.553553       -15.0629
  43   2.0000      -0.544548       -14.8179
  44   2.0000      -0.542684       -14.7672
  45   2.0000      -0.528901       -14.3921
  46   2.0000      -0.518167       -14.1000
  47   2.0000      -0.508523       -13.8376
  48   2.0000      -0.501389       -13.6435
  49   2.0000      -0.497204       -13.5296
  50   2.0000      -0.492740       -13.4081
  51   2.0000      -0.481264       -13.0959
  52   2.0000      -0.466271       -12.6879
  53   2.0000      -0.466111       -12.6835
  54   2.0000      -0.455630       -12.3983
  55   2.0000      -0.448536       -12.2053
  56   2.0000      -0.441218       -12.0062
  57   2.0000      -0.440032       -11.9739
  58   2.0000      -0.431040       -11.7292
  59   2.0000      -0.425929       -11.5901
  60   2.0000      -0.420249       -11.4356
  61   2.0000      -0.410512       -11.1706
  62   2.0000      -0.409442       -11.1415
  63   2.0000      -0.352597        -9.5947
  64   2.0000      -0.338892        -9.2217
  65   2.0000      -0.327635        -8.9154
  66   2.0000      -0.287763        -7.8304
  67   0.0000       0.023944         0.6515
  68   0.0000       0.073442         1.9985
  69   0.0000       0.114084         3.1044
  70   0.0000       0.114729         3.1219
  71   0.0000       0.134209         3.6520

MULLIKEN ATOMIC CHARGES
-----------------------
   0 S :    0.096761
   1 C :   -0.147802
   2 C :   -0.060380
   3 C :   -0.014881
   4 C :   -0.103744
   5 H :    0.025306
   6 C :    0.103437
   7 H :    0.014969
   8 H :   -0.006426
   9 C :   -0.101341
  10 H :    0.040378
  11 H :    0.032595
  12 C :   -0.037035
  13 H :    0.023264
  14 H :    0.027530
  15 H :    0.021342
  16 S :    0.128165
  17 C :   -0.070891
  18 C :   -0.058432
  19 C :   -0.010650
  20 C :   -0.175738
  21 H :    0.013463
  22 C :    0.050675
  23 H :    0.034668
  24 H :    0.019563
  25 C :   -0.084895
  26 H :    0.031407
  27 H :    0.031614
  28 C :   -0.086562
  29 H :    0.044705
  30 H :    0.051616
  31 H :    0.039859
  32 H :    0.074292
  33 H :    0.053166
Sum of atomic charges:   -0.0000000

LOEWDIN ATOMIC CHARGES
----------------------
   0 S :    0.401475
   1 C :   -0.206021
   2 C :   -0.064123
   3 C :   -0.069435
   4 C :   -0.196114
   5 H :    0.032147
   6 C :   -0.032282
   7 H :    0.026259
   8 H :    0.025073
   9 C :   -0.033503
  10 H :    0.031852
  11 H :    0.021643
  12 C :   -0.060844
  13 H :    0.017582
  14 H :    0.014129
  15 H :    0.025008
  16 S :    0.435671
  17 C :   -0.197863
  18 C :   -0.061117
  19 C :   -0.051784
  20 C :   -0.193481
  21 H :    0.026449
  22 C :   -0.035442
  23 H :    0.031529
  24 H :    0.029468
  25 C :   -0.042743
  26 H :    0.025440
  27 H :    0.020464
  28 C :   -0.073746
  29 H :    0.035265
  30 H :    0.032689
  31 H :    0.020132
  32 H :    0.041824
  33 H :    0.024397

  Mayer bond orders larger than 0.100000
B(  0-S ,  1-C ) :   1.1368 B(  0-S ,  4-C ) :   1.1391 B(  1-C ,  2-C ) :   1.6278
B(  1-C , 32-H ) :   0.9587 B(  2-C ,  3-C ) :   1.2258 B(  2-C ,  6-C ) :   1.0320
B(  3-C ,  4-C ) :   1.5872 B(  3-C ,  5-H ) :   0.9900 B(  4-C , 20-C ) :   1.0427
B(  6-C ,  7-H ) :   0.9426 B(  6-C ,  8-H ) :   0.9308 B(  6-C ,  9-C ) :   1.0639
B(  9-C , 10-H ) :   0.9574 B(  9-C , 11-H ) :   0.9604 B(  9-C , 12-C ) :   1.0774
B( 12-C , 13-H ) :   0.9751 B( 12-C , 14-H ) :   0.9769 B( 12-C , 15-H ) :   0.9704
B( 16-S , 17-C ) :   1.1780 B( 16-S , 20-C ) :   1.1601 B( 17-C , 18-C ) :   1.5725
B( 17-C , 20-C ) :   0.1062 B( 17-C , 33-H ) :   0.9691 B( 18-C , 19-C ) :   1.2662
B( 18-C , 21-H ) :   0.9917 B( 19-C , 20-C ) :   1.5561 B( 19-C , 22-C ) :   1.0343
B( 22-C , 23-H ) :   0.9371 B( 22-C , 24-H ) :   0.9364 B( 22-C , 25-C ) :   1.0591
B( 25-C , 26-H ) :   0.9582 B( 25-C , 27-H ) :   0.9601 B( 25-C , 28-C ) :   1.0577
B( 28-C , 29-H ) :   0.9735 B( 28-C , 30-H ) :   0.9764 B( 28-C , 31-H ) :   0.9764

Dispersion correction           -0.015400657
FINAL SINGLE POINT ENERGY     -1339.874289530901

DIPOLE MOMENT
-------------
                                X             Y             Z
Electronic contribution:    -17.68411       1.47597     -21.29131
Nuclear contribution   :     18.12650      -1.07182      21.67717
                        -----------------------------------------
Total Dipole Moment    :      0.44239       0.40415       0.38586
                        -----------------------------------------
Magnitude (a.u.)       :      0.71269
Magnitude (Debye)      :      1.81152

Rotational constants in cm-1:     0.018499     0.009873     0.007580
Rotational constants in MHz :   554.571741   295.975508   227.252863

                             ****ORCA TERMINATED NORMALLY****
TOTAL RUN TIME: 0 days 0 hours 0 minutes 22 seconds 816 msec
