                         Program Version 4.2.1 -  RELEASE  -
|  1> ! wB97X-D3 SP def2-SVP
|  2> %pal
|  3> nprocs 24
|  4> end
|  5>
|  6> * xyz 0 1
|  7> S 	 -99.118 	 -1.61438 	 -104.464
|  8> C 	 -99.193 	 -1.39798 	 -106.182
|  9> C 	 -100.398 	 -1.81507 	 -106.673
| 10> C 	 -101.314 	 -2.27825 	 -105.711
| 11> C 	 -100.761 	 -2.25308 	 -104.438
| 12> H 	 -102.304 	 -2.48067 	 -105.877
| 13> C 	 -100.613 	 -2.06802 	 -108.122
| 14> H 	 -99.8296 	 -1.46924 	 -108.613
| 15> H 	 -101.563 	 -1.69897 	 -108.443
| 16> C 	 -100.39 	 -3.53639 	 -108.653
| 17> H 	 -101.073 	 -4.27226 	 -108.368
| 18> H 	 -100.553 	 -3.56039 	 -109.701
| 19> C 	 -98.9358 	 -4.04867 	 -108.435
| 20> H 	 -98.0822 	 -3.43588 	 -108.877
| 21> H 	 -98.7001 	 -4.33716 	 -107.383
| 22> H 	 -98.9285 	 -5.00323 	 -109.006
| 23> S 	 -101.86 	 -0.904889 	 -102.319
| 24> C 	 -102.463 	 -1.82319 	 -100.983
| 25> C 	 -102.546 	 -3.18854 	 -101.336
| 26> C 	 -102.069 	 -3.4966 	 -102.653
| 27> C 	 -101.523 	 -2.39679 	 -103.236
| 28> H 	 -102.984 	 -3.83516 	 -100.574
| 29> C 	 -101.88 	 -4.93904 	 -103.094
| 30> H 	 -100.828 	 -5.23755 	 -102.825
| 31> H 	 -102.048 	 -4.90229 	 -104.165
| 32> C 	 -102.984 	 -5.96197 	 -102.678
| 33> H 	 -103.916 	 -5.61272 	 -103.028
| 34> H 	 -103.126 	 -6.02194 	 -101.587
| 35> C 	 -102.593 	 -7.32768 	 -103.171
| 36> H 	 -102.5 	 -7.41603 	 -104.261
| 37> H 	 -103.285 	 -8.00602 	 -102.758
| 38> H 	 -101.676 	 -7.6407 	 -102.682
| 39> H 	 -98.4197 	 -1.16996 	 -106.87
| 40> H 	 -102.617 	 -1.48343 	 -100.001
| 41> *
| 42>
| 43>                          ****END OF INPUT****

CARTESIAN COORDINATES (ANGSTROEM)
---------------------------------
  S    -99.118000   -1.614380  -104.464000
  C    -99.193000   -1.397980  -106.182000
  C    -100.398000   -1.815070  -106.673000
  C    -101.314000   -2.278250  -105.711000
  C    -100.761000   -2.253080  -104.438000
  H    -102.304000   -2.480670  -105.877000
  C    -100.613000   -2.068020  -108.122000
  H    -99.829600   -1.469240  -108.613000
  H    -101.563000   -1.698970  -108.443000
  C    -100.390000   -3.536390  -108.653000
  H    -101.073000   -4.272260  -108.368000
  H    -100.553000   -3.560390  -109.701000
  C    -98.935800   -4.048670  -108.435000
  H    -98.082200   -3.435880  -108.877000
  H    -98.700100   -4.337160  -107.383000
  H    -98.928500   -5.003230  -109.006000
  S    -101.860000   -0.904889  -102.319000
  C    -102.463000   -1.823190  -100.983000
  C    -102.546000   -3.188540  -101.336000
  C    -102.069000   -3.496600  -102.653000
  C    -101.523000   -2.396790  -103.236000
  H    -102.984000   -3.835160  -100.574000
  C    -101.880000   -4.939040  -103.094000
  H    -100.828000   -5.237550  -102.825000
  H    -102.048000   -4.902290  -104.165000
  C    -102.984000   -5.961970  -102.678000
  H    -103.916000   -5.612720  -103.028000
  H    -103.126000   -6.021940  -101.587000
  C    -102.593000   -7.327680  -103.171000
  H    -102.500000   -7.416030  -104.261000
  H    -103.285000   -8.006020  -102.758000
  H    -101.676000   -7.640700  -102.682000
  H    -98.419700   -1.169960  -106.870000
  H    -102.617000   -1.483430  -100.001000

 Total Charge           Charge          ....    0
 Multiplicity           Mult            ....    1
 Number of Electrons    NEL             ....  134
 Basis Dimension        Dim             ....  322

ORBITAL ENERGIES
----------------

  NO   OCC          E(Eh)            E(eV)
   0   2.0000     -88.968398     -2420.9532
   1   2.0000     -88.961310     -2420.7603
   2   2.0000     -10.325237      -280.9640
   3   2.0000     -10.318901      -280.7916
   4   2.0000     -10.311246      -280.5833
   5   2.0000     -10.307704      -280.4869
   6   2.0000     -10.299059      -280.2516
   7   2.0000     -10.293613      -280.1035
   8   2.0000     -10.292348      -280.0690
   9   2.0000     -10.289497      -279.9914
  10   2.0000     -10.288561      -279.9660
  11   2.0000     -10.286397      -279.9071
  12   2.0000     -10.285558      -279.8843
  13   2.0000     -10.285078      -279.8712
  14   2.0000     -10.284512      -279.8558
  15   2.0000     -10.273346      -279.5520
  16   2.0000      -8.082912      -219.9472
  17   2.0000      -8.075995      -219.7590
  18   2.0000      -6.041416      -164.3953
  19   2.0000      -6.037408      -164.2862
  20   2.0000      -6.034495      -164.2069
  21   2.0000      -6.033720      -164.1859
  22   2.0000      -6.030532      -164.0991
  23   2.0000      -6.026746      -163.9961
  24   2.0000      -1.007853       -27.4251
  25   2.0000      -0.983255       -26.7557
  26   2.0000      -0.910525       -24.7767
  27   2.0000      -0.907497       -24.6942
  28   2.0000      -0.870127       -23.6773
  29   2.0000      -0.853428       -23.2229
  30   2.0000      -0.849250       -23.1093
  31   2.0000      -0.811116       -22.0716
  32   2.0000      -0.780257       -21.2319
  33   2.0000      -0.770214       -20.9586
  34   2.0000      -0.712302       -19.3827
  35   2.0000      -0.702623       -19.1194
  36   2.0000      -0.699449       -19.0330
  37   2.0000      -0.654633       -17.8135
  38   2.0000      -0.645146       -17.5553
  39   2.0000      -0.618032       -16.8175
  40   2.0000      -0.594100       -16.1663
  41   2.0000      -0.571555       -15.5528
  42   2.0000      -0.566041       -15.4028
  43   2.0000      -0.547279       -14.8922
  44   2.0000      -0.543450       -14.7880
  45   2.0000      -0.528216       -14.3735
  46   2.0000      -0.518991       -14.1225
  47   2.0000      -0.511453       -13.9173
  48   2.0000      -0.505570       -13.7573
  49   2.0000      -0.501156       -13.6371
  50   2.0000      -0.489055       -13.3079
  51   2.0000      -0.476992       -12.9796
  52   2.0000      -0.469543       -12.7769
  53   2.0000      -0.467330       -12.7167
  54   2.0000      -0.452964       -12.3258
  55   2.0000      -0.448831       -12.2133
  56   2.0000      -0.442590       -12.0435
  57   2.0000      -0.435240       -11.8435
  58   2.0000      -0.430828       -11.7234
  59   2.0000      -0.425812       -11.5869
  60   2.0000      -0.419558       -11.4168
  61   2.0000      -0.416019       -11.3205
  62   2.0000      -0.414660       -11.2835
  63   2.0000      -0.339371        -9.2347
  64   2.0000      -0.332200        -9.0396
  65   2.0000      -0.318967        -8.6795
  66   2.0000      -0.299277        -8.1437
  67   0.0000       0.032576         0.8864
  68   0.0000       0.062764         1.7079
  69   0.0000       0.116961         3.1827
  70   0.0000       0.126544         3.4434
  71   0.0000       0.130987         3.5643

MULLIKEN ATOMIC CHARGES
-----------------------
   0 S :    0.125155
   1 C :   -0.086772
   2 C :   -0.096470
   3 C :    0.084729
   4 C :   -0.188330
   5 H :   -0.016760
   6 C :    0.074908
   7 H :    0.010851
   8 H :    0.018254
   9 C :   -0.020117
  10 H :    0.013668
  11 H :    0.016554
  12 C :   -0.114967
  13 H :    0.043416
  14 H :    0.055836
  15 H :    0.031096
  16 S :    0.114873
  17 C :   -0.079049
  18 C :   -0.070532
  19 C :    0.004960
  20 C :   -0.178866
  21 H :    0.022572
  22 C :    0.055645
  23 H :    0.059402
  24 H :    0.019347
  25 C :   -0.091798
  26 H :    0.017635
  27 H :    0.025416
  28 C :    0.001863
  29 H :    0.038265
  30 H :    0.017135
  31 H :    0.020450
  32 H :    0.030571
  33 H :    0.041059
Sum of atomic charges:    0.0000000

LOEWDIN ATOMIC CHARGES
----------------------
   0 S :    0.415217
   1 C :   -0.194135
   2 C :   -0.071567
   3 C :   -0.038350
   4 C :   -0.192543
   5 H :    0.019100
   6 C :   -0.028406
   7 H :    0.029753
   8 H :    0.023606
   9 C :   -0.032734
  10 H :    0.016896
  11 H :    0.022925
  12 C :   -0.078885
  13 H :    0.029856
  14 H :    0.029637
  15 H :    0.029597
  16 S :    0.398895
  17 C :   -0.187664
  18 C :   -0.074205
  19 C :   -0.061941
  20 C :   -0.192816
  21 H :    0.029802
  22 C :   -0.030284
  23 H :    0.042422
  24 H :    0.031131
  25 C :   -0.036839
  26 H :    0.018089
  27 H :    0.021555
  28 C :   -0.058547
  29 H :    0.027324
  30 H :    0.021888
  31 H :    0.027187
  32 H :    0.023870
  33 H :    0.020164

  Mayer bond orders larger than 0.100000
B(  0-S ,  1-C ) :   1.1336 B(  0-S ,  4-C ) :   1.1537 B(  1-C ,  2-C ) :   1.6145
B(  1-C , 32-H ) :   0.9634 B(  2-C ,  3-C ) :   1.2437 B(  2-C ,  6-C ) :   1.0475
B(  3-C ,  4-C ) :   1.5568 B(  3-C ,  5-H ) :   1.0073 B(  4-C , 20-C ) :   1.0464
B(  6-C ,  7-H ) :   0.9395 B(  6-C ,  8-H ) :   0.9355 B(  6-C ,  9-C ) :   1.0619
B(  9-C , 10-H ) :   0.9548 B(  9-C , 11-H ) :   0.9545 B(  9-C , 12-C ) :   1.0720
B( 12-C , 13-H ) :   0.9755 B( 12-C , 14-H ) :   0.9755 B( 12-C , 15-H ) :   0.9727
B( 16-S , 17-C ) :   1.1526 B( 16-S , 20-C ) :   1.1363 B( 17-C , 18-C ) :   1.6253
B( 17-C , 33-H ) :   0.9717 B( 18-C , 19-C ) :   1.2097 B( 18-C , 21-H ) :   0.9882
B( 19-C , 20-C ) :   1.6186 B( 19-C , 22-C ) :   1.0401 B( 22-C , 23-H ) :   0.9429
B( 22-C , 24-H ) :   0.9268 B( 22-C , 25-C ) :   1.0625 B( 25-C , 26-H ) :   0.9565
B( 25-C , 27-H ) :   0.9496 B( 25-C , 28-C ) :   1.0964 B( 28-C , 29-H ) :   0.9735
B( 28-C , 30-H ) :   0.9681 B( 28-C , 31-H ) :   0.9695

Dispersion correction           -0.014240618
FINAL SINGLE POINT ENERGY     -1339.863914187755

DIPOLE MOMENT
-------------
                                X             Y             Z
Electronic contribution:      2.93630      23.86633      14.82479
Nuclear contribution   :     -3.13369     -24.47064     -15.13449
                        -----------------------------------------
Total Dipole Moment    :     -0.19740      -0.60431      -0.30970
                        -----------------------------------------
Magnitude (a.u.)       :      0.70716
Magnitude (Debye)      :      1.79745

Rotational constants in cm-1:     0.017305     0.009230     0.006692
Rotational constants in MHz :   518.778394   276.720082   200.634723

                             ****ORCA TERMINATED NORMALLY****
TOTAL RUN TIME: 0 days 0 hours 0 minutes 20 seconds 459 msec
