                         Program Version 4.2.1 -  RELEASE  -
|  1> ! wB97X-D3 SP def2-SVP
|  2> %pal
|  3> nprocs 24
|  4> end
|  5>
|  6> * xyz 0 1
|  7> S 	 -103.032 	 22.581 	 -110.563
|  8> C 	 -103.944 	 21.7919 	 -111.88
|  9> C 	 -104.653 	 22.75 	 -112.518
| 10> C 	 -104.763 	 23.9905 	 -111.734
| 11> C 	 -103.874 	 24.0911 	 -110.707
| 12> H 	 -105.307 	 24.8536 	 -112.004
| 13> C 	 -105.528 	 22.4902 	 -113.757
| 14> H 	 -106.544 	 22.8262 	 -113.555
| 15> H 	 -105.534 	 21.4384 	 -113.848
| 16> C 	 -104.964 	 23.2052 	 -115.041
| 17> H 	 -105.562 	 22.9215 	 -115.838
| 18> H 	 -104.96 	 24.2987 	 -114.879
| 19> C 	 -103.47 	 22.8842 	 -115.202
| 20> H 	 -102.859 	 23.4777 	 -114.489
| 21> H 	 -103.321 	 21.8446 	 -115.089
| 22> H 	 -103.112 	 23.1555 	 -116.188
| 23> S 	 -103.912 	 25.4753 	 -108.274
| 24> C 	 -102.853 	 26.8873 	 -108.117
| 25> C 	 -102.302 	 27.2456 	 -109.335
| 26> C 	 -102.55 	 26.2678 	 -110.317
| 27> C 	 -103.452 	 25.2987 	 -109.942
| 28> H 	 -101.749 	 28.1024 	 -109.49
| 29> C 	 -101.891 	 26.2114 	 -111.652
| 30> H 	 -101.706 	 25.1916 	 -111.89
| 31> H 	 -100.877 	 26.6178 	 -111.742
| 32> C 	 -102.559 	 26.9481 	 -112.858
| 33> H 	 -102.74 	 28.0465 	 -112.647
| 34> H 	 -103.581 	 26.4867 	 -112.977
| 35> C 	 -101.811 	 26.844 	 -114.13
| 36> H 	 -101.497 	 25.7843 	 -114.222
| 37> H 	 -100.882 	 27.3963 	 -114.084
| 38> H 	 -102.463 	 27.1676 	 -114.928
| 39> H 	 -103.838 	 20.7425 	 -112.161
| 40> H 	 -102.529 	 27.5493 	 -107.31
| 41> *
| 42>
| 43>                          ****END OF INPUT****

CARTESIAN COORDINATES (ANGSTROEM)
---------------------------------
  S    -103.032000   22.581000  -110.563000
  C    -103.944000   21.791900  -111.880000
  C    -104.653000   22.750000  -112.518000
  C    -104.763000   23.990500  -111.734000
  C    -103.874000   24.091100  -110.707000
  H    -105.307000   24.853600  -112.004000
  C    -105.528000   22.490200  -113.757000
  H    -106.544000   22.826200  -113.555000
  H    -105.534000   21.438400  -113.848000
  C    -104.964000   23.205200  -115.041000
  H    -105.562000   22.921500  -115.838000
  H    -104.960000   24.298700  -114.879000
  C    -103.470000   22.884200  -115.202000
  H    -102.859000   23.477700  -114.489000
  H    -103.321000   21.844600  -115.089000
  H    -103.112000   23.155500  -116.188000
  S    -103.912000   25.475300  -108.274000
  C    -102.853000   26.887300  -108.117000
  C    -102.302000   27.245600  -109.335000
  C    -102.550000   26.267800  -110.317000
  C    -103.452000   25.298700  -109.942000
  H    -101.749000   28.102400  -109.490000
  C    -101.891000   26.211400  -111.652000
  H    -101.706000   25.191600  -111.890000
  H    -100.877000   26.617800  -111.742000
  C    -102.559000   26.948100  -112.858000
  H    -102.740000   28.046500  -112.647000
  H    -103.581000   26.486700  -112.977000
  C    -101.811000   26.844000  -114.130000
  H    -101.497000   25.784300  -114.222000
  H    -100.882000   27.396300  -114.084000
  H    -102.463000   27.167600  -114.928000
  H    -103.838000   20.742500  -112.161000
  H    -102.529000   27.549300  -107.310000

 Total Charge           Charge          ....    0
 Multiplicity           Mult            ....    1
 Number of Electrons    NEL             ....  134
 Basis Dimension        Dim             ....  322

ORBITAL ENERGIES
----------------

  NO   OCC          E(Eh)            E(eV)
   0   2.0000     -88.971599     -2421.0403
   1   2.0000     -88.959577     -2420.7132
   2   2.0000     -10.329734      -281.0864
   3   2.0000     -10.325651      -280.9753
   4   2.0000     -10.320870      -280.8451
   5   2.0000     -10.317443      -280.7519
   6   2.0000     -10.303565      -280.3742
   7   2.0000     -10.299523      -280.2643
   8   2.0000     -10.292571      -280.0751
   9   2.0000     -10.291718      -280.0519
  10   2.0000     -10.288340      -279.9600
  11   2.0000     -10.287491      -279.9369
  12   2.0000     -10.286222      -279.9023
  13   2.0000     -10.284506      -279.8556
  14   2.0000     -10.275424      -279.6085
  15   2.0000     -10.273346      -279.5520
  16   2.0000      -8.085612      -220.0207
  17   2.0000      -8.074274      -219.7122
  18   2.0000      -6.044216      -164.4715
  19   2.0000      -6.040189      -164.3619
  20   2.0000      -6.036325      -164.2567
  21   2.0000      -6.032949      -164.1649
  22   2.0000      -6.028711      -164.0496
  23   2.0000      -6.024889      -163.9456
  24   2.0000      -1.007970       -27.4283
  25   2.0000      -0.986237       -26.8369
  26   2.0000      -0.911066       -24.7914
  27   2.0000      -0.910166       -24.7669
  28   2.0000      -0.869939       -23.6722
  29   2.0000      -0.857724       -23.3399
  30   2.0000      -0.838433       -22.8149
  31   2.0000      -0.822731       -22.3876
  32   2.0000      -0.782025       -21.2800
  33   2.0000      -0.771488       -20.9933
  34   2.0000      -0.707769       -19.2594
  35   2.0000      -0.695367       -18.9219
  36   2.0000      -0.687652       -18.7120
  37   2.0000      -0.666602       -18.1392
  38   2.0000      -0.645561       -17.5666
  39   2.0000      -0.619627       -16.8609
  40   2.0000      -0.600230       -16.3331
  41   2.0000      -0.573672       -15.6104
  42   2.0000      -0.563755       -15.3406
  43   2.0000      -0.553030       -15.0487
  44   2.0000      -0.546703       -14.8766
  45   2.0000      -0.530387       -14.4326
  46   2.0000      -0.519846       -14.1457
  47   2.0000      -0.515563       -14.0292
  48   2.0000      -0.509903       -13.8752
  49   2.0000      -0.502391       -13.6708
  50   2.0000      -0.487415       -13.2632
  51   2.0000      -0.474544       -12.9130
  52   2.0000      -0.473377       -12.8812
  53   2.0000      -0.466326       -12.6894
  54   2.0000      -0.458101       -12.4656
  55   2.0000      -0.448239       -12.1972
  56   2.0000      -0.445826       -12.1315
  57   2.0000      -0.434974       -11.8362
  58   2.0000      -0.431124       -11.7315
  59   2.0000      -0.427827       -11.6418
  60   2.0000      -0.423512       -11.5243
  61   2.0000      -0.409531       -11.1439
  62   2.0000      -0.405297       -11.0287
  63   2.0000      -0.336593        -9.1592
  64   2.0000      -0.327011        -8.8984
  65   2.0000      -0.325146        -8.8477
  66   2.0000      -0.314078        -8.5465
  67   0.0000       0.040812         1.1106
  68   0.0000       0.058514         1.5922
  69   0.0000       0.115524         3.1436
  70   0.0000       0.119170         3.2428
  71   0.0000       0.122061         3.3215

MULLIKEN ATOMIC CHARGES
-----------------------
   0 S :    0.089771
   1 C :   -0.122867
   2 C :   -0.126244
   3 C :    0.064747
   4 C :   -0.149063
   5 H :    0.001294
   6 C :    0.074821
   7 H :    0.034246
   8 H :    0.007329
   9 C :   -0.054048
  10 H :    0.025318
  11 H :    0.033304
  12 C :   -0.044558
  13 H :    0.050001
  14 H :    0.015791
  15 H :    0.025875
  16 S :    0.130625
  17 C :   -0.081567
  18 C :   -0.014905
  19 C :    0.009887
  20 C :   -0.182727
  21 H :   -0.009952
  22 C :    0.069719
  23 H :    0.012612
  24 H :    0.006142
  25 C :   -0.115151
  26 H :    0.031566
  27 H :    0.021470
  28 C :   -0.016323
  29 H :    0.025015
  30 H :    0.027871
  31 H :    0.042640
  32 H :    0.060258
  33 H :    0.057100
Sum of atomic charges:   -0.0000000

LOEWDIN ATOMIC CHARGES
----------------------
   0 S :    0.385959
   1 C :   -0.182403
   2 C :   -0.061620
   3 C :   -0.058574
   4 C :   -0.194495
   5 H :    0.022337
   6 C :   -0.022238
   7 H :    0.031024
   8 H :    0.019788
   9 C :   -0.030111
  10 H :    0.013746
  11 H :    0.027580
  12 C :   -0.060270
  13 H :    0.031163
  14 H :    0.014848
  15 H :    0.023306
  16 S :    0.415836
  17 C :   -0.182604
  18 C :   -0.058363
  19 C :   -0.049229
  20 C :   -0.210724
  21 H :    0.020323
  22 C :   -0.037566
  23 H :    0.024541
  24 H :    0.028982
  25 C :   -0.046472
  26 H :    0.025392
  27 H :    0.020006
  28 C :   -0.065080
  29 H :    0.027651
  30 H :    0.023062
  31 H :    0.030602
  32 H :    0.034111
  33 H :    0.039490

  Mayer bond orders larger than 0.100000
B(  0-S ,  1-C ) :   1.1175 B(  0-S ,  4-C ) :   1.1411 B(  1-C ,  2-C ) :   1.6428
B(  1-C , 32-H ) :   0.9679 B(  2-C ,  3-C ) :   1.1914 B(  2-C ,  6-C ) :   1.0239
B(  3-C ,  4-C ) :   1.6301 B(  3-C ,  5-H ) :   0.9934 B(  4-C , 20-C ) :   0.9918
B(  6-C ,  7-H ) :   0.9478 B(  6-C ,  8-H ) :   0.9453 B(  6-C ,  9-C ) :   1.0614
B(  9-C , 10-H ) :   0.9612 B(  9-C , 11-H ) :   0.9604 B(  9-C , 12-C ) :   1.0776
B( 12-C , 13-H ) :   0.9673 B( 12-C , 14-H ) :   0.9785 B( 12-C , 15-H ) :   0.9726
B( 16-S , 17-C ) :   1.1547 B( 16-S , 20-C ) :   1.1334 B( 17-C , 18-C ) :   1.6083
B( 17-C , 33-H ) :   0.9611 B( 18-C , 19-C ) :   1.2583 B( 18-C , 21-H ) :   0.9976
B( 19-C , 20-C ) :   1.6049 B( 19-C , 22-C ) :   1.0533 B( 22-C , 23-H ) :   0.9135
B( 22-C , 24-H ) :   0.9358 B( 22-C , 25-C ) :   1.0604 B( 25-C , 26-H ) :   0.9529
B( 25-C , 27-H ) :   0.9471 B( 25-C , 28-C ) :   1.0938 B( 28-C , 29-H ) :   0.9685
B( 28-C , 30-H ) :   0.9680 B( 28-C , 31-H ) :   0.9693

Dispersion correction           -0.016436908
FINAL SINGLE POINT ENERGY     -1339.868711988280

DIPOLE MOMENT
-------------
                                X             Y             Z
Electronic contribution:     -2.91708      -4.66405      29.83550
Nuclear contribution   :      2.99478       4.91473     -30.50334
                        -----------------------------------------
Total Dipole Moment    :      0.07771       0.25068      -0.66785
                        -----------------------------------------
Magnitude (a.u.)       :      0.71757
Magnitude (Debye)      :      1.82391

Rotational constants in cm-1:     0.019734     0.010074     0.007553
Rotational constants in MHz :   591.603218   302.014082   226.428410

                             ****ORCA TERMINATED NORMALLY****
TOTAL RUN TIME: 0 days 0 hours 0 minutes 23 seconds 373 msec
