                         Program Version 4.2.1 -  RELEASE  -
|  1> ! wB97X-D3 SP def2-SVP
|  2> %pal
|  3> nprocs 24
|  4> end
|  5>
|  6> * xyz 0 1
|  7> S 	 -88.568 	 -7.04293 	 -114.488
|  8> C 	 -89.7759 	 -8.35992 	 -114.647
|  9> C 	 -90.9213 	 -7.87143 	 -115.236
| 10> C 	 -90.81 	 -6.51576 	 -115.681
| 11> C 	 -89.5621 	 -5.95583 	 -115.339
| 12> H 	 -91.6609 	 -6.06871 	 -116.232
| 13> C 	 -92.1821 	 -8.68552 	 -115.621
| 14> H 	 -91.9224 	 -9.75494 	 -115.428
| 15> H 	 -92.3621 	 -8.64304 	 -116.701
| 16> C 	 -93.4916 	 -8.3162 	 -114.918
| 17> H 	 -93.9841 	 -7.51565 	 -115.396
| 18> H 	 -94.149 	 -9.18199 	 -115.006
| 19> C 	 -93.3398 	 -8.06594 	 -113.386
| 20> H 	 -94.297 	 -7.93743 	 -112.927
| 21> H 	 -92.8347 	 -8.88517 	 -112.894
| 22> H 	 -92.6778 	 -7.23461 	 -113.226
| 23> S 	 -88.2156 	 -4.1293 	 -116.902
| 24> C 	 -88.5396 	 -2.50287 	 -116.421
| 25> C 	 -89.1634 	 -2.29469 	 -115.235
| 26> C 	 -89.4812 	 -3.53653 	 -114.668
| 27> C 	 -89.2654 	 -4.55709 	 -115.527
| 28> H 	 -89.2822 	 -1.30269 	 -114.844
| 29> C 	 -90.2234 	 -3.65439 	 -113.359
| 30> H 	 -90.8363 	 -4.49721 	 -113.477
| 31> H 	 -90.861 	 -2.79925 	 -113.244
| 32> C 	 -89.3734 	 -3.81013 	 -112.093
| 33> H 	 -89.0652 	 -4.86561 	 -111.996
| 34> H 	 -90.1065 	 -3.69425 	 -111.298
| 35> C 	 -88.2429 	 -2.84221 	 -111.88
| 36> H 	 -87.8741 	 -2.94449 	 -110.908
| 37> H 	 -88.4906 	 -1.73748 	 -112.071
| 38> H 	 -87.393 	 -3.16408 	 -112.508
| 39> H 	 -89.7098 	 -9.40254 	 -114.306
| 40> H 	 -88.0134 	 -1.72421 	 -116.908
| 41> *
| 42>
| 43>                          ****END OF INPUT****

CARTESIAN COORDINATES (ANGSTROEM)
---------------------------------
  S    -88.568000   -7.042930  -114.488000
  C    -89.775900   -8.359920  -114.647000
  C    -90.921300   -7.871430  -115.236000
  C    -90.810000   -6.515760  -115.681000
  C    -89.562100   -5.955830  -115.339000
  H    -91.660900   -6.068710  -116.232000
  C    -92.182100   -8.685520  -115.621000
  H    -91.922400   -9.754940  -115.428000
  H    -92.362100   -8.643040  -116.701000
  C    -93.491600   -8.316200  -114.918000
  H    -93.984100   -7.515650  -115.396000
  H    -94.149000   -9.181990  -115.006000
  C    -93.339800   -8.065940  -113.386000
  H    -94.297000   -7.937430  -112.927000
  H    -92.834700   -8.885170  -112.894000
  H    -92.677800   -7.234610  -113.226000
  S    -88.215600   -4.129300  -116.902000
  C    -88.539600   -2.502870  -116.421000
  C    -89.163400   -2.294690  -115.235000
  C    -89.481200   -3.536530  -114.668000
  C    -89.265400   -4.557090  -115.527000
  H    -89.282200   -1.302690  -114.844000
  C    -90.223400   -3.654390  -113.359000
  H    -90.836300   -4.497210  -113.477000
  H    -90.861000   -2.799250  -113.244000
  C    -89.373400   -3.810130  -112.093000
  H    -89.065200   -4.865610  -111.996000
  H    -90.106500   -3.694250  -111.298000
  C    -88.242900   -2.842210  -111.880000
  H    -87.874100   -2.944490  -110.908000
  H    -88.490600   -1.737480  -112.071000
  H    -87.393000   -3.164080  -112.508000
  H    -89.709800   -9.402540  -114.306000
  H    -88.013400   -1.724210  -116.908000

 Total Charge           Charge          ....    0
 Multiplicity           Mult            ....    1
 Number of Electrons    NEL             ....  134
 Basis Dimension        Dim             ....  322

ORBITAL ENERGIES
----------------

  NO   OCC          E(Eh)            E(eV)
   0   2.0000     -88.970326     -2421.0056
   1   2.0000     -88.963233     -2420.8126
   2   2.0000     -10.325243      -280.9642
   3   2.0000     -10.317209      -280.7455
   4   2.0000     -10.315343      -280.6948
   5   2.0000     -10.306355      -280.4502
   6   2.0000     -10.299224      -280.2561
   7   2.0000     -10.296138      -280.1721
   8   2.0000     -10.294869      -280.1376
   9   2.0000     -10.293351      -280.0963
  10   2.0000     -10.285088      -279.8715
  11   2.0000     -10.284099      -279.8446
  12   2.0000     -10.280755      -279.7536
  13   2.0000     -10.278555      -279.6937
  14   2.0000     -10.275906      -279.6216
  15   2.0000     -10.270741      -279.4811
  16   2.0000      -8.084697      -219.9958
  17   2.0000      -8.078493      -219.8270
  18   2.0000      -6.043276      -164.4459
  19   2.0000      -6.039097      -164.3322
  20   2.0000      -6.036656      -164.2658
  21   2.0000      -6.035558      -164.2359
  22   2.0000      -6.033442      -164.1783
  23   2.0000      -6.029083      -164.0597
  24   2.0000      -1.010718       -27.5030
  25   2.0000      -0.985396       -26.8140
  26   2.0000      -0.910287       -24.7702
  27   2.0000      -0.908431       -24.7197
  28   2.0000      -0.867402       -23.6032
  29   2.0000      -0.853886       -23.2354
  30   2.0000      -0.843025       -22.9399
  31   2.0000      -0.809073       -22.0160
  32   2.0000      -0.787879       -21.4393
  33   2.0000      -0.777281       -21.1509
  34   2.0000      -0.708420       -19.2771
  35   2.0000      -0.697921       -18.9914
  36   2.0000      -0.688511       -18.7353
  37   2.0000      -0.663630       -18.0583
  38   2.0000      -0.629394       -17.1267
  39   2.0000      -0.616318       -16.7709
  40   2.0000      -0.592431       -16.1209
  41   2.0000      -0.565915       -15.3993
  42   2.0000      -0.555734       -15.1223
  43   2.0000      -0.551226       -14.9996
  44   2.0000      -0.548348       -14.9213
  45   2.0000      -0.541830       -14.7439
  46   2.0000      -0.518332       -14.1045
  47   2.0000      -0.507846       -13.8192
  48   2.0000      -0.492305       -13.3963
  49   2.0000      -0.489357       -13.3161
  50   2.0000      -0.483236       -13.1495
  51   2.0000      -0.480739       -13.0816
  52   2.0000      -0.476357       -12.9623
  53   2.0000      -0.459607       -12.5065
  54   2.0000      -0.457423       -12.4471
  55   2.0000      -0.452304       -12.3078
  56   2.0000      -0.449837       -12.2407
  57   2.0000      -0.439139       -11.9496
  58   2.0000      -0.434230       -11.8160
  59   2.0000      -0.425311       -11.5733
  60   2.0000      -0.423636       -11.5277
  61   2.0000      -0.411358       -11.1936
  62   2.0000      -0.407277       -11.0826
  63   2.0000      -0.337713        -9.1896
  64   2.0000      -0.330612        -8.9964
  65   2.0000      -0.314997        -8.5715
  66   2.0000      -0.311985        -8.4895
  67   0.0000       0.046618         1.2685
  68   0.0000       0.052688         1.4337
  69   0.0000       0.109801         2.9878
  70   0.0000       0.116919         3.1815
  71   0.0000       0.122811         3.3418

MULLIKEN ATOMIC CHARGES
-----------------------
   0 S :    0.129107
   1 C :   -0.139769
   2 C :   -0.097920
   3 C :    0.029908
   4 C :   -0.163322
   5 H :    0.027628
   6 C :    0.045059
   7 H :    0.016538
   8 H :    0.041352
   9 C :   -0.069708
  10 H :    0.023257
  11 H :    0.029132
  12 C :   -0.034710
  13 H :    0.033072
  14 H :    0.017937
  15 H :    0.038243
  16 S :    0.108058
  17 C :   -0.059264
  18 C :   -0.034409
  19 C :   -0.011634
  20 C :   -0.204024
  21 H :    0.012349
  22 C :    0.123358
  23 H :    0.009325
  24 H :    0.011634
  25 C :   -0.073139
  26 H :    0.026436
  27 H :    0.019498
  28 C :   -0.037846
  29 H :    0.020983
  30 H :    0.039025
  31 H :    0.039392
  32 H :    0.051183
  33 H :    0.033270
Sum of atomic charges:    0.0000000

LOEWDIN ATOMIC CHARGES
----------------------
   0 S :    0.419047
   1 C :   -0.200164
   2 C :   -0.066144
   3 C :   -0.064303
   4 C :   -0.214519
   5 H :    0.038368
   6 C :   -0.033026
   7 H :    0.029466
   8 H :    0.034377
   9 C :   -0.037962
  10 H :    0.015258
  11 H :    0.027829
  12 C :   -0.059792
  13 H :    0.023013
  14 H :    0.023080
  15 H :    0.023123
  16 S :    0.394906
  17 C :   -0.171719
  18 C :   -0.068873
  19 C :   -0.046122
  20 C :   -0.196473
  21 H :    0.032640
  22 C :   -0.022761
  23 H :    0.026377
  24 H :    0.026210
  25 C :   -0.040985
  26 H :    0.024337
  27 H :    0.022510
  28 C :   -0.069617
  29 H :    0.019699
  30 H :    0.032267
  31 H :    0.031666
  32 H :    0.034071
  33 H :    0.014216

  Mayer bond orders larger than 0.100000
B(  0-S ,  1-C ) :   1.1219 B(  0-S ,  4-C ) :   1.1791 B(  1-C ,  2-C ) :   1.6222
B(  1-C , 32-H ) :   0.9606 B(  2-C ,  3-C ) :   1.2496 B(  2-C ,  6-C ) :   1.0201
B(  3-C ,  4-C ) :   1.5442 B(  3-C ,  5-H ) :   0.9928 B(  4-C , 20-C ) :   1.0150
B(  6-C ,  7-H ) :   0.9412 B(  6-C ,  8-H ) :   0.9492 B(  6-C ,  9-C ) :   1.0681
B(  9-C , 10-H ) :   0.9575 B(  9-C , 11-H ) :   0.9565 B(  9-C , 12-C ) :   1.0818
B( 12-C , 13-H ) :   0.9753 B( 12-C , 14-H ) :   0.9753 B( 12-C , 15-H ) :   0.9695
B( 16-S , 17-C ) :   1.1575 B( 16-S , 20-C ) :   1.1257 B( 17-C , 18-C ) :   1.6411
B( 17-C , 33-H ) :   0.9633 B( 18-C , 19-C ) :   1.2015 B( 18-C , 21-H ) :   0.9998
B( 19-C , 20-C ) :   1.6479 B( 19-C , 22-C ) :   1.0288 B( 22-C , 23-H ) :   0.9211
B( 22-C , 24-H ) :   0.9367 B( 22-C , 25-C ) :   1.0856 B( 25-C , 26-H ) :   0.9477
B( 25-C , 27-H ) :   0.9540 B( 25-C , 28-C ) :   1.0876 B( 28-C , 29-H ) :   0.9691
B( 28-C , 30-H ) :   0.9732 B( 28-C , 31-H ) :   0.9672

Dispersion correction           -0.015767398
FINAL SINGLE POINT ENERGY     -1339.875003973310

DIPOLE MOMENT
-------------
                                X             Y             Z
Electronic contribution:     16.56570       1.73400     -15.87398
Nuclear contribution   :    -17.00320      -1.69778      16.15787
                        -----------------------------------------
Total Dipole Moment    :     -0.43749       0.03622       0.28388
                        -----------------------------------------
Magnitude (a.u.)       :      0.52278
Magnitude (Debye)      :      1.32881

Rotational constants in cm-1:     0.020226     0.008901     0.007805
Rotational constants in MHz :   606.345940   266.839091   233.977063

                             ****ORCA TERMINATED NORMALLY****
TOTAL RUN TIME: 0 days 0 hours 0 minutes 22 seconds 500 msec
