                         Program Version 4.2.1 -  RELEASE  -
|  1> ! wB97X-D3 SP def2-SVP
|  2> %pal
|  3> nprocs 24
|  4> end
|  5>
|  6> * xyz 0 1
|  7> S 	 -65.147 	 -1.59094 	 -20.2705
|  8> C 	 -65.6924 	 -1.05718 	 -18.6331
|  9> C 	 -64.6762 	 -0.786564 	 -17.8247
| 10> C 	 -63.4996 	 -0.526891 	 -18.6558
| 11> C 	 -63.5032 	 -1.07732 	 -19.9236
| 12> H 	 -62.6178 	 -0.0550571 	 -18.2781
| 13> C 	 -64.8231 	 -0.330537 	 -16.4136
| 14> H 	 -65.6235 	 -0.921343 	 -15.9932
| 15> H 	 -65.0836 	 0.74669 	 -16.2489
| 16> C 	 -63.6095 	 -0.583049 	 -15.5526
| 17> H 	 -62.8372 	 0.159505 	 -15.669
| 18> H 	 -63.937 	 -0.563357 	 -14.5293
| 19> C 	 -62.8863 	 -1.92233 	 -15.6089
| 20> H 	 -62.5212 	 -2.01653 	 -16.6092
| 21> H 	 -62.0077 	 -1.90306 	 -14.9307
| 22> H 	 -63.5185 	 -2.7886 	 -15.3069
| 23> S 	 -62.8102 	 -0.112822 	 -22.4614
| 24> C 	 -61.2317 	 -0.508153 	 -23.0215
| 25> C 	 -60.5823 	 -1.44332 	 -22.2061
| 26> C 	 -61.3439 	 -1.75807 	 -21.0416
| 27> C 	 -62.5369 	 -1.03089 	 -21.0181
| 28> H 	 -59.588 	 -1.8135 	 -22.3261
| 29> C 	 -60.93 	 -2.81672 	 -20.1576
| 30> H 	 -61.7435 	 -3.25202 	 -19.5529
| 31> H 	 -60.1106 	 -2.35654 	 -19.5376
| 32> C 	 -60.4791 	 -4.12137 	 -20.8873
| 33> H 	 -60.201 	 -4.78418 	 -20.0336
| 34> H 	 -59.5299 	 -3.89191 	 -21.3494
| 35> C 	 -61.4308 	 -4.71076 	 -22.0002
| 36> H 	 -61.2028 	 -5.73715 	 -22.358
| 37> H 	 -61.5741 	 -3.9829 	 -22.777
| 38> H 	 -62.3753 	 -4.81521 	 -21.4447
| 39> H 	 -66.7155 	 -1.34421 	 -18.205
| 40> H 	 -60.8146 	 -0.281754 	 -23.9752
| 41> *
| 42>
| 43>                          ****END OF INPUT****

CARTESIAN COORDINATES (ANGSTROEM)
---------------------------------
  S    -65.147000   -1.590940  -20.270500
  C    -65.692400   -1.057180  -18.633100
  C    -64.676200   -0.786564  -17.824700
  C    -63.499600   -0.526891  -18.655800
  C    -63.503200   -1.077320  -19.923600
  H    -62.617800   -0.055057  -18.278100
  C    -64.823100   -0.330537  -16.413600
  H    -65.623500   -0.921343  -15.993200
  H    -65.083600    0.746690  -16.248900
  C    -63.609500   -0.583049  -15.552600
  H    -62.837200    0.159505  -15.669000
  H    -63.937000   -0.563357  -14.529300
  C    -62.886300   -1.922330  -15.608900
  H    -62.521200   -2.016530  -16.609200
  H    -62.007700   -1.903060  -14.930700
  H    -63.518500   -2.788600  -15.306900
  S    -62.810200   -0.112822  -22.461400
  C    -61.231700   -0.508153  -23.021500
  C    -60.582300   -1.443320  -22.206100
  C    -61.343900   -1.758070  -21.041600
  C    -62.536900   -1.030890  -21.018100
  H    -59.588000   -1.813500  -22.326100
  C    -60.930000   -2.816720  -20.157600
  H    -61.743500   -3.252020  -19.552900
  H    -60.110600   -2.356540  -19.537600
  C    -60.479100   -4.121370  -20.887300
  H    -60.201000   -4.784180  -20.033600
  H    -59.529900   -3.891910  -21.349400
  C    -61.430800   -4.710760  -22.000200
  H    -61.202800   -5.737150  -22.358000
  H    -61.574100   -3.982900  -22.777000
  H    -62.375300   -4.815210  -21.444700
  H    -66.715500   -1.344210  -18.205000
  H    -60.814600   -0.281754  -23.975200

 Total Charge           Charge          ....    0
 Multiplicity           Mult            ....    1
 Number of Electrons    NEL             ....  134
 Basis Dimension        Dim             ....  322

ORBITAL ENERGIES
----------------

  NO   OCC          E(Eh)            E(eV)
   0   2.0000     -88.971413     -2421.0352
   1   2.0000     -88.958224     -2420.6763
   2   2.0000     -10.328281      -281.0468
   3   2.0000     -10.322372      -280.8860
   4   2.0000     -10.317502      -280.7535
   5   2.0000     -10.316219      -280.7186
   6   2.0000     -10.297207      -280.2013
   7   2.0000     -10.296399      -280.1793
   8   2.0000     -10.295049      -280.1425
   9   2.0000     -10.293748      -280.1071
  10   2.0000     -10.292165      -280.0640
  11   2.0000     -10.291495      -280.0458
  12   2.0000     -10.291027      -280.0331
  13   2.0000     -10.281814      -279.7824
  14   2.0000     -10.278721      -279.6982
  15   2.0000     -10.275326      -279.6058
  16   2.0000      -8.086499      -220.0448
  17   2.0000      -8.072599      -219.6666
  18   2.0000      -6.044928      -164.4908
  19   2.0000      -6.040952      -164.3827
  20   2.0000      -6.037331      -164.2841
  21   2.0000      -6.031334      -164.1209
  22   2.0000      -6.027235      -164.0094
  23   2.0000      -6.023057      -163.8957
  24   2.0000      -1.008259       -27.4361
  25   2.0000      -0.985895       -26.8276
  26   2.0000      -0.918314       -24.9886
  27   2.0000      -0.913890       -24.8682
  28   2.0000      -0.871697       -23.7201
  29   2.0000      -0.846457       -23.0333
  30   2.0000      -0.836129       -22.7522
  31   2.0000      -0.814103       -22.1529
  32   2.0000      -0.789023       -21.4704
  33   2.0000      -0.775919       -21.1138
  34   2.0000      -0.708882       -19.2896
  35   2.0000      -0.697413       -18.9776
  36   2.0000      -0.687567       -18.7096
  37   2.0000      -0.658480       -17.9181
  38   2.0000      -0.634896       -17.2764
  39   2.0000      -0.619369       -16.8539
  40   2.0000      -0.600151       -16.3309
  41   2.0000      -0.565567       -15.3899
  42   2.0000      -0.560797       -15.2601
  43   2.0000      -0.557711       -15.1761
  44   2.0000      -0.544740       -14.8231
  45   2.0000      -0.537667       -14.6307
  46   2.0000      -0.515033       -14.0148
  47   2.0000      -0.510397       -13.8886
  48   2.0000      -0.498627       -13.5683
  49   2.0000      -0.495354       -13.4793
  50   2.0000      -0.490993       -13.3606
  51   2.0000      -0.477596       -12.9961
  52   2.0000      -0.471009       -12.8168
  53   2.0000      -0.460667       -12.5354
  54   2.0000      -0.459998       -12.5172
  55   2.0000      -0.455578       -12.3969
  56   2.0000      -0.441546       -12.0151
  57   2.0000      -0.437008       -11.8916
  58   2.0000      -0.430255       -11.7078
  59   2.0000      -0.426376       -11.6023
  60   2.0000      -0.421150       -11.4601
  61   2.0000      -0.408973       -11.1287
  62   2.0000      -0.400607       -10.9011
  63   2.0000      -0.337604        -9.1867
  64   2.0000      -0.332713        -9.0536
  65   2.0000      -0.323885        -8.8134
  66   2.0000      -0.300701        -8.1825
  67   0.0000       0.036140         0.9834
  68   0.0000       0.063118         1.7175
  69   0.0000       0.104615         2.8467
  70   0.0000       0.120612         3.2820
  71   0.0000       0.126821         3.4510

MULLIKEN ATOMIC CHARGES
-----------------------
   0 S :    0.071616
   1 C :   -0.135636
   2 C :   -0.103386
   3 C :    0.041272
   4 C :   -0.162586
   5 H :    0.004290
   6 C :    0.107693
   7 H :    0.011299
   8 H :    0.058700
   9 C :   -0.110734
  10 H :    0.027217
  11 H :    0.020423
  12 C :   -0.058673
  13 H :    0.027790
  14 H :    0.034097
  15 H :    0.037352
  16 S :    0.147454
  17 C :   -0.070667
  18 C :   -0.039761
  19 C :   -0.034112
  20 C :   -0.167057
  21 H :    0.013365
  22 C :    0.032314
  23 H :    0.047306
  24 H :    0.053343
  25 C :   -0.116438
  26 H :    0.037583
  27 H :    0.013701
  28 C :   -0.027814
  29 H :    0.050032
  30 H :    0.046927
  31 H :    0.025536
  32 H :    0.069781
  33 H :    0.047773
Sum of atomic charges:   -0.0000000

LOEWDIN ATOMIC CHARGES
----------------------
   0 S :    0.359582
   1 C :   -0.176113
   2 C :   -0.074723
   3 C :   -0.051979
   4 C :   -0.185753
   5 H :    0.023108
   6 C :   -0.031308
   7 H :    0.030482
   8 H :    0.046992
   9 C :   -0.050091
  10 H :    0.020269
  11 H :    0.024659
  12 C :   -0.065587
  13 H :    0.017406
  14 H :    0.030341
  15 H :    0.026989
  16 S :    0.437791
  17 C :   -0.190045
  18 C :   -0.065490
  19 C :   -0.056893
  20 C :   -0.223653
  21 H :    0.027278
  22 C :   -0.042338
  23 H :    0.035532
  24 H :    0.046566
  25 C :   -0.041985
  26 H :    0.029393
  27 H :    0.009150
  28 C :   -0.063999
  29 H :    0.033892
  30 H :    0.026825
  31 H :    0.028235
  32 H :    0.040550
  33 H :    0.024919

  Mayer bond orders larger than 0.100000
B(  0-S ,  1-C ) :   1.1146 B(  0-S ,  4-C ) :   1.1205 B(  1-C ,  2-C ) :   1.6903
B(  1-C , 32-H ) :   0.9482 B(  2-C ,  3-C ) :   1.1594 B(  2-C ,  6-C ) :   1.0400
B(  3-C ,  4-C ) :   1.6564 B(  3-C ,  5-H ) :   0.9844 B(  4-C , 20-C ) :   1.0179
B(  6-C ,  7-H ) :   0.9280 B(  6-C ,  8-H ) :   0.9381 B(  6-C ,  9-C ) :   1.0754
B(  9-C , 10-H ) :   0.9514 B(  9-C , 11-H ) :   0.9554 B(  9-C , 12-C ) :   1.0912
B( 12-C , 13-H ) :   0.9682 B( 12-C , 14-H ) :   0.9713 B( 12-C , 15-H ) :   0.9746
B( 16-S , 17-C ) :   1.1719 B( 16-S , 20-C ) :   1.1472 B( 17-C , 18-C ) :   1.5763
B( 17-C , 33-H ) :   0.9679 B( 18-C , 19-C ) :   1.2676 B( 18-C , 21-H ) :   0.9896
B( 19-C , 20-C ) :   1.5653 B( 19-C , 22-C ) :   1.0642 B( 22-C , 23-H ) :   0.9363
B( 22-C , 24-H ) :   0.9210 B( 22-C , 25-C ) :   1.0661 B( 25-C , 26-H ) :   0.9600
B( 25-C , 27-H ) :   0.9506 B( 25-C , 28-C ) :   1.0552 B( 28-C , 29-H ) :   0.9754
B( 28-C , 30-H ) :   0.9690 B( 28-C , 31-H ) :   0.9764

Dispersion correction           -0.015205489
FINAL SINGLE POINT ENERGY     -1339.859031686938

DIPOLE MOMENT
-------------
                                X             Y             Z
Electronic contribution:    -10.46320      12.30541     -17.96999
Nuclear contribution   :     10.86289     -12.44826      18.44067
                        -----------------------------------------
Total Dipole Moment    :      0.39969      -0.14286       0.47067
                        -----------------------------------------
Magnitude (a.u.)       :      0.63380
Magnitude (Debye)      :      1.61098

Rotational constants in cm-1:     0.020121     0.008894     0.007555
Rotational constants in MHz :   603.214840   266.640063   226.484548

                             ****ORCA TERMINATED NORMALLY****
TOTAL RUN TIME: 0 days 0 hours 0 minutes 22 seconds 474 msec
