                         Program Version 4.2.1 -  RELEASE  -
|  1> ! wB97X-D3 SP def2-SVP
|  2> %pal
|  3> nprocs 24
|  4> end
|  5>
|  6> * xyz 0 1
|  7> S 	 -105.446 	 24.8462 	 -110.232
|  8> C 	 -105.763 	 23.9234 	 -111.583
|  9> C 	 -105.24 	 24.3934 	 -112.753
| 10> C 	 -104.46 	 25.5655 	 -112.498
| 11> C 	 -104.511 	 25.9704 	 -111.166
| 12> H 	 -103.931 	 26.2176 	 -113.154
| 13> C 	 -105.249 	 23.6412 	 -113.993
| 14> H 	 -105.23 	 24.3484 	 -114.75
| 15> H 	 -106.142 	 23.0576 	 -114.144
| 16> C 	 -104.109 	 22.6858 	 -114.234
| 17> H 	 -104.16 	 22.5572 	 -115.266
| 18> H 	 -103.128 	 23.0515 	 -113.9
| 19> C 	 -104.271 	 21.3388 	 -113.449
| 20> H 	 -105.198 	 20.8504 	 -113.688
| 21> H 	 -103.506 	 20.5378 	 -113.657
| 22> H 	 -104.33 	 21.613 	 -112.391
| 23> S 	 -105.379 	 28.0016 	 -109.553
| 24> C 	 -104.487 	 29.4467 	 -109.378
| 25> C 	 -103.417 	 29.4827 	 -110.236
| 26> C 	 -103.191 	 28.205 	 -110.918
| 27> C 	 -104.263 	 27.3366 	 -110.738
| 28> H 	 -102.721 	 30.2771 	 -110.127
| 29> C 	 -101.892 	 27.9668 	 -111.732
| 30> H 	 -101.588 	 26.8957 	 -111.679
| 31> H 	 -101.058 	 28.4617 	 -111.185
| 32> C 	 -101.925 	 28.3819 	 -113.224
| 33> H 	 -102.14 	 29.4596 	 -113.201
| 34> H 	 -102.754 	 28.0048 	 -113.799
| 35> C 	 -100.522 	 27.9798 	 -113.813
| 36> H 	 -100.405 	 28.5237 	 -114.704
| 37> H 	 -100.543 	 26.9213 	 -114.11
| 38> H 	 -99.7595 	 28.0494 	 -113.087
| 39> H 	 -106.368 	 22.9747 	 -111.414
| 40> H 	 -104.749 	 30.2018 	 -108.662
| 41> *
| 42>
| 43>                          ****END OF INPUT****

CARTESIAN COORDINATES (ANGSTROEM)
---------------------------------
  S    -105.446000   24.846200  -110.232000
  C    -105.763000   23.923400  -111.583000
  C    -105.240000   24.393400  -112.753000
  C    -104.460000   25.565500  -112.498000
  C    -104.511000   25.970400  -111.166000
  H    -103.931000   26.217600  -113.154000
  C    -105.249000   23.641200  -113.993000
  H    -105.230000   24.348400  -114.750000
  H    -106.142000   23.057600  -114.144000
  C    -104.109000   22.685800  -114.234000
  H    -104.160000   22.557200  -115.266000
  H    -103.128000   23.051500  -113.900000
  C    -104.271000   21.338800  -113.449000
  H    -105.198000   20.850400  -113.688000
  H    -103.506000   20.537800  -113.657000
  H    -104.330000   21.613000  -112.391000
  S    -105.379000   28.001600  -109.553000
  C    -104.487000   29.446700  -109.378000
  C    -103.417000   29.482700  -110.236000
  C    -103.191000   28.205000  -110.918000
  C    -104.263000   27.336600  -110.738000
  H    -102.721000   30.277100  -110.127000
  C    -101.892000   27.966800  -111.732000
  H    -101.588000   26.895700  -111.679000
  H    -101.058000   28.461700  -111.185000
  C    -101.925000   28.381900  -113.224000
  H    -102.140000   29.459600  -113.201000
  H    -102.754000   28.004800  -113.799000
  C    -100.522000   27.979800  -113.813000
  H    -100.405000   28.523700  -114.704000
  H    -100.543000   26.921300  -114.110000
  H    -99.759500   28.049400  -113.087000
  H    -106.368000   22.974700  -111.414000
  H    -104.749000   30.201800  -108.662000

 Total Charge           Charge          ....    0
 Multiplicity           Mult            ....    1
 Number of Electrons    NEL             ....  134
 Basis Dimension        Dim             ....  322

ORBITAL ENERGIES
----------------

  NO   OCC          E(Eh)            E(eV)
   0   2.0000     -88.965652     -2420.8785
   1   2.0000     -88.960107     -2420.7276
   2   2.0000     -10.325604      -280.9740
   3   2.0000     -10.324325      -280.9392
   4   2.0000     -10.311599      -280.5929
   5   2.0000     -10.310469      -280.5621
   6   2.0000     -10.305483      -280.4265
   7   2.0000     -10.298411      -280.2340
   8   2.0000     -10.296138      -280.1722
   9   2.0000     -10.293746      -280.1071
  10   2.0000     -10.290396      -280.0159
  11   2.0000     -10.290350      -280.0147
  12   2.0000     -10.282205      -279.7930
  13   2.0000     -10.279164      -279.7103
  14   2.0000     -10.278357      -279.6883
  15   2.0000     -10.276547      -279.6390
  16   2.0000      -8.082495      -219.9359
  17   2.0000      -8.075845      -219.7549
  18   2.0000      -6.040732      -164.3767
  19   2.0000      -6.036595      -164.2641
  20   2.0000      -6.034350      -164.2030
  21   2.0000      -6.033523      -164.1805
  22   2.0000      -6.030145      -164.0886
  23   2.0000      -6.026607      -163.9923
  24   2.0000      -1.015547       -27.6344
  25   2.0000      -0.988972       -26.9113
  26   2.0000      -0.923869       -25.1398
  27   2.0000      -0.904146       -24.6031
  28   2.0000      -0.871717       -23.7206
  29   2.0000      -0.854646       -23.2561
  30   2.0000      -0.844017       -22.9669
  31   2.0000      -0.813420       -22.1343
  32   2.0000      -0.784023       -21.3343
  33   2.0000      -0.772789       -21.0286
  34   2.0000      -0.710615       -19.3368
  35   2.0000      -0.704063       -19.1585
  36   2.0000      -0.690514       -18.7898
  37   2.0000      -0.667341       -18.1593
  38   2.0000      -0.643557       -17.5121
  39   2.0000      -0.622507       -16.9393
  40   2.0000      -0.598013       -16.2727
  41   2.0000      -0.579669       -15.7736
  42   2.0000      -0.559162       -15.2156
  43   2.0000      -0.547125       -14.8880
  44   2.0000      -0.541475       -14.7343
  45   2.0000      -0.531339       -14.4585
  46   2.0000      -0.516670       -14.0593
  47   2.0000      -0.511553       -13.9201
  48   2.0000      -0.504471       -13.7274
  49   2.0000      -0.490774       -13.3546
  50   2.0000      -0.490006       -13.3337
  51   2.0000      -0.482904       -13.1405
  52   2.0000      -0.478279       -13.0146
  53   2.0000      -0.466384       -12.6910
  54   2.0000      -0.459373       -12.5002
  55   2.0000      -0.454285       -12.3617
  56   2.0000      -0.449195       -12.2232
  57   2.0000      -0.440164       -11.9775
  58   2.0000      -0.435459       -11.8494
  59   2.0000      -0.427949       -11.6451
  60   2.0000      -0.420608       -11.4453
  61   2.0000      -0.415799       -11.3145
  62   2.0000      -0.407862       -11.0985
  63   2.0000      -0.358552        -9.7567
  64   2.0000      -0.329932        -8.9779
  65   2.0000      -0.326721        -8.8905
  66   2.0000      -0.285402        -7.7662
  67   0.0000       0.029047         0.7904
  68   0.0000       0.082062         2.2330
  69   0.0000       0.117817         3.2060
  70   0.0000       0.121413         3.3038
  71   0.0000       0.131523         3.5789

MULLIKEN ATOMIC CHARGES
-----------------------
   0 S :    0.121747
   1 C :   -0.158840
   2 C :   -0.061897
   3 C :    0.032028
   4 C :   -0.134136
   5 H :   -0.023019
   6 C :    0.107206
   7 H :   -0.001236
   8 H :    0.011234
   9 C :   -0.029794
  10 H :    0.017977
  11 H :    0.030034
  12 C :   -0.082854
  13 H :    0.012055
  14 H :    0.048283
  15 H :    0.039671
  16 S :    0.091882
  17 C :   -0.096884
  18 C :   -0.003047
  19 C :   -0.068336
  20 C :   -0.124935
  21 H :    0.009206
  22 C :    0.000618
  23 H :    0.031057
  24 H :    0.033369
  25 C :   -0.080094
  26 H :    0.027427
  27 H :    0.034275
  28 C :   -0.001405
  29 H :    0.029079
  30 H :    0.031167
  31 H :    0.026071
  32 H :    0.075385
  33 H :    0.056707
Sum of atomic charges:   -0.0000000

LOEWDIN ATOMIC CHARGES
----------------------
   0 S :    0.445324
   1 C :   -0.223205
   2 C :   -0.070342
   3 C :   -0.046393
   4 C :   -0.204980
   5 H :    0.024281
   6 C :   -0.029441
   7 H :    0.023311
   8 H :    0.031937
   9 C :   -0.025221
  10 H :    0.016166
  11 H :    0.026330
  12 C :   -0.072770
  13 H :    0.014822
  14 H :    0.033029
  15 H :    0.026432
  16 S :    0.409371
  17 C :   -0.194178
  18 C :   -0.073394
  19 C :   -0.060745
  20 C :   -0.191577
  21 H :    0.024519
  22 C :   -0.039223
  23 H :    0.030013
  24 H :    0.034030
  25 C :   -0.037822
  26 H :    0.024236
  27 H :    0.018663
  28 C :   -0.051886
  29 H :    0.021011
  30 H :    0.030701
  31 H :    0.019781
  32 H :    0.039357
  33 H :    0.027862

  Mayer bond orders larger than 0.100000
B(  0-S ,  1-C ) :   1.1755 B(  0-S ,  4-C ) :   1.1591 B(  1-C ,  2-C ) :   1.5676
B(  1-C , 32-H ) :   0.9550 B(  2-C ,  3-C ) :   1.2560 B(  2-C ,  6-C ) :   1.0597
B(  3-C ,  4-C ) :   1.5361 B(  3-C ,  5-H ) :   1.0019 B(  4-C , 20-C ) :   1.0618
B(  6-C ,  7-H ) :   0.9196 B(  6-C ,  8-H ) :   0.9306 B(  6-C ,  9-C ) :   1.0711
B(  9-C , 10-H ) :   0.9556 B(  9-C , 11-H ) :   0.9577 B(  9-C , 12-C ) :   1.0693
B( 12-C , 13-H ) :   0.9754 B( 12-C , 14-H ) :   0.9754 B( 12-C , 15-H ) :   0.9745
B( 16-S , 17-C ) :   1.1630 B( 16-S , 20-C ) :   1.1275 B( 17-C , 18-C ) :   1.6142
B( 17-C , 33-H ) :   0.9696 B( 18-C , 19-C ) :   1.2326 B( 18-C , 21-H ) :   0.9900
B( 19-C , 20-C ) :   1.6068 B( 19-C , 22-C ) :   1.0393 B( 22-C , 23-H ) :   0.9415
B( 22-C , 24-H ) :   0.9378 B( 22-C , 25-C ) :   1.0534 B( 25-C , 26-H ) :   0.9554
B( 25-C , 27-H ) :   0.9558 B( 25-C , 28-C ) :   1.0627 B( 28-C , 29-H ) :   0.9744
B( 28-C , 30-H ) :   0.9740 B( 28-C , 31-H ) :   0.9764

Dispersion correction           -0.014309148
FINAL SINGLE POINT ENERGY     -1339.871956281479

DIPOLE MOMENT
-------------
                                X             Y             Z
Electronic contribution:    -16.11426       8.87720      22.07872
Nuclear contribution   :     16.42712      -8.94201     -22.54525
                        -----------------------------------------
Total Dipole Moment    :      0.31286      -0.06481      -0.46653
                        -----------------------------------------
Magnitude (a.u.)       :      0.56545
Magnitude (Debye)      :      1.43726

Rotational constants in cm-1:     0.018253     0.009315     0.006527
Rotational constants in MHz :   547.206354   279.246002   195.682588

                             ****ORCA TERMINATED NORMALLY****
TOTAL RUN TIME: 0 days 0 hours 0 minutes 21 seconds 749 msec
