                         Program Version 4.2.1 -  RELEASE  -
|  1> ! wB97X-D3 SP def2-SVP
|  2> %pal
|  3> nprocs 24
|  4> end
|  5>
|  6> * xyz 0 1
|  7> S 	 -100.588 	 3.85998 	 -123.04
|  8> C 	 -101.975 	 2.97686 	 -123.707
|  9> C 	 -102.102 	 1.79681 	 -122.967
| 10> C 	 -101.211 	 1.77394 	 -121.847
| 11> C 	 -100.366 	 2.80699 	 -121.719
| 12> H 	 -101.254 	 1.10445 	 -120.965
| 13> C 	 -103.245 	 0.781267 	 -123.097
| 14> H 	 -103.875 	 1.36969 	 -123.769
| 15> H 	 -103.726 	 0.843589 	 -122.133
| 16> C 	 -102.891 	 -0.639074 	 -123.527
| 17> H 	 -102.379 	 -0.550024 	 -124.547
| 18> H 	 -102.003 	 -1.00456 	 -123.049
| 19> C 	 -104.054 	 -1.67211 	 -123.722
| 20> H 	 -104.334 	 -2.02929 	 -122.718
| 21> H 	 -104.872 	 -1.19829 	 -124.175
| 22> H 	 -103.669 	 -2.51809 	 -124.246
| 23> S 	 -99.4151 	 4.67052 	 -119.986
| 24> C 	 -98.1987 	 4.20538 	 -118.742
| 25> C 	 -97.7456 	 2.93242 	 -119.043
| 26> C 	 -98.492 	 2.23041 	 -120.033
| 27> C 	 -99.4522 	 3.0654 	 -120.639
| 28> H 	 -97.0549 	 2.38076 	 -118.366
| 29> C 	 -98.1484 	 0.840182 	 -120.514
| 30> H 	 -98.737 	 0.502661 	 -121.396
| 31> H 	 -98.4251 	 0.183825 	 -119.765
| 32> C 	 -96.6145 	 0.546069 	 -120.807
| 33> H 	 -96.0116 	 0.864638 	 -119.909
| 34> H 	 -96.3643 	 1.21716 	 -121.684
| 35> C 	 -96.2124 	 -0.96767 	 -120.975
| 36> H 	 -96.029 	 -1.42727 	 -120.004
| 37> H 	 -95.2621 	 -0.94379 	 -121.465
| 38> H 	 -97.0684 	 -1.49245 	 -121.529
| 39> H 	 -102.42 	 3.23625 	 -124.673
| 40> H 	 -97.873 	 4.83977 	 -117.943
| 41> *
| 42>
| 43>                          ****END OF INPUT****

CARTESIAN COORDINATES (ANGSTROEM)
---------------------------------
  S    -100.588000    3.859980  -123.040000
  C    -101.975000    2.976860  -123.707000
  C    -102.102000    1.796810  -122.967000
  C    -101.211000    1.773940  -121.847000
  C    -100.366000    2.806990  -121.719000
  H    -101.254000    1.104450  -120.965000
  C    -103.245000    0.781267  -123.097000
  H    -103.875000    1.369690  -123.769000
  H    -103.726000    0.843589  -122.133000
  C    -102.891000   -0.639074  -123.527000
  H    -102.379000   -0.550024  -124.547000
  H    -102.003000   -1.004560  -123.049000
  C    -104.054000   -1.672110  -123.722000
  H    -104.334000   -2.029290  -122.718000
  H    -104.872000   -1.198290  -124.175000
  H    -103.669000   -2.518090  -124.246000
  S    -99.415100    4.670520  -119.986000
  C    -98.198700    4.205380  -118.742000
  C    -97.745600    2.932420  -119.043000
  C    -98.492000    2.230410  -120.033000
  C    -99.452200    3.065400  -120.639000
  H    -97.054900    2.380760  -118.366000
  C    -98.148400    0.840182  -120.514000
  H    -98.737000    0.502661  -121.396000
  H    -98.425100    0.183825  -119.765000
  C    -96.614500    0.546069  -120.807000
  H    -96.011600    0.864638  -119.909000
  H    -96.364300    1.217160  -121.684000
  C    -96.212400   -0.967670  -120.975000
  H    -96.029000   -1.427270  -120.004000
  H    -95.262100   -0.943790  -121.465000
  H    -97.068400   -1.492450  -121.529000
  H    -102.420000    3.236250  -124.673000
  H    -97.873000    4.839770  -117.943000

 Total Charge           Charge          ....    0
 Multiplicity           Mult            ....    1
 Number of Electrons    NEL             ....  134
 Basis Dimension        Dim             ....  322

ORBITAL ENERGIES
----------------

  NO   OCC          E(Eh)            E(eV)
   0   2.0000     -88.967069     -2420.9170
   1   2.0000     -88.961368     -2420.7619
   2   2.0000     -10.328443      -281.0512
   3   2.0000     -10.324180      -280.9352
   4   2.0000     -10.321250      -280.8555
   5   2.0000     -10.319637      -280.8116
   6   2.0000     -10.307019      -280.4682
   7   2.0000     -10.305753      -280.4338
   8   2.0000     -10.300518      -280.2914
   9   2.0000     -10.298275      -280.2303
  10   2.0000     -10.292813      -280.0817
  11   2.0000     -10.291663      -280.0504
  12   2.0000     -10.289761      -279.9986
  13   2.0000     -10.287654      -279.9413
  14   2.0000     -10.287357      -279.9332
  15   2.0000     -10.279025      -279.7065
  16   2.0000      -8.081311      -219.9037
  17   2.0000      -8.076837      -219.7819
  18   2.0000      -6.039813      -164.3517
  19   2.0000      -6.035884      -164.2447
  20   2.0000      -6.035350      -164.2302
  21   2.0000      -6.032082      -164.1413
  22   2.0000      -6.031113      -164.1149
  23   2.0000      -6.027649      -164.0207
  24   2.0000      -1.012360       -27.5477
  25   2.0000      -0.984055       -26.7775
  26   2.0000      -0.909159       -24.7395
  27   2.0000      -0.899646       -24.4806
  28   2.0000      -0.872260       -23.7354
  29   2.0000      -0.848933       -23.1006
  30   2.0000      -0.843272       -22.9466
  31   2.0000      -0.818636       -22.2762
  32   2.0000      -0.783577       -21.3222
  33   2.0000      -0.772581       -21.0230
  34   2.0000      -0.710134       -19.3237
  35   2.0000      -0.700746       -19.0683
  36   2.0000      -0.693668       -18.8757
  37   2.0000      -0.656604       -17.8671
  38   2.0000      -0.644970       -17.5505
  39   2.0000      -0.616272       -16.7696
  40   2.0000      -0.599178       -16.3045
  41   2.0000      -0.564947       -15.3730
  42   2.0000      -0.557992       -15.1837
  43   2.0000      -0.550975       -14.9928
  44   2.0000      -0.536774       -14.6064
  45   2.0000      -0.528264       -14.3748
  46   2.0000      -0.517998       -14.0954
  47   2.0000      -0.511868       -13.9286
  48   2.0000      -0.510445       -13.8899
  49   2.0000      -0.499595       -13.5947
  50   2.0000      -0.490366       -13.3435
  51   2.0000      -0.483446       -13.1552
  52   2.0000      -0.473963       -12.8972
  53   2.0000      -0.467841       -12.7306
  54   2.0000      -0.458762       -12.4835
  55   2.0000      -0.456098       -12.4111
  56   2.0000      -0.444014       -12.0822
  57   2.0000      -0.438236       -11.9250
  58   2.0000      -0.427568       -11.6347
  59   2.0000      -0.421301       -11.4642
  60   2.0000      -0.413979       -11.2649
  61   2.0000      -0.411088       -11.1863
  62   2.0000      -0.401843       -10.9347
  63   2.0000      -0.354315        -9.6414
  64   2.0000      -0.331036        -9.0079
  65   2.0000      -0.327699        -8.9171
  66   2.0000      -0.292328        -7.9546
  67   0.0000       0.027849         0.7578
  68   0.0000       0.071289         1.9399
  69   0.0000       0.111275         3.0280
  70   0.0000       0.120648         3.2830
  71   0.0000       0.133369         3.6291

MULLIKEN ATOMIC CHARGES
-----------------------
   0 S :    0.094252
   1 C :   -0.139629
   2 C :   -0.109253
   3 C :   -0.002078
   4 C :   -0.130111
   5 H :    0.024397
   6 C :    0.090146
   7 H :    0.011613
   8 H :    0.031290
   9 C :   -0.098568
  10 H :    0.019292
  11 H :    0.017604
  12 C :    0.005920
  13 H :    0.030060
  14 H :    0.029896
  15 H :    0.034628
  16 S :    0.103161
  17 C :   -0.096412
  18 C :   -0.035032
  19 C :   -0.031234
  20 C :   -0.158525
  21 H :    0.037622
  22 C :    0.085845
  23 H :    0.037167
  24 H :    0.004233
  25 C :   -0.151251
  26 H :    0.033844
  27 H :    0.055382
  28 C :   -0.050789
  29 H :    0.037558
  30 H :    0.041796
  31 H :    0.050408
  32 H :    0.066429
  33 H :    0.060342
Sum of atomic charges:   -0.0000000

LOEWDIN ATOMIC CHARGES
----------------------
   0 S :    0.407835
   1 C :   -0.198037
   2 C :   -0.058758
   3 C :   -0.081976
   4 C :   -0.207186
   5 H :    0.036053
   6 C :   -0.032534
   7 H :    0.030331
   8 H :    0.030998
   9 C :   -0.052558
  10 H :    0.030974
  11 H :    0.020419
  12 C :   -0.050668
  13 H :    0.026950
  14 H :    0.020564
  15 H :    0.026921
  16 S :    0.398482
  17 C :   -0.166748
  18 C :   -0.071206
  19 C :   -0.056508
  20 C :   -0.199074
  21 H :    0.036777
  22 C :   -0.036948
  23 H :    0.034913
  24 H :    0.018624
  25 C :   -0.045748
  26 H :    0.024139
  27 H :    0.030802
  28 C :   -0.068456
  29 H :    0.025820
  30 H :    0.028179
  31 H :    0.034405
  32 H :    0.034143
  33 H :    0.029074

  Mayer bond orders larger than 0.100000
B(  0-S ,  1-C ) :   1.1309 B(  0-S ,  4-C ) :   1.1547 B(  1-C ,  2-C ) :   1.5989
B(  1-C , 32-H ) :   0.9681 B(  2-C ,  3-C ) :   1.2297 B(  2-C ,  6-C ) :   1.0130
B(  3-C ,  4-C ) :   1.5981 B(  3-C ,  5-H ) :   0.9885 B(  4-C , 20-C ) :   1.0425
B(  6-C ,  7-H ) :   0.9413 B(  6-C ,  8-H ) :   0.9431 B(  6-C ,  9-C ) :   1.0481
B(  9-C , 10-H ) :   0.9496 B(  9-C , 11-H ) :   0.9589 B(  9-C , 12-C ) :   1.0732
B( 12-C , 13-H ) :   0.9767 B( 12-C , 14-H ) :   0.9764 B( 12-C , 15-H ) :   0.9756
B( 16-S , 17-C ) :   1.1408 B( 16-S , 20-C ) :   1.1509 B( 17-C , 18-C ) :   1.5979
B( 17-C , 20-C ) :   0.1067 B( 17-C , 33-H ) :   0.9752 B( 18-C , 19-C ) :   1.2622
B( 18-C , 21-H ) :   0.9717 B( 19-C , 20-C ) :   1.5623 B( 19-C , 22-C ) :   1.0500
B( 22-C , 23-H ) :   0.9331 B( 22-C , 24-H ) :   0.9189 B( 22-C , 25-C ) :   1.0572
B( 25-C , 26-H ) :   0.9543 B( 25-C , 27-H ) :   0.9641 B( 25-C , 28-C ) :   1.0646
B( 28-C , 29-H ) :   0.9765 B( 28-C , 30-H ) :   0.9738 B( 28-C , 31-H ) :   0.9773

Dispersion correction           -0.013389221
FINAL SINGLE POINT ENERGY     -1339.863484891654

DIPOLE MOMENT
-------------
                                X             Y             Z
Electronic contribution:      0.64966      29.93979       4.48349
Nuclear contribution   :     -0.60342     -30.63483      -4.31422
                        -----------------------------------------
Total Dipole Moment    :      0.04624      -0.69504       0.16926
                        -----------------------------------------
Magnitude (a.u.)       :      0.71685
Magnitude (Debye)      :      1.82209

Rotational constants in cm-1:     0.016532     0.008353     0.006195
Rotational constants in MHz :   495.609150   250.424072   185.730572

                             ****ORCA TERMINATED NORMALLY****
TOTAL RUN TIME: 0 days 0 hours 0 minutes 19 seconds 628 msec
