                         Program Version 4.2.1 -  RELEASE  -
|  1> ! wB97X-D3 SP def2-SVP
|  2> %pal
|  3> nprocs 24
|  4> end
|  5>
|  6> * xyz 0 1
|  7> S 	 -95.8061 	 -28.1339 	 -63.4854
|  8> C 	 -95.6509 	 -26.4698 	 -63.8907
|  9> C 	 -96.6269 	 -25.6897 	 -63.2107
| 10> C 	 -97.4026 	 -26.4996 	 -62.3753
| 11> C 	 -97.1413 	 -27.8519 	 -62.3596
| 12> H 	 -98.1023 	 -26.0785 	 -61.692
| 13> C 	 -96.8579 	 -24.1611 	 -63.3864
| 14> H 	 -97.8464 	 -23.9611 	 -62.8414
| 15> H 	 -96.9262 	 -24.0189 	 -64.4361
| 16> C 	 -95.673 	 -23.3496 	 -62.8493
| 17> H 	 -95.6253 	 -23.6808 	 -61.778
| 18> H 	 -94.7668 	 -23.5637 	 -63.3878
| 19> C 	 -95.9897 	 -21.8263 	 -62.9148
| 20> H 	 -95.2461 	 -21.2459 	 -62.4162
| 21> H 	 -96.128 	 -21.4758 	 -63.9353
| 22> H 	 -96.9909 	 -21.5912 	 -62.4336
| 23> S 	 -96.5156 	 -29.8031 	 -60.4517
| 24> C 	 -97.8272 	 -30.44 	 -59.4687
| 25> C 	 -99.0352 	 -30.1851 	 -60.0894
| 26> C 	 -98.9335 	 -29.1701 	 -61.1214
| 27> C 	 -97.6772 	 -28.8724 	 -61.4602
| 28> H 	 -99.9131 	 -30.4889 	 -59.5759
| 29> C 	 -100.169 	 -28.6144 	 -61.7752
| 30> H 	 -100.694 	 -29.571 	 -62.1304
| 31> H 	 -99.8944 	 -28.0501 	 -62.6741
| 32> C 	 -101.077 	 -27.7825 	 -60.8771
| 33> H 	 -100.461 	 -27.3655 	 -60.0746
| 34> H 	 -101.873 	 -28.3711 	 -60.3829
| 35> C 	 -102.013 	 -26.7764 	 -61.6795
| 36> H 	 -102.796 	 -27.1988 	 -62.219
| 37> H 	 -101.559 	 -26.087 	 -62.3371
| 38> H 	 -102.468 	 -26.0964 	 -60.967
| 39> H 	 -94.8712 	 -25.9924 	 -64.5572
| 40> H 	 -97.8814 	 -31.0822 	 -58.6366
| 41> *
| 42>
| 43>                          ****END OF INPUT****

CARTESIAN COORDINATES (ANGSTROEM)
---------------------------------
  S    -95.806100  -28.133900  -63.485400
  C    -95.650900  -26.469800  -63.890700
  C    -96.626900  -25.689700  -63.210700
  C    -97.402600  -26.499600  -62.375300
  C    -97.141300  -27.851900  -62.359600
  H    -98.102300  -26.078500  -61.692000
  C    -96.857900  -24.161100  -63.386400
  H    -97.846400  -23.961100  -62.841400
  H    -96.926200  -24.018900  -64.436100
  C    -95.673000  -23.349600  -62.849300
  H    -95.625300  -23.680800  -61.778000
  H    -94.766800  -23.563700  -63.387800
  C    -95.989700  -21.826300  -62.914800
  H    -95.246100  -21.245900  -62.416200
  H    -96.128000  -21.475800  -63.935300
  H    -96.990900  -21.591200  -62.433600
  S    -96.515600  -29.803100  -60.451700
  C    -97.827200  -30.440000  -59.468700
  C    -99.035200  -30.185100  -60.089400
  C    -98.933500  -29.170100  -61.121400
  C    -97.677200  -28.872400  -61.460200
  H    -99.913100  -30.488900  -59.575900
  C    -100.169000  -28.614400  -61.775200
  H    -100.694000  -29.571000  -62.130400
  H    -99.894400  -28.050100  -62.674100
  C    -101.077000  -27.782500  -60.877100
  H    -100.461000  -27.365500  -60.074600
  H    -101.873000  -28.371100  -60.382900
  C    -102.013000  -26.776400  -61.679500
  H    -102.796000  -27.198800  -62.219000
  H    -101.559000  -26.087000  -62.337100
  H    -102.468000  -26.096400  -60.967000
  H    -94.871200  -25.992400  -64.557200
  H    -97.881400  -31.082200  -58.636600

 Total Charge           Charge          ....    0
 Multiplicity           Mult            ....    1
 Number of Electrons    NEL             ....  134
 Basis Dimension        Dim             ....  322

ORBITAL ENERGIES
----------------

  NO   OCC          E(Eh)            E(eV)
   0   2.0000     -88.968997     -2420.9695
   1   2.0000     -88.963531     -2420.8208
   2   2.0000     -10.329757      -281.0870
   3   2.0000     -10.325508      -280.9714
   4   2.0000     -10.319665      -280.8124
   5   2.0000     -10.316980      -280.7393
   6   2.0000     -10.300339      -280.2865
   7   2.0000     -10.299615      -280.2668
   8   2.0000     -10.298288      -280.2307
   9   2.0000     -10.294286      -280.1218
  10   2.0000     -10.293213      -280.0926
  11   2.0000     -10.291858      -280.0557
  12   2.0000     -10.290783      -280.0264
  13   2.0000     -10.288794      -279.9723
  14   2.0000     -10.281774      -279.7813
  15   2.0000     -10.273272      -279.5500
  16   2.0000      -8.083426      -219.9612
  17   2.0000      -8.077518      -219.8004
  18   2.0000      -6.041827      -164.4065
  19   2.0000      -6.037804      -164.2970
  20   2.0000      -6.036297      -164.2560
  21   2.0000      -6.034486      -164.2067
  22   2.0000      -6.032250      -164.1459
  23   2.0000      -6.027872      -164.0267
  24   2.0000      -1.005898       -27.3719
  25   2.0000      -0.984312       -26.7845
  26   2.0000      -0.908965       -24.7342
  27   2.0000      -0.905314       -24.6349
  28   2.0000      -0.869323       -23.6555
  29   2.0000      -0.850598       -23.1459
  30   2.0000      -0.844895       -22.9908
  31   2.0000      -0.814810       -22.1721
  32   2.0000      -0.783187       -21.3116
  33   2.0000      -0.771640       -20.9974
  34   2.0000      -0.707352       -19.2480
  35   2.0000      -0.700874       -19.0718
  36   2.0000      -0.697743       -18.9865
  37   2.0000      -0.662271       -18.0213
  38   2.0000      -0.638135       -17.3645
  39   2.0000      -0.622317       -16.9341
  40   2.0000      -0.590226       -16.0609
  41   2.0000      -0.570836       -15.5332
  42   2.0000      -0.565363       -15.3843
  43   2.0000      -0.560972       -15.2648
  44   2.0000      -0.530419       -14.4334
  45   2.0000      -0.522892       -14.2286
  46   2.0000      -0.515853       -14.0371
  47   2.0000      -0.509985       -13.8774
  48   2.0000      -0.506764       -13.7898
  49   2.0000      -0.495312       -13.4781
  50   2.0000      -0.489967       -13.3327
  51   2.0000      -0.479758       -13.0549
  52   2.0000      -0.471726       -12.8363
  53   2.0000      -0.464509       -12.6399
  54   2.0000      -0.461728       -12.5643
  55   2.0000      -0.445952       -12.1350
  56   2.0000      -0.441696       -12.0192
  57   2.0000      -0.440386       -11.9835
  58   2.0000      -0.436643       -11.8816
  59   2.0000      -0.426559       -11.6072
  60   2.0000      -0.417580       -11.3629
  61   2.0000      -0.415905       -11.3174
  62   2.0000      -0.410260       -11.1638
  63   2.0000      -0.350490        -9.5373
  64   2.0000      -0.331347        -9.0164
  65   2.0000      -0.327685        -8.9167
  66   2.0000      -0.292446        -7.9579
  67   0.0000       0.032379         0.8811
  68   0.0000       0.062610         1.7037
  69   0.0000       0.113869         3.0985
  70   0.0000       0.120064         3.2671
  71   0.0000       0.129949         3.5361

MULLIKEN ATOMIC CHARGES
-----------------------
   0 S :    0.122474
   1 C :   -0.144506
   2 C :   -0.114740
   3 C :    0.042717
   4 C :   -0.168053
   5 H :   -0.006141
   6 C :    0.059711
   7 H :    0.038362
   8 H :    0.028098
   9 C :   -0.089402
  10 H :    0.043464
  11 H :    0.034876
  12 C :   -0.040409
  13 H :    0.037432
  14 H :    0.027034
  15 H :    0.027923
  16 S :    0.098302
  17 C :   -0.066267
  18 C :   -0.021073
  19 C :   -0.070819
  20 C :   -0.120243
  21 H :    0.012331
  22 C :    0.053469
  23 H :    0.046309
  24 H :    0.033435
  25 C :   -0.084000
  26 H :    0.042683
  27 H :    0.034284
  28 C :   -0.030765
  29 H :    0.025012
  30 H :    0.015424
  31 H :    0.021942
  32 H :    0.071234
  33 H :    0.039900
Sum of atomic charges:    0.0000000

LOEWDIN ATOMIC CHARGES
----------------------
   0 S :    0.421509
   1 C :   -0.221996
   2 C :   -0.068137
   3 C :   -0.064723
   4 C :   -0.194183
   5 H :    0.025064
   6 C :   -0.027476
   7 H :    0.038407
   8 H :    0.024852
   9 C :   -0.039002
  10 H :    0.032989
  11 H :    0.021801
  12 C :   -0.068728
  13 H :    0.021540
  14 H :    0.022956
  15 H :    0.030384
  16 S :    0.374260
  17 C :   -0.167309
  18 C :   -0.068006
  19 C :   -0.057769
  20 C :   -0.183666
  21 H :    0.024602
  22 C :   -0.038813
  23 H :    0.044766
  24 H :    0.030384
  25 C :   -0.041331
  26 H :    0.026007
  27 H :    0.030335
  28 C :   -0.060899
  29 H :    0.018859
  30 H :    0.015974
  31 H :    0.029022
  32 H :    0.041955
  33 H :    0.026374

  Mayer bond orders larger than 0.100000
B(  0-S ,  1-C ) :   1.1720 B(  0-S ,  4-C ) :   1.1556 B(  1-C ,  2-C ) :   1.5517
B(  1-C ,  4-C ) :   0.1102 B(  1-C , 32-H ) :   0.9603 B(  2-C ,  3-C ) :   1.3174
B(  2-C ,  6-C ) :   1.0014 B(  3-C ,  4-C ) :   1.5346 B(  3-C ,  5-H ) :   0.9943
B(  4-C , 20-C ) :   1.0339 B(  6-C ,  7-H ) :   0.9487 B(  6-C ,  8-H ) :   0.9373
B(  6-C ,  9-C ) :   1.0627 B(  9-C , 10-H ) :   0.9583 B(  9-C , 11-H ) :   0.9565
B(  9-C , 12-C ) :   1.0804 B( 12-C , 13-H ) :   0.9765 B( 12-C , 14-H ) :   0.9740
B( 12-C , 15-H ) :   0.9738 B( 16-S , 17-C ) :   1.1383 B( 16-S , 20-C ) :   1.0875
B( 17-C , 18-C ) :   1.6708 B( 17-C , 33-H ) :   0.9672 B( 18-C , 19-C ) :   1.1829
B( 18-C , 21-H ) :   0.9846 B( 19-C , 20-C ) :   1.6772 B( 19-C , 22-C ) :   1.0556
B( 22-C , 23-H ) :   0.9298 B( 22-C , 24-H ) :   0.9430 B( 22-C , 25-C ) :   1.0402
B( 25-C , 26-H ) :   0.9678 B( 25-C , 27-H ) :   0.9510 B( 25-C , 28-C ) :   1.0722
B( 28-C , 29-H ) :   0.9786 B( 28-C , 30-H ) :   0.9777 B( 28-C , 31-H ) :   0.9741

Dispersion correction           -0.013858673
FINAL SINGLE POINT ENERGY     -1339.865070849803

DIPOLE MOMENT
-------------
                                X             Y             Z
Electronic contribution:     16.17321     -25.28888       1.10847
Nuclear contribution   :    -16.71349      25.82438      -0.98823
                        -----------------------------------------
Total Dipole Moment    :     -0.54028       0.53549       0.12024
                        -----------------------------------------
Magnitude (a.u.)       :      0.77014
Magnitude (Debye)      :      1.95753

Rotational constants in cm-1:     0.017458     0.008278     0.006372
Rotational constants in MHz :   523.378495   248.179911   191.024027

                             ****ORCA TERMINATED NORMALLY****
TOTAL RUN TIME: 0 days 0 hours 0 minutes 20 seconds 85 msec
