                         Program Version 4.2.1 -  RELEASE  -
|  1> ! wB97X-D3 SP def2-SVP
|  2> %pal
|  3> nprocs 24
|  4> end
|  5>
|  6> * xyz 0 1
|  7> S 	 -64.3133 	 13.399 	 -74.3577
|  8> C 	 -65.0481 	 12.3212 	 -73.1439
|  9> C 	 -65.0986 	 12.9303 	 -71.8548
| 10> C 	 -64.2786 	 14.1147 	 -71.8916
| 11> C 	 -63.6965 	 14.4541 	 -73.1374
| 12> H 	 -63.9476 	 14.6208 	 -70.9578
| 13> C 	 -65.8014 	 12.5426 	 -70.5551
| 14> H 	 -65.2123 	 12.7532 	 -69.7103
| 15> H 	 -65.8127 	 11.4612 	 -70.5113
| 16> C 	 -67.2617 	 13.0567 	 -70.2854
| 17> H 	 -67.4112 	 12.8176 	 -69.2427
| 18> H 	 -67.4498 	 14.101 	 -70.479
| 19> C 	 -68.3373 	 12.2637 	 -71.007
| 20> H 	 -69.2682 	 12.3641 	 -70.5396
| 21> H 	 -68.3537 	 12.6976 	 -71.9748
| 22> H 	 -68.0307 	 11.2756 	 -70.994
| 23> S 	 -61.4127 	 15.2754 	 -74.4535
| 24> C 	 -61.0766 	 16.9245 	 -74.5993
| 25> C 	 -61.9405 	 17.7833 	 -73.9366
| 26> C 	 -62.9317 	 17.0335 	 -73.2271
| 27> C 	 -62.9187 	 15.6489 	 -73.5441
| 28> H 	 -61.8728 	 18.852 	 -74.1015
| 29> C 	 -64.0915 	 17.8031 	 -72.4345
| 30> H 	 -63.6173 	 18.3334 	 -71.5638
| 31> H 	 -64.6589 	 17.0445 	 -71.8843
| 32> C 	 -65.175 	 18.582 	 -73.2285
| 33> H 	 -65.5549 	 17.831 	 -73.8649
| 34> H 	 -64.5741 	 19.3215 	 -73.7916
| 35> C 	 -66.2601 	 19.1935 	 -72.3563
| 36> H 	 -66.9453 	 19.7728 	 -72.9737
| 37> H 	 -65.895 	 19.9866 	 -71.5666
| 38> H 	 -66.7823 	 18.3125 	 -71.9946
| 39> H 	 -65.8313 	 11.5352 	 -73.3871
| 40> H 	 -60.3424 	 17.2203 	 -75.33
| 41> *
| 42>
| 43>                          ****END OF INPUT****

CARTESIAN COORDINATES (ANGSTROEM)
---------------------------------
  S    -64.313300   13.399000  -74.357700
  C    -65.048100   12.321200  -73.143900
  C    -65.098600   12.930300  -71.854800
  C    -64.278600   14.114700  -71.891600
  C    -63.696500   14.454100  -73.137400
  H    -63.947600   14.620800  -70.957800
  C    -65.801400   12.542600  -70.555100
  H    -65.212300   12.753200  -69.710300
  H    -65.812700   11.461200  -70.511300
  C    -67.261700   13.056700  -70.285400
  H    -67.411200   12.817600  -69.242700
  H    -67.449800   14.101000  -70.479000
  C    -68.337300   12.263700  -71.007000
  H    -69.268200   12.364100  -70.539600
  H    -68.353700   12.697600  -71.974800
  H    -68.030700   11.275600  -70.994000
  S    -61.412700   15.275400  -74.453500
  C    -61.076600   16.924500  -74.599300
  C    -61.940500   17.783300  -73.936600
  C    -62.931700   17.033500  -73.227100
  C    -62.918700   15.648900  -73.544100
  H    -61.872800   18.852000  -74.101500
  C    -64.091500   17.803100  -72.434500
  H    -63.617300   18.333400  -71.563800
  H    -64.658900   17.044500  -71.884300
  C    -65.175000   18.582000  -73.228500
  H    -65.554900   17.831000  -73.864900
  H    -64.574100   19.321500  -73.791600
  C    -66.260100   19.193500  -72.356300
  H    -66.945300   19.772800  -72.973700
  H    -65.895000   19.986600  -71.566600
  H    -66.782300   18.312500  -71.994600
  H    -65.831300   11.535200  -73.387100
  H    -60.342400   17.220300  -75.330000

 Total Charge           Charge          ....    0
 Multiplicity           Mult            ....    1
 Number of Electrons    NEL             ....  134
 Basis Dimension        Dim             ....  322

ORBITAL ENERGIES
----------------

  NO   OCC          E(Eh)            E(eV)
   0   2.0000     -88.970753     -2421.0173
   1   2.0000     -88.965157     -2420.8650
   2   2.0000     -10.336168      -281.2614
   3   2.0000     -10.334604      -281.2189
   4   2.0000     -10.324311      -280.9388
   5   2.0000     -10.317083      -280.7421
   6   2.0000     -10.313366      -280.6410
   7   2.0000     -10.310610      -280.5659
   8   2.0000     -10.298265      -280.2300
   9   2.0000     -10.296540      -280.1831
  10   2.0000     -10.296154      -280.1726
  11   2.0000     -10.295298      -280.1493
  12   2.0000     -10.289128      -279.9814
  13   2.0000     -10.286222      -279.9023
  14   2.0000     -10.286179      -279.9012
  15   2.0000     -10.262837      -279.2660
  16   2.0000      -8.084962      -220.0030
  17   2.0000      -8.080617      -219.8848
  18   2.0000      -6.043415      -164.4497
  19   2.0000      -6.039543      -164.3443
  20   2.0000      -6.038859      -164.3257
  21   2.0000      -6.035786      -164.2421
  22   2.0000      -6.035029      -164.2215
  23   2.0000      -6.031601      -164.1282
  24   2.0000      -1.001159       -27.2429
  25   2.0000      -0.979870       -26.6636
  26   2.0000      -0.913638       -24.8614
  27   2.0000      -0.903666       -24.5900
  28   2.0000      -0.867056       -23.5938
  29   2.0000      -0.851495       -23.1704
  30   2.0000      -0.844794       -22.9880
  31   2.0000      -0.805176       -21.9099
  32   2.0000      -0.787752       -21.4358
  33   2.0000      -0.772246       -21.0139
  34   2.0000      -0.704308       -19.1652
  35   2.0000      -0.696136       -18.9428
  36   2.0000      -0.687253       -18.7011
  37   2.0000      -0.656279       -17.8583
  38   2.0000      -0.634410       -17.2632
  39   2.0000      -0.615917       -16.7600
  40   2.0000      -0.595746       -16.2111
  41   2.0000      -0.575469       -15.6593
  42   2.0000      -0.569247       -15.4900
  43   2.0000      -0.552010       -15.0209
  44   2.0000      -0.546960       -14.8835
  45   2.0000      -0.517076       -14.0703
  46   2.0000      -0.515614       -14.0306
  47   2.0000      -0.512522       -13.9464
  48   2.0000      -0.503915       -13.7122
  49   2.0000      -0.490428       -13.3452
  50   2.0000      -0.484136       -13.1740
  51   2.0000      -0.476469       -12.9654
  52   2.0000      -0.465284       -12.6610
  53   2.0000      -0.464976       -12.6526
  54   2.0000      -0.462484       -12.5848
  55   2.0000      -0.452013       -12.2999
  56   2.0000      -0.445504       -12.1228
  57   2.0000      -0.439437       -11.9577
  58   2.0000      -0.428000       -11.6465
  59   2.0000      -0.426993       -11.6191
  60   2.0000      -0.418474       -11.3873
  61   2.0000      -0.415497       -11.3062
  62   2.0000      -0.409881       -11.1534
  63   2.0000      -0.341877        -9.3029
  64   2.0000      -0.336278        -9.1506
  65   2.0000      -0.328954        -8.9513
  66   2.0000      -0.290949        -7.9171
  67   0.0000       0.022710         0.6180
  68   0.0000       0.064609         1.7581
  69   0.0000       0.106263         2.8916
  70   0.0000       0.111391         3.0311
  71   0.0000       0.125219         3.4074

MULLIKEN ATOMIC CHARGES
-----------------------
   0 S :    0.115850
   1 C :   -0.126337
   2 C :   -0.117868
   3 C :    0.012029
   4 C :   -0.143514
   5 H :    0.030983
   6 C :    0.068908
   7 H :    0.016308
   8 H :    0.016684
   9 C :   -0.078941
  10 H :    0.022728
  11 H :    0.033152
  12 C :    0.008377
  13 H :    0.024914
  14 H :    0.028328
  15 H :    0.005917
  16 S :    0.105476
  17 C :   -0.086553
  18 C :   -0.036724
  19 C :   -0.028740
  20 C :   -0.163460
  21 H :    0.029699
  22 C :    0.017818
  23 H :    0.034937
  24 H :   -0.002668
  25 C :   -0.045847
  26 H :    0.033490
  27 H :    0.025823
  28 C :   -0.063216
  29 H :    0.036583
  30 H :    0.053615
  31 H :    0.039821
  32 H :    0.073899
  33 H :    0.058528
Sum of atomic charges:   -0.0000000

LOEWDIN ATOMIC CHARGES
----------------------
   0 S :    0.417466
   1 C :   -0.214578
   2 C :   -0.059684
   3 C :   -0.071895
   4 C :   -0.210344
   5 H :    0.034115
   6 C :   -0.028952
   7 H :    0.027188
   8 H :    0.032052
   9 C :   -0.028706
  10 H :    0.022864
  11 H :    0.022457
  12 C :   -0.049486
  13 H :    0.021014
  14 H :    0.023785
  15 H :    0.012996
  16 S :    0.416235
  17 C :   -0.194808
  18 C :   -0.076433
  19 C :   -0.046121
  20 C :   -0.194627
  21 H :    0.035667
  22 C :   -0.040137
  23 H :    0.032143
  24 H :    0.020804
  25 C :   -0.038703
  26 H :    0.025303
  27 H :    0.020496
  28 C :   -0.070682
  29 H :    0.026906
  30 H :    0.040896
  31 H :    0.028777
  32 H :    0.039844
  33 H :    0.024147

  Mayer bond orders larger than 0.100000
B(  0-S ,  1-C ) :   1.1419 B(  0-S ,  4-C ) :   1.1746 B(  1-C ,  2-C ) :   1.5894
B(  1-C ,  4-C ) :   0.1062 B(  1-C , 32-H ) :   0.9543 B(  2-C ,  3-C ) :   1.2733
B(  2-C ,  6-C ) :   1.0218 B(  3-C ,  4-C ) :   1.5503 B(  3-C ,  5-H ) :   0.9828
B(  4-C , 20-C ) :   1.0171 B(  6-C ,  7-H ) :   0.9431 B(  6-C ,  8-H ) :   0.9372
B(  6-C ,  9-C ) :   1.0682 B(  9-C , 10-H ) :   0.9550 B(  9-C , 11-H ) :   0.9632
B(  9-C , 12-C ) :   1.0794 B( 12-C , 13-H ) :   0.9736 B( 12-C , 14-H ) :   0.9790
B( 12-C , 15-H ) :   0.9744 B( 16-S , 17-C ) :   1.1893 B( 16-S , 20-C ) :   1.1418
B( 17-C , 18-C ) :   1.5912 B( 17-C , 20-C ) :   0.1035 B( 17-C , 33-H ) :   0.9634
B( 18-C , 19-C ) :   1.2379 B( 18-C , 21-H ) :   0.9935 B( 19-C , 20-C ) :   1.5866
B( 19-C , 22-C ) :   1.0327 B( 22-C , 23-H ) :   0.9406 B( 22-C , 24-H ) :   0.9395
B( 22-C , 25-C ) :   1.0432 B( 25-C , 26-H ) :   0.9552 B( 25-C , 27-H ) :   0.9579
B( 25-C , 28-C ) :   1.0811 B( 28-C , 29-H ) :   0.9722 B( 28-C , 30-H ) :   0.9727
B( 28-C , 31-H ) :   0.9736

Dispersion correction           -0.013665637
FINAL SINGLE POINT ENERGY     -1339.846121721273

DIPOLE MOMENT
-------------
                                X             Y             Z
Electronic contribution:     23.79348      -7.76333     -16.90396
Nuclear contribution   :    -24.30581       8.10559      17.30420
                        -----------------------------------------
Total Dipole Moment    :     -0.51233       0.34226       0.40024
                        -----------------------------------------
Magnitude (a.u.)       :      0.73473
Magnitude (Debye)      :      1.86752

Rotational constants in cm-1:     0.017459     0.008599     0.006352
Rotational constants in MHz :   523.408639   257.800295   190.439595

                             ****ORCA TERMINATED NORMALLY****
TOTAL RUN TIME: 0 days 0 hours 0 minutes 20 seconds 894 msec
