                         Program Version 4.2.1 -  RELEASE  -
|  1> ! wB97X-D3 SP def2-SVP
|  2> %pal
|  3> nprocs 24
|  4> end
|  5>
|  6> * xyz 0 1
|  7> S 	 -58.6957 	 -1.65348 	 -30.9741
|  8> C 	 -59.5603 	 -1.21917 	 -29.4945
|  9> C 	 -59.0917 	 0.00825427 	 -29.0021
| 10> C 	 -58.2118 	 0.634927 	 -29.9208
| 11> C 	 -57.8735 	 -0.116198 	 -31.0127
| 12> H 	 -57.7849 	 1.64003 	 -29.828
| 13> C 	 -59.7221 	 0.642314 	 -27.727
| 14> H 	 -59.0582 	 1.47237 	 -27.5635
| 15> H 	 -59.6268 	 -0.129007 	 -26.9644
| 16> C 	 -61.124 	 1.17552 	 -27.9204
| 17> H 	 -61.1111 	 1.74155 	 -28.8874
| 18> H 	 -61.8652 	 0.371853 	 -27.9278
| 19> C 	 -61.5035 	 2.1053 	 -26.7227
| 20> H 	 -60.8021 	 2.84977 	 -26.4474
| 21> H 	 -62.5686 	 2.46167 	 -26.8395
| 22> H 	 -61.5616 	 1.41223 	 -25.8279
| 23> S 	 -58.0982 	 0.782657 	 -33.5021
| 24> C 	 -56.7123 	 1.18043 	 -34.4901
| 25> C 	 -55.5367 	 1.17868 	 -33.7418
| 26> C 	 -55.7273 	 0.618848 	 -32.4203
| 27> C 	 -57.1048 	 0.301745 	 -32.1479
| 28> H 	 -54.6049 	 1.37721 	 -34.1536
| 29> C 	 -54.5365 	 0.356194 	 -31.4351
| 30> H 	 -53.8184 	 -0.0761763 	 -32.1343
| 31> H 	 -54.7691 	 -0.448806 	 -30.7766
| 32> C 	 -54.0588 	 1.61084 	 -30.6932
| 33> H 	 -53.2321 	 1.23537 	 -30.0301
| 34> H 	 -54.7627 	 1.96741 	 -29.9164
| 35> C 	 -53.6704 	 2.82146 	 -31.5107
| 36> H 	 -54.5579 	 3.20025 	 -32.0735
| 37> H 	 -53.0237 	 2.60458 	 -32.352
| 38> H 	 -53.4131 	 3.70859 	 -30.9799
| 39> H 	 -60.2522 	 -1.85737 	 -29.0021
| 40> H 	 -56.8711 	 1.34885 	 -35.5797
| 41> *
| 42>
| 43>                          ****END OF INPUT****

CARTESIAN COORDINATES (ANGSTROEM)
---------------------------------
  S    -58.695700   -1.653480  -30.974100
  C    -59.560300   -1.219170  -29.494500
  C    -59.091700    0.008254  -29.002100
  C    -58.211800    0.634927  -29.920800
  C    -57.873500   -0.116198  -31.012700
  H    -57.784900    1.640030  -29.828000
  C    -59.722100    0.642314  -27.727000
  H    -59.058200    1.472370  -27.563500
  H    -59.626800   -0.129007  -26.964400
  C    -61.124000    1.175520  -27.920400
  H    -61.111100    1.741550  -28.887400
  H    -61.865200    0.371853  -27.927800
  C    -61.503500    2.105300  -26.722700
  H    -60.802100    2.849770  -26.447400
  H    -62.568600    2.461670  -26.839500
  H    -61.561600    1.412230  -25.827900
  S    -58.098200    0.782657  -33.502100
  C    -56.712300    1.180430  -34.490100
  C    -55.536700    1.178680  -33.741800
  C    -55.727300    0.618848  -32.420300
  C    -57.104800    0.301745  -32.147900
  H    -54.604900    1.377210  -34.153600
  C    -54.536500    0.356194  -31.435100
  H    -53.818400   -0.076176  -32.134300
  H    -54.769100   -0.448806  -30.776600
  C    -54.058800    1.610840  -30.693200
  H    -53.232100    1.235370  -30.030100
  H    -54.762700    1.967410  -29.916400
  C    -53.670400    2.821460  -31.510700
  H    -54.557900    3.200250  -32.073500
  H    -53.023700    2.604580  -32.352000
  H    -53.413100    3.708590  -30.979900
  H    -60.252200   -1.857370  -29.002100
  H    -56.871100    1.348850  -35.579700

 Total Charge           Charge          ....    0
 Multiplicity           Mult            ....    1
 Number of Electrons    NEL             ....  134
 Basis Dimension        Dim             ....  322

ORBITAL ENERGIES
----------------

  NO   OCC          E(Eh)            E(eV)
   0   2.0000     -88.964218     -2420.8394
   1   2.0000     -88.960922     -2420.7497
   2   2.0000     -10.325141      -280.9614
   3   2.0000     -10.323447      -280.9153
   4   2.0000     -10.322244      -280.8825
   5   2.0000     -10.313970      -280.6574
   6   2.0000     -10.312487      -280.6170
   7   2.0000     -10.301629      -280.3216
   8   2.0000     -10.295029      -280.1420
   9   2.0000     -10.294714      -280.1334
  10   2.0000     -10.293394      -280.0975
  11   2.0000     -10.292333      -280.0686
  12   2.0000     -10.292331      -280.0686
  13   2.0000     -10.292084      -280.0619
  14   2.0000     -10.285139      -279.8728
  15   2.0000     -10.275220      -279.6030
  16   2.0000      -8.078814      -219.8357
  17   2.0000      -8.076075      -219.7612
  18   2.0000      -6.037223      -164.2812
  19   2.0000      -6.034489      -164.2068
  20   2.0000      -6.033262      -164.1734
  21   2.0000      -6.030379      -164.0950
  22   2.0000      -6.029759      -164.0781
  23   2.0000      -6.027046      -164.0043
  24   2.0000      -1.003794       -27.3146
  25   2.0000      -0.977912       -26.6103
  26   2.0000      -0.911696       -24.8085
  27   2.0000      -0.905232       -24.6326
  28   2.0000      -0.868536       -23.6341
  29   2.0000      -0.844822       -22.9888
  30   2.0000      -0.842648       -22.9296
  31   2.0000      -0.812612       -22.1123
  32   2.0000      -0.785053       -21.3624
  33   2.0000      -0.768340       -20.9076
  34   2.0000      -0.706976       -19.2378
  35   2.0000      -0.699092       -19.0233
  36   2.0000      -0.689411       -18.7598
  37   2.0000      -0.662321       -18.0227
  38   2.0000      -0.643989       -17.5238
  39   2.0000      -0.614843       -16.7307
  40   2.0000      -0.589824       -16.0499
  41   2.0000      -0.573523       -15.6064
  42   2.0000      -0.562071       -15.2947
  43   2.0000      -0.553270       -15.0553
  44   2.0000      -0.537961       -14.6387
  45   2.0000      -0.524670       -14.2770
  46   2.0000      -0.518964       -14.1217
  47   2.0000      -0.514195       -13.9919
  48   2.0000      -0.502649       -13.6778
  49   2.0000      -0.495759       -13.4903
  50   2.0000      -0.488719       -13.2987
  51   2.0000      -0.474640       -12.9156
  52   2.0000      -0.470395       -12.8001
  53   2.0000      -0.465440       -12.6653
  54   2.0000      -0.453465       -12.3394
  55   2.0000      -0.451930       -12.2976
  56   2.0000      -0.443452       -12.0669
  57   2.0000      -0.439131       -11.9494
  58   2.0000      -0.435641       -11.8544
  59   2.0000      -0.430299       -11.7090
  60   2.0000      -0.424240       -11.5441
  61   2.0000      -0.408899       -11.1267
  62   2.0000      -0.396050       -10.7771
  63   2.0000      -0.339640        -9.2421
  64   2.0000      -0.326254        -8.8778
  65   2.0000      -0.318722        -8.6729
  66   2.0000      -0.303123        -8.2484
  67   0.0000       0.034410         0.9363
  68   0.0000       0.059782         1.6267
  69   0.0000       0.117352         3.1933
  70   0.0000       0.119815         3.2603
  71   0.0000       0.128482         3.4962

MULLIKEN ATOMIC CHARGES
-----------------------
   0 S :    0.116009
   1 C :   -0.120865
   2 C :   -0.101191
   3 C :    0.043663
   4 C :   -0.175667
   5 H :    0.017612
   6 C :    0.075954
   7 H :    0.011715
   8 H :    0.035319
   9 C :   -0.066500
  10 H :    0.045796
  11 H :    0.031308
  12 C :   -0.067768
  13 H :    0.034534
  14 H :    0.047930
  15 H :    0.024263
  16 S :    0.106982
  17 C :   -0.114007
  18 C :   -0.004438
  19 C :   -0.059221
  20 C :   -0.183910
  21 H :   -0.003761
  22 C :    0.095831
  23 H :    0.028390
  24 H :    0.026012
  25 C :   -0.070536
  26 H :    0.032831
  27 H :    0.029147
  28 C :   -0.044224
  29 H :    0.031707
  30 H :    0.023736
  31 H :    0.032814
  32 H :    0.040144
  33 H :    0.080390
Sum of atomic charges:   -0.0000000

LOEWDIN ATOMIC CHARGES
----------------------
   0 S :    0.406119
   1 C :   -0.185196
   2 C :   -0.063739
   3 C :   -0.063569
   4 C :   -0.214310
   5 H :    0.035183
   6 C :   -0.028304
   7 H :    0.026193
   8 H :    0.030895
   9 C :   -0.039496
  10 H :    0.031380
  11 H :    0.024557
  12 C :   -0.071073
  13 H :    0.017078
  14 H :    0.033475
  15 H :    0.029259
  16 S :    0.416012
  17 C :   -0.187702
  18 C :   -0.070339
  19 C :   -0.045376
  20 C :   -0.213606
  21 H :    0.018807
  22 C :   -0.025477
  23 H :    0.033261
  24 H :    0.031362
  25 C :   -0.046375
  26 H :    0.028616
  27 H :    0.028527
  28 C :   -0.073908
  29 H :    0.033574
  30 H :    0.021320
  31 H :    0.026097
  32 H :    0.020095
  33 H :    0.036659

  Mayer bond orders larger than 0.100000
B(  0-S ,  1-C ) :   1.1528 B(  0-S ,  4-C ) :   1.1542 B(  1-C ,  2-C ) :   1.5760
B(  1-C ,  4-C ) :   0.1031 B(  1-C , 32-H ) :   0.9781 B(  2-C ,  3-C ) :   1.2551
B(  2-C ,  6-C ) :   1.0138 B(  3-C ,  4-C ) :   1.5835 B(  3-C ,  5-H ) :   0.9899
B(  4-C , 20-C ) :   1.0202 B(  6-C ,  7-H ) :   0.9416 B(  6-C ,  8-H ) :   0.9362
B(  6-C ,  9-C ) :   1.0713 B(  9-C , 10-H ) :   0.9569 B(  9-C , 11-H ) :   0.9525
B(  9-C , 12-C ) :   1.0752 B( 12-C , 13-H ) :   0.9790 B( 12-C , 14-H ) :   0.9743
B( 12-C , 15-H ) :   0.9731 B( 16-S , 17-C ) :   1.1761 B( 16-S , 20-C ) :   1.1643
B( 17-C , 18-C ) :   1.5652 B( 17-C , 20-C ) :   0.1110 B( 17-C , 33-H ) :   0.9651
B( 18-C , 19-C ) :   1.2602 B( 18-C , 21-H ) :   0.9987 B( 19-C , 20-C ) :   1.5710
B( 19-C , 22-C ) :   1.0147 B( 22-C , 23-H ) :   0.9407 B( 22-C , 24-H ) :   0.9379
B( 22-C , 25-C ) :   1.0707 B( 25-C , 26-H ) :   0.9528 B( 25-C , 27-H ) :   0.9517
B( 25-C , 28-C ) :   1.0864 B( 28-C , 29-H ) :   0.9604 B( 28-C , 30-H ) :   0.9740
B( 28-C , 31-H ) :   0.9702

Dispersion correction           -0.014232842
FINAL SINGLE POINT ENERGY     -1339.873673868480

DIPOLE MOMENT
-------------
                                X             Y             Z
Electronic contribution:     -4.44639     -14.13612     -18.43595
Nuclear contribution   :      4.60568      14.43757      18.78867
                        -----------------------------------------
Total Dipole Moment    :      0.15929       0.30145       0.35272
                        -----------------------------------------
Magnitude (a.u.)       :      0.49057
Magnitude (Debye)      :      1.24692

Rotational constants in cm-1:     0.020028     0.007519     0.006586
Rotational constants in MHz :   600.437246   225.415596   197.442945

                             ****ORCA TERMINATED NORMALLY****
TOTAL RUN TIME: 0 days 0 hours 0 minutes 21 seconds 192 msec
