                         Program Version 4.2.1 -  RELEASE  -
|  1> ! wB97X-D3 SP def2-SVP
|  2> %pal
|  3> nprocs 24
|  4> end
|  5>
|  6> * xyz 0 1
|  7> S 	 -95.3555 	 51.2324 	 -100.424
|  8> C 	 -94.4298 	 52.194 	 -99.2542
|  9> C 	 -95.1829 	 52.4165 	 -98.1124
| 10> C 	 -96.5093 	 51.9498 	 -98.2488
| 11> C 	 -96.7851 	 51.1843 	 -99.402
| 12> H 	 -97.3062 	 52.0555 	 -97.4532
| 13> C 	 -94.7887 	 53.2891 	 -96.9028
| 14> H 	 -95.6052 	 53.9218 	 -96.5822
| 15> H 	 -93.9695 	 53.9301 	 -97.3371
| 16> C 	 -94.2183 	 52.3924 	 -95.7178
| 17> H 	 -95.0371 	 51.859 	 -95.2666
| 18> H 	 -93.5133 	 51.7089 	 -96.2202
| 19> C 	 -93.3005 	 53.2219 	 -94.7205
| 20> H 	 -93.9415 	 54.0762 	 -94.4847
| 21> H 	 -92.9533 	 52.5444 	 -93.875
| 22> H 	 -92.4015 	 53.5352 	 -95.1922
| 23> S 	 -97.7522 	 48.7613 	 -100.307
| 24> C 	 -99.5005 	 48.6539 	 -100.36
| 25> C 	 -100.241 	 49.7753 	 -100.117
| 26> C 	 -99.3258 	 50.7966 	 -99.6502
| 27> C 	 -97.9496 	 50.4785 	 -99.7979
| 28> H 	 -101.319 	 49.7963 	 -100.109
| 29> C 	 -99.9319 	 52.0592 	 -99.027
| 30> H 	 -99.2068 	 52.333 	 -98.2206
| 31> H 	 -100.872 	 51.8683 	 -98.5727
| 32> C 	 -100.168 	 53.2272 	 -100.024
| 33> H 	 -100.782 	 52.8922 	 -100.859
| 34> H 	 -99.1767 	 53.4159 	 -100.421
| 35> C 	 -100.87 	 54.4964 	 -99.3849
| 36> H 	 -101.042 	 55.1863 	 -100.207
| 37> H 	 -100.282 	 55.1685 	 -98.773
| 38> H 	 -101.791 	 54.1646 	 -99.0577
| 39> H 	 -93.4075 	 52.5648 	 -99.2858
| 40> H 	 -100.073 	 47.7051 	 -100.575
| 41> *
| 42>
| 43>                          ****END OF INPUT****

CARTESIAN COORDINATES (ANGSTROEM)
---------------------------------
  S    -95.355500   51.232400  -100.424000
  C    -94.429800   52.194000  -99.254200
  C    -95.182900   52.416500  -98.112400
  C    -96.509300   51.949800  -98.248800
  C    -96.785100   51.184300  -99.402000
  H    -97.306200   52.055500  -97.453200
  C    -94.788700   53.289100  -96.902800
  H    -95.605200   53.921800  -96.582200
  H    -93.969500   53.930100  -97.337100
  C    -94.218300   52.392400  -95.717800
  H    -95.037100   51.859000  -95.266600
  H    -93.513300   51.708900  -96.220200
  C    -93.300500   53.221900  -94.720500
  H    -93.941500   54.076200  -94.484700
  H    -92.953300   52.544400  -93.875000
  H    -92.401500   53.535200  -95.192200
  S    -97.752200   48.761300  -100.307000
  C    -99.500500   48.653900  -100.360000
  C    -100.241000   49.775300  -100.117000
  C    -99.325800   50.796600  -99.650200
  C    -97.949600   50.478500  -99.797900
  H    -101.319000   49.796300  -100.109000
  C    -99.931900   52.059200  -99.027000
  H    -99.206800   52.333000  -98.220600
  H    -100.872000   51.868300  -98.572700
  C    -100.168000   53.227200  -100.024000
  H    -100.782000   52.892200  -100.859000
  H    -99.176700   53.415900  -100.421000
  C    -100.870000   54.496400  -99.384900
  H    -101.042000   55.186300  -100.207000
  H    -100.282000   55.168500  -98.773000
  H    -101.791000   54.164600  -99.057700
  H    -93.407500   52.564800  -99.285800
  H    -100.073000   47.705100  -100.575000

 Total Charge           Charge          ....    0
 Multiplicity           Mult            ....    1
 Number of Electrons    NEL             ....  134
 Basis Dimension        Dim             ....  322

ORBITAL ENERGIES
----------------

  NO   OCC          E(Eh)            E(eV)
   0   2.0000     -88.971682     -2421.0426
   1   2.0000     -88.967808     -2420.9371
   2   2.0000     -10.331475      -281.1337
   3   2.0000     -10.331175      -281.1256
   4   2.0000     -10.323019      -280.9036
   5   2.0000     -10.316036      -280.7136
   6   2.0000     -10.312428      -280.6154
   7   2.0000     -10.300132      -280.2808
   8   2.0000     -10.300034      -280.2782
   9   2.0000     -10.296990      -280.1954
  10   2.0000     -10.296763      -280.1892
  11   2.0000     -10.291702      -280.0515
  12   2.0000     -10.291257      -280.0393
  13   2.0000     -10.287726      -279.9433
  14   2.0000     -10.284790      -279.8634
  15   2.0000     -10.275482      -279.6101
  16   2.0000      -8.085534      -220.0186
  17   2.0000      -8.081697      -219.9142
  18   2.0000      -6.044143      -164.4695
  19   2.0000      -6.040420      -164.3682
  20   2.0000      -6.040317      -164.3654
  21   2.0000      -6.036231      -164.2542
  22   2.0000      -6.035976      -164.2473
  23   2.0000      -6.032474      -164.1520
  24   2.0000      -1.002111       -27.2688
  25   2.0000      -0.978687       -26.6314
  26   2.0000      -0.903344       -24.5812
  27   2.0000      -0.901464       -24.5301
  28   2.0000      -0.869226       -23.6528
  29   2.0000      -0.849013       -23.1028
  30   2.0000      -0.841013       -22.8851
  31   2.0000      -0.810145       -22.0452
  32   2.0000      -0.782791       -21.3008
  33   2.0000      -0.768348       -20.9078
  34   2.0000      -0.711219       -19.3533
  35   2.0000      -0.696075       -18.9412
  36   2.0000      -0.691712       -18.8224
  37   2.0000      -0.661882       -18.0107
  38   2.0000      -0.632515       -17.2116
  39   2.0000      -0.614659       -16.7257
  40   2.0000      -0.590880       -16.0787
  41   2.0000      -0.573186       -15.5972
  42   2.0000      -0.569028       -15.4840
  43   2.0000      -0.554869       -15.0988
  44   2.0000      -0.525147       -14.2900
  45   2.0000      -0.520411       -14.1611
  46   2.0000      -0.512428       -13.9439
  47   2.0000      -0.502611       -13.6767
  48   2.0000      -0.501956       -13.6589
  49   2.0000      -0.500109       -13.6087
  50   2.0000      -0.493077       -13.4173
  51   2.0000      -0.485428       -13.2092
  52   2.0000      -0.472494       -12.8572
  53   2.0000      -0.463200       -12.6043
  54   2.0000      -0.459603       -12.5064
  55   2.0000      -0.452364       -12.3094
  56   2.0000      -0.437643       -11.9089
  57   2.0000      -0.433192       -11.7878
  58   2.0000      -0.429584       -11.6896
  59   2.0000      -0.425876       -11.5887
  60   2.0000      -0.421398       -11.4668
  61   2.0000      -0.414253       -11.2724
  62   2.0000      -0.409318       -11.1381
  63   2.0000      -0.351155        -9.5554
  64   2.0000      -0.333270        -9.0687
  65   2.0000      -0.331164        -9.0114
  66   2.0000      -0.281934        -7.6718
  67   0.0000       0.023941         0.6515
  68   0.0000       0.063230         1.7206
  69   0.0000       0.104964         2.8562
  70   0.0000       0.111891         3.0447
  71   0.0000       0.134362         3.6562

MULLIKEN ATOMIC CHARGES
-----------------------
   0 S :    0.106638
   1 C :   -0.113267
   2 C :   -0.096192
   3 C :   -0.000226
   4 C :   -0.161220
   5 H :    0.035703
   6 C :    0.023132
   7 H :    0.036693
   8 H :    0.027114
   9 C :   -0.086485
  10 H :    0.039967
  11 H :    0.033382
  12 C :   -0.051875
  13 H :    0.039802
  14 H :    0.052121
  15 H :    0.027460
  16 S :    0.116212
  17 C :   -0.096650
  18 C :   -0.018407
  19 C :   -0.068949
  20 C :   -0.130051
  21 H :    0.024504
  22 C :    0.083316
  23 H :    0.016177
  24 H :    0.004093
  25 C :   -0.088137
  26 H :    0.027108
  27 H :    0.031715
  28 C :   -0.006275
  29 H :    0.022288
  30 H :    0.036131
  31 H :    0.020245
  32 H :    0.045653
  33 H :    0.068279
Sum of atomic charges:    0.0000000

LOEWDIN ATOMIC CHARGES
----------------------
   0 S :    0.398428
   1 C :   -0.201330
   2 C :   -0.066480
   3 C :   -0.076807
   4 C :   -0.195056
   5 H :    0.034707
   6 C :   -0.030210
   7 H :    0.026452
   8 H :    0.033337
   9 C :   -0.036411
  10 H :    0.021102
  11 H :    0.025115
  12 C :   -0.067027
  13 H :    0.025885
  14 H :    0.036704
  15 H :    0.018309
  16 S :    0.388806
  17 C :   -0.179646
  18 C :   -0.071903
  19 C :   -0.034840
  20 C :   -0.200012
  21 H :    0.035777
  22 C :   -0.033250
  23 H :    0.031619
  24 H :    0.019175
  25 C :   -0.032016
  26 H :    0.023553
  27 H :    0.023814
  28 C :   -0.060971
  29 H :    0.030632
  30 H :    0.027999
  31 H :    0.014546
  32 H :    0.032342
  33 H :    0.037655

  Mayer bond orders larger than 0.100000
B(  0-S ,  1-C ) :   1.1285 B(  0-S ,  4-C ) :   1.1476 B(  1-C ,  2-C ) :   1.6108
B(  1-C ,  4-C ) :   0.1105 B(  1-C , 32-H ) :   0.9608 B(  2-C ,  3-C ) :   1.2739
B(  2-C ,  6-C ) :   1.0164 B(  3-C ,  4-C ) :   1.5503 B(  3-C ,  5-H ) :   0.9709
B(  4-C , 20-C ) :   1.0897 B(  6-C ,  7-H ) :   0.9487 B(  6-C ,  8-H ) :   0.9489
B(  6-C ,  9-C ) :   1.0402 B(  9-C , 10-H ) :   0.9629 B(  9-C , 11-H ) :   0.9627
B(  9-C , 12-C ) :   1.0666 B( 12-C , 13-H ) :   0.9779 B( 12-C , 14-H ) :   0.9755
B( 12-C , 15-H ) :   0.9785 B( 16-S , 17-C ) :   1.1526 B( 16-S , 20-C ) :   1.1027
B( 17-C , 18-C ) :   1.6466 B( 17-C , 33-H ) :   0.9508 B( 18-C , 19-C ) :   1.2146
B( 18-C , 21-H ) :   0.9881 B( 19-C , 20-C ) :   1.6031 B( 19-C , 22-C ) :   1.0436
B( 22-C , 23-H ) :   0.9339 B( 22-C , 24-H ) :   0.9336 B( 22-C , 25-C ) :   1.0589
B( 25-C , 26-H ) :   0.9585 B( 25-C , 27-H ) :   0.9587 B( 25-C , 28-C ) :   1.0750
B( 28-C , 29-H ) :   0.9717 B( 28-C , 30-H ) :   0.9765 B( 28-C , 31-H ) :   0.9748

Dispersion correction           -0.013580628
FINAL SINGLE POINT ENERGY     -1339.856335085775

DIPOLE MOMENT
-------------
                                X             Y             Z
Electronic contribution:      3.16906     -20.98647     -18.23612
Nuclear contribution   :     -3.56397      21.33046      18.68126
                        -----------------------------------------
Total Dipole Moment    :     -0.39491       0.34399       0.44514
                        -----------------------------------------
Magnitude (a.u.)       :      0.68733
Magnitude (Debye)      :      1.74706

Rotational constants in cm-1:     0.017268     0.007958     0.006408
Rotational constants in MHz :   517.679884   238.582433   192.111883

                             ****ORCA TERMINATED NORMALLY****
TOTAL RUN TIME: 0 days 0 hours 0 minutes 20 seconds 952 msec
