                         Program Version 4.2.1 -  RELEASE  -
|  1> ! wB97X-D3 SP def2-SVP
|  2> %pal
|  3> nprocs 24
|  4> end
|  5>
|  6> * xyz 0 1
|  7> S 	 -113.163 	 57.2859 	 -79.1127
|  8> C 	 -113.3 	 57.4954 	 -80.9018
|  9> C 	 -112.315 	 58.336 	 -81.3087
| 10> C 	 -111.497 	 58.7999 	 -80.2758
| 11> C 	 -111.849 	 58.3868 	 -79.0304
| 12> H 	 -110.668 	 59.4621 	 -80.3757
| 13> C 	 -112.056 	 58.7708 	 -82.7238
| 14> H 	 -111.912 	 57.9019 	 -83.2958
| 15> H 	 -111.055 	 59.198 	 -82.7882
| 16> C 	 -113.174 	 59.6407 	 -83.3499
| 17> H 	 -113.011 	 59.7361 	 -84.3983
| 18> H 	 -114.119 	 59.1516 	 -83.1874
| 19> C 	 -113.184 	 61.1029 	 -82.7745
| 20> H 	 -113.926 	 61.7075 	 -83.3084
| 21> H 	 -113.672 	 61.134 	 -81.8239
| 22> H 	 -112.258 	 61.6451 	 -82.795
| 23> S 	 -111.127 	 57.3476 	 -76.5148
| 24> C 	 -110.392 	 58.2807 	 -75.3096
| 25> C 	 -110.004 	 59.5407 	 -75.8417
| 26> C 	 -110.504 	 59.7957 	 -77.1808
| 27> C 	 -111.201 	 58.7215 	 -77.7033
| 28> H 	 -109.387 	 60.2222 	 -75.2229
| 29> C 	 -110.15 	 61.0705 	 -77.8894
| 30> H 	 -109.522 	 60.8941 	 -78.7004
| 31> H 	 -109.559 	 61.5903 	 -77.1784
| 32> C 	 -111.361 	 61.9628 	 -78.3414
| 33> H 	 -111.992 	 62.3302 	 -77.4857
| 34> H 	 -111.996 	 61.3661 	 -78.936
| 35> C 	 -110.947 	 63.1631 	 -79.1739
| 36> H 	 -110.642 	 62.8787 	 -80.1822
| 37> H 	 -110.167 	 63.7923 	 -78.7351
| 38> H 	 -111.882 	 63.7358 	 -79.2833
| 39> H 	 -114.116 	 57.0485 	 -81.4562
| 40> H 	 -110.129 	 58.0612 	 -74.3043
| 41> *
| 42>
| 43>                          ****END OF INPUT****

CARTESIAN COORDINATES (ANGSTROEM)
---------------------------------
  S    -113.163000   57.285900  -79.112700
  C    -113.300000   57.495400  -80.901800
  C    -112.315000   58.336000  -81.308700
  C    -111.497000   58.799900  -80.275800
  C    -111.849000   58.386800  -79.030400
  H    -110.668000   59.462100  -80.375700
  C    -112.056000   58.770800  -82.723800
  H    -111.912000   57.901900  -83.295800
  H    -111.055000   59.198000  -82.788200
  C    -113.174000   59.640700  -83.349900
  H    -113.011000   59.736100  -84.398300
  H    -114.119000   59.151600  -83.187400
  C    -113.184000   61.102900  -82.774500
  H    -113.926000   61.707500  -83.308400
  H    -113.672000   61.134000  -81.823900
  H    -112.258000   61.645100  -82.795000
  S    -111.127000   57.347600  -76.514800
  C    -110.392000   58.280700  -75.309600
  C    -110.004000   59.540700  -75.841700
  C    -110.504000   59.795700  -77.180800
  C    -111.201000   58.721500  -77.703300
  H    -109.387000   60.222200  -75.222900
  C    -110.150000   61.070500  -77.889400
  H    -109.522000   60.894100  -78.700400
  H    -109.559000   61.590300  -77.178400
  C    -111.361000   61.962800  -78.341400
  H    -111.992000   62.330200  -77.485700
  H    -111.996000   61.366100  -78.936000
  C    -110.947000   63.163100  -79.173900
  H    -110.642000   62.878700  -80.182200
  H    -110.167000   63.792300  -78.735100
  H    -111.882000   63.735800  -79.283300
  H    -114.116000   57.048500  -81.456200
  H    -110.129000   58.061200  -74.304300

 Total Charge           Charge          ....    0
 Multiplicity           Mult            ....    1
 Number of Electrons    NEL             ....  134
 Basis Dimension        Dim             ....  322

ORBITAL ENERGIES
----------------

  NO   OCC          E(Eh)            E(eV)
   0   2.0000     -88.966002     -2420.8880
   1   2.0000     -88.963781     -2420.8276
   2   2.0000     -10.335256      -281.2366
   3   2.0000     -10.331634      -281.1381
   4   2.0000     -10.316710      -280.7319
   5   2.0000     -10.315743      -280.7056
   6   2.0000     -10.306605      -280.4570
   7   2.0000     -10.299265      -280.2573
   8   2.0000     -10.296813      -280.1905
   9   2.0000     -10.289776      -279.9990
  10   2.0000     -10.286232      -279.9026
  11   2.0000     -10.285230      -279.8753
  12   2.0000     -10.285003      -279.8692
  13   2.0000     -10.284656      -279.8597
  14   2.0000     -10.277895      -279.6757
  15   2.0000     -10.275268      -279.6043
  16   2.0000      -8.080500      -219.8816
  17   2.0000      -8.078485      -219.8267
  18   2.0000      -6.039055      -164.3310
  19   2.0000      -6.037002      -164.2752
  20   2.0000      -6.034916      -164.2184
  21   2.0000      -6.032952      -164.1650
  22   2.0000      -6.031343      -164.1212
  23   2.0000      -6.029271      -164.0648
  24   2.0000      -1.007139       -27.4056
  25   2.0000      -0.984472       -26.7889
  26   2.0000      -0.911663       -24.8076
  27   2.0000      -0.909549       -24.7501
  28   2.0000      -0.862714       -23.4756
  29   2.0000      -0.855270       -23.2731
  30   2.0000      -0.843016       -22.9396
  31   2.0000      -0.813152       -22.1270
  32   2.0000      -0.785542       -21.3757
  33   2.0000      -0.778142       -21.1743
  34   2.0000      -0.712984       -19.4013
  35   2.0000      -0.704899       -19.1813
  36   2.0000      -0.689943       -18.7743
  37   2.0000      -0.662213       -18.0197
  38   2.0000      -0.644228       -17.5303
  39   2.0000      -0.619572       -16.8594
  40   2.0000      -0.593806       -16.1583
  41   2.0000      -0.576589       -15.6898
  42   2.0000      -0.564870       -15.3709
  43   2.0000      -0.548572       -14.9274
  44   2.0000      -0.539612       -14.6836
  45   2.0000      -0.525514       -14.3000
  46   2.0000      -0.521559       -14.1923
  47   2.0000      -0.510472       -13.8906
  48   2.0000      -0.505449       -13.7540
  49   2.0000      -0.498683       -13.5699
  50   2.0000      -0.494513       -13.4564
  51   2.0000      -0.484357       -13.1800
  52   2.0000      -0.475964       -12.9516
  53   2.0000      -0.466513       -12.6945
  54   2.0000      -0.458502       -12.4765
  55   2.0000      -0.449121       -12.2212
  56   2.0000      -0.445126       -12.1125
  57   2.0000      -0.436339       -11.8734
  58   2.0000      -0.429700       -11.6927
  59   2.0000      -0.426398       -11.6029
  60   2.0000      -0.421446       -11.4681
  61   2.0000      -0.416713       -11.3393
  62   2.0000      -0.412824       -11.2335
  63   2.0000      -0.351085        -9.5535
  64   2.0000      -0.333668        -9.0796
  65   2.0000      -0.327738        -8.9182
  66   2.0000      -0.290169        -7.8959
  67   0.0000       0.024386         0.6636
  68   0.0000       0.076374         2.0782
  69   0.0000       0.101735         2.7683
  70   0.0000       0.117373         3.1939
  71   0.0000       0.132459         3.6044

MULLIKEN ATOMIC CHARGES
-----------------------
   0 S :    0.091471
   1 C :   -0.154592
   2 C :   -0.055178
   3 C :    0.016244
   4 C :   -0.110620
   5 H :   -0.014577
   6 C :    0.097414
   7 H :    0.016671
   8 H :    0.010161
   9 C :   -0.046819
  10 H :    0.027113
  11 H :    0.026432
  12 C :   -0.054326
  13 H :    0.020171
  14 H :    0.031572
  15 H :    0.036787
  16 S :    0.100663
  17 C :   -0.061680
  18 C :   -0.081749
  19 C :   -0.052894
  20 C :   -0.129323
  21 H :    0.030073
  22 C :    0.111793
  23 H :    0.019172
  24 H :   -0.004034
  25 C :   -0.082177
  26 H :    0.037780
  27 H :    0.026222
  28 C :   -0.048040
  29 H :    0.024786
  30 H :    0.035321
  31 H :    0.036113
  32 H :    0.052972
  33 H :    0.047078
Sum of atomic charges:   -0.0000000

LOEWDIN ATOMIC CHARGES
----------------------
   0 S :    0.395710
   1 C :   -0.179110
   2 C :   -0.061819
   3 C :   -0.072994
   4 C :   -0.191704
   5 H :    0.025518
   6 C :   -0.028566
   7 H :    0.026716
   8 H :    0.028754
   9 C :   -0.025479
  10 H :    0.020402
  11 H :    0.023435
  12 C :   -0.068721
  13 H :    0.027776
  14 H :    0.024740
  15 H :    0.022384
  16 S :    0.405684
  17 C :   -0.200637
  18 C :   -0.079967
  19 C :   -0.055747
  20 C :   -0.174803
  21 H :    0.033183
  22 C :   -0.024364
  23 H :    0.021882
  24 H :    0.025015
  25 C :   -0.033959
  26 H :    0.031423
  27 H :    0.017334
  28 C :   -0.066758
  29 H :    0.020955
  30 H :    0.023659
  31 H :    0.032376
  32 H :    0.028919
  33 H :    0.028765

  Mayer bond orders larger than 0.100000
B(  0-S ,  1-C ) :   1.1187 B(  0-S ,  4-C ) :   1.1723 B(  1-C ,  2-C ) :   1.5986
B(  1-C , 32-H ) :   0.9786 B(  2-C ,  3-C ) :   1.2482 B(  2-C ,  6-C ) :   1.0076
B(  3-C ,  4-C ) :   1.5613 B(  3-C ,  5-H ) :   1.0060 B(  4-C , 20-C ) :   1.0108
B(  6-C ,  7-H ) :   0.9305 B(  6-C ,  8-H ) :   0.9428 B(  6-C ,  9-C ) :   1.0734
B(  9-C , 10-H ) :   0.9580 B(  9-C , 11-H ) :   0.9587 B(  9-C , 12-C ) :   1.0751
B( 12-C , 13-H ) :   0.9710 B( 12-C , 14-H ) :   0.9745 B( 12-C , 15-H ) :   0.9783
B( 16-S , 17-C ) :   1.1762 B( 16-S , 20-C ) :   1.1276 B( 17-C , 18-C ) :   1.5884
B( 17-C , 33-H ) :   0.9693 B( 18-C , 19-C ) :   1.2567 B( 18-C , 21-H ) :   0.9799
B( 19-C , 20-C ) :   1.5997 B( 19-C , 22-C ) :   1.0453 B( 22-C , 23-H ) :   0.9322
B( 22-C , 24-H ) :   0.9210 B( 22-C , 25-C ) :   1.0581 B( 25-C , 26-H ) :   0.9567
B( 25-C , 27-H ) :   0.9562 B( 25-C , 28-C ) :   1.0897 B( 28-C , 29-H ) :   0.9725
B( 28-C , 30-H ) :   0.9753 B( 28-C , 31-H ) :   0.9730

Dispersion correction           -0.014987003
FINAL SINGLE POINT ENERGY     -1339.877490795543

DIPOLE MOMENT
-------------
                                X             Y             Z
Electronic contribution:     -0.74278     -25.47481      18.75352
Nuclear contribution   :      0.94806      26.01903     -19.17174
                        -----------------------------------------
Total Dipole Moment    :      0.20528       0.54422      -0.41821
                        -----------------------------------------
Magnitude (a.u.)       :      0.71639
Magnitude (Debye)      :      1.82093

Rotational constants in cm-1:     0.018789     0.009865     0.006892
Rotational constants in MHz :   563.294066   295.739006   206.618053

                             ****ORCA TERMINATED NORMALLY****
TOTAL RUN TIME: 0 days 0 hours 0 minutes 22 seconds 305 msec
