                         Program Version 4.2.1 -  RELEASE  -
|  1> ! wB97X-D3 SP def2-SVP
|  2> %pal
|  3> nprocs 24
|  4> end
|  5>
|  6> * xyz 0 1
|  7> S 	 -101.84 	 38.9009 	 -90.1509
|  8> C 	 -101.112 	 37.4068 	 -89.6557
|  9> C 	 -99.922 	 37.2688 	 -90.2905
| 10> C 	 -99.5333 	 38.4348 	 -91.0417
| 11> C 	 -100.507 	 39.3795 	 -91.0892
| 12> H 	 -98.6265 	 38.6768 	 -91.638
| 13> C 	 -98.8931 	 36.1235 	 -90.1283
| 14> H 	 -98.4334 	 35.9167 	 -91.0954
| 15> H 	 -99.3338 	 35.1541 	 -90.0777
| 16> C 	 -97.9394 	 36.3848 	 -88.9377
| 17> H 	 -97.6866 	 37.4515 	 -88.8991
| 18> H 	 -98.5151 	 36.0822 	 -88.0943
| 19> C 	 -96.6573 	 35.4514 	 -89.0024
| 20> H 	 -96.0374 	 35.6061 	 -88.106
| 21> H 	 -96.9486 	 34.3742 	 -88.9119
| 22> H 	 -96.0707 	 35.5328 	 -89.9574
| 23> S 	 -101.838 	 40.833 	 -92.9327
| 24> C 	 -101.437 	 42.4677 	 -93.2815
| 25> C 	 -100.25 	 42.7887 	 -92.653
| 26> C 	 -99.756 	 41.814 	 -91.7601
| 27> C 	 -100.537 	 40.6289 	 -91.8241
| 28> H 	 -99.7331 	 43.7084 	 -92.9991
| 29> C 	 -98.4842 	 41.9768 	 -90.9137
| 30> H 	 -97.955 	 42.8216 	 -91.3743
| 31> H 	 -97.7765 	 41.0698 	 -90.9682
| 32> C 	 -98.8032 	 42.2016 	 -89.4237
| 33> H 	 -99.477 	 41.3898 	 -89.0609
| 34> H 	 -99.3341 	 43.1294 	 -89.2514
| 35> C 	 -97.6067 	 42.2197 	 -88.4429
| 36> H 	 -98.0966 	 42.6031 	 -87.5533
| 37> H 	 -96.792 	 42.814 	 -88.7798
| 38> H 	 -97.2993 	 41.1794 	 -88.3402
| 39> H 	 -101.408 	 36.6565 	 -88.8653
| 40> H 	 -101.918 	 42.9548 	 -94.0939
| 41> *
| 42>
| 43>                          ****END OF INPUT****

CARTESIAN COORDINATES (ANGSTROEM)
---------------------------------
  S    -101.840000   38.900900  -90.150900
  C    -101.112000   37.406800  -89.655700
  C    -99.922000   37.268800  -90.290500
  C    -99.533300   38.434800  -91.041700
  C    -100.507000   39.379500  -91.089200
  H    -98.626500   38.676800  -91.638000
  C    -98.893100   36.123500  -90.128300
  H    -98.433400   35.916700  -91.095400
  H    -99.333800   35.154100  -90.077700
  C    -97.939400   36.384800  -88.937700
  H    -97.686600   37.451500  -88.899100
  H    -98.515100   36.082200  -88.094300
  C    -96.657300   35.451400  -89.002400
  H    -96.037400   35.606100  -88.106000
  H    -96.948600   34.374200  -88.911900
  H    -96.070700   35.532800  -89.957400
  S    -101.838000   40.833000  -92.932700
  C    -101.437000   42.467700  -93.281500
  C    -100.250000   42.788700  -92.653000
  C    -99.756000   41.814000  -91.760100
  C    -100.537000   40.628900  -91.824100
  H    -99.733100   43.708400  -92.999100
  C    -98.484200   41.976800  -90.913700
  H    -97.955000   42.821600  -91.374300
  H    -97.776500   41.069800  -90.968200
  C    -98.803200   42.201600  -89.423700
  H    -99.477000   41.389800  -89.060900
  H    -99.334100   43.129400  -89.251400
  C    -97.606700   42.219700  -88.442900
  H    -98.096600   42.603100  -87.553300
  H    -96.792000   42.814000  -88.779800
  H    -97.299300   41.179400  -88.340200
  H    -101.408000   36.656500  -88.865300
  H    -101.918000   42.954800  -94.093900

 Total Charge           Charge          ....    0
 Multiplicity           Mult            ....    1
 Number of Electrons    NEL             ....  134
 Basis Dimension        Dim             ....  322

ORBITAL ENERGIES
----------------

  NO   OCC          E(Eh)            E(eV)
   0   2.0000     -88.964252     -2420.8404
   1   2.0000     -88.963975     -2420.8328
   2   2.0000     -10.325945      -280.9833
   3   2.0000     -10.322014      -280.8763
   4   2.0000     -10.314825      -280.6807
   5   2.0000     -10.312526      -280.6181
   6   2.0000     -10.306869      -280.4642
   7   2.0000     -10.300988      -280.3041
   8   2.0000     -10.300213      -280.2830
   9   2.0000     -10.296570      -280.1839
  10   2.0000     -10.292204      -280.0651
  11   2.0000     -10.291814      -280.0545
  12   2.0000     -10.289644      -279.9954
  13   2.0000     -10.289236      -279.9843
  14   2.0000     -10.282361      -279.7973
  15   2.0000     -10.272414      -279.5266
  16   2.0000      -8.080147      -219.8720
  17   2.0000      -8.079855      -219.8640
  18   2.0000      -6.038371      -164.3124
  19   2.0000      -6.038343      -164.3117
  20   2.0000      -6.034262      -164.2006
  21   2.0000      -6.034064      -164.1952
  22   2.0000      -6.031383      -164.1223
  23   2.0000      -6.030637      -164.1020
  24   2.0000      -1.016945       -27.6725
  25   2.0000      -0.992366       -27.0036
  26   2.0000      -0.907330       -24.6897
  27   2.0000      -0.903865       -24.5954
  28   2.0000      -0.871668       -23.7193
  29   2.0000      -0.852028       -23.1849
  30   2.0000      -0.841836       -22.9075
  31   2.0000      -0.815236       -22.1837
  32   2.0000      -0.781013       -21.2525
  33   2.0000      -0.771819       -21.0023
  34   2.0000      -0.705212       -19.1898
  35   2.0000      -0.702145       -19.1063
  36   2.0000      -0.685754       -18.6603
  37   2.0000      -0.661994       -18.0138
  38   2.0000      -0.643278       -17.5045
  39   2.0000      -0.616909       -16.7869
  40   2.0000      -0.596948       -16.2438
  41   2.0000      -0.569350       -15.4928
  42   2.0000      -0.561078       -15.2677
  43   2.0000      -0.555200       -15.1078
  44   2.0000      -0.527838       -14.3632
  45   2.0000      -0.521708       -14.1964
  46   2.0000      -0.515740       -14.0340
  47   2.0000      -0.513752       -13.9799
  48   2.0000      -0.506525       -13.7832
  49   2.0000      -0.497466       -13.5367
  50   2.0000      -0.492861       -13.4114
  51   2.0000      -0.486528       -13.2391
  52   2.0000      -0.467928       -12.7330
  53   2.0000      -0.465459       -12.6658
  54   2.0000      -0.458006       -12.4630
  55   2.0000      -0.445144       -12.1130
  56   2.0000      -0.438265       -11.9258
  57   2.0000      -0.437652       -11.9091
  58   2.0000      -0.435971       -11.8634
  59   2.0000      -0.423329       -11.5194
  60   2.0000      -0.417301       -11.3553
  61   2.0000      -0.413538       -11.2529
  62   2.0000      -0.411616       -11.2006
  63   2.0000      -0.345144        -9.3918
  64   2.0000      -0.334126        -9.0920
  65   2.0000      -0.328029        -8.9261
  66   2.0000      -0.297935        -8.1072
  67   0.0000       0.037591         1.0229
  68   0.0000       0.067126         1.8266
  69   0.0000       0.114171         3.1068
  70   0.0000       0.125757         3.4220
  71   0.0000       0.135118         3.6768

MULLIKEN ATOMIC CHARGES
-----------------------
   0 S :    0.123670
   1 C :   -0.129432
   2 C :   -0.096797
   3 C :    0.016841
   4 C :   -0.152965
   5 H :    0.025700
   6 C :    0.061684
   7 H :    0.013612
   8 H :    0.003070
   9 C :   -0.043003
  10 H :    0.043871
  11 H :    0.024958
  12 C :   -0.084293
  13 H :    0.041600
  14 H :    0.030740
  15 H :    0.048219
  16 S :    0.114838
  17 C :   -0.094773
  18 C :   -0.059612
  19 C :   -0.003434
  20 C :   -0.187081
  21 H :    0.034204
  22 C :    0.065126
  23 H :    0.019546
  24 H :    0.035315
  25 C :   -0.124164
  26 H :    0.043002
  27 H :    0.024448
  28 C :   -0.014003
  29 H :    0.037654
  30 H :    0.027407
  31 H :    0.031160
  32 H :    0.067857
  33 H :    0.055036
Sum of atomic charges:   -0.0000000

LOEWDIN ATOMIC CHARGES
----------------------
   0 S :    0.432582
   1 C :   -0.215953
   2 C :   -0.065080
   3 C :   -0.073107
   4 C :   -0.216181
   5 H :    0.039772
   6 C :   -0.038169
   7 H :    0.028341
   8 H :    0.023140
   9 C :   -0.030650
  10 H :    0.026553
  11 H :    0.022954
  12 C :   -0.076435
  13 H :    0.027374
  14 H :    0.027578
  15 H :    0.029621
  16 S :    0.442013
  17 C :   -0.196857
  18 C :   -0.077806
  19 C :   -0.057210
  20 C :   -0.211240
  21 H :    0.038366
  22 C :   -0.036371
  23 H :    0.028805
  24 H :    0.035650
  25 C :   -0.044766
  26 H :    0.030187
  27 H :    0.019346
  28 C :   -0.058235
  29 H :    0.031506
  30 H :    0.017664
  31 H :    0.024152
  32 H :    0.048863
  33 H :    0.023594

  Mayer bond orders larger than 0.100000
B(  0-S ,  1-C ) :   1.1285 B(  0-S ,  4-C ) :   1.1603 B(  1-C ,  2-C ) :   1.6384
B(  1-C , 32-H ) :   0.9616 B(  2-C ,  3-C ) :   1.2136 B(  2-C ,  6-C ) :   1.0261
B(  3-C ,  4-C ) :   1.6023 B(  3-C ,  5-H ) :   0.9914 B(  4-C , 20-C ) :   1.0111
B(  6-C ,  7-H ) :   0.9451 B(  6-C ,  8-H ) :   0.9381 B(  6-C ,  9-C ) :   1.0401
B(  9-C , 10-H ) :   0.9652 B(  9-C , 11-H ) :   0.9555 B(  9-C , 12-C ) :   1.0711
B( 12-C , 13-H ) :   0.9757 B( 12-C , 14-H ) :   0.9745 B( 12-C , 15-H ) :   0.9788
B( 16-S , 17-C ) :   1.1822 B( 16-S , 20-C ) :   1.1917 B( 17-C , 18-C ) :   1.5583
B( 17-C , 20-C ) :   0.1143 B( 17-C , 33-H ) :   0.9726 B( 18-C , 19-C ) :   1.2946
B( 18-C , 21-H ) :   0.9810 B( 19-C , 20-C ) :   1.5295 B( 19-C , 22-C ) :   1.0341
B( 22-C , 23-H ) :   0.9306 B( 22-C , 24-H ) :   0.9432 B( 22-C , 25-C ) :   1.0555
B( 25-C , 26-H ) :   0.9598 B( 25-C , 27-H ) :   0.9587 B( 25-C , 28-C ) :   1.0757
B( 28-C , 29-H ) :   0.9765 B( 28-C , 30-H ) :   0.9763 B( 28-C , 31-H ) :   0.9772

Dispersion correction           -0.014323972
FINAL SINGLE POINT ENERGY     -1339.878042402420

DIPOLE MOMENT
-------------
                                X             Y             Z
Electronic contribution:    -25.41331       6.13855     -15.14469
Nuclear contribution   :     25.97810      -6.22747      15.23276
                        -----------------------------------------
Total Dipole Moment    :      0.56479      -0.08892       0.08806
                        -----------------------------------------
Magnitude (a.u.)       :      0.57849
Magnitude (Debye)      :      1.47040

Rotational constants in cm-1:     0.018702     0.008742     0.006892
Rotational constants in MHz :   560.680934   262.076045   206.604414

                             ****ORCA TERMINATED NORMALLY****
TOTAL RUN TIME: 0 days 0 hours 0 minutes 21 seconds 566 msec
