                         Program Version 4.2.1 -  RELEASE  -
|  1> ! wB97X-D3 SP def2-SVP
|  2> %pal
|  3> nprocs 24
|  4> end
|  5>
|  6> * xyz 0 1
|  7> S 	 -71.7544 	 -1.78834 	 -67.2541
|  8> C 	 -72.264 	 -0.839045 	 -65.8242
|  9> C 	 -73.6391 	 -0.827193 	 -65.6433
| 10> C 	 -74.3017 	 -1.34256 	 -66.8455
| 11> C 	 -73.4118 	 -1.92617 	 -67.7723
| 12> H 	 -75.3098 	 -1.29111 	 -67.2179
| 13> C 	 -74.3602 	 -0.0757285 	 -64.6233
| 14> H 	 -75.4492 	 -0.201114 	 -64.9211
| 15> H 	 -74.1652 	 0.958491 	 -64.7453
| 16> C 	 -73.9913 	 -0.493192 	 -63.2227
| 17> H 	 -74.2937 	 -1.5603 	 -63.1011
| 18> H 	 -72.9179 	 -0.38846 	 -63.2389
| 19> C 	 -74.6443 	 0.466259 	 -62.1852
| 20> H 	 -74.7974 	 1.52806 	 -62.4741
| 21> H 	 -75.585 	 0.13603 	 -61.9004
| 22> H 	 -73.9571 	 0.394995 	 -61.3619
| 23> S 	 -72.9064 	 -2.3654 	 -70.4139
| 24> C 	 -73.9667 	 -3.23192 	 -71.3998
| 25> C 	 -75.1333 	 -3.56833 	 -70.6957
| 26> C 	 -75.0695 	 -3.24054 	 -69.3073
| 27> C 	 -73.8612 	 -2.6156 	 -68.9896
| 28> H 	 -75.9098 	 -4.08299 	 -71.2329
| 29> C 	 -76.1707 	 -3.57629 	 -68.3297
| 30> H 	 -75.8173 	 -3.35014 	 -67.4046
| 31> H 	 -76.2115 	 -4.6493 	 -68.4368
| 32> C 	 -77.5346 	 -3.01187 	 -68.5239
| 33> H 	 -78.0029 	 -3.58462 	 -69.3451
| 34> H 	 -77.432 	 -1.96301 	 -68.8648
| 35> C 	 -78.4988 	 -3.18616 	 -67.3171
| 36> H 	 -78.3473 	 -2.51644 	 -66.5438
| 37> H 	 -78.3634 	 -4.13664 	 -66.8887
| 38> H 	 -79.4824 	 -2.98466 	 -67.865
| 39> H 	 -71.4888 	 -0.408872 	 -65.2075
| 40> H 	 -73.8583 	 -3.4968 	 -72.4856
| 41> *
| 42>
| 43>                          ****END OF INPUT****

CARTESIAN COORDINATES (ANGSTROEM)
---------------------------------
  S    -71.754400   -1.788340  -67.254100
  C    -72.264000   -0.839045  -65.824200
  C    -73.639100   -0.827193  -65.643300
  C    -74.301700   -1.342560  -66.845500
  C    -73.411800   -1.926170  -67.772300
  H    -75.309800   -1.291110  -67.217900
  C    -74.360200   -0.075728  -64.623300
  H    -75.449200   -0.201114  -64.921100
  H    -74.165200    0.958491  -64.745300
  C    -73.991300   -0.493192  -63.222700
  H    -74.293700   -1.560300  -63.101100
  H    -72.917900   -0.388460  -63.238900
  C    -74.644300    0.466259  -62.185200
  H    -74.797400    1.528060  -62.474100
  H    -75.585000    0.136030  -61.900400
  H    -73.957100    0.394995  -61.361900
  S    -72.906400   -2.365400  -70.413900
  C    -73.966700   -3.231920  -71.399800
  C    -75.133300   -3.568330  -70.695700
  C    -75.069500   -3.240540  -69.307300
  C    -73.861200   -2.615600  -68.989600
  H    -75.909800   -4.082990  -71.232900
  C    -76.170700   -3.576290  -68.329700
  H    -75.817300   -3.350140  -67.404600
  H    -76.211500   -4.649300  -68.436800
  C    -77.534600   -3.011870  -68.523900
  H    -78.002900   -3.584620  -69.345100
  H    -77.432000   -1.963010  -68.864800
  C    -78.498800   -3.186160  -67.317100
  H    -78.347300   -2.516440  -66.543800
  H    -78.363400   -4.136640  -66.888700
  H    -79.482400   -2.984660  -67.865000
  H    -71.488800   -0.408872  -65.207500
  H    -73.858300   -3.496800  -72.485600

 Total Charge           Charge          ....    0
 Multiplicity           Mult            ....    1
 Number of Electrons    NEL             ....  134
 Basis Dimension        Dim             ....  322

ORBITAL ENERGIES
----------------

  NO   OCC          E(Eh)            E(eV)
   0   2.0000     -88.965969     -2420.8871
   1   2.0000     -88.964441     -2420.8455
   2   2.0000     -10.329591      -281.0825
   3   2.0000     -10.323925      -280.9283
   4   2.0000     -10.318016      -280.7675
   5   2.0000     -10.316586      -280.7286
   6   2.0000     -10.303812      -280.3810
   7   2.0000     -10.303691      -280.3777
   8   2.0000     -10.295362      -280.1510
   9   2.0000     -10.292269      -280.0669
  10   2.0000     -10.289727      -279.9977
  11   2.0000     -10.287769      -279.9444
  12   2.0000     -10.284615      -279.8586
  13   2.0000     -10.278531      -279.6931
  14   2.0000     -10.275774      -279.6180
  15   2.0000     -10.275588      -279.6130
  16   2.0000      -8.080576      -219.8837
  17   2.0000      -8.080157      -219.8722
  18   2.0000      -6.038920      -164.3274
  19   2.0000      -6.038676      -164.3207
  20   2.0000      -6.034799      -164.2152
  21   2.0000      -6.034724      -164.2132
  22   2.0000      -6.031597      -164.1281
  23   2.0000      -6.030903      -164.1092
  24   2.0000      -1.007955       -27.4278
  25   2.0000      -0.981725       -26.7141
  26   2.0000      -0.920937       -25.0600
  27   2.0000      -0.918405       -24.9911
  28   2.0000      -0.866137       -23.5688
  29   2.0000      -0.856535       -23.3075
  30   2.0000      -0.845579       -23.0094
  31   2.0000      -0.810265       -22.0484
  32   2.0000      -0.787644       -21.4329
  33   2.0000      -0.774118       -21.0648
  34   2.0000      -0.710354       -19.3297
  35   2.0000      -0.705531       -19.1985
  36   2.0000      -0.689520       -18.7628
  37   2.0000      -0.661553       -18.0018
  38   2.0000      -0.640439       -17.4272
  39   2.0000      -0.614971       -16.7342
  40   2.0000      -0.594299       -16.1717
  41   2.0000      -0.576209       -15.6794
  42   2.0000      -0.570833       -15.5332
  43   2.0000      -0.563439       -15.3319
  44   2.0000      -0.537019       -14.6130
  45   2.0000      -0.530061       -14.4237
  46   2.0000      -0.520587       -14.1659
  47   2.0000      -0.512362       -13.9421
  48   2.0000      -0.501857       -13.6562
  49   2.0000      -0.499229       -13.5847
  50   2.0000      -0.494837       -13.4652
  51   2.0000      -0.483337       -13.1523
  52   2.0000      -0.476316       -12.9612
  53   2.0000      -0.464824       -12.6485
  54   2.0000      -0.462179       -12.5765
  55   2.0000      -0.450115       -12.2483
  56   2.0000      -0.443908       -12.0793
  57   2.0000      -0.441138       -12.0040
  58   2.0000      -0.433326       -11.7914
  59   2.0000      -0.424718       -11.5572
  60   2.0000      -0.419598       -11.4178
  61   2.0000      -0.416284       -11.3277
  62   2.0000      -0.411185       -11.1889
  63   2.0000      -0.348473        -9.4824
  64   2.0000      -0.329416        -8.9639
  65   2.0000      -0.328003        -8.9254
  66   2.0000      -0.285085        -7.7575
  67   0.0000       0.025137         0.6840
  68   0.0000       0.080784         2.1982
  69   0.0000       0.106742         2.9046
  70   0.0000       0.112445         3.0598
  71   0.0000       0.129458         3.5227

MULLIKEN ATOMIC CHARGES
-----------------------
   0 S :    0.103559
   1 C :   -0.143827
   2 C :   -0.048421
   3 C :   -0.001596
   4 C :   -0.140862
   5 H :    0.013534
   6 C :    0.050168
   7 H :    0.025766
   8 H :    0.029856
   9 C :   -0.104572
  10 H :    0.046443
  11 H :    0.026200
  12 C :   -0.001659
  13 H :    0.034013
  14 H :    0.018660
  15 H :    0.030091
  16 S :    0.117936
  17 C :   -0.106082
  18 C :   -0.055608
  19 C :   -0.068981
  20 C :   -0.142076
  21 H :    0.012567
  22 C :    0.131677
  23 H :   -0.019229
  24 H :    0.025108
  25 C :   -0.113374
  26 H :    0.027287
  27 H :    0.036033
  28 C :   -0.010279
  29 H :    0.018853
  30 H :    0.024287
  31 H :    0.051690
  32 H :    0.056302
  33 H :    0.076535
Sum of atomic charges:    0.0000000

LOEWDIN ATOMIC CHARGES
----------------------
   0 S :    0.387583
   1 C :   -0.183826
   2 C :   -0.057229
   3 C :   -0.068423
   4 C :   -0.194591
   5 H :    0.030643
   6 C :   -0.041883
   7 H :    0.033129
   8 H :    0.028795
   9 C :   -0.032579
  10 H :    0.034756
  11 H :    0.021170
  12 C :   -0.059242
  13 H :    0.030449
  14 H :    0.016412
  15 H :    0.026906
  16 S :    0.442007
  17 C :   -0.214476
  18 C :   -0.076914
  19 C :   -0.050001
  20 C :   -0.210875
  21 H :    0.027701
  22 C :   -0.033738
  23 H :    0.009935
  24 H :    0.035878
  25 C :   -0.042792
  26 H :    0.024734
  27 H :    0.024900
  28 C :   -0.052935
  29 H :    0.012570
  30 H :    0.020742
  31 H :    0.044242
  32 H :    0.022940
  33 H :    0.044014

  Mayer bond orders larger than 0.100000
B(  0-S ,  1-C ) :   1.1250 B(  0-S ,  4-C ) :   1.1501 B(  1-C ,  2-C ) :   1.6002
B(  1-C , 32-H ) :   0.9710 B(  2-C ,  3-C ) :   1.2047 B(  2-C ,  6-C ) :   1.0309
B(  3-C ,  4-C ) :   1.5893 B(  3-C ,  5-H ) :   0.9851 B(  4-C , 20-C ) :   1.0401
B(  6-C ,  7-H ) :   0.9430 B(  6-C ,  8-H ) :   0.9360 B(  6-C ,  9-C ) :   1.0513
B(  9-C , 10-H ) :   0.9560 B(  9-C , 11-H ) :   0.9641 B(  9-C , 12-C ) :   1.0668
B( 12-C , 13-H ) :   0.9759 B( 12-C , 14-H ) :   0.9751 B( 12-C , 15-H ) :   0.9761
B( 16-S , 17-C ) :   1.1861 B( 16-S , 20-C ) :   1.1534 B( 17-C , 18-C ) :   1.5722
B( 17-C , 33-H ) :   0.9611 B( 18-C , 19-C ) :   1.2631 B( 18-C , 21-H ) :   0.9968
B( 19-C , 20-C ) :   1.5587 B( 19-C , 22-C ) :   1.0404 B( 22-C , 23-H ) :   0.9292
B( 22-C , 24-H ) :   0.9131 B( 22-C , 25-C ) :   1.0683 B( 25-C , 26-H ) :   0.9529
B( 25-C , 27-H ) :   0.9572 B( 25-C , 28-C ) :   1.0739 B( 28-C , 29-H ) :   0.9773
B( 28-C , 30-H ) :   0.9719 B( 28-C , 31-H ) :   0.9784

Dispersion correction           -0.013680959
FINAL SINGLE POINT ENERGY     -1339.857125057162

DIPOLE MOMENT
-------------
                                X             Y             Z
Electronic contribution:     23.50025      -3.65042     -21.01726
Nuclear contribution   :    -24.11662       3.73917      21.28282
                        -----------------------------------------
Total Dipole Moment    :     -0.61637       0.08874       0.26555
                        -----------------------------------------
Magnitude (a.u.)       :      0.67699
Magnitude (Debye)      :      1.72076

Rotational constants in cm-1:     0.018289     0.008630     0.006059
Rotational constants in MHz :   548.278807   258.722920   181.634997

                             ****ORCA TERMINATED NORMALLY****
TOTAL RUN TIME: 0 days 0 hours 0 minutes 21 seconds 432 msec
