                         Program Version 4.2.1 -  RELEASE  -
|  1> ! wB97X-D3 SP def2-SVP
|  2> %pal
|  3> nprocs 24
|  4> end
|  5>
|  6> * xyz 0 1
|  7> S 	 -35.7499 	 13.8852 	 15.5796
|  8> C 	 -35.4281 	 15.0927 	 16.7884
|  9> C 	 -34.8746 	 16.2308 	 16.1218
| 10> C 	 -34.3622 	 15.9563 	 14.8207
| 11> C 	 -35 	 14.8326 	 14.3186
| 12> H 	 -33.8093 	 16.5838 	 14.1016
| 13> C 	 -34.6571 	 17.5171 	 16.837
| 14> H 	 -35.5589 	 17.9203 	 17.3176
| 15> H 	 -34.3836 	 18.2675 	 16.0989
| 16> C 	 -33.7199 	 17.4259 	 18.0843
| 17> H 	 -34.2099 	 16.7119 	 18.7657
| 18> H 	 -32.7532 	 16.9967 	 17.642
| 19> C 	 -33.4592 	 18.7949 	 18.7299
| 20> H 	 -34.3615 	 19.2449 	 19.2267
| 21> H 	 -32.69 	 18.7415 	 19.4438
| 22> H 	 -33.173 	 19.4906 	 18.017
| 23> S 	 -34.5398 	 12.8323 	 12.59
| 24> C 	 -34.9319 	 13.0988 	 10.8777
| 25> C 	 -35.0325 	 14.4767 	 10.6174
| 26> C 	 -34.9686 	 15.3048 	 11.7548
| 27> C 	 -34.8979 	 14.4932 	 12.8858
| 28> H 	 -35.1121 	 14.8332 	 9.63408
| 29> C 	 -35.1876 	 16.8357 	 11.7259
| 30> H 	 -35.7104 	 17.0854 	 12.638
| 31> H 	 -35.8719 	 17.1175 	 10.9124
| 32> C 	 -33.9739 	 17.7573 	 11.6759
| 33> H 	 -33.5703 	 17.5023 	 10.7011
| 34> H 	 -33.209 	 17.3872 	 12.3841
| 35> C 	 -34.1482 	 19.2808 	 11.8642
| 36> H 	 -34.5055 	 19.5402 	 12.8585
| 37> H 	 -34.8968 	 19.5342 	 11.0537
| 38> H 	 -33.2511 	 19.7717 	 11.6027
| 39> H 	 -35.7537 	 15.0801 	 17.8089
| 40> H 	 -34.9894 	 12.3434 	 10.1512
| 41> *
| 42>
| 43>                          ****END OF INPUT****

CARTESIAN COORDINATES (ANGSTROEM)
---------------------------------
  S    -35.749900   13.885200   15.579600
  C    -35.428100   15.092700   16.788400
  C    -34.874600   16.230800   16.121800
  C    -34.362200   15.956300   14.820700
  C    -35.000000   14.832600   14.318600
  H    -33.809300   16.583800   14.101600
  C    -34.657100   17.517100   16.837000
  H    -35.558900   17.920300   17.317600
  H    -34.383600   18.267500   16.098900
  C    -33.719900   17.425900   18.084300
  H    -34.209900   16.711900   18.765700
  H    -32.753200   16.996700   17.642000
  C    -33.459200   18.794900   18.729900
  H    -34.361500   19.244900   19.226700
  H    -32.690000   18.741500   19.443800
  H    -33.173000   19.490600   18.017000
  S    -34.539800   12.832300   12.590000
  C    -34.931900   13.098800   10.877700
  C    -35.032500   14.476700   10.617400
  C    -34.968600   15.304800   11.754800
  C    -34.897900   14.493200   12.885800
  H    -35.112100   14.833200    9.634080
  C    -35.187600   16.835700   11.725900
  H    -35.710400   17.085400   12.638000
  H    -35.871900   17.117500   10.912400
  C    -33.973900   17.757300   11.675900
  H    -33.570300   17.502300   10.701100
  H    -33.209000   17.387200   12.384100
  C    -34.148200   19.280800   11.864200
  H    -34.505500   19.540200   12.858500
  H    -34.896800   19.534200   11.053700
  H    -33.251100   19.771700   11.602700
  H    -35.753700   15.080100   17.808900
  H    -34.989400   12.343400   10.151200

 Total Charge           Charge          ....    0
 Multiplicity           Mult            ....    1
 Number of Electrons    NEL             ....  134
 Basis Dimension        Dim             ....  322

ORBITAL ENERGIES
----------------

  NO   OCC          E(Eh)            E(eV)
   0   2.0000     -88.969759     -2420.9902
   1   2.0000     -88.967231     -2420.9214
   2   2.0000     -10.327077      -281.0141
   3   2.0000     -10.326792      -281.0063
   4   2.0000     -10.316063      -280.7143
   5   2.0000     -10.314390      -280.6688
   6   2.0000     -10.306297      -280.4486
   7   2.0000     -10.304085      -280.3884
   8   2.0000     -10.295211      -280.1469
   9   2.0000     -10.295189      -280.1463
  10   2.0000     -10.294482      -280.1271
  11   2.0000     -10.293138      -280.0905
  12   2.0000     -10.289704      -279.9971
  13   2.0000     -10.287358      -279.9333
  14   2.0000     -10.286722      -279.9159
  15   2.0000     -10.274127      -279.5732
  16   2.0000      -8.084080      -219.9790
  17   2.0000      -8.082078      -219.9245
  18   2.0000      -6.042624      -164.4282
  19   2.0000      -6.040416      -164.3681
  20   2.0000      -6.038507      -164.3161
  21   2.0000      -6.036737      -164.2680
  22   2.0000      -6.034960      -164.2196
  23   2.0000      -6.032845      -164.1621
  24   2.0000      -1.008080       -27.4312
  25   2.0000      -0.983779       -26.7700
  26   2.0000      -0.911082       -24.7918
  27   2.0000      -0.908496       -24.7214
  28   2.0000      -0.865749       -23.5582
  29   2.0000      -0.857065       -23.3219
  30   2.0000      -0.849258       -23.1095
  31   2.0000      -0.813399       -22.1337
  32   2.0000      -0.786616       -21.4049
  33   2.0000      -0.768967       -20.9247
  34   2.0000      -0.705248       -19.1908
  35   2.0000      -0.698633       -19.0108
  36   2.0000      -0.691268       -18.8104
  37   2.0000      -0.669450       -18.2167
  38   2.0000      -0.642541       -17.4844
  39   2.0000      -0.613696       -16.6995
  40   2.0000      -0.598346       -16.2818
  41   2.0000      -0.572148       -15.5689
  42   2.0000      -0.567092       -15.4314
  43   2.0000      -0.556954       -15.1555
  44   2.0000      -0.527964       -14.3666
  45   2.0000      -0.525264       -14.2932
  46   2.0000      -0.523445       -14.2437
  47   2.0000      -0.515416       -14.0252
  48   2.0000      -0.505964       -13.7680
  49   2.0000      -0.500758       -13.6263
  50   2.0000      -0.492585       -13.4039
  51   2.0000      -0.483412       -13.1543
  52   2.0000      -0.473001       -12.8710
  53   2.0000      -0.465943       -12.6790
  54   2.0000      -0.462980       -12.5983
  55   2.0000      -0.451536       -12.2869
  56   2.0000      -0.447538       -12.1781
  57   2.0000      -0.439866       -11.9694
  58   2.0000      -0.436285       -11.8719
  59   2.0000      -0.422874       -11.5070
  60   2.0000      -0.420449       -11.4410
  61   2.0000      -0.416900       -11.3444
  62   2.0000      -0.411639       -11.2013
  63   2.0000      -0.344283        -9.3684
  64   2.0000      -0.334532        -9.1031
  65   2.0000      -0.323357        -8.7990
  66   2.0000      -0.284589        -7.7441
  67   0.0000       0.019705         0.5362
  68   0.0000       0.072988         1.9861
  69   0.0000       0.103653         2.8205
  70   0.0000       0.116328         3.1654
  71   0.0000       0.125932         3.4268

MULLIKEN ATOMIC CHARGES
-----------------------
   0 S :    0.130739
   1 C :   -0.121550
   2 C :   -0.082449
   3 C :    0.028954
   4 C :   -0.133722
   5 H :    0.006686
   6 C :    0.044074
   7 H :    0.022705
   8 H :    0.012507
   9 C :   -0.118593
  10 H :    0.035938
  11 H :    0.043399
  12 C :    0.004678
  13 H :    0.030539
  14 H :    0.026859
  15 H :    0.011460
  16 S :    0.114289
  17 C :   -0.074171
  18 C :   -0.024297
  19 C :   -0.000023
  20 C :   -0.187171
  21 H :   -0.003428
  22 C :    0.052953
  23 H :    0.024182
  24 H :    0.024415
  25 C :   -0.108395
  26 H :    0.016499
  27 H :    0.032175
  28 C :   -0.012581
  29 H :    0.042358
  30 H :    0.034021
  31 H :    0.036467
  32 H :    0.054800
  33 H :    0.035682
Sum of atomic charges:   -0.0000000

LOEWDIN ATOMIC CHARGES
----------------------
   0 S :    0.420279
   1 C :   -0.211543
   2 C :   -0.054304
   3 C :   -0.065205
   4 C :   -0.199934
   5 H :    0.036254
   6 C :   -0.045216
   7 H :    0.031028
   8 H :    0.023710
   9 C :   -0.036949
  10 H :    0.022935
  11 H :    0.031295
  12 C :   -0.061212
  13 H :    0.031259
  14 H :    0.021674
  15 H :    0.016713
  16 S :    0.410313
  17 C :   -0.174101
  18 C :   -0.056031
  19 C :   -0.058106
  20 C :   -0.190601
  21 H :    0.022257
  22 C :   -0.033446
  23 H :    0.026864
  24 H :    0.030651
  25 C :   -0.048748
  26 H :    0.021605
  27 H :    0.018036
  28 C :   -0.056241
  29 H :    0.025837
  30 H :    0.034256
  31 H :    0.024956
  32 H :    0.025915
  33 H :    0.015799

  Mayer bond orders larger than 0.100000
B(  0-S ,  1-C ) :   1.1379 B(  0-S ,  4-C ) :   1.1695 B(  1-C ,  2-C ) :   1.5492
B(  1-C ,  4-C ) :   0.1030 B(  1-C , 32-H ) :   0.9743 B(  2-C ,  3-C ) :   1.2531
B(  2-C ,  6-C ) :   1.0553 B(  3-C ,  4-C ) :   1.5319 B(  3-C ,  5-H ) :   0.9794
B(  4-C , 20-C ) :   1.0449 B(  6-C ,  7-H ) :   0.9341 B(  6-C ,  8-H ) :   0.9434
B(  6-C ,  9-C ) :   1.0492 B(  9-C , 10-H ) :   0.9558 B(  9-C , 11-H ) :   0.9586
B(  9-C , 12-C ) :   1.0806 B( 12-C , 13-H ) :   0.9709 B( 12-C , 14-H ) :   0.9733
B( 12-C , 15-H ) :   0.9720 B( 16-S , 17-C ) :   1.1358 B( 16-S , 20-C ) :   1.1755
B( 17-C , 18-C ) :   1.5907 B( 17-C , 20-C ) :   0.1060 B( 17-C , 33-H ) :   0.9798
B( 18-C , 19-C ) :   1.2575 B( 18-C , 21-H ) :   0.9961 B( 19-C , 20-C ) :   1.5650
B( 19-C , 22-C ) :   1.0343 B( 22-C , 23-H ) :   0.9304 B( 22-C , 24-H ) :   0.9375
B( 22-C , 25-C ) :   1.0545 B( 25-C , 26-H ) :   0.9487 B( 25-C , 27-H ) :   0.9470
B( 25-C , 28-C ) :   1.0786 B( 28-C , 29-H ) :   0.9740 B( 28-C , 30-H ) :   0.9736
B( 28-C , 31-H ) :   0.9722

Dispersion correction           -0.014217614
FINAL SINGLE POINT ENERGY     -1339.858064104329

DIPOLE MOMENT
-------------
                                X             Y             Z
Electronic contribution:     -6.83115     -31.06566      -6.13790
Nuclear contribution   :      6.91831      31.79808       6.01489
                        -----------------------------------------
Total Dipole Moment    :      0.08716       0.73242      -0.12301
                        -----------------------------------------
Magnitude (a.u.)       :      0.74778
Magnitude (Debye)      :      1.90069

Rotational constants in cm-1:     0.018190     0.008958     0.006327
Rotational constants in MHz :   545.330720   268.545797   189.683347

                             ****ORCA TERMINATED NORMALLY****
TOTAL RUN TIME: 0 days 0 hours 0 minutes 21 seconds 871 msec
