                         Program Version 4.2.1 -  RELEASE  -
|  1> ! wB97X-D3 SP def2-SVP
|  2> %pal
|  3> nprocs 24
|  4> end
|  5>
|  6> * xyz 0 1
|  7> S 	 -69.3898 	 11.5844 	 -74.9596
|  8> C 	 -69.1294 	 13.0885 	 -75.8051
|  9> C 	 -69.6193 	 14.1979 	 -75.1449
| 10> C 	 -70.1842 	 13.7723 	 -73.9107
| 11> C 	 -70.116 	 12.448 	 -73.643
| 12> H 	 -70.6657 	 14.4232 	 -73.1558
| 13> C 	 -69.6898 	 15.5576 	 -75.7922
| 14> H 	 -70.6359 	 15.5665 	 -76.4135
| 15> H 	 -68.9708 	 15.5871 	 -76.5388
| 16> C 	 -69.8095 	 16.7447 	 -74.8339
| 17> H 	 -69.1231 	 16.6179 	 -73.9863
| 18> H 	 -69.4996 	 17.5762 	 -75.3599
| 19> C 	 -71.14 	 17.1269 	 -74.141
| 20> H 	 -71.5521 	 16.3143 	 -73.4501
| 21> H 	 -71.015 	 18.044 	 -73.5462
| 22> H 	 -71.7849 	 17.239 	 -74.9456
| 23> S 	 -70.2432 	 9.98769 	 -72.2821
| 24> C 	 -70.7583 	 9.89072 	 -70.6551
| 25> C 	 -71.2423 	 11.1013 	 -70.194
| 26> C 	 -71.1453 	 12.1653 	 -71.2109
| 27> C 	 -70.4964 	 11.747 	 -72.3924
| 28> H 	 -71.6307 	 11.1648 	 -69.209
| 29> C 	 -71.6605 	 13.5873 	 -70.9621
| 30> H 	 -72.5011 	 13.5746 	 -70.1573
| 31> H 	 -72.0794 	 13.9095 	 -71.9255
| 32> C 	 -70.6442 	 14.7051 	 -70.6016
| 33> H 	 -69.9222 	 14.7736 	 -71.3838
| 34> H 	 -70.1515 	 14.1873 	 -69.7259
| 35> C 	 -71.2176 	 16.081 	 -70.4061
| 36> H 	 -71.5651 	 16.525 	 -71.2952
| 37> H 	 -70.2811 	 16.6171 	 -69.9936
| 38> H 	 -72.0046 	 15.9057 	 -69.6964
| 39> H 	 -68.8412 	 13.1945 	 -76.8264
| 40> H 	 -70.7412 	 9.06758 	 -69.9728
| 41> *
| 42>
| 43>                          ****END OF INPUT****

CARTESIAN COORDINATES (ANGSTROEM)
---------------------------------
  S    -69.389800   11.584400  -74.959600
  C    -69.129400   13.088500  -75.805100
  C    -69.619300   14.197900  -75.144900
  C    -70.184200   13.772300  -73.910700
  C    -70.116000   12.448000  -73.643000
  H    -70.665700   14.423200  -73.155800
  C    -69.689800   15.557600  -75.792200
  H    -70.635900   15.566500  -76.413500
  H    -68.970800   15.587100  -76.538800
  C    -69.809500   16.744700  -74.833900
  H    -69.123100   16.617900  -73.986300
  H    -69.499600   17.576200  -75.359900
  C    -71.140000   17.126900  -74.141000
  H    -71.552100   16.314300  -73.450100
  H    -71.015000   18.044000  -73.546200
  H    -71.784900   17.239000  -74.945600
  S    -70.243200    9.987690  -72.282100
  C    -70.758300    9.890720  -70.655100
  C    -71.242300   11.101300  -70.194000
  C    -71.145300   12.165300  -71.210900
  C    -70.496400   11.747000  -72.392400
  H    -71.630700   11.164800  -69.209000
  C    -71.660500   13.587300  -70.962100
  H    -72.501100   13.574600  -70.157300
  H    -72.079400   13.909500  -71.925500
  C    -70.644200   14.705100  -70.601600
  H    -69.922200   14.773600  -71.383800
  H    -70.151500   14.187300  -69.725900
  C    -71.217600   16.081000  -70.406100
  H    -71.565100   16.525000  -71.295200
  H    -70.281100   16.617100  -69.993600
  H    -72.004600   15.905700  -69.696400
  H    -68.841200   13.194500  -76.826400
  H    -70.741200    9.067580  -69.972800

 Total Charge           Charge          ....    0
 Multiplicity           Mult            ....    1
 Number of Electrons    NEL             ....  134
 Basis Dimension        Dim             ....  322

ORBITAL ENERGIES
----------------

  NO   OCC          E(Eh)            E(eV)
   0   2.0000     -88.967970     -2420.9415
   1   2.0000     -88.966835     -2420.9107
   2   2.0000     -10.335869      -281.2533
   3   2.0000     -10.330593      -281.1097
   4   2.0000     -10.315266      -280.6927
   5   2.0000     -10.312808      -280.6258
   6   2.0000     -10.308983      -280.5217
   7   2.0000     -10.300823      -280.2997
   8   2.0000     -10.300466      -280.2899
   9   2.0000     -10.297758      -280.2162
  10   2.0000     -10.295734      -280.1612
  11   2.0000     -10.291779      -280.0535
  12   2.0000     -10.287163      -279.9279
  13   2.0000     -10.286078      -279.8984
  14   2.0000     -10.285129      -279.8726
  15   2.0000     -10.282709      -279.8067
  16   2.0000      -8.082993      -219.9494
  17   2.0000      -8.081613      -219.9119
  18   2.0000      -6.041534      -164.3985
  19   2.0000      -6.040250      -164.3635
  20   2.0000      -6.037605      -164.2916
  21   2.0000      -6.036116      -164.2511
  22   2.0000      -6.033565      -164.1817
  23   2.0000      -6.032244      -164.1457
  24   2.0000      -1.009545       -27.4711
  25   2.0000      -0.985212       -26.8090
  26   2.0000      -0.917996       -24.9800
  27   2.0000      -0.911931       -24.8149
  28   2.0000      -0.872224       -23.7344
  29   2.0000      -0.856468       -23.3057
  30   2.0000      -0.844446       -22.9786
  31   2.0000      -0.824094       -22.4247
  32   2.0000      -0.789224       -21.4759
  33   2.0000      -0.774464       -21.0742
  34   2.0000      -0.711744       -19.3675
  35   2.0000      -0.698106       -18.9964
  36   2.0000      -0.687391       -18.7049
  37   2.0000      -0.663015       -18.0415
  38   2.0000      -0.642273       -17.4771
  39   2.0000      -0.629947       -17.1417
  40   2.0000      -0.591671       -16.1002
  41   2.0000      -0.579101       -15.7581
  42   2.0000      -0.575668       -15.6647
  43   2.0000      -0.554008       -15.0753
  44   2.0000      -0.541189       -14.7265
  45   2.0000      -0.525300       -14.2941
  46   2.0000      -0.520268       -14.1572
  47   2.0000      -0.516491       -14.0544
  48   2.0000      -0.507851       -13.8193
  49   2.0000      -0.498213       -13.5571
  50   2.0000      -0.495284       -13.4774
  51   2.0000      -0.492432       -13.3998
  52   2.0000      -0.482438       -13.1278
  53   2.0000      -0.469633       -12.7794
  54   2.0000      -0.462354       -12.5813
  55   2.0000      -0.455874       -12.4050
  56   2.0000      -0.450916       -12.2700
  57   2.0000      -0.431617       -11.7449
  58   2.0000      -0.427592       -11.6354
  59   2.0000      -0.425372       -11.5750
  60   2.0000      -0.418255       -11.3813
  61   2.0000      -0.413863       -11.2618
  62   2.0000      -0.409567       -11.1449
  63   2.0000      -0.361768        -9.8442
  64   2.0000      -0.334945        -9.1143
  65   2.0000      -0.325170        -8.8483
  66   2.0000      -0.282828        -7.6961
  67   0.0000       0.020811         0.5663
  68   0.0000       0.090440         2.4610
  69   0.0000       0.092227         2.5096
  70   0.0000       0.120397         3.2762
  71   0.0000       0.121695         3.3115

MULLIKEN ATOMIC CHARGES
-----------------------
   0 S :    0.112204
   1 C :   -0.108013
   2 C :   -0.087241
   3 C :   -0.024761
   4 C :   -0.079048
   5 H :   -0.035330
   6 C :    0.106904
   7 H :    0.039689
   8 H :    0.003042
   9 C :   -0.064049
  10 H :    0.027794
  11 H :    0.012900
  12 C :   -0.054223
  13 H :    0.046193
  14 H :    0.052776
  15 H :    0.016974
  16 S :    0.096930
  17 C :   -0.062295
  18 C :   -0.031756
  19 C :   -0.056725
  20 C :   -0.110390
  21 H :    0.007127
  22 C :   -0.009335
  23 H :    0.037603
  24 H :    0.023569
  25 C :   -0.106674
  26 H :    0.024891
  27 H :    0.035330
  28 C :    0.002979
  29 H :    0.015211
  30 H :    0.058943
  31 H :    0.028353
  32 H :    0.031294
  33 H :    0.049133
Sum of atomic charges:   -0.0000000

LOEWDIN ATOMIC CHARGES
----------------------
   0 S :    0.409759
   1 C :   -0.195628
   2 C :   -0.057575
   3 C :   -0.076316
   4 C :   -0.187415
   5 H :    0.029331
   6 C :   -0.025860
   7 H :    0.043371
   8 H :    0.023449
   9 C :   -0.039408
  10 H :    0.024563
  11 H :    0.018363
  12 C :   -0.057925
  13 H :    0.026054
  14 H :    0.034033
  15 H :    0.014183
  16 S :    0.404636
  17 C :   -0.193720
  18 C :   -0.070688
  19 C :   -0.055678
  20 C :   -0.183053
  21 H :    0.026231
  22 C :   -0.046654
  23 H :    0.036536
  24 H :    0.021661
  25 C :   -0.051084
  26 H :    0.013623
  27 H :    0.030857
  28 C :   -0.056981
  29 H :    0.015447
  30 H :    0.049043
  31 H :    0.023919
  32 H :    0.021687
  33 H :    0.031239

  Mayer bond orders larger than 0.100000
B(  0-S ,  1-C ) :   1.1371 B(  0-S ,  4-C ) :   1.1342 B(  1-C ,  2-C ) :   1.6257
B(  1-C , 32-H ) :   0.9621 B(  2-C ,  3-C ) :   1.2401 B(  2-C ,  6-C ) :   1.0274
B(  3-C ,  4-C ) :   1.6018 B(  3-C ,  5-H ) :   0.9702 B(  4-C , 20-C ) :   1.0704
B(  6-C ,  7-H ) :   0.9297 B(  6-C ,  8-H ) :   0.9298 B(  6-C ,  9-C ) :   1.0624
B(  9-C , 10-H ) :   0.9623 B(  9-C , 11-H ) :   0.9497 B(  9-C , 12-C ) :   1.0692
B( 12-C , 13-H ) :   0.9668 B( 12-C , 14-H ) :   0.9709 B( 12-C , 15-H ) :   0.9653
B( 16-S , 17-C ) :   1.1597 B( 16-S , 20-C ) :   1.1258 B( 17-C , 18-C ) :   1.6197
B( 17-C , 33-H ) :   0.9663 B( 18-C , 19-C ) :   1.2317 B( 18-C , 21-H ) :   0.9956
B( 19-C , 20-C ) :   1.5798 B( 19-C , 22-C ) :   1.0486 B( 22-C , 23-H ) :   0.9369
B( 22-C , 24-H ) :   0.9265 B( 22-C , 25-C ) :   1.0574 B( 25-C , 26-H ) :   0.9466
B( 25-C , 27-H ) :   0.9523 B( 25-C , 28-C ) :   1.0675 B( 28-C , 29-H ) :   0.9662
B( 28-C , 30-H ) :   0.9699 B( 28-C , 31-H ) :   0.9731

Dispersion correction           -0.015656762
FINAL SINGLE POINT ENERGY     -1339.856573197377

DIPOLE MOMENT
-------------
                                X             Y             Z
Electronic contribution:      6.35851     -32.27826      -6.35389
Nuclear contribution   :     -6.55515      33.01030       6.43545
                        -----------------------------------------
Total Dipole Moment    :     -0.19665       0.73204       0.08156
                        -----------------------------------------
Magnitude (a.u.)       :      0.76236
Magnitude (Debye)      :      1.93778

Rotational constants in cm-1:     0.017710     0.010936     0.006948
Rotational constants in MHz :   530.925835   327.853762   208.296565

                             ****ORCA TERMINATED NORMALLY****
TOTAL RUN TIME: 0 days 0 hours 0 minutes 23 seconds 303 msec
