                         Program Version 4.2.1 -  RELEASE  -
|  1> ! wB97X-D3 SP def2-SVP
|  2> %pal
|  3> nprocs 24
|  4> end
|  5>
|  6> * xyz 0 1
|  7> S 	 -44.304 	 25.6559 	 30.0178
|  8> C 	 -45.0325 	 24.9533 	 28.5992
|  9> C 	 -46.2732 	 25.5516 	 28.3863
| 10> C 	 -46.622 	 26.5846 	 29.337
| 11> C 	 -45.6448 	 26.7492 	 30.3505
| 12> H 	 -47.5269 	 27.1697 	 29.3586
| 13> C 	 -47.1495 	 25.4545 	 27.1457
| 14> H 	 -46.6973 	 24.697 	 26.4591
| 15> H 	 -47.0618 	 26.4454 	 26.5753
| 16> C 	 -48.5638 	 24.9947 	 27.2711
| 17> H 	 -48.5814 	 24.0866 	 27.8042
| 18> H 	 -49.2339 	 25.7184 	 27.7704
| 19> C 	 -49.1891 	 24.7614 	 25.9222
| 20> H 	 -49.0898 	 25.783 	 25.4432
| 21> H 	 -48.6108 	 24.0283 	 25.4597
| 22> H 	 -50.2069 	 24.4318 	 25.8037
| 23> S 	 -44.6576 	 28.2486 	 32.393
| 24> C 	 -45.5099 	 28.1784 	 33.9283
| 25> C 	 -46.7071 	 27.5828 	 33.8555
| 26> C 	 -46.8267 	 26.8982 	 32.5811
| 27> C 	 -45.8352 	 27.1998 	 31.6854
| 28> H 	 -47.4206 	 27.5225 	 34.7108
| 29> C 	 -47.9842 	 25.942 	 32.223
| 30> H 	 -48.2432 	 26.2336 	 31.1657
| 31> H 	 -48.8094 	 26.2822 	 32.8693
| 32> C 	 -47.7259 	 24.4607 	 32.5035
| 33> H 	 -47.4379 	 24.3258 	 33.5314
| 34> H 	 -46.9239 	 24.1007 	 31.9633
| 35> C 	 -49.0239 	 23.6445 	 32.1268
| 36> H 	 -49.5985 	 24.1784 	 31.4377
| 37> H 	 -49.7218 	 23.5284 	 32.9731
| 38> H 	 -48.6912 	 22.7314 	 31.6665
| 39> H 	 -44.5992 	 24.4012 	 27.8174
| 40> H 	 -45.1891 	 28.7259 	 34.7784
| 41> *
| 42>
| 43>                          ****END OF INPUT****

CARTESIAN COORDINATES (ANGSTROEM)
---------------------------------
  S    -44.304000   25.655900   30.017800
  C    -45.032500   24.953300   28.599200
  C    -46.273200   25.551600   28.386300
  C    -46.622000   26.584600   29.337000
  C    -45.644800   26.749200   30.350500
  H    -47.526900   27.169700   29.358600
  C    -47.149500   25.454500   27.145700
  H    -46.697300   24.697000   26.459100
  H    -47.061800   26.445400   26.575300
  C    -48.563800   24.994700   27.271100
  H    -48.581400   24.086600   27.804200
  H    -49.233900   25.718400   27.770400
  C    -49.189100   24.761400   25.922200
  H    -49.089800   25.783000   25.443200
  H    -48.610800   24.028300   25.459700
  H    -50.206900   24.431800   25.803700
  S    -44.657600   28.248600   32.393000
  C    -45.509900   28.178400   33.928300
  C    -46.707100   27.582800   33.855500
  C    -46.826700   26.898200   32.581100
  C    -45.835200   27.199800   31.685400
  H    -47.420600   27.522500   34.710800
  C    -47.984200   25.942000   32.223000
  H    -48.243200   26.233600   31.165700
  H    -48.809400   26.282200   32.869300
  C    -47.725900   24.460700   32.503500
  H    -47.437900   24.325800   33.531400
  H    -46.923900   24.100700   31.963300
  C    -49.023900   23.644500   32.126800
  H    -49.598500   24.178400   31.437700
  H    -49.721800   23.528400   32.973100
  H    -48.691200   22.731400   31.666500
  H    -44.599200   24.401200   27.817400
  H    -45.189100   28.725900   34.778400

 Total Charge           Charge          ....    0
 Multiplicity           Mult            ....    1
 Number of Electrons    NEL             ....  134
 Basis Dimension        Dim             ....  322

ORBITAL ENERGIES
----------------

  NO   OCC          E(Eh)            E(eV)
   0   2.0000     -88.966439     -2420.8999
   1   2.0000     -88.961266     -2420.7591
   2   2.0000     -10.329992      -281.0934
   3   2.0000     -10.317340      -280.7491
   4   2.0000     -10.317122      -280.7432
   5   2.0000     -10.312580      -280.6196
   6   2.0000     -10.306419      -280.4519
   7   2.0000     -10.300732      -280.2972
   8   2.0000     -10.300361      -280.2871
   9   2.0000     -10.299649      -280.2677
  10   2.0000     -10.296752      -280.1889
  11   2.0000     -10.291115      -280.0355
  12   2.0000     -10.281690      -279.7790
  13   2.0000     -10.276683      -279.6427
  14   2.0000     -10.275027      -279.5977
  15   2.0000     -10.271295      -279.4961
  16   2.0000      -8.080870      -219.8917
  17   2.0000      -8.076847      -219.7822
  18   2.0000      -6.039471      -164.3424
  19   2.0000      -6.035332      -164.2297
  20   2.0000      -6.035137      -164.2244
  21   2.0000      -6.031778      -164.1330
  22   2.0000      -6.031367      -164.1218
  23   2.0000      -6.027451      -164.0153
  24   2.0000      -1.010220       -27.4895
  25   2.0000      -0.983965       -26.7750
  26   2.0000      -0.921966       -25.0880
  27   2.0000      -0.902616       -24.5614
  28   2.0000      -0.879425       -23.9304
  29   2.0000      -0.850512       -23.1436
  30   2.0000      -0.844724       -22.9861
  31   2.0000      -0.816697       -22.2234
  32   2.0000      -0.778893       -21.1948
  33   2.0000      -0.767729       -20.8910
  34   2.0000      -0.713809       -19.4237
  35   2.0000      -0.700050       -19.0493
  36   2.0000      -0.696726       -18.9589
  37   2.0000      -0.663139       -18.0449
  38   2.0000      -0.644124       -17.5275
  39   2.0000      -0.620537       -16.8857
  40   2.0000      -0.589697       -16.0465
  41   2.0000      -0.583251       -15.8711
  42   2.0000      -0.571645       -15.5553
  43   2.0000      -0.559750       -15.2316
  44   2.0000      -0.527956       -14.3664
  45   2.0000      -0.523418       -14.2429
  46   2.0000      -0.518111       -14.0985
  47   2.0000      -0.510872       -13.9015
  48   2.0000      -0.505324       -13.7506
  49   2.0000      -0.502230       -13.6664
  50   2.0000      -0.491481       -13.3739
  51   2.0000      -0.485446       -13.2097
  52   2.0000      -0.473545       -12.8858
  53   2.0000      -0.464745       -12.6464
  54   2.0000      -0.456008       -12.4086
  55   2.0000      -0.449994       -12.2450
  56   2.0000      -0.446140       -12.1401
  57   2.0000      -0.440031       -11.9738
  58   2.0000      -0.428483       -11.6596
  59   2.0000      -0.421460       -11.4685
  60   2.0000      -0.419022       -11.4022
  61   2.0000      -0.416061       -11.3216
  62   2.0000      -0.405861       -11.0440
  63   2.0000      -0.344533        -9.3752
  64   2.0000      -0.330227        -8.9859
  65   2.0000      -0.329627        -8.9696
  66   2.0000      -0.297235        -8.0882
  67   0.0000       0.026335         0.7166
  68   0.0000       0.069198         1.8830
  69   0.0000       0.105272         2.8646
  70   0.0000       0.118465         3.2236
  71   0.0000       0.129623         3.5272

MULLIKEN ATOMIC CHARGES
-----------------------
   0 S :    0.106478
   1 C :   -0.066047
   2 C :   -0.102726
   3 C :    0.013369
   4 C :   -0.122073
   5 H :    0.030624
   6 C :   -0.010054
   7 H :    0.010074
   8 H :    0.053703
   9 C :   -0.039238
  10 H :    0.018487
  11 H :    0.027870
  12 C :   -0.040375
  13 H :    0.030413
  14 H :    0.012506
  15 H :    0.035365
  16 S :    0.100142
  17 C :   -0.070292
  18 C :   -0.027290
  19 C :   -0.086787
  20 C :   -0.152136
  21 H :    0.038331
  22 C :    0.042360
  23 H :    0.024961
  24 H :    0.013146
  25 C :   -0.009100
  26 H :    0.020382
  27 H :    0.013133
  28 C :   -0.022218
  29 H :    0.010415
  30 H :    0.035037
  31 H :    0.034702
  32 H :    0.034205
  33 H :    0.042634
Sum of atomic charges:   -0.0000000

LOEWDIN ATOMIC CHARGES
----------------------
   0 S :    0.414620
   1 C :   -0.195472
   2 C :   -0.065402
   3 C :   -0.052468
   4 C :   -0.195395
   5 H :    0.030123
   6 C :   -0.041505
   7 H :    0.028624
   8 H :    0.041436
   9 C :   -0.044090
  10 H :    0.018762
  11 H :    0.022433
  12 C :   -0.059842
  13 H :    0.032960
  14 H :    0.013403
  15 H :    0.025024
  16 S :    0.400410
  17 C :   -0.166845
  18 C :   -0.074595
  19 C :   -0.049470
  20 C :   -0.222697
  21 H :    0.042553
  22 C :   -0.034375
  23 H :    0.032448
  24 H :    0.026951
  25 C :   -0.025361
  26 H :    0.024149
  27 H :    0.014521
  28 C :   -0.056788
  29 H :    0.014916
  30 H :    0.028853
  31 H :    0.026554
  32 H :    0.024131
  33 H :    0.021431

  Mayer bond orders larger than 0.100000
B(  0-S ,  1-C ) :   1.1412 B(  0-S ,  4-C ) :   1.1583 B(  1-C ,  2-C ) :   1.5944
B(  1-C ,  4-C ) :   0.1046 B(  1-C , 32-H ) :   0.9687 B(  2-C ,  3-C ) :   1.2488
B(  2-C ,  6-C ) :   1.0281 B(  3-C ,  4-C ) :   1.5421 B(  3-C ,  5-H ) :   0.9932
B(  4-C , 20-C ) :   1.0261 B(  6-C ,  7-H ) :   0.9409 B(  6-C ,  8-H ) :   0.9403
B(  6-C ,  9-C ) :   1.0647 B(  9-C , 10-H ) :   0.9506 B(  9-C , 11-H ) :   0.9518
B(  9-C , 12-C ) :   1.0807 B( 12-C , 13-H ) :   0.9739 B( 12-C , 14-H ) :   0.9754
B( 12-C , 15-H ) :   0.9744 B( 16-S , 17-C ) :   1.1499 B( 16-S , 20-C ) :   1.1150
B( 17-C , 18-C ) :   1.6427 B( 17-C , 33-H ) :   0.9666 B( 18-C , 19-C ) :   1.2184
B( 18-C , 21-H ) :   0.9834 B( 19-C , 20-C ) :   1.6359 B( 19-C , 22-C ) :   1.0272
B( 22-C , 23-H ) :   0.9295 B( 22-C , 24-H ) :   0.9329 B( 22-C , 25-C ) :   1.0698
B( 25-C , 26-H ) :   0.9536 B( 25-C , 27-H ) :   0.9591 B( 25-C , 28-C ) :   1.0677
B( 28-C , 29-H ) :   0.9765 B( 28-C , 30-H ) :   0.9764 B( 28-C , 31-H ) :   0.9785

Dispersion correction           -0.014853032
FINAL SINGLE POINT ENERGY     -1339.860504276197

DIPOLE MOMENT
-------------
                                X             Y             Z
Electronic contribution:     25.62408      14.94346      12.02278
Nuclear contribution   :    -26.28823     -15.16193     -12.13877
                        -----------------------------------------
Total Dipole Moment    :     -0.66416      -0.21847      -0.11600
                        -----------------------------------------
Magnitude (a.u.)       :      0.70872
Magnitude (Debye)      :      1.80143

Rotational constants in cm-1:     0.019841     0.008924     0.007189
Rotational constants in MHz :   594.825217   267.522321   215.509129

                             ****ORCA TERMINATED NORMALLY****
TOTAL RUN TIME: 0 days 0 hours 0 minutes 22 seconds 438 msec
