                         Program Version 4.2.1 -  RELEASE  -
|  1> ! wB97X-D3 SP def2-SVP
|  2> %pal
|  3> nprocs 24
|  4> end
|  5>
|  6> * xyz 0 1
|  7> S 	 -101.243 	 6.62376 	 -122.774
|  8> C 	 -101.429 	 5.72355 	 -124.243
|  9> C 	 -102.727 	 5.24876 	 -124.356
| 10> C 	 -103.53 	 5.46123 	 -123.224
| 11> C 	 -102.88 	 6.22889 	 -122.214
| 12> H 	 -104.563 	 5.10075 	 -122.976
| 13> C 	 -103.169 	 4.44551 	 -125.507
| 14> H 	 -102.896 	 5.05275 	 -126.332
| 15> H 	 -104.263 	 4.45014 	 -125.552
| 16> C 	 -102.593 	 3.00637 	 -125.64
| 17> H 	 -101.487 	 3.08441 	 -125.593
| 18> H 	 -102.843 	 2.33379 	 -124.748
| 19> C 	 -103.034 	 2.49878 	 -127.021
| 20> H 	 -102.611 	 3.12822 	 -127.75
| 21> H 	 -102.716 	 1.50902 	 -127.169
| 22> H 	 -104.06 	 2.54909 	 -127.177
| 23> S 	 -105.162 	 6.89371 	 -120.95
| 24> C 	 -105.096 	 7.26737 	 -119.292
| 25> C 	 -103.821 	 7.24165 	 -118.736
| 26> C 	 -102.883 	 6.68144 	 -119.643
| 27> C 	 -103.444 	 6.56944 	 -120.909
| 28> H 	 -103.699 	 7.53862 	 -117.694
| 29> C 	 -101.445 	 6.3606 	 -119.204
| 30> H 	 -101.233 	 5.49917 	 -119.874
| 31> H 	 -101.262 	 6.14408 	 -118.152
| 32> C 	 -100.617 	 7.58193 	 -119.408
| 33> H 	 -101.014 	 8.50608 	 -118.94
| 34> H 	 -100.546 	 8.0102 	 -120.42
| 35> C 	 -99.1669 	 7.3745 	 -118.834
| 36> H 	 -98.5613 	 8.19856 	 -118.976
| 37> H 	 -98.6908 	 6.50913 	 -119.275
| 38> H 	 -99.1485 	 7.11218 	 -117.766
| 39> H 	 -100.616 	 5.45434 	 -124.879
| 40> H 	 -105.878 	 7.84531 	 -118.873
| 41> *
| 42>
| 43>                          ****END OF INPUT****

CARTESIAN COORDINATES (ANGSTROEM)
---------------------------------
  S    -101.243000    6.623760  -122.774000
  C    -101.429000    5.723550  -124.243000
  C    -102.727000    5.248760  -124.356000
  C    -103.530000    5.461230  -123.224000
  C    -102.880000    6.228890  -122.214000
  H    -104.563000    5.100750  -122.976000
  C    -103.169000    4.445510  -125.507000
  H    -102.896000    5.052750  -126.332000
  H    -104.263000    4.450140  -125.552000
  C    -102.593000    3.006370  -125.640000
  H    -101.487000    3.084410  -125.593000
  H    -102.843000    2.333790  -124.748000
  C    -103.034000    2.498780  -127.021000
  H    -102.611000    3.128220  -127.750000
  H    -102.716000    1.509020  -127.169000
  H    -104.060000    2.549090  -127.177000
  S    -105.162000    6.893710  -120.950000
  C    -105.096000    7.267370  -119.292000
  C    -103.821000    7.241650  -118.736000
  C    -102.883000    6.681440  -119.643000
  C    -103.444000    6.569440  -120.909000
  H    -103.699000    7.538620  -117.694000
  C    -101.445000    6.360600  -119.204000
  H    -101.233000    5.499170  -119.874000
  H    -101.262000    6.144080  -118.152000
  C    -100.617000    7.581930  -119.408000
  H    -101.014000    8.506080  -118.940000
  H    -100.546000    8.010200  -120.420000
  C    -99.166900    7.374500  -118.834000
  H    -98.561300    8.198560  -118.976000
  H    -98.690800    6.509130  -119.275000
  H    -99.148500    7.112180  -117.766000
  H    -100.616000    5.454340  -124.879000
  H    -105.878000    7.845310  -118.873000

 Total Charge           Charge          ....    0
 Multiplicity           Mult            ....    1
 Number of Electrons    NEL             ....  134
 Basis Dimension        Dim             ....  322

ORBITAL ENERGIES
----------------

  NO   OCC          E(Eh)            E(eV)
   0   2.0000     -88.967960     -2420.9413
   1   2.0000     -88.967806     -2420.9371
   2   2.0000     -10.332598      -281.1643
   3   2.0000     -10.326974      -281.0113
   4   2.0000     -10.308511      -280.5088
   5   2.0000     -10.307709      -280.4870
   6   2.0000     -10.305459      -280.4258
   7   2.0000     -10.295671      -280.1595
   8   2.0000     -10.295440      -280.1532
   9   2.0000     -10.295012      -280.1415
  10   2.0000     -10.294477      -280.1270
  11   2.0000     -10.294138      -280.1177
  12   2.0000     -10.285526      -279.8834
  13   2.0000     -10.282427      -279.7991
  14   2.0000     -10.269707      -279.4529
  15   2.0000     -10.265680      -279.3434
  16   2.0000      -8.083500      -219.9632
  17   2.0000      -8.081586      -219.9111
  18   2.0000      -6.041795      -164.4056
  19   2.0000      -6.040088      -164.3592
  20   2.0000      -6.038002      -164.3024
  21   2.0000      -6.036040      -164.2490
  22   2.0000      -6.034313      -164.2020
  23   2.0000      -6.032653      -164.1568
  24   2.0000      -1.008675       -27.4475
  25   2.0000      -0.985729       -26.8231
  26   2.0000      -0.914456       -24.8836
  27   2.0000      -0.911868       -24.8132
  28   2.0000      -0.868324       -23.6283
  29   2.0000      -0.854554       -23.2536
  30   2.0000      -0.848405       -23.0863
  31   2.0000      -0.809337       -22.0232
  32   2.0000      -0.784837       -21.3565
  33   2.0000      -0.768319       -20.9070
  34   2.0000      -0.707571       -19.2540
  35   2.0000      -0.704257       -19.1638
  36   2.0000      -0.695171       -18.9166
  37   2.0000      -0.670255       -18.2386
  38   2.0000      -0.634605       -17.2685
  39   2.0000      -0.612102       -16.6561
  40   2.0000      -0.601430       -16.3657
  41   2.0000      -0.569973       -15.5098
  42   2.0000      -0.565390       -15.3850
  43   2.0000      -0.554081       -15.0773
  44   2.0000      -0.531116       -14.4524
  45   2.0000      -0.528162       -14.3720
  46   2.0000      -0.516270       -14.0484
  47   2.0000      -0.512889       -13.9564
  48   2.0000      -0.501303       -13.6411
  49   2.0000      -0.497104       -13.5269
  50   2.0000      -0.494270       -13.4498
  51   2.0000      -0.475556       -12.9405
  52   2.0000      -0.468931       -12.7603
  53   2.0000      -0.468502       -12.7486
  54   2.0000      -0.461739       -12.5646
  55   2.0000      -0.453927       -12.3520
  56   2.0000      -0.449856       -12.2412
  57   2.0000      -0.445106       -12.1119
  58   2.0000      -0.434097       -11.8124
  59   2.0000      -0.426273       -11.5995
  60   2.0000      -0.418937       -11.3999
  61   2.0000      -0.414576       -11.2812
  62   2.0000      -0.400676       -10.9030
  63   2.0000      -0.351232        -9.5575
  64   2.0000      -0.334434        -9.1004
  65   2.0000      -0.329532        -8.9670
  66   2.0000      -0.279068        -7.5938
  67   0.0000       0.020596         0.5604
  68   0.0000       0.076739         2.0882
  69   0.0000       0.107210         2.9173
  70   0.0000       0.119272         3.2456
  71   0.0000       0.131814         3.5868

MULLIKEN ATOMIC CHARGES
-----------------------
   0 S :    0.105952
   1 C :   -0.125535
   2 C :   -0.057594
   3 C :   -0.018108
   4 C :   -0.140228
   5 H :    0.036260
   6 C :    0.051100
   7 H :    0.017102
   8 H :    0.016110
   9 C :   -0.096790
  10 H :    0.024834
  11 H :    0.046457
  12 C :    0.036787
  13 H :    0.011930
  14 H :    0.021497
  15 H :    0.012622
  16 S :    0.112979
  17 C :   -0.073645
  18 C :   -0.052660
  19 C :   -0.059173
  20 C :   -0.163332
  21 H :    0.027928
  22 C :    0.108958
  23 H :    0.046015
  24 H :    0.023985
  25 C :   -0.110231
  26 H :    0.024564
  27 H :    0.027616
  28 C :   -0.012911
  29 H :    0.020304
  30 H :    0.021120
  31 H :    0.022204
  32 H :    0.045225
  33 H :    0.048657
Sum of atomic charges:   -0.0000000

LOEWDIN ATOMIC CHARGES
----------------------
   0 S :    0.420268
   1 C :   -0.208549
   2 C :   -0.065628
   3 C :   -0.080256
   4 C :   -0.189974
   5 H :    0.034767
   6 C :   -0.037396
   7 H :    0.028868
   8 H :    0.029631
   9 C :   -0.035630
  10 H :    0.022564
  11 H :    0.032299
  12 C :   -0.050282
  13 H :    0.022328
  14 H :    0.020371
  15 H :    0.017599
  16 S :    0.437601
  17 C :   -0.199374
  18 C :   -0.066565
  19 C :   -0.050088
  20 C :   -0.199424
  21 H :    0.035196
  22 C :   -0.029887
  23 H :    0.037778
  24 H :    0.035476
  25 C :   -0.048971
  26 H :    0.027529
  27 H :    0.016689
  28 C :   -0.062057
  29 H :    0.014686
  30 H :    0.023798
  31 H :    0.023637
  32 H :    0.024365
  33 H :    0.018632

  Mayer bond orders larger than 0.100000
B(  0-S ,  1-C ) :   1.1413 B(  0-S ,  4-C ) :   1.1628 B(  1-C ,  2-C ) :   1.5590
B(  1-C ,  4-C ) :   0.1049 B(  1-C , 32-H ) :   0.9753 B(  2-C ,  3-C ) :   1.2916
B(  2-C ,  6-C ) :   1.0234 B(  3-C ,  4-C ) :   1.5115 B(  3-C ,  5-H ) :   0.9777
B(  4-C , 20-C ) :   1.0644 B(  6-C ,  7-H ) :   0.9345 B(  6-C ,  8-H ) :   0.9401
B(  6-C ,  9-C ) :   1.0562 B(  9-C , 10-H ) :   0.9562 B(  9-C , 11-H ) :   0.9570
B(  9-C , 12-C ) :   1.0716 B( 12-C , 13-H ) :   0.9717 B( 12-C , 14-H ) :   0.9713
B( 12-C , 15-H ) :   0.9743 B( 16-S , 17-C ) :   1.1698 B( 16-S , 20-C ) :   1.1568
B( 17-C , 18-C ) :   1.6127 B( 17-C , 33-H ) :   0.9632 B( 18-C , 19-C ) :   1.2378
B( 18-C , 21-H ) :   0.9874 B( 19-C , 20-C ) :   1.5712 B( 19-C , 22-C ) :   1.0318
B( 22-C , 23-H ) :   0.9256 B( 22-C , 24-H ) :   0.9401 B( 22-C , 25-C ) :   1.0551
B( 25-C , 26-H ) :   0.9539 B( 25-C , 27-H ) :   0.9470 B( 25-C , 28-C ) :   1.0812
B( 28-C , 29-H ) :   0.9743 B( 28-C , 30-H ) :   0.9728 B( 28-C , 31-H ) :   0.9734

Dispersion correction           -0.014000115
FINAL SINGLE POINT ENERGY     -1339.865607211899

DIPOLE MOMENT
-------------
                                X             Y             Z
Electronic contribution:    -11.40250       9.98346       5.76608
Nuclear contribution   :     11.49945     -10.13069      -5.76588
                        -----------------------------------------
Total Dipole Moment    :      0.09695      -0.14723       0.00020
                        -----------------------------------------
Magnitude (a.u.)       :      0.17628
Magnitude (Debye)      :      0.44808

Rotational constants in cm-1:     0.021530     0.007759     0.006098
Rotational constants in MHz :   645.455508   232.596332   182.825384

                             ****ORCA TERMINATED NORMALLY****
TOTAL RUN TIME: 0 days 0 hours 0 minutes 21 seconds 285 msec
