                         Program Version 4.2.1 -  RELEASE  -
|  1> ! wB97X-D3 SP def2-SVP
|  2> %pal
|  3> nprocs 24
|  4> end
|  5>
|  6> * xyz 0 1
|  7> S 	 -129.869 	 68.6485 	 -49.7271
|  8> C 	 -130.104 	 69.2362 	 -51.3721
|  9> C 	 -128.925 	 69.4525 	 -51.9525
| 10> C 	 -127.799 	 69.0805 	 -51.2073
| 11> C 	 -128.112 	 68.7056 	 -49.9057
| 12> H 	 -126.781 	 69.3377 	 -51.5202
| 13> C 	 -128.685 	 69.9408 	 -53.361
| 14> H 	 -129.692 	 70.0873 	 -53.659
| 15> H 	 -128.211 	 69.1648 	 -54.0463
| 16> C 	 -127.933 	 71.2938 	 -53.4274
| 17> H 	 -126.898 	 71.1595 	 -53.061
| 18> H 	 -127.806 	 71.6392 	 -54.4711
| 19> C 	 -128.664 	 72.4917 	 -52.7079
| 20> H 	 -128.865 	 72.1787 	 -51.6888
| 21> H 	 -128.027 	 73.4321 	 -52.6142
| 22> H 	 -129.56 	 72.8927 	 -53.2414
| 23> S 	 -127.662 	 68.7002 	 -47.1549
| 24> C 	 -126.141 	 68.0807 	 -46.4947
| 25> C 	 -125.359 	 67.4523 	 -47.4341
| 26> C 	 -125.965 	 67.6631 	 -48.7865
| 27> C 	 -127.19 	 68.321 	 -48.7852
| 28> H 	 -124.393 	 67.0187 	 -47.1725
| 29> C 	 -125.255 	 67.1547 	 -49.9959
| 30> H 	 -125.985 	 67.2878 	 -50.8504
| 31> H 	 -125.224 	 66.0447 	 -49.8443
| 32> C 	 -123.928 	 67.7711 	 -50.32
| 33> H 	 -123.575 	 67.3456 	 -51.1758
| 34> H 	 -123.193 	 67.4066 	 -49.6073
| 35> C 	 -123.809 	 69.2758 	 -50.3924
| 36> H 	 -124.052 	 69.7383 	 -49.4115
| 37> H 	 -124.505 	 69.6871 	 -51.1561
| 38> H 	 -122.815 	 69.6351 	 -50.4817
| 39> H 	 -131.031 	 69.4096 	 -51.8373
| 40> H 	 -125.868 	 68.0835 	 -45.4461
| 41> *
| 42>
| 43>                          ****END OF INPUT****

CARTESIAN COORDINATES (ANGSTROEM)
---------------------------------
  S    -129.869000   68.648500  -49.727100
  C    -130.104000   69.236200  -51.372100
  C    -128.925000   69.452500  -51.952500
  C    -127.799000   69.080500  -51.207300
  C    -128.112000   68.705600  -49.905700
  H    -126.781000   69.337700  -51.520200
  C    -128.685000   69.940800  -53.361000
  H    -129.692000   70.087300  -53.659000
  H    -128.211000   69.164800  -54.046300
  C    -127.933000   71.293800  -53.427400
  H    -126.898000   71.159500  -53.061000
  H    -127.806000   71.639200  -54.471100
  C    -128.664000   72.491700  -52.707900
  H    -128.865000   72.178700  -51.688800
  H    -128.027000   73.432100  -52.614200
  H    -129.560000   72.892700  -53.241400
  S    -127.662000   68.700200  -47.154900
  C    -126.141000   68.080700  -46.494700
  C    -125.359000   67.452300  -47.434100
  C    -125.965000   67.663100  -48.786500
  C    -127.190000   68.321000  -48.785200
  H    -124.393000   67.018700  -47.172500
  C    -125.255000   67.154700  -49.995900
  H    -125.985000   67.287800  -50.850400
  H    -125.224000   66.044700  -49.844300
  C    -123.928000   67.771100  -50.320000
  H    -123.575000   67.345600  -51.175800
  H    -123.193000   67.406600  -49.607300
  C    -123.809000   69.275800  -50.392400
  H    -124.052000   69.738300  -49.411500
  H    -124.505000   69.687100  -51.156100
  H    -122.815000   69.635100  -50.481700
  H    -131.031000   69.409600  -51.837300
  H    -125.868000   68.083500  -45.446100

 Total Charge           Charge          ....    0
 Multiplicity           Mult            ....    1
 Number of Electrons    NEL             ....  134
 Basis Dimension        Dim             ....  322

ORBITAL ENERGIES
----------------

  NO   OCC          E(Eh)            E(eV)
   0   2.0000     -88.967635     -2420.9324
   1   2.0000     -88.964651     -2420.8512
   2   2.0000     -10.339857      -281.3618
   3   2.0000     -10.331567      -281.1362
   4   2.0000     -10.321619      -280.8655
   5   2.0000     -10.309145      -280.5261
   6   2.0000     -10.307902      -280.4923
   7   2.0000     -10.302039      -280.3327
   8   2.0000     -10.295153      -280.1454
   9   2.0000     -10.293772      -280.1078
  10   2.0000     -10.291360      -280.0421
  11   2.0000     -10.290951      -280.0310
  12   2.0000     -10.290950      -280.0310
  13   2.0000     -10.284719      -279.8614
  14   2.0000     -10.278091      -279.6811
  15   2.0000     -10.276691      -279.6430
  16   2.0000      -8.081951      -219.9211
  17   2.0000      -8.079390      -219.8514
  18   2.0000      -6.040583      -164.3726
  19   2.0000      -6.038130      -164.3059
  20   2.0000      -6.036563      -164.2632
  21   2.0000      -6.033931      -164.1916
  22   2.0000      -6.032547      -164.1540
  23   2.0000      -6.029884      -164.0815
  24   2.0000      -1.006834       -27.3974
  25   2.0000      -0.985457       -26.8156
  26   2.0000      -0.915123       -24.9018
  27   2.0000      -0.907885       -24.7048
  28   2.0000      -0.867259       -23.5993
  29   2.0000      -0.848822       -23.0976
  30   2.0000      -0.840396       -22.8683
  31   2.0000      -0.821027       -22.3413
  32   2.0000      -0.780995       -21.2520
  33   2.0000      -0.774123       -21.0650
  34   2.0000      -0.714770       -19.4499
  35   2.0000      -0.697953       -18.9923
  36   2.0000      -0.694320       -18.8934
  37   2.0000      -0.658681       -17.9236
  38   2.0000      -0.637993       -17.3607
  39   2.0000      -0.626068       -17.0362
  40   2.0000      -0.589054       -16.0290
  41   2.0000      -0.568641       -15.4735
  42   2.0000      -0.560745       -15.2586
  43   2.0000      -0.549212       -14.9448
  44   2.0000      -0.544475       -14.8159
  45   2.0000      -0.538531       -14.6542
  46   2.0000      -0.518175       -14.1003
  47   2.0000      -0.511023       -13.9057
  48   2.0000      -0.504577       -13.7302
  49   2.0000      -0.493025       -13.4159
  50   2.0000      -0.491277       -13.3683
  51   2.0000      -0.480182       -13.0664
  52   2.0000      -0.472006       -12.8439
  53   2.0000      -0.458689       -12.4816
  54   2.0000      -0.456665       -12.4265
  55   2.0000      -0.453473       -12.3396
  56   2.0000      -0.444894       -12.1062
  57   2.0000      -0.439091       -11.9483
  58   2.0000      -0.435133       -11.8406
  59   2.0000      -0.422979       -11.5098
  60   2.0000      -0.413617       -11.2551
  61   2.0000      -0.411059       -11.1855
  62   2.0000      -0.405515       -11.0346
  63   2.0000      -0.359477        -9.7819
  64   2.0000      -0.334564        -9.1040
  65   2.0000      -0.326871        -8.8946
  66   2.0000      -0.292589        -7.9618
  67   0.0000       0.028324         0.7707
  68   0.0000       0.076385         2.0785
  69   0.0000       0.107112         2.9147
  70   0.0000       0.118609         3.2275
  71   0.0000       0.125833         3.4241

MULLIKEN ATOMIC CHARGES
-----------------------
   0 S :    0.098027
   1 C :   -0.104369
   2 C :   -0.102447
   3 C :    0.017012
   4 C :   -0.115962
   5 H :    0.004368
   6 C :    0.094874
   7 H :   -0.007167
   8 H :    0.058090
   9 C :   -0.089790
  10 H :    0.033167
  11 H :    0.034258
  12 C :   -0.096209
  13 H :    0.049797
  14 H :    0.039809
  15 H :    0.042782
  16 S :    0.091067
  17 C :   -0.086543
  18 C :   -0.022353
  19 C :   -0.096326
  20 C :   -0.111851
  21 H :    0.032487
  22 C :    0.019169
  23 H :    0.025571
  24 H :    0.044710
  25 C :   -0.001115
  26 H :    0.001502
  27 H :    0.008036
  28 C :   -0.046887
  29 H :    0.036183
  30 H :    0.040319
  31 H :    0.024667
  32 H :    0.026297
  33 H :    0.058828
Sum of atomic charges:   -0.0000000

LOEWDIN ATOMIC CHARGES
----------------------
   0 S :    0.391571
   1 C :   -0.183280
   2 C :   -0.073636
   3 C :   -0.073144
   4 C :   -0.168596
   5 H :    0.029124
   6 C :   -0.030651
   7 H :    0.020756
   8 H :    0.043349
   9 C :   -0.044310
  10 H :    0.022251
  11 H :    0.026420
  12 C :   -0.076458
  13 H :    0.024602
  14 H :    0.033594
  15 H :    0.029186
  16 S :    0.390389
  17 C :   -0.171282
  18 C :   -0.069640
  19 C :   -0.052746
  20 C :   -0.205477
  21 H :    0.036516
  22 C :   -0.044287
  23 H :    0.033907
  24 H :    0.042794
  25 C :   -0.040048
  26 H :    0.014058
  27 H :    0.023310
  28 C :   -0.063957
  29 H :    0.032629
  30 H :    0.025568
  31 H :    0.024429
  32 H :    0.022575
  33 H :    0.030485

  Mayer bond orders larger than 0.100000
B(  0-S ,  1-C ) :   1.1122 B(  0-S ,  4-C ) :   1.1571 B(  1-C ,  2-C ) :   1.6426
B(  1-C , 32-H ) :   0.9688 B(  2-C ,  3-C ) :   1.2395 B(  2-C ,  6-C ) :   1.0114
B(  3-C ,  4-C ) :   1.5755 B(  3-C ,  5-H ) :   0.9842 B(  4-C , 20-C ) :   1.0297
B(  6-C ,  7-H ) :   0.9328 B(  6-C ,  8-H ) :   0.9451 B(  6-C ,  9-C ) :   1.0613
B(  9-C , 10-H ) :   0.9589 B(  9-C , 11-H ) :   0.9582 B(  9-C , 12-C ) :   1.0635
B( 12-C , 13-H ) :   0.9773 B( 12-C , 14-H ) :   0.9751 B( 12-C , 15-H ) :   0.9760
B( 16-S , 17-C ) :   1.1437 B( 16-S , 20-C ) :   1.1126 B( 17-C , 18-C ) :   1.6498
B( 17-C , 33-H ) :   0.9647 B( 18-C , 19-C ) :   1.1851 B( 18-C , 21-H ) :   0.9888
B( 19-C , 20-C ) :   1.6295 B( 19-C , 22-C ) :   1.0499 B( 22-C , 23-H ) :   0.9325
B( 22-C , 24-H ) :   0.9294 B( 22-C , 25-C ) :   1.0765 B( 25-C , 26-H ) :   0.9467
B( 25-C , 27-H ) :   0.9425 B( 25-C , 28-C ) :   1.0865 B( 28-C , 29-H ) :   0.9665
B( 28-C , 30-H ) :   0.9718 B( 28-C , 31-H ) :   0.9678

Dispersion correction           -0.015326753
FINAL SINGLE POINT ENERGY     -1339.877605278379

DIPOLE MOMENT
-------------
                                X             Y             Z
Electronic contribution:    -15.29982      -9.77860      19.98917
Nuclear contribution   :     15.88997       9.79865     -20.37708
                        -----------------------------------------
Total Dipole Moment    :      0.59016       0.02005      -0.38791
                        -----------------------------------------
Magnitude (a.u.)       :      0.70652
Magnitude (Debye)      :      1.79582

Rotational constants in cm-1:     0.018997     0.009582     0.007368
Rotational constants in MHz :   569.515535   287.254841   220.888059

                             ****ORCA TERMINATED NORMALLY****
TOTAL RUN TIME: 0 days 0 hours 0 minutes 22 seconds 582 msec
