                         Program Version 4.2.1 -  RELEASE  -
|  1> ! wB97X-D3 SP def2-SVP
|  2> %pal
|  3> nprocs 24
|  4> end
|  5>
|  6> * xyz 0 1
|  7> S 	 -124.664 	 57.8207 	 -57.3779
|  8> C 	 -124.405 	 57.9557 	 -59.0894
|  9> C 	 -125.475 	 57.442 	 -59.771
| 10> C 	 -126.537 	 57.0431 	 -58.935
| 11> C 	 -126.334 	 57.2889 	 -57.6129
| 12> H 	 -127.549 	 56.6035 	 -59.2024
| 13> C 	 -125.477 	 57.0446 	 -61.2037
| 14> H 	 -124.75 	 57.7129 	 -61.6583
| 15> H 	 -126.335 	 57.2753 	 -61.8468
| 16> C 	 -125.04 	 55.6218 	 -61.4948
| 17> H 	 -125.827 	 54.9413 	 -61.1566
| 18> H 	 -124.889 	 55.6175 	 -62.5889
| 19> C 	 -123.678 	 55.168 	 -60.9928
| 20> H 	 -123.331 	 54.2199 	 -61.3636
| 21> H 	 -122.843 	 55.9313 	 -61.1281
| 22> H 	 -123.695 	 55.0862 	 -59.9587
| 23> S 	 -126.272 	 56.4263 	 -55.0061
| 24> C 	 -127.716 	 56.6039 	 -54.0514
| 25> C 	 -128.825 	 56.8441 	 -54.8507
| 26> C 	 -128.516 	 57.005 	 -56.2313
| 27> C 	 -127.132 	 56.9215 	 -56.4745
| 28> H 	 -129.839 	 56.9201 	 -54.4102
| 29> C 	 -129.542 	 57.5819 	 -57.2895
| 30> H 	 -129.145 	 58.3438 	 -58.021
| 31> H 	 -130.224 	 58.1707 	 -56.6537
| 32> C 	 -130.352 	 56.4876 	 -57.9921
| 33> H 	 -130.779 	 55.7427 	 -57.327
| 34> H 	 -129.762 	 55.8273 	 -58.6267
| 35> C 	 -131.588 	 57.081 	 -58.7344
| 36> H 	 -132.215 	 56.2546 	 -59.1843
| 37> H 	 -131.177 	 57.5569 	 -59.6382
| 38> H 	 -132.23 	 57.7308 	 -58.1557
| 39> H 	 -123.455 	 58.1192 	 -59.6111
| 40> H 	 -127.748 	 56.4057 	 -53.0185
| 41> *
| 42>
| 43>                          ****END OF INPUT****

CARTESIAN COORDINATES (ANGSTROEM)
---------------------------------
  S    -124.664000   57.820700  -57.377900
  C    -124.405000   57.955700  -59.089400
  C    -125.475000   57.442000  -59.771000
  C    -126.537000   57.043100  -58.935000
  C    -126.334000   57.288900  -57.612900
  H    -127.549000   56.603500  -59.202400
  C    -125.477000   57.044600  -61.203700
  H    -124.750000   57.712900  -61.658300
  H    -126.335000   57.275300  -61.846800
  C    -125.040000   55.621800  -61.494800
  H    -125.827000   54.941300  -61.156600
  H    -124.889000   55.617500  -62.588900
  C    -123.678000   55.168000  -60.992800
  H    -123.331000   54.219900  -61.363600
  H    -122.843000   55.931300  -61.128100
  H    -123.695000   55.086200  -59.958700
  S    -126.272000   56.426300  -55.006100
  C    -127.716000   56.603900  -54.051400
  C    -128.825000   56.844100  -54.850700
  C    -128.516000   57.005000  -56.231300
  C    -127.132000   56.921500  -56.474500
  H    -129.839000   56.920100  -54.410200
  C    -129.542000   57.581900  -57.289500
  H    -129.145000   58.343800  -58.021000
  H    -130.224000   58.170700  -56.653700
  C    -130.352000   56.487600  -57.992100
  H    -130.779000   55.742700  -57.327000
  H    -129.762000   55.827300  -58.626700
  C    -131.588000   57.081000  -58.734400
  H    -132.215000   56.254600  -59.184300
  H    -131.177000   57.556900  -59.638200
  H    -132.230000   57.730800  -58.155700
  H    -123.455000   58.119200  -59.611100
  H    -127.748000   56.405700  -53.018500

 Total Charge           Charge          ....    0
 Multiplicity           Mult            ....    1
 Number of Electrons    NEL             ....  134
 Basis Dimension        Dim             ....  322

ORBITAL ENERGIES
----------------

  NO   OCC          E(Eh)            E(eV)
   0   2.0000     -88.967588     -2420.9311
   1   2.0000     -88.965662     -2420.8787
   2   2.0000     -10.330333      -281.1026
   3   2.0000     -10.327447      -281.0241
   4   2.0000     -10.316587      -280.7286
   5   2.0000     -10.313155      -280.6352
   6   2.0000     -10.310819      -280.5716
   7   2.0000     -10.304521      -280.4003
   8   2.0000     -10.300666      -280.2954
   9   2.0000     -10.296060      -280.1700
  10   2.0000     -10.293263      -280.0939
  11   2.0000     -10.289519      -279.9920
  12   2.0000     -10.287143      -279.9274
  13   2.0000     -10.286815      -279.9185
  14   2.0000     -10.284581      -279.8577
  15   2.0000     -10.271841      -279.5110
  16   2.0000      -8.082201      -219.9279
  17   2.0000      -8.080342      -219.8773
  18   2.0000      -6.040668      -164.3749
  19   2.0000      -6.038945      -164.3281
  20   2.0000      -6.036756      -164.2685
  21   2.0000      -6.034937      -164.2190
  22   2.0000      -6.032982      -164.1658
  23   2.0000      -6.030893      -164.1090
  24   2.0000      -1.010792       -27.5050
  25   2.0000      -0.986173       -26.8351
  26   2.0000      -0.916800       -24.9474
  27   2.0000      -0.904361       -24.6089
  28   2.0000      -0.871930       -23.7264
  29   2.0000      -0.852628       -23.2012
  30   2.0000      -0.844027       -22.9671
  31   2.0000      -0.815327       -22.1862
  32   2.0000      -0.784936       -21.3592
  33   2.0000      -0.773648       -21.0520
  34   2.0000      -0.710243       -19.3267
  35   2.0000      -0.699024       -19.0214
  36   2.0000      -0.694886       -18.9088
  37   2.0000      -0.662052       -18.0153
  38   2.0000      -0.640971       -17.4417
  39   2.0000      -0.618611       -16.8332
  40   2.0000      -0.598332       -16.2815
  41   2.0000      -0.570775       -15.5316
  42   2.0000      -0.559845       -15.2342
  43   2.0000      -0.549824       -14.9615
  44   2.0000      -0.544281       -14.8106
  45   2.0000      -0.522906       -14.2290
  46   2.0000      -0.519057       -14.1243
  47   2.0000      -0.508638       -13.8408
  48   2.0000      -0.505894       -13.7661
  49   2.0000      -0.501233       -13.6393
  50   2.0000      -0.492026       -13.3887
  51   2.0000      -0.482449       -13.1281
  52   2.0000      -0.469470       -12.7749
  53   2.0000      -0.468974       -12.7614
  54   2.0000      -0.459210       -12.4957
  55   2.0000      -0.449653       -12.2357
  56   2.0000      -0.444038       -12.0829
  57   2.0000      -0.438958       -11.9447
  58   2.0000      -0.434181       -11.8147
  59   2.0000      -0.419623       -11.4185
  60   2.0000      -0.414699       -11.2845
  61   2.0000      -0.411688       -11.2026
  62   2.0000      -0.409148       -11.1335
  63   2.0000      -0.359532        -9.7834
  64   2.0000      -0.335070        -9.1177
  65   2.0000      -0.331021        -9.0075
  66   2.0000      -0.285486        -7.7685
  67   0.0000       0.018477         0.5028
  68   0.0000       0.074959         2.0397
  69   0.0000       0.105315         2.8658
  70   0.0000       0.124731         3.3941
  71   0.0000       0.129944         3.5359

MULLIKEN ATOMIC CHARGES
-----------------------
   0 S :    0.095563
   1 C :   -0.105566
   2 C :   -0.078092
   3 C :   -0.009251
   4 C :   -0.120893
   5 H :    0.027280
   6 C :    0.059250
   7 H :    0.001386
   8 H :    0.030484
   9 C :   -0.066725
  10 H :    0.038369
  11 H :    0.034327
  12 C :   -0.044956
  13 H :    0.033620
  14 H :    0.020785
  15 H :    0.020376
  16 S :    0.100556
  17 C :   -0.082051
  18 C :   -0.040804
  19 C :   -0.010174
  20 C :   -0.152938
  21 H :    0.033588
  22 C :    0.017495
  23 H :    0.056017
  24 H :    0.021500
  25 C :   -0.071768
  26 H :    0.022856
  27 H :    0.025822
  28 C :   -0.066734
  29 H :    0.037335
  30 H :    0.030594
  31 H :    0.043052
  32 H :    0.053609
  33 H :    0.046087
Sum of atomic charges:   -0.0000000

LOEWDIN ATOMIC CHARGES
----------------------
   0 S :    0.400030
   1 C :   -0.201545
   2 C :   -0.070991
   3 C :   -0.070595
   4 C :   -0.182917
   5 H :    0.042605
   6 C :   -0.040723
   7 H :    0.027422
   8 H :    0.034560
   9 C :   -0.038135
  10 H :    0.025883
  11 H :    0.030506
  12 C :   -0.067388
  13 H :    0.026003
  14 H :    0.028674
  15 H :    0.014751
  16 S :    0.399090
  17 C :   -0.180830
  18 C :   -0.072553
  19 C :   -0.055365
  20 C :   -0.187489
  21 H :    0.038181
  22 C :   -0.032437
  23 H :    0.039397
  24 H :    0.031011
  25 C :   -0.047797
  26 H :    0.023490
  27 H :    0.020441
  28 C :   -0.069690
  29 H :    0.032207
  30 H :    0.025333
  31 H :    0.023159
  32 H :    0.034901
  33 H :    0.020811

  Mayer bond orders larger than 0.100000
B(  0-S ,  1-C ) :   1.1302 B(  0-S ,  4-C ) :   1.1336 B(  1-C ,  2-C ) :   1.6122
B(  1-C , 32-H ) :   0.9608 B(  2-C ,  3-C ) :   1.2350 B(  2-C ,  6-C ) :   1.0381
B(  3-C ,  4-C ) :   1.5732 B(  3-C ,  5-H ) :   0.9846 B(  4-C , 20-C ) :   1.0890
B(  6-C ,  7-H ) :   0.9259 B(  6-C ,  8-H ) :   0.9407 B(  6-C ,  9-C ) :   1.0796
B(  9-C , 10-H ) :   0.9537 B(  9-C , 11-H ) :   0.9548 B(  9-C , 12-C ) :   1.0797
B( 12-C , 13-H ) :   0.9731 B( 12-C , 14-H ) :   0.9709 B( 12-C , 15-H ) :   0.9698
B( 16-S , 17-C ) :   1.1520 B( 16-S , 20-C ) :   1.1378 B( 17-C , 18-C ) :   1.5984
B( 17-C , 33-H ) :   0.9749 B( 18-C , 19-C ) :   1.2689 B( 18-C , 21-H ) :   0.9818
B( 19-C , 20-C ) :   1.5641 B( 19-C , 22-C ) :   1.0169 B( 22-C , 23-H ) :   0.9482
B( 22-C , 24-H ) :   0.9435 B( 22-C , 25-C ) :   1.0475 B( 25-C , 26-H ) :   0.9558
B( 25-C , 27-H ) :   0.9524 B( 25-C , 28-C ) :   1.0754 B( 28-C , 29-H ) :   0.9747
B( 28-C , 30-H ) :   0.9760 B( 28-C , 31-H ) :   0.9777

Dispersion correction           -0.014496301
FINAL SINGLE POINT ENERGY     -1339.873671474012

DIPOLE MOMENT
-------------
                                X             Y             Z
Electronic contribution:     12.64663       5.37967      22.38028
Nuclear contribution   :    -13.10207      -5.56020     -22.71407
                        -----------------------------------------
Total Dipole Moment    :     -0.45544      -0.18053      -0.33379
                        -----------------------------------------
Magnitude (a.u.)       :      0.59282
Magnitude (Debye)      :      1.50683

Rotational constants in cm-1:     0.017466     0.009404     0.006813
Rotational constants in MHz :   523.611420   281.935531   204.243036

                             ****ORCA TERMINATED NORMALLY****
TOTAL RUN TIME: 0 days 0 hours 0 minutes 20 seconds 564 msec
