                         Program Version 4.2.1 -  RELEASE  -
|  1> ! wB97X-D3 SP def2-SVP
|  2> %pal
|  3> nprocs 24
|  4> end
|  5>
|  6> * xyz 0 1
|  7> S 	 -97.2302 	 -23.7857 	 -64.5958
|  8> C 	 -98.784 	 -24.1428 	 -65.3185
|  9> C 	 -99.8554 	 -23.9432 	 -64.5183
| 10> C 	 -99.3925 	 -23.3817 	 -63.2519
| 11> C 	 -98.0396 	 -23.4186 	 -63.0627
| 12> H 	 -99.9877 	 -23.1366 	 -62.3972
| 13> C 	 -101.302 	 -23.9026 	 -64.8881
| 14> H 	 -101.869 	 -24.6405 	 -64.2713
| 15> H 	 -101.252 	 -24.4077 	 -65.842
| 16> C 	 -101.898 	 -22.5217 	 -64.9529
| 17> H 	 -101.766 	 -22.0029 	 -63.9601
| 18> H 	 -101.166 	 -22.0425 	 -65.697
| 19> C 	 -103.375 	 -22.4084 	 -65.4029
| 20> H 	 -104.007 	 -22.9067 	 -64.7583
| 21> H 	 -103.756 	 -21.3289 	 -65.416
| 22> H 	 -103.62 	 -22.787 	 -66.38
| 23> S 	 -95.9814 	 -24.0298 	 -61.5094
| 24> C 	 -95.4739 	 -23.0198 	 -60.21
| 25> C 	 -96.2936 	 -21.9545 	 -60.1037
| 26> C 	 -97.297 	 -21.9279 	 -61.0782
| 27> C 	 -97.2374 	 -23.0279 	 -61.9241
| 28> H 	 -96.0924 	 -21.1845 	 -59.3689
| 29> C 	 -98.2567 	 -20.7536 	 -61.2102
| 30> H 	 -98.2937 	 -20.3014 	 -60.2002
| 31> H 	 -99.2311 	 -21.089 	 -61.3924
| 32> C 	 -97.8782 	 -19.7413 	 -62.2657
| 33> H 	 -97.7847 	 -20.2228 	 -63.1753
| 34> H 	 -96.9374 	 -19.3291 	 -62.0637
| 35> C 	 -98.8325 	 -18.5189 	 -62.4029
| 36> H 	 -98.3023 	 -17.7396 	 -62.9356
| 37> H 	 -99.1031 	 -18.2293 	 -61.3604
| 38> H 	 -99.6058 	 -18.6965 	 -63.0039
| 39> H 	 -98.9312 	 -24.3867 	 -66.3728
| 40> H 	 -94.5803 	 -23.1283 	 -59.6286
| 41> *
| 42>
| 43>                          ****END OF INPUT****

CARTESIAN COORDINATES (ANGSTROEM)
---------------------------------
  S    -97.230200  -23.785700  -64.595800
  C    -98.784000  -24.142800  -65.318500
  C    -99.855400  -23.943200  -64.518300
  C    -99.392500  -23.381700  -63.251900
  C    -98.039600  -23.418600  -63.062700
  H    -99.987700  -23.136600  -62.397200
  C    -101.302000  -23.902600  -64.888100
  H    -101.869000  -24.640500  -64.271300
  H    -101.252000  -24.407700  -65.842000
  C    -101.898000  -22.521700  -64.952900
  H    -101.766000  -22.002900  -63.960100
  H    -101.166000  -22.042500  -65.697000
  C    -103.375000  -22.408400  -65.402900
  H    -104.007000  -22.906700  -64.758300
  H    -103.756000  -21.328900  -65.416000
  H    -103.620000  -22.787000  -66.380000
  S    -95.981400  -24.029800  -61.509400
  C    -95.473900  -23.019800  -60.210000
  C    -96.293600  -21.954500  -60.103700
  C    -97.297000  -21.927900  -61.078200
  C    -97.237400  -23.027900  -61.924100
  H    -96.092400  -21.184500  -59.368900
  C    -98.256700  -20.753600  -61.210200
  H    -98.293700  -20.301400  -60.200200
  H    -99.231100  -21.089000  -61.392400
  C    -97.878200  -19.741300  -62.265700
  H    -97.784700  -20.222800  -63.175300
  H    -96.937400  -19.329100  -62.063700
  C    -98.832500  -18.518900  -62.402900
  H    -98.302300  -17.739600  -62.935600
  H    -99.103100  -18.229300  -61.360400
  H    -99.605800  -18.696500  -63.003900
  H    -98.931200  -24.386700  -66.372800
  H    -94.580300  -23.128300  -59.628600

 Total Charge           Charge          ....    0
 Multiplicity           Mult            ....    1
 Number of Electrons    NEL             ....  134
 Basis Dimension        Dim             ....  322

ORBITAL ENERGIES
----------------

  NO   OCC          E(Eh)            E(eV)
   0   2.0000     -88.965353     -2420.8703
   1   2.0000     -88.963873     -2420.8300
   2   2.0000     -10.328157      -281.0434
   3   2.0000     -10.316982      -280.7394
   4   2.0000     -10.313434      -280.6428
   5   2.0000     -10.307278      -280.4753
   6   2.0000     -10.301142      -280.3083
   7   2.0000     -10.299676      -280.2684
   8   2.0000     -10.296099      -280.1711
   9   2.0000     -10.292876      -280.0834
  10   2.0000     -10.291445      -280.0445
  11   2.0000     -10.286187      -279.9014
  12   2.0000     -10.283879      -279.8386
  13   2.0000     -10.281583      -279.7761
  14   2.0000     -10.268427      -279.4181
  15   2.0000     -10.267702      -279.3984
  16   2.0000      -8.080953      -219.8939
  17   2.0000      -8.079960      -219.8669
  18   2.0000      -6.039219      -164.3355
  19   2.0000      -6.038591      -164.3184
  20   2.0000      -6.034956      -164.2195
  21   2.0000      -6.034655      -164.2113
  22   2.0000      -6.031975      -164.1384
  23   2.0000      -6.030432      -164.0964
  24   2.0000      -1.021135       -27.7865
  25   2.0000      -0.991230       -26.9727
  26   2.0000      -0.917268       -24.9601
  27   2.0000      -0.911273       -24.7970
  28   2.0000      -0.876770       -23.8581
  29   2.0000      -0.853650       -23.2290
  30   2.0000      -0.846169       -23.0254
  31   2.0000      -0.821476       -22.3535
  32   2.0000      -0.786981       -21.4148
  33   2.0000      -0.776232       -21.1223
  34   2.0000      -0.713815       -19.4239
  35   2.0000      -0.702609       -19.1190
  36   2.0000      -0.694724       -18.9044
  37   2.0000      -0.667590       -18.1661
  38   2.0000      -0.641507       -17.4563
  39   2.0000      -0.622711       -16.9448
  40   2.0000      -0.600148       -16.3308
  41   2.0000      -0.572424       -15.5765
  42   2.0000      -0.570098       -15.5131
  43   2.0000      -0.558269       -15.1913
  44   2.0000      -0.527345       -14.3498
  45   2.0000      -0.524532       -14.2733
  46   2.0000      -0.520071       -14.1518
  47   2.0000      -0.511086       -13.9074
  48   2.0000      -0.507126       -13.7996
  49   2.0000      -0.504145       -13.7185
  50   2.0000      -0.494638       -13.4598
  51   2.0000      -0.485606       -13.2140
  52   2.0000      -0.474364       -12.9081
  53   2.0000      -0.467126       -12.7112
  54   2.0000      -0.463137       -12.6026
  55   2.0000      -0.447401       -12.1744
  56   2.0000      -0.444194       -12.0871
  57   2.0000      -0.439600       -11.9621
  58   2.0000      -0.434242       -11.8163
  59   2.0000      -0.426845       -11.6150
  60   2.0000      -0.421823       -11.4784
  61   2.0000      -0.416448       -11.3321
  62   2.0000      -0.414026       -11.2662
  63   2.0000      -0.354329        -9.6418
  64   2.0000      -0.333291        -9.0693
  65   2.0000      -0.330461        -8.9923
  66   2.0000      -0.294110        -8.0031
  67   0.0000       0.034881         0.9492
  68   0.0000       0.076698         2.0871
  69   0.0000       0.110228         2.9995
  70   0.0000       0.121497         3.3061
  71   0.0000       0.134621         3.6632

MULLIKEN ATOMIC CHARGES
-----------------------
   0 S :    0.104334
   1 C :   -0.114870
   2 C :   -0.099609
   3 C :    0.002046
   4 C :   -0.129620
   5 H :    0.012013
   6 C :    0.091631
   7 H :    0.031833
   8 H :    0.003212
   9 C :   -0.107241
  10 H :    0.045495
  11 H :    0.042525
  12 C :   -0.014848
  13 H :    0.013563
  14 H :    0.042546
  15 H :    0.025282
  16 S :    0.124690
  17 C :   -0.080633
  18 C :   -0.046283
  19 C :   -0.043550
  20 C :   -0.169979
  21 H :    0.015114
  22 C :    0.111646
  23 H :    0.010192
  24 H :   -0.008104
  25 C :   -0.029259
  26 H :    0.010047
  27 H :    0.003979
  28 C :    0.002651
  29 H :    0.023809
  30 H :    0.031511
  31 H :    0.003894
  32 H :    0.045614
  33 H :    0.046368
Sum of atomic charges:   -0.0000000

LOEWDIN ATOMIC CHARGES
----------------------
   0 S :    0.386040
   1 C :   -0.192282
   2 C :   -0.064714
   3 C :   -0.060092
   4 C :   -0.180627
   5 H :    0.025806
   6 C :   -0.040665
   7 H :    0.031860
   8 H :    0.027362
   9 C :   -0.045780
  10 H :    0.031185
  11 H :    0.036762
  12 C :   -0.064760
  13 H :    0.014153
  14 H :    0.038876
  15 H :    0.023526
  16 S :    0.463603
  17 C :   -0.196227
  18 C :   -0.071964
  19 C :   -0.059380
  20 C :   -0.234590
  21 H :    0.033338
  22 C :   -0.024523
  23 H :    0.029800
  24 H :    0.016645
  25 C :   -0.026970
  26 H :    0.015908
  27 H :    0.016225
  28 C :   -0.048977
  29 H :    0.028991
  30 H :    0.029806
  31 H :    0.004073
  32 H :    0.029305
  33 H :    0.028288

  Mayer bond orders larger than 0.100000
B(  0-S ,  1-C ) :   1.1239 B(  0-S ,  4-C ) :   1.1204 B(  1-C ,  2-C ) :   1.6730
B(  1-C , 32-H ) :   0.9537 B(  2-C ,  3-C ) :   1.1761 B(  2-C ,  6-C ) :   1.0383
B(  3-C ,  4-C ) :   1.6491 B(  3-C ,  5-H ) :   0.9906 B(  4-C , 20-C ) :   1.0242
B(  6-C ,  7-H ) :   0.9233 B(  6-C ,  8-H ) :   0.9327 B(  6-C ,  9-C ) :   1.0511
B(  9-C , 10-H ) :   0.9530 B(  9-C , 11-H ) :   0.9540 B(  9-C , 12-C ) :   1.0771
B( 12-C , 13-H ) :   0.9724 B( 12-C , 14-H ) :   0.9746 B( 12-C , 15-H ) :   0.9752
B( 16-S , 17-C ) :   1.1661 B( 16-S , 20-C ) :   1.1874 B( 17-C , 18-C ) :   1.5807
B( 17-C , 20-C ) :   0.1001 B( 17-C , 33-H ) :   0.9702 B( 18-C , 19-C ) :   1.2904
B( 18-C , 21-H ) :   0.9921 B( 19-C , 20-C ) :   1.5427 B( 19-C , 22-C ) :   1.0452
B( 22-C , 23-H ) :   0.9243 B( 22-C , 24-H ) :   0.9266 B( 22-C , 25-C ) :   1.0766
B( 25-C , 26-H ) :   0.9520 B( 25-C , 27-H ) :   0.9531 B( 25-C , 28-C ) :   1.0836
B( 28-C , 29-H ) :   0.9734 B( 28-C , 30-H ) :   0.9754 B( 28-C , 31-H ) :   0.9757

Dispersion correction           -0.014312818
FINAL SINGLE POINT ENERGY     -1339.869544084776

DIPOLE MOMENT
-------------
                                X             Y             Z
Electronic contribution:     24.10343     -19.02338       4.58021
Nuclear contribution   :    -24.57275      19.44161      -4.58481
                        -----------------------------------------
Total Dipole Moment    :     -0.46932       0.41823      -0.00460
                        -----------------------------------------
Magnitude (a.u.)       :      0.62865
Magnitude (Debye)      :      1.59791

Rotational constants in cm-1:     0.018556     0.009078     0.006883
Rotational constants in MHz :   556.296909   272.139069   206.337713

                             ****ORCA TERMINATED NORMALLY****
TOTAL RUN TIME: 0 days 0 hours 0 minutes 21 seconds 963 msec
