                         Program Version 4.2.1 -  RELEASE  -
|  1> ! wB97X-D3 SP def2-SVP
|  2> %pal
|  3> nprocs 24
|  4> end
|  5>
|  6> * xyz 0 1
|  7> S 	 -83.5524 	 -36.4112 	 -77.7999
|  8> C 	 -83.4712 	 -36.4117 	 -79.535
|  9> C 	 -83.7847 	 -35.1948 	 -80.137
| 10> C 	 -83.9638 	 -34.1792 	 -79.1034
| 11> C 	 -83.7419 	 -34.6847 	 -77.806
| 12> H 	 -84.3605 	 -33.1729 	 -79.2802
| 13> C 	 -83.896 	 -34.9269 	 -81.5983
| 14> H 	 -84.7559 	 -34.313 	 -81.5978
| 15> H 	 -84.09 	 -35.8019 	 -82.2317
| 16> C 	 -82.7555 	 -34.1821 	 -82.2422
| 17> H 	 -83.0155 	 -33.8193 	 -83.2382
| 18> H 	 -82.5023 	 -33.2416 	 -81.6733
| 19> C 	 -81.4854 	 -34.9634 	 -82.2849
| 20> H 	 -81.3826 	 -35.7353 	 -81.4297
| 21> H 	 -81.4573 	 -35.546 	 -83.2024
| 22> H 	 -80.6424 	 -34.2738 	 -82.305
| 23> S 	 -85.3852 	 -34.2967 	 -75.6745
| 24> C 	 -85.1859 	 -33.0489 	 -74.5162
| 25> C 	 -84.2135 	 -32.1663 	 -74.9703
| 26> C 	 -83.5466 	 -32.5357 	 -76.1718
| 27> C 	 -83.9778 	 -33.8436 	 -76.5898
| 28> H 	 -84.0494 	 -31.2244 	 -74.4705
| 29> C 	 -82.4615 	 -31.6575 	 -76.7979
| 30> H 	 -81.7121 	 -32.3653 	 -77.1002
| 31> H 	 -81.8695 	 -31.0507 	 -76.0443
| 32> C 	 -82.9611 	 -30.6341 	 -77.8929
| 33> H 	 -83.4111 	 -29.8012 	 -77.3351
| 34> H 	 -83.885 	 -30.9687 	 -78.4501
| 35> C 	 -81.9388 	 -29.9986 	 -78.8407
| 36> H 	 -81.0996 	 -29.5974 	 -78.203
| 37> H 	 -82.3342 	 -29.0806 	 -79.2419
| 38> H 	 -81.4529 	 -30.5486 	 -79.6014
| 39> H 	 -83.2338 	 -37.2696 	 -80.2111
| 40> H 	 -85.6964 	 -32.949 	 -73.6591
| 41> *
| 42>
| 43>                          ****END OF INPUT****

CARTESIAN COORDINATES (ANGSTROEM)
---------------------------------
  S    -83.552400  -36.411200  -77.799900
  C    -83.471200  -36.411700  -79.535000
  C    -83.784700  -35.194800  -80.137000
  C    -83.963800  -34.179200  -79.103400
  C    -83.741900  -34.684700  -77.806000
  H    -84.360500  -33.172900  -79.280200
  C    -83.896000  -34.926900  -81.598300
  H    -84.755900  -34.313000  -81.597800
  H    -84.090000  -35.801900  -82.231700
  C    -82.755500  -34.182100  -82.242200
  H    -83.015500  -33.819300  -83.238200
  H    -82.502300  -33.241600  -81.673300
  C    -81.485400  -34.963400  -82.284900
  H    -81.382600  -35.735300  -81.429700
  H    -81.457300  -35.546000  -83.202400
  H    -80.642400  -34.273800  -82.305000
  S    -85.385200  -34.296700  -75.674500
  C    -85.185900  -33.048900  -74.516200
  C    -84.213500  -32.166300  -74.970300
  C    -83.546600  -32.535700  -76.171800
  C    -83.977800  -33.843600  -76.589800
  H    -84.049400  -31.224400  -74.470500
  C    -82.461500  -31.657500  -76.797900
  H    -81.712100  -32.365300  -77.100200
  H    -81.869500  -31.050700  -76.044300
  C    -82.961100  -30.634100  -77.892900
  H    -83.411100  -29.801200  -77.335100
  H    -83.885000  -30.968700  -78.450100
  C    -81.938800  -29.998600  -78.840700
  H    -81.099600  -29.597400  -78.203000
  H    -82.334200  -29.080600  -79.241900
  H    -81.452900  -30.548600  -79.601400
  H    -83.233800  -37.269600  -80.211100
  H    -85.696400  -32.949000  -73.659100

 Total Charge           Charge          ....    0
 Multiplicity           Mult            ....    1
 Number of Electrons    NEL             ....  134
 Basis Dimension        Dim             ....  322

ORBITAL ENERGIES
----------------

  NO   OCC          E(Eh)            E(eV)
   0   2.0000     -88.973312     -2421.0869
   1   2.0000     -88.963459     -2420.8188
   2   2.0000     -10.333902      -281.1998
   3   2.0000     -10.332031      -281.1489
   4   2.0000     -10.316868      -280.7363
   5   2.0000     -10.309256      -280.5291
   6   2.0000     -10.305869      -280.4369
   7   2.0000     -10.303728      -280.3787
   8   2.0000     -10.301171      -280.3091
   9   2.0000     -10.299004      -280.2501
  10   2.0000     -10.296494      -280.1819
  11   2.0000     -10.290171      -280.0098
  12   2.0000     -10.288856      -279.9740
  13   2.0000     -10.285098      -279.8717
  14   2.0000     -10.279508      -279.7196
  15   2.0000     -10.276944      -279.6499
  16   2.0000      -8.087922      -220.0836
  17   2.0000      -8.078923      -219.8387
  18   2.0000      -6.046447      -164.5322
  19   2.0000      -6.042559      -164.4264
  20   2.0000      -6.038574      -164.3180
  21   2.0000      -6.037276      -164.2826
  22   2.0000      -6.033178      -164.1711
  23   2.0000      -6.029961      -164.0836
  24   2.0000      -1.004557       -27.3354
  25   2.0000      -0.984339       -26.7852
  26   2.0000      -0.921364       -25.0716
  27   2.0000      -0.899922       -24.4881
  28   2.0000      -0.864858       -23.5340
  29   2.0000      -0.851996       -23.1840
  30   2.0000      -0.849077       -23.1046
  31   2.0000      -0.809793       -22.0356
  32   2.0000      -0.784859       -21.3571
  33   2.0000      -0.774659       -21.0795
  34   2.0000      -0.704956       -19.1828
  35   2.0000      -0.698248       -19.0003
  36   2.0000      -0.690114       -18.7789
  37   2.0000      -0.659568       -17.9478
  38   2.0000      -0.634685       -17.2706
  39   2.0000      -0.619787       -16.8653
  40   2.0000      -0.596666       -16.2361
  41   2.0000      -0.571277       -15.5453
  42   2.0000      -0.558407       -15.1950
  43   2.0000      -0.551595       -15.0097
  44   2.0000      -0.543649       -14.7934
  45   2.0000      -0.527006       -14.3406
  46   2.0000      -0.515833       -14.0365
  47   2.0000      -0.511943       -13.9307
  48   2.0000      -0.509730       -13.8705
  49   2.0000      -0.490302       -13.3418
  50   2.0000      -0.487996       -13.2790
  51   2.0000      -0.482659       -13.1338
  52   2.0000      -0.471776       -12.8377
  53   2.0000      -0.463502       -12.6125
  54   2.0000      -0.457909       -12.4603
  55   2.0000      -0.453270       -12.3341
  56   2.0000      -0.440092       -11.9755
  57   2.0000      -0.437151       -11.8955
  58   2.0000      -0.433182       -11.7875
  59   2.0000      -0.426823       -11.6144
  60   2.0000      -0.421227       -11.4622
  61   2.0000      -0.412226       -11.2172
  62   2.0000      -0.407286       -11.0828
  63   2.0000      -0.340440        -9.2638
  64   2.0000      -0.329237        -8.9590
  65   2.0000      -0.326142        -8.8748
  66   2.0000      -0.294364        -8.0101
  67   0.0000       0.028352         0.7715
  68   0.0000       0.067221         1.8292
  69   0.0000       0.110013         2.9936
  70   0.0000       0.122505         3.3335
  71   0.0000       0.125538         3.4161

MULLIKEN ATOMIC CHARGES
-----------------------
   0 S :    0.136624
   1 C :   -0.124548
   2 C :   -0.114376
   3 C :    0.028827
   4 C :   -0.156507
   5 H :    0.023152
   6 C :    0.098499
   7 H :    0.017549
   8 H :    0.024418
   9 C :   -0.075893
  10 H :    0.028361
  11 H :    0.026910
  12 C :   -0.067448
  13 H :    0.046986
  14 H :    0.022924
  15 H :    0.034181
  16 S :    0.108996
  17 C :   -0.039212
  18 C :   -0.038062
  19 C :   -0.041477
  20 C :   -0.165051
  21 H :    0.013818
  22 C :    0.058264
  23 H :    0.032186
  24 H :    0.029755
  25 C :   -0.088010
  26 H :    0.022525
  27 H :    0.035191
  28 C :   -0.030752
  29 H :    0.019647
  30 H :    0.026717
  31 H :    0.037793
  32 H :    0.058209
  33 H :    0.009806
Sum of atomic charges:    0.0000000

LOEWDIN ATOMIC CHARGES
----------------------
   0 S :    0.424651
   1 C :   -0.213362
   2 C :   -0.059854
   3 C :   -0.052562
   4 C :   -0.212443
   5 H :    0.032582
   6 C :   -0.033063
   7 H :    0.031763
   8 H :    0.032932
   9 C :   -0.047431
  10 H :    0.024653
  11 H :    0.026268
  12 C :   -0.072673
  13 H :    0.035582
  14 H :    0.020943
  15 H :    0.026675
  16 S :    0.433969
  17 C :   -0.184317
  18 C :   -0.070062
  19 C :   -0.057107
  20 C :   -0.202411
  21 H :    0.028248
  22 C :   -0.036631
  23 H :    0.030639
  24 H :    0.036817
  25 C :   -0.047731
  26 H :    0.027807
  27 H :    0.024764
  28 C :   -0.067215
  29 H :    0.031172
  30 H :    0.027350
  31 H :    0.018523
  32 H :    0.036418
  33 H :    0.005105

  Mayer bond orders larger than 0.100000
B(  0-S ,  1-C ) :   1.1388 B(  0-S ,  4-C ) :   1.1587 B(  1-C ,  2-C ) :   1.6130
B(  1-C , 32-H ) :   0.9557 B(  2-C ,  3-C ) :   1.2386 B(  2-C ,  6-C ) :   1.0297
B(  3-C ,  4-C ) :   1.5617 B(  3-C ,  5-H ) :   0.9847 B(  4-C , 20-C ) :   1.0110
B(  6-C ,  7-H ) :   0.9220 B(  6-C ,  8-H ) :   0.9421 B(  6-C ,  9-C ) :   1.0843
B(  9-C , 10-H ) :   0.9524 B(  9-C , 11-H ) :   0.9582 B(  9-C , 12-C ) :   1.0671
B( 12-C , 13-H ) :   0.9746 B( 12-C , 14-H ) :   0.9737 B( 12-C , 15-H ) :   0.9756
B( 16-S , 17-C ) :   1.1715 B( 16-S , 20-C ) :   1.1875 B( 17-C , 18-C ) :   1.5544
B( 17-C , 20-C ) :   0.1129 B( 17-C , 33-H ) :   0.9874 B( 18-C , 19-C ) :   1.2953
B( 18-C , 21-H ) :   0.9899 B( 19-C , 20-C ) :   1.5338 B( 19-C , 22-C ) :   1.0388
B( 22-C , 23-H ) :   0.9448 B( 22-C , 24-H ) :   0.9420 B( 22-C , 25-C ) :   1.0300
B( 25-C , 26-H ) :   0.9498 B( 25-C , 27-H ) :   0.9602 B( 25-C , 28-C ) :   1.0825
B( 28-C , 29-H ) :   0.9686 B( 28-C , 30-H ) :   0.9724 B( 28-C , 31-H ) :   0.9798

Dispersion correction           -0.014503661
FINAL SINGLE POINT ENERGY     -1339.862689478907

DIPOLE MOMENT
-------------
                                X             Y             Z
Electronic contribution:    -13.36643     -17.74023      21.79766
Nuclear contribution   :     13.41444      18.28893     -22.27915
                        -----------------------------------------
Total Dipole Moment    :      0.04800       0.54870      -0.48150
                        -----------------------------------------
Magnitude (a.u.)       :      0.73158
Magnitude (Debye)      :      1.85954

Rotational constants in cm-1:     0.017397     0.009749     0.006801
Rotational constants in MHz :   521.558812   292.268201   203.878883

                             ****ORCA TERMINATED NORMALLY****
TOTAL RUN TIME: 0 days 0 hours 0 minutes 21 seconds 899 msec
