                         Program Version 4.2.1 -  RELEASE  -
|  1> ! wB97X-D3 SP def2-SVP
|  2> %pal
|  3> nprocs 24
|  4> end
|  5>
|  6> * xyz 0 1
|  7> S 	 -54.8308 	 6.01272 	 -100.844
|  8> C 	 -56.2674 	 5.40307 	 -101.453
|  9> C 	 -57.3675 	 5.74826 	 -100.701
| 10> C 	 -56.9148 	 6.47539 	 -99.5422
| 11> C 	 -55.5598 	 6.59892 	 -99.3981
| 12> H 	 -57.6056 	 6.71854 	 -98.7286
| 13> C 	 -58.7157 	 5.13835 	 -100.881
| 14> H 	 -58.8528 	 4.18849 	 -100.359
| 15> H 	 -58.7849 	 4.76382 	 -101.91
| 16> C 	 -59.9401 	 5.98352 	 -100.485
| 17> H 	 -60.1635 	 6.03499 	 -99.4483
| 18> H 	 -59.7364 	 7.05358 	 -100.823
| 19> C 	 -61.1721 	 5.47873 	 -101.274
| 20> H 	 -61.8481 	 6.38523 	 -101.177
| 21> H 	 -60.9593 	 5.28998 	 -102.35
| 22> H 	 -61.5861 	 4.67901 	 -100.757
| 23> S 	 -53.4787 	 6.2621 	 -97.569
| 24> C 	 -53.2786 	 7.53214 	 -96.3926
| 25> C 	 -53.7878 	 8.70309 	 -96.8167
| 26> C 	 -54.697 	 8.55233 	 -97.8992
| 27> C 	 -54.7819 	 7.21274 	 -98.3446
| 28> H 	 -53.6005 	 9.64753 	 -96.3028
| 29> C 	 -55.4828 	 9.70844 	 -98.5126
| 30> H 	 -55.775 	 10.4362 	 -97.7613
| 31> H 	 -56.4498 	 9.3793 	 -98.909
| 32> C 	 -54.8652 	 10.2582 	 -99.7787
| 33> H 	 -54.5743 	 9.39502 	 -100.364
| 34> H 	 -53.9394 	 10.8721 	 -99.5193
| 35> C 	 -55.8912 	 11.1166 	 -100.569
| 36> H 	 -56.8392 	 10.5558 	 -100.914
| 37> H 	 -55.5579 	 11.6128 	 -101.5
| 38> H 	 -56.3063 	 11.8772 	 -99.8934
| 39> H 	 -56.4124 	 4.89369 	 -102.4
| 40> H 	 -52.7363 	 7.48232 	 -95.4993
| 41> *
| 42>
| 43>                          ****END OF INPUT****

CARTESIAN COORDINATES (ANGSTROEM)
---------------------------------
  S    -54.830800    6.012720  -100.844000
  C    -56.267400    5.403070  -101.453000
  C    -57.367500    5.748260  -100.701000
  C    -56.914800    6.475390  -99.542200
  C    -55.559800    6.598920  -99.398100
  H    -57.605600    6.718540  -98.728600
  C    -58.715700    5.138350  -100.881000
  H    -58.852800    4.188490  -100.359000
  H    -58.784900    4.763820  -101.910000
  C    -59.940100    5.983520  -100.485000
  H    -60.163500    6.034990  -99.448300
  H    -59.736400    7.053580  -100.823000
  C    -61.172100    5.478730  -101.274000
  H    -61.848100    6.385230  -101.177000
  H    -60.959300    5.289980  -102.350000
  H    -61.586100    4.679010  -100.757000
  S    -53.478700    6.262100  -97.569000
  C    -53.278600    7.532140  -96.392600
  C    -53.787800    8.703090  -96.816700
  C    -54.697000    8.552330  -97.899200
  C    -54.781900    7.212740  -98.344600
  H    -53.600500    9.647530  -96.302800
  C    -55.482800    9.708440  -98.512600
  H    -55.775000   10.436200  -97.761300
  H    -56.449800    9.379300  -98.909000
  C    -54.865200   10.258200  -99.778700
  H    -54.574300    9.395020  -100.364000
  H    -53.939400   10.872100  -99.519300
  C    -55.891200   11.116600  -100.569000
  H    -56.839200   10.555800  -100.914000
  H    -55.557900   11.612800  -101.500000
  H    -56.306300   11.877200  -99.893400
  H    -56.412400    4.893690  -102.400000
  H    -52.736300    7.482320  -95.499300

 Total Charge           Charge          ....    0
 Multiplicity           Mult            ....    1
 Number of Electrons    NEL             ....  134
 Basis Dimension        Dim             ....  322

ORBITAL ENERGIES
----------------

  NO   OCC          E(Eh)            E(eV)
   0   2.0000     -88.964838     -2420.8563
   1   2.0000     -88.963092     -2420.8088
   2   2.0000     -10.329227      -281.0726
   3   2.0000     -10.324266      -280.9376
   4   2.0000     -10.311658      -280.5945
   5   2.0000     -10.307553      -280.4828
   6   2.0000     -10.305550      -280.4283
   7   2.0000     -10.295186      -280.1463
   8   2.0000     -10.291681      -280.0509
   9   2.0000     -10.291186      -280.0374
  10   2.0000     -10.290386      -280.0156
  11   2.0000     -10.288973      -279.9772
  12   2.0000     -10.288841      -279.9736
  13   2.0000     -10.287842      -279.9464
  14   2.0000     -10.284972      -279.8683
  15   2.0000     -10.281214      -279.7661
  16   2.0000      -8.079754      -219.8613
  17   2.0000      -8.079350      -219.8503
  18   2.0000      -6.038047      -164.3036
  19   2.0000      -6.037845      -164.2981
  20   2.0000      -6.034164      -164.1979
  21   2.0000      -6.033895      -164.1906
  22   2.0000      -6.030712      -164.1040
  23   2.0000      -6.029857      -164.0808
  24   2.0000      -1.013584       -27.5810
  25   2.0000      -0.990015       -26.9397
  26   2.0000      -0.913599       -24.8603
  27   2.0000      -0.908748       -24.7283
  28   2.0000      -0.874301       -23.7909
  29   2.0000      -0.849605       -23.1189
  30   2.0000      -0.844066       -22.9682
  31   2.0000      -0.817556       -22.2468
  32   2.0000      -0.779779       -21.2189
  33   2.0000      -0.767222       -20.8772
  34   2.0000      -0.713009       -19.4020
  35   2.0000      -0.693521       -18.8717
  36   2.0000      -0.688888       -18.7456
  37   2.0000      -0.657858       -17.9012
  38   2.0000      -0.644211       -17.5299
  39   2.0000      -0.621829       -16.9208
  40   2.0000      -0.601434       -16.3659
  41   2.0000      -0.576500       -15.6874
  42   2.0000      -0.567153       -15.4330
  43   2.0000      -0.561248       -15.2723
  44   2.0000      -0.524699       -14.2778
  45   2.0000      -0.520342       -14.1592
  46   2.0000      -0.512297       -13.9403
  47   2.0000      -0.509720       -13.8702
  48   2.0000      -0.505862       -13.7652
  49   2.0000      -0.499546       -13.5933
  50   2.0000      -0.492762       -13.4087
  51   2.0000      -0.480918       -13.0864
  52   2.0000      -0.469044       -12.7633
  53   2.0000      -0.466593       -12.6966
  54   2.0000      -0.458537       -12.4774
  55   2.0000      -0.446823       -12.1587
  56   2.0000      -0.441928       -12.0255
  57   2.0000      -0.440317       -11.9816
  58   2.0000      -0.431611       -11.7447
  59   2.0000      -0.425055       -11.5663
  60   2.0000      -0.421292       -11.4639
  61   2.0000      -0.411756       -11.2045
  62   2.0000      -0.408249       -11.1090
  63   2.0000      -0.345658        -9.4058
  64   2.0000      -0.330352        -8.9893
  65   2.0000      -0.325393        -8.8544
  66   2.0000      -0.292800        -7.9675
  67   0.0000       0.032395         0.8815
  68   0.0000       0.061200         1.6653
  69   0.0000       0.110955         3.0193
  70   0.0000       0.119307         3.2465
  71   0.0000       0.135296         3.6816

MULLIKEN ATOMIC CHARGES
-----------------------
   0 S :    0.128401
   1 C :   -0.114010
   2 C :   -0.080477
   3 C :    0.030504
   4 C :   -0.163286
   5 H :    0.015043
   6 C :    0.059398
   7 H :    0.037991
   8 H :    0.005282
   9 C :   -0.119941
  10 H :    0.035258
  11 H :    0.035361
  12 C :   -0.050793
  13 H :    0.040367
  14 H :    0.046926
  15 H :    0.028992
  16 S :    0.104301
  17 C :   -0.055674
  18 C :   -0.030357
  19 C :   -0.019338
  20 C :   -0.174748
  21 H :    0.021118
  22 C :    0.070512
  23 H :    0.021482
  24 H :    0.008285
  25 C :   -0.057286
  26 H :    0.034386
  27 H :    0.039019
  28 C :   -0.089211
  29 H :    0.040764
  30 H :    0.044182
  31 H :    0.027843
  32 H :    0.044575
  33 H :    0.035131
Sum of atomic charges:   -0.0000000

LOEWDIN ATOMIC CHARGES
----------------------
   0 S :    0.445335
   1 C :   -0.217886
   2 C :   -0.072789
   3 C :   -0.062907
   4 C :   -0.211600
   5 H :    0.031285
   6 C :   -0.040071
   7 H :    0.035908
   8 H :    0.028984
   9 C :   -0.042900
  10 H :    0.019230
  11 H :    0.026503
  12 C :   -0.059848
  13 H :    0.036206
  14 H :    0.029808
  15 H :    0.014281
  16 S :    0.389500
  17 C :   -0.167860
  18 C :   -0.072161
  19 C :   -0.041621
  20 C :   -0.192348
  21 H :    0.035052
  22 C :   -0.037675
  23 H :    0.025856
  24 H :    0.032333
  25 C :   -0.038671
  26 H :    0.024128
  27 H :    0.029046
  28 C :   -0.080317
  29 H :    0.033320
  30 H :    0.028064
  31 H :    0.023328
  32 H :    0.029606
  33 H :    0.020880

  Mayer bond orders larger than 0.100000
B(  0-S ,  1-C ) :   1.1634 B(  0-S ,  4-C ) :   1.1570 B(  1-C ,  2-C ) :   1.5932
B(  1-C , 32-H ) :   0.9624 B(  2-C ,  3-C ) :   1.2503 B(  2-C ,  6-C ) :   1.0452
B(  3-C ,  4-C ) :   1.5869 B(  3-C ,  5-H ) :   0.9939 B(  4-C , 20-C ) :   1.0402
B(  6-C ,  7-H ) :   0.9313 B(  6-C ,  8-H ) :   0.9397 B(  6-C ,  9-C ) :   1.0469
B(  9-C , 10-H ) :   0.9519 B(  9-C , 11-H ) :   0.9701 B(  9-C , 12-C ) :   1.0745
B( 12-C , 13-H ) :   0.9778 B( 12-C , 14-H ) :   0.9775 B( 12-C , 15-H ) :   0.9777
B( 16-S , 17-C ) :   1.1497 B( 16-S , 20-C ) :   1.1239 B( 17-C , 18-C ) :   1.6163
B( 17-C , 20-C ) :   0.1042 B( 17-C , 33-H ) :   0.9734 B( 18-C , 19-C ) :   1.2413
B( 18-C , 21-H ) :   0.9893 B( 19-C , 20-C ) :   1.5803 B( 19-C , 22-C ) :   1.0501
B( 22-C , 23-H ) :   0.9322 B( 22-C , 24-H ) :   0.9326 B( 22-C , 25-C ) :   1.0497
B( 25-C , 26-H ) :   0.9558 B( 25-C , 27-H ) :   0.9528 B( 25-C , 28-C ) :   1.0742
B( 28-C , 29-H ) :   0.9715 B( 28-C , 30-H ) :   0.9762 B( 28-C , 31-H ) :   0.9737

Dispersion correction           -0.014097031
FINAL SINGLE POINT ENERGY     -1339.867257349992

DIPOLE MOMENT
-------------
                                X             Y             Z
Electronic contribution:     24.39268     -12.02626       8.76432
Nuclear contribution   :    -24.90031      12.28433      -8.67965
                        -----------------------------------------
Total Dipole Moment    :     -0.50764       0.25808       0.08466
                        -----------------------------------------
Magnitude (a.u.)       :      0.57573
Magnitude (Debye)      :      1.46339

Rotational constants in cm-1:     0.018795     0.008147     0.006943
Rotational constants in MHz :   563.458766   244.251663   208.147185

                             ****ORCA TERMINATED NORMALLY****
TOTAL RUN TIME: 0 days 0 hours 0 minutes 21 seconds 561 msec
