                         Program Version 4.2.1 -  RELEASE  -
|  1> ! wB97X-D3 SP def2-SVP
|  2> %pal
|  3> nprocs 24
|  4> end
|  5>
|  6> * xyz 0 1
|  7> S 	 -38.7712 	 12.782 	 21.4455
|  8> C 	 -39.8231 	 13.099 	 20.1271
|  9> C 	 -41.1709 	 13.1341 	 20.4643
| 10> C 	 -41.3848 	 12.9717 	 21.8744
| 11> C 	 -40.1423 	 12.76 	 22.5149
| 12> H 	 -42.2805 	 12.9514 	 22.4652
| 13> C 	 -42.2581 	 13.4535 	 19.5308
| 14> H 	 -41.8276 	 13.3504 	 18.5542
| 15> H 	 -42.3317 	 14.5426 	 19.4956
| 16> C 	 -43.5849 	 12.6844 	 19.6023
| 17> H 	 -43.9304 	 12.7008 	 20.5968
| 18> H 	 -44.2784 	 13.1924 	 18.8578
| 19> C 	 -43.4267 	 11.1525 	 19.2348
| 20> H 	 -42.4927 	 10.5957 	 19.5345
| 21> H 	 -44.2508 	 10.6149 	 19.6567
| 22> H 	 -43.6119 	 11.139 	 18.1806
| 23> S 	 -39.4718 	 13.8379 	 25.0084
| 24> C 	 -39.6117 	 12.9808 	 26.4877
| 25> C 	 -40.0528 	 11.6993 	 26.2091
| 26> C 	 -40.2475 	 11.4496 	 24.8245
| 27> C 	 -39.9599 	 12.527 	 23.9715
| 28> H 	 -40.2503 	 10.9869 	 27.0865
| 29> C 	 -40.6652 	 10.1521 	 24.2188
| 30> H 	 -39.8105 	 9.4199 	 24.3241
| 31> H 	 -40.8449 	 10.199 	 23.1523
| 32> C 	 -42.0091 	 9.64503 	 24.7203
| 33> H 	 -42.0763 	 9.61206 	 25.7535
| 34> H 	 -42.357 	 8.70175 	 24.2363
| 35> C 	 -43.1493 	 10.6857 	 24.4689
| 36> H 	 -42.8809 	 11.7045 	 24.8373
| 37> H 	 -44.1105 	 10.325 	 24.9611
| 38> H 	 -43.2322 	 10.8947 	 23.372
| 39> H 	 -39.3963 	 13.2319 	 19.1163
| 40> H 	 -39.6243 	 13.4627 	 27.432
| 41> *
| 42>
| 43>                          ****END OF INPUT****

CARTESIAN COORDINATES (ANGSTROEM)
---------------------------------
  S    -38.771200   12.782000   21.445500
  C    -39.823100   13.099000   20.127100
  C    -41.170900   13.134100   20.464300
  C    -41.384800   12.971700   21.874400
  C    -40.142300   12.760000   22.514900
  H    -42.280500   12.951400   22.465200
  C    -42.258100   13.453500   19.530800
  H    -41.827600   13.350400   18.554200
  H    -42.331700   14.542600   19.495600
  C    -43.584900   12.684400   19.602300
  H    -43.930400   12.700800   20.596800
  H    -44.278400   13.192400   18.857800
  C    -43.426700   11.152500   19.234800
  H    -42.492700   10.595700   19.534500
  H    -44.250800   10.614900   19.656700
  H    -43.611900   11.139000   18.180600
  S    -39.471800   13.837900   25.008400
  C    -39.611700   12.980800   26.487700
  C    -40.052800   11.699300   26.209100
  C    -40.247500   11.449600   24.824500
  C    -39.959900   12.527000   23.971500
  H    -40.250300   10.986900   27.086500
  C    -40.665200   10.152100   24.218800
  H    -39.810500    9.419900   24.324100
  H    -40.844900   10.199000   23.152300
  C    -42.009100    9.645030   24.720300
  H    -42.076300    9.612060   25.753500
  H    -42.357000    8.701750   24.236300
  C    -43.149300   10.685700   24.468900
  H    -42.880900   11.704500   24.837300
  H    -44.110500   10.325000   24.961100
  H    -43.232200   10.894700   23.372000
  H    -39.396300   13.231900   19.116300
  H    -39.624300   13.462700   27.432000

 Total Charge           Charge          ....    0
 Multiplicity           Mult            ....    1
 Number of Electrons    NEL             ....  134
 Basis Dimension        Dim             ....  322

ORBITAL ENERGIES
----------------

  NO   OCC          E(Eh)            E(eV)
   0   2.0000     -88.970470     -2421.0096
   1   2.0000     -88.959655     -2420.7153
   2   2.0000     -10.333489      -281.1885
   3   2.0000     -10.325253      -280.9644
   4   2.0000     -10.314801      -280.6800
   5   2.0000     -10.314119      -280.6614
   6   2.0000     -10.302733      -280.3516
   7   2.0000     -10.302096      -280.3343
   8   2.0000     -10.300319      -280.2859
   9   2.0000     -10.299886      -280.2742
  10   2.0000     -10.295074      -280.1432
  11   2.0000     -10.287059      -279.9251
  12   2.0000     -10.285025      -279.8698
  13   2.0000     -10.284027      -279.8426
  14   2.0000     -10.281235      -279.7666
  15   2.0000     -10.278993      -279.7056
  16   2.0000      -8.085849      -220.0271
  17   2.0000      -8.075368      -219.7419
  18   2.0000      -6.044115      -164.4687
  19   2.0000      -6.040253      -164.3636
  20   2.0000      -6.036851      -164.2711
  21   2.0000      -6.033693      -164.1851
  22   2.0000      -6.029455      -164.0698
  23   2.0000      -6.026523      -163.9900
  24   2.0000      -1.008181       -27.4340
  25   2.0000      -0.989469       -26.9248
  26   2.0000      -0.913904       -24.8686
  27   2.0000      -0.910909       -24.7871
  28   2.0000      -0.866305       -23.5734
  29   2.0000      -0.850627       -23.1467
  30   2.0000      -0.840624       -22.8745
  31   2.0000      -0.816468       -22.2172
  32   2.0000      -0.781242       -21.2587
  33   2.0000      -0.768596       -20.9145
  34   2.0000      -0.711578       -19.3630
  35   2.0000      -0.694892       -18.9090
  36   2.0000      -0.689423       -18.7602
  37   2.0000      -0.647348       -17.6152
  38   2.0000      -0.647216       -17.6116
  39   2.0000      -0.624004       -16.9800
  40   2.0000      -0.605374       -16.4731
  41   2.0000      -0.569592       -15.4994
  42   2.0000      -0.550711       -14.9856
  43   2.0000      -0.549124       -14.9424
  44   2.0000      -0.542905       -14.7732
  45   2.0000      -0.537630       -14.6296
  46   2.0000      -0.520738       -14.1700
  47   2.0000      -0.516402       -14.0520
  48   2.0000      -0.498247       -13.5580
  49   2.0000      -0.493657       -13.4331
  50   2.0000      -0.485073       -13.1995
  51   2.0000      -0.479047       -13.0355
  52   2.0000      -0.471312       -12.8251
  53   2.0000      -0.462207       -12.5773
  54   2.0000      -0.458020       -12.4634
  55   2.0000      -0.453261       -12.3339
  56   2.0000      -0.440239       -11.9795
  57   2.0000      -0.438323       -11.9274
  58   2.0000      -0.432761       -11.7760
  59   2.0000      -0.429255       -11.6806
  60   2.0000      -0.416246       -11.3266
  61   2.0000      -0.412995       -11.2382
  62   2.0000      -0.400676       -10.9029
  63   2.0000      -0.338245        -9.2041
  64   2.0000      -0.328613        -8.9420
  65   2.0000      -0.322698        -8.7811
  66   2.0000      -0.305763        -8.3202
  67   0.0000       0.043039         1.1712
  68   0.0000       0.054446         1.4816
  69   0.0000       0.117715         3.2032
  70   0.0000       0.124650         3.3919
  71   0.0000       0.127012         3.4562

MULLIKEN ATOMIC CHARGES
-----------------------
   0 S :    0.140791
   1 C :   -0.137165
   2 C :   -0.091324
   3 C :    0.057830
   4 C :   -0.194879
   5 H :    0.010637
   6 C :    0.090069
   7 H :   -0.010926
   8 H :    0.038377
   9 C :   -0.072754
  10 H :    0.028543
  11 H :    0.049292
  12 C :   -0.066612
  13 H :    0.062255
  14 H :    0.025522
  15 H :    0.025961
  16 S :    0.101893
  17 C :   -0.088406
  18 C :   -0.064129
  19 C :   -0.052586
  20 C :   -0.168225
  21 H :    0.050765
  22 C :    0.073463
  23 H :    0.049886
  24 H :    0.023794
  25 C :   -0.049438
  26 H :    0.012694
  27 H :    0.041252
  28 C :   -0.128393
  29 H :    0.049264
  30 H :    0.052118
  31 H :    0.024480
  32 H :    0.057728
  33 H :    0.058224
Sum of atomic charges:   -0.0000000

LOEWDIN ATOMIC CHARGES
----------------------
   0 S :    0.436871
   1 C :   -0.214747
   2 C :   -0.063173
   3 C :   -0.050037
   4 C :   -0.200089
   5 H :    0.031206
   6 C :   -0.045330
   7 H :    0.025952
   8 H :    0.039084
   9 C :   -0.031500
  10 H :    0.013410
  11 H :    0.038701
  12 C :   -0.070220
  13 H :    0.036737
  14 H :    0.022344
  15 H :    0.022942
  16 S :    0.427040
  17 C :   -0.192749
  18 C :   -0.087376
  19 C :   -0.062718
  20 C :   -0.215816
  21 H :    0.045911
  22 C :   -0.037355
  23 H :    0.039758
  24 H :    0.030113
  25 C :   -0.038069
  26 H :    0.009453
  27 H :    0.030408
  28 C :   -0.076424
  29 H :    0.025210
  30 H :    0.033671
  31 H :    0.018305
  32 H :    0.031073
  33 H :    0.027416

  Mayer bond orders larger than 0.100000
B(  0-S ,  1-C ) :   1.1525 B(  0-S ,  4-C ) :   1.1866 B(  1-C ,  2-C ) :   1.5904
B(  1-C , 32-H ) :   0.9629 B(  2-C ,  3-C ) :   1.2271 B(  2-C ,  6-C ) :   1.0375
B(  3-C ,  4-C ) :   1.5640 B(  3-C ,  5-H ) :   0.9957 B(  4-C , 20-C ) :   0.9928
B(  6-C ,  7-H ) :   0.9229 B(  6-C ,  8-H ) :   0.9246 B(  6-C ,  9-C ) :   1.0608
B(  9-C , 10-H ) :   0.9641 B(  9-C , 11-H ) :   0.9580 B(  9-C , 12-C ) :   1.0599
B( 12-C , 13-H ) :   0.9778 B( 12-C , 14-H ) :   0.9769 B( 12-C , 15-H ) :   0.9783
B( 16-S , 17-C ) :   1.1940 B( 16-S , 20-C ) :   1.1654 B( 17-C , 18-C ) :   1.5562
B( 17-C , 20-C ) :   0.1063 B( 17-C , 33-H ) :   0.9723 B( 18-C , 19-C ) :   1.2737
B( 18-C , 21-H ) :   0.9813 B( 19-C , 20-C ) :   1.5583 B( 19-C , 22-C ) :   1.0461
B( 22-C , 23-H ) :   0.9366 B( 22-C , 24-H ) :   0.9366 B( 22-C , 25-C ) :   1.0590
B( 25-C , 26-H ) :   0.9612 B( 25-C , 27-H ) :   0.9593 B( 25-C , 28-C ) :   1.0594
B( 28-C , 29-H ) :   0.9700 B( 28-C , 30-H ) :   0.9727 B( 28-C , 31-H ) :   0.9719

Dispersion correction           -0.015924826
FINAL SINGLE POINT ENERGY     -1339.870986490330

DIPOLE MOMENT
-------------
                                X             Y             Z
Electronic contribution:     23.66223      13.14053       8.57304
Nuclear contribution   :    -24.17964     -13.32862      -8.74588
                        -----------------------------------------
Total Dipole Moment    :     -0.51741      -0.18808      -0.17284
                        -----------------------------------------
Magnitude (a.u.)       :      0.57703
Magnitude (Debye)      :      1.46669

Rotational constants in cm-1:     0.019395     0.009710     0.007525
Rotational constants in MHz :   581.454328   291.092309   225.590577

                             ****ORCA TERMINATED NORMALLY****
TOTAL RUN TIME: 0 days 0 hours 0 minutes 22 seconds 931 msec
