                         Program Version 4.2.1 -  RELEASE  -
|  1> ! wB97X-D3 SP def2-SVP
|  2> %pal
|  3> nprocs 24
|  4> end
|  5>
|  6> * xyz 0 1
|  7> S 	 -39.6343 	 -9.80993 	 6.28357
|  8> C 	 -39.683 	 -10.9552 	 7.53884
|  9> C 	 -39.1144 	 -10.5515 	 8.75295
| 10> C 	 -38.6878 	 -9.17593 	 8.5929
| 11> C 	 -38.9877 	 -8.63363 	 7.34224
| 12> H 	 -38.1647 	 -8.51824 	 9.21347
| 13> C 	 -38.8129 	 -11.4304 	 9.97567
| 14> H 	 -38.9736 	 -12.4099 	 9.70978
| 15> H 	 -39.6287 	 -11.2602 	 10.7653
| 16> C 	 -37.4297 	 -11.3115 	 10.6493
| 17> H 	 -37.3747 	 -10.3723 	 11.1947
| 18> H 	 -37.5439 	 -12.1562 	 11.4046
| 19> C 	 -36.2842 	 -11.5578 	 9.70044
| 20> H 	 -35.4414 	 -11.0162 	 9.8677
| 21> H 	 -35.9463 	 -12.6339 	 9.76393
| 22> H 	 -36.4715 	 -11.266 	 8.66436
| 23> S 	 -36.9265 	 -7.34964 	 6.04523
| 24> C 	 -36.9051 	 -5.60347 	 6.00008
| 25> C 	 -38.0082 	 -5.08726 	 6.72245
| 26> C 	 -38.9341 	 -6.07658 	 7.1755
| 27> C 	 -38.4653 	 -7.33251 	 6.84673
| 28> H 	 -38.1014 	 -4.00506 	 6.90409
| 29> C 	 -40.2252 	 -5.67125 	 7.84299
| 30> H 	 -40.8815 	 -6.59025 	 7.93357
| 31> H 	 -40.7481 	 -5.07819 	 7.05821
| 32> C 	 -40.1027 	 -5.02907 	 9.27766
| 33> H 	 -39.3371 	 -4.26965 	 9.16088
| 34> H 	 -39.8937 	 -5.85543 	 9.9314
| 35> C 	 -41.4569 	 -4.39543 	 9.68669
| 36> H 	 -41.3482 	 -3.75736 	 10.5917
| 37> H 	 -42.1308 	 -5.18674 	 9.91847
| 38> H 	 -41.8778 	 -3.85784 	 8.84356
| 39> H 	 -39.9084 	 -11.9898 	 7.27967
| 40> H 	 -35.9955 	 -4.9768 	 5.72021
| 41> *
| 42>
| 43>                          ****END OF INPUT****

CARTESIAN COORDINATES (ANGSTROEM)
---------------------------------
  S    -39.634300   -9.809930    6.283570
  C    -39.683000  -10.955200    7.538840
  C    -39.114400  -10.551500    8.752950
  C    -38.687800   -9.175930    8.592900
  C    -38.987700   -8.633630    7.342240
  H    -38.164700   -8.518240    9.213470
  C    -38.812900  -11.430400    9.975670
  H    -38.973600  -12.409900    9.709780
  H    -39.628700  -11.260200   10.765300
  C    -37.429700  -11.311500   10.649300
  H    -37.374700  -10.372300   11.194700
  H    -37.543900  -12.156200   11.404600
  C    -36.284200  -11.557800    9.700440
  H    -35.441400  -11.016200    9.867700
  H    -35.946300  -12.633900    9.763930
  H    -36.471500  -11.266000    8.664360
  S    -36.926500   -7.349640    6.045230
  C    -36.905100   -5.603470    6.000080
  C    -38.008200   -5.087260    6.722450
  C    -38.934100   -6.076580    7.175500
  C    -38.465300   -7.332510    6.846730
  H    -38.101400   -4.005060    6.904090
  C    -40.225200   -5.671250    7.842990
  H    -40.881500   -6.590250    7.933570
  H    -40.748100   -5.078190    7.058210
  C    -40.102700   -5.029070    9.277660
  H    -39.337100   -4.269650    9.160880
  H    -39.893700   -5.855430    9.931400
  C    -41.456900   -4.395430    9.686690
  H    -41.348200   -3.757360   10.591700
  H    -42.130800   -5.186740    9.918470
  H    -41.877800   -3.857840    8.843560
  H    -39.908400  -11.989800    7.279670
  H    -35.995500   -4.976800    5.720210

 Total Charge           Charge          ....    0
 Multiplicity           Mult            ....    1
 Number of Electrons    NEL             ....  134
 Basis Dimension        Dim             ....  322

ORBITAL ENERGIES
----------------

  NO   OCC          E(Eh)            E(eV)
   0   2.0000     -88.967005     -2420.9153
   1   2.0000     -88.965067     -2420.8625
   2   2.0000     -10.323409      -280.9142
   3   2.0000     -10.322389      -280.8865
   4   2.0000     -10.320944      -280.8472
   5   2.0000     -10.310915      -280.5743
   6   2.0000     -10.306365      -280.4505
   7   2.0000     -10.299976      -280.2766
   8   2.0000     -10.296579      -280.1842
   9   2.0000     -10.296445      -280.1805
  10   2.0000     -10.293471      -280.0996
  11   2.0000     -10.292803      -280.0814
  12   2.0000     -10.291056      -280.0339
  13   2.0000     -10.290260      -280.0122
  14   2.0000     -10.278050      -279.6799
  15   2.0000     -10.269870      -279.4574
  16   2.0000      -8.081903      -219.9198
  17   2.0000      -8.081431      -219.9069
  18   2.0000      -6.040329      -164.3657
  19   2.0000      -6.039577      -164.3452
  20   2.0000      -6.036426      -164.2595
  21   2.0000      -6.035668      -164.2389
  22   2.0000      -6.032707      -164.1583
  23   2.0000      -6.032546      -164.1539
  24   2.0000      -1.007989       -27.4288
  25   2.0000      -0.984691       -26.7948
  26   2.0000      -0.911174       -24.7943
  27   2.0000      -0.904761       -24.6198
  28   2.0000      -0.862535       -23.4708
  29   2.0000      -0.852106       -23.1870
  30   2.0000      -0.847765       -23.0689
  31   2.0000      -0.808955       -22.0128
  32   2.0000      -0.784907       -21.3584
  33   2.0000      -0.769477       -20.9385
  34   2.0000      -0.705084       -19.1863
  35   2.0000      -0.699128       -19.0242
  36   2.0000      -0.681853       -18.5542
  37   2.0000      -0.655226       -17.8296
  38   2.0000      -0.649585       -17.6761
  39   2.0000      -0.616426       -16.7738
  40   2.0000      -0.591128       -16.0854
  41   2.0000      -0.567786       -15.4502
  42   2.0000      -0.558945       -15.2097
  43   2.0000      -0.553814       -15.0700
  44   2.0000      -0.537358       -14.6223
  45   2.0000      -0.522422       -14.2158
  46   2.0000      -0.512591       -13.9483
  47   2.0000      -0.508908       -13.8481
  48   2.0000      -0.503502       -13.7010
  49   2.0000      -0.491535       -13.3753
  50   2.0000      -0.484769       -13.1912
  51   2.0000      -0.475582       -12.9412
  52   2.0000      -0.471316       -12.8252
  53   2.0000      -0.462419       -12.5831
  54   2.0000      -0.458585       -12.4787
  55   2.0000      -0.447966       -12.1898
  56   2.0000      -0.444872       -12.1056
  57   2.0000      -0.438086       -11.9209
  58   2.0000      -0.436460       -11.8767
  59   2.0000      -0.426381       -11.6024
  60   2.0000      -0.423296       -11.5185
  61   2.0000      -0.416544       -11.3347
  62   2.0000      -0.415641       -11.3102
  63   2.0000      -0.337110        -9.1732
  64   2.0000      -0.326450        -8.8832
  65   2.0000      -0.320501        -8.7213
  66   2.0000      -0.306323        -8.3355
  67   0.0000       0.046242         1.2583
  68   0.0000       0.057590         1.5671
  69   0.0000       0.116347         3.1660
  70   0.0000       0.121940         3.3182
  71   0.0000       0.129120         3.5135

MULLIKEN ATOMIC CHARGES
-----------------------
   0 S :    0.129518
   1 C :   -0.126436
   2 C :   -0.086894
   3 C :    0.055275
   4 C :   -0.207717
   5 H :   -0.013275
   6 C :    0.084859
   7 H :   -0.009360
   8 H :    0.045607
   9 C :   -0.090414
  10 H :    0.038976
  11 H :    0.043327
  12 C :   -0.021540
  13 H :    0.004310
  14 H :    0.038145
  15 H :    0.041460
  16 S :    0.125059
  17 C :   -0.126696
  18 C :   -0.059274
  19 C :    0.001565
  20 C :   -0.183290
  21 H :    0.028744
  22 C :   -0.005186
  23 H :    0.033997
  24 H :    0.043445
  25 C :   -0.053668
  26 H :    0.031058
  27 H :    0.039324
  28 C :   -0.036271
  29 H :    0.045755
  30 H :    0.024501
  31 H :    0.029267
  32 H :    0.049982
  33 H :    0.085846
Sum of atomic charges:   -0.0000000

LOEWDIN ATOMIC CHARGES
----------------------
   0 S :    0.447019
   1 C :   -0.214886
   2 C :   -0.062540
   3 C :   -0.053628
   4 C :   -0.220205
   5 H :    0.019851
   6 C :   -0.030030
   7 H :    0.014494
   8 H :    0.042636
   9 C :   -0.043024
  10 H :    0.022649
  11 H :    0.038171
  12 C :   -0.069946
  13 H :    0.013764
  14 H :    0.036805
  15 H :    0.032448
  16 S :    0.418255
  17 C :   -0.209197
  18 C :   -0.073317
  19 C :   -0.061670
  20 C :   -0.211921
  21 H :    0.031594
  22 C :   -0.040751
  23 H :    0.034674
  24 H :    0.036163
  25 C :   -0.028204
  26 H :    0.020206
  27 H :    0.027002
  28 C :   -0.063205
  29 H :    0.031070
  30 H :    0.022057
  31 H :    0.024116
  32 H :    0.024259
  33 H :    0.045291

  Mayer bond orders larger than 0.100000
B(  0-S ,  1-C ) :   1.1796 B(  0-S ,  4-C ) :   1.1759 B(  1-C ,  2-C ) :   1.5860
B(  1-C , 32-H ) :   0.9623 B(  2-C ,  3-C ) :   1.2304 B(  2-C ,  6-C ) :   1.0204
B(  3-C ,  4-C ) :   1.5828 B(  3-C ,  5-H ) :   1.0037 B(  4-C , 20-C ) :   0.9854
B(  6-C ,  7-H ) :   0.9386 B(  6-C ,  8-H ) :   0.9333 B(  6-C ,  9-C ) :   1.0717
B(  9-C , 10-H ) :   0.9566 B(  9-C , 11-H ) :   0.9596 B(  9-C , 12-C ) :   1.0659
B( 12-C , 13-H ) :   0.9716 B( 12-C , 14-H ) :   0.9746 B( 12-C , 15-H ) :   0.9747
B( 16-S , 17-C ) :   1.1558 B( 16-S , 20-C ) :   1.1642 B( 17-C , 18-C ) :   1.6022
B( 17-C , 33-H ) :   0.9578 B( 18-C , 19-C ) :   1.2499 B( 18-C , 21-H ) :   0.9813
B( 19-C , 20-C ) :   1.6006 B( 19-C , 22-C ) :   1.0356 B( 22-C , 23-H ) :   0.9330
B( 22-C , 24-H ) :   0.9423 B( 22-C , 25-C ) :   1.0472 B( 25-C , 26-H ) :   0.9644
B( 25-C , 27-H ) :   0.9547 B( 25-C , 28-C ) :   1.0805 B( 28-C , 29-H ) :   0.9747
B( 28-C , 30-H ) :   0.9746 B( 28-C , 31-H ) :   0.9766

Dispersion correction           -0.014416950
FINAL SINGLE POINT ENERGY     -1339.869514882049

DIPOLE MOMENT
-------------
                                X             Y             Z
Electronic contribution:      3.63913      -2.08646     -21.49976
Nuclear contribution   :     -3.54225       2.14245      22.04702
                        -----------------------------------------
Total Dipole Moment    :      0.09688       0.05599       0.54726
                        -----------------------------------------
Magnitude (a.u.)       :      0.55858
Magnitude (Debye)      :      1.41980

Rotational constants in cm-1:     0.016941     0.008669     0.007471
Rotational constants in MHz :   507.867594   259.881440   223.979859

                             ****ORCA TERMINATED NORMALLY****
TOTAL RUN TIME: 0 days 0 hours 0 minutes 21 seconds 331 msec
