                         Program Version 4.2.1 -  RELEASE  -
|  1> ! wB97X-D3 SP def2-SVP
|  2> %pal
|  3> nprocs 24
|  4> end
|  5>
|  6> * xyz 0 1
|  7> S 	 -108.901 	 18.1604 	 -120.567
|  8> C 	 -110.6 	 17.6939 	 -120.568
|  9> C 	 -110.984 	 17.2125 	 -121.804
| 10> C 	 -109.909 	 17.313 	 -122.78
| 11> C 	 -108.731 	 17.8593 	 -122.261
| 12> H 	 -110.042 	 16.9923 	 -123.826
| 13> C 	 -112.323 	 16.5441 	 -122.184
| 14> H 	 -112.451 	 16.5807 	 -123.231
| 15> H 	 -113.152 	 17.1333 	 -121.808
| 16> C 	 -112.649 	 15.096 	 -121.841
| 17> H 	 -112.227 	 14.829 	 -120.883
| 18> H 	 -113.737 	 14.939 	 -121.836
| 19> C 	 -112.03 	 14.0457 	 -122.828
| 20> H 	 -112.445 	 14.0102 	 -123.839
| 21> H 	 -111.013 	 14.3882 	 -122.87
| 22> H 	 -112.15 	 12.9835 	 -122.449
| 23> S 	 -106.349 	 16.666 	 -122.705
| 24> C 	 -105.351 	 17.0182 	 -124.035
| 25> C 	 -105.929 	 18.0082 	 -124.78
| 26> C 	 -107.206 	 18.5034 	 -124.304
| 27> C 	 -107.506 	 17.9368 	 -123.065
| 28> H 	 -105.325 	 18.401 	 -125.618
| 29> C 	 -108.024 	 19.454 	 -125.159
| 30> H 	 -107.447 	 20.1795 	 -125.653
| 31> H 	 -108.622 	 19.9931 	 -124.467
| 32> C 	 -108.8 	 18.931 	 -126.412
| 33> H 	 -109.349 	 18.0073 	 -126.185
| 34> H 	 -108.179 	 18.5388 	 -127.223
| 35> C 	 -109.756 	 19.8654 	 -127.077
| 36> H 	 -110.565 	 20.0444 	 -126.431
| 37> H 	 -109.996 	 19.4128 	 -127.996
| 38> H 	 -109.222 	 20.8484 	 -127.21
| 39> H 	 -111.184 	 17.6005 	 -119.624
| 40> H 	 -104.464 	 16.4703 	 -124.255
| 41> *
| 42>
| 43>                          ****END OF INPUT****

CARTESIAN COORDINATES (ANGSTROEM)
---------------------------------
  S    -108.901000   18.160400  -120.567000
  C    -110.600000   17.693900  -120.568000
  C    -110.984000   17.212500  -121.804000
  C    -109.909000   17.313000  -122.780000
  C    -108.731000   17.859300  -122.261000
  H    -110.042000   16.992300  -123.826000
  C    -112.323000   16.544100  -122.184000
  H    -112.451000   16.580700  -123.231000
  H    -113.152000   17.133300  -121.808000
  C    -112.649000   15.096000  -121.841000
  H    -112.227000   14.829000  -120.883000
  H    -113.737000   14.939000  -121.836000
  C    -112.030000   14.045700  -122.828000
  H    -112.445000   14.010200  -123.839000
  H    -111.013000   14.388200  -122.870000
  H    -112.150000   12.983500  -122.449000
  S    -106.349000   16.666000  -122.705000
  C    -105.351000   17.018200  -124.035000
  C    -105.929000   18.008200  -124.780000
  C    -107.206000   18.503400  -124.304000
  C    -107.506000   17.936800  -123.065000
  H    -105.325000   18.401000  -125.618000
  C    -108.024000   19.454000  -125.159000
  H    -107.447000   20.179500  -125.653000
  H    -108.622000   19.993100  -124.467000
  C    -108.800000   18.931000  -126.412000
  H    -109.349000   18.007300  -126.185000
  H    -108.179000   18.538800  -127.223000
  C    -109.756000   19.865400  -127.077000
  H    -110.565000   20.044400  -126.431000
  H    -109.996000   19.412800  -127.996000
  H    -109.222000   20.848400  -127.210000
  H    -111.184000   17.600500  -119.624000
  H    -104.464000   16.470300  -124.255000

 Total Charge           Charge          ....    0
 Multiplicity           Mult            ....    1
 Number of Electrons    NEL             ....  134
 Basis Dimension        Dim             ....  322

ORBITAL ENERGIES
----------------

  NO   OCC          E(Eh)            E(eV)
   0   2.0000     -88.970664     -2421.0149
   1   2.0000     -88.959769     -2420.7184
   2   2.0000     -10.331804      -281.1427
   3   2.0000     -10.329634      -281.0836
   4   2.0000     -10.321176      -280.8535
   5   2.0000     -10.311090      -280.5790
   6   2.0000     -10.310546      -280.5642
   7   2.0000     -10.307866      -280.4913
   8   2.0000     -10.299217      -280.2559
   9   2.0000     -10.292693      -280.0784
  10   2.0000     -10.289718      -279.9975
  11   2.0000     -10.288457      -279.9631
  12   2.0000     -10.287425      -279.9351
  13   2.0000     -10.284744      -279.8621
  14   2.0000     -10.278775      -279.6997
  15   2.0000     -10.273239      -279.5490
  16   2.0000      -8.085303      -220.0123
  17   2.0000      -8.075836      -219.7547
  18   2.0000      -6.043824      -164.4608
  19   2.0000      -6.039792      -164.3511
  20   2.0000      -6.036077      -164.2500
  21   2.0000      -6.034232      -164.1998
  22   2.0000      -6.030083      -164.0869
  23   2.0000      -6.026674      -163.9941
  24   2.0000      -1.008220       -27.4351
  25   2.0000      -0.985694       -26.8221
  26   2.0000      -0.912077       -24.8189
  27   2.0000      -0.909840       -24.7580
  28   2.0000      -0.870761       -23.6946
  29   2.0000      -0.856979       -23.3196
  30   2.0000      -0.844097       -22.9691
  31   2.0000      -0.809900       -22.0385
  32   2.0000      -0.785772       -21.3819
  33   2.0000      -0.777949       -21.1691
  34   2.0000      -0.702394       -19.1131
  35   2.0000      -0.698221       -18.9996
  36   2.0000      -0.693588       -18.8735
  37   2.0000      -0.660159       -17.9638
  38   2.0000      -0.639292       -17.3960
  39   2.0000      -0.616610       -16.7788
  40   2.0000      -0.600451       -16.3391
  41   2.0000      -0.573066       -15.5939
  42   2.0000      -0.566472       -15.4145
  43   2.0000      -0.554649       -15.0928
  44   2.0000      -0.543217       -14.7817
  45   2.0000      -0.535117       -14.5613
  46   2.0000      -0.517072       -14.0702
  47   2.0000      -0.510568       -13.8933
  48   2.0000      -0.506004       -13.7691
  49   2.0000      -0.499278       -13.5860
  50   2.0000      -0.487022       -13.2525
  51   2.0000      -0.479167       -13.0388
  52   2.0000      -0.475777       -12.9466
  53   2.0000      -0.465907       -12.6780
  54   2.0000      -0.456552       -12.4234
  55   2.0000      -0.453995       -12.3538
  56   2.0000      -0.446750       -12.1567
  57   2.0000      -0.436789       -11.8856
  58   2.0000      -0.432919       -11.7803
  59   2.0000      -0.421383       -11.4664
  60   2.0000      -0.420890       -11.4530
  61   2.0000      -0.409474       -11.1424
  62   2.0000      -0.406363       -11.0577
  63   2.0000      -0.340722        -9.2715
  64   2.0000      -0.332295        -9.0422
  65   2.0000      -0.324201        -8.8220
  66   2.0000      -0.304457        -8.2847
  67   0.0000       0.035484         0.9656
  68   0.0000       0.064056         1.7431
  69   0.0000       0.117785         3.2051
  70   0.0000       0.121758         3.3132
  71   0.0000       0.124119         3.3775

MULLIKEN ATOMIC CHARGES
-----------------------
   0 S :    0.120245
   1 C :   -0.139935
   2 C :   -0.086614
   3 C :    0.027268
   4 C :   -0.159228
   5 H :    0.025190
   6 C :    0.079570
   7 H :    0.002343
   8 H :    0.027517
   9 C :   -0.055776
  10 H :    0.025705
  11 H :    0.032065
  12 C :   -0.094123
  13 H :    0.031092
  14 H :    0.038060
  15 H :    0.045815
  16 S :    0.097682
  17 C :   -0.080669
  18 C :   -0.052956
  19 C :   -0.037596
  20 C :   -0.149838
  21 H :    0.028678
  22 C :    0.126500
  23 H :    0.003409
  24 H :    0.017209
  25 C :   -0.103423
  26 H :    0.010484
  27 H :    0.019085
  28 C :   -0.004484
  29 H :    0.027033
  30 H :    0.030750
  31 H :    0.026132
  32 H :    0.069328
  33 H :    0.053483
Sum of atomic charges:    0.0000000

LOEWDIN ATOMIC CHARGES
----------------------
   0 S :    0.418211
   1 C :   -0.199231
   2 C :   -0.064226
   3 C :   -0.059587
   4 C :   -0.216704
   5 H :    0.034055
   6 C :   -0.034497
   7 H :    0.023886
   8 H :    0.035313
   9 C :   -0.035970
  10 H :    0.022042
  11 H :    0.024835
  12 C :   -0.073645
  13 H :    0.020180
  14 H :    0.023766
  15 H :    0.033264
  16 S :    0.423865
  17 C :   -0.195091
  18 C :   -0.079960
  19 C :   -0.049092
  20 C :   -0.196908
  21 H :    0.034617
  22 C :   -0.027787
  23 H :    0.026901
  24 H :    0.028844
  25 C :   -0.044102
  26 H :    0.016366
  27 H :    0.023102
  28 C :   -0.051268
  29 H :    0.018730
  30 H :    0.024979
  31 H :    0.028922
  32 H :    0.038645
  33 H :    0.027548

  Mayer bond orders larger than 0.100000
B(  0-S ,  1-C ) :   1.1413 B(  0-S ,  4-C ) :   1.1637 B(  1-C ,  2-C ) :   1.6078
B(  1-C , 32-H ) :   0.9647 B(  2-C ,  3-C ) :   1.2572 B(  2-C ,  6-C ) :   1.0220
B(  3-C ,  4-C ) :   1.5509 B(  3-C ,  5-H ) :   0.9881 B(  4-C , 20-C ) :   1.0059
B(  6-C ,  7-H ) :   0.9401 B(  6-C ,  8-H ) :   0.9378 B(  6-C ,  9-C ) :   1.0664
B(  9-C , 10-H ) :   0.9594 B(  9-C , 11-H ) :   0.9558 B(  9-C , 12-C ) :   1.0690
B( 12-C , 13-H ) :   0.9763 B( 12-C , 14-H ) :   0.9807 B( 12-C , 15-H ) :   0.9763
B( 16-S , 17-C ) :   1.1681 B( 16-S , 20-C ) :   1.1579 B( 17-C , 18-C ) :   1.6042
B( 17-C , 33-H ) :   0.9726 B( 18-C , 19-C ) :   1.2281 B( 18-C , 21-H ) :   0.9884
B( 19-C , 20-C ) :   1.5998 B( 19-C , 22-C ) :   1.0625 B( 22-C , 23-H ) :   0.9259
B( 22-C , 24-H ) :   0.9340 B( 22-C , 25-C ) :   1.0411 B( 25-C , 26-H ) :   0.9503
B( 25-C , 27-H ) :   0.9548 B( 25-C , 28-C ) :   1.0950 B( 28-C , 29-H ) :   0.9758
B( 28-C , 30-H ) :   0.9709 B( 28-C , 31-H ) :   0.9719

Dispersion correction           -0.014004317
FINAL SINGLE POINT ENERGY     -1339.867461980073

DIPOLE MOMENT
-------------
                                X             Y             Z
Electronic contribution:     19.60107       3.04502      18.32427
Nuclear contribution   :    -19.97338      -3.18469     -18.85797
                        -----------------------------------------
Total Dipole Moment    :     -0.37231      -0.13967      -0.53370
                        -----------------------------------------
Magnitude (a.u.)       :      0.66556
Magnitude (Debye)      :      1.69171

Rotational constants in cm-1:     0.015794     0.008945     0.007338
Rotational constants in MHz :   473.477532   268.150784   219.973187

                             ****ORCA TERMINATED NORMALLY****
TOTAL RUN TIME: 0 days 0 hours 0 minutes 21 seconds 271 msec
