                         Program Version 4.2.1 -  RELEASE  -
|  1> ! wB97X-D3 SP def2-SVP
|  2> %pal
|  3> nprocs 24
|  4> end
|  5>
|  6> * xyz 0 1
|  7> S 	 -106.795 	 53.8985 	 -10.8046
|  8> C 	 -106.182 	 54.7871 	 -12.1818
|  9> C 	 -104.893 	 54.4448 	 -12.5152
| 10> C 	 -104.442 	 53.3778 	 -11.6834
| 11> C 	 -105.455 	 52.8077 	 -10.9511
| 12> H 	 -103.509 	 52.8883 	 -11.6923
| 13> C 	 -104.164 	 55.0018 	 -13.6925
| 14> H 	 -103.458 	 54.1744 	 -13.964
| 15> H 	 -103.631 	 55.8374 	 -13.2388
| 16> C 	 -104.913 	 55.4472 	 -14.9593
| 17> H 	 -105.551 	 54.616 	 -15.2845
| 18> H 	 -105.711 	 56.2543 	 -14.7714
| 19> C 	 -104.042 	 55.7873 	 -16.144
| 20> H 	 -104.524 	 55.6092 	 -17.0348
| 21> H 	 -103.729 	 56.8424 	 -16.1546
| 22> H 	 -103.107 	 55.2369 	 -16.0984
| 23> S 	 -105.222 	 51.5933 	 -8.41267
| 24> C 	 -105.24 	 49.9179 	 -8.30346
| 25> C 	 -105.556 	 49.2961 	 -9.53123
| 26> C 	 -105.807 	 50.2946 	 -10.5702
| 27> C 	 -105.401 	 51.5453 	 -10.2059
| 28> H 	 -105.614 	 48.1954 	 -9.60887
| 29> C 	 -106.156 	 49.8881 	 -11.9698
| 30> H 	 -106.808 	 50.6698 	 -12.2536
| 31> H 	 -106.879 	 49.1656 	 -12.0119
| 32> C 	 -104.963 	 49.5557 	 -12.867
| 33> H 	 -104.419 	 48.6405 	 -12.4469
| 34> H 	 -104.363 	 50.4454 	 -12.8775
| 35> C 	 -105.483 	 49.3865 	 -14.3045
| 36> H 	 -104.594 	 49.2123 	 -14.8487
| 37> H 	 -105.912 	 50.3567 	 -14.7153
| 38> H 	 -106.301 	 48.5989 	 -14.3323
| 39> H 	 -106.703 	 55.5922 	 -12.6542
| 40> H 	 -105.188 	 49.2239 	 -7.42152
| 41> *
| 42>
| 43>                          ****END OF INPUT****

CARTESIAN COORDINATES (ANGSTROEM)
---------------------------------
  S    -106.795000   53.898500  -10.804600
  C    -106.182000   54.787100  -12.181800
  C    -104.893000   54.444800  -12.515200
  C    -104.442000   53.377800  -11.683400
  C    -105.455000   52.807700  -10.951100
  H    -103.509000   52.888300  -11.692300
  C    -104.164000   55.001800  -13.692500
  H    -103.458000   54.174400  -13.964000
  H    -103.631000   55.837400  -13.238800
  C    -104.913000   55.447200  -14.959300
  H    -105.551000   54.616000  -15.284500
  H    -105.711000   56.254300  -14.771400
  C    -104.042000   55.787300  -16.144000
  H    -104.524000   55.609200  -17.034800
  H    -103.729000   56.842400  -16.154600
  H    -103.107000   55.236900  -16.098400
  S    -105.222000   51.593300   -8.412670
  C    -105.240000   49.917900   -8.303460
  C    -105.556000   49.296100   -9.531230
  C    -105.807000   50.294600  -10.570200
  C    -105.401000   51.545300  -10.205900
  H    -105.614000   48.195400   -9.608870
  C    -106.156000   49.888100  -11.969800
  H    -106.808000   50.669800  -12.253600
  H    -106.879000   49.165600  -12.011900
  C    -104.963000   49.555700  -12.867000
  H    -104.419000   48.640500  -12.446900
  H    -104.363000   50.445400  -12.877500
  C    -105.483000   49.386500  -14.304500
  H    -104.594000   49.212300  -14.848700
  H    -105.912000   50.356700  -14.715300
  H    -106.301000   48.598900  -14.332300
  H    -106.703000   55.592200  -12.654200
  H    -105.188000   49.223900   -7.421520

 Total Charge           Charge          ....    0
 Multiplicity           Mult            ....    1
 Number of Electrons    NEL             ....  134
 Basis Dimension        Dim             ....  322

ORBITAL ENERGIES
----------------

  NO   OCC          E(Eh)            E(eV)
   0   2.0000     -88.962954     -2420.8051
   1   2.0000     -88.962318     -2420.7877
   2   2.0000     -10.325440      -280.9695
   3   2.0000     -10.322004      -280.8760
   4   2.0000     -10.317014      -280.7402
   5   2.0000     -10.306972      -280.4670
   6   2.0000     -10.300623      -280.2942
   7   2.0000     -10.299048      -280.2513
   8   2.0000     -10.297373      -280.2058
   9   2.0000     -10.296299      -280.1765
  10   2.0000     -10.294038      -280.1150
  11   2.0000     -10.291614      -280.0490
  12   2.0000     -10.288996      -279.9778
  13   2.0000     -10.283150      -279.8187
  14   2.0000     -10.274698      -279.5888
  15   2.0000     -10.272229      -279.5216
  16   2.0000      -8.078158      -219.8179
  17   2.0000      -8.077595      -219.8025
  18   2.0000      -6.036538      -164.2625
  19   2.0000      -6.036085      -164.2502
  20   2.0000      -6.032799      -164.1608
  21   2.0000      -6.032083      -164.1413
  22   2.0000      -6.028819      -164.0525
  23   2.0000      -6.028285      -164.0380
  24   2.0000      -1.007582       -27.4177
  25   2.0000      -0.985402       -26.8142
  26   2.0000      -0.915262       -24.9055
  27   2.0000      -0.913033       -24.8449
  28   2.0000      -0.868740       -23.6396
  29   2.0000      -0.854387       -23.2490
  30   2.0000      -0.846357       -23.0305
  31   2.0000      -0.813104       -22.1257
  32   2.0000      -0.784583       -21.3496
  33   2.0000      -0.771075       -20.9820
  34   2.0000      -0.710262       -19.3272
  35   2.0000      -0.699828       -19.0433
  36   2.0000      -0.690948       -18.8016
  37   2.0000      -0.652928       -17.7671
  38   2.0000      -0.645165       -17.5558
  39   2.0000      -0.613007       -16.6808
  40   2.0000      -0.592509       -16.1230
  41   2.0000      -0.573568       -15.6076
  42   2.0000      -0.565696       -15.3934
  43   2.0000      -0.559911       -15.2360
  44   2.0000      -0.535267       -14.5653
  45   2.0000      -0.529282       -14.4025
  46   2.0000      -0.516859       -14.0645
  47   2.0000      -0.511087       -13.9074
  48   2.0000      -0.504882       -13.7385
  49   2.0000      -0.501493       -13.6463
  50   2.0000      -0.490041       -13.3347
  51   2.0000      -0.478486       -13.0203
  52   2.0000      -0.469593       -12.7783
  53   2.0000      -0.466497       -12.6940
  54   2.0000      -0.457143       -12.4395
  55   2.0000      -0.453725       -12.3465
  56   2.0000      -0.445022       -12.1097
  57   2.0000      -0.443525       -12.0689
  58   2.0000      -0.430105       -11.7037
  59   2.0000      -0.423105       -11.5133
  60   2.0000      -0.417656       -11.3650
  61   2.0000      -0.413733       -11.2583
  62   2.0000      -0.409533       -11.1440
  63   2.0000      -0.330331        -8.9888
  64   2.0000      -0.327542        -8.9129
  65   2.0000      -0.316404        -8.6098
  66   2.0000      -0.306932        -8.3520
  67   0.0000       0.043491         1.1835
  68   0.0000       0.052041         1.4161
  69   0.0000       0.116683         3.1751
  70   0.0000       0.117292         3.1917
  71   0.0000       0.130780         3.5587

MULLIKEN ATOMIC CHARGES
-----------------------
   0 S :    0.124396
   1 C :   -0.115905
   2 C :   -0.093468
   3 C :    0.059760
   4 C :   -0.184674
   5 H :   -0.000462
   6 C :    0.074072
   7 H :    0.032359
   8 H :    0.046796
   9 C :   -0.118666
  10 H :    0.028567
  11 H :    0.037907
  12 C :    0.001780
  13 H :    0.020192
  14 H :    0.030577
  15 H :    0.022721
  16 S :    0.112535
  17 C :   -0.090250
  18 C :   -0.067142
  19 C :   -0.040383
  20 C :   -0.184562
  21 H :    0.028234
  22 C :    0.120923
  23 H :    0.000965
  24 H :   -0.023084
  25 C :   -0.058333
  26 H :    0.048785
  27 H :    0.020254
  28 C :   -0.051174
  29 H :    0.030331
  30 H :    0.040990
  31 H :    0.042961
  32 H :    0.031036
  33 H :    0.071963
Sum of atomic charges:    0.0000000

LOEWDIN ATOMIC CHARGES
----------------------
   0 S :    0.404658
   1 C :   -0.194420
   2 C :   -0.065145
   3 C :   -0.050172
   4 C :   -0.195858
   5 H :    0.024819
   6 C :   -0.036826
   7 H :    0.036917
   8 H :    0.039042
   9 C :   -0.049987
  10 H :    0.026152
  11 H :    0.029710
  12 C :   -0.057117
  13 H :    0.017852
  14 H :    0.028857
  15 H :    0.027182
  16 S :    0.408940
  17 C :   -0.216004
  18 C :   -0.086106
  19 C :   -0.040919
  20 C :   -0.198121
  21 H :    0.033167
  22 C :   -0.037393
  23 H :    0.029991
  24 H :    0.015994
  25 C :   -0.032249
  26 H :    0.035154
  27 H :    0.021421
  28 C :   -0.066685
  29 H :    0.019766
  30 H :    0.033487
  31 H :    0.029828
  32 H :    0.019396
  33 H :    0.044671

  Mayer bond orders larger than 0.100000
B(  0-S ,  1-C ) :   1.1268 B(  0-S ,  4-C ) :   1.1519 B(  1-C ,  2-C ) :   1.6324
B(  1-C , 32-H ) :   0.9706 B(  2-C ,  3-C ) :   1.2233 B(  2-C ,  6-C ) :   1.0063
B(  3-C ,  4-C ) :   1.5991 B(  3-C ,  5-H ) :   0.9962 B(  4-C , 20-C ) :   1.0353
B(  6-C ,  7-H ) :   0.9448 B(  6-C ,  8-H ) :   0.9206 B(  6-C ,  9-C ) :   1.0804
B(  9-C , 10-H ) :   0.9583 B(  9-C , 11-H ) :   0.9460 B(  9-C , 12-C ) :   1.0875
B( 12-C , 13-H ) :   0.9736 B( 12-C , 14-H ) :   0.9723 B( 12-C , 15-H ) :   0.9726
B( 16-S , 17-C ) :   1.1781 B( 16-S , 20-C ) :   1.1130 B( 17-C , 18-C ) :   1.6100
B( 17-C , 33-H ) :   0.9566 B( 18-C , 19-C ) :   1.2196 B( 18-C , 21-H ) :   0.9857
B( 19-C , 20-C ) :   1.6221 B( 19-C , 22-C ) :   1.0540 B( 22-C , 23-H ) :   0.9122
B( 22-C , 24-H ) :   0.9151 B( 22-C , 25-C ) :   1.0598 B( 25-C , 26-H ) :   0.9538
B( 25-C , 27-H ) :   0.9509 B( 25-C , 28-C ) :   1.0784 B( 28-C , 29-H ) :   0.9735
B( 28-C , 30-H ) :   0.9745 B( 28-C , 31-H ) :   0.9744

Dispersion correction           -0.014405532
FINAL SINGLE POINT ENERGY     -1339.847842270243

DIPOLE MOMENT
-------------
                                X             Y             Z
Electronic contribution:     -6.41992       1.13812      30.36210
Nuclear contribution   :      6.58032      -1.27391     -31.04359
                        -----------------------------------------
Total Dipole Moment    :      0.16041      -0.13579      -0.68148
                        -----------------------------------------
Magnitude (a.u.)       :      0.71315
Magnitude (Debye)      :      1.81269

Rotational constants in cm-1:     0.020219     0.008322     0.006551
Rotational constants in MHz :   606.140053   249.497789   196.403383

                             ****ORCA TERMINATED NORMALLY****
TOTAL RUN TIME: 0 days 0 hours 0 minutes 21 seconds 762 msec
