                         Program Version 4.2.1 -  RELEASE  -
|  1> ! wB97X-D3 SP def2-SVP
|  2> %pal
|  3> nprocs 24
|  4> end
|  5>
|  6> * xyz 0 1
|  7> S 	 -54.8175 	 -48.8952 	 -81.5467
|  8> C 	 -54.7963 	 -47.2119 	 -81.2192
|  9> C 	 -53.5765 	 -46.6693 	 -81.5012
| 10> C 	 -52.6441 	 -47.6335 	 -82.0174
| 11> C 	 -53.1274 	 -48.9116 	 -82.0164
| 12> H 	 -51.5997 	 -47.4618 	 -82.3829
| 13> C 	 -53.1812 	 -45.227 	 -81.3686
| 14> H 	 -52.4689 	 -45.0927 	 -82.1183
| 15> H 	 -52.6972 	 -45.1033 	 -80.418
| 16> C 	 -54.2368 	 -44.1543 	 -81.4719
| 17> H 	 -54.9349 	 -44.319 	 -80.7348
| 18> H 	 -53.8532 	 -43.1389 	 -81.2242
| 19> C 	 -54.7937 	 -43.9872 	 -82.8691
| 20> H 	 -55.352 	 -44.8393 	 -83.1908
| 21> H 	 -55.5066 	 -43.193 	 -82.899
| 22> H 	 -54.1278 	 -43.5614 	 -83.652
| 23> S 	 -51.6396 	 -50.2345 	 -83.9211
| 24> C 	 -51.1344 	 -51.8749 	 -83.672
| 25> C 	 -51.323 	 -52.1718 	 -82.3562
| 26> C 	 -51.975 	 -51.1577 	 -81.5706
| 27> C 	 -52.3502 	 -50.0678 	 -82.3536
| 28> H 	 -50.978 	 -53.1944 	 -82.0744
| 29> C 	 -52.2365 	 -51.3854 	 -80.0965
| 30> H 	 -51.9886 	 -52.431 	 -79.9301
| 31> H 	 -53.3391 	 -51.4484 	 -80.0056
| 32> C 	 -51.5465 	 -50.5602 	 -79.0578
| 33> H 	 -51.4016 	 -49.5664 	 -79.3461
| 34> H 	 -50.4629 	 -50.8991 	 -78.9771
| 35> C 	 -52.1933 	 -50.5592 	 -77.7007
| 36> H 	 -52.6022 	 -51.4772 	 -77.4441
| 37> H 	 -52.8633 	 -49.7188 	 -77.6335
| 38> H 	 -51.4593 	 -50.4326 	 -76.9263
| 39> H 	 -55.7214 	 -46.6539 	 -80.9972
| 40> H 	 -50.8567 	 -52.4974 	 -84.5505
| 41> *
| 42>
| 43>                          ****END OF INPUT****

CARTESIAN COORDINATES (ANGSTROEM)
---------------------------------
  S    -54.817500  -48.895200  -81.546700
  C    -54.796300  -47.211900  -81.219200
  C    -53.576500  -46.669300  -81.501200
  C    -52.644100  -47.633500  -82.017400
  C    -53.127400  -48.911600  -82.016400
  H    -51.599700  -47.461800  -82.382900
  C    -53.181200  -45.227000  -81.368600
  H    -52.468900  -45.092700  -82.118300
  H    -52.697200  -45.103300  -80.418000
  C    -54.236800  -44.154300  -81.471900
  H    -54.934900  -44.319000  -80.734800
  H    -53.853200  -43.138900  -81.224200
  C    -54.793700  -43.987200  -82.869100
  H    -55.352000  -44.839300  -83.190800
  H    -55.506600  -43.193000  -82.899000
  H    -54.127800  -43.561400  -83.652000
  S    -51.639600  -50.234500  -83.921100
  C    -51.134400  -51.874900  -83.672000
  C    -51.323000  -52.171800  -82.356200
  C    -51.975000  -51.157700  -81.570600
  C    -52.350200  -50.067800  -82.353600
  H    -50.978000  -53.194400  -82.074400
  C    -52.236500  -51.385400  -80.096500
  H    -51.988600  -52.431000  -79.930100
  H    -53.339100  -51.448400  -80.005600
  C    -51.546500  -50.560200  -79.057800
  H    -51.401600  -49.566400  -79.346100
  H    -50.462900  -50.899100  -78.977100
  C    -52.193300  -50.559200  -77.700700
  H    -52.602200  -51.477200  -77.444100
  H    -52.863300  -49.718800  -77.633500
  H    -51.459300  -50.432600  -76.926300
  H    -55.721400  -46.653900  -80.997200
  H    -50.856700  -52.497400  -84.550500

 Total Charge           Charge          ....    0
 Multiplicity           Mult            ....    1
 Number of Electrons    NEL             ....  134
 Basis Dimension        Dim             ....  322

ORBITAL ENERGIES
----------------

  NO   OCC          E(Eh)            E(eV)
   0   2.0000     -88.965255     -2420.8677
   1   2.0000     -88.959247     -2420.7042
   2   2.0000     -10.325265      -280.9648
   3   2.0000     -10.322641      -280.8933
   4   2.0000     -10.315990      -280.7124
   5   2.0000     -10.311429      -280.5883
   6   2.0000     -10.303541      -280.3736
   7   2.0000     -10.298829      -280.2454
   8   2.0000     -10.294725      -280.1337
   9   2.0000     -10.294496      -280.1275
  10   2.0000     -10.285823      -279.8915
  11   2.0000     -10.281167      -279.7648
  12   2.0000     -10.279976      -279.7324
  13   2.0000     -10.275937      -279.6225
  14   2.0000     -10.271302      -279.4963
  15   2.0000     -10.263272      -279.2778
  16   2.0000      -8.080391      -219.8786
  17   2.0000      -8.075053      -219.7334
  18   2.0000      -6.038947      -164.3281
  19   2.0000      -6.034807      -164.2154
  20   2.0000      -6.033498      -164.1798
  21   2.0000      -6.031112      -164.1149
  22   2.0000      -6.029286      -164.0652
  23   2.0000      -6.025932      -163.9739
  24   2.0000      -1.011796       -27.5324
  25   2.0000      -0.990226       -26.9454
  26   2.0000      -0.918905       -25.0047
  27   2.0000      -0.911033       -24.7905
  28   2.0000      -0.875337       -23.8191
  29   2.0000      -0.853584       -23.2272
  30   2.0000      -0.849763       -23.1232
  31   2.0000      -0.814092       -22.1526
  32   2.0000      -0.787003       -21.4154
  33   2.0000      -0.774950       -21.0875
  34   2.0000      -0.713796       -19.4234
  35   2.0000      -0.707043       -19.2396
  36   2.0000      -0.692255       -18.8372
  37   2.0000      -0.659880       -17.9562
  38   2.0000      -0.640890       -17.4395
  39   2.0000      -0.607409       -16.5284
  40   2.0000      -0.592398       -16.1200
  41   2.0000      -0.577918       -15.7259
  42   2.0000      -0.563784       -15.3413
  43   2.0000      -0.561466       -15.2783
  44   2.0000      -0.545136       -14.8339
  45   2.0000      -0.525718       -14.3055
  46   2.0000      -0.518979       -14.1221
  47   2.0000      -0.515095       -14.0164
  48   2.0000      -0.509163       -13.8550
  49   2.0000      -0.499990       -13.6054
  50   2.0000      -0.491450       -13.3730
  51   2.0000      -0.482377       -13.1262
  52   2.0000      -0.474101       -12.9009
  53   2.0000      -0.472142       -12.8476
  54   2.0000      -0.459212       -12.4958
  55   2.0000      -0.449085       -12.2202
  56   2.0000      -0.439929       -11.9711
  57   2.0000      -0.434358       -11.8195
  58   2.0000      -0.432950       -11.7812
  59   2.0000      -0.424690       -11.5564
  60   2.0000      -0.417332       -11.3562
  61   2.0000      -0.410282       -11.1643
  62   2.0000      -0.400610       -10.9012
  63   2.0000      -0.346455        -9.4275
  64   2.0000      -0.329581        -8.9684
  65   2.0000      -0.324350        -8.8260
  66   2.0000      -0.296960        -8.0807
  67   0.0000       0.038378         1.0443
  68   0.0000       0.062620         1.7040
  69   0.0000       0.115817         3.1515
  70   0.0000       0.125003         3.4015
  71   0.0000       0.137444         3.7400

MULLIKEN ATOMIC CHARGES
-----------------------
   0 S :    0.120440
   1 C :   -0.150163
   2 C :   -0.095267
   3 C :   -0.004738
   4 C :   -0.145534
   5 H :    0.033589
   6 C :    0.133748
   7 H :    0.001067
   8 H :    0.035559
   9 C :   -0.054605
  10 H :    0.006316
  11 H :    0.022789
  12 C :   -0.042538
  13 H :    0.031305
  14 H :    0.009060
  15 H :    0.034824
  16 S :    0.099591
  17 C :   -0.127447
  18 C :   -0.045491
  19 C :   -0.039105
  20 C :   -0.178007
  21 H :    0.032851
  22 C :    0.090014
  23 H :    0.001770
  24 H :    0.031158
  25 C :   -0.048600
  26 H :    0.013923
  27 H :    0.024434
  28 C :    0.002152
  29 H :    0.009862
  30 H :    0.038309
  31 H :    0.012617
  32 H :    0.063754
  33 H :    0.082363
Sum of atomic charges:   -0.0000000

LOEWDIN ATOMIC CHARGES
----------------------
   0 S :    0.419205
   1 C :   -0.216055
   2 C :   -0.063928
   3 C :   -0.065692
   4 C :   -0.195959
   5 H :    0.040047
   6 C :   -0.025593
   7 H :    0.022388
   8 H :    0.035900
   9 C :   -0.037810
  10 H :    0.011441
  11 H :    0.032741
  12 C :   -0.069410
  13 H :    0.020824
  14 H :    0.022324
  15 H :    0.033826
  16 S :    0.415765
  17 C :   -0.198197
  18 C :   -0.081578
  19 C :   -0.055562
  20 C :   -0.206600
  21 H :    0.038003
  22 C :   -0.039936
  23 H :    0.029817
  24 H :    0.034736
  25 C :   -0.042267
  26 H :    0.016998
  27 H :    0.030232
  28 C :   -0.053099
  29 H :    0.014912
  30 H :    0.029206
  31 H :    0.026477
  32 H :    0.035102
  33 H :    0.041743

  Mayer bond orders larger than 0.100000
B(  0-S ,  1-C ) :   1.1369 B(  0-S ,  4-C ) :   1.1476 B(  1-C ,  2-C ) :   1.6129
B(  1-C , 32-H ) :   0.9621 B(  2-C ,  3-C ) :   1.2405 B(  2-C ,  6-C ) :   1.0033
B(  3-C ,  4-C ) :   1.5868 B(  3-C ,  5-H ) :   0.9876 B(  4-C , 20-C ) :   1.0514
B(  6-C ,  7-H ) :   0.9374 B(  6-C ,  8-H ) :   0.9246 B(  6-C ,  9-C ) :   1.0944
B(  9-C , 10-H ) :   0.9467 B(  9-C , 11-H ) :   0.9492 B(  9-C , 12-C ) :   1.0915
B( 12-C , 13-H ) :   0.9757 B( 12-C , 14-H ) :   0.9681 B( 12-C , 15-H ) :   0.9701
B( 16-S , 17-C ) :   1.1611 B( 16-S , 20-C ) :   1.1544 B( 17-C , 18-C ) :   1.5957
B( 17-C , 33-H ) :   0.9654 B( 18-C , 19-C ) :   1.2488 B( 18-C , 21-H ) :   0.9840
B( 19-C , 20-C ) :   1.5600 B( 19-C , 22-C ) :   1.0387 B( 22-C , 23-H ) :   0.9172
B( 22-C , 24-H ) :   0.9324 B( 22-C , 25-C ) :   1.0568 B( 25-C , 26-H ) :   0.9629
B( 25-C , 27-H ) :   0.9497 B( 25-C , 28-C ) :   1.0839 B( 28-C , 29-H ) :   0.9743
B( 28-C , 30-H ) :   0.9765 B( 28-C , 31-H ) :   0.9690

Dispersion correction           -0.014488371
FINAL SINGLE POINT ENERGY     -1339.868625414012

DIPOLE MOMENT
-------------
                                X             Y             Z
Electronic contribution:     -0.10412     -13.43422     -14.59514
Nuclear contribution   :      0.22437      13.66480      14.86920
                        -----------------------------------------
Total Dipole Moment    :      0.12025       0.23058       0.27407
                        -----------------------------------------
Magnitude (a.u.)       :      0.37780
Magnitude (Debye)      :      0.96030

Rotational constants in cm-1:     0.020293     0.008343     0.006769
Rotational constants in MHz :   608.371306   250.114660   202.928618

                             ****ORCA TERMINATED NORMALLY****
TOTAL RUN TIME: 0 days 0 hours 0 minutes 20 seconds 399 msec
