                         Program Version 4.2.1 -  RELEASE  -
|  1> ! wB97X-D3 SP def2-SVP
|  2> %pal
|  3> nprocs 24
|  4> end
|  5>
|  6> * xyz 0 1
|  7> S 	 -125.122 	 61.7434 	 -37.9982
|  8> C 	 -124.019 	 60.8743 	 -39.0963
|  9> C 	 -122.695 	 61.1812 	 -38.857
| 10> C 	 -122.564 	 62.1576 	 -37.8107
| 11> C 	 -123.725 	 62.6124 	 -37.2654
| 12> H 	 -121.632 	 62.4345 	 -37.3802
| 13> C 	 -121.517 	 60.6469 	 -39.5967
| 14> H 	 -121.001 	 61.5817 	 -39.9182
| 15> H 	 -121.702 	 60.1355 	 -40.5344
| 16> C 	 -120.369 	 60.0599 	 -38.7838
| 17> H 	 -120.025 	 60.78 	 -38.0828
| 18> H 	 -120.754 	 59.2471 	 -38.1185
| 19> C 	 -119.25 	 59.7815 	 -39.7686
| 20> H 	 -118.407 	 59.3956 	 -39.2474
| 21> H 	 -119.622 	 59.0125 	 -40.5169
| 22> H 	 -118.94 	 60.5967 	 -40.3193
| 23> S 	 -124.122 	 65.2595 	 -36.5672
| 24> C 	 -124.62 	 65.7032 	 -34.9809
| 25> C 	 -124.717 	 64.5997 	 -34.1889
| 26> C 	 -124.252 	 63.4405 	 -34.8494
| 27> C 	 -123.981 	 63.5777 	 -36.1879
| 28> H 	 -125.073 	 64.7948 	 -33.163
| 29> C 	 -124.125 	 62.1031 	 -34.1279
| 30> H 	 -124.6 	 61.3815 	 -34.8598
| 31> H 	 -124.631 	 62.1689 	 -33.119
| 32> C 	 -122.788 	 61.5044 	 -33.9305
| 33> H 	 -122.125 	 62.223 	 -33.4831
| 34> H 	 -122.387 	 61.4841 	 -34.9522
| 35> C 	 -122.763 	 60.1783 	 -33.2286
| 36> H 	 -121.847 	 59.5663 	 -33.2295
| 37> H 	 -123.495 	 59.5144 	 -33.7669
| 38> H 	 -123.156 	 60.2501 	 -32.2087
| 39> H 	 -124.372 	 60.061 	 -39.7472
| 40> H 	 -125.067 	 66.6114 	 -34.6165
| 41> *
| 42>
| 43>                          ****END OF INPUT****

CARTESIAN COORDINATES (ANGSTROEM)
---------------------------------
  S    -125.122000   61.743400  -37.998200
  C    -124.019000   60.874300  -39.096300
  C    -122.695000   61.181200  -38.857000
  C    -122.564000   62.157600  -37.810700
  C    -123.725000   62.612400  -37.265400
  H    -121.632000   62.434500  -37.380200
  C    -121.517000   60.646900  -39.596700
  H    -121.001000   61.581700  -39.918200
  H    -121.702000   60.135500  -40.534400
  C    -120.369000   60.059900  -38.783800
  H    -120.025000   60.780000  -38.082800
  H    -120.754000   59.247100  -38.118500
  C    -119.250000   59.781500  -39.768600
  H    -118.407000   59.395600  -39.247400
  H    -119.622000   59.012500  -40.516900
  H    -118.940000   60.596700  -40.319300
  S    -124.122000   65.259500  -36.567200
  C    -124.620000   65.703200  -34.980900
  C    -124.717000   64.599700  -34.188900
  C    -124.252000   63.440500  -34.849400
  C    -123.981000   63.577700  -36.187900
  H    -125.073000   64.794800  -33.163000
  C    -124.125000   62.103100  -34.127900
  H    -124.600000   61.381500  -34.859800
  H    -124.631000   62.168900  -33.119000
  C    -122.788000   61.504400  -33.930500
  H    -122.125000   62.223000  -33.483100
  H    -122.387000   61.484100  -34.952200
  C    -122.763000   60.178300  -33.228600
  H    -121.847000   59.566300  -33.229500
  H    -123.495000   59.514400  -33.766900
  H    -123.156000   60.250100  -32.208700
  H    -124.372000   60.061000  -39.747200
  H    -125.067000   66.611400  -34.616500

 Total Charge           Charge          ....    0
 Multiplicity           Mult            ....    1
 Number of Electrons    NEL             ....  134
 Basis Dimension        Dim             ....  322

ORBITAL ENERGIES
----------------

  NO   OCC          E(Eh)            E(eV)
   0   2.0000     -88.965132     -2420.8643
   1   2.0000     -88.963446     -2420.8184
   2   2.0000     -10.336434      -281.2687
   3   2.0000     -10.323831      -280.9257
   4   2.0000     -10.319882      -280.8183
   5   2.0000     -10.311674      -280.5949
   6   2.0000     -10.304332      -280.3951
   7   2.0000     -10.301929      -280.3297
   8   2.0000     -10.296977      -280.1950
   9   2.0000     -10.292501      -280.0732
  10   2.0000     -10.291112      -280.0354
  11   2.0000     -10.288972      -279.9772
  12   2.0000     -10.288731      -279.9706
  13   2.0000     -10.279590      -279.7219
  14   2.0000     -10.277881      -279.6754
  15   2.0000     -10.273917      -279.5675
  16   2.0000      -8.079057      -219.8423
  17   2.0000      -8.078612      -219.8302
  18   2.0000      -6.037472      -164.2880
  19   2.0000      -6.037234      -164.2815
  20   2.0000      -6.033359      -164.1760
  21   2.0000      -6.033282      -164.1739
  22   2.0000      -6.029993      -164.0845
  23   2.0000      -6.029243      -164.0640
  24   2.0000      -1.011607       -27.5272
  25   2.0000      -0.986201       -26.8359
  26   2.0000      -0.922207       -25.0945
  27   2.0000      -0.914322       -24.8800
  28   2.0000      -0.874838       -23.8056
  29   2.0000      -0.850173       -23.1344
  30   2.0000      -0.848056       -23.0768
  31   2.0000      -0.822750       -22.3882
  32   2.0000      -0.781368       -21.2621
  33   2.0000      -0.770266       -20.9600
  34   2.0000      -0.715489       -19.4694
  35   2.0000      -0.701401       -19.0861
  36   2.0000      -0.686909       -18.6917
  37   2.0000      -0.661207       -17.9923
  38   2.0000      -0.646660       -17.5965
  39   2.0000      -0.627934       -17.0870
  40   2.0000      -0.592729       -16.1290
  41   2.0000      -0.577900       -15.7255
  42   2.0000      -0.570010       -15.5108
  43   2.0000      -0.565577       -15.3901
  44   2.0000      -0.533540       -14.5184
  45   2.0000      -0.519748       -14.1431
  46   2.0000      -0.518535       -14.1101
  47   2.0000      -0.512872       -13.9560
  48   2.0000      -0.507920       -13.8212
  49   2.0000      -0.503951       -13.7132
  50   2.0000      -0.490803       -13.3554
  51   2.0000      -0.479816       -13.0565
  52   2.0000      -0.475076       -12.9275
  53   2.0000      -0.468205       -12.7405
  54   2.0000      -0.463549       -12.6138
  55   2.0000      -0.453357       -12.3365
  56   2.0000      -0.443217       -12.0606
  57   2.0000      -0.440925       -11.9982
  58   2.0000      -0.428501       -11.6601
  59   2.0000      -0.421461       -11.4685
  60   2.0000      -0.419275       -11.4091
  61   2.0000      -0.410373       -11.1668
  62   2.0000      -0.403991       -10.9932
  63   2.0000      -0.334993        -9.1156
  64   2.0000      -0.333321        -9.0701
  65   2.0000      -0.320232        -8.7140
  66   2.0000      -0.313748        -8.5375
  67   0.0000       0.044579         1.2131
  68   0.0000       0.049712         1.3527
  69   0.0000       0.110112         2.9963
  70   0.0000       0.117791         3.2052
  71   0.0000       0.131338         3.5739

MULLIKEN ATOMIC CHARGES
-----------------------
   0 S :    0.098857
   1 C :   -0.143300
   2 C :   -0.037292
   3 C :    0.076450
   4 C :   -0.175978
   5 H :    0.005232
   6 C :    0.025453
   7 H :    0.029321
   8 H :    0.020301
   9 C :   -0.078977
  10 H :    0.018564
  11 H :    0.039297
  12 C :   -0.010795
  13 H :    0.028807
  14 H :    0.034336
  15 H :    0.015948
  16 S :    0.119902
  17 C :   -0.077293
  18 C :   -0.070602
  19 C :   -0.011368
  20 C :   -0.174280
  21 H :    0.030900
  22 C :    0.040347
  23 H :    0.029874
  24 H :    0.021181
  25 C :   -0.036561
  26 H :    0.009587
  27 H :    0.008933
  28 C :   -0.040810
  29 H :    0.042350
  30 H :    0.021278
  31 H :    0.030851
  32 H :    0.059352
  33 H :    0.050136
Sum of atomic charges:   -0.0000000

LOEWDIN ATOMIC CHARGES
----------------------
   0 S :    0.369518
   1 C :   -0.184270
   2 C :   -0.064451
   3 C :   -0.049288
   4 C :   -0.175706
   5 H :    0.026905
   6 C :   -0.039638
   7 H :    0.042423
   8 H :    0.028181
   9 C :   -0.039643
  10 H :    0.017010
  11 H :    0.027594
  12 C :   -0.053258
  13 H :    0.023711
  14 H :    0.033875
  15 H :    0.015974
  16 S :    0.432737
  17 C :   -0.193462
  18 C :   -0.080959
  19 C :   -0.055098
  20 C :   -0.220514
  21 H :    0.040345
  22 C :   -0.036788
  23 H :    0.035778
  24 H :    0.029176
  25 C :   -0.054282
  26 H :    0.016233
  27 H :    0.024365
  28 C :   -0.069141
  29 H :    0.030905
  30 H :    0.029856
  31 H :    0.025858
  32 H :    0.033277
  33 H :    0.032775

  Mayer bond orders larger than 0.100000
B(  0-S ,  1-C ) :   1.1240 B(  0-S ,  4-C ) :   1.1235 B(  1-C ,  2-C ) :   1.6341
B(  1-C , 32-H ) :   0.9655 B(  2-C ,  3-C ) :   1.2032 B(  2-C ,  6-C ) :   1.0193
B(  3-C ,  4-C ) :   1.6318 B(  3-C ,  5-H ) :   0.9908 B(  4-C , 20-C ) :   1.0110
B(  6-C ,  7-H ) :   0.9352 B(  6-C ,  8-H ) :   0.9574 B(  6-C ,  9-C ) :   1.0465
B(  9-C , 10-H ) :   0.9491 B(  9-C , 11-H ) :   0.9555 B(  9-C , 12-C ) :   1.0844
B( 12-C , 13-H ) :   0.9710 B( 12-C , 14-H ) :   0.9735 B( 12-C , 15-H ) :   0.9722
B( 16-S , 17-C ) :   1.1747 B( 16-S , 20-C ) :   1.1487 B( 17-C , 18-C ) :   1.6119
B( 17-C , 33-H ) :   0.9606 B( 18-C , 19-C ) :   1.2497 B( 18-C , 21-H ) :   0.9910
B( 19-C , 20-C ) :   1.5866 B( 19-C , 22-C ) :   1.0451 B( 22-C , 23-H ) :   0.9179
B( 22-C , 24-H ) :   0.9377 B( 22-C , 25-C ) :   1.0776 B( 25-C , 26-H ) :   0.9449
B( 25-C , 27-H ) :   0.9435 B( 25-C , 28-C ) :   1.0837 B( 28-C , 29-H ) :   0.9730
B( 28-C , 30-H ) :   0.9698 B( 28-C , 31-H ) :   0.9719

Dispersion correction           -0.014314079
FINAL SINGLE POINT ENERGY     -1339.868369387182

DIPOLE MOMENT
-------------
                                X             Y             Z
Electronic contribution:    -19.32984      19.44612      -4.42529
Nuclear contribution   :     19.78622     -19.74491       4.53877
                        -----------------------------------------
Total Dipole Moment    :      0.45638      -0.29879       0.11348
                        -----------------------------------------
Magnitude (a.u.)       :      0.55717
Magnitude (Debye)      :      1.41620

Rotational constants in cm-1:     0.018370     0.008374     0.007122
Rotational constants in MHz :   550.725127   251.054991   213.502117

                             ****ORCA TERMINATED NORMALLY****
TOTAL RUN TIME: 0 days 0 hours 0 minutes 21 seconds 807 msec
