                         Program Version 4.2.1 -  RELEASE  -
|  1> ! wB97X-D3 SP def2-SVP
|  2> %pal
|  3> nprocs 24
|  4> end
|  5>
|  6> * xyz 0 1
|  7> S 	 -13.0764 	 -30.822 	 -105.855
|  8> C 	 -13.1755 	 -30.4984 	 -104.13
|  9> C 	 -12.9297 	 -31.5737 	 -103.381
| 10> C 	 -12.8511 	 -32.7893 	 -104.156
| 11> C 	 -12.9517 	 -32.5615 	 -105.548
| 12> H 	 -12.5902 	 -33.815 	 -103.813
| 13> C 	 -12.5484 	 -31.6101 	 -101.989
| 14> H 	 -13.0064 	 -32.4974 	 -101.57
| 15> H 	 -12.9492 	 -30.7017 	 -101.513
| 16> C 	 -11.0459 	 -31.521 	 -101.708
| 17> H 	 -10.9924 	 -31.6604 	 -100.623
| 18> H 	 -10.5163 	 -32.3697 	 -102.154
| 19> C 	 -10.3239 	 -30.2227 	 -102.059
| 20> H 	 -10.9283 	 -29.3495 	 -101.784
| 21> H 	 -9.35164 	 -30.1311 	 -101.576
| 22> H 	 -10.1227 	 -30.2394 	 -103.099
| 23> S 	 -14.8162 	 -33.4376 	 -107.308
| 24> C 	 -14.4245 	 -34.7009 	 -108.454
| 25> C 	 -13.0811 	 -35.0713 	 -108.275
| 26> C 	 -12.3108 	 -34.2295 	 -107.322
| 27> C 	 -13.1821 	 -33.5209 	 -106.583
| 28> H 	 -12.6483 	 -35.9077 	 -108.862
| 29> C 	 -10.8467 	 -34.3852 	 -107.118
| 30> H 	 -10.6784 	 -35.5005 	 -107.343
| 31> H 	 -10.5719 	 -34.337 	 -106.069
| 32> C 	 -9.97149 	 -33.6231 	 -108.067
| 33> H 	 -9.942 	 -34.1162 	 -109.02
| 34> H 	 -8.94889 	 -33.7602 	 -107.895
| 35> C 	 -10.3099 	 -32.1374 	 -108.017
| 36> H 	 -11.3603 	 -31.9802 	 -108.323
| 37> H 	 -9.70447 	 -31.5248 	 -108.612
| 38> H 	 -10.2694 	 -31.7373 	 -107.032
| 39> H 	 -13.3618 	 -29.4449 	 -103.809
| 40> H 	 -15.1163 	 -35.227 	 -109.085
| 41> *
| 42>
| 43>                          ****END OF INPUT****

CARTESIAN COORDINATES (ANGSTROEM)
---------------------------------
  S    -13.076400  -30.822000  -105.855000
  C    -13.175500  -30.498400  -104.130000
  C    -12.929700  -31.573700  -103.381000
  C    -12.851100  -32.789300  -104.156000
  C    -12.951700  -32.561500  -105.548000
  H    -12.590200  -33.815000  -103.813000
  C    -12.548400  -31.610100  -101.989000
  H    -13.006400  -32.497400  -101.570000
  H    -12.949200  -30.701700  -101.513000
  C    -11.045900  -31.521000  -101.708000
  H    -10.992400  -31.660400  -100.623000
  H    -10.516300  -32.369700  -102.154000
  C    -10.323900  -30.222700  -102.059000
  H    -10.928300  -29.349500  -101.784000
  H     -9.351640  -30.131100  -101.576000
  H    -10.122700  -30.239400  -103.099000
  S    -14.816200  -33.437600  -107.308000
  C    -14.424500  -34.700900  -108.454000
  C    -13.081100  -35.071300  -108.275000
  C    -12.310800  -34.229500  -107.322000
  C    -13.182100  -33.520900  -106.583000
  H    -12.648300  -35.907700  -108.862000
  C    -10.846700  -34.385200  -107.118000
  H    -10.678400  -35.500500  -107.343000
  H    -10.571900  -34.337000  -106.069000
  C     -9.971490  -33.623100  -108.067000
  H     -9.942000  -34.116200  -109.020000
  H     -8.948890  -33.760200  -107.895000
  C    -10.309900  -32.137400  -108.017000
  H    -11.360300  -31.980200  -108.323000
  H     -9.704470  -31.524800  -108.612000
  H    -10.269400  -31.737300  -107.032000
  H    -13.361800  -29.444900  -103.809000
  H    -15.116300  -35.227000  -109.085000

 Total Charge           Charge          ....    0
 Multiplicity           Mult            ....    1
 Number of Electrons    NEL             ....  134
 Basis Dimension        Dim             ....  322

ORBITAL ENERGIES
----------------

  NO   OCC          E(Eh)            E(eV)
   0   2.0000     -88.962342     -2420.7884
   1   2.0000     -88.959884     -2420.7215
   2   2.0000     -10.327579      -281.0277
   3   2.0000     -10.320631      -280.8386
   4   2.0000     -10.319780      -280.8155
   5   2.0000     -10.312553      -280.6188
   6   2.0000     -10.304367      -280.3961
   7   2.0000     -10.301350      -280.3140
   8   2.0000     -10.299479      -280.2631
   9   2.0000     -10.293739      -280.1069
  10   2.0000     -10.291654      -280.0501
  11   2.0000     -10.286571      -279.9118
  12   2.0000     -10.286469      -279.9090
  13   2.0000     -10.277180      -279.6563
  14   2.0000     -10.275043      -279.5981
  15   2.0000     -10.264274      -279.3051
  16   2.0000      -8.076746      -219.7794
  17   2.0000      -8.074423      -219.7162
  18   2.0000      -6.035278      -164.2283
  19   2.0000      -6.033115      -164.1694
  20   2.0000      -6.031380      -164.1222
  21   2.0000      -6.029072      -164.0594
  22   2.0000      -6.027405      -164.0140
  23   2.0000      -6.024837      -163.9442
  24   2.0000      -1.004806       -27.3422
  25   2.0000      -0.981511       -26.7083
  26   2.0000      -0.917748       -24.9732
  27   2.0000      -0.916044       -24.9268
  28   2.0000      -0.869562       -23.6620
  29   2.0000      -0.850152       -23.1338
  30   2.0000      -0.842286       -22.9198
  31   2.0000      -0.807895       -21.9839
  32   2.0000      -0.785623       -21.3779
  33   2.0000      -0.777736       -21.1633
  34   2.0000      -0.715456       -19.4685
  35   2.0000      -0.702148       -19.1064
  36   2.0000      -0.694810       -18.9067
  37   2.0000      -0.659421       -17.9438
  38   2.0000      -0.640019       -17.4158
  39   2.0000      -0.614414       -16.7191
  40   2.0000      -0.593225       -16.1425
  41   2.0000      -0.567848       -15.4519
  42   2.0000      -0.563959       -15.3461
  43   2.0000      -0.552886       -15.0448
  44   2.0000      -0.544121       -14.8063
  45   2.0000      -0.535298       -14.5662
  46   2.0000      -0.513583       -13.9753
  47   2.0000      -0.512137       -13.9360
  48   2.0000      -0.501932       -13.6583
  49   2.0000      -0.497520       -13.5382
  50   2.0000      -0.491834       -13.3835
  51   2.0000      -0.480286       -13.0692
  52   2.0000      -0.472132       -12.8474
  53   2.0000      -0.462311       -12.5801
  54   2.0000      -0.457083       -12.4379
  55   2.0000      -0.449604       -12.2344
  56   2.0000      -0.445987       -12.1359
  57   2.0000      -0.436957       -11.8902
  58   2.0000      -0.429369       -11.6837
  59   2.0000      -0.421075       -11.4580
  60   2.0000      -0.418183       -11.3793
  61   2.0000      -0.412935       -11.2365
  62   2.0000      -0.408822       -11.1246
  63   2.0000      -0.332848        -9.0573
  64   2.0000      -0.329977        -8.9791
  65   2.0000      -0.316452        -8.6111
  66   2.0000      -0.306144        -8.3306
  67   0.0000       0.037808         1.0288
  68   0.0000       0.055112         1.4997
  69   0.0000       0.108240         2.9454
  70   0.0000       0.118062         3.2126
  71   0.0000       0.122315         3.3284

MULLIKEN ATOMIC CHARGES
-----------------------
   0 S :    0.101744
   1 C :   -0.163954
   2 C :   -0.041937
   3 C :    0.023433
   4 C :   -0.188364
   5 H :    0.030261
   6 C :    0.069833
   7 H :    0.027608
   8 H :    0.013873
   9 C :   -0.072552
  10 H :    0.029236
  11 H :    0.022536
  12 C :   -0.033117
  13 H :    0.025704
  14 H :    0.035296
  15 H :    0.034803
  16 S :    0.097959
  17 C :   -0.080995
  18 C :   -0.043778
  19 C :   -0.040260
  20 C :   -0.162516
  21 H :    0.029155
  22 C :    0.037404
  23 H :    0.025964
  24 H :    0.030095
  25 C :   -0.000975
  26 H :    0.009883
  27 H :    0.003584
  28 C :   -0.021492
  29 H :    0.039399
  30 H :    0.017563
  31 H :    0.021767
  32 H :    0.063831
  33 H :    0.059011
Sum of atomic charges:   -0.0000000

LOEWDIN ATOMIC CHARGES
----------------------
   0 S :    0.391303
   1 C :   -0.191043
   2 C :   -0.079122
   3 C :   -0.056080
   4 C :   -0.192559
   5 H :    0.037651
   6 C :   -0.033098
   7 H :    0.032781
   8 H :    0.030998
   9 C :   -0.036279
  10 H :    0.024942
  11 H :    0.021439
  12 C :   -0.061948
  13 H :    0.024485
  14 H :    0.030433
  15 H :    0.022932
  16 S :    0.383933
  17 C :   -0.183453
  18 C :   -0.071105
  19 C :   -0.050016
  20 C :   -0.190832
  21 H :    0.031238
  22 C :   -0.034210
  23 H :    0.041277
  24 H :    0.029872
  25 C :   -0.040260
  26 H :    0.024587
  27 H :    0.020294
  28 C :   -0.058152
  29 H :    0.027932
  30 H :    0.016988
  31 H :    0.020117
  32 H :    0.035321
  33 H :    0.029634

  Mayer bond orders larger than 0.100000
B(  0-S ,  1-C ) :   1.1248 B(  0-S ,  4-C ) :   1.1457 B(  1-C ,  2-C ) :   1.6286
B(  1-C , 32-H ) :   0.9636 B(  2-C ,  3-C ) :   1.2025 B(  2-C ,  6-C ) :   1.0502
B(  3-C ,  4-C ) :   1.5966 B(  3-C ,  5-H ) :   0.9848 B(  4-C , 20-C ) :   1.0356
B(  6-C ,  7-H ) :   0.9301 B(  6-C ,  8-H ) :   0.9323 B(  6-C ,  9-C ) :   1.0759
B(  9-C , 10-H ) :   0.9559 B(  9-C , 11-H ) :   0.9531 B(  9-C , 12-C ) :   1.0782
B( 12-C , 13-H ) :   0.9733 B( 12-C , 14-H ) :   0.9713 B( 12-C , 15-H ) :   0.9743
B( 16-S , 17-C ) :   1.1338 B( 16-S , 20-C ) :   1.1149 B( 17-C , 18-C ) :   1.6536
B( 17-C , 33-H ) :   0.9685 B( 18-C , 19-C ) :   1.1782 B( 18-C , 21-H ) :   0.9774
B( 19-C , 20-C ) :   1.6526 B( 19-C , 22-C ) :   1.0376 B( 22-C , 23-H ) :   0.9320
B( 22-C , 24-H ) :   0.9427 B( 22-C , 25-C ) :   1.0803 B( 25-C , 26-H ) :   0.9469
B( 25-C , 27-H ) :   0.9448 B( 25-C , 28-C ) :   1.0724 B( 28-C , 29-H ) :   0.9716
B( 28-C , 30-H ) :   0.9725 B( 28-C , 31-H ) :   0.9703

Dispersion correction           -0.015906946
FINAL SINGLE POINT ENERGY     -1339.866180961145

DIPOLE MOMENT
-------------
                                X             Y             Z
Electronic contribution:    -20.76699      -2.01663     -10.24005
Nuclear contribution   :     21.34028       1.77341      10.50181
                        -----------------------------------------
Total Dipole Moment    :      0.57329      -0.24323       0.26176
                        -----------------------------------------
Magnitude (a.u.)       :      0.67553
Magnitude (Debye)      :      1.71705

Rotational constants in cm-1:     0.022397     0.008914     0.007688
Rotational constants in MHz :   671.445538   267.237526   230.474487

                             ****ORCA TERMINATED NORMALLY****
TOTAL RUN TIME: 0 days 0 hours 0 minutes 23 seconds 790 msec
