                         Program Version 4.2.1 -  RELEASE  -
|  1> ! wB97X-D3 SP def2-SVP
|  2> %pal
|  3> nprocs 24
|  4> end
|  5>
|  6> * xyz 0 1
|  7> S 	 -55.3137 	 12.4769 	 21.9842
|  8> C 	 -55.9114 	 12.6879 	 20.3701
|  9> C 	 -56.5399 	 11.5513 	 19.9967
| 10> C 	 -56.6464 	 10.4815 	 21.0056
| 11> C 	 -55.8299 	 10.8084 	 22.0783
| 12> H 	 -57.0729 	 9.55285 	 20.922
| 13> C 	 -57.1873 	 11.3076 	 18.6365
| 14> H 	 -56.654 	 10.4503 	 18.2234
| 15> H 	 -56.9483 	 12.1348 	 18.0418
| 16> C 	 -58.6685 	 11.2071 	 18.7598
| 17> H 	 -58.8071 	 10.3063 	 19.3122
| 18> H 	 -59.0973 	 12.0521 	 19.331
| 19> C 	 -59.446 	 11.0937 	 17.4413
| 20> H 	 -59.417 	 10.0491 	 17.0148
| 21> H 	 -60.4786 	 11.2273 	 17.329
| 22> H 	 -59.0518 	 11.7746 	 16.7675
| 23> S 	 -56.8485 	 10.6657 	 24.6267
| 24> C 	 -56.6524 	 9.1625 	 25.4992
| 25> C 	 -55.9135 	 8.24299 	 24.8636
| 26> C 	 -55.3649 	 8.76278 	 23.6225
| 27> C 	 -55.7447 	 10.0987 	 23.343
| 28> H 	 -55.6737 	 7.26468 	 25.2496
| 29> C 	 -54.5973 	 7.89537 	 22.7158
| 30> H 	 -53.9703 	 7.18417 	 23.26
| 31> H 	 -53.9233 	 8.47768 	 22.0778
| 32> C 	 -55.3914 	 7.09158 	 21.6368
| 33> H 	 -54.7064 	 6.38487 	 21.2302
| 34> H 	 -55.6612 	 7.84111 	 20.9623
| 35> C 	 -56.6523 	 6.25889 	 21.9791
| 36> H 	 -56.4993 	 5.54511 	 22.8774
| 37> H 	 -56.9396 	 5.69525 	 21.1029
| 38> H 	 -57.5364 	 6.90377 	 22.2172
| 39> H 	 -55.7192 	 13.4944 	 19.669
| 40> H 	 -57.0647 	 8.89631 	 26.4344
| 41> *
| 42>
| 43>                          ****END OF INPUT****

CARTESIAN COORDINATES (ANGSTROEM)
---------------------------------
  S    -55.313700   12.476900   21.984200
  C    -55.911400   12.687900   20.370100
  C    -56.539900   11.551300   19.996700
  C    -56.646400   10.481500   21.005600
  C    -55.829900   10.808400   22.078300
  H    -57.072900    9.552850   20.922000
  C    -57.187300   11.307600   18.636500
  H    -56.654000   10.450300   18.223400
  H    -56.948300   12.134800   18.041800
  C    -58.668500   11.207100   18.759800
  H    -58.807100   10.306300   19.312200
  H    -59.097300   12.052100   19.331000
  C    -59.446000   11.093700   17.441300
  H    -59.417000   10.049100   17.014800
  H    -60.478600   11.227300   17.329000
  H    -59.051800   11.774600   16.767500
  S    -56.848500   10.665700   24.626700
  C    -56.652400    9.162500   25.499200
  C    -55.913500    8.242990   24.863600
  C    -55.364900    8.762780   23.622500
  C    -55.744700   10.098700   23.343000
  H    -55.673700    7.264680   25.249600
  C    -54.597300    7.895370   22.715800
  H    -53.970300    7.184170   23.260000
  H    -53.923300    8.477680   22.077800
  C    -55.391400    7.091580   21.636800
  H    -54.706400    6.384870   21.230200
  H    -55.661200    7.841110   20.962300
  C    -56.652300    6.258890   21.979100
  H    -56.499300    5.545110   22.877400
  H    -56.939600    5.695250   21.102900
  H    -57.536400    6.903770   22.217200
  H    -55.719200   13.494400   19.669000
  H    -57.064700    8.896310   26.434400

 Total Charge           Charge          ....    0
 Multiplicity           Mult            ....    1
 Number of Electrons    NEL             ....  134
 Basis Dimension        Dim             ....  322

ORBITAL ENERGIES
----------------

  NO   OCC          E(Eh)            E(eV)
   0   2.0000     -88.964399     -2420.8444
   1   2.0000     -88.962539     -2420.7938
   2   2.0000     -10.331860      -281.1442
   3   2.0000     -10.327470      -281.0247
   4   2.0000     -10.312658      -280.6217
   5   2.0000     -10.311926      -280.6018
   6   2.0000     -10.306452      -280.4528
   7   2.0000     -10.300792      -280.2988
   8   2.0000     -10.295614      -280.1579
   9   2.0000     -10.290917      -280.0301
  10   2.0000     -10.288879      -279.9746
  11   2.0000     -10.287121      -279.9268
  12   2.0000     -10.284251      -279.8487
  13   2.0000     -10.284108      -279.8448
  14   2.0000     -10.282115      -279.7906
  15   2.0000     -10.270578      -279.4766
  16   2.0000      -8.078724      -219.8333
  17   2.0000      -8.077809      -219.8083
  18   2.0000      -6.037367      -164.2851
  19   2.0000      -6.036393      -164.2586
  20   2.0000      -6.033364      -164.1762
  21   2.0000      -6.032223      -164.1451
  22   2.0000      -6.029267      -164.0647
  23   2.0000      -6.028447      -164.0424
  24   2.0000      -1.007105       -27.4047
  25   2.0000      -0.984018       -26.7765
  26   2.0000      -0.918736       -25.0001
  27   2.0000      -0.908235       -24.7143
  28   2.0000      -0.875885       -23.8340
  29   2.0000      -0.847130       -23.0516
  30   2.0000      -0.845068       -22.9955
  31   2.0000      -0.821947       -22.3663
  32   2.0000      -0.786174       -21.3929
  33   2.0000      -0.774700       -21.0806
  34   2.0000      -0.716630       -19.5005
  35   2.0000      -0.701869       -19.0988
  36   2.0000      -0.686863       -18.6905
  37   2.0000      -0.662561       -18.0292
  38   2.0000      -0.648956       -17.6590
  39   2.0000      -0.620907       -16.8957
  40   2.0000      -0.593574       -16.1520
  41   2.0000      -0.573645       -15.6097
  42   2.0000      -0.569625       -15.5003
  43   2.0000      -0.563227       -15.3262
  44   2.0000      -0.539346       -14.6763
  45   2.0000      -0.525315       -14.2945
  46   2.0000      -0.520185       -14.1550
  47   2.0000      -0.516285       -14.0488
  48   2.0000      -0.509088       -13.8530
  49   2.0000      -0.505121       -13.7450
  50   2.0000      -0.489833       -13.3290
  51   2.0000      -0.481898       -13.1131
  52   2.0000      -0.474780       -12.9194
  53   2.0000      -0.467632       -12.7249
  54   2.0000      -0.458120       -12.4661
  55   2.0000      -0.453200       -12.3322
  56   2.0000      -0.443805       -12.0765
  57   2.0000      -0.433802       -11.8044
  58   2.0000      -0.424785       -11.5590
  59   2.0000      -0.422154       -11.4874
  60   2.0000      -0.419374       -11.4118
  61   2.0000      -0.417352       -11.3567
  62   2.0000      -0.409755       -11.1500
  63   2.0000      -0.347119        -9.4456
  64   2.0000      -0.325295        -8.8517
  65   2.0000      -0.323535        -8.8038
  66   2.0000      -0.305169        -8.3041
  67   0.0000       0.034971         0.9516
  68   0.0000       0.059647         1.6231
  69   0.0000       0.118703         3.2301
  70   0.0000       0.122773         3.3408
  71   0.0000       0.124345         3.3836

MULLIKEN ATOMIC CHARGES
-----------------------
   0 S :    0.097988
   1 C :   -0.095638
   2 C :   -0.143513
   3 C :    0.079277
   4 C :   -0.165482
   5 H :   -0.007111
   6 C :    0.114590
   7 H :    0.036911
   8 H :   -0.015247
   9 C :   -0.071716
  10 H :    0.020695
  11 H :    0.042477
  12 C :   -0.014741
  13 H :    0.023079
  14 H :    0.017515
  15 H :    0.009129
  16 S :    0.105032
  17 C :   -0.049650
  18 C :   -0.020546
  19 C :   -0.070293
  20 C :   -0.124078
  21 H :    0.016215
  22 C :    0.066815
  23 H :    0.019561
  24 H :    0.030285
  25 C :   -0.055740
  26 H :    0.027170
  27 H :    0.006983
  28 C :   -0.086027
  29 H :    0.039997
  30 H :    0.037328
  31 H :    0.041721
  32 H :    0.050634
  33 H :    0.036381
Sum of atomic charges:   -0.0000000

LOEWDIN ATOMIC CHARGES
----------------------
   0 S :    0.406298
   1 C :   -0.206400
   2 C :   -0.055790
   3 C :   -0.043454
   4 C :   -0.192109
   5 H :    0.015401
   6 C :   -0.025990
   7 H :    0.033632
   8 H :    0.015117
   9 C :   -0.037452
  10 H :    0.019742
  11 H :    0.033503
  12 C :   -0.069250
  13 H :    0.032344
  14 H :    0.021358
  15 H :    0.014674
  16 S :    0.393727
  17 C :   -0.169838
  18 C :   -0.069960
  19 C :   -0.045968
  20 C :   -0.202654
  21 H :    0.031832
  22 C :   -0.035363
  23 H :    0.028113
  24 H :    0.037784
  25 C :   -0.032330
  26 H :    0.023628
  27 H :    0.011889
  28 C :   -0.076926
  29 H :    0.031086
  30 H :    0.025825
  31 H :    0.027049
  32 H :    0.036168
  33 H :    0.024315

  Mayer bond orders larger than 0.100000
B(  0-S ,  1-C ) :   1.1112 B(  0-S ,  4-C ) :   1.1564 B(  1-C ,  2-C ) :   1.6645
B(  1-C , 32-H ) :   0.9643 B(  2-C ,  3-C ) :   1.1877 B(  2-C ,  6-C ) :   1.0254
B(  3-C ,  4-C ) :   1.5860 B(  3-C ,  5-H ) :   0.9977 B(  4-C , 20-C ) :   1.0065
B(  6-C ,  7-H ) :   0.9389 B(  6-C ,  8-H ) :   0.9294 B(  6-C ,  9-C ) :   1.0604
B(  9-C , 10-H ) :   0.9589 B(  9-C , 11-H ) :   0.9559 B(  9-C , 12-C ) :   1.0759
B( 12-C , 13-H ) :   0.9726 B( 12-C , 14-H ) :   0.9756 B( 12-C , 15-H ) :   0.9741
B( 16-S , 17-C ) :   1.1492 B( 16-S , 20-C ) :   1.1168 B( 17-C , 18-C ) :   1.6379
B( 17-C , 33-H ) :   0.9626 B( 18-C , 19-C ) :   1.2250 B( 18-C , 21-H ) :   0.9902
B( 19-C , 20-C ) :   1.6069 B( 19-C , 22-C ) :   1.0725 B( 22-C , 23-H ) :   0.9340
B( 22-C , 24-H ) :   0.9340 B( 22-C , 25-C ) :   1.0619 B( 25-C , 26-H ) :   0.9540
B( 25-C , 27-H ) :   0.9541 B( 25-C , 28-C ) :   1.0832 B( 28-C , 29-H ) :   0.9736
B( 28-C , 30-H ) :   0.9728 B( 28-C , 31-H ) :   0.9717

Dispersion correction           -0.015002968
FINAL SINGLE POINT ENERGY     -1339.856446315503

DIPOLE MOMENT
-------------
                                X             Y             Z
Electronic contribution:      9.14862      16.42628      21.19966
Nuclear contribution   :     -9.35184     -17.01033     -21.68691
                        -----------------------------------------
Total Dipole Moment    :     -0.20322      -0.58405      -0.48725
                        -----------------------------------------
Magnitude (a.u.)       :      0.78730
Magnitude (Debye)      :      2.00115

Rotational constants in cm-1:     0.018244     0.009025     0.007342
Rotational constants in MHz :   546.936910   270.554468   220.117282

                             ****ORCA TERMINATED NORMALLY****
TOTAL RUN TIME: 0 days 0 hours 0 minutes 22 seconds 127 msec
