                         Program Version 4.2.1 -  RELEASE  -
|  1> ! wB97X-D3 SP def2-SVP
|  2> %pal
|  3> nprocs 24
|  4> end
|  5>
|  6> * xyz 0 1
|  7> S 	 -127.553 	 61.1435 	 -59.9148
|  8> C 	 -128.574 	 61.7476 	 -61.1324
|  9> C 	 -129.416 	 62.796 	 -60.6762
| 10> C 	 -129.28 	 62.9937 	 -59.2564
| 11> C 	 -128.288 	 62.2186 	 -58.7112
| 12> H 	 -129.68 	 63.7318 	 -58.5986
| 13> C 	 -130.357 	 63.6438 	 -61.4676
| 14> H 	 -131.397 	 63.3456 	 -61.1935
| 15> H 	 -130.277 	 63.4793 	 -62.5037
| 16> C 	 -130.219 	 65.1864 	 -61.3687
| 17> H 	 -130.987 	 65.7032 	 -62.024
| 18> H 	 -130.276 	 65.5126 	 -60.3022
| 19> C 	 -128.838 	 65.6595 	 -61.8663
| 20> H 	 -128.666 	 65.255 	 -62.8026
| 21> H 	 -128.762 	 66.7351 	 -61.7945
| 22> H 	 -128.135 	 65.2002 	 -61.1897
| 23> S 	 -126.363 	 63.2201 	 -57.126
| 24> C 	 -126.479 	 63.0366 	 -55.3825
| 25> C 	 -127.635 	 62.3414 	 -55.025
| 26> C 	 -128.361 	 61.8538 	 -56.1331
| 27> C 	 -127.74 	 62.2431 	 -57.3438
| 28> H 	 -127.882 	 62.2153 	 -53.9939
| 29> C 	 -129.627 	 61.1205 	 -56.0258
| 30> H 	 -130.41 	 61.6528 	 -56.5505
| 31> H 	 -130.227 	 61.2251 	 -55.0495
| 32> C 	 -129.438 	 59.6236 	 -56.2698
| 33> H 	 -128.837 	 59.5069 	 -57.2198
| 34> H 	 -130.447 	 59.0743 	 -56.4497
| 35> C 	 -128.793 	 58.8932 	 -55.082
| 36> H 	 -127.878 	 59.3627 	 -54.6972
| 37> H 	 -128.439 	 57.8642 	 -55.301
| 38> H 	 -129.482 	 58.7624 	 -54.2963
| 39> H 	 -128.577 	 61.3958 	 -62.1861
| 40> H 	 -125.736 	 63.439 	 -54.653
| 41> *
| 42>
| 43>                          ****END OF INPUT****

CARTESIAN COORDINATES (ANGSTROEM)
---------------------------------
  S    -127.553000   61.143500  -59.914800
  C    -128.574000   61.747600  -61.132400
  C    -129.416000   62.796000  -60.676200
  C    -129.280000   62.993700  -59.256400
  C    -128.288000   62.218600  -58.711200
  H    -129.680000   63.731800  -58.598600
  C    -130.357000   63.643800  -61.467600
  H    -131.397000   63.345600  -61.193500
  H    -130.277000   63.479300  -62.503700
  C    -130.219000   65.186400  -61.368700
  H    -130.987000   65.703200  -62.024000
  H    -130.276000   65.512600  -60.302200
  C    -128.838000   65.659500  -61.866300
  H    -128.666000   65.255000  -62.802600
  H    -128.762000   66.735100  -61.794500
  H    -128.135000   65.200200  -61.189700
  S    -126.363000   63.220100  -57.126000
  C    -126.479000   63.036600  -55.382500
  C    -127.635000   62.341400  -55.025000
  C    -128.361000   61.853800  -56.133100
  C    -127.740000   62.243100  -57.343800
  H    -127.882000   62.215300  -53.993900
  C    -129.627000   61.120500  -56.025800
  H    -130.410000   61.652800  -56.550500
  H    -130.227000   61.225100  -55.049500
  C    -129.438000   59.623600  -56.269800
  H    -128.837000   59.506900  -57.219800
  H    -130.447000   59.074300  -56.449700
  C    -128.793000   58.893200  -55.082000
  H    -127.878000   59.362700  -54.697200
  H    -128.439000   57.864200  -55.301000
  H    -129.482000   58.762400  -54.296300
  H    -128.577000   61.395800  -62.186100
  H    -125.736000   63.439000  -54.653000

 Total Charge           Charge          ....    0
 Multiplicity           Mult            ....    1
 Number of Electrons    NEL             ....  134
 Basis Dimension        Dim             ....  322

ORBITAL ENERGIES
----------------

  NO   OCC          E(Eh)            E(eV)
   0   2.0000     -88.969932     -2420.9949
   1   2.0000     -88.967182     -2420.9201
   2   2.0000     -10.327525      -281.0262
   3   2.0000     -10.323315      -280.9117
   4   2.0000     -10.320861      -280.8449
   5   2.0000     -10.317888      -280.7640
   6   2.0000     -10.306432      -280.4523
   7   2.0000     -10.302794      -280.3533
   8   2.0000     -10.294317      -280.1226
   9   2.0000     -10.293980      -280.1134
  10   2.0000     -10.292903      -280.0841
  11   2.0000     -10.292540      -280.0743
  12   2.0000     -10.291137      -280.0361
  13   2.0000     -10.289497      -279.9914
  14   2.0000     -10.272248      -279.5221
  15   2.0000     -10.264951      -279.3235
  16   2.0000      -8.085105      -220.0069
  17   2.0000      -8.082233      -219.9287
  18   2.0000      -6.043414      -164.4497
  19   2.0000      -6.040604      -164.3732
  20   2.0000      -6.039438      -164.3415
  21   2.0000      -6.036597      -164.2642
  22   2.0000      -6.036161      -164.2523
  23   2.0000      -6.033236      -164.1727
  24   2.0000      -1.009143       -27.4602
  25   2.0000      -0.985769       -26.8241
  26   2.0000      -0.911337       -24.7987
  27   2.0000      -0.909846       -24.7582
  28   2.0000      -0.868241       -23.6260
  29   2.0000      -0.850544       -23.1445
  30   2.0000      -0.846320       -23.0295
  31   2.0000      -0.814649       -22.1677
  32   2.0000      -0.783335       -21.3156
  33   2.0000      -0.767603       -20.8875
  34   2.0000      -0.703415       -19.1409
  35   2.0000      -0.690115       -18.7790
  36   2.0000      -0.682236       -18.5646
  37   2.0000      -0.662294       -18.0219
  38   2.0000      -0.646176       -17.5833
  39   2.0000      -0.623645       -16.9702
  40   2.0000      -0.603583       -16.4243
  41   2.0000      -0.564779       -15.3684
  42   2.0000      -0.552557       -15.0358
  43   2.0000      -0.546439       -14.8694
  44   2.0000      -0.540770       -14.7151
  45   2.0000      -0.539321       -14.6757
  46   2.0000      -0.515747       -14.0342
  47   2.0000      -0.511957       -13.9311
  48   2.0000      -0.498438       -13.5632
  49   2.0000      -0.491908       -13.3855
  50   2.0000      -0.490716       -13.3531
  51   2.0000      -0.473068       -12.8728
  52   2.0000      -0.471783       -12.8379
  53   2.0000      -0.467075       -12.7098
  54   2.0000      -0.461725       -12.5642
  55   2.0000      -0.445176       -12.1138
  56   2.0000      -0.443447       -12.0668
  57   2.0000      -0.435801       -11.8588
  58   2.0000      -0.433087       -11.7849
  59   2.0000      -0.422883       -11.5072
  60   2.0000      -0.418345       -11.3837
  61   2.0000      -0.415441       -11.3047
  62   2.0000      -0.400991       -10.9115
  63   2.0000      -0.345342        -9.3972
  64   2.0000      -0.333036        -9.0624
  65   2.0000      -0.316637        -8.6161
  66   2.0000      -0.302614        -8.2345
  67   0.0000       0.040936         1.1139
  68   0.0000       0.055668         1.5148
  69   0.0000       0.113989         3.1018
  70   0.0000       0.119456         3.2506
  71   0.0000       0.124863         3.3977

MULLIKEN ATOMIC CHARGES
-----------------------
   0 S :    0.124742
   1 C :   -0.119896
   2 C :   -0.117040
   3 C :    0.073666
   4 C :   -0.204352
   5 H :    0.010536
   6 C :    0.092399
   7 H :    0.044820
   8 H :   -0.001360
   9 C :   -0.132415
  10 H :    0.043686
  11 H :    0.035921
  12 C :   -0.012779
  13 H :    0.008777
  14 H :    0.038502
  15 H :    0.032304
  16 S :    0.137834
  17 C :   -0.123915
  18 C :   -0.023382
  19 C :   -0.002468
  20 C :   -0.179188
  21 H :    0.011735
  22 C :    0.057901
  23 H :    0.021454
  24 H :    0.017609
  25 C :   -0.090230
  26 H :    0.042180
  27 H :    0.040417
  28 C :   -0.041296
  29 H :    0.031198
  30 H :    0.031035
  31 H :    0.017471
  32 H :    0.061725
  33 H :    0.072407
Sum of atomic charges:    0.0000000

LOEWDIN ATOMIC CHARGES
----------------------
   0 S :    0.420624
   1 C :   -0.220561
   2 C :   -0.065047
   3 C :   -0.054754
   4 C :   -0.192689
   5 H :    0.032064
   6 C :   -0.037327
   7 H :    0.039176
   8 H :    0.020308
   9 C :   -0.041388
  10 H :    0.030056
  11 H :    0.021869
  12 C :   -0.056028
  13 H :    0.011519
  14 H :    0.026254
  15 H :    0.026422
  16 S :    0.441710
  17 C :   -0.197802
  18 C :   -0.065407
  19 C :   -0.053758
  20 C :   -0.227046
  21 H :    0.028873
  22 C :   -0.051571
  23 H :    0.032819
  24 H :    0.038824
  25 C :   -0.042961
  26 H :    0.026403
  27 H :    0.032991
  28 C :   -0.069829
  29 H :    0.025378
  30 H :    0.030836
  31 H :    0.016265
  32 H :    0.036226
  33 H :    0.037553

  Mayer bond orders larger than 0.100000
B(  0-S ,  1-C ) :   1.1614 B(  0-S ,  4-C ) :   1.1534 B(  1-C ,  2-C ) :   1.5949
B(  1-C , 32-H ) :   0.9616 B(  2-C ,  3-C ) :   1.2136 B(  2-C ,  6-C ) :   1.0368
B(  3-C ,  4-C ) :   1.6161 B(  3-C ,  5-H ) :   0.9928 B(  4-C , 20-C ) :   0.9848
B(  6-C ,  7-H ) :   0.9342 B(  6-C ,  8-H ) :   0.9390 B(  6-C ,  9-C ) :   1.0648
B(  9-C , 10-H ) :   0.9576 B(  9-C , 11-H ) :   0.9578 B(  9-C , 12-C ) :   1.0702
B( 12-C , 13-H ) :   0.9755 B( 12-C , 14-H ) :   0.9747 B( 12-C , 15-H ) :   0.9739
B( 16-S , 17-C ) :   1.1679 B( 16-S , 20-C ) :   1.1917 B( 17-C , 18-C ) :   1.5690
B( 17-C , 20-C ) :   0.1081 B( 17-C , 33-H ) :   0.9636 B( 18-C , 19-C ) :   1.2801
B( 18-C , 21-H ) :   0.9952 B( 19-C , 20-C ) :   1.5409 B( 19-C , 22-C ) :   1.0492
B( 22-C , 23-H ) :   0.9226 B( 22-C , 24-H ) :   0.9371 B( 22-C , 25-C ) :   1.0513
B( 25-C , 26-H ) :   0.9606 B( 25-C , 27-H ) :   0.9546 B( 25-C , 28-C ) :   1.0701
B( 28-C , 29-H ) :   0.9748 B( 28-C , 30-H ) :   0.9724 B( 28-C , 31-H ) :   0.9743

Dispersion correction           -0.015237563
FINAL SINGLE POINT ENERGY     -1339.876285461151

DIPOLE MOMENT
-------------
                                X             Y             Z
Electronic contribution:     14.46376      -1.15640       0.75908
Nuclear contribution   :    -14.86724       1.37584      -0.63182
                        -----------------------------------------
Total Dipole Moment    :     -0.40348       0.21944       0.12726
                        -----------------------------------------
Magnitude (a.u.)       :      0.47660
Magnitude (Debye)      :      1.21141

Rotational constants in cm-1:     0.021757     0.008358     0.007410
Rotational constants in MHz :   652.266402   250.564944   222.154224

                             ****ORCA TERMINATED NORMALLY****
TOTAL RUN TIME: 0 days 0 hours 0 minutes 22 seconds 73 msec
