                         Program Version 4.2.1 -  RELEASE  -
|  1> ! wB97X-D3 SP def2-SVP
|  2> %pal
|  3> nprocs 24
|  4> end
|  5>
|  6> * xyz 0 1
|  7> S 	 -113.42 	 59.9047 	 -72.2089
|  8> C 	 -111.914 	 59.7959 	 -71.3633
|  9> C 	 -111.07 	 60.8383 	 -71.6716
| 10> C 	 -111.618 	 61.6495 	 -72.6968
| 11> C 	 -112.889 	 61.3361 	 -73.1262
| 12> H 	 -111.188 	 62.5472 	 -73.0632
| 13> C 	 -109.721 	 61.1002 	 -70.9148
| 14> H 	 -109.023 	 61.7238 	 -71.5227
| 15> H 	 -109.251 	 60.1145 	 -70.6869
| 16> C 	 -109.916 	 61.9078 	 -69.5654
| 17> H 	 -108.907 	 62.2433 	 -69.3174
| 18> H 	 -110.575 	 62.7369 	 -69.8845
| 19> C 	 -110.509 	 61.1107 	 -68.3707
| 20> H 	 -110.724 	 61.7951 	 -67.5077
| 21> H 	 -111.463 	 60.698 	 -68.5684
| 22> H 	 -109.856 	 60.2394 	 -68.0396
| 23> S 	 -114.511 	 63.5549 	 -73.2481
| 24> C 	 -115.337 	 63.907 	 -74.7238
| 25> C 	 -115.089 	 62.9684 	 -75.6933
| 26> C 	 -114.034 	 62.0807 	 -75.2913
| 27> C 	 -113.798 	 62.0827 	 -73.9273
| 28> H 	 -115.608 	 63.1321 	 -76.664
| 29> C 	 -113.443 	 61.0774 	 -76.3225
| 30> H 	 -112.382 	 61.2154 	 -76.379
| 31> H 	 -113.876 	 61.3072 	 -77.3118
| 32> C 	 -113.602 	 59.5878 	 -76.0854
| 33> H 	 -113.135 	 59.1726 	 -75.196
| 34> H 	 -113.139 	 59.0142 	 -76.9761
| 35> C 	 -115.034 	 59.2243 	 -76.1542
| 36> H 	 -115.462 	 59.3928 	 -75.1736
| 37> H 	 -115.166 	 58.1505 	 -76.3211
| 38> H 	 -115.515 	 59.8137 	 -77.0123
| 39> H 	 -111.593 	 59.1194 	 -70.5837
| 40> H 	 -115.967 	 64.7824 	 -74.9051
| 41> *
| 42>
| 43>                          ****END OF INPUT****

CARTESIAN COORDINATES (ANGSTROEM)
---------------------------------
  S    -113.420000   59.904700  -72.208900
  C    -111.914000   59.795900  -71.363300
  C    -111.070000   60.838300  -71.671600
  C    -111.618000   61.649500  -72.696800
  C    -112.889000   61.336100  -73.126200
  H    -111.188000   62.547200  -73.063200
  C    -109.721000   61.100200  -70.914800
  H    -109.023000   61.723800  -71.522700
  H    -109.251000   60.114500  -70.686900
  C    -109.916000   61.907800  -69.565400
  H    -108.907000   62.243300  -69.317400
  H    -110.575000   62.736900  -69.884500
  C    -110.509000   61.110700  -68.370700
  H    -110.724000   61.795100  -67.507700
  H    -111.463000   60.698000  -68.568400
  H    -109.856000   60.239400  -68.039600
  S    -114.511000   63.554900  -73.248100
  C    -115.337000   63.907000  -74.723800
  C    -115.089000   62.968400  -75.693300
  C    -114.034000   62.080700  -75.291300
  C    -113.798000   62.082700  -73.927300
  H    -115.608000   63.132100  -76.664000
  C    -113.443000   61.077400  -76.322500
  H    -112.382000   61.215400  -76.379000
  H    -113.876000   61.307200  -77.311800
  C    -113.602000   59.587800  -76.085400
  H    -113.135000   59.172600  -75.196000
  H    -113.139000   59.014200  -76.976100
  C    -115.034000   59.224300  -76.154200
  H    -115.462000   59.392800  -75.173600
  H    -115.166000   58.150500  -76.321100
  H    -115.515000   59.813700  -77.012300
  H    -111.593000   59.119400  -70.583700
  H    -115.967000   64.782400  -74.905100

 Total Charge           Charge          ....    0
 Multiplicity           Mult            ....    1
 Number of Electrons    NEL             ....  134
 Basis Dimension        Dim             ....  322

ORBITAL ENERGIES
----------------

  NO   OCC          E(Eh)            E(eV)
   0   2.0000     -88.967649     -2420.9328
   1   2.0000     -88.964515     -2420.8475
   2   2.0000     -10.328020      -281.0397
   3   2.0000     -10.324300      -280.9385
   4   2.0000     -10.317125      -280.7432
   5   2.0000     -10.313541      -280.6457
   6   2.0000     -10.310234      -280.5557
   7   2.0000     -10.305096      -280.4159
   8   2.0000     -10.301519      -280.3186
   9   2.0000     -10.296193      -280.1736
  10   2.0000     -10.294904      -280.1386
  11   2.0000     -10.293302      -280.0950
  12   2.0000     -10.289468      -279.9907
  13   2.0000     -10.285012      -279.8694
  14   2.0000     -10.279001      -279.7058
  15   2.0000     -10.268660      -279.4245
  16   2.0000      -8.081805      -219.9171
  17   2.0000      -8.079479      -219.8538
  18   2.0000      -6.040313      -164.3653
  19   2.0000      -6.037943      -164.3008
  20   2.0000      -6.036277      -164.2554
  21   2.0000      -6.033938      -164.1918
  22   2.0000      -6.032690      -164.1578
  23   2.0000      -6.030266      -164.0919
  24   2.0000      -1.008670       -27.4473
  25   2.0000      -0.986536       -26.8450
  26   2.0000      -0.911043       -24.7907
  27   2.0000      -0.902003       -24.5448
  28   2.0000      -0.872494       -23.7418
  29   2.0000      -0.846199       -23.0262
  30   2.0000      -0.844634       -22.9837
  31   2.0000      -0.813592       -22.1390
  32   2.0000      -0.782957       -21.3054
  33   2.0000      -0.772530       -21.0216
  34   2.0000      -0.712404       -19.3855
  35   2.0000      -0.690576       -18.7915
  36   2.0000      -0.678826       -18.4718
  37   2.0000      -0.657020       -17.8784
  38   2.0000      -0.642868       -17.4933
  39   2.0000      -0.617891       -16.8137
  40   2.0000      -0.590064       -16.0565
  41   2.0000      -0.573382       -15.6025
  42   2.0000      -0.560599       -15.2547
  43   2.0000      -0.547858       -14.9080
  44   2.0000      -0.542070       -14.7505
  45   2.0000      -0.536906       -14.6100
  46   2.0000      -0.517968       -14.0946
  47   2.0000      -0.509866       -13.8742
  48   2.0000      -0.503632       -13.7045
  49   2.0000      -0.486891       -13.2490
  50   2.0000      -0.483335       -13.1522
  51   2.0000      -0.478281       -13.0147
  52   2.0000      -0.470792       -12.8109
  53   2.0000      -0.469544       -12.7769
  54   2.0000      -0.460863       -12.5407
  55   2.0000      -0.442658       -12.0453
  56   2.0000      -0.436375       -11.8744
  57   2.0000      -0.433865       -11.8061
  58   2.0000      -0.429430       -11.6854
  59   2.0000      -0.425790       -11.5863
  60   2.0000      -0.422576       -11.4989
  61   2.0000      -0.416732       -11.3399
  62   2.0000      -0.399648       -10.8750
  63   2.0000      -0.338954        -9.2234
  64   2.0000      -0.328820        -8.9477
  65   2.0000      -0.319965        -8.7067
  66   2.0000      -0.313407        -8.5282
  67   0.0000       0.040076         1.0905
  68   0.0000       0.048153         1.3103
  69   0.0000       0.112893         3.0720
  70   0.0000       0.119268         3.2454
  71   0.0000       0.127887         3.4800

MULLIKEN ATOMIC CHARGES
-----------------------
   0 S :    0.113758
   1 C :   -0.097558
   2 C :   -0.103767
   3 C :    0.064433
   4 C :   -0.189301
   5 H :   -0.005111
   6 C :    0.022474
   7 H :    0.036747
   8 H :    0.034216
   9 C :   -0.060852
  10 H :    0.037081
  11 H :    0.040255
  12 C :   -0.074819
  13 H :    0.044881
  14 H :    0.024644
  15 H :    0.040695
  16 S :    0.115491
  17 C :   -0.101577
  18 C :   -0.041376
  19 C :   -0.031555
  20 C :   -0.157800
  21 H :    0.037605
  22 C :    0.094818
  23 H :    0.027762
  24 H :    0.016854
  25 C :   -0.106543
  26 H :    0.038128
  27 H :    0.030275
  28 C :   -0.045356
  29 H :    0.031694
  30 H :    0.027194
  31 H :    0.029917
  32 H :    0.043686
  33 H :    0.063007
Sum of atomic charges:   -0.0000000

LOEWDIN ATOMIC CHARGES
----------------------
   0 S :    0.408899
   1 C :   -0.199505
   2 C :   -0.071867
   3 C :   -0.051175
   4 C :   -0.194841
   5 H :    0.025594
   6 C :   -0.031507
   7 H :    0.033346
   8 H :    0.029853
   9 C :   -0.037938
  10 H :    0.024359
  11 H :    0.029838
  12 C :   -0.076662
  13 H :    0.035218
  14 H :    0.016223
  15 H :    0.031573
  16 S :    0.408891
  17 C :   -0.187146
  18 C :   -0.084368
  19 C :   -0.038359
  20 C :   -0.212139
  21 H :    0.041247
  22 C :   -0.028152
  23 H :    0.031380
  24 H :    0.029923
  25 C :   -0.052136
  26 H :    0.019178
  27 H :    0.031284
  28 C :   -0.070119
  29 H :    0.022097
  30 H :    0.023209
  31 H :    0.029570
  32 H :    0.030222
  33 H :    0.034007

  Mayer bond orders larger than 0.100000
B(  0-S ,  1-C ) :   1.1521 B(  0-S ,  4-C ) :   1.1306 B(  1-C ,  2-C ) :   1.6144
B(  1-C , 32-H ) :   0.9586 B(  2-C ,  3-C ) :   1.2517 B(  2-C ,  6-C ) :   1.0147
B(  3-C ,  4-C ) :   1.5927 B(  3-C ,  5-H ) :   1.0035 B(  4-C , 20-C ) :   1.0482
B(  6-C ,  7-H ) :   0.9486 B(  6-C ,  8-H ) :   0.9463 B(  6-C ,  9-C ) :   1.0539
B(  9-C , 10-H ) :   0.9598 B(  9-C , 11-H ) :   0.9560 B(  9-C , 12-C ) :   1.0772
B( 12-C , 13-H ) :   0.9723 B( 12-C , 14-H ) :   0.9726 B( 12-C , 15-H ) :   0.9747
B( 16-S , 17-C ) :   1.1724 B( 16-S , 20-C ) :   1.1198 B( 17-C , 18-C ) :   1.6243
B( 17-C , 33-H ) :   0.9619 B( 18-C , 19-C ) :   1.2230 B( 18-C , 21-H ) :   0.9824
B( 19-C , 20-C ) :   1.5985 B( 19-C , 22-C ) :   1.0344 B( 22-C , 23-H ) :   0.9255
B( 22-C , 24-H ) :   0.9401 B( 22-C , 25-C ) :   1.0874 B( 25-C , 26-H ) :   0.9499
B( 25-C , 27-H ) :   0.9517 B( 25-C , 28-C ) :   1.0779 B( 28-C , 29-H ) :   0.9700
B( 28-C , 30-H ) :   0.9732 B( 28-C , 31-H ) :   0.9731

Dispersion correction           -0.015319736
FINAL SINGLE POINT ENERGY     -1339.874891465929

DIPOLE MOMENT
-------------
                                X             Y             Z
Electronic contribution:    -10.31603       7.81801      -1.08206
Nuclear contribution   :     10.68938      -7.65176       0.99885
                        -----------------------------------------
Total Dipole Moment    :      0.37335       0.16625      -0.08321
                        -----------------------------------------
Magnitude (a.u.)       :      0.41708
Magnitude (Debye)      :      1.06013

Rotational constants in cm-1:     0.023295     0.008179     0.006904
Rotational constants in MHz :   698.371546   245.208508   206.980072

                             ****ORCA TERMINATED NORMALLY****
TOTAL RUN TIME: 0 days 0 hours 0 minutes 20 seconds 735 msec
