                         Program Version 4.2.1 -  RELEASE  -
|  1> ! wB97X-D3 SP def2-SVP
|  2> %pal
|  3> nprocs 24
|  4> end
|  5>
|  6> * xyz 0 1
|  7> S 	 -104.781 	 35.9086 	 -23.8326
|  8> C 	 -103.815 	 34.4114 	 -23.7713
|  9> C 	 -104.638 	 33.2657 	 -23.7399
| 10> C 	 -106.034 	 33.5811 	 -23.9371
| 11> C 	 -106.244 	 34.9581 	 -23.97
| 12> H 	 -106.821 	 32.8067 	 -24.0982
| 13> C 	 -104.125 	 31.8772 	 -23.5093
| 14> H 	 -103.518 	 31.651 	 -24.3873
| 15> H 	 -104.931 	 31.1144 	 -23.5327
| 16> C 	 -103.269 	 31.5392 	 -22.3153
| 17> H 	 -102.732 	 30.6627 	 -22.4708
| 18> H 	 -102.549 	 32.3573 	 -22.1226
| 19> C 	 -104.094 	 31.261 	 -21.1142
| 20> H 	 -103.537 	 30.7984 	 -20.2576
| 21> H 	 -104.462 	 32.2084 	 -20.7369
| 22> H 	 -104.914 	 30.5487 	 -21.3038
| 23> S 	 -107.851 	 36.9782 	 -23.025
| 24> C 	 -109.372 	 37.4716 	 -23.7707
| 25> C 	 -109.641 	 36.5813 	 -24.7188
| 26> C 	 -108.725 	 35.5062 	 -24.9354
| 27> C 	 -107.55 	 35.6438 	 -24.1899
| 28> H 	 -110.479 	 36.8503 	 -25.2667
| 29> C 	 -108.991 	 34.5779 	 -25.9835
| 30> H 	 -108.059 	 34.2811 	 -26.4707
| 31> H 	 -109.601 	 35.0189 	 -26.8064
| 32> C 	 -109.712 	 33.2801 	 -25.574
| 33> H 	 -109.05 	 32.7828 	 -24.8019
| 34> H 	 -109.816 	 32.6392 	 -26.4198
| 35> C 	 -111.197 	 33.3003 	 -24.9634
| 36> H 	 -111.929 	 33.7787 	 -25.631
| 37> H 	 -111.306 	 33.8591 	 -24.0056
| 38> H 	 -111.622 	 32.3356 	 -24.7354
| 39> H 	 -102.793 	 34.3462 	 -23.5822
| 40> H 	 -109.929 	 38.3348 	 -23.4149
| 41> *
| 42>
| 43>                          ****END OF INPUT****

CARTESIAN COORDINATES (ANGSTROEM)
---------------------------------
  S    -104.781000   35.908600  -23.832600
  C    -103.815000   34.411400  -23.771300
  C    -104.638000   33.265700  -23.739900
  C    -106.034000   33.581100  -23.937100
  C    -106.244000   34.958100  -23.970000
  H    -106.821000   32.806700  -24.098200
  C    -104.125000   31.877200  -23.509300
  H    -103.518000   31.651000  -24.387300
  H    -104.931000   31.114400  -23.532700
  C    -103.269000   31.539200  -22.315300
  H    -102.732000   30.662700  -22.470800
  H    -102.549000   32.357300  -22.122600
  C    -104.094000   31.261000  -21.114200
  H    -103.537000   30.798400  -20.257600
  H    -104.462000   32.208400  -20.736900
  H    -104.914000   30.548700  -21.303800
  S    -107.851000   36.978200  -23.025000
  C    -109.372000   37.471600  -23.770700
  C    -109.641000   36.581300  -24.718800
  C    -108.725000   35.506200  -24.935400
  C    -107.550000   35.643800  -24.189900
  H    -110.479000   36.850300  -25.266700
  C    -108.991000   34.577900  -25.983500
  H    -108.059000   34.281100  -26.470700
  H    -109.601000   35.018900  -26.806400
  C    -109.712000   33.280100  -25.574000
  H    -109.050000   32.782800  -24.801900
  H    -109.816000   32.639200  -26.419800
  C    -111.197000   33.300300  -24.963400
  H    -111.929000   33.778700  -25.631000
  H    -111.306000   33.859100  -24.005600
  H    -111.622000   32.335600  -24.735400
  H    -102.793000   34.346200  -23.582200
  H    -109.929000   38.334800  -23.414900

 Total Charge           Charge          ....    0
 Multiplicity           Mult            ....    1
 Number of Electrons    NEL             ....  134
 Basis Dimension        Dim             ....  322

ORBITAL ENERGIES
----------------

  NO   OCC          E(Eh)            E(eV)
   0   2.0000     -88.974159     -2421.1100
   1   2.0000     -88.953299     -2420.5423
   2   2.0000     -10.339093      -281.3410
   3   2.0000     -10.335554      -281.2447
   4   2.0000     -10.315779      -280.7066
   5   2.0000     -10.312904      -280.6284
   6   2.0000     -10.308487      -280.5082
   7   2.0000     -10.304348      -280.3956
   8   2.0000     -10.302202      -280.3372
   9   2.0000     -10.295563      -280.1565
  10   2.0000     -10.291898      -280.0568
  11   2.0000     -10.288812      -279.9728
  12   2.0000     -10.282288      -279.7953
  13   2.0000     -10.282229      -279.7937
  14   2.0000     -10.279735      -279.7258
  15   2.0000     -10.274302      -279.5780
  16   2.0000      -8.087791      -220.0800
  17   2.0000      -8.067970      -219.5406
  18   2.0000      -6.046452      -164.5323
  19   2.0000      -6.042479      -164.4242
  20   2.0000      -6.038404      -164.3133
  21   2.0000      -6.026559      -163.9910
  22   2.0000      -6.022405      -163.8780
  23   2.0000      -6.018711      -163.7775
  24   2.0000      -1.003228       -27.2992
  25   2.0000      -0.982893       -26.7459
  26   2.0000      -0.922213       -25.0947
  27   2.0000      -0.909226       -24.7413
  28   2.0000      -0.870763       -23.6947
  29   2.0000      -0.851386       -23.1674
  30   2.0000      -0.839408       -22.8415
  31   2.0000      -0.818558       -22.2741
  32   2.0000      -0.782387       -21.2898
  33   2.0000      -0.774760       -21.0823
  34   2.0000      -0.712102       -19.3773
  35   2.0000      -0.703848       -19.1527
  36   2.0000      -0.690660       -18.7938
  37   2.0000      -0.663162       -18.0456
  38   2.0000      -0.638148       -17.3649
  39   2.0000      -0.615745       -16.7553
  40   2.0000      -0.598426       -16.2840
  41   2.0000      -0.582869       -15.8607
  42   2.0000      -0.561414       -15.2768
  43   2.0000      -0.559109       -15.2141
  44   2.0000      -0.548705       -14.9310
  45   2.0000      -0.538006       -14.6399
  46   2.0000      -0.510072       -13.8798
  47   2.0000      -0.506128       -13.7724
  48   2.0000      -0.504433       -13.7263
  49   2.0000      -0.498259       -13.5583
  50   2.0000      -0.489272       -13.3138
  51   2.0000      -0.483748       -13.1634
  52   2.0000      -0.469335       -12.7713
  53   2.0000      -0.467967       -12.7340
  54   2.0000      -0.454190       -12.3591
  55   2.0000      -0.450447       -12.2573
  56   2.0000      -0.446034       -12.1372
  57   2.0000      -0.434012       -11.8101
  58   2.0000      -0.429466       -11.6864
  59   2.0000      -0.426348       -11.6015
  60   2.0000      -0.417923       -11.3723
  61   2.0000      -0.411760       -11.2046
  62   2.0000      -0.406474       -11.0607
  63   2.0000      -0.350571        -9.5395
  64   2.0000      -0.332675        -9.0526
  65   2.0000      -0.322700        -8.7811
  66   2.0000      -0.292700        -7.9648
  67   0.0000       0.023434         0.6377
  68   0.0000       0.069764         1.8984
  69   0.0000       0.108474         2.9517
  70   0.0000       0.121618         3.3094
  71   0.0000       0.127688         3.4746

MULLIKEN ATOMIC CHARGES
-----------------------
   0 S :    0.129916
   1 C :   -0.093480
   2 C :   -0.096369
   3 C :    0.014375
   4 C :   -0.123116
   5 H :    0.031954
   6 C :    0.037843
   7 H :    0.038951
   8 H :    0.015178
   9 C :   -0.021141
  10 H :    0.010560
  11 H :    0.026172
  12 C :   -0.071307
  13 H :    0.033822
  14 H :    0.035356
  15 H :    0.026799
  16 S :    0.044316
  17 C :   -0.088220
  18 C :   -0.015073
  19 C :    0.011192
  20 C :   -0.133100
  21 H :   -0.007497
  22 C :    0.040744
  23 H :    0.030201
  24 H :    0.027043
  25 C :   -0.082347
  26 H :    0.034695
  27 H :    0.031290
  28 C :   -0.077174
  29 H :    0.025761
  30 H :    0.039437
  31 H :    0.031872
  32 H :    0.026404
  33 H :    0.064942
Sum of atomic charges:    0.0000000

LOEWDIN ATOMIC CHARGES
----------------------
   0 S :    0.410809
   1 C :   -0.186182
   2 C :   -0.053591
   3 C :   -0.064957
   4 C :   -0.194159
   5 H :    0.039635
   6 C :   -0.038616
   7 H :    0.039305
   8 H :    0.030354
   9 C :   -0.039823
  10 H :    0.018048
  11 H :    0.026731
  12 C :   -0.068027
  13 H :    0.028640
  14 H :    0.025634
  15 H :    0.024144
  16 S :    0.359607
  17 C :   -0.168972
  18 C :   -0.069306
  19 C :   -0.064673
  20 C :   -0.168575
  21 H :    0.022857
  22 C :   -0.041123
  23 H :    0.037460
  24 H :    0.035790
  25 C :   -0.033703
  26 H :    0.024908
  27 H :    0.020877
  28 C :   -0.077766
  29 H :    0.022487
  30 H :    0.028389
  31 H :    0.024820
  32 H :    0.013396
  33 H :    0.035579

  Mayer bond orders larger than 0.100000
B(  0-S ,  1-C ) :   1.1229 B(  0-S ,  4-C ) :   1.1646 B(  1-C ,  2-C ) :   1.6064
B(  1-C ,  4-C ) :   0.1008 B(  1-C , 32-H ) :   0.9740 B(  2-C ,  3-C ) :   1.2434
B(  2-C ,  6-C ) :   1.0215 B(  3-C ,  4-C ) :   1.5607 B(  3-C ,  5-H ) :   0.9850
B(  4-C , 20-C ) :   1.0102 B(  6-C ,  7-H ) :   0.9272 B(  6-C ,  8-H ) :   0.9446
B(  6-C ,  9-C ) :   1.0857 B(  9-C , 10-H ) :   0.9453 B(  9-C , 11-H ) :   0.9513
B(  9-C , 12-C ) :   1.0878 B( 12-C , 13-H ) :   0.9728 B( 12-C , 14-H ) :   0.9778
B( 12-C , 15-H ) :   0.9714 B( 16-S , 17-C ) :   1.1273 B( 16-S , 20-C ) :   1.1339
B( 17-C , 18-C ) :   1.6316 B( 17-C , 33-H ) :   0.9698 B( 18-C , 19-C ) :   1.1941
B( 18-C , 21-H ) :   1.0043 B( 19-C , 20-C ) :   1.5935 B( 19-C , 22-C ) :   1.0739
B( 22-C , 23-H ) :   0.9286 B( 22-C , 24-H ) :   0.9345 B( 22-C , 25-C ) :   1.0712
B( 25-C , 26-H ) :   0.9526 B( 25-C , 27-H ) :   0.9570 B( 25-C , 28-C ) :   1.0664
B( 28-C , 29-H ) :   0.9763 B( 28-C , 30-H ) :   0.9756 B( 28-C , 31-H ) :   0.9768

Dispersion correction           -0.014112505
FINAL SINGLE POINT ENERGY     -1339.863661039442

DIPOLE MOMENT
-------------
                                X             Y             Z
Electronic contribution:      5.10789      24.70930       0.15114
Nuclear contribution   :     -5.24839     -25.28458      -0.39455
                        -----------------------------------------
Total Dipole Moment    :     -0.14050      -0.57528      -0.24341
                        -----------------------------------------
Magnitude (a.u.)       :      0.64026
Magnitude (Debye)      :      1.62742

Rotational constants in cm-1:     0.020076     0.008051     0.006544
Rotational constants in MHz :   601.858634   241.348108   196.195200

                             ****ORCA TERMINATED NORMALLY****
TOTAL RUN TIME: 0 days 0 hours 0 minutes 21 seconds 364 msec
