                         Program Version 4.2.1 -  RELEASE  -
|  1> ! wB97X-D3 SP def2-SVP
|  2> %pal
|  3> nprocs 24
|  4> end
|  5>
|  6> * xyz 0 1
|  7> S 	 -102.895 	 6.94097 	 -6.26512
|  8> C 	 -101.753 	 8.17394 	 -5.74008
|  9> C 	 -102.308 	 9.12742 	 -4.86501
| 10> C 	 -103.603 	 8.76857 	 -4.52872
| 11> C 	 -104.115 	 7.70393 	 -5.23394
| 12> H 	 -104.343 	 9.26447 	 -3.90437
| 13> C 	 -101.732 	 10.373 	 -4.18893
| 14> H 	 -102.576 	 10.7924 	 -3.61635
| 15> H 	 -101.519 	 11.148 	 -4.91476
| 16> C 	 -100.531 	 10.0525 	 -3.21871
| 17> H 	 -99.7673 	 9.411 	 -3.69836
| 18> H 	 -100.087 	 10.9688 	 -2.97414
| 19> C 	 -100.969 	 9.35638 	 -1.97371
| 20> H 	 -101.31 	 8.28678 	 -2.13451
| 21> H 	 -100.081 	 9.41671 	 -1.34638
| 22> H 	 -101.845 	 9.83321 	 -1.50368
| 23> S 	 -106.449 	 8.21016 	 -6.49514
| 24> C 	 -107.89 	 7.49604 	 -6.05042
| 25> C 	 -107.651 	 6.5141 	 -5.04093
| 26> C 	 -106.287 	 6.29294 	 -4.80586
| 27> C 	 -105.515 	 7.24947 	 -5.41088
| 28> H 	 -108.486 	 5.89985 	 -4.65882
| 29> C 	 -105.71 	 5.42011 	 -3.68788
| 30> H 	 -104.858 	 4.95879 	 -4.2853
| 31> H 	 -106.382 	 4.64098 	 -3.3447
| 32> C 	 -105.104 	 6.11604 	 -2.41397
| 33> H 	 -104.238 	 6.81141 	 -2.70549
| 34> H 	 -104.477 	 5.43508 	 -1.82717
| 35> C 	 -106.051 	 6.83172 	 -1.50055
| 36> H 	 -106.516 	 6.08422 	 -0.86716
| 37> H 	 -106.84 	 7.35941 	 -1.98902
| 38> H 	 -105.373 	 7.3806 	 -0.888768
| 39> H 	 -100.734 	 8.20001 	 -5.94401
| 40> H 	 -108.859 	 7.75872 	 -6.45548
| 41> *
| 42>
| 43>                          ****END OF INPUT****

CARTESIAN COORDINATES (ANGSTROEM)
---------------------------------
  S    -102.895000    6.940970   -6.265120
  C    -101.753000    8.173940   -5.740080
  C    -102.308000    9.127420   -4.865010
  C    -103.603000    8.768570   -4.528720
  C    -104.115000    7.703930   -5.233940
  H    -104.343000    9.264470   -3.904370
  C    -101.732000   10.373000   -4.188930
  H    -102.576000   10.792400   -3.616350
  H    -101.519000   11.148000   -4.914760
  C    -100.531000   10.052500   -3.218710
  H    -99.767300    9.411000   -3.698360
  H    -100.087000   10.968800   -2.974140
  C    -100.969000    9.356380   -1.973710
  H    -101.310000    8.286780   -2.134510
  H    -100.081000    9.416710   -1.346380
  H    -101.845000    9.833210   -1.503680
  S    -106.449000    8.210160   -6.495140
  C    -107.890000    7.496040   -6.050420
  C    -107.651000    6.514100   -5.040930
  C    -106.287000    6.292940   -4.805860
  C    -105.515000    7.249470   -5.410880
  H    -108.486000    5.899850   -4.658820
  C    -105.710000    5.420110   -3.687880
  H    -104.858000    4.958790   -4.285300
  H    -106.382000    4.640980   -3.344700
  C    -105.104000    6.116040   -2.413970
  H    -104.238000    6.811410   -2.705490
  H    -104.477000    5.435080   -1.827170
  C    -106.051000    6.831720   -1.500550
  H    -106.516000    6.084220   -0.867160
  H    -106.840000    7.359410   -1.989020
  H    -105.373000    7.380600   -0.888768
  H    -100.734000    8.200010   -5.944010
  H    -108.859000    7.758720   -6.455480

 Total Charge           Charge          ....    0
 Multiplicity           Mult            ....    1
 Number of Electrons    NEL             ....  134
 Basis Dimension        Dim             ....  322

ORBITAL ENERGIES
----------------

  NO   OCC          E(Eh)            E(eV)
   0   2.0000     -88.969137     -2420.9733
   1   2.0000     -88.964637     -2420.8509
   2   2.0000     -10.326888      -281.0089
   3   2.0000     -10.318006      -280.7672
   4   2.0000     -10.314355      -280.6679
   5   2.0000     -10.311948      -280.6024
   6   2.0000     -10.300354      -280.2869
   7   2.0000     -10.299371      -280.2601
   8   2.0000     -10.295781      -280.1625
   9   2.0000     -10.294954      -280.1399
  10   2.0000     -10.294471      -280.1268
  11   2.0000     -10.289357      -279.9876
  12   2.0000     -10.285694      -279.8880
  13   2.0000     -10.284509      -279.8557
  14   2.0000     -10.279561      -279.7211
  15   2.0000     -10.266420      -279.3635
  16   2.0000      -8.083026      -219.9503
  17   2.0000      -8.081220      -219.9012
  18   2.0000      -6.041399      -164.3948
  19   2.0000      -6.039283      -164.3372
  20   2.0000      -6.037635      -164.2924
  21   2.0000      -6.035169      -164.2253
  22   2.0000      -6.034020      -164.1940
  23   2.0000      -6.032630      -164.1562
  24   2.0000      -1.012807       -27.5599
  25   2.0000      -0.987446       -26.8698
  26   2.0000      -0.911268       -24.7968
  27   2.0000      -0.903673       -24.5902
  28   2.0000      -0.864174       -23.5154
  29   2.0000      -0.856750       -23.3133
  30   2.0000      -0.852795       -23.2057
  31   2.0000      -0.808259       -21.9939
  32   2.0000      -0.783603       -21.3229
  33   2.0000      -0.772380       -21.0175
  34   2.0000      -0.705572       -19.1996
  35   2.0000      -0.696431       -18.9508
  36   2.0000      -0.683717       -18.6049
  37   2.0000      -0.663249       -18.0479
  38   2.0000      -0.646049       -17.5799
  39   2.0000      -0.610137       -16.6027
  40   2.0000      -0.588299       -16.0084
  41   2.0000      -0.573191       -15.5973
  42   2.0000      -0.554078       -15.0772
  43   2.0000      -0.552811       -15.0428
  44   2.0000      -0.544147       -14.8070
  45   2.0000      -0.539627       -14.6840
  46   2.0000      -0.515801       -14.0357
  47   2.0000      -0.511152       -13.9092
  48   2.0000      -0.503264       -13.6945
  49   2.0000      -0.489587       -13.3223
  50   2.0000      -0.485117       -13.2007
  51   2.0000      -0.480826       -13.0839
  52   2.0000      -0.479180       -13.0391
  53   2.0000      -0.463970       -12.6253
  54   2.0000      -0.462016       -12.5721
  55   2.0000      -0.442161       -12.0318
  56   2.0000      -0.436462       -11.8767
  57   2.0000      -0.433662       -11.8005
  58   2.0000      -0.431004       -11.7282
  59   2.0000      -0.428157       -11.6508
  60   2.0000      -0.423344       -11.5198
  61   2.0000      -0.420747       -11.4491
  62   2.0000      -0.397409       -10.8140
  63   2.0000      -0.340701        -9.2709
  64   2.0000      -0.331524        -9.0212
  65   2.0000      -0.312529        -8.5044
  66   2.0000      -0.306159        -8.3310
  67   0.0000       0.040464         1.1011
  68   0.0000       0.052998         1.4422
  69   0.0000       0.109794         2.9876
  70   0.0000       0.124776         3.3953
  71   0.0000       0.129010         3.5106

MULLIKEN ATOMIC CHARGES
-----------------------
   0 S :    0.124217
   1 C :   -0.093212
   2 C :   -0.095934
   3 C :    0.054637
   4 C :   -0.198118
   5 H :    0.014395
   6 C :    0.064990
   7 H :    0.019875
   8 H :    0.037818
   9 C :   -0.045436
  10 H :    0.034925
  11 H :    0.017223
  12 C :   -0.075959
  13 H :    0.052496
  14 H :    0.039649
  15 H :    0.027201
  16 S :    0.150788
  17 C :   -0.103092
  18 C :   -0.072944
  19 C :    0.010967
  20 C :   -0.210216
  21 H :    0.027733
  22 C :    0.056575
  23 H :    0.037611
  24 H :    0.021765
  25 C :   -0.110106
  26 H :    0.031327
  27 H :    0.017808
  28 C :    0.005161
  29 H :    0.018598
  30 H :    0.037526
  31 H :    0.025801
  32 H :    0.016605
  33 H :    0.059327
Sum of atomic charges:   -0.0000000

LOEWDIN ATOMIC CHARGES
----------------------
   0 S :    0.404887
   1 C :   -0.187140
   2 C :   -0.062538
   3 C :   -0.064747
   4 C :   -0.190914
   5 H :    0.034966
   6 C :   -0.026780
   7 H :    0.031096
   8 H :    0.030887
   9 C :   -0.035832
  10 H :    0.028351
  11 H :    0.015897
  12 C :   -0.070010
  13 H :    0.033120
  14 H :    0.029498
  15 H :    0.022979
  16 S :    0.470378
  17 C :   -0.215896
  18 C :   -0.083347
  19 C :   -0.063704
  20 C :   -0.224195
  21 H :    0.033284
  22 C :   -0.033900
  23 H :    0.043018
  24 H :    0.025006
  25 C :   -0.052617
  26 H :    0.029121
  27 H :    0.024441
  28 C :   -0.060503
  29 H :    0.023678
  30 H :    0.023511
  31 H :    0.027945
  32 H :    0.011119
  33 H :    0.028940

  Mayer bond orders larger than 0.100000
B(  0-S ,  1-C ) :   1.1535 B(  0-S ,  4-C ) :   1.1608 B(  1-C ,  2-C ) :   1.5922
B(  1-C ,  4-C ) :   0.1157 B(  1-C , 32-H ) :   0.9740 B(  2-C ,  3-C ) :   1.2575
B(  2-C ,  6-C ) :   1.0043 B(  3-C ,  4-C ) :   1.5955 B(  3-C ,  5-H ) :   0.9865
B(  4-C , 20-C ) :   0.9824 B(  6-C ,  7-H ) :   0.9477 B(  6-C ,  8-H ) :   0.9383
B(  6-C ,  9-C ) :   1.0662 B(  9-C , 10-H ) :   0.9587 B(  9-C , 11-H ) :   0.9562
B(  9-C , 12-C ) :   1.0754 B( 12-C , 13-H ) :   0.9733 B( 12-C , 14-H ) :   0.9729
B( 12-C , 15-H ) :   0.9747 B( 16-S , 17-C ) :   1.2137 B( 16-S , 20-C ) :   1.1902
B( 17-C , 18-C ) :   1.5251 B( 17-C , 20-C ) :   0.1103 B( 17-C , 33-H ) :   0.9722
B( 18-C , 19-C ) :   1.2959 B( 18-C , 21-H ) :   0.9856 B( 19-C , 20-C ) :   1.5370
B( 19-C , 22-C ) :   1.0419 B( 22-C , 23-H ) :   0.9239 B( 22-C , 24-H ) :   0.9460
B( 22-C , 25-C ) :   1.0683 B( 25-C , 26-H ) :   0.9549 B( 25-C , 27-H ) :   0.9484
B( 25-C , 28-C ) :   1.0683 B( 28-C , 29-H ) :   0.9725 B( 28-C , 30-H ) :   0.9787
B( 28-C , 31-H ) :   0.9708

Dispersion correction           -0.015892025
FINAL SINGLE POINT ENERGY     -1339.862562792193

DIPOLE MOMENT
-------------
                                X             Y             Z
Electronic contribution:     -8.66803      -3.33339     -25.07825
Nuclear contribution   :      8.76121       3.58650      25.54661
                        -----------------------------------------
Total Dipole Moment    :      0.09319       0.25311       0.46837
                        -----------------------------------------
Magnitude (a.u.)       :      0.54048
Magnitude (Debye)      :      1.37378

Rotational constants in cm-1:     0.020097     0.009337     0.007763
Rotational constants in MHz :   602.493921   279.910192   232.734282

                             ****ORCA TERMINATED NORMALLY****
TOTAL RUN TIME: 0 days 0 hours 0 minutes 21 seconds 382 msec
