                         Program Version 4.2.1 -  RELEASE  -
|  1> ! wB97X-D3 SP def2-SVP
|  2> %pal
|  3> nprocs 24
|  4> end
|  5>
|  6> * xyz 0 1
|  7> S 	 -60.7752 	 18.1085 	 20.7358
|  8> C 	 -61.0494 	 17.5702 	 22.4371
|  9> C 	 -59.8355 	 17.4646 	 23.0942
| 10> C 	 -58.7425 	 17.8746 	 22.3034
| 11> C 	 -58.9971 	 18.2939 	 20.9929
| 12> H 	 -57.7882 	 18.1097 	 22.7541
| 13> C 	 -59.7635 	 17.1392 	 24.5727
| 14> H 	 -59.0628 	 16.2647 	 24.5444
| 15> H 	 -60.7306 	 16.8865 	 24.9738
| 16> C 	 -59.2714 	 18.2424 	 25.499
| 17> H 	 -58.3012 	 18.5471 	 25.1673
| 18> H 	 -59.8887 	 19.1706 	 25.311
| 19> C 	 -59.1154 	 17.8595 	 26.9976
| 20> H 	 -58.3475 	 17.0471 	 27.0897
| 21> H 	 -58.7807 	 18.7685 	 27.6435
| 22> H 	 -59.9996 	 17.4183 	 27.4848
| 23> S 	 -58.3054 	 20.7876 	 20.133
| 24> C 	 -57.0084 	 20.9552 	 18.989
| 25> C 	 -56.2986 	 19.805 	 18.8909
| 26> C 	 -56.9761 	 18.7183 	 19.4986
| 27> C 	 -58.1519 	 19.1036 	 20.1558
| 28> H 	 -55.3554 	 19.7495 	 18.4306
| 29> C 	 -56.4621 	 17.3366 	 19.3065
| 30> H 	 -56.0008 	 17.2646 	 18.3479
| 31> H 	 -57.3066 	 16.6353 	 19.0948
| 32> C 	 -55.3959 	 16.7323 	 20.2963
| 33> H 	 -55.9909 	 16.7648 	 21.2894
| 34> H 	 -54.5755 	 17.3764 	 20.3723
| 35> C 	 -54.9672 	 15.329 	 19.9758
| 36> H 	 -55.758 	 14.5389 	 19.9262
| 37> H 	 -54.3521 	 15.1852 	 20.8367
| 38> H 	 -54.3896 	 15.3833 	 19.0578
| 39> H 	 -62.002 	 17.3471 	 22.8936
| 40> H 	 -56.6584 	 21.9518 	 18.7096
| 41> *
| 42>
| 43>                          ****END OF INPUT****

CARTESIAN COORDINATES (ANGSTROEM)
---------------------------------
  S    -60.775200   18.108500   20.735800
  C    -61.049400   17.570200   22.437100
  C    -59.835500   17.464600   23.094200
  C    -58.742500   17.874600   22.303400
  C    -58.997100   18.293900   20.992900
  H    -57.788200   18.109700   22.754100
  C    -59.763500   17.139200   24.572700
  H    -59.062800   16.264700   24.544400
  H    -60.730600   16.886500   24.973800
  C    -59.271400   18.242400   25.499000
  H    -58.301200   18.547100   25.167300
  H    -59.888700   19.170600   25.311000
  C    -59.115400   17.859500   26.997600
  H    -58.347500   17.047100   27.089700
  H    -58.780700   18.768500   27.643500
  H    -59.999600   17.418300   27.484800
  S    -58.305400   20.787600   20.133000
  C    -57.008400   20.955200   18.989000
  C    -56.298600   19.805000   18.890900
  C    -56.976100   18.718300   19.498600
  C    -58.151900   19.103600   20.155800
  H    -55.355400   19.749500   18.430600
  C    -56.462100   17.336600   19.306500
  H    -56.000800   17.264600   18.347900
  H    -57.306600   16.635300   19.094800
  C    -55.395900   16.732300   20.296300
  H    -55.990900   16.764800   21.289400
  H    -54.575500   17.376400   20.372300
  C    -54.967200   15.329000   19.975800
  H    -55.758000   14.538900   19.926200
  H    -54.352100   15.185200   20.836700
  H    -54.389600   15.383300   19.057800
  H    -62.002000   17.347100   22.893600
  H    -56.658400   21.951800   18.709600

 Total Charge           Charge          ....    0
 Multiplicity           Mult            ....    1
 Number of Electrons    NEL             ....  134
 Basis Dimension        Dim             ....  322

ORBITAL ENERGIES
----------------

  NO   OCC          E(Eh)            E(eV)
   0   2.0000     -88.964235     -2420.8399
   1   2.0000     -88.963789     -2420.8278
   2   2.0000     -10.334373      -281.2126
   3   2.0000     -10.321131      -280.8523
   4   2.0000     -10.320063      -280.8232
   5   2.0000     -10.314131      -280.6618
   6   2.0000     -10.300915      -280.3022
   7   2.0000     -10.298549      -280.2378
   8   2.0000     -10.296861      -280.1918
   9   2.0000     -10.295534      -280.1557
  10   2.0000     -10.294888      -280.1382
  11   2.0000     -10.291623      -280.0493
  12   2.0000     -10.287721      -279.9431
  13   2.0000     -10.287094      -279.9260
  14   2.0000     -10.282850      -279.8106
  15   2.0000     -10.278030      -279.6794
  16   2.0000      -8.080058      -219.8695
  17   2.0000      -8.077249      -219.7931
  18   2.0000      -6.038362      -164.3122
  19   2.0000      -6.035867      -164.2443
  20   2.0000      -6.034413      -164.2047
  21   2.0000      -6.031947      -164.1376
  22   2.0000      -6.030861      -164.1081
  23   2.0000      -6.028010      -164.0305
  24   2.0000      -1.011916       -27.5356
  25   2.0000      -0.981335       -26.7035
  26   2.0000      -0.910937       -24.7878
  27   2.0000      -0.908158       -24.7122
  28   2.0000      -0.872980       -23.7550
  29   2.0000      -0.857933       -23.3455
  30   2.0000      -0.840971       -22.8840
  31   2.0000      -0.816890       -22.2287
  32   2.0000      -0.780937       -21.2504
  33   2.0000      -0.768291       -20.9063
  34   2.0000      -0.710028       -19.3208
  35   2.0000      -0.696164       -18.9436
  36   2.0000      -0.690869       -18.7995
  37   2.0000      -0.665295       -18.1036
  38   2.0000      -0.639996       -17.4152
  39   2.0000      -0.621875       -16.9221
  40   2.0000      -0.601584       -16.3699
  41   2.0000      -0.569183       -15.4883
  42   2.0000      -0.563466       -15.3327
  43   2.0000      -0.561122       -15.2689
  44   2.0000      -0.533404       -14.5147
  45   2.0000      -0.522644       -14.2219
  46   2.0000      -0.513907       -13.9841
  47   2.0000      -0.507729       -13.8160
  48   2.0000      -0.504293       -13.7225
  49   2.0000      -0.503340       -13.6966
  50   2.0000      -0.497222       -13.5301
  51   2.0000      -0.480561       -13.0767
  52   2.0000      -0.473730       -12.8908
  53   2.0000      -0.470732       -12.8093
  54   2.0000      -0.455406       -12.3922
  55   2.0000      -0.447564       -12.1788
  56   2.0000      -0.442916       -12.0524
  57   2.0000      -0.437796       -11.9130
  58   2.0000      -0.432701       -11.7744
  59   2.0000      -0.420828       -11.4513
  60   2.0000      -0.419924       -11.4267
  61   2.0000      -0.409729       -11.1493
  62   2.0000      -0.403553       -10.9812
  63   2.0000      -0.342652        -9.3240
  64   2.0000      -0.326901        -8.8954
  65   2.0000      -0.322466        -8.7747
  66   2.0000      -0.303212        -8.2508
  67   0.0000       0.028869         0.7856
  68   0.0000       0.059431         1.6172
  69   0.0000       0.117771         3.2047
  70   0.0000       0.120293         3.2733
  71   0.0000       0.126294         3.4366

MULLIKEN ATOMIC CHARGES
-----------------------
   0 S :    0.088792
   1 C :   -0.121874
   2 C :   -0.084397
   3 C :    0.046284
   4 C :   -0.176167
   5 H :    0.021346
   6 C :    0.066495
   7 H :    0.041006
   8 H :    0.012453
   9 C :   -0.069626
  10 H :    0.014820
  11 H :    0.039426
  12 C :   -0.088916
  13 H :    0.035340
  14 H :    0.057808
  15 H :    0.036118
  16 S :    0.122686
  17 C :   -0.090352
  18 C :   -0.007027
  19 C :   -0.022800
  20 C :   -0.146369
  21 H :    0.003002
  22 C :    0.038041
  23 H :   -0.006305
  24 H :    0.029295
  25 C :   -0.088694
  26 H :    0.031268
  27 H :    0.015650
  28 C :   -0.022415
  29 H :    0.047722
  30 H :    0.034511
  31 H :    0.033331
  32 H :    0.048995
  33 H :    0.060557
Sum of atomic charges:   -0.0000000

LOEWDIN ATOMIC CHARGES
----------------------
   0 S :    0.361003
   1 C :   -0.172120
   2 C :   -0.070525
   3 C :   -0.055646
   4 C :   -0.180241
   5 H :    0.028563
   6 C :   -0.030332
   7 H :    0.038357
   8 H :    0.025657
   9 C :   -0.047673
  10 H :    0.016777
  11 H :    0.031879
  12 C :   -0.077340
  13 H :    0.028968
  14 H :    0.041069
  15 H :    0.022737
  16 S :    0.442070
  17 C :   -0.185919
  18 C :   -0.062134
  19 C :   -0.054568
  20 C :   -0.228141
  21 H :    0.026229
  22 C :   -0.047683
  23 H :    0.020145
  24 H :    0.037400
  25 C :   -0.035004
  26 H :    0.028235
  27 H :    0.014243
  28 C :   -0.062916
  29 H :    0.033196
  30 H :    0.030377
  31 H :    0.025272
  32 H :    0.028911
  33 H :    0.029152

  Mayer bond orders larger than 0.100000
B(  0-S ,  1-C ) :   1.1344 B(  0-S ,  4-C ) :   1.1311 B(  1-C ,  2-C ) :   1.6056
B(  1-C ,  4-C ) :   0.1020 B(  1-C , 32-H ) :   0.9684 B(  2-C ,  3-C ) :   1.2522
B(  2-C ,  6-C ) :   1.0242 B(  3-C ,  4-C ) :   1.5829 B(  3-C ,  5-H ) :   0.9796
B(  4-C , 20-C ) :   1.0425 B(  6-C ,  7-H ) :   0.9334 B(  6-C ,  8-H ) :   0.9445
B(  6-C ,  9-C ) :   1.0647 B(  9-C , 10-H ) :   0.9517 B(  9-C , 11-H ) :   0.9539
B(  9-C , 12-C ) :   1.0720 B( 12-C , 13-H ) :   0.9738 B( 12-C , 14-H ) :   0.9738
B( 12-C , 15-H ) :   0.9775 B( 16-S , 17-C ) :   1.1698 B( 16-S , 20-C ) :   1.1665
B( 17-C , 18-C ) :   1.5784 B( 17-C , 33-H ) :   0.9655 B( 18-C , 19-C ) :   1.2749
B( 18-C , 21-H ) :   1.0001 B( 19-C , 20-C ) :   1.5517 B( 19-C , 22-C ) :   1.0562
B( 22-C , 23-H ) :   0.9299 B( 22-C , 24-H ) :   0.9328 B( 22-C , 25-C ) :   1.0486
B( 25-C , 26-H ) :   0.9543 B( 25-C , 27-H ) :   0.9546 B( 25-C , 28-C ) :   1.0761
B( 28-C , 29-H ) :   0.9741 B( 28-C , 30-H ) :   0.9727 B( 28-C , 31-H ) :   0.9726

Dispersion correction           -0.013893521
FINAL SINGLE POINT ENERGY     -1339.863451961124

DIPOLE MOMENT
-------------
                                X             Y             Z
Electronic contribution:    -13.77893      14.90631     -17.31000
Nuclear contribution   :     14.33754     -15.01429      17.76552
                        -----------------------------------------
Total Dipole Moment    :      0.55862      -0.10798       0.45552
                        -----------------------------------------
Magnitude (a.u.)       :      0.72884
Magnitude (Debye)      :      1.85256

Rotational constants in cm-1:     0.016248     0.008305     0.007038
Rotational constants in MHz :   487.103396   248.992512   211.000052

                             ****ORCA TERMINATED NORMALLY****
TOTAL RUN TIME: 0 days 0 hours 0 minutes 21 seconds 98 msec
