                         Program Version 4.2.1 -  RELEASE  -
|  1> ! wB97X-D3 SP def2-SVP
|  2> %pal
|  3> nprocs 24
|  4> end
|  5>
|  6> * xyz 0 1
|  7> S 	 -35.9977 	 9.46655 	 -0.5216
|  8> C 	 -36.1274 	 7.95806 	 -1.41655
|  9> C 	 -34.8757 	 7.33137 	 -1.49271
| 10> C 	 -33.8718 	 8.29476 	 -1.24615
| 11> C 	 -34.2892 	 9.53703 	 -0.816501
| 12> H 	 -32.732 	 8.206 	 -1.34047
| 13> C 	 -34.714 	 5.88335 	 -1.78758
| 14> H 	 -35.1937 	 5.21822 	 -1.04198
| 15> H 	 -33.6654 	 5.59112 	 -1.69424
| 16> C 	 -35.4171 	 5.49326 	 -3.10132
| 17> H 	 -36.5315 	 5.36196 	 -2.98896
| 18> H 	 -35.3911 	 6.30028 	 -3.83773
| 19> C 	 -34.7867 	 4.27909 	 -3.63724
| 20> H 	 -34.9674 	 3.33026 	 -3.08018
| 21> H 	 -35.124 	 4.16048 	 -4.6319
| 22> H 	 -33.7408 	 4.42007 	 -3.70994
| 23> S 	 -34.0332 	 11.8588 	 0.788746
| 24> C 	 -32.6729 	 12.8492 	 0.460016
| 25> C 	 -31.9527 	 12.4067 	 -0.577546
| 26> C 	 -32.4373 	 11.2028 	 -1.20034
| 27> C 	 -33.5059 	 10.6992 	 -0.479586
| 28> H 	 -31.1072 	 13.0043 	 -0.78671
| 29> C 	 -31.9685 	 10.6931 	 -2.52748
| 30> H 	 -31.652 	 9.73932 	 -2.39772
| 31> H 	 -31.0802 	 11.1532 	 -2.9358
| 32> C 	 -33.104 	 10.7442 	 -3.63429
| 33> H 	 -33.5609 	 11.7198 	 -3.6246
| 34> H 	 -33.9591 	 10.0617 	 -3.35908
| 35> C 	 -32.5574 	 10.5786 	 -5.07123
| 36> H 	 -32.2845 	 9.51246 	 -5.23661
| 37> H 	 -31.676 	 11.1905 	 -5.24497
| 38> H 	 -33.3254 	 10.7794 	 -5.83425
| 39> H 	 -37.0895 	 7.44953 	 -1.66929
| 40> H 	 -32.3599 	 13.7112 	 1.04612
| 41> *
| 42>
| 43>                          ****END OF INPUT****

CARTESIAN COORDINATES (ANGSTROEM)
---------------------------------
  S    -35.997700    9.466550   -0.521600
  C    -36.127400    7.958060   -1.416550
  C    -34.875700    7.331370   -1.492710
  C    -33.871800    8.294760   -1.246150
  C    -34.289200    9.537030   -0.816501
  H    -32.732000    8.206000   -1.340470
  C    -34.714000    5.883350   -1.787580
  H    -35.193700    5.218220   -1.041980
  H    -33.665400    5.591120   -1.694240
  C    -35.417100    5.493260   -3.101320
  H    -36.531500    5.361960   -2.988960
  H    -35.391100    6.300280   -3.837730
  C    -34.786700    4.279090   -3.637240
  H    -34.967400    3.330260   -3.080180
  H    -35.124000    4.160480   -4.631900
  H    -33.740800    4.420070   -3.709940
  S    -34.033200   11.858800    0.788746
  C    -32.672900   12.849200    0.460016
  C    -31.952700   12.406700   -0.577546
  C    -32.437300   11.202800   -1.200340
  C    -33.505900   10.699200   -0.479586
  H    -31.107200   13.004300   -0.786710
  C    -31.968500   10.693100   -2.527480
  H    -31.652000    9.739320   -2.397720
  H    -31.080200   11.153200   -2.935800
  C    -33.104000   10.744200   -3.634290
  H    -33.560900   11.719800   -3.624600
  H    -33.959100   10.061700   -3.359080
  C    -32.557400   10.578600   -5.071230
  H    -32.284500    9.512460   -5.236610
  H    -31.676000   11.190500   -5.244970
  H    -33.325400   10.779400   -5.834250
  H    -37.089500    7.449530   -1.669290
  H    -32.359900   13.711200    1.046120

 Total Charge           Charge          ....    0
 Multiplicity           Mult            ....    1
 Number of Electrons    NEL             ....  134
 Basis Dimension        Dim             ....  322

ORBITAL ENERGIES
----------------

  NO   OCC          E(Eh)            E(eV)
   0   2.0000     -88.964323     -2420.8423
   1   2.0000     -88.964109     -2420.8365
   2   2.0000     -10.327479      -281.0250
   3   2.0000     -10.324965      -280.9566
   4   2.0000     -10.316222      -280.7187
   5   2.0000     -10.309453      -280.5345
   6   2.0000     -10.303558      -280.3741
   7   2.0000     -10.302983      -280.3584
   8   2.0000     -10.297204      -280.2012
   9   2.0000     -10.293562      -280.1021
  10   2.0000     -10.288408      -279.9618
  11   2.0000     -10.285596      -279.8853
  12   2.0000     -10.284845      -279.8649
  13   2.0000     -10.284440      -279.8538
  14   2.0000     -10.279557      -279.7210
  15   2.0000     -10.270434      -279.4727
  16   2.0000      -8.079183      -219.8458
  17   2.0000      -8.078994      -219.8406
  18   2.0000      -6.037778      -164.2963
  19   2.0000      -6.037458      -164.2876
  20   2.0000      -6.033886      -164.1904
  21   2.0000      -6.033696      -164.1852
  22   2.0000      -6.029647      -164.0750
  23   2.0000      -6.029583      -164.0733
  24   2.0000      -1.009746       -27.4766
  25   2.0000      -0.987308       -26.8660
  26   2.0000      -0.922265       -25.0961
  27   2.0000      -0.905922       -24.6514
  28   2.0000      -0.873592       -23.7717
  29   2.0000      -0.852005       -23.1842
  30   2.0000      -0.844167       -22.9710
  31   2.0000      -0.816464       -22.2171
  32   2.0000      -0.786641       -21.4056
  33   2.0000      -0.770748       -20.9731
  34   2.0000      -0.709547       -19.3078
  35   2.0000      -0.702742       -19.1226
  36   2.0000      -0.691430       -18.8148
  37   2.0000      -0.659997       -17.9594
  38   2.0000      -0.637002       -17.3337
  39   2.0000      -0.614937       -16.7333
  40   2.0000      -0.598655       -16.2902
  41   2.0000      -0.573608       -15.6087
  42   2.0000      -0.564014       -15.3476
  43   2.0000      -0.558681       -15.2025
  44   2.0000      -0.531227       -14.4554
  45   2.0000      -0.525167       -14.2905
  46   2.0000      -0.521442       -14.1892
  47   2.0000      -0.515627       -14.0309
  48   2.0000      -0.500918       -13.6307
  49   2.0000      -0.498167       -13.5558
  50   2.0000      -0.489852       -13.3295
  51   2.0000      -0.483396       -13.1539
  52   2.0000      -0.471257       -12.8236
  53   2.0000      -0.468394       -12.7456
  54   2.0000      -0.458787       -12.4842
  55   2.0000      -0.450570       -12.2606
  56   2.0000      -0.446938       -12.1618
  57   2.0000      -0.439513       -11.9598
  58   2.0000      -0.429342       -11.6830
  59   2.0000      -0.428140       -11.6503
  60   2.0000      -0.418422       -11.3858
  61   2.0000      -0.413555       -11.2534
  62   2.0000      -0.409339       -11.1387
  63   2.0000      -0.355554        -9.6751
  64   2.0000      -0.331999        -9.0342
  65   2.0000      -0.324643        -8.8340
  66   2.0000      -0.278793        -7.5863
  67   0.0000       0.021523         0.5857
  68   0.0000       0.070540         1.9195
  69   0.0000       0.103873         2.8265
  70   0.0000       0.119026         3.2389
  71   0.0000       0.137825         3.7504

MULLIKEN ATOMIC CHARGES
-----------------------
   0 S :    0.109737
   1 C :   -0.149558
   2 C :   -0.056015
   3 C :   -0.026486
   4 C :   -0.164552
   5 H :    0.033868
   6 C :    0.073657
   7 H :    0.041929
   8 H :    0.020412
   9 C :   -0.122063
  10 H :    0.036371
  11 H :    0.033240
  12 C :   -0.001616
  13 H :    0.036158
  14 H :    0.015806
  15 H :    0.017034
  16 S :    0.098651
  17 C :   -0.088659
  18 C :   -0.018481
  19 C :   -0.055685
  20 C :   -0.125686
  21 H :   -0.002721
  22 C :    0.149995
  23 H :   -0.013967
  24 H :    0.001713
  25 C :   -0.104015
  26 H :    0.029344
  27 H :    0.063937
  28 C :   -0.054377
  29 H :    0.027832
  30 H :    0.032965
  31 H :    0.040165
  32 H :    0.064173
  33 H :    0.056894
Sum of atomic charges:   -0.0000000

LOEWDIN ATOMIC CHARGES
----------------------
   0 S :    0.405919
   1 C :   -0.202298
   2 C :   -0.062003
   3 C :   -0.078426
   4 C :   -0.198086
   5 H :    0.042019
   6 C :   -0.034446
   7 H :    0.041475
   8 H :    0.029605
   9 C :   -0.044093
  10 H :    0.028402
  11 H :    0.023493
  12 C :   -0.061151
  13 H :    0.030493
  14 H :    0.021971
  15 H :    0.020057
  16 S :    0.387055
  17 C :   -0.191129
  18 C :   -0.071755
  19 C :   -0.048004
  20 C :   -0.180242
  21 H :    0.026375
  22 C :   -0.023662
  23 H :    0.012913
  24 H :    0.029612
  25 C :   -0.037967
  26 H :    0.021981
  27 H :    0.035129
  28 C :   -0.069851
  29 H :    0.025154
  30 H :    0.022937
  31 H :    0.029732
  32 H :    0.033917
  33 H :    0.034875

  Mayer bond orders larger than 0.100000
B(  0-S ,  1-C ) :   1.1484 B(  0-S ,  4-C ) :   1.1404 B(  1-C ,  2-C ) :   1.5581
B(  1-C ,  4-C ) :   0.1092 B(  1-C , 32-H ) :   0.9689 B(  2-C ,  3-C ) :   1.2549
B(  2-C ,  6-C ) :   1.0370 B(  3-C ,  4-C ) :   1.5554 B(  3-C ,  5-H ) :   0.9816
B(  4-C , 20-C ) :   1.0937 B(  6-C ,  7-H ) :   0.9269 B(  6-C ,  8-H ) :   0.9545
B(  6-C ,  9-C ) :   1.0416 B(  9-C , 10-H ) :   0.9451 B(  9-C , 11-H ) :   0.9635
B(  9-C , 12-C ) :   1.1013 B( 12-C , 13-H ) :   0.9691 B( 12-C , 14-H ) :   0.9670
B( 12-C , 15-H ) :   0.9736 B( 16-S , 17-C ) :   1.1349 B( 16-S , 20-C ) :   1.1155
B( 17-C , 18-C ) :   1.6656 B( 17-C , 33-H ) :   0.9604 B( 18-C , 19-C ) :   1.2019
B( 18-C , 21-H ) :   0.9992 B( 19-C , 20-C ) :   1.6003 B( 19-C , 22-C ) :   1.0528
B( 22-C , 23-H ) :   0.9125 B( 22-C , 24-H ) :   0.9313 B( 22-C , 25-C ) :   1.0430
B( 25-C , 26-H ) :   0.9600 B( 25-C , 27-H ) :   0.9514 B( 25-C , 28-C ) :   1.0839
B( 28-C , 29-H ) :   0.9759 B( 28-C , 30-H ) :   0.9740 B( 28-C , 31-H ) :   0.9748

Dispersion correction           -0.014525756
FINAL SINGLE POINT ENERGY     -1339.861368885779

DIPOLE MOMENT
-------------
                                X             Y             Z
Electronic contribution:     -6.77902      18.13240      24.28509
Nuclear contribution   :      7.14178     -18.48891     -24.75277
                        -----------------------------------------
Total Dipole Moment    :      0.36276      -0.35651      -0.46768
                        -----------------------------------------
Magnitude (a.u.)       :      0.69095
Magnitude (Debye)      :      1.75627

Rotational constants in cm-1:     0.021135     0.008489     0.006714
Rotational constants in MHz :   633.622572   254.502372   201.285444

                             ****ORCA TERMINATED NORMALLY****
TOTAL RUN TIME: 0 days 0 hours 0 minutes 22 seconds 499 msec
