                         Program Version 4.2.1 -  RELEASE  -
|  1> ! wB97X-D3 SP def2-SVP
|  2> %pal
|  3> nprocs 24
|  4> end
|  5>
|  6> * xyz 0 1
|  7> S 	 -49.6787 	 5.26613 	 -20.8752
|  8> C 	 -50.6054 	 3.82968 	 -20.8484
|  9> C 	 -51.3442 	 3.6861 	 -19.7024
| 10> C 	 -50.9303 	 4.66051 	 -18.7066
| 11> C 	 -49.9409 	 5.48464 	 -19.1496
| 12> H 	 -51.2595 	 4.80023 	 -17.6797
| 13> C 	 -52.3521 	 2.54779 	 -19.4847
| 14> H 	 -52.053 	 1.60721 	 -20.0117
| 15> H 	 -53.3853 	 2.79291 	 -19.9029
| 16> C 	 -52.4073 	 2.11709 	 -17.9946
| 17> H 	 -51.4175 	 1.91527 	 -17.6235
| 18> H 	 -52.6911 	 3.01744 	 -17.4147
| 19> C 	 -53.2222 	 0.857171 	 -17.8408
| 20> H 	 -53.3852 	 0.470755 	 -16.8124
| 21> H 	 -54.1984 	 0.91297 	 -18.3897
| 22> H 	 -52.7789 	 0.0916985 	 -18.4358
| 23> S 	 -49.2883 	 8.1592 	 -19.398
| 24> C 	 -49.0398 	 9.11328 	 -17.966
| 25> C 	 -48.9544 	 8.30929 	 -16.8424
| 26> C 	 -49.3016 	 6.94456 	 -17.1146
| 27> C 	 -49.5427 	 6.68471 	 -18.4466
| 28> H 	 -48.7862 	 8.73987 	 -15.8457
| 29> C 	 -49.2607 	 5.97266 	 -15.9558
| 30> H 	 -50.175 	 5.51779 	 -15.9784
| 31> H 	 -49.1672 	 6.55639 	 -14.9449
| 32> C 	 -48.1788 	 4.86748 	 -15.9425
| 33> H 	 -48.3868 	 4.11667 	 -16.6587
| 34> H 	 -48.0651 	 4.35015 	 -15.021
| 35> C 	 -46.8007 	 5.4431 	 -16.3468
| 36> H 	 -46.501 	 6.19834 	 -15.6537
| 37> H 	 -46.7948 	 5.90751 	 -17.356
| 38> H 	 -45.9534 	 4.72212 	 -16.2917
| 39> H 	 -50.6173 	 3.10654 	 -21.6304
| 40> H 	 -49.2216 	 10.2239 	 -17.8409
| 41> *
| 42>
| 43>                          ****END OF INPUT****

CARTESIAN COORDINATES (ANGSTROEM)
---------------------------------
  S    -49.678700    5.266130  -20.875200
  C    -50.605400    3.829680  -20.848400
  C    -51.344200    3.686100  -19.702400
  C    -50.930300    4.660510  -18.706600
  C    -49.940900    5.484640  -19.149600
  H    -51.259500    4.800230  -17.679700
  C    -52.352100    2.547790  -19.484700
  H    -52.053000    1.607210  -20.011700
  H    -53.385300    2.792910  -19.902900
  C    -52.407300    2.117090  -17.994600
  H    -51.417500    1.915270  -17.623500
  H    -52.691100    3.017440  -17.414700
  C    -53.222200    0.857171  -17.840800
  H    -53.385200    0.470755  -16.812400
  H    -54.198400    0.912970  -18.389700
  H    -52.778900    0.091699  -18.435800
  S    -49.288300    8.159200  -19.398000
  C    -49.039800    9.113280  -17.966000
  C    -48.954400    8.309290  -16.842400
  C    -49.301600    6.944560  -17.114600
  C    -49.542700    6.684710  -18.446600
  H    -48.786200    8.739870  -15.845700
  C    -49.260700    5.972660  -15.955800
  H    -50.175000    5.517790  -15.978400
  H    -49.167200    6.556390  -14.944900
  C    -48.178800    4.867480  -15.942500
  H    -48.386800    4.116670  -16.658700
  H    -48.065100    4.350150  -15.021000
  C    -46.800700    5.443100  -16.346800
  H    -46.501000    6.198340  -15.653700
  H    -46.794800    5.907510  -17.356000
  H    -45.953400    4.722120  -16.291700
  H    -50.617300    3.106540  -21.630400
  H    -49.221600   10.223900  -17.840900

 Total Charge           Charge          ....    0
 Multiplicity           Mult            ....    1
 Number of Electrons    NEL             ....  134
 Basis Dimension        Dim             ....  322

ORBITAL ENERGIES
----------------

  NO   OCC          E(Eh)            E(eV)
   0   2.0000     -88.967085     -2420.9175
   1   2.0000     -88.966491     -2420.9013
   2   2.0000     -10.329891      -281.0906
   3   2.0000     -10.329068      -281.0682
   4   2.0000     -10.319334      -280.8033
   5   2.0000     -10.310143      -280.5532
   6   2.0000     -10.306418      -280.4519
   7   2.0000     -10.304768      -280.4070
   8   2.0000     -10.302698      -280.3507
   9   2.0000     -10.297896      -280.2200
  10   2.0000     -10.294758      -280.1346
  11   2.0000     -10.293610      -280.1034
  12   2.0000     -10.288308      -279.9591
  13   2.0000     -10.281845      -279.7832
  14   2.0000     -10.279248      -279.7126
  15   2.0000     -10.270153      -279.4651
  16   2.0000      -8.082661      -219.9404
  17   2.0000      -8.081103      -219.8980
  18   2.0000      -6.041197      -164.3893
  19   2.0000      -6.039786      -164.3509
  20   2.0000      -6.037276      -164.2826
  21   2.0000      -6.035645      -164.2382
  22   2.0000      -6.033113      -164.1694
  23   2.0000      -6.031676      -164.1302
  24   2.0000      -1.012856       -27.5612
  25   2.0000      -0.987484       -26.8708
  26   2.0000      -0.913179       -24.8489
  27   2.0000      -0.907400       -24.6916
  28   2.0000      -0.876249       -23.8440
  29   2.0000      -0.852723       -23.2038
  30   2.0000      -0.843086       -22.9415
  31   2.0000      -0.815288       -22.1851
  32   2.0000      -0.780518       -21.2390
  33   2.0000      -0.770841       -20.9756
  34   2.0000      -0.715252       -19.4630
  35   2.0000      -0.701016       -19.0756
  36   2.0000      -0.686949       -18.6928
  37   2.0000      -0.664916       -18.0933
  38   2.0000      -0.643285       -17.5047
  39   2.0000      -0.620720       -16.8906
  40   2.0000      -0.585439       -15.9306
  41   2.0000      -0.566956       -15.4277
  42   2.0000      -0.563204       -15.3256
  43   2.0000      -0.555928       -15.1276
  44   2.0000      -0.549847       -14.9621
  45   2.0000      -0.526322       -14.3219
  46   2.0000      -0.516452       -14.0534
  47   2.0000      -0.508602       -13.8398
  48   2.0000      -0.505645       -13.7593
  49   2.0000      -0.492523       -13.4022
  50   2.0000      -0.489108       -13.3093
  51   2.0000      -0.478346       -13.0164
  52   2.0000      -0.474354       -12.9078
  53   2.0000      -0.467741       -12.7279
  54   2.0000      -0.459749       -12.5104
  55   2.0000      -0.451372       -12.2824
  56   2.0000      -0.440787       -11.9944
  57   2.0000      -0.437716       -11.9109
  58   2.0000      -0.432399       -11.7662
  59   2.0000      -0.425736       -11.5849
  60   2.0000      -0.420441       -11.4408
  61   2.0000      -0.413062       -11.2400
  62   2.0000      -0.409968       -11.1558
  63   2.0000      -0.364117        -9.9081
  64   2.0000      -0.335091        -9.1183
  65   2.0000      -0.327910        -8.9229
  66   2.0000      -0.283364        -7.7107
  67   0.0000       0.024088         0.6555
  68   0.0000       0.065585         1.7846
  69   0.0000       0.101102         2.7511
  70   0.0000       0.118528         3.2253
  71   0.0000       0.133190         3.6243

MULLIKEN ATOMIC CHARGES
-----------------------
   0 S :    0.103085
   1 C :   -0.098402
   2 C :   -0.048869
   3 C :   -0.019232
   4 C :   -0.101038
   5 H :    0.016136
   6 C :    0.005792
   7 H :    0.029251
   8 H :    0.058831
   9 C :   -0.097038
  10 H :    0.029530
  11 H :    0.039644
  12 C :   -0.024296
  13 H :    0.048135
  14 H :    0.022291
  15 H :    0.014107
  16 S :    0.097928
  17 C :   -0.115457
  18 C :   -0.043483
  19 C :   -0.086663
  20 C :   -0.139366
  21 H :    0.027607
  22 C :    0.089455
  23 H :   -0.000983
  24 H :    0.034863
  25 C :   -0.028645
  26 H :    0.022707
  27 H :    0.024204
  28 C :   -0.080448
  29 H :    0.012698
  30 H :    0.053982
  31 H :    0.030695
  32 H :    0.035954
  33 H :    0.087028
Sum of atomic charges:    0.0000000

LOEWDIN ATOMIC CHARGES
----------------------
   0 S :    0.408351
   1 C :   -0.195923
   2 C :   -0.060360
   3 C :   -0.061170
   4 C :   -0.186806
   5 H :    0.031784
   6 C :   -0.035356
   7 H :    0.031998
   8 H :    0.040194
   9 C :   -0.048205
  10 H :    0.023509
  11 H :    0.023026
  12 C :   -0.070689
  13 H :    0.031563
  14 H :    0.029175
  15 H :    0.021660
  16 S :    0.395890
  17 C :   -0.205774
  18 C :   -0.071654
  19 C :   -0.064339
  20 C :   -0.183144
  21 H :    0.034287
  22 C :   -0.026081
  23 H :    0.012690
  24 H :    0.041610
  25 C :   -0.033510
  26 H :    0.019010
  27 H :    0.022541
  28 C :   -0.070559
  29 H :    0.015340
  30 H :    0.031795
  31 H :    0.026274
  32 H :    0.023717
  33 H :    0.049155

  Mayer bond orders larger than 0.100000
B(  0-S ,  1-C ) :   1.1376 B(  0-S ,  4-C ) :   1.1334 B(  1-C ,  2-C ) :   1.6311
B(  1-C , 32-H ) :   0.9733 B(  2-C ,  3-C ) :   1.2194 B(  2-C ,  6-C ) :   1.0099
B(  3-C ,  4-C ) :   1.5810 B(  3-C ,  5-H ) :   0.9915 B(  4-C , 20-C ) :   1.0717
B(  6-C ,  7-H ) :   0.9540 B(  6-C ,  8-H ) :   0.9350 B(  6-C ,  9-C ) :   1.0602
B(  9-C , 10-H ) :   0.9591 B(  9-C , 11-H ) :   0.9479 B(  9-C , 12-C ) :   1.0816
B( 12-C , 13-H ) :   0.9725 B( 12-C , 14-H ) :   0.9699 B( 12-C , 15-H ) :   0.9675
B( 16-S , 17-C ) :   1.1534 B( 16-S , 20-C ) :   1.1201 B( 17-C , 18-C ) :   1.6148
B( 17-C , 33-H ) :   0.9539 B( 18-C , 19-C ) :   1.2515 B( 18-C , 21-H ) :   0.9836
B( 19-C , 20-C ) :   1.5999 B( 19-C , 22-C ) :   1.0326 B( 22-C , 23-H ) :   0.9250
B( 22-C , 24-H ) :   0.9387 B( 22-C , 25-C ) :   1.0730 B( 25-C , 26-H ) :   0.9513
B( 25-C , 27-H ) :   0.9577 B( 25-C , 28-C ) :   1.0818 B( 28-C , 29-H ) :   0.9779
B( 28-C , 30-H ) :   0.9695 B( 28-C , 31-H ) :   0.9755

Dispersion correction           -0.014769106
FINAL SINGLE POINT ENERGY     -1339.867996828238

DIPOLE MOMENT
-------------
                                X             Y             Z
Electronic contribution:      4.60402      20.49542     -18.26945
Nuclear contribution   :     -4.94772     -20.91243      18.75327
                        -----------------------------------------
Total Dipole Moment    :     -0.34370      -0.41701       0.48382
                        -----------------------------------------
Magnitude (a.u.)       :      0.72533
Magnitude (Debye)      :      1.84365

Rotational constants in cm-1:     0.019640     0.008853     0.007104
Rotational constants in MHz :   588.799851   265.416612   212.983392

                             ****ORCA TERMINATED NORMALLY****
TOTAL RUN TIME: 0 days 0 hours 0 minutes 21 seconds 90 msec
