                         Program Version 4.2.1 -  RELEASE  -
|  1> ! wB97X-D3 SP def2-SVP
|  2> %pal
|  3> nprocs 24
|  4> end
|  5>
|  6> * xyz 0 1
|  7> S 	 -51.6506 	 -50.351 	 -75.4049
|  8> C 	 -53.0319 	 -49.5634 	 -74.8092
|  9> C 	 -53.1033 	 -48.2163 	 -75.0312
| 10> C 	 -51.9239 	 -47.7423 	 -75.6544
| 11> C 	 -51.0284 	 -48.7902 	 -76.0141
| 12> H 	 -51.6863 	 -46.6907 	 -75.9356
| 13> C 	 -54.249 	 -47.2473 	 -74.6495
| 14> H 	 -53.7041 	 -46.2941 	 -74.4016
| 15> H 	 -54.7242 	 -47.5356 	 -73.7147
| 16> C 	 -55.3054 	 -47.0541 	 -75.747
| 17> H 	 -54.8127 	 -46.8413 	 -76.7164
| 18> H 	 -55.9828 	 -47.9428 	 -75.7073
| 19> C 	 -56.1856 	 -45.8303 	 -75.524
| 20> H 	 -55.6588 	 -44.9236 	 -75.5744
| 21> H 	 -56.8796 	 -45.7429 	 -76.3533
| 22> H 	 -56.696 	 -45.7822 	 -74.654
| 23> S 	 -48.4342 	 -49.7885 	 -76.447
| 24> C 	 -47.4056 	 -49.0244 	 -77.5872
| 25> C 	 -48.1327 	 -48.065 	 -78.3078
| 26> C 	 -49.4739 	 -47.887 	 -77.9074
| 27> C 	 -49.8427 	 -48.681 	 -76.8566
| 28> H 	 -47.6764 	 -47.5547 	 -79.2017
| 29> C 	 -50.4324 	 -47.0101 	 -78.8588
| 30> H 	 -49.9194 	 -46.0338 	 -79.0321
| 31> H 	 -51.3315 	 -46.8264 	 -78.2675
| 32> C 	 -50.7939 	 -47.5661 	 -80.2636
| 33> H 	 -49.8481 	 -47.844 	 -80.6755
| 34> H 	 -51.2581 	 -46.7946 	 -80.8143
| 35> C 	 -51.5007 	 -48.8944 	 -80.2385
| 36> H 	 -52.492 	 -48.9145 	 -79.7117
| 37> H 	 -50.9027 	 -49.6994 	 -79.759
| 38> H 	 -51.5535 	 -49.3237 	 -81.2333
| 39> H 	 -53.8525 	 -49.9805 	 -74.2356
| 40> H 	 -46.4236 	 -49.4007 	 -77.9523
| 41> *
| 42>
| 43>                          ****END OF INPUT****

CARTESIAN COORDINATES (ANGSTROEM)
---------------------------------
  S    -51.650600  -50.351000  -75.404900
  C    -53.031900  -49.563400  -74.809200
  C    -53.103300  -48.216300  -75.031200
  C    -51.923900  -47.742300  -75.654400
  C    -51.028400  -48.790200  -76.014100
  H    -51.686300  -46.690700  -75.935600
  C    -54.249000  -47.247300  -74.649500
  H    -53.704100  -46.294100  -74.401600
  H    -54.724200  -47.535600  -73.714700
  C    -55.305400  -47.054100  -75.747000
  H    -54.812700  -46.841300  -76.716400
  H    -55.982800  -47.942800  -75.707300
  C    -56.185600  -45.830300  -75.524000
  H    -55.658800  -44.923600  -75.574400
  H    -56.879600  -45.742900  -76.353300
  H    -56.696000  -45.782200  -74.654000
  S    -48.434200  -49.788500  -76.447000
  C    -47.405600  -49.024400  -77.587200
  C    -48.132700  -48.065000  -78.307800
  C    -49.473900  -47.887000  -77.907400
  C    -49.842700  -48.681000  -76.856600
  H    -47.676400  -47.554700  -79.201700
  C    -50.432400  -47.010100  -78.858800
  H    -49.919400  -46.033800  -79.032100
  H    -51.331500  -46.826400  -78.267500
  C    -50.793900  -47.566100  -80.263600
  H    -49.848100  -47.844000  -80.675500
  H    -51.258100  -46.794600  -80.814300
  C    -51.500700  -48.894400  -80.238500
  H    -52.492000  -48.914500  -79.711700
  H    -50.902700  -49.699400  -79.759000
  H    -51.553500  -49.323700  -81.233300
  H    -53.852500  -49.980500  -74.235600
  H    -46.423600  -49.400700  -77.952300

 Total Charge           Charge          ....    0
 Multiplicity           Mult            ....    1
 Number of Electrons    NEL             ....  134
 Basis Dimension        Dim             ....  322

ORBITAL ENERGIES
----------------

  NO   OCC          E(Eh)            E(eV)
   0   2.0000     -88.972282     -2421.0589
   1   2.0000     -88.963975     -2420.8328
   2   2.0000     -10.336204      -281.2624
   3   2.0000     -10.334406      -281.2135
   4   2.0000     -10.322086      -280.8782
   5   2.0000     -10.309167      -280.5267
   6   2.0000     -10.306912      -280.4653
   7   2.0000     -10.301212      -280.3102
   8   2.0000     -10.300423      -280.2888
   9   2.0000     -10.298475      -280.2358
  10   2.0000     -10.298319      -280.2315
  11   2.0000     -10.296785      -280.1898
  12   2.0000     -10.293491      -280.1001
  13   2.0000     -10.282689      -279.8062
  14   2.0000     -10.274170      -279.5744
  15   2.0000     -10.264640      -279.3151
  16   2.0000      -8.086990      -220.0582
  17   2.0000      -8.078299      -219.8217
  18   2.0000      -6.045404      -164.5038
  19   2.0000      -6.041604      -164.4004
  20   2.0000      -6.037750      -164.2955
  21   2.0000      -6.036908      -164.2726
  22   2.0000      -6.032803      -164.1609
  23   2.0000      -6.029037      -164.0584
  24   2.0000      -1.003525       -27.3073
  25   2.0000      -0.983852       -26.7720
  26   2.0000      -0.910773       -24.7834
  27   2.0000      -0.904437       -24.6110
  28   2.0000      -0.868955       -23.6455
  29   2.0000      -0.856679       -23.3114
  30   2.0000      -0.844327       -22.9753
  31   2.0000      -0.807348       -21.9691
  32   2.0000      -0.782911       -21.3041
  33   2.0000      -0.775981       -21.1155
  34   2.0000      -0.705866       -19.2076
  35   2.0000      -0.700505       -19.0617
  36   2.0000      -0.691579       -18.8188
  37   2.0000      -0.658797       -17.9268
  38   2.0000      -0.634963       -17.2782
  39   2.0000      -0.616930       -16.7875
  40   2.0000      -0.591582       -16.0978
  41   2.0000      -0.568288       -15.4639
  42   2.0000      -0.560724       -15.2581
  43   2.0000      -0.547456       -14.8970
  44   2.0000      -0.543227       -14.7819
  45   2.0000      -0.528325       -14.3764
  46   2.0000      -0.518180       -14.1004
  47   2.0000      -0.508068       -13.8252
  48   2.0000      -0.506126       -13.7724
  49   2.0000      -0.495894       -13.4940
  50   2.0000      -0.492860       -13.4114
  51   2.0000      -0.480210       -13.0672
  52   2.0000      -0.467892       -12.7320
  53   2.0000      -0.464812       -12.6482
  54   2.0000      -0.454429       -12.3656
  55   2.0000      -0.448067       -12.1925
  56   2.0000      -0.443877       -12.0785
  57   2.0000      -0.435660       -11.8549
  58   2.0000      -0.428631       -11.6636
  59   2.0000      -0.425261       -11.5719
  60   2.0000      -0.422465       -11.4959
  61   2.0000      -0.417533       -11.3617
  62   2.0000      -0.410470       -11.1695
  63   2.0000      -0.355102        -9.6628
  64   2.0000      -0.336032        -9.1439
  65   2.0000      -0.331966        -9.0332
  66   2.0000      -0.282811        -7.6957
  67   0.0000       0.018553         0.5049
  68   0.0000       0.073706         2.0056
  69   0.0000       0.103942         2.8284
  70   0.0000       0.122029         3.3206
  71   0.0000       0.130032         3.5384

MULLIKEN ATOMIC CHARGES
-----------------------
   0 S :    0.130953
   1 C :   -0.092790
   2 C :   -0.097743
   3 C :    0.001664
   4 C :   -0.145723
   5 H :    0.036436
   6 C :    0.041746
   7 H :    0.028887
   8 H :    0.021322
   9 C :   -0.068382
  10 H :    0.037409
  11 H :    0.040611
  12 C :    0.005952
  13 H :    0.007577
  14 H :    0.025675
  15 H :    0.004124
  16 S :    0.083025
  17 C :   -0.090404
  18 C :   -0.081226
  19 C :   -0.043807
  20 C :   -0.153896
  21 H :    0.038500
  22 C :    0.040690
  23 H :    0.034172
  24 H :    0.014027
  25 C :   -0.008110
  26 H :    0.011674
  27 H :    0.032987
  28 C :   -0.074799
  29 H :    0.042517
  30 H :    0.037062
  31 H :    0.026696
  32 H :    0.035848
  33 H :    0.077325
Sum of atomic charges:    0.0000000

LOEWDIN ATOMIC CHARGES
----------------------
   0 S :    0.419583
   1 C :   -0.212982
   2 C :   -0.070895
   3 C :   -0.060618
   4 C :   -0.186991
   5 H :    0.037929
   6 C :   -0.033233
   7 H :    0.033979
   8 H :    0.026516
   9 C :   -0.037135
  10 H :    0.030927
  11 H :    0.031603
  12 C :   -0.056525
  13 H :    0.018696
  14 H :    0.029394
  15 H :    0.008216
  16 S :    0.378836
  17 C :   -0.202426
  18 C :   -0.084848
  19 C :   -0.063558
  20 C :   -0.170600
  21 H :    0.037355
  22 C :   -0.023002
  23 H :    0.032986
  24 H :    0.020536
  25 C :   -0.035100
  26 H :    0.023883
  27 H :    0.022645
  28 C :   -0.073944
  29 H :    0.028291
  30 H :    0.033131
  31 H :    0.025068
  32 H :    0.030278
  33 H :    0.042005

  Mayer bond orders larger than 0.100000
B(  0-S ,  1-C ) :   1.1457 B(  0-S ,  4-C ) :   1.1480 B(  1-C ,  2-C ) :   1.6278
B(  1-C , 32-H ) :   0.9562 B(  2-C ,  3-C ) :   1.2681 B(  2-C ,  6-C ) :   1.0100
B(  3-C ,  4-C ) :   1.5470 B(  3-C ,  5-H ) :   0.9808 B(  4-C , 20-C ) :   1.0700
B(  6-C ,  7-H ) :   0.9477 B(  6-C ,  8-H ) :   0.9403 B(  6-C ,  9-C ) :   1.0642
B(  9-C , 10-H ) :   0.9577 B(  9-C , 11-H ) :   0.9538 B(  9-C , 12-C ) :   1.0880
B( 12-C , 13-H ) :   0.9707 B( 12-C , 14-H ) :   0.9717 B( 12-C , 15-H ) :   0.9727
B( 16-S , 17-C ) :   1.1658 B( 16-S , 20-C ) :   1.1121 B( 17-C , 18-C ) :   1.5933
B( 17-C , 20-C ) :   0.1052 B( 17-C , 33-H ) :   0.9596 B( 18-C , 19-C ) :   1.2545
B( 18-C , 21-H ) :   0.9773 B( 19-C , 20-C ) :   1.6125 B( 19-C , 22-C ) :   1.0158
B( 22-C , 23-H ) :   0.9402 B( 22-C , 24-H ) :   0.9399 B( 22-C , 25-C ) :   1.0728
B( 25-C , 26-H ) :   0.9492 B( 25-C , 27-H ) :   0.9551 B( 25-C , 28-C ) :   1.0824
B( 28-C , 29-H ) :   0.9757 B( 28-C , 30-H ) :   0.9696 B( 28-C , 31-H ) :   0.9713

Dispersion correction           -0.014373198
FINAL SINGLE POINT ENERGY     -1339.868723553448

DIPOLE MOMENT
-------------
                                X             Y             Z
Electronic contribution:     20.83263     -16.82299      11.65753
Nuclear contribution   :    -21.24576      17.28828     -12.04648
                        -----------------------------------------
Total Dipole Moment    :     -0.41313       0.46529      -0.38895
                        -----------------------------------------
Magnitude (a.u.)       :      0.73379
Magnitude (Debye)      :      1.86515

Rotational constants in cm-1:     0.019516     0.008458     0.006741
Rotational constants in MHz :   585.073618   253.569901   202.077614

                             ****ORCA TERMINATED NORMALLY****
TOTAL RUN TIME: 0 days 0 hours 0 minutes 21 seconds 645 msec
