                         Program Version 4.2.1 -  RELEASE  -
|  1> ! wB97X-D3 SP def2-SVP
|  2> %pal
|  3> nprocs 24
|  4> end
|  5>
|  6> * xyz 0 1
|  7> S 	 -36.4681 	 -47.9688 	 -73.5278
|  8> C 	 -37.3289 	 -46.5911 	 -72.8989
|  9> C 	 -38.3003 	 -46.9231 	 -72.0115
| 10> C 	 -38.385 	 -48.3235 	 -71.7752
| 11> C 	 -37.479 	 -49.0292 	 -72.5354
| 12> H 	 -39.0518 	 -48.9333 	 -71.2975
| 13> C 	 -39.3659 	 -45.9476 	 -71.4927
| 14> H 	 -38.8741 	 -45.0126 	 -71.1036
| 15> H 	 -39.7416 	 -46.4458 	 -70.5482
| 16> C 	 -40.5687 	 -45.7493 	 -72.4407
| 17> H 	 -40.8375 	 -46.8161 	 -72.6281
| 18> H 	 -41.4207 	 -45.291 	 -71.7847
| 19> C 	 -40.2951 	 -44.9446 	 -73.7101
| 20> H 	 -41.1276 	 -44.8446 	 -74.4188
| 21> H 	 -39.9106 	 -43.9284 	 -73.4365
| 22> H 	 -39.5201 	 -45.4935 	 -74.1836
| 23> S 	 -37.2418 	 -50.9922 	 -74.3733
| 24> C 	 -37.2181 	 -52.6369 	 -73.8658
| 25> C 	 -37.5209 	 -52.8193 	 -72.526
| 26> C 	 -37.6607 	 -51.5831 	 -71.8552
| 27> C 	 -37.448 	 -50.4724 	 -72.6968
| 28> H 	 -37.6446 	 -53.8226 	 -72.1705
| 29> C 	 -37.7831 	 -51.5075 	 -70.3185
| 30> H 	 -37.8503 	 -52.5509 	 -69.9465
| 31> H 	 -38.7362 	 -51.0841 	 -70.1161
| 32> C 	 -36.6284 	 -50.7429 	 -69.6363
| 33> H 	 -36.8565 	 -50.6038 	 -68.5787
| 34> H 	 -36.6511 	 -49.7314 	 -70.0405
| 35> C 	 -35.2025 	 -51.3538 	 -69.764
| 36> H 	 -34.4013 	 -50.6787 	 -69.4937
| 37> H 	 -35.1055 	 -51.5676 	 -70.8495
| 38> H 	 -35.2086 	 -52.2473 	 -69.2519
| 39> H 	 -37.0441 	 -45.6197 	 -73.2803
| 40> H 	 -37.069 	 -53.5369 	 -74.435
| 41> *
| 42>
| 43>                          ****END OF INPUT****

CARTESIAN COORDINATES (ANGSTROEM)
---------------------------------
  S    -36.468100  -47.968800  -73.527800
  C    -37.328900  -46.591100  -72.898900
  C    -38.300300  -46.923100  -72.011500
  C    -38.385000  -48.323500  -71.775200
  C    -37.479000  -49.029200  -72.535400
  H    -39.051800  -48.933300  -71.297500
  C    -39.365900  -45.947600  -71.492700
  H    -38.874100  -45.012600  -71.103600
  H    -39.741600  -46.445800  -70.548200
  C    -40.568700  -45.749300  -72.440700
  H    -40.837500  -46.816100  -72.628100
  H    -41.420700  -45.291000  -71.784700
  C    -40.295100  -44.944600  -73.710100
  H    -41.127600  -44.844600  -74.418800
  H    -39.910600  -43.928400  -73.436500
  H    -39.520100  -45.493500  -74.183600
  S    -37.241800  -50.992200  -74.373300
  C    -37.218100  -52.636900  -73.865800
  C    -37.520900  -52.819300  -72.526000
  C    -37.660700  -51.583100  -71.855200
  C    -37.448000  -50.472400  -72.696800
  H    -37.644600  -53.822600  -72.170500
  C    -37.783100  -51.507500  -70.318500
  H    -37.850300  -52.550900  -69.946500
  H    -38.736200  -51.084100  -70.116100
  C    -36.628400  -50.742900  -69.636300
  H    -36.856500  -50.603800  -68.578700
  H    -36.651100  -49.731400  -70.040500
  C    -35.202500  -51.353800  -69.764000
  H    -34.401300  -50.678700  -69.493700
  H    -35.105500  -51.567600  -70.849500
  H    -35.208600  -52.247300  -69.251900
  H    -37.044100  -45.619700  -73.280300
  H    -37.069000  -53.536900  -74.435000

 Total Charge           Charge          ....    0
 Multiplicity           Mult            ....    1
 Number of Electrons    NEL             ....  134
 Basis Dimension        Dim             ....  322

ORBITAL ENERGIES
----------------

  NO   OCC          E(Eh)            E(eV)
   0   2.0000     -88.969589     -2420.9856
   1   2.0000     -88.966939     -2420.9135
   2   2.0000     -10.330559      -281.1088
   3   2.0000     -10.328358      -281.0489
   4   2.0000     -10.312919      -280.6288
   5   2.0000     -10.312674      -280.6221
   6   2.0000     -10.306416      -280.4518
   7   2.0000     -10.302832      -280.3543
   8   2.0000     -10.300153      -280.2814
   9   2.0000     -10.298229      -280.2290
  10   2.0000     -10.293612      -280.1034
  11   2.0000     -10.291389      -280.0429
  12   2.0000     -10.289121      -279.9812
  13   2.0000     -10.281067      -279.7621
  14   2.0000     -10.279223      -279.7119
  15   2.0000     -10.267488      -279.3926
  16   2.0000      -8.084246      -219.9835
  17   2.0000      -8.081820      -219.9175
  18   2.0000      -6.042691      -164.4300
  19   2.0000      -6.040277      -164.3643
  20   2.0000      -6.038768      -164.3232
  21   2.0000      -6.036354      -164.2576
  22   2.0000      -6.035067      -164.2225
  23   2.0000      -6.032583      -164.1549
  24   2.0000      -1.010222       -27.4895
  25   2.0000      -0.986758       -26.8510
  26   2.0000      -0.908495       -24.7214
  27   2.0000      -0.903872       -24.5956
  28   2.0000      -0.871275       -23.7086
  29   2.0000      -0.853797       -23.2330
  30   2.0000      -0.844310       -22.9748
  31   2.0000      -0.814116       -22.1532
  32   2.0000      -0.784714       -21.3532
  33   2.0000      -0.774659       -21.0795
  34   2.0000      -0.710532       -19.3346
  35   2.0000      -0.692325       -18.8391
  36   2.0000      -0.686072       -18.6690
  37   2.0000      -0.666473       -18.1357
  38   2.0000      -0.649224       -17.6663
  39   2.0000      -0.616812       -16.7843
  40   2.0000      -0.587288       -15.9809
  41   2.0000      -0.569498       -15.4968
  42   2.0000      -0.554174       -15.0798
  43   2.0000      -0.543479       -14.7888
  44   2.0000      -0.542639       -14.7660
  45   2.0000      -0.539700       -14.6860
  46   2.0000      -0.520236       -14.1563
  47   2.0000      -0.509025       -13.8513
  48   2.0000      -0.499973       -13.6050
  49   2.0000      -0.496861       -13.5203
  50   2.0000      -0.490389       -13.3442
  51   2.0000      -0.481732       -13.1086
  52   2.0000      -0.469496       -12.7756
  53   2.0000      -0.464952       -12.6520
  54   2.0000      -0.458217       -12.4687
  55   2.0000      -0.450763       -12.2659
  56   2.0000      -0.446283       -12.1440
  57   2.0000      -0.440177       -11.9778
  58   2.0000      -0.433697       -11.8015
  59   2.0000      -0.422772       -11.5042
  60   2.0000      -0.416339       -11.3291
  61   2.0000      -0.410309       -11.1651
  62   2.0000      -0.408486       -11.1155
  63   2.0000      -0.353931        -9.6309
  64   2.0000      -0.336183        -9.1480
  65   2.0000      -0.335210        -9.1215
  66   2.0000      -0.285161        -7.7596
  67   0.0000       0.021709         0.5907
  68   0.0000       0.073364         1.9963
  69   0.0000       0.104922         2.8551
  70   0.0000       0.119166         3.2427
  71   0.0000       0.139161         3.7868

MULLIKEN ATOMIC CHARGES
-----------------------
   0 S :    0.100601
   1 C :   -0.130673
   2 C :   -0.055332
   3 C :    0.063089
   4 C :   -0.156936
   5 H :   -0.029539
   6 C :    0.021132
   7 H :    0.036342
   8 H :    0.029498
   9 C :   -0.086870
  10 H :    0.032605
  11 H :    0.044879
  12 C :   -0.029933
  13 H :    0.046036
  14 H :    0.032761
  15 H :    0.026868
  16 S :    0.115914
  17 C :   -0.071652
  18 C :   -0.056656
  19 C :   -0.045539
  20 C :   -0.166480
  21 H :    0.013266
  22 C :    0.082745
  23 H :    0.014940
  24 H :    0.024226
  25 C :   -0.085416
  26 H :    0.022842
  27 H :    0.036053
  28 C :   -0.020732
  29 H :    0.042099
  30 H :    0.039283
  31 H :    0.016159
  32 H :    0.049944
  33 H :    0.044476
Sum of atomic charges:   -0.0000000

LOEWDIN ATOMIC CHARGES
----------------------
   0 S :    0.392667
   1 C :   -0.191679
   2 C :   -0.067513
   3 C :   -0.053794
   4 C :   -0.181159
   5 H :    0.018152
   6 C :   -0.039417
   7 H :    0.030236
   8 H :    0.035840
   9 C :   -0.046825
  10 H :    0.028595
  11 H :    0.031266
  12 C :   -0.068380
  13 H :    0.030519
  14 H :    0.029654
  15 H :    0.021773
  16 S :    0.417950
  17 C :   -0.193972
  18 C :   -0.073372
  19 C :   -0.057909
  20 C :   -0.194899
  21 H :    0.031191
  22 C :   -0.027026
  23 H :    0.029485
  24 H :    0.025066
  25 C :   -0.041361
  26 H :    0.020405
  27 H :    0.023772
  28 C :   -0.056509
  29 H :    0.029101
  30 H :    0.032731
  31 H :    0.012080
  32 H :    0.025202
  33 H :    0.028130

  Mayer bond orders larger than 0.100000
B(  0-S ,  1-C ) :   1.1273 B(  0-S ,  4-C ) :   1.1458 B(  1-C ,  2-C ) :   1.6204
B(  1-C , 32-H ) :   0.9721 B(  2-C ,  3-C ) :   1.2116 B(  2-C ,  6-C ) :   1.0186
B(  3-C ,  4-C ) :   1.5780 B(  3-C ,  5-H ) :   1.0070 B(  4-C , 20-C ) :   1.0701
B(  6-C ,  7-H ) :   0.9428 B(  6-C ,  8-H ) :   0.9410 B(  6-C ,  9-C ) :   1.0564
B(  9-C , 10-H ) :   0.9524 B(  9-C , 11-H ) :   0.9555 B(  9-C , 12-C ) :   1.0700
B( 12-C , 13-H ) :   0.9733 B( 12-C , 14-H ) :   0.9741 B( 12-C , 15-H ) :   0.9697
B( 16-S , 17-C ) :   1.1608 B( 16-S , 20-C ) :   1.1445 B( 17-C , 18-C ) :   1.6129
B( 17-C , 20-C ) :   0.1031 B( 17-C , 33-H ) :   0.9629 B( 18-C , 19-C ) :   1.2545
B( 18-C , 21-H ) :   0.9938 B( 19-C , 20-C ) :   1.5574 B( 19-C , 22-C ) :   1.0274
B( 22-C , 23-H ) :   0.9395 B( 22-C , 24-H ) :   0.9276 B( 22-C , 25-C ) :   1.0734
B( 25-C , 26-H ) :   0.9550 B( 25-C , 27-H ) :   0.9518 B( 25-C , 28-C ) :   1.0683
B( 28-C , 29-H ) :   0.9746 B( 28-C , 30-H ) :   0.9776 B( 28-C , 31-H ) :   0.9767

Dispersion correction           -0.015419737
FINAL SINGLE POINT ENERGY     -1339.879321724411

DIPOLE MOMENT
-------------
                                X             Y             Z
Electronic contribution:      7.97710      -7.56574     -15.17886
Nuclear contribution   :     -8.31457       7.51713      15.47970
                        -----------------------------------------
Total Dipole Moment    :     -0.33747      -0.04862       0.30084
                        -----------------------------------------
Magnitude (a.u.)       :      0.45470
Magnitude (Debye)      :      1.15577

Rotational constants in cm-1:     0.021887     0.008466     0.007454
Rotational constants in MHz :   656.157175   253.812997   223.465798

                             ****ORCA TERMINATED NORMALLY****
TOTAL RUN TIME: 0 days 0 hours 0 minutes 22 seconds 413 msec
