                         Program Version 4.2.1 -  RELEASE  -
|  1> ! wB97X-D3 SP def2-SVP
|  2> %pal
|  3> nprocs 24
|  4> end
|  5>
|  6> * xyz 0 1
|  7> S 	 -99.6028 	 -0.279263 	 -105.037
|  8> C 	 -100.418 	 0.382584 	 -103.724
|  9> C 	 -101.493 	 1.12363 	 -104.123
| 10> C 	 -101.805 	 0.954367 	 -105.553
| 11> C 	 -100.811 	 0.273813 	 -106.225
| 12> H 	 -102.591 	 1.44692 	 -106.094
| 13> C 	 -102.384 	 1.8287 	 -103.139
| 14> H 	 -103.2 	 2.39789 	 -103.592
| 15> H 	 -101.757 	 2.51661 	 -102.558
| 16> C 	 -102.979 	 0.93246 	 -102.062
| 17> H 	 -103.646 	 0.157988 	 -102.504
| 18> H 	 -102.107 	 0.516092 	 -101.567
| 19> C 	 -103.868 	 1.62838 	 -100.923
| 20> H 	 -104.7 	 2.12565 	 -101.345
| 21> H 	 -104.351 	 0.870571 	 -100.262
| 22> H 	 -103.397 	 2.29995 	 -100.311
| 23> S 	 -100.514 	 -1.5726 	 -108.141
| 24> C 	 -100.322 	 -1.16729 	 -109.796
| 25> C 	 -100.199 	 0.180939 	 -109.886
| 26> C 	 -100.446 	 0.906441 	 -108.651
| 27> C 	 -100.659 	 0.0056516 	 -107.645
| 28> H 	 -99.9935 	 0.553305 	 -110.903
| 29> C 	 -100.598 	 2.38741 	 -108.533
| 30> H 	 -100.335 	 2.63447 	 -107.524
| 31> H 	 -101.598 	 2.62001 	 -108.843
| 32> C 	 -99.5599 	 3.17683 	 -109.404
| 33> H 	 -99.6673 	 2.84605 	 -110.416
| 34> H 	 -98.5601 	 2.99952 	 -109.147
| 35> C 	 -99.715 	 4.70601 	 -109.363
| 36> H 	 -98.9424 	 5.26844 	 -109.867
| 37> H 	 -99.8001 	 5.18978 	 -108.386
| 38> H 	 -100.679 	 4.93365 	 -109.945
| 39> H 	 -100.14 	 0.36218 	 -102.744
| 40> H 	 -100.017 	 -1.87642 	 -110.569
| 41> *
| 42>
| 43>                          ****END OF INPUT****

CARTESIAN COORDINATES (ANGSTROEM)
---------------------------------
  S    -99.602800   -0.279263  -105.037000
  C    -100.418000    0.382584  -103.724000
  C    -101.493000    1.123630  -104.123000
  C    -101.805000    0.954367  -105.553000
  C    -100.811000    0.273813  -106.225000
  H    -102.591000    1.446920  -106.094000
  C    -102.384000    1.828700  -103.139000
  H    -103.200000    2.397890  -103.592000
  H    -101.757000    2.516610  -102.558000
  C    -102.979000    0.932460  -102.062000
  H    -103.646000    0.157988  -102.504000
  H    -102.107000    0.516092  -101.567000
  C    -103.868000    1.628380  -100.923000
  H    -104.700000    2.125650  -101.345000
  H    -104.351000    0.870571  -100.262000
  H    -103.397000    2.299950  -100.311000
  S    -100.514000   -1.572600  -108.141000
  C    -100.322000   -1.167290  -109.796000
  C    -100.199000    0.180939  -109.886000
  C    -100.446000    0.906441  -108.651000
  C    -100.659000    0.005652  -107.645000
  H    -99.993500    0.553305  -110.903000
  C    -100.598000    2.387410  -108.533000
  H    -100.335000    2.634470  -107.524000
  H    -101.598000    2.620010  -108.843000
  C    -99.559900    3.176830  -109.404000
  H    -99.667300    2.846050  -110.416000
  H    -98.560100    2.999520  -109.147000
  C    -99.715000    4.706010  -109.363000
  H    -98.942400    5.268440  -109.867000
  H    -99.800100    5.189780  -108.386000
  H    -100.679000    4.933650  -109.945000
  H    -100.140000    0.362180  -102.744000
  H    -100.017000   -1.876420  -110.569000

 Total Charge           Charge          ....    0
 Multiplicity           Mult            ....    1
 Number of Electrons    NEL             ....  134
 Basis Dimension        Dim             ....  322

ORBITAL ENERGIES
----------------

  NO   OCC          E(Eh)            E(eV)
   0   2.0000     -88.963148     -2420.8103
   1   2.0000     -88.959862     -2420.7209
   2   2.0000     -10.329560      -281.0816
   3   2.0000     -10.316281      -280.7203
   4   2.0000     -10.311296      -280.5846
   5   2.0000     -10.302199      -280.3371
   6   2.0000     -10.300781      -280.2985
   7   2.0000     -10.299710      -280.2694
   8   2.0000     -10.297596      -280.2118
   9   2.0000     -10.293758      -280.1074
  10   2.0000     -10.291416      -280.0437
  11   2.0000     -10.289751      -279.9984
  12   2.0000     -10.289095      -279.9805
  13   2.0000     -10.281299      -279.7684
  14   2.0000     -10.281224      -279.7663
  15   2.0000     -10.274096      -279.5724
  16   2.0000      -8.078745      -219.8338
  17   2.0000      -8.077365      -219.7963
  18   2.0000      -6.037249      -164.2819
  19   2.0000      -6.035688      -164.2394
  20   2.0000      -6.033055      -164.1678
  21   2.0000      -6.031374      -164.1220
  22   2.0000      -6.029511      -164.0713
  23   2.0000      -6.028231      -164.0365
  24   2.0000      -1.019919       -27.7534
  25   2.0000      -0.993182       -27.0258
  26   2.0000      -0.910788       -24.7838
  27   2.0000      -0.909833       -24.7578
  28   2.0000      -0.876139       -23.8410
  29   2.0000      -0.850984       -23.1565
  30   2.0000      -0.843225       -22.9453
  31   2.0000      -0.823371       -22.4051
  32   2.0000      -0.782624       -21.2963
  33   2.0000      -0.772872       -21.0309
  34   2.0000      -0.707465       -19.2511
  35   2.0000      -0.705387       -19.1946
  36   2.0000      -0.699000       -19.0208
  37   2.0000      -0.657328       -17.8868
  38   2.0000      -0.647081       -17.6080
  39   2.0000      -0.616859       -16.7856
  40   2.0000      -0.596520       -16.2321
  41   2.0000      -0.577200       -15.7064
  42   2.0000      -0.574504       -15.6330
  43   2.0000      -0.564187       -15.3523
  44   2.0000      -0.527677       -14.3588
  45   2.0000      -0.521746       -14.1974
  46   2.0000      -0.514421       -13.9981
  47   2.0000      -0.511671       -13.9233
  48   2.0000      -0.509513       -13.8646
  49   2.0000      -0.505564       -13.7571
  50   2.0000      -0.497040       -13.5251
  51   2.0000      -0.479148       -13.0383
  52   2.0000      -0.476216       -12.9585
  53   2.0000      -0.468977       -12.7615
  54   2.0000      -0.467006       -12.7079
  55   2.0000      -0.452504       -12.3132
  56   2.0000      -0.447650       -12.1812
  57   2.0000      -0.430169       -11.7055
  58   2.0000      -0.425270       -11.5722
  59   2.0000      -0.424378       -11.5479
  60   2.0000      -0.420880       -11.4527
  61   2.0000      -0.415988       -11.3196
  62   2.0000      -0.413260       -11.2454
  63   2.0000      -0.348033        -9.4705
  64   2.0000      -0.327922        -8.9232
  65   2.0000      -0.325960        -8.8698
  66   2.0000      -0.302606        -8.2343
  67   0.0000       0.040582         1.1043
  68   0.0000       0.071923         1.9571
  69   0.0000       0.122545         3.3346
  70   0.0000       0.124176         3.3790
  71   0.0000       0.135092         3.6760

MULLIKEN ATOMIC CHARGES
-----------------------
   0 S :    0.122339
   1 C :   -0.077382
   2 C :   -0.094533
   3 C :    0.050590
   4 C :   -0.172709
   5 H :    0.011537
   6 C :    0.079163
   7 H :    0.018097
   8 H :    0.024160
   9 C :   -0.110737
  10 H :    0.043119
  11 H :    0.024676
  12 C :   -0.024293
  13 H :    0.015968
  14 H :    0.035019
  15 H :    0.013058
  16 S :    0.116660
  17 C :   -0.099654
  18 C :   -0.064130
  19 C :   -0.031071
  20 C :   -0.172059
  21 H :    0.026690
  22 C :    0.126057
  23 H :    0.031000
  24 H :    0.038281
  25 C :   -0.079778
  26 H :    0.021243
  27 H :    0.020298
  28 C :   -0.066967
  29 H :    0.032753
  30 H :    0.033940
  31 H :    0.028731
  32 H :    0.012918
  33 H :    0.067015
Sum of atomic charges:    0.0000000

LOEWDIN ATOMIC CHARGES
----------------------
   0 S :    0.419914
   1 C :   -0.200177
   2 C :   -0.063151
   3 C :   -0.055035
   4 C :   -0.184706
   5 H :    0.030088
   6 C :   -0.039004
   7 H :    0.026601
   8 H :    0.033025
   9 C :   -0.034714
  10 H :    0.028880
  11 H :    0.018238
  12 C :   -0.061771
  13 H :    0.018421
  14 H :    0.034675
  15 H :    0.009221
  16 S :    0.455761
  17 C :   -0.203548
  18 C :   -0.077150
  19 C :   -0.055826
  20 C :   -0.235766
  21 H :    0.033207
  22 C :   -0.019093
  23 H :    0.032494
  24 H :    0.033131
  25 C :   -0.033344
  26 H :    0.018151
  27 H :    0.017829
  28 C :   -0.072338
  29 H :    0.024149
  30 H :    0.024015
  31 H :    0.030065
  32 H :    0.011537
  33 H :    0.036220

  Mayer bond orders larger than 0.100000
B(  0-S ,  1-C ) :   1.1486 B(  0-S ,  4-C ) :   1.1475 B(  1-C ,  2-C ) :   1.6059
B(  1-C , 32-H ) :   0.9788 B(  2-C ,  3-C ) :   1.2227 B(  2-C ,  6-C ) :   1.0392
B(  3-C ,  4-C ) :   1.5966 B(  3-C ,  5-H ) :   0.9955 B(  4-C , 20-C ) :   1.0198
B(  6-C ,  7-H ) :   0.9461 B(  6-C ,  8-H ) :   0.9320 B(  6-C ,  9-C ) :   1.0655
B(  9-C , 10-H ) :   0.9602 B(  9-C , 11-H ) :   0.9560 B(  9-C , 12-C ) :   1.0748
B( 12-C , 13-H ) :   0.9755 B( 12-C , 14-H ) :   0.9758 B( 12-C , 15-H ) :   0.9781
B( 16-S , 17-C ) :   1.1601 B( 16-S , 20-C ) :   1.1808 B( 17-C , 18-C ) :   1.6212
B( 17-C , 33-H ) :   0.9639 B( 18-C , 19-C ) :   1.2242 B( 18-C , 21-H ) :   0.9860
B( 19-C , 20-C ) :   1.5810 B( 19-C , 22-C ) :   1.0486 B( 22-C , 23-H ) :   0.9206
B( 22-C , 24-H ) :   0.9353 B( 22-C , 25-C ) :   1.0636 B( 25-C , 26-H ) :   0.9541
B( 25-C , 27-H ) :   0.9611 B( 25-C , 28-C ) :   1.0860 B( 28-C , 29-H ) :   0.9750
B( 28-C , 30-H ) :   0.9756 B( 28-C , 31-H ) :   0.9755

Dispersion correction           -0.013387939
FINAL SINGLE POINT ENERGY     -1339.869996476192

DIPOLE MOMENT
-------------
                                X             Y             Z
Electronic contribution:      9.47279     -22.48544      -7.90716
Nuclear contribution   :     -9.60953      23.01997       7.86860
                        -----------------------------------------
Total Dipole Moment    :     -0.13674       0.53453      -0.03856
                        -----------------------------------------
Magnitude (a.u.)       :      0.55309
Magnitude (Debye)      :      1.40584

Rotational constants in cm-1:     0.020025     0.007299     0.005966
Rotational constants in MHz :   600.332212   218.829104   178.848730

                             ****ORCA TERMINATED NORMALLY****
TOTAL RUN TIME: 0 days 0 hours 0 minutes 21 seconds 46 msec
