                         Program Version 4.2.1 -  RELEASE  -
|  1> ! wB97X-D3 SP def2-SVP
|  2> %pal
|  3> nprocs 24
|  4> end
|  5>
|  6> * xyz 0 1
|  7> S 	 -110.539 	 51.4527 	 -116.742
|  8> C 	 -110.499 	 49.8768 	 -117.676
|  9> C 	 -110.546 	 48.8125 	 -116.789
| 10> C 	 -110.504 	 49.2419 	 -115.4
| 11> C 	 -110.485 	 50.5614 	 -115.225
| 12> H 	 -110.547 	 48.5957 	 -114.509
| 13> C 	 -110.64 	 47.339 	 -117.241
| 14> H 	 -110.173 	 46.6836 	 -116.477
| 15> H 	 -109.936 	 47.2166 	 -118.087
| 16> C 	 -111.979 	 46.8851 	 -117.69
| 17> H 	 -112.316 	 47.6296 	 -118.422
| 18> H 	 -111.994 	 45.9069 	 -118.145
| 19> C 	 -113.039 	 46.6834 	 -116.54
| 20> H 	 -113.351 	 47.5636 	 -115.979
| 21> H 	 -113.933 	 46.1674 	 -116.758
| 22> H 	 -112.588 	 45.9915 	 -115.847
| 23> S 	 -111.921 	 51.8697 	 -113.382
| 24> C 	 -111.295 	 52.0965 	 -111.726
| 25> C 	 -109.985 	 51.5935 	 -111.664
| 26> C 	 -109.496 	 51.0019 	 -112.901
| 27> C 	 -110.382 	 51.2018 	 -113.958
| 28> H 	 -109.431 	 51.6216 	 -110.714
| 29> C 	 -108.186 	 50.2093 	 -112.98
| 30> H 	 -107.354 	 50.8615 	 -112.577
| 31> H 	 -107.882 	 50.1144 	 -114.072
| 32> C 	 -108.191 	 48.8666 	 -112.25
| 33> H 	 -107.229 	 48.5039 	 -112.404
| 34> H 	 -108.855 	 48.2198 	 -112.84
| 35> C 	 -108.561 	 48.7888 	 -110.668
| 36> H 	 -109.648 	 48.8514 	 -110.4
| 37> H 	 -107.959 	 49.4865 	 -110.06
| 38> H 	 -108.338 	 47.7864 	 -110.248
| 39> H 	 -110.415 	 49.7374 	 -118.791
| 40> H 	 -111.81 	 52.5146 	 -110.867
| 41> *
| 42>
| 43>                          ****END OF INPUT****

CARTESIAN COORDINATES (ANGSTROEM)
---------------------------------
  S    -110.539000   51.452700  -116.742000
  C    -110.499000   49.876800  -117.676000
  C    -110.546000   48.812500  -116.789000
  C    -110.504000   49.241900  -115.400000
  C    -110.485000   50.561400  -115.225000
  H    -110.547000   48.595700  -114.509000
  C    -110.640000   47.339000  -117.241000
  H    -110.173000   46.683600  -116.477000
  H    -109.936000   47.216600  -118.087000
  C    -111.979000   46.885100  -117.690000
  H    -112.316000   47.629600  -118.422000
  H    -111.994000   45.906900  -118.145000
  C    -113.039000   46.683400  -116.540000
  H    -113.351000   47.563600  -115.979000
  H    -113.933000   46.167400  -116.758000
  H    -112.588000   45.991500  -115.847000
  S    -111.921000   51.869700  -113.382000
  C    -111.295000   52.096500  -111.726000
  C    -109.985000   51.593500  -111.664000
  C    -109.496000   51.001900  -112.901000
  C    -110.382000   51.201800  -113.958000
  H    -109.431000   51.621600  -110.714000
  C    -108.186000   50.209300  -112.980000
  H    -107.354000   50.861500  -112.577000
  H    -107.882000   50.114400  -114.072000
  C    -108.191000   48.866600  -112.250000
  H    -107.229000   48.503900  -112.404000
  H    -108.855000   48.219800  -112.840000
  C    -108.561000   48.788800  -110.668000
  H    -109.648000   48.851400  -110.400000
  H    -107.959000   49.486500  -110.060000
  H    -108.338000   47.786400  -110.248000
  H    -110.415000   49.737400  -118.791000
  H    -111.810000   52.514600  -110.867000

 Total Charge           Charge          ....    0
 Multiplicity           Mult            ....    1
 Number of Electrons    NEL             ....  134
 Basis Dimension        Dim             ....  322

ORBITAL ENERGIES
----------------

  NO   OCC          E(Eh)            E(eV)
   0   2.0000     -88.965344     -2420.8701
   1   2.0000     -88.962719     -2420.7987
   2   2.0000     -10.326074      -280.9868
   3   2.0000     -10.324049      -280.9317
   4   2.0000     -10.324007      -280.9305
   5   2.0000     -10.322424      -280.8874
   6   2.0000     -10.309526      -280.5365
   7   2.0000     -10.307751      -280.4882
   8   2.0000     -10.302484      -280.3448
   9   2.0000     -10.300162      -280.2817
  10   2.0000     -10.297051      -280.1970
  11   2.0000     -10.294515      -280.1280
  12   2.0000     -10.294016      -280.1144
  13   2.0000     -10.293282      -280.0944
  14   2.0000     -10.288258      -279.9577
  15   2.0000     -10.270969      -279.4873
  16   2.0000      -8.078880      -219.8375
  17   2.0000      -8.076670      -219.7774
  18   2.0000      -6.037688      -164.2938
  19   2.0000      -6.035362      -164.2305
  20   2.0000      -6.033699      -164.1853
  21   2.0000      -6.031258      -164.1189
  22   2.0000      -6.029220      -164.0634
  23   2.0000      -6.027285      -164.0108
  24   2.0000      -1.003148       -27.2970
  25   2.0000      -0.973009       -26.4769
  26   2.0000      -0.912671       -24.8350
  27   2.0000      -0.900556       -24.5054
  28   2.0000      -0.868801       -23.6413
  29   2.0000      -0.840648       -22.8752
  30   2.0000      -0.835103       -22.7243
  31   2.0000      -0.812905       -22.1203
  32   2.0000      -0.785854       -21.3842
  33   2.0000      -0.775637       -21.1062
  34   2.0000      -0.709240       -19.2994
  35   2.0000      -0.703428       -19.1413
  36   2.0000      -0.692477       -18.8433
  37   2.0000      -0.658923       -17.9302
  38   2.0000      -0.637888       -17.3578
  39   2.0000      -0.609797       -16.5934
  40   2.0000      -0.588244       -16.0069
  41   2.0000      -0.573645       -15.6097
  42   2.0000      -0.551982       -15.0202
  43   2.0000      -0.547411       -14.8958
  44   2.0000      -0.542051       -14.7500
  45   2.0000      -0.533480       -14.5167
  46   2.0000      -0.512618       -13.9490
  47   2.0000      -0.507295       -13.8042
  48   2.0000      -0.497353       -13.5337
  49   2.0000      -0.493387       -13.4257
  50   2.0000      -0.483598       -13.1594
  51   2.0000      -0.482528       -13.1303
  52   2.0000      -0.471443       -12.8286
  53   2.0000      -0.462843       -12.5946
  54   2.0000      -0.457682       -12.4542
  55   2.0000      -0.444849       -12.1050
  56   2.0000      -0.442980       -12.0541
  57   2.0000      -0.435514       -11.8509
  58   2.0000      -0.435088       -11.8393
  59   2.0000      -0.419989       -11.4285
  60   2.0000      -0.417420       -11.3586
  61   2.0000      -0.416548       -11.3348
  62   2.0000      -0.411780       -11.2051
  63   2.0000      -0.340079        -9.2540
  64   2.0000      -0.332196        -9.0395
  65   2.0000      -0.323226        -8.7954
  66   2.0000      -0.303215        -8.2509
  67   0.0000       0.035871         0.9761
  68   0.0000       0.057481         1.5641
  69   0.0000       0.107360         2.9214
  70   0.0000       0.117459         3.1962
  71   0.0000       0.119707         3.2574

MULLIKEN ATOMIC CHARGES
-----------------------
   0 S :    0.098775
   1 C :   -0.140570
   2 C :   -0.091837
   3 C :    0.030936
   4 C :   -0.152640
   5 H :    0.025768
   6 C :    0.049919
   7 H :    0.022772
   8 H :    0.030264
   9 C :   -0.038547
  10 H :    0.028744
  11 H :    0.030989
  12 C :   -0.053691
  13 H :    0.041676
  14 H :    0.019951
  15 H :    0.009025
  16 S :    0.090834
  17 C :   -0.095146
  18 C :   -0.040792
  19 C :   -0.032016
  20 C :   -0.147813
  21 H :    0.029088
  22 C :    0.003827
  23 H :    0.036446
  24 H :    0.050068
  25 C :   -0.014330
  26 H :    0.020310
  27 H :    0.019740
  28 C :   -0.094325
  29 H :    0.053927
  30 H :    0.039510
  31 H :    0.034454
  32 H :    0.071219
  33 H :    0.063464
Sum of atomic charges:    0.0000000

LOEWDIN ATOMIC CHARGES
----------------------
   0 S :    0.364999
   1 C :   -0.180590
   2 C :   -0.058584
   3 C :   -0.062302
   4 C :   -0.198747
   5 H :    0.037313
   6 C :   -0.037411
   7 H :    0.029341
   8 H :    0.036225
   9 C :   -0.037308
  10 H :    0.025202
  11 H :    0.026933
  12 C :   -0.069389
  13 H :    0.026171
  14 H :    0.020109
  15 H :    0.021484
  16 S :    0.384706
  17 C :   -0.178142
  18 C :   -0.070450
  19 C :   -0.050659
  20 C :   -0.196070
  21 H :    0.033747
  22 C :   -0.042159
  23 H :    0.034909
  24 H :    0.043424
  25 C :   -0.031238
  26 H :    0.018978
  27 H :    0.023526
  28 C :   -0.078970
  29 H :    0.033586
  30 H :    0.024562
  31 H :    0.030538
  32 H :    0.042749
  33 H :    0.033516

  Mayer bond orders larger than 0.100000
B(  0-S ,  1-C ) :   1.1071 B(  0-S ,  4-C ) :   1.1155 B(  1-C ,  2-C ) :   1.6646
B(  1-C , 32-H ) :   0.9602 B(  2-C ,  3-C ) :   1.1873 B(  2-C ,  6-C ) :   1.0107
B(  3-C ,  4-C ) :   1.6441 B(  3-C ,  5-H ) :   0.9901 B(  4-C , 20-C ) :   1.0001
B(  6-C ,  7-H ) :   0.9432 B(  6-C ,  8-H ) :   0.9375 B(  6-C ,  9-C ) :   1.0822
B(  9-C , 10-H ) :   0.9536 B(  9-C , 11-H ) :   0.9539 B(  9-C , 12-C ) :   1.0657
B( 12-C , 13-H ) :   0.9786 B( 12-C , 14-H ) :   0.9772 B( 12-C , 15-H ) :   0.9725
B( 16-S , 17-C ) :   1.1438 B( 16-S , 20-C ) :   1.1359 B( 17-C , 18-C ) :   1.6172
B( 17-C , 20-C ) :   0.1004 B( 17-C , 33-H ) :   0.9686 B( 18-C , 19-C ) :   1.2242
B( 18-C , 21-H ) :   0.9806 B( 19-C , 20-C ) :   1.6187 B( 19-C , 22-C ) :   1.0376
B( 22-C , 23-H ) :   0.9372 B( 22-C , 24-H ) :   0.9366 B( 22-C , 25-C ) :   1.0715
B( 25-C , 26-H ) :   0.9524 B( 25-C , 27-H ) :   0.9519 B( 25-C , 28-C ) :   1.0620
B( 28-C , 29-H ) :   0.9734 B( 28-C , 30-H ) :   0.9762 B( 28-C , 31-H ) :   0.9737

Dispersion correction           -0.015163414
FINAL SINGLE POINT ENERGY     -1339.868141704382

DIPOLE MOMENT
-------------
                                X             Y             Z
Electronic contribution:     -4.83255      24.04178      -5.22975
Nuclear contribution   :      5.15719     -24.84007       5.52885
                        -----------------------------------------
Total Dipole Moment    :      0.32464      -0.79829       0.29911
                        -----------------------------------------
Magnitude (a.u.)       :      0.91220
Magnitude (Debye)      :      2.31864

Rotational constants in cm-1:     0.018467     0.008730     0.007492
Rotational constants in MHz :   553.628462   261.733504   224.606477

                             ****ORCA TERMINATED NORMALLY****
TOTAL RUN TIME: 0 days 0 hours 0 minutes 22 seconds 0 msec
