                         Program Version 4.2.1 -  RELEASE  -
|  1> ! wB97X-D3 SP def2-SVP
|  2> %pal
|  3> nprocs 24
|  4> end
|  5>
|  6> * xyz 0 1
|  7> S 	 -54.5227 	 3.55777 	 -35.5962
|  8> C 	 -54.8354 	 2.00153 	 -34.8972
|  9> C 	 -53.7704 	 1.46825 	 -34.1413
| 10> C 	 -52.7983 	 2.49631 	 -34.0374
| 11> C 	 -53.008 	 3.624 	 -34.7416
| 12> H 	 -51.8687 	 2.36041 	 -33.422
| 13> C 	 -53.7472 	 0.199776 	 -33.353
| 14> H 	 -54.0722 	 0.516316 	 -32.3532
| 15> H 	 -52.6902 	 -0.200704 	 -33.4011
| 16> C 	 -54.6378 	 -0.956368 	 -33.7855
| 17> H 	 -55.7379 	 -0.704825 	 -33.7386
| 18> H 	 -54.4311 	 -0.9842 	 -34.83
| 19> C 	 -54.4313 	 -2.35335 	 -33.1194
| 20> H 	 -55.1045 	 -2.96295 	 -33.6748
| 21> H 	 -53.4112 	 -2.76098 	 -33.0133
| 22> H 	 -54.7204 	 -2.2521 	 -32.0349
| 23> S 	 -52.2282 	 5.7151 	 -36.3661
| 24> C 	 -51.0888 	 6.88235 	 -35.8029
| 25> C 	 -50.8102 	 6.62523 	 -34.5343
| 26> C 	 -51.3684 	 5.42729 	 -33.9832
| 27> C 	 -52.1586 	 4.79541 	 -34.8759
| 28> H 	 -50.2102 	 7.33948 	 -34.0362
| 29> C 	 -51.1757 	 5.03705 	 -32.533
| 30> H 	 -50.3873 	 4.3561 	 -32.5043
| 31> H 	 -52.0455 	 4.43498 	 -32.2991
| 32> C 	 -50.8546 	 6.1717 	 -31.4941
| 33> H 	 -51.6094 	 6.92259 	 -31.5044
| 34> H 	 -49.8848 	 6.63909 	 -31.6057
| 35> C 	 -50.8227 	 5.52688 	 -30.059
| 36> H 	 -50.565 	 6.14497 	 -29.2118
| 37> H 	 -50.1163 	 4.65167 	 -30.0495
| 38> H 	 -51.6968 	 4.97285 	 -29.7286
| 39> H 	 -55.7544 	 1.53636 	 -34.9385
| 40> H 	 -50.7491 	 7.79102 	 -36.3442
| 41> *
| 42>
| 43>                          ****END OF INPUT****

CARTESIAN COORDINATES (ANGSTROEM)
---------------------------------
  S    -54.522700    3.557770  -35.596200
  C    -54.835400    2.001530  -34.897200
  C    -53.770400    1.468250  -34.141300
  C    -52.798300    2.496310  -34.037400
  C    -53.008000    3.624000  -34.741600
  H    -51.868700    2.360410  -33.422000
  C    -53.747200    0.199776  -33.353000
  H    -54.072200    0.516316  -32.353200
  H    -52.690200   -0.200704  -33.401100
  C    -54.637800   -0.956368  -33.785500
  H    -55.737900   -0.704825  -33.738600
  H    -54.431100   -0.984200  -34.830000
  C    -54.431300   -2.353350  -33.119400
  H    -55.104500   -2.962950  -33.674800
  H    -53.411200   -2.760980  -33.013300
  H    -54.720400   -2.252100  -32.034900
  S    -52.228200    5.715100  -36.366100
  C    -51.088800    6.882350  -35.802900
  C    -50.810200    6.625230  -34.534300
  C    -51.368400    5.427290  -33.983200
  C    -52.158600    4.795410  -34.875900
  H    -50.210200    7.339480  -34.036200
  C    -51.175700    5.037050  -32.533000
  H    -50.387300    4.356100  -32.504300
  H    -52.045500    4.434980  -32.299100
  C    -50.854600    6.171700  -31.494100
  H    -51.609400    6.922590  -31.504400
  H    -49.884800    6.639090  -31.605700
  C    -50.822700    5.526880  -30.059000
  H    -50.565000    6.144970  -29.211800
  H    -50.116300    4.651670  -30.049500
  H    -51.696800    4.972850  -29.728600
  H    -55.754400    1.536360  -34.938500
  H    -50.749100    7.791020  -36.344200

 Total Charge           Charge          ....    0
 Multiplicity           Mult            ....    1
 Number of Electrons    NEL             ....  134
 Basis Dimension        Dim             ....  322

ORBITAL ENERGIES
----------------

  NO   OCC          E(Eh)            E(eV)
   0   2.0000     -88.966771     -2420.9089
   1   2.0000     -88.957645     -2420.6606
   2   2.0000     -10.325017      -280.9580
   3   2.0000     -10.321052      -280.8501
   4   2.0000     -10.310080      -280.5515
   5   2.0000     -10.308850      -280.5181
   6   2.0000     -10.302969      -280.3580
   7   2.0000     -10.299365      -280.2600
   8   2.0000     -10.296096      -280.1710
   9   2.0000     -10.294473      -280.1269
  10   2.0000     -10.293216      -280.0926
  11   2.0000     -10.291535      -280.0469
  12   2.0000     -10.289056      -279.9795
  13   2.0000     -10.288230      -279.9570
  14   2.0000     -10.281368      -279.7702
  15   2.0000     -10.281006      -279.7604
  16   2.0000      -8.082034      -219.9233
  17   2.0000      -8.073373      -219.6877
  18   2.0000      -6.040477      -164.3697
  19   2.0000      -6.036601      -164.2643
  20   2.0000      -6.032698      -164.1581
  21   2.0000      -6.031988      -164.1387
  22   2.0000      -6.027851      -164.0262
  23   2.0000      -6.023846      -163.9172
  24   2.0000      -1.015363       -27.6294
  25   2.0000      -0.991920       -26.9915
  26   2.0000      -0.915875       -24.9222
  27   2.0000      -0.906155       -24.6577
  28   2.0000      -0.873355       -23.7652
  29   2.0000      -0.856604       -23.3094
  30   2.0000      -0.843837       -22.9620
  31   2.0000      -0.819978       -22.3127
  32   2.0000      -0.784717       -21.3532
  33   2.0000      -0.773846       -21.0574
  34   2.0000      -0.715573       -19.4717
  35   2.0000      -0.711328       -19.3562
  36   2.0000      -0.696235       -18.9455
  37   2.0000      -0.658129       -17.9086
  38   2.0000      -0.637777       -17.3548
  39   2.0000      -0.618782       -16.8379
  40   2.0000      -0.597983       -16.2719
  41   2.0000      -0.575729       -15.6664
  42   2.0000      -0.569257       -15.4903
  43   2.0000      -0.567210       -15.4346
  44   2.0000      -0.529914       -14.4197
  45   2.0000      -0.529120       -14.3981
  46   2.0000      -0.520999       -14.1771
  47   2.0000      -0.517214       -14.0741
  48   2.0000      -0.502531       -13.6746
  49   2.0000      -0.496293       -13.5048
  50   2.0000      -0.485902       -13.2221
  51   2.0000      -0.481732       -13.1086
  52   2.0000      -0.471361       -12.8264
  53   2.0000      -0.470192       -12.7946
  54   2.0000      -0.457827       -12.4581
  55   2.0000      -0.452417       -12.3109
  56   2.0000      -0.447541       -12.1782
  57   2.0000      -0.438789       -11.9401
  58   2.0000      -0.431946       -11.7538
  59   2.0000      -0.427486       -11.6325
  60   2.0000      -0.426710       -11.6114
  61   2.0000      -0.417069       -11.3490
  62   2.0000      -0.411401       -11.1948
  63   2.0000      -0.360422        -9.8076
  64   2.0000      -0.333893        -9.0857
  65   2.0000      -0.326049        -8.8723
  66   2.0000      -0.287138        -7.8134
  67   0.0000       0.033088         0.9004
  68   0.0000       0.079269         2.1570
  69   0.0000       0.108461         2.9514
  70   0.0000       0.129502         3.5239
  71   0.0000       0.142910         3.8888

MULLIKEN ATOMIC CHARGES
-----------------------
   0 S :    0.119560
   1 C :   -0.097878
   2 C :   -0.081665
   3 C :   -0.043538
   4 C :   -0.115683
   5 H :    0.023556
   6 C :    0.055816
   7 H :    0.046142
   8 H :    0.043516
   9 C :   -0.126679
  10 H :    0.037113
  11 H :    0.023578
  12 C :   -0.032999
  13 H :    0.042286
  14 H :    0.039501
  15 H :    0.034296
  16 S :    0.078557
  17 C :   -0.083336
  18 C :   -0.032144
  19 C :   -0.040008
  20 C :   -0.130221
  21 H :   -0.005002
  22 C :    0.069421
  23 H :    0.020692
  24 H :    0.028692
  25 C :   -0.033395
  26 H :    0.034333
  27 H :    0.040864
  28 C :   -0.071962
  29 H :    0.036482
  30 H :    0.016674
  31 H :    0.021776
  32 H :    0.014232
  33 H :    0.067426
Sum of atomic charges:   -0.0000000

LOEWDIN ATOMIC CHARGES
----------------------
   0 S :    0.415426
   1 C :   -0.189635
   2 C :   -0.060978
   3 C :   -0.073391
   4 C :   -0.191717
   5 H :    0.037441
   6 C :   -0.038680
   7 H :    0.037865
   8 H :    0.042011
   9 C :   -0.050023
  10 H :    0.028580
  11 H :    0.018898
  12 C :   -0.063870
  13 H :    0.027603
  14 H :    0.027927
  15 H :    0.031308
  16 S :    0.392269
  17 C :   -0.191451
  18 C :   -0.074742
  19 C :   -0.059731
  20 C :   -0.190832
  21 H :    0.023825
  22 C :   -0.025465
  23 H :    0.024206
  24 H :    0.033279
  25 C :   -0.025719
  26 H :    0.021156
  27 H :    0.027004
  28 C :   -0.075883
  29 H :    0.023417
  30 H :    0.026754
  31 H :    0.023002
  32 H :    0.007084
  33 H :    0.043061

  Mayer bond orders larger than 0.100000
B(  0-S ,  1-C ) :   1.1474 B(  0-S ,  4-C ) :   1.1339 B(  1-C ,  2-C ) :   1.5910
B(  1-C , 32-H ) :   0.9753 B(  2-C ,  3-C ) :   1.2526 B(  2-C ,  6-C ) :   1.0241
B(  3-C ,  4-C ) :   1.5863 B(  3-C ,  5-H ) :   0.9872 B(  4-C , 20-C ) :   1.0542
B(  6-C ,  7-H ) :   0.9290 B(  6-C ,  8-H ) :   0.9396 B(  6-C ,  9-C ) :   1.0734
B(  9-C , 10-H ) :   0.9471 B(  9-C , 11-H ) :   0.9596 B(  9-C , 12-C ) :   1.0774
B( 12-C , 13-H ) :   0.9737 B( 12-C , 14-H ) :   0.9761 B( 12-C , 15-H ) :   0.9737
B( 16-S , 17-C ) :   1.1324 B( 16-S , 20-C ) :   1.1215 B( 17-C , 18-C ) :   1.6479
B( 17-C , 33-H ) :   0.9596 B( 18-C , 19-C ) :   1.2154 B( 18-C , 21-H ) :   0.9978
B( 19-C , 20-C ) :   1.6340 B( 19-C , 22-C ) :   1.0309 B( 22-C , 23-H ) :   0.9197
B( 22-C , 24-H ) :   0.9325 B( 22-C , 25-C ) :   1.0689 B( 25-C , 26-H ) :   0.9622
B( 25-C , 27-H ) :   0.9479 B( 25-C , 28-C ) :   1.0712 B( 28-C , 29-H ) :   0.9773
B( 28-C , 30-H ) :   0.9727 B( 28-C , 31-H ) :   0.9765

Dispersion correction           -0.013226621
FINAL SINGLE POINT ENERGY     -1339.870620783790

DIPOLE MOMENT
-------------
                                X             Y             Z
Electronic contribution:     -4.01622      16.28361     -24.49466
Nuclear contribution   :      4.18485     -16.53548      25.19429
                        -----------------------------------------
Total Dipole Moment    :      0.16863      -0.25187       0.69964
                        -----------------------------------------
Magnitude (a.u.)       :      0.76247
Magnitude (Debye)      :      1.93805

Rotational constants in cm-1:     0.018983     0.007587     0.005728
Rotational constants in MHz :   569.096531   227.460714   171.709869

                             ****ORCA TERMINATED NORMALLY****
TOTAL RUN TIME: 0 days 0 hours 0 minutes 20 seconds 935 msec
