                         Program Version 4.2.1 -  RELEASE  -
|  1> ! wB97X-D3 SP def2-SVP
|  2> %pal
|  3> nprocs 24
|  4> end
|  5>
|  6> * xyz 0 1
|  7> S 	 -108.039 	 68.0369 	 -5.78356
|  8> C 	 -107.709 	 69.5771 	 -6.71733
|  9> C 	 -108.024 	 69.4231 	 -8.04275
| 10> C 	 -108.335 	 68.0396 	 -8.38083
| 11> C 	 -108.403 	 67.1542 	 -7.28302
| 12> H 	 -108.395 	 67.71 	 -9.38424
| 13> C 	 -107.902 	 70.4784 	 -9.20376
| 14> H 	 -108.314 	 71.3555 	 -8.87008
| 15> H 	 -108.522 	 70.1158 	 -10.0047
| 16> C 	 -106.449 	 70.6279 	 -9.63199
| 17> H 	 -105.941 	 71.0897 	 -8.74372
| 18> H 	 -106.01 	 69.635 	 -9.8153
| 19> C 	 -106.241 	 71.6716 	 -10.7386
| 20> H 	 -105.192 	 72.0641 	 -10.7109
| 21> H 	 -106.333 	 71.117 	 -11.6421
| 22> H 	 -106.999 	 72.495 	 -10.7415
| 23> S 	 -107.884 	 64.4521 	 -6.71977
| 24> C 	 -109.058 	 63.2691 	 -7.36592
| 25> C 	 -110.161 	 63.888 	 -7.80121
| 26> C 	 -110.064 	 65.3002 	 -7.7973
| 27> C 	 -108.852 	 65.7456 	 -7.27171
| 28> H 	 -110.933 	 63.2607 	 -8.23146
| 29> C 	 -111.134 	 66.2 	 -8.39003
| 30> H 	 -111.589 	 65.6825 	 -9.21832
| 31> H 	 -110.655 	 67.0688 	 -8.7311
| 32> C 	 -112.235 	 66.528 	 -7.38096
| 33> H 	 -112.868 	 65.6737 	 -7.19208
| 34> H 	 -112.928 	 67.2724 	 -7.82478
| 35> C 	 -111.826 	 66.9537 	 -5.96532
| 36> H 	 -111.352 	 66.1875 	 -5.39263
| 37> H 	 -112.591 	 67.4971 	 -5.43664
| 38> H 	 -111.05 	 67.7056 	 -5.92449
| 39> H 	 -107.335 	 70.5007 	 -6.25287
| 40> H 	 -108.991 	 62.2383 	 -7.19079
| 41> *
| 42>
| 43>                          ****END OF INPUT****

CARTESIAN COORDINATES (ANGSTROEM)
---------------------------------
  S    -108.039000   68.036900   -5.783560
  C    -107.709000   69.577100   -6.717330
  C    -108.024000   69.423100   -8.042750
  C    -108.335000   68.039600   -8.380830
  C    -108.403000   67.154200   -7.283020
  H    -108.395000   67.710000   -9.384240
  C    -107.902000   70.478400   -9.203760
  H    -108.314000   71.355500   -8.870080
  H    -108.522000   70.115800  -10.004700
  C    -106.449000   70.627900   -9.631990
  H    -105.941000   71.089700   -8.743720
  H    -106.010000   69.635000   -9.815300
  C    -106.241000   71.671600  -10.738600
  H    -105.192000   72.064100  -10.710900
  H    -106.333000   71.117000  -11.642100
  H    -106.999000   72.495000  -10.741500
  S    -107.884000   64.452100   -6.719770
  C    -109.058000   63.269100   -7.365920
  C    -110.161000   63.888000   -7.801210
  C    -110.064000   65.300200   -7.797300
  C    -108.852000   65.745600   -7.271710
  H    -110.933000   63.260700   -8.231460
  C    -111.134000   66.200000   -8.390030
  H    -111.589000   65.682500   -9.218320
  H    -110.655000   67.068800   -8.731100
  C    -112.235000   66.528000   -7.380960
  H    -112.868000   65.673700   -7.192080
  H    -112.928000   67.272400   -7.824780
  C    -111.826000   66.953700   -5.965320
  H    -111.352000   66.187500   -5.392630
  H    -112.591000   67.497100   -5.436640
  H    -111.050000   67.705600   -5.924490
  H    -107.335000   70.500700   -6.252870
  H    -108.991000   62.238300   -7.190790

 Total Charge           Charge          ....    0
 Multiplicity           Mult            ....    1
 Number of Electrons    NEL             ....  134
 Basis Dimension        Dim             ....  322

ORBITAL ENERGIES
----------------

  NO   OCC          E(Eh)            E(eV)
   0   2.0000     -88.966589     -2420.9040
   1   2.0000     -88.965492     -2420.8741
   2   2.0000     -10.337578      -281.2998
   3   2.0000     -10.325200      -280.9630
   4   2.0000     -10.322362      -280.8857
   5   2.0000     -10.312713      -280.6232
   6   2.0000     -10.306972      -280.4670
   7   2.0000     -10.300405      -280.2883
   8   2.0000     -10.297745      -280.2159
   9   2.0000     -10.290881      -280.0291
  10   2.0000     -10.290648      -280.0228
  11   2.0000     -10.290349      -280.0146
  12   2.0000     -10.283179      -279.8195
  13   2.0000     -10.281630      -279.7774
  14   2.0000     -10.281202      -279.7657
  15   2.0000     -10.260162      -279.1932
  16   2.0000      -8.080556      -219.8831
  17   2.0000      -8.079322      -219.8495
  18   2.0000      -6.039081      -164.3317
  19   2.0000      -6.038087      -164.3047
  20   2.0000      -6.035028      -164.2215
  21   2.0000      -6.034095      -164.1961
  22   2.0000      -6.031264      -164.1190
  23   2.0000      -6.029944      -164.0831
  24   2.0000      -1.005963       -27.3736
  25   2.0000      -0.975522       -26.5453
  26   2.0000      -0.912126       -24.8202
  27   2.0000      -0.906060       -24.6551
  28   2.0000      -0.870653       -23.6917
  29   2.0000      -0.843888       -22.9634
  30   2.0000      -0.841465       -22.8974
  31   2.0000      -0.813424       -22.1344
  32   2.0000      -0.786265       -21.3953
  33   2.0000      -0.775469       -21.1016
  34   2.0000      -0.706014       -19.2116
  35   2.0000      -0.697751       -18.9868
  36   2.0000      -0.694966       -18.9110
  37   2.0000      -0.658383       -17.9155
  38   2.0000      -0.638475       -17.3738
  39   2.0000      -0.621696       -16.9172
  40   2.0000      -0.596487       -16.2312
  41   2.0000      -0.569277       -15.4908
  42   2.0000      -0.564936       -15.3727
  43   2.0000      -0.547476       -14.8976
  44   2.0000      -0.544849       -14.8261
  45   2.0000      -0.524846       -14.2818
  46   2.0000      -0.516448       -14.0533
  47   2.0000      -0.507631       -13.8133
  48   2.0000      -0.506349       -13.7784
  49   2.0000      -0.496724       -13.5166
  50   2.0000      -0.493176       -13.4200
  51   2.0000      -0.476834       -12.9753
  52   2.0000      -0.475556       -12.9405
  53   2.0000      -0.462479       -12.5847
  54   2.0000      -0.459263       -12.4972
  55   2.0000      -0.446981       -12.1630
  56   2.0000      -0.443987       -12.0815
  57   2.0000      -0.440653       -11.9908
  58   2.0000      -0.431947       -11.7539
  59   2.0000      -0.420233       -11.4351
  60   2.0000      -0.417090       -11.3496
  61   2.0000      -0.409927       -11.1547
  62   2.0000      -0.405607       -11.0371
  63   2.0000      -0.346503        -9.4288
  64   2.0000      -0.331293        -9.0149
  65   2.0000      -0.326539        -8.8856
  66   2.0000      -0.298518        -8.1231
  67   0.0000       0.029589         0.8051
  68   0.0000       0.067019         1.8237
  69   0.0000       0.103064         2.8045
  70   0.0000       0.122984         3.3466
  71   0.0000       0.130653         3.5553

MULLIKEN ATOMIC CHARGES
-----------------------
   0 S :    0.086976
   1 C :   -0.143576
   2 C :   -0.106754
   3 C :    0.049052
   4 C :   -0.156097
   5 H :    0.008979
   6 C :    0.121417
   7 H :    0.004014
   8 H :    0.014885
   9 C :   -0.106841
  10 H :    0.028244
  11 H :    0.042984
  12 C :   -0.037294
  13 H :    0.045929
  14 H :    0.024823
  15 H :    0.041272
  16 S :    0.106220
  17 C :   -0.077341
  18 C :   -0.027722
  19 C :   -0.079291
  20 C :   -0.153104
  21 H :    0.023074
  22 C :    0.179657
  23 H :    0.014628
  24 H :   -0.003010
  25 C :   -0.085294
  26 H :    0.020535
  27 H :    0.029041
  28 C :   -0.028597
  29 H :    0.033578
  30 H :    0.025206
  31 H :    0.005808
  32 H :    0.058632
  33 H :    0.039967
Sum of atomic charges:    0.0000000

LOEWDIN ATOMIC CHARGES
----------------------
   0 S :    0.364616
   1 C :   -0.177698
   2 C :   -0.055577
   3 C :   -0.060658
   4 C :   -0.175345
   5 H :    0.023632
   6 C :   -0.015515
   7 H :    0.016509
   8 H :    0.025088
   9 C :   -0.043522
  10 H :    0.026741
  11 H :    0.028933
  12 C :   -0.069835
  13 H :    0.033776
  14 H :    0.020190
  15 H :    0.030770
  16 S :    0.406831
  17 C :   -0.160402
  18 C :   -0.069612
  19 C :   -0.048529
  20 C :   -0.223315
  21 H :    0.036513
  22 C :   -0.020773
  23 H :    0.030373
  24 H :    0.020854
  25 C :   -0.039200
  26 H :    0.020709
  27 H :    0.026828
  28 C :   -0.073072
  29 H :    0.023264
  30 H :    0.027340
  31 H :    0.017093
  32 H :    0.032911
  33 H :    0.020081

  Mayer bond orders larger than 0.100000
B(  0-S ,  1-C ) :   1.1090 B(  0-S ,  4-C ) :   1.1418 B(  1-C ,  2-C ) :   1.6496
B(  1-C , 32-H ) :   0.9682 B(  2-C ,  3-C ) :   1.2202 B(  2-C ,  6-C ) :   1.0122
B(  3-C ,  4-C ) :   1.5974 B(  3-C ,  5-H ) :   0.9886 B(  4-C , 20-C ) :   1.0184
B(  6-C ,  7-H ) :   0.9334 B(  6-C ,  8-H ) :   0.9421 B(  6-C ,  9-C ) :   1.0687
B(  9-C , 10-H ) :   0.9591 B(  9-C , 11-H ) :   0.9606 B(  9-C , 12-C ) :   1.0645
B( 12-C , 13-H ) :   0.9758 B( 12-C , 14-H ) :   0.9766 B( 12-C , 15-H ) :   0.9735
B( 16-S , 17-C ) :   1.1410 B( 16-S , 20-C ) :   1.1508 B( 17-C , 18-C ) :   1.6359
B( 17-C , 33-H ) :   0.9702 B( 18-C , 19-C ) :   1.2376 B( 18-C , 21-H ) :   0.9886
B( 19-C , 20-C ) :   1.5750 B( 19-C , 22-C ) :   1.0412 B( 22-C , 23-H ) :   0.9297
B( 22-C , 24-H ) :   0.9157 B( 22-C , 25-C ) :   1.0759 B( 25-C , 26-H ) :   0.9559
B( 25-C , 27-H ) :   0.9568 B( 25-C , 28-C ) :   1.0796 B( 28-C , 29-H ) :   0.9689
B( 28-C , 30-H ) :   0.9702 B( 28-C , 31-H ) :   0.9689

Dispersion correction           -0.015429258
FINAL SINGLE POINT ENERGY     -1339.873941195910

DIPOLE MOMENT
-------------
                                X             Y             Z
Electronic contribution:      7.45852     -17.25369      13.41395
Nuclear contribution   :     -7.69797      17.49700     -14.01959
                        -----------------------------------------
Total Dipole Moment    :     -0.23945       0.24330      -0.60564
                        -----------------------------------------
Magnitude (a.u.)       :      0.69522
Magnitude (Debye)      :      1.76712

Rotational constants in cm-1:     0.021714     0.007657     0.007231
Rotational constants in MHz :   650.977572   229.560883   216.770701

                             ****ORCA TERMINATED NORMALLY****
TOTAL RUN TIME: 0 days 0 hours 0 minutes 22 seconds 366 msec
