                         Program Version 4.2.1 -  RELEASE  -
|  1> ! wB97X-D3 SP def2-SVP
|  2> %pal
|  3> nprocs 24
|  4> end
|  5>
|  6> * xyz 0 1
|  7> S 	 -50.8452 	 26.6008 	 24.452
|  8> C 	 -51.4386 	 27.5006 	 25.8533
|  9> C 	 -51.2431 	 26.8469 	 27.0175
| 10> C 	 -50.4049 	 25.7053 	 26.8757
| 11> C 	 -50.1138 	 25.4643 	 25.5107
| 12> H 	 -49.9509 	 25.2578 	 27.7814
| 13> C 	 -51.6955 	 27.2567 	 28.402
| 14> H 	 -52.1931 	 28.1768 	 28.3242
| 15> H 	 -50.7457 	 27.4368 	 28.9663
| 16> C 	 -52.59 	 26.2267 	 29.0759
| 17> H 	 -53.417 	 25.8363 	 28.4161
| 18> H 	 -51.8962 	 25.3915 	 29.361
| 19> C 	 -53.1255 	 26.7298 	 30.4027
| 20> H 	 -53.6637 	 27.7212 	 30.3479
| 21> H 	 -53.7494 	 25.9716 	 30.8784
| 22> H 	 -52.2383 	 26.8958 	 31.0666
| 23> S 	 -48.0157 	 25.0632 	 23.6905
| 24> C 	 -47.2848 	 23.4659 	 23.5422
| 25> C 	 -47.9315 	 22.5864 	 24.3101
| 26> C 	 -49.0429 	 23.141 	 25.0621
| 27> C 	 -49.1676 	 24.5053 	 24.9519
| 28> H 	 -47.7318 	 21.5046 	 24.2329
| 29> C 	 -49.8895 	 22.2867 	 25.9805
| 30> H 	 -50.2293 	 21.4224 	 25.5024
| 31> H 	 -50.6581 	 22.9608 	 26.2138
| 32> C 	 -49.2699 	 21.9302 	 27.3269
| 33> H 	 -48.9758 	 22.9184 	 27.7043
| 34> H 	 -48.4487 	 21.3009 	 27.1979
| 35> C 	 -50.2592 	 21.2841 	 28.3239
| 36> H 	 -49.8301 	 21.4445 	 29.3376
| 37> H 	 -50.4543 	 20.2102 	 28.2055
| 38> H 	 -51.2825 	 21.6924 	 28.1844
| 39> H 	 -52.0007 	 28.4175 	 25.8481
| 40> H 	 -46.7008 	 23.0707 	 22.7265
| 41> *
| 42>
| 43>                          ****END OF INPUT****

CARTESIAN COORDINATES (ANGSTROEM)
---------------------------------
  S    -50.845200   26.600800   24.452000
  C    -51.438600   27.500600   25.853300
  C    -51.243100   26.846900   27.017500
  C    -50.404900   25.705300   26.875700
  C    -50.113800   25.464300   25.510700
  H    -49.950900   25.257800   27.781400
  C    -51.695500   27.256700   28.402000
  H    -52.193100   28.176800   28.324200
  H    -50.745700   27.436800   28.966300
  C    -52.590000   26.226700   29.075900
  H    -53.417000   25.836300   28.416100
  H    -51.896200   25.391500   29.361000
  C    -53.125500   26.729800   30.402700
  H    -53.663700   27.721200   30.347900
  H    -53.749400   25.971600   30.878400
  H    -52.238300   26.895800   31.066600
  S    -48.015700   25.063200   23.690500
  C    -47.284800   23.465900   23.542200
  C    -47.931500   22.586400   24.310100
  C    -49.042900   23.141000   25.062100
  C    -49.167600   24.505300   24.951900
  H    -47.731800   21.504600   24.232900
  C    -49.889500   22.286700   25.980500
  H    -50.229300   21.422400   25.502400
  H    -50.658100   22.960800   26.213800
  C    -49.269900   21.930200   27.326900
  H    -48.975800   22.918400   27.704300
  H    -48.448700   21.300900   27.197900
  C    -50.259200   21.284100   28.323900
  H    -49.830100   21.444500   29.337600
  H    -50.454300   20.210200   28.205500
  H    -51.282500   21.692400   28.184400
  H    -52.000700   28.417500   25.848100
  H    -46.700800   23.070700   22.726500

 Total Charge           Charge          ....    0
 Multiplicity           Mult            ....    1
 Number of Electrons    NEL             ....  134
 Basis Dimension        Dim             ....  322

ORBITAL ENERGIES
----------------

  NO   OCC          E(Eh)            E(eV)
   0   2.0000     -88.971717     -2421.0435
   1   2.0000     -88.959853     -2420.7207
   2   2.0000     -10.335070      -281.2315
   3   2.0000     -10.328264      -281.0464
   4   2.0000     -10.311711      -280.5959
   5   2.0000     -10.310621      -280.5663
   6   2.0000     -10.301043      -280.3056
   7   2.0000     -10.300308      -280.2856
   8   2.0000     -10.295671      -280.1595
   9   2.0000     -10.295165      -280.1457
  10   2.0000     -10.292486      -280.0728
  11   2.0000     -10.290013      -280.0055
  12   2.0000     -10.286524      -279.9105
  13   2.0000     -10.283146      -279.8186
  14   2.0000     -10.280642      -279.7505
  15   2.0000     -10.275099      -279.5997
  16   2.0000      -8.086568      -220.0467
  17   2.0000      -8.073988      -219.7044
  18   2.0000      -6.045059      -164.4944
  19   2.0000      -6.041136      -164.3877
  20   2.0000      -6.037244      -164.2818
  21   2.0000      -6.032738      -164.1591
  22   2.0000      -6.028663      -164.0483
  23   2.0000      -6.024401      -163.9323
  24   2.0000      -1.008763       -27.4498
  25   2.0000      -0.984733       -26.7959
  26   2.0000      -0.919859       -25.0306
  27   2.0000      -0.911180       -24.7945
  28   2.0000      -0.874443       -23.7948
  29   2.0000      -0.852317       -23.1927
  30   2.0000      -0.840937       -22.8831
  31   2.0000      -0.816051       -22.2059
  32   2.0000      -0.783538       -21.3211
  33   2.0000      -0.772353       -21.0168
  34   2.0000      -0.711434       -19.3591
  35   2.0000      -0.697383       -18.9768
  36   2.0000      -0.692021       -18.8308
  37   2.0000      -0.658057       -17.9066
  38   2.0000      -0.636019       -17.3070
  39   2.0000      -0.626025       -17.0350
  40   2.0000      -0.591114       -16.0850
  41   2.0000      -0.576164       -15.6782
  42   2.0000      -0.573358       -15.6019
  43   2.0000      -0.562637       -15.3101
  44   2.0000      -0.528859       -14.3910
  45   2.0000      -0.522561       -14.2196
  46   2.0000      -0.520698       -14.1689
  47   2.0000      -0.516061       -14.0427
  48   2.0000      -0.507842       -13.8191
  49   2.0000      -0.498479       -13.5643
  50   2.0000      -0.493520       -13.4294
  51   2.0000      -0.476553       -12.9677
  52   2.0000      -0.469933       -12.7875
  53   2.0000      -0.463927       -12.6241
  54   2.0000      -0.457829       -12.4582
  55   2.0000      -0.452434       -12.3113
  56   2.0000      -0.446436       -12.1481
  57   2.0000      -0.438223       -11.9247
  58   2.0000      -0.429347       -11.6831
  59   2.0000      -0.425372       -11.5750
  60   2.0000      -0.422205       -11.4888
  61   2.0000      -0.419011       -11.4019
  62   2.0000      -0.410277       -11.1642
  63   2.0000      -0.348636        -9.4869
  64   2.0000      -0.335846        -9.1388
  65   2.0000      -0.325542        -8.8584
  66   2.0000      -0.296391        -8.0652
  67   0.0000       0.024967         0.6794
  68   0.0000       0.076596         2.0843
  69   0.0000       0.106792         2.9060
  70   0.0000       0.120455         3.2777
  71   0.0000       0.127499         3.4694

MULLIKEN ATOMIC CHARGES
-----------------------
   0 S :    0.126840
   1 C :   -0.120926
   2 C :   -0.094291
   3 C :    0.008123
   4 C :   -0.149639
   5 H :    0.036435
   6 C :    0.083757
   7 H :   -0.005599
   8 H :    0.043555
   9 C :   -0.104425
  10 H :    0.052696
  11 H :    0.033020
  12 C :   -0.058262
  13 H :    0.041464
  14 H :    0.042382
  15 H :    0.028468
  16 S :    0.076479
  17 C :   -0.064595
  18 C :   -0.040318
  19 C :   -0.074020
  20 C :   -0.141767
  21 H :    0.027000
  22 C :    0.122538
  23 H :    0.008928
  24 H :   -0.000286
  25 C :   -0.047530
  26 H :    0.019618
  27 H :    0.016025
  28 C :   -0.067924
  29 H :    0.046420
  30 H :    0.032565
  31 H :    0.030794
  32 H :    0.032893
  33 H :    0.059581
Sum of atomic charges:   -0.0000000

LOEWDIN ATOMIC CHARGES
----------------------
   0 S :    0.421263
   1 C :   -0.193912
   2 C :   -0.064568
   3 C :   -0.063067
   4 C :   -0.197217
   5 H :    0.037180
   6 C :   -0.028882
   7 H :    0.017326
   8 H :    0.040102
   9 C :   -0.047685
  10 H :    0.033099
  11 H :    0.029288
  12 C :   -0.072574
  13 H :    0.028107
  14 H :    0.027098
  15 H :    0.028848
  16 S :    0.366190
  17 C :   -0.181116
  18 C :   -0.075808
  19 C :   -0.051217
  20 C :   -0.186170
  21 H :    0.034930
  22 C :   -0.024860
  23 H :    0.019578
  24 H :    0.022085
  25 C :   -0.029598
  26 H :    0.023472
  27 H :    0.013292
  28 C :   -0.072735
  29 H :    0.032838
  30 H :    0.024890
  31 H :    0.027706
  32 H :    0.025785
  33 H :    0.036331

  Mayer bond orders larger than 0.100000
B(  0-S ,  1-C ) :   1.1135 B(  0-S ,  4-C ) :   1.1719 B(  1-C ,  2-C ) :   1.6548
B(  1-C , 32-H ) :   0.9616 B(  2-C ,  3-C ) :   1.2364 B(  2-C ,  6-C ) :   1.0243
B(  3-C ,  4-C ) :   1.5414 B(  3-C ,  5-H ) :   0.9835 B(  4-C , 20-C ) :   1.0493
B(  6-C ,  7-H ) :   0.9372 B(  6-C ,  8-H ) :   0.9348 B(  6-C ,  9-C ) :   1.0592
B(  9-C , 10-H ) :   0.9581 B(  9-C , 11-H ) :   0.9478 B(  9-C , 12-C ) :   1.0893
B( 12-C , 13-H ) :   0.9743 B( 12-C , 14-H ) :   0.9738 B( 12-C , 15-H ) :   0.9710
B( 16-S , 17-C ) :   1.1274 B( 16-S , 20-C ) :   1.1029 B( 17-C , 18-C ) :   1.6621
B( 17-C , 33-H ) :   0.9578 B( 18-C , 19-C ) :   1.2119 B( 18-C , 21-H ) :   0.9811
B( 19-C , 20-C ) :   1.6261 B( 19-C , 22-C ) :   1.0624 B( 22-C , 23-H ) :   0.9278
B( 22-C , 24-H ) :   0.9167 B( 22-C , 25-C ) :   1.0741 B( 25-C , 26-H ) :   0.9541
B( 25-C , 27-H ) :   0.9546 B( 25-C , 28-C ) :   1.0783 B( 28-C , 29-H ) :   0.9761
B( 28-C , 30-H ) :   0.9744 B( 28-C , 31-H ) :   0.9743

Dispersion correction           -0.014064309
FINAL SINGLE POINT ENERGY     -1339.875453331469

DIPOLE MOMENT
-------------
                                X             Y             Z
Electronic contribution:     11.73875      10.00826     -29.00108
Nuclear contribution   :    -12.02786     -10.30793      29.56345
                        -----------------------------------------
Total Dipole Moment    :     -0.28912      -0.29967       0.56237
                        -----------------------------------------
Magnitude (a.u.)       :      0.69975
Magnitude (Debye)      :      1.77862

Rotational constants in cm-1:     0.017896     0.009274     0.006437
Rotational constants in MHz :   536.501197   278.037749   192.974234

                             ****ORCA TERMINATED NORMALLY****
TOTAL RUN TIME: 0 days 0 hours 0 minutes 21 seconds 617 msec
