                         Program Version 4.2.1 -  RELEASE  -
|  1> ! wB97X-D3 SP def2-SVP
|  2> %pal
|  3> nprocs 24
|  4> end
|  5>
|  6> * xyz 0 1
|  7> S 	 -84.5138 	 0.841309 	 -115.037
|  8> C 	 -84.356 	 0.748379 	 -116.787
|  9> C 	 -85.5939 	 0.498172 	 -117.452
| 10> C 	 -86.6749 	 0.460364 	 -116.511
| 11> C 	 -86.3122 	 0.615862 	 -115.186
| 12> H 	 -87.7068 	 0.321041 	 -116.691
| 13> C 	 -85.8013 	 0.342584 	 -118.889
| 14> H 	 -86.2188 	 -0.643369 	 -119.208
| 15> H 	 -84.8284 	 0.393689 	 -119.367
| 16> C 	 -86.7778 	 1.33124 	 -119.523
| 17> H 	 -87.0007 	 1.03034 	 -120.573
| 18> H 	 -87.667 	 1.13695 	 -118.991
| 19> C 	 -86.2935 	 2.76849 	 -119.494
| 20> H 	 -86.2806 	 3.22685 	 -118.55
| 21> H 	 -85.3054 	 2.92649 	 -119.961
| 22> H 	 -87.0391 	 3.43348 	 -120.063
| 23> S 	 -88.2297 	 -0.572875 	 -113.588
| 24> C 	 -88.8565 	 0.255775 	 -112.168
| 25> C 	 -88.3566 	 1.53721 	 -112.159
| 26> C 	 -87.4549 	 1.91859 	 -113.191
| 27> C 	 -87.2026 	 0.803038 	 -114.007
| 28> H 	 -88.6457 	 2.22018 	 -111.373
| 29> C 	 -86.6695 	 3.23236 	 -113.18
| 30> H 	 -85.5631 	 3.10844 	 -113.307
| 31> H 	 -86.6983 	 3.59978 	 -112.183
| 32> C 	 -87.0338 	 4.21015 	 -114.34
| 33> H 	 -87.0967 	 3.53057 	 -115.152
| 34> H 	 -86.3528 	 4.97548 	 -114.573
| 35> C 	 -88.4011 	 4.87946 	 -114.312
| 36> H 	 -89.2839 	 4.20303 	 -114.244
| 37> H 	 -88.5111 	 5.59586 	 -115.129
| 38> H 	 -88.5312 	 5.50782 	 -113.383
| 39> H 	 -83.4524 	 0.622133 	 -117.404
| 40> H 	 -89.6866 	 -0.0699637 	 -111.649
| 41> *
| 42>
| 43>                          ****END OF INPUT****

CARTESIAN COORDINATES (ANGSTROEM)
---------------------------------
  S    -84.513800    0.841309  -115.037000
  C    -84.356000    0.748379  -116.787000
  C    -85.593900    0.498172  -117.452000
  C    -86.674900    0.460364  -116.511000
  C    -86.312200    0.615862  -115.186000
  H    -87.706800    0.321041  -116.691000
  C    -85.801300    0.342584  -118.889000
  H    -86.218800   -0.643369  -119.208000
  H    -84.828400    0.393689  -119.367000
  C    -86.777800    1.331240  -119.523000
  H    -87.000700    1.030340  -120.573000
  H    -87.667000    1.136950  -118.991000
  C    -86.293500    2.768490  -119.494000
  H    -86.280600    3.226850  -118.550000
  H    -85.305400    2.926490  -119.961000
  H    -87.039100    3.433480  -120.063000
  S    -88.229700   -0.572875  -113.588000
  C    -88.856500    0.255775  -112.168000
  C    -88.356600    1.537210  -112.159000
  C    -87.454900    1.918590  -113.191000
  C    -87.202600    0.803038  -114.007000
  H    -88.645700    2.220180  -111.373000
  C    -86.669500    3.232360  -113.180000
  H    -85.563100    3.108440  -113.307000
  H    -86.698300    3.599780  -112.183000
  C    -87.033800    4.210150  -114.340000
  H    -87.096700    3.530570  -115.152000
  H    -86.352800    4.975480  -114.573000
  C    -88.401100    4.879460  -114.312000
  H    -89.283900    4.203030  -114.244000
  H    -88.511100    5.595860  -115.129000
  H    -88.531200    5.507820  -113.383000
  H    -83.452400    0.622133  -117.404000
  H    -89.686600   -0.069964  -111.649000

 Total Charge           Charge          ....    0
 Multiplicity           Mult            ....    1
 Number of Electrons    NEL             ....  134
 Basis Dimension        Dim             ....  322

ORBITAL ENERGIES
----------------

  NO   OCC          E(Eh)            E(eV)
   0   2.0000     -88.972513     -2421.0652
   1   2.0000     -88.967132     -2420.9187
   2   2.0000     -10.337645      -281.3016
   3   2.0000     -10.334810      -281.2245
   4   2.0000     -10.323375      -280.9133
   5   2.0000     -10.313887      -280.6551
   6   2.0000     -10.308451      -280.5072
   7   2.0000     -10.305295      -280.4213
   8   2.0000     -10.296645      -280.1860
   9   2.0000     -10.295202      -280.1467
  10   2.0000     -10.294849      -280.1371
  11   2.0000     -10.289872      -280.0016
  12   2.0000     -10.286181      -279.9012
  13   2.0000     -10.278088      -279.6810
  14   2.0000     -10.277852      -279.6746
  15   2.0000     -10.277013      -279.6517
  16   2.0000      -8.085346      -220.0135
  17   2.0000      -8.081430      -219.9069
  18   2.0000      -6.043993      -164.4654
  19   2.0000      -6.040144      -164.3607
  20   2.0000      -6.039870      -164.3532
  21   2.0000      -6.036047      -164.2492
  22   2.0000      -6.035916      -164.2456
  23   2.0000      -6.032365      -164.1490
  24   2.0000      -1.000425       -27.2229
  25   2.0000      -0.979509       -26.6538
  26   2.0000      -0.917454       -24.9652
  27   2.0000      -0.904881       -24.6231
  28   2.0000      -0.865825       -23.5603
  29   2.0000      -0.849981       -23.1291
  30   2.0000      -0.845915       -23.0185
  31   2.0000      -0.815251       -22.1841
  32   2.0000      -0.783478       -21.3195
  33   2.0000      -0.773577       -21.0501
  34   2.0000      -0.713399       -19.4126
  35   2.0000      -0.698407       -19.0046
  36   2.0000      -0.688762       -18.7422
  37   2.0000      -0.667110       -18.1530
  38   2.0000      -0.638384       -17.3713
  39   2.0000      -0.622789       -16.9470
  40   2.0000      -0.598731       -16.2923
  41   2.0000      -0.567218       -15.4348
  42   2.0000      -0.560628       -15.2555
  43   2.0000      -0.551265       -15.0007
  44   2.0000      -0.542821       -14.7709
  45   2.0000      -0.535670       -14.5763
  46   2.0000      -0.515736       -14.0339
  47   2.0000      -0.509019       -13.8511
  48   2.0000      -0.499600       -13.5948
  49   2.0000      -0.491751       -13.3812
  50   2.0000      -0.488917       -13.3041
  51   2.0000      -0.478863       -13.0305
  52   2.0000      -0.475293       -12.9334
  53   2.0000      -0.466719       -12.7001
  54   2.0000      -0.458355       -12.4725
  55   2.0000      -0.445650       -12.1268
  56   2.0000      -0.442530       -12.0418
  57   2.0000      -0.432313       -11.7638
  58   2.0000      -0.427493       -11.6327
  59   2.0000      -0.423858       -11.5338
  60   2.0000      -0.422782       -11.5045
  61   2.0000      -0.419567       -11.4170
  62   2.0000      -0.410545       -11.1715
  63   2.0000      -0.343024        -9.3342
  64   2.0000      -0.334968        -9.1150
  65   2.0000      -0.326307        -8.8793
  66   2.0000      -0.298704        -8.1281
  67   0.0000       0.027450         0.7469
  68   0.0000       0.056623         1.5408
  69   0.0000       0.106140         2.8882
  70   0.0000       0.112173         3.0524
  71   0.0000       0.122062         3.3215

MULLIKEN ATOMIC CHARGES
-----------------------
   0 S :    0.112611
   1 C :   -0.106629
   2 C :   -0.098470
   3 C :    0.055085
   4 C :   -0.160537
   5 H :    0.002701
   6 C :    0.063372
   7 H :    0.039760
   8 H :    0.004158
   9 C :   -0.062613
  10 H :    0.032612
  11 H :    0.017020
  12 C :   -0.057371
  13 H :    0.033212
  14 H :    0.034781
  15 H :    0.034116
  16 S :    0.098991
  17 C :   -0.056444
  18 C :   -0.051609
  19 C :    0.002613
  20 C :   -0.192630
  21 H :    0.017973
  22 C :    0.058141
  23 H :    0.038489
  24 H :    0.010045
  25 C :   -0.021862
  26 H :    0.026563
  27 H :    0.023863
  28 C :   -0.086803
  29 H :    0.037881
  30 H :    0.035200
  31 H :    0.019448
  32 H :    0.057136
  33 H :    0.039199
Sum of atomic charges:   -0.0000000

LOEWDIN ATOMIC CHARGES
----------------------
   0 S :    0.385074
   1 C :   -0.200265
   2 C :   -0.062144
   3 C :   -0.051305
   4 C :   -0.175649
   5 H :    0.025865
   6 C :   -0.039608
   7 H :    0.039362
   8 H :    0.024129
   9 C :   -0.038012
  10 H :    0.029780
  11 H :    0.017045
  12 C :   -0.069446
  13 H :    0.019168
  14 H :    0.028435
  15 H :    0.034529
  16 S :    0.401844
  17 C :   -0.177150
  18 C :   -0.065200
  19 C :   -0.058151
  20 C :   -0.189143
  21 H :    0.029201
  22 C :   -0.030056
  23 H :    0.037500
  24 H :    0.021212
  25 C :   -0.034459
  26 H :    0.025194
  27 H :    0.020811
  28 C :   -0.074997
  29 H :    0.026249
  30 H :    0.025673
  31 H :    0.022718
  32 H :    0.035077
  33 H :    0.016717

  Mayer bond orders larger than 0.100000
B(  0-S ,  1-C ) :   1.1415 B(  0-S ,  4-C ) :   1.1248 B(  1-C ,  2-C ) :   1.6087
B(  1-C , 32-H ) :   0.9541 B(  2-C ,  3-C ) :   1.2106 B(  2-C ,  6-C ) :   1.0531
B(  3-C ,  4-C ) :   1.6190 B(  3-C ,  5-H ) :   0.9909 B(  4-C , 20-C ) :   1.0004
B(  6-C ,  7-H ) :   0.9343 B(  6-C ,  8-H ) :   0.9334 B(  6-C ,  9-C ) :   1.0691
B(  9-C , 10-H ) :   0.9542 B(  9-C , 11-H ) :   0.9539 B(  9-C , 12-C ) :   1.0747
B( 12-C , 13-H ) :   0.9750 B( 12-C , 14-H ) :   0.9744 B( 12-C , 15-H ) :   0.9721
B( 16-S , 17-C ) :   1.1406 B( 16-S , 20-C ) :   1.1702 B( 17-C , 18-C ) :   1.6013
B( 17-C , 20-C ) :   0.1047 B( 17-C , 33-H ) :   0.9771 B( 18-C , 19-C ) :   1.2604
B( 18-C , 21-H ) :   0.9822 B( 19-C , 20-C ) :   1.5569 B( 19-C , 22-C ) :   1.0290
B( 22-C , 23-H ) :   0.9417 B( 22-C , 24-H ) :   0.9448 B( 22-C , 25-C ) :   1.0434
B( 25-C , 26-H ) :   0.9559 B( 25-C , 27-H ) :   0.9585 B( 25-C , 28-C ) :   1.0801
B( 28-C , 29-H ) :   0.9754 B( 28-C , 30-H ) :   0.9750 B( 28-C , 31-H ) :   0.9744

Dispersion correction           -0.015245356
FINAL SINGLE POINT ENERGY     -1339.871493132257

DIPOLE MOMENT
-------------
                                X             Y             Z
Electronic contribution:      4.23624     -19.33167      15.84279
Nuclear contribution   :     -4.41750      19.63562     -16.16769
                        -----------------------------------------
Total Dipole Moment    :     -0.18126       0.30395      -0.32490
                        -----------------------------------------
Magnitude (a.u.)       :      0.48042
Magnitude (Debye)      :      1.22112

Rotational constants in cm-1:     0.018309     0.009141     0.007934
Rotational constants in MHz :   548.901039   274.031959   237.867967

                             ****ORCA TERMINATED NORMALLY****
TOTAL RUN TIME: 0 days 0 hours 0 minutes 22 seconds 173 msec
