                         Program Version 4.2.1 -  RELEASE  -
|  1> ! wB97X-D3 SP def2-SVP
|  2> %pal
|  3> nprocs 24
|  4> end
|  5>
|  6> * xyz 0 1
|  7> S 	 -109.362 	 56.2962 	 -94.5887
|  8> C 	 -110.361 	 56.2496 	 -95.9858
|  9> C 	 -111.647 	 55.8308 	 -95.7321
| 10> C 	 -111.875 	 55.4287 	 -94.3706
| 11> C 	 -110.689 	 55.5336 	 -93.6626
| 12> H 	 -112.755 	 55.0367 	 -93.8287
| 13> C 	 -112.759 	 55.7175 	 -96.7924
| 14> H 	 -112.601 	 56.3686 	 -97.6413
| 15> H 	 -113.745 	 55.988 	 -96.4203
| 16> C 	 -112.742 	 54.2795 	 -97.4031
| 17> H 	 -111.728 	 54.0977 	 -97.692
| 18> H 	 -113.022 	 53.6195 	 -96.537
| 19> C 	 -113.711 	 54.1839 	 -98.5149
| 20> H 	 -113.606 	 53.2041 	 -98.9908
| 21> H 	 -114.705 	 54.5035 	 -98.2675
| 22> H 	 -113.356 	 54.8831 	 -99.2689
| 23> S 	 -109.761 	 56.4366 	 -91.2763
| 24> C 	 -109.81 	 55.4805 	 -89.8317
| 25> C 	 -110.212 	 54.1827 	 -90.1456
| 26> C 	 -110.654 	 54.0054 	 -91.4428
| 27> C 	 -110.431 	 55.1142 	 -92.2555
| 28> H 	 -110.32 	 53.3878 	 -89.4667
| 29> C 	 -111.197 	 52.6933 	 -91.9444
| 30> H 	 -110.425 	 52.0379 	 -91.5823
| 31> H 	 -111.168 	 52.5245 	 -93.0357
| 32> C 	 -112.623 	 52.2855 	 -91.495
| 33> H 	 -113.352 	 52.9017 	 -91.9851
| 34> H 	 -112.743 	 52.3804 	 -90.3416
| 35> C 	 -112.701 	 50.7901 	 -91.8586
| 36> H 	 -112.88 	 50.6055 	 -92.9392
| 37> H 	 -113.569 	 50.3693 	 -91.3453
| 38> H 	 -111.831 	 50.2739 	 -91.5215
| 39> H 	 -109.999 	 56.6086 	 -96.9764
| 40> H 	 -109.47 	 55.7701 	 -88.8138
| 41> *
| 42>
| 43>                          ****END OF INPUT****

CARTESIAN COORDINATES (ANGSTROEM)
---------------------------------
  S    -109.362000   56.296200  -94.588700
  C    -110.361000   56.249600  -95.985800
  C    -111.647000   55.830800  -95.732100
  C    -111.875000   55.428700  -94.370600
  C    -110.689000   55.533600  -93.662600
  H    -112.755000   55.036700  -93.828700
  C    -112.759000   55.717500  -96.792400
  H    -112.601000   56.368600  -97.641300
  H    -113.745000   55.988000  -96.420300
  C    -112.742000   54.279500  -97.403100
  H    -111.728000   54.097700  -97.692000
  H    -113.022000   53.619500  -96.537000
  C    -113.711000   54.183900  -98.514900
  H    -113.606000   53.204100  -98.990800
  H    -114.705000   54.503500  -98.267500
  H    -113.356000   54.883100  -99.268900
  S    -109.761000   56.436600  -91.276300
  C    -109.810000   55.480500  -89.831700
  C    -110.212000   54.182700  -90.145600
  C    -110.654000   54.005400  -91.442800
  C    -110.431000   55.114200  -92.255500
  H    -110.320000   53.387800  -89.466700
  C    -111.197000   52.693300  -91.944400
  H    -110.425000   52.037900  -91.582300
  H    -111.168000   52.524500  -93.035700
  C    -112.623000   52.285500  -91.495000
  H    -113.352000   52.901700  -91.985100
  H    -112.743000   52.380400  -90.341600
  C    -112.701000   50.790100  -91.858600
  H    -112.880000   50.605500  -92.939200
  H    -113.569000   50.369300  -91.345300
  H    -111.831000   50.273900  -91.521500
  H    -109.999000   56.608600  -96.976400
  H    -109.470000   55.770100  -88.813800

 Total Charge           Charge          ....    0
 Multiplicity           Mult            ....    1
 Number of Electrons    NEL             ....  134
 Basis Dimension        Dim             ....  322

ORBITAL ENERGIES
----------------

  NO   OCC          E(Eh)            E(eV)
   0   2.0000     -88.966983     -2420.9147
   1   2.0000     -88.962860     -2420.8025
   2   2.0000     -10.333674      -281.1936
   3   2.0000     -10.325997      -280.9847
   4   2.0000     -10.320442      -280.8335
   5   2.0000     -10.313838      -280.6538
   6   2.0000     -10.304177      -280.3909
   7   2.0000     -10.299838      -280.2728
   8   2.0000     -10.297531      -280.2101
   9   2.0000     -10.296386      -280.1789
  10   2.0000     -10.289960      -280.0040
  11   2.0000     -10.289267      -279.9852
  12   2.0000     -10.286296      -279.9044
  13   2.0000     -10.282784      -279.8088
  14   2.0000     -10.279223      -279.7119
  15   2.0000     -10.274008      -279.5700
  16   2.0000      -8.081789      -219.9166
  17   2.0000      -8.077530      -219.8008
  18   2.0000      -6.040268      -164.3641
  19   2.0000      -6.036448      -164.2601
  20   2.0000      -6.036018      -164.2484
  21   2.0000      -6.032414      -164.1503
  22   2.0000      -6.031892      -164.1361
  23   2.0000      -6.028471      -164.0430
  24   2.0000      -1.004603       -27.3366
  25   2.0000      -0.984963       -26.8022
  26   2.0000      -0.914307       -24.8796
  27   2.0000      -0.910944       -24.7881
  28   2.0000      -0.865612       -23.5545
  29   2.0000      -0.855620       -23.2826
  30   2.0000      -0.850629       -23.1468
  31   2.0000      -0.811672       -22.0867
  32   2.0000      -0.777396       -21.1540
  33   2.0000      -0.765329       -20.8257
  34   2.0000      -0.703782       -19.1509
  35   2.0000      -0.694855       -18.9080
  36   2.0000      -0.690735       -18.7959
  37   2.0000      -0.667746       -18.1703
  38   2.0000      -0.644518       -17.5382
  39   2.0000      -0.615848       -16.7581
  40   2.0000      -0.598045       -16.2736
  41   2.0000      -0.574490       -15.6327
  42   2.0000      -0.565569       -15.3899
  43   2.0000      -0.554414       -15.0864
  44   2.0000      -0.528333       -14.3767
  45   2.0000      -0.523561       -14.2468
  46   2.0000      -0.514780       -14.0079
  47   2.0000      -0.511311       -13.9135
  48   2.0000      -0.507206       -13.8018
  49   2.0000      -0.495415       -13.4809
  50   2.0000      -0.492891       -13.4122
  51   2.0000      -0.478190       -13.0122
  52   2.0000      -0.469089       -12.7646
  53   2.0000      -0.466102       -12.6833
  54   2.0000      -0.459169       -12.4946
  55   2.0000      -0.453593       -12.3429
  56   2.0000      -0.449761       -12.2386
  57   2.0000      -0.440027       -11.9737
  58   2.0000      -0.436190       -11.8693
  59   2.0000      -0.426767       -11.6129
  60   2.0000      -0.424418       -11.5490
  61   2.0000      -0.412790       -11.2326
  62   2.0000      -0.403788       -10.9876
  63   2.0000      -0.346211        -9.4209
  64   2.0000      -0.331648        -9.0246
  65   2.0000      -0.329982        -8.9793
  66   2.0000      -0.288054        -7.8384
  67   0.0000       0.032558         0.8860
  68   0.0000       0.065511         1.7826
  69   0.0000       0.110314         3.0018
  70   0.0000       0.123175         3.3518
  71   0.0000       0.131827         3.5872

MULLIKEN ATOMIC CHARGES
-----------------------
   0 S :    0.115468
   1 C :   -0.126784
   2 C :   -0.073437
   3 C :    0.029280
   4 C :   -0.149692
   5 H :    0.030459
   6 C :    0.046458
   7 H :    0.006271
   8 H :    0.023147
   9 C :   -0.090353
  10 H :    0.024335
  11 H :    0.027851
  12 C :    0.009918
  13 H :    0.038538
  14 H :    0.027743
  15 H :    0.012476
  16 S :    0.093202
  17 C :   -0.090044
  18 C :   -0.015348
  19 C :   -0.002363
  20 C :   -0.169347
  21 H :   -0.008936
  22 C :    0.002725
  23 H :    0.024499
  24 H :    0.031663
  25 C :   -0.080237
  26 H :    0.032238
  27 H :    0.042404
  28 C :   -0.039543
  29 H :    0.040060
  30 H :    0.029120
  31 H :    0.027968
  32 H :    0.059134
  33 H :    0.071127
Sum of atomic charges:   -0.0000000

LOEWDIN ATOMIC CHARGES
----------------------
   0 S :    0.399873
   1 C :   -0.213991
   2 C :   -0.060333
   3 C :   -0.064270
   4 C :   -0.178162
   5 H :    0.042715
   6 C :   -0.028980
   7 H :    0.021086
   8 H :    0.025716
   9 C :   -0.038280
  10 H :    0.021038
  11 H :    0.023725
  12 C :   -0.064138
  13 H :    0.030821
  14 H :    0.023570
  15 H :    0.024684
  16 S :    0.404740
  17 C :   -0.194498
  18 C :   -0.070995
  19 C :   -0.063573
  20 C :   -0.191372
  21 H :    0.021683
  22 C :   -0.037393
  23 H :    0.030553
  24 H :    0.034488
  25 C :   -0.035958
  26 H :    0.019800
  27 H :    0.031743
  28 C :   -0.064254
  29 H :    0.029648
  30 H :    0.024873
  31 H :    0.021381
  32 H :    0.034836
  33 H :    0.039226

  Mayer bond orders larger than 0.100000
B(  0-S ,  1-C ) :   1.1297 B(  0-S ,  4-C ) :   1.1519 B(  1-C ,  2-C ) :   1.6388
B(  1-C , 32-H ) :   0.9610 B(  2-C ,  3-C ) :   1.1961 B(  2-C ,  6-C ) :   1.0285
B(  3-C ,  4-C ) :   1.6003 B(  3-C ,  5-H ) :   0.9939 B(  4-C , 20-C ) :   0.9994
B(  6-C ,  7-H ) :   0.9443 B(  6-C ,  8-H ) :   0.9455 B(  6-C ,  9-C ) :   1.0532
B(  9-C , 10-H ) :   0.9561 B(  9-C , 11-H ) :   0.9548 B(  9-C , 12-C ) :   1.0928
B( 12-C , 13-H ) :   0.9687 B( 12-C , 14-H ) :   0.9701 B( 12-C , 15-H ) :   0.9667
B( 16-S , 17-C ) :   1.1713 B( 16-S , 20-C ) :   1.1483 B( 17-C , 18-C ) :   1.5536
B( 17-C , 20-C ) :   0.1128 B( 17-C , 33-H ) :   0.9643 B( 18-C , 19-C ) :   1.2949
B( 18-C , 21-H ) :   0.9896 B( 19-C , 20-C ) :   1.5812 B( 19-C , 22-C ) :   1.0126
B( 22-C , 23-H ) :   0.9448 B( 22-C , 24-H ) :   0.9452 B( 22-C , 25-C ) :   1.0528
B( 25-C , 26-H ) :   0.9545 B( 25-C , 27-H ) :   0.9590 B( 25-C , 28-C ) :   1.0716
B( 28-C , 29-H ) :   0.9737 B( 28-C , 30-H ) :   0.9739 B( 28-C , 31-H ) :   0.9766

Dispersion correction           -0.013664770
FINAL SINGLE POINT ENERGY     -1339.877949016347

DIPOLE MOMENT
-------------
                                X             Y             Z
Electronic contribution:     20.11394      20.96660      12.25014
Nuclear contribution   :    -20.55844     -21.47127     -12.39770
                        -----------------------------------------
Total Dipole Moment    :     -0.44450      -0.50467      -0.14756
                        -----------------------------------------
Magnitude (a.u.)       :      0.68851
Magnitude (Debye)      :      1.75006

Rotational constants in cm-1:     0.017108     0.008947     0.006229
Rotational constants in MHz :   512.891283   268.224032   186.737338

                             ****ORCA TERMINATED NORMALLY****
TOTAL RUN TIME: 0 days 0 hours 0 minutes 21 seconds 191 msec
