                         Program Version 4.2.1 -  RELEASE  -
|  1> ! wB97X-D3 SP def2-SVP
|  2> %pal
|  3> nprocs 24
|  4> end
|  5>
|  6> * xyz 0 1
|  7> S 	 -0.385612 	 -25.9344 	 -112.298
|  8> C 	 0.652457 	 -24.6701 	 -112.787
|  9> C 	 0.444423 	 -23.5 	 -112.094
| 10> C 	 -0.681764 	 -23.5898 	 -111.192
| 11> C 	 -1.33591 	 -24.865 	 -111.279
| 12> H 	 -1.12414 	 -22.8417 	 -110.581
| 13> C 	 1.14773 	 -22.1927 	 -112.255
| 14> H 	 2.16977 	 -22.2217 	 -112.745
| 15> H 	 1.33297 	 -21.7224 	 -111.267
| 16> C 	 0.399788 	 -21.1764 	 -113.079
| 17> H 	 -0.168566 	 -20.4888 	 -112.496
| 18> H 	 1.22621 	 -20.6028 	 -113.642
| 19> C 	 -0.423487 	 -21.7218 	 -114.257
| 20> H 	 -1.04188 	 -22.6029 	 -114.03
| 21> H 	 -0.998481 	 -20.9144 	 -114.719
| 22> H 	 0.203738 	 -22.0708 	 -115.083
| 23> S 	 -1.55226 	 -26.4958 	 -109.083
| 24> C 	 -3.18025 	 -26.7717 	 -108.437
| 25> C 	 -4.13033 	 -26.0773 	 -109.185
| 26> C 	 -3.6071 	 -25.3139 	 -110.266
| 27> C 	 -2.26713 	 -25.4699 	 -110.368
| 28> H 	 -5.19993 	 -26.2481 	 -108.951
| 29> C 	 -4.51179 	 -24.4233 	 -111.072
| 30> H 	 -3.86167 	 -23.6109 	 -111.519
| 31> H 	 -5.11499 	 -23.9064 	 -110.294
| 32> C 	 -5.47342 	 -25.0911 	 -112.079
| 33> H 	 -6.26405 	 -24.488 	 -112.336
| 34> H 	 -5.90029 	 -25.8916 	 -111.526
| 35> C 	 -4.63973 	 -25.6259 	 -113.194
| 36> H 	 -4.15445 	 -24.9983 	 -113.864
| 37> H 	 -5.41646 	 -26.0816 	 -113.806
| 38> H 	 -3.9033 	 -26.3838 	 -112.786
| 39> H 	 1.46747 	 -24.7185 	 -113.482
| 40> H 	 -3.40858 	 -27.3974 	 -107.635
| 41> *
| 42>
| 43>                          ****END OF INPUT****

CARTESIAN COORDINATES (ANGSTROEM)
---------------------------------
  S     -0.385612  -25.934400  -112.298000
  C      0.652457  -24.670100  -112.787000
  C      0.444423  -23.500000  -112.094000
  C     -0.681764  -23.589800  -111.192000
  C     -1.335910  -24.865000  -111.279000
  H     -1.124140  -22.841700  -110.581000
  C      1.147730  -22.192700  -112.255000
  H      2.169770  -22.221700  -112.745000
  H      1.332970  -21.722400  -111.267000
  C      0.399788  -21.176400  -113.079000
  H     -0.168566  -20.488800  -112.496000
  H      1.226210  -20.602800  -113.642000
  C     -0.423487  -21.721800  -114.257000
  H     -1.041880  -22.602900  -114.030000
  H     -0.998481  -20.914400  -114.719000
  H      0.203738  -22.070800  -115.083000
  S     -1.552260  -26.495800  -109.083000
  C     -3.180250  -26.771700  -108.437000
  C     -4.130330  -26.077300  -109.185000
  C     -3.607100  -25.313900  -110.266000
  C     -2.267130  -25.469900  -110.368000
  H     -5.199930  -26.248100  -108.951000
  C     -4.511790  -24.423300  -111.072000
  H     -3.861670  -23.610900  -111.519000
  H     -5.114990  -23.906400  -110.294000
  C     -5.473420  -25.091100  -112.079000
  H     -6.264050  -24.488000  -112.336000
  H     -5.900290  -25.891600  -111.526000
  C     -4.639730  -25.625900  -113.194000
  H     -4.154450  -24.998300  -113.864000
  H     -5.416460  -26.081600  -113.806000
  H     -3.903300  -26.383800  -112.786000
  H      1.467470  -24.718500  -113.482000
  H     -3.408580  -27.397400  -107.635000

 Total Charge           Charge          ....    0
 Multiplicity           Mult            ....    1
 Number of Electrons    NEL             ....  134
 Basis Dimension        Dim             ....  322

ORBITAL ENERGIES
----------------

  NO   OCC          E(Eh)            E(eV)
   0   2.0000     -88.967451     -2420.9274
   1   2.0000     -88.964294     -2420.8415
   2   2.0000     -10.329286      -281.0742
   3   2.0000     -10.322418      -280.8873
   4   2.0000     -10.316475      -280.7255
   5   2.0000     -10.310510      -280.5632
   6   2.0000     -10.300954      -280.3032
   7   2.0000     -10.300013      -280.2776
   8   2.0000     -10.299274      -280.2575
   9   2.0000     -10.294905      -280.1386
  10   2.0000     -10.294049      -280.1153
  11   2.0000     -10.291923      -280.0575
  12   2.0000     -10.286318      -279.9049
  13   2.0000     -10.276172      -279.6289
  14   2.0000     -10.272950      -279.5412
  15   2.0000     -10.266796      -279.3737
  16   2.0000      -8.082570      -219.9379
  17   2.0000      -8.078192      -219.8188
  18   2.0000      -6.040911      -164.3816
  19   2.0000      -6.036905      -164.2725
  20   2.0000      -6.036791      -164.2694
  21   2.0000      -6.033585      -164.1822
  22   2.0000      -6.032938      -164.1646
  23   2.0000      -6.028776      -164.0513
  24   2.0000      -1.005954       -27.3734
  25   2.0000      -0.982274       -26.7290
  26   2.0000      -0.915487       -24.9117
  27   2.0000      -0.913065       -24.8458
  28   2.0000      -0.868591       -23.6356
  29   2.0000      -0.852728       -23.2039
  30   2.0000      -0.843822       -22.9616
  31   2.0000      -0.807432       -21.9714
  32   2.0000      -0.783901       -21.3310
  33   2.0000      -0.774805       -21.0835
  34   2.0000      -0.710684       -19.3387
  35   2.0000      -0.701004       -19.0753
  36   2.0000      -0.690563       -18.7912
  37   2.0000      -0.661433       -17.9985
  38   2.0000      -0.642435       -17.4815
  39   2.0000      -0.613033       -16.6815
  40   2.0000      -0.595979       -16.2174
  41   2.0000      -0.565234       -15.3808
  42   2.0000      -0.563277       -15.3276
  43   2.0000      -0.556776       -15.1506
  44   2.0000      -0.544572       -14.8186
  45   2.0000      -0.533732       -14.5236
  46   2.0000      -0.521528       -14.1915
  47   2.0000      -0.505097       -13.7444
  48   2.0000      -0.501771       -13.6539
  49   2.0000      -0.498258       -13.5583
  50   2.0000      -0.495553       -13.4847
  51   2.0000      -0.471724       -12.8363
  52   2.0000      -0.469140       -12.7660
  53   2.0000      -0.461315       -12.5530
  54   2.0000      -0.457622       -12.4525
  55   2.0000      -0.448250       -12.1975
  56   2.0000      -0.443453       -12.0670
  57   2.0000      -0.437196       -11.8967
  58   2.0000      -0.430483       -11.7140
  59   2.0000      -0.424012       -11.5380
  60   2.0000      -0.420253       -11.4357
  61   2.0000      -0.406975       -11.0744
  62   2.0000      -0.402163       -10.9434
  63   2.0000      -0.338037        -9.1985
  64   2.0000      -0.330080        -8.9819
  65   2.0000      -0.323260        -8.7963
  66   2.0000      -0.301961        -8.2168
  67   0.0000       0.036910         1.0044
  68   0.0000       0.053743         1.4624
  69   0.0000       0.112359         3.0574
  70   0.0000       0.116305         3.1648
  71   0.0000       0.127894         3.4802

MULLIKEN ATOMIC CHARGES
-----------------------
   0 S :    0.121490
   1 C :   -0.089751
   2 C :   -0.102365
   3 C :    0.063404
   4 C :   -0.198813
   5 H :    0.008660
   6 C :    0.063080
   7 H :    0.028410
   8 H :    0.037064
   9 C :   -0.104181
  10 H :    0.029115
  11 H :    0.035571
  12 C :   -0.057607
  13 H :    0.052848
  14 H :    0.032977
  15 H :    0.017023
  16 S :    0.111344
  17 C :   -0.073992
  18 C :   -0.052303
  19 C :   -0.018937
  20 C :   -0.179971
  21 H :    0.030484
  22 C :    0.026818
  23 H :    0.032350
  24 H :    0.027145
  25 C :    0.017195
  26 H :    0.011825
  27 H :    0.008495
  28 C :   -0.040518
  29 H :    0.021354
  30 H :    0.020001
  31 H :    0.051145
  32 H :    0.034986
  33 H :    0.035656
Sum of atomic charges:   -0.0000000

LOEWDIN ATOMIC CHARGES
----------------------
   0 S :    0.431340
   1 C :   -0.207567
   2 C :   -0.068311
   3 C :   -0.043177
   4 C :   -0.200735
   5 H :    0.026976
   6 C :   -0.044217
   7 H :    0.035870
   8 H :    0.038762
   9 C :   -0.046622
  10 H :    0.015607
  11 H :    0.037170
  12 C :   -0.073707
  13 H :    0.026745
  14 H :    0.027705
  15 H :    0.022386
  16 S :    0.377606
  17 C :   -0.165659
  18 C :   -0.072062
  19 C :   -0.059634
  20 C :   -0.196951
  21 H :    0.034833
  22 C :   -0.034266
  23 H :    0.032788
  24 H :    0.032287
  25 C :   -0.026971
  26 H :    0.014660
  27 H :    0.023344
  28 C :   -0.061170
  29 H :    0.015150
  30 H :    0.026989
  31 H :    0.037302
  32 H :    0.026625
  33 H :    0.016903

  Mayer bond orders larger than 0.100000
B(  0-S ,  1-C ) :   1.1550 B(  0-S ,  4-C ) :   1.1625 B(  1-C ,  2-C ) :   1.5954
B(  1-C , 32-H ) :   0.9658 B(  2-C ,  3-C ) :   1.2359 B(  2-C ,  6-C ) :   1.0477
B(  3-C ,  4-C ) :   1.5458 B(  3-C ,  5-H ) :   1.0013 B(  4-C , 20-C ) :   1.0302
B(  6-C ,  7-H ) :   0.9460 B(  6-C ,  8-H ) :   0.9396 B(  6-C ,  9-C ) :   1.0559
B(  9-C , 10-H ) :   0.9609 B(  9-C , 11-H ) :   0.9636 B(  9-C , 12-C ) :   1.0832
B( 12-C , 13-H ) :   0.9650 B( 12-C , 14-H ) :   0.9733 B( 12-C , 15-H ) :   0.9758
B( 16-S , 17-C ) :   1.1361 B( 16-S , 20-C ) :   1.1219 B( 17-C , 18-C ) :   1.6429
B( 17-C , 33-H ) :   0.9749 B( 18-C , 19-C ) :   1.2081 B( 18-C , 21-H ) :   0.9802
B( 19-C , 20-C ) :   1.6419 B( 19-C , 22-C ) :   1.0350 B( 22-C , 23-H ) :   0.9344
B( 22-C , 24-H ) :   0.9318 B( 22-C , 25-C ) :   1.0722 B( 25-C , 26-H ) :   0.9530
B( 25-C , 27-H ) :   0.9486 B( 25-C , 28-C ) :   1.0750 B( 28-C , 29-H ) :   0.9788
B( 28-C , 30-H ) :   0.9699 B( 28-C , 31-H ) :   0.9720

Dispersion correction           -0.015581569
FINAL SINGLE POINT ENERGY     -1339.863582633725

DIPOLE MOMENT
-------------
                                X             Y             Z
Electronic contribution:      8.16542     -17.03582      14.99548
Nuclear contribution   :     -8.43842      17.48361     -15.07494
                        -----------------------------------------
Total Dipole Moment    :     -0.27300       0.44779      -0.07946
                        -----------------------------------------
Magnitude (a.u.)       :      0.53043
Magnitude (Debye)      :      1.34825

Rotational constants in cm-1:     0.020310     0.009264     0.007693
Rotational constants in MHz :   608.881593   277.737841   230.642523

                             ****ORCA TERMINATED NORMALLY****
TOTAL RUN TIME: 0 days 0 hours 0 minutes 22 seconds 508 msec
