                         Program Version 4.2.1 -  RELEASE  -
|  1> ! wB97X-D3 SP def2-SVP
|  2> %pal
|  3> nprocs 24
|  4> end
|  5>
|  6> * xyz 0 1
|  7> S 	 -52.1548 	 6.16013 	 -18.1161
|  8> C 	 -50.635 	 6.96943 	 -18.2718
|  9> C 	 -50.8825 	 8.2417 	 -18.6885
| 10> C 	 -52.1352 	 8.43152 	 -19.2833
| 11> C 	 -53.0086 	 7.40269 	 -19.0181
| 12> H 	 -52.3136 	 9.29166 	 -19.8228
| 13> C 	 -49.7691 	 9.3465 	 -18.7018
| 14> H 	 -49.6708 	 9.87843 	 -19.6517
| 15> H 	 -48.8249 	 8.77073 	 -18.6628
| 16> C 	 -49.7616 	 10.457 	 -17.6213
| 17> H 	 -49.1106 	 11.304 	 -17.9725
| 18> H 	 -50.6562 	 11.0379 	 -17.5203
| 19> C 	 -49.3357 	 9.98412 	 -16.1848
| 20> H 	 -48.2556 	 9.97624 	 -16.0615
| 21> H 	 -49.7462 	 10.5509 	 -15.3688
| 22> H 	 -49.7929 	 8.97926 	 -16.0863
| 23> S 	 -55.3744 	 6.57323 	 -18.1303
| 24> C 	 -56.8465 	 6.95492 	 -18.9071
| 25> C 	 -56.6145 	 7.636 	 -20.0742
| 26> C 	 -55.2228 	 7.85393 	 -20.3378
| 27> C 	 -54.4268 	 7.40786 	 -19.3298
| 28> H 	 -57.4604 	 7.81455 	 -20.7385
| 29> C 	 -54.719 	 8.42367 	 -21.6313
| 30> H 	 -54.602 	 7.59513 	 -22.3452
| 31> H 	 -53.8167 	 8.84448 	 -21.4032
| 32> C 	 -55.5516 	 9.45698 	 -22.3777
| 33> H 	 -56.024 	 10.1434 	 -21.6276
| 34> H 	 -56.3259 	 8.93868 	 -22.9117
| 35> C 	 -54.6529 	 10.2296 	 -23.3985
| 36> H 	 -53.8301 	 10.8072 	 -23.0586
| 37> H 	 -55.3854 	 10.9944 	 -23.8598
| 38> H 	 -54.2635 	 9.65164 	 -24.2566
| 39> H 	 -49.7978 	 6.72237 	 -17.6757
| 40> H 	 -57.8503 	 6.59517 	 -18.7397
| 41> *
| 42>
| 43>                          ****END OF INPUT****

CARTESIAN COORDINATES (ANGSTROEM)
---------------------------------
  S    -52.154800    6.160130  -18.116100
  C    -50.635000    6.969430  -18.271800
  C    -50.882500    8.241700  -18.688500
  C    -52.135200    8.431520  -19.283300
  C    -53.008600    7.402690  -19.018100
  H    -52.313600    9.291660  -19.822800
  C    -49.769100    9.346500  -18.701800
  H    -49.670800    9.878430  -19.651700
  H    -48.824900    8.770730  -18.662800
  C    -49.761600   10.457000  -17.621300
  H    -49.110600   11.304000  -17.972500
  H    -50.656200   11.037900  -17.520300
  C    -49.335700    9.984120  -16.184800
  H    -48.255600    9.976240  -16.061500
  H    -49.746200   10.550900  -15.368800
  H    -49.792900    8.979260  -16.086300
  S    -55.374400    6.573230  -18.130300
  C    -56.846500    6.954920  -18.907100
  C    -56.614500    7.636000  -20.074200
  C    -55.222800    7.853930  -20.337800
  C    -54.426800    7.407860  -19.329800
  H    -57.460400    7.814550  -20.738500
  C    -54.719000    8.423670  -21.631300
  H    -54.602000    7.595130  -22.345200
  H    -53.816700    8.844480  -21.403200
  C    -55.551600    9.456980  -22.377700
  H    -56.024000   10.143400  -21.627600
  H    -56.325900    8.938680  -22.911700
  C    -54.652900   10.229600  -23.398500
  H    -53.830100   10.807200  -23.058600
  H    -55.385400   10.994400  -23.859800
  H    -54.263500    9.651640  -24.256600
  H    -49.797800    6.722370  -17.675700
  H    -57.850300    6.595170  -18.739700

 Total Charge           Charge          ....    0
 Multiplicity           Mult            ....    1
 Number of Electrons    NEL             ....  134
 Basis Dimension        Dim             ....  322

ORBITAL ENERGIES
----------------

  NO   OCC          E(Eh)            E(eV)
   0   2.0000     -88.967257     -2420.9222
   1   2.0000     -88.962940     -2420.8047
   2   2.0000     -10.333387      -281.1858
   3   2.0000     -10.323711      -280.9225
   4   2.0000     -10.311581      -280.5924
   5   2.0000     -10.307702      -280.4868
   6   2.0000     -10.300343      -280.2866
   7   2.0000     -10.299267      -280.2573
   8   2.0000     -10.298427      -280.2344
   9   2.0000     -10.292899      -280.0840
  10   2.0000     -10.290990      -280.0321
  11   2.0000     -10.290835      -280.0279
  12   2.0000     -10.287369      -279.9335
  13   2.0000     -10.285449      -279.8813
  14   2.0000     -10.280859      -279.7564
  15   2.0000     -10.277017      -279.6518
  16   2.0000      -8.082218      -219.9283
  17   2.0000      -8.078823      -219.8360
  18   2.0000      -6.040853      -164.3800
  19   2.0000      -6.037360      -164.2849
  20   2.0000      -6.036714      -164.2673
  21   2.0000      -6.033119      -164.1695
  22   2.0000      -6.032783      -164.1604
  23   2.0000      -6.029533      -164.0719
  24   2.0000      -1.017068       -27.6758
  25   2.0000      -0.994514       -27.0621
  26   2.0000      -0.914181       -24.8761
  27   2.0000      -0.901931       -24.5428
  28   2.0000      -0.874736       -23.8028
  29   2.0000      -0.853780       -23.2325
  30   2.0000      -0.845178       -22.9985
  31   2.0000      -0.818716       -22.2784
  32   2.0000      -0.782363       -21.2892
  33   2.0000      -0.775864       -21.1123
  34   2.0000      -0.714375       -19.4391
  35   2.0000      -0.705254       -19.1909
  36   2.0000      -0.696770       -18.9601
  37   2.0000      -0.659265       -17.9395
  38   2.0000      -0.642072       -17.4717
  39   2.0000      -0.629820       -17.1383
  40   2.0000      -0.596502       -16.2316
  41   2.0000      -0.577162       -15.7054
  42   2.0000      -0.568269       -15.4634
  43   2.0000      -0.546760       -14.8781
  44   2.0000      -0.535189       -14.5632
  45   2.0000      -0.527258       -14.3474
  46   2.0000      -0.516270       -14.0484
  47   2.0000      -0.512448       -13.9444
  48   2.0000      -0.509960       -13.8767
  49   2.0000      -0.498207       -13.5569
  50   2.0000      -0.492726       -13.4077
  51   2.0000      -0.486352       -13.2343
  52   2.0000      -0.477623       -12.9968
  53   2.0000      -0.467113       -12.7108
  54   2.0000      -0.459798       -12.5117
  55   2.0000      -0.448947       -12.2165
  56   2.0000      -0.440938       -11.9985
  57   2.0000      -0.437004       -11.8915
  58   2.0000      -0.433654       -11.8003
  59   2.0000      -0.424988       -11.5645
  60   2.0000      -0.421897       -11.4804
  61   2.0000      -0.412276       -11.2186
  62   2.0000      -0.407403       -11.0860
  63   2.0000      -0.362106        -9.8534
  64   2.0000      -0.334601        -9.1050
  65   2.0000      -0.327677        -8.9165
  66   2.0000      -0.288922        -7.8620
  67   0.0000       0.024462         0.6656
  68   0.0000       0.077109         2.0983
  69   0.0000       0.112390         3.0583
  70   0.0000       0.119256         3.2451
  71   0.0000       0.130437         3.5494

MULLIKEN ATOMIC CHARGES
-----------------------
   0 S :    0.105509
   1 C :   -0.084072
   2 C :   -0.104286
   3 C :    0.034431
   4 C :   -0.094633
   5 H :   -0.017329
   6 C :    0.040520
   7 H :    0.026835
   8 H :    0.022256
   9 C :   -0.073106
  10 H :    0.026413
  11 H :    0.020578
  12 C :   -0.056792
  13 H :    0.037773
  14 H :    0.029348
  15 H :    0.032986
  16 S :    0.095641
  17 C :   -0.058353
  18 C :   -0.068427
  19 C :   -0.064828
  20 C :   -0.140423
  21 H :    0.020611
  22 C :    0.140735
  23 H :    0.042014
  24 H :   -0.025759
  25 C :   -0.092614
  26 H :    0.041700
  27 H :    0.030712
  28 C :   -0.077413
  29 H :    0.032942
  30 H :    0.038476
  31 H :    0.039966
  32 H :    0.048681
  33 H :    0.049908
Sum of atomic charges:   -0.0000000

LOEWDIN ATOMIC CHARGES
----------------------
   0 S :    0.410538
   1 C :   -0.203272
   2 C :   -0.059837
   3 C :   -0.058559
   4 C :   -0.182517
   5 H :    0.018057
   6 C :   -0.033389
   7 H :    0.031349
   8 H :    0.032435
   9 C :   -0.048866
  10 H :    0.028515
  11 H :    0.020719
  12 C :   -0.069295
  13 H :    0.023978
  14 H :    0.023610
  15 H :    0.028927
  16 S :    0.421847
  17 C :   -0.197787
  18 C :   -0.077395
  19 C :   -0.059110
  20 C :   -0.191044
  21 H :    0.032425
  22 C :   -0.028150
  23 H :    0.041463
  24 H :    0.012717
  25 C :   -0.037509
  26 H :    0.029912
  27 H :    0.021876
  28 C :   -0.071556
  29 H :    0.018205
  30 H :    0.036764
  31 H :    0.028912
  32 H :    0.022783
  33 H :    0.033254

  Mayer bond orders larger than 0.100000
B(  0-S ,  1-C ) :   1.1293 B(  0-S ,  4-C ) :   1.1534 B(  1-C ,  2-C ) :   1.6129
B(  1-C , 32-H ) :   0.9606 B(  2-C ,  3-C ) :   1.2745 B(  2-C ,  6-C ) :   1.0110
B(  3-C ,  4-C ) :   1.5296 B(  3-C ,  5-H ) :   1.0054 B(  4-C , 20-C ) :   1.0646
B(  6-C ,  7-H ) :   0.9481 B(  6-C ,  8-H ) :   0.9495 B(  6-C ,  9-C ) :   1.0613
B(  9-C , 10-H ) :   0.9570 B(  9-C , 11-H ) :   0.9598 B(  9-C , 12-C ) :   1.0607
B( 12-C , 13-H ) :   0.9792 B( 12-C , 14-H ) :   0.9774 B( 12-C , 15-H ) :   0.9798
B( 16-S , 17-C ) :   1.1611 B( 16-S , 20-C ) :   1.1296 B( 17-C , 18-C ) :   1.6230
B( 17-C , 33-H ) :   0.9620 B( 18-C , 19-C ) :   1.2273 B( 18-C , 21-H ) :   0.9891
B( 19-C , 20-C ) :   1.6141 B( 19-C , 22-C ) :   1.0423 B( 22-C , 23-H ) :   0.9152
B( 22-C , 24-H ) :   0.9290 B( 22-C , 25-C ) :   1.0785 B( 25-C , 26-H ) :   0.9614
B( 25-C , 27-H ) :   0.9465 B( 25-C , 28-C ) :   1.0803 B( 28-C , 29-H ) :   0.9779
B( 28-C , 30-H ) :   0.9750 B( 28-C , 31-H ) :   0.9747

Dispersion correction           -0.013575568
FINAL SINGLE POINT ENERGY     -1339.860735650992

DIPOLE MOMENT
-------------
                                X             Y             Z
Electronic contribution:    -10.04149     -21.92406      10.81377
Nuclear contribution   :     10.06006      22.44719     -11.23284
                        -----------------------------------------
Total Dipole Moment    :      0.01856       0.52313      -0.41907
                        -----------------------------------------
Magnitude (a.u.)       :      0.67054
Magnitude (Debye)      :      1.70439

Rotational constants in cm-1:     0.017753     0.008423     0.006425
Rotational constants in MHz :   532.231332   252.502975   192.627563

                             ****ORCA TERMINATED NORMALLY****
TOTAL RUN TIME: 0 days 0 hours 0 minutes 21 seconds 143 msec
