                         Program Version 4.2.1 -  RELEASE  -
|  1> ! wB97X-D3 SP def2-SVP
|  2> %pal
|  3> nprocs 24
|  4> end
|  5>
|  6> * xyz 0 1
|  7> S 	 -119.776 	 23.1478 	 -26.1501
|  8> C 	 -118.561 	 23.9023 	 -27.2272
|  9> C 	 -118.233 	 25.1765 	 -26.7254
| 10> C 	 -118.64 	 25.3089 	 -25.3479
| 11> C 	 -119.53 	 24.3087 	 -24.8869
| 12> H 	 -118.438 	 26.1393 	 -24.6381
| 13> C 	 -117.403 	 26.2519 	 -27.4507
| 14> H 	 -117.148 	 27.0149 	 -26.7518
| 15> H 	 -118.11 	 26.8094 	 -28.0945
| 16> C 	 -116.24 	 25.7711 	 -28.2299
| 17> H 	 -115.39 	 25.4572 	 -27.6872
| 18> H 	 -116.588 	 24.92 	 -28.9076
| 19> C 	 -115.755 	 26.8554 	 -29.1615
| 20> H 	 -116.514 	 27.1655 	 -29.899
| 21> H 	 -115.438 	 27.8404 	 -28.6263
| 22> H 	 -114.982 	 26.4364 	 -29.7845
| 23> S 	 -120.055 	 23.0976 	 -22.4733
| 24> C 	 -121.323 	 23.7317 	 -21.462
| 25> C 	 -121.88 	 24.8372 	 -22.002
| 26> C 	 -121.349 	 25.1456 	 -23.2765
| 27> C 	 -120.285 	 24.362 	 -23.6159
| 28> H 	 -122.637 	 25.3076 	 -21.3879
| 29> C 	 -121.907 	 26.5017 	 -23.9193
| 30> H 	 -121.088 	 27.2336 	 -23.8805
| 31> H 	 -122.544 	 27.0958 	 -23.2561
| 32> C 	 -122.514 	 26.3739 	 -25.2954
| 33> H 	 -123.119 	 25.4575 	 -25.3998
| 34> H 	 -121.658 	 26.3576 	 -26.1229
| 35> C 	 -123.377 	 27.5952 	 -25.8146
| 36> H 	 -123.658 	 27.5071 	 -26.8597
| 37> H 	 -123.049 	 28.5887 	 -25.4079
| 38> H 	 -124.388 	 27.4335 	 -25.4429
| 39> H 	 -118.206 	 23.4341 	 -28.0954
| 40> H 	 -121.637 	 23.302 	 -20.4809
| 41> *
| 42>
| 43>                          ****END OF INPUT****

CARTESIAN COORDINATES (ANGSTROEM)
---------------------------------
  S    -119.776000   23.147800  -26.150100
  C    -118.561000   23.902300  -27.227200
  C    -118.233000   25.176500  -26.725400
  C    -118.640000   25.308900  -25.347900
  C    -119.530000   24.308700  -24.886900
  H    -118.438000   26.139300  -24.638100
  C    -117.403000   26.251900  -27.450700
  H    -117.148000   27.014900  -26.751800
  H    -118.110000   26.809400  -28.094500
  C    -116.240000   25.771100  -28.229900
  H    -115.390000   25.457200  -27.687200
  H    -116.588000   24.920000  -28.907600
  C    -115.755000   26.855400  -29.161500
  H    -116.514000   27.165500  -29.899000
  H    -115.438000   27.840400  -28.626300
  H    -114.982000   26.436400  -29.784500
  S    -120.055000   23.097600  -22.473300
  C    -121.323000   23.731700  -21.462000
  C    -121.880000   24.837200  -22.002000
  C    -121.349000   25.145600  -23.276500
  C    -120.285000   24.362000  -23.615900
  H    -122.637000   25.307600  -21.387900
  C    -121.907000   26.501700  -23.919300
  H    -121.088000   27.233600  -23.880500
  H    -122.544000   27.095800  -23.256100
  C    -122.514000   26.373900  -25.295400
  H    -123.119000   25.457500  -25.399800
  H    -121.658000   26.357600  -26.122900
  C    -123.377000   27.595200  -25.814600
  H    -123.658000   27.507100  -26.859700
  H    -123.049000   28.588700  -25.407900
  H    -124.388000   27.433500  -25.442900
  H    -118.206000   23.434100  -28.095400
  H    -121.637000   23.302000  -20.480900

 Total Charge           Charge          ....    0
 Multiplicity           Mult            ....    1
 Number of Electrons    NEL             ....  134
 Basis Dimension        Dim             ....  322

ORBITAL ENERGIES
----------------

  NO   OCC          E(Eh)            E(eV)
   0   2.0000     -88.964558     -2420.8487
   1   2.0000     -88.964455     -2420.8459
   2   2.0000     -10.329113      -281.0694
   3   2.0000     -10.325336      -280.9667
   4   2.0000     -10.316243      -280.7192
   5   2.0000     -10.315179      -280.6903
   6   2.0000     -10.308308      -280.5033
   7   2.0000     -10.307117      -280.4709
   8   2.0000     -10.297718      -280.2151
   9   2.0000     -10.297686      -280.2143
  10   2.0000     -10.294030      -280.1148
  11   2.0000     -10.290641      -280.0226
  12   2.0000     -10.287583      -279.9394
  13   2.0000     -10.286451      -279.9086
  14   2.0000     -10.283205      -279.8202
  15   2.0000     -10.281016      -279.7607
  16   2.0000      -8.080148      -219.8720
  17   2.0000      -8.078628      -219.8306
  18   2.0000      -6.038535      -164.3169
  19   2.0000      -6.037177      -164.2799
  20   2.0000      -6.034475      -164.2064
  21   2.0000      -6.033089      -164.1687
  22   2.0000      -6.031011      -164.1122
  23   2.0000      -6.029518      -164.0715
  24   2.0000      -1.009660       -27.4742
  25   2.0000      -0.980831       -26.6898
  26   2.0000      -0.919463       -25.0199
  27   2.0000      -0.896917       -24.4064
  28   2.0000      -0.869381       -23.6571
  29   2.0000      -0.845342       -23.0029
  30   2.0000      -0.843682       -22.9577
  31   2.0000      -0.810522       -22.0554
  32   2.0000      -0.782201       -21.2848
  33   2.0000      -0.773940       -21.0600
  34   2.0000      -0.706736       -19.2313
  35   2.0000      -0.696889       -18.9633
  36   2.0000      -0.684093       -18.6151
  37   2.0000      -0.657251       -17.8847
  38   2.0000      -0.643045       -17.4981
  39   2.0000      -0.611483       -16.6393
  40   2.0000      -0.595359       -16.2005
  41   2.0000      -0.576846       -15.6968
  42   2.0000      -0.565305       -15.3827
  43   2.0000      -0.543584       -14.7917
  44   2.0000      -0.528475       -14.3805
  45   2.0000      -0.527864       -14.3639
  46   2.0000      -0.515891       -14.0381
  47   2.0000      -0.513062       -13.9611
  48   2.0000      -0.508589       -13.8394
  49   2.0000      -0.499793       -13.6001
  50   2.0000      -0.487690       -13.2707
  51   2.0000      -0.482460       -13.1284
  52   2.0000      -0.472326       -12.8526
  53   2.0000      -0.454284       -12.3617
  54   2.0000      -0.452996       -12.3266
  55   2.0000      -0.447246       -12.1702
  56   2.0000      -0.444313       -12.0904
  57   2.0000      -0.437760       -11.9120
  58   2.0000      -0.431107       -11.7310
  59   2.0000      -0.419459       -11.4141
  60   2.0000      -0.418161       -11.3788
  61   2.0000      -0.414024       -11.2662
  62   2.0000      -0.389033       -10.5861
  63   2.0000      -0.338311        -9.2059
  64   2.0000      -0.328588        -8.9413
  65   2.0000      -0.324685        -8.8351
  66   2.0000      -0.305133        -8.3031
  67   0.0000       0.035732         0.9723
  68   0.0000       0.063577         1.7300
  69   0.0000       0.114511         3.1160
  70   0.0000       0.123005         3.3471
  71   0.0000       0.133891         3.6434

MULLIKEN ATOMIC CHARGES
-----------------------
   0 S :    0.115469
   1 C :   -0.131876
   2 C :   -0.073804
   3 C :    0.011135
   4 C :   -0.140295
   5 H :    0.025995
   6 C :    0.101756
   7 H :    0.003328
   8 H :    0.034580
   9 C :   -0.068298
  10 H :    0.035326
  11 H :    0.034583
  12 C :   -0.084198
  13 H :    0.027625
  14 H :    0.045342
  15 H :    0.030290
  16 S :    0.117621
  17 C :   -0.111022
  18 C :   -0.039202
  19 C :    0.017976
  20 C :   -0.201574
  21 H :    0.020255
  22 C :    0.075833
  23 H :    0.024341
  24 H :    0.009971
  25 C :   -0.124649
  26 H :    0.042583
  27 H :    0.056713
  28 C :   -0.058248
  29 H :    0.035524
  30 H :    0.045875
  31 H :    0.014818
  32 H :    0.039387
  33 H :    0.066838
Sum of atomic charges:   -0.0000000

LOEWDIN ATOMIC CHARGES
----------------------
   0 S :    0.403972
   1 C :   -0.183946
   2 C :   -0.054249
   3 C :   -0.070566
   4 C :   -0.206582
   5 H :    0.035873
   6 C :   -0.032846
   7 H :    0.024947
   8 H :    0.039602
   9 C :   -0.042167
  10 H :    0.023684
  11 H :    0.032788
  12 C :   -0.072076
  13 H :    0.023158
  14 H :    0.033447
  15 H :    0.023396
  16 S :    0.424874
  17 C :   -0.188944
  18 C :   -0.078984
  19 C :   -0.046308
  20 C :   -0.216164
  21 H :    0.035149
  22 C :   -0.035257
  23 H :    0.032887
  24 H :    0.028017
  25 C :   -0.053254
  26 H :    0.027093
  27 H :    0.037536
  28 C :   -0.081201
  29 H :    0.030054
  30 H :    0.030365
  31 H :    0.022219
  32 H :    0.015259
  33 H :    0.038222

  Mayer bond orders larger than 0.100000
B(  0-S ,  1-C ) :   1.1438 B(  0-S ,  4-C ) :   1.1656 B(  1-C ,  2-C ) :   1.5692
B(  1-C ,  4-C ) :   0.1065 B(  1-C , 32-H ) :   0.9820 B(  2-C ,  3-C ) :   1.2548
B(  2-C ,  6-C ) :   1.0131 B(  3-C ,  4-C ) :   1.5674 B(  3-C ,  5-H ) :   0.9850
B(  4-C , 20-C ) :   1.0122 B(  6-C ,  7-H ) :   0.9371 B(  6-C ,  8-H ) :   0.9319
B(  6-C ,  9-C ) :   1.0745 B(  9-C , 10-H ) :   0.9562 B(  9-C , 11-H ) :   0.9471
B(  9-C , 12-C ) :   1.0879 B( 12-C , 13-H ) :   0.9738 B( 12-C , 14-H ) :   0.9715
B( 12-C , 15-H ) :   0.9722 B( 16-S , 17-C ) :   1.1609 B( 16-S , 20-C ) :   1.1500
B( 17-C , 18-C ) :   1.6267 B( 17-C , 33-H ) :   0.9596 B( 18-C , 19-C ) :   1.2277
B( 18-C , 21-H ) :   0.9954 B( 19-C , 20-C ) :   1.6229 B( 19-C , 22-C ) :   1.0081
B( 22-C , 23-H ) :   0.9341 B( 22-C , 24-H ) :   0.9485 B( 22-C , 25-C ) :   1.0464
B( 25-C , 26-H ) :   0.9647 B( 25-C , 27-H ) :   0.9570 B( 25-C , 28-C ) :   1.0707
B( 28-C , 29-H ) :   0.9728 B( 28-C , 30-H ) :   0.9751 B( 28-C , 31-H ) :   0.9713

Dispersion correction           -0.014012385
FINAL SINGLE POINT ENERGY     -1339.851379040660

DIPOLE MOMENT
-------------
                                X             Y             Z
Electronic contribution:     -1.99660     -23.09737      17.38271
Nuclear contribution   :      1.91428      23.71228     -17.47992
                        -----------------------------------------
Total Dipole Moment    :     -0.08232       0.61491      -0.09722
                        -----------------------------------------
Magnitude (a.u.)       :      0.62797
Magnitude (Debye)      :      1.59617

Rotational constants in cm-1:     0.019404     0.007788     0.006363
Rotational constants in MHz :   581.719712   233.468531   190.759409

                             ****ORCA TERMINATED NORMALLY****
TOTAL RUN TIME: 0 days 0 hours 0 minutes 21 seconds 54 msec
