                         Program Version 4.2.1 -  RELEASE  -
|  1> ! wB97X-D3 SP def2-SVP
|  2> %pal
|  3> nprocs 24
|  4> end
|  5>
|  6> * xyz 0 1
|  7> S 	 -133.144 	 7.30806 	 -10.4728
|  8> C 	 -131.63 	 7.90325 	 -9.79821
|  9> C 	 -130.758 	 8.35905 	 -10.782
| 10> C 	 -131.327 	 8.31187 	 -12.0279
| 11> C 	 -132.6 	 7.73192 	 -12.0897
| 12> H 	 -130.839 	 8.72612 	 -12.9021
| 13> C 	 -129.433 	 9.02865 	 -10.5423
| 14> H 	 -129.345 	 9.32475 	 -9.44971
| 15> H 	 -129.381 	 9.95611 	 -11.0911
| 16> C 	 -128.131 	 8.19788 	 -10.8299
| 17> H 	 -127.176 	 8.7257 	 -10.5014
| 18> H 	 -128.084 	 7.44394 	 -10.1527
| 19> C 	 -127.922 	 7.65221 	 -12.2309
| 20> H 	 -128.418 	 8.29099 	 -12.9467
| 21> H 	 -126.875 	 7.65598 	 -12.4191
| 22> H 	 -128.182 	 6.60132 	 -12.2757
| 23> S 	 -135.057 	 8.78949 	 -12.9159
| 24> C 	 -135.546 	 8.59204 	 -14.6074
| 25> C 	 -134.603 	 7.83534 	 -15.3393
| 26> C 	 -133.439 	 7.51691 	 -14.5199
| 27> C 	 -133.597 	 7.91773 	 -13.203
| 28> H 	 -134.923 	 7.63132 	 -16.3641
| 29> C 	 -132.179 	 6.84953 	 -15.1282
| 30> H 	 -131.57 	 6.43077 	 -14.3735
| 31> H 	 -131.561 	 7.69236 	 -15.4758
| 32> C 	 -132.427 	 6.03082 	 -16.4205
| 33> H 	 -132.807 	 6.65309 	 -17.2427
| 34> H 	 -133.232 	 5.37833 	 -16.1829
| 35> C 	 -131.24 	 5.28154 	 -16.9729
| 36> H 	 -130.343 	 5.92113 	 -17.249
| 37> H 	 -131.498 	 4.66672 	 -17.8297
| 38> H 	 -130.996 	 4.65012 	 -16.0928
| 39> H 	 -131.339 	 8.00021 	 -8.72411
| 40> H 	 -136.562 	 8.78354 	 -14.8321
| 41> *
| 42>
| 43>                          ****END OF INPUT****

CARTESIAN COORDINATES (ANGSTROEM)
---------------------------------
  S    -133.144000    7.308060  -10.472800
  C    -131.630000    7.903250   -9.798210
  C    -130.758000    8.359050  -10.782000
  C    -131.327000    8.311870  -12.027900
  C    -132.600000    7.731920  -12.089700
  H    -130.839000    8.726120  -12.902100
  C    -129.433000    9.028650  -10.542300
  H    -129.345000    9.324750   -9.449710
  H    -129.381000    9.956110  -11.091100
  C    -128.131000    8.197880  -10.829900
  H    -127.176000    8.725700  -10.501400
  H    -128.084000    7.443940  -10.152700
  C    -127.922000    7.652210  -12.230900
  H    -128.418000    8.290990  -12.946700
  H    -126.875000    7.655980  -12.419100
  H    -128.182000    6.601320  -12.275700
  S    -135.057000    8.789490  -12.915900
  C    -135.546000    8.592040  -14.607400
  C    -134.603000    7.835340  -15.339300
  C    -133.439000    7.516910  -14.519900
  C    -133.597000    7.917730  -13.203000
  H    -134.923000    7.631320  -16.364100
  C    -132.179000    6.849530  -15.128200
  H    -131.570000    6.430770  -14.373500
  H    -131.561000    7.692360  -15.475800
  C    -132.427000    6.030820  -16.420500
  H    -132.807000    6.653090  -17.242700
  H    -133.232000    5.378330  -16.182900
  C    -131.240000    5.281540  -16.972900
  H    -130.343000    5.921130  -17.249000
  H    -131.498000    4.666720  -17.829700
  H    -130.996000    4.650120  -16.092800
  H    -131.339000    8.000210   -8.724110
  H    -136.562000    8.783540  -14.832100

 Total Charge           Charge          ....    0
 Multiplicity           Mult            ....    1
 Number of Electrons    NEL             ....  134
 Basis Dimension        Dim             ....  322

ORBITAL ENERGIES
----------------

  NO   OCC          E(Eh)            E(eV)
   0   2.0000     -88.972956     -2421.0772
   1   2.0000     -88.964082     -2420.8357
   2   2.0000     -10.332482      -281.1611
   3   2.0000     -10.326836      -281.0075
   4   2.0000     -10.320464      -280.8341
   5   2.0000     -10.316561      -280.7279
   6   2.0000     -10.308826      -280.5174
   7   2.0000     -10.302876      -280.3555
   8   2.0000     -10.298170      -280.2274
   9   2.0000     -10.296449      -280.1806
  10   2.0000     -10.292004      -280.0597
  11   2.0000     -10.291317      -280.0410
  12   2.0000     -10.283264      -279.8218
  13   2.0000     -10.282911      -279.8122
  14   2.0000     -10.282276      -279.7949
  15   2.0000     -10.272343      -279.5247
  16   2.0000      -8.086894      -220.0556
  17   2.0000      -8.078971      -219.8400
  18   2.0000      -6.045354      -164.5025
  19   2.0000      -6.041423      -164.3955
  20   2.0000      -6.037851      -164.2983
  21   2.0000      -6.037426      -164.2867
  22   2.0000      -6.033428      -164.1779
  23   2.0000      -6.029813      -164.0796
  24   2.0000      -1.004646       -27.3378
  25   2.0000      -0.982080       -26.7237
  26   2.0000      -0.909777       -24.7563
  27   2.0000      -0.907080       -24.6829
  28   2.0000      -0.864804       -23.5325
  29   2.0000      -0.853810       -23.2333
  30   2.0000      -0.846079       -23.0230
  31   2.0000      -0.813577       -22.1386
  32   2.0000      -0.784373       -21.3439
  33   2.0000      -0.771386       -20.9905
  34   2.0000      -0.705416       -19.1954
  35   2.0000      -0.700552       -19.0630
  36   2.0000      -0.695704       -18.9311
  37   2.0000      -0.653553       -17.7841
  38   2.0000      -0.635272       -17.2866
  39   2.0000      -0.620376       -16.8813
  40   2.0000      -0.594312       -16.1720
  41   2.0000      -0.571521       -15.5519
  42   2.0000      -0.567261       -15.4360
  43   2.0000      -0.548272       -14.9192
  44   2.0000      -0.544293       -14.8110
  45   2.0000      -0.529159       -14.3992
  46   2.0000      -0.516247       -14.0478
  47   2.0000      -0.509389       -13.8612
  48   2.0000      -0.504042       -13.7157
  49   2.0000      -0.490372       -13.3437
  50   2.0000      -0.483764       -13.1639
  51   2.0000      -0.482164       -13.1203
  52   2.0000      -0.473663       -12.8890
  53   2.0000      -0.469194       -12.7674
  54   2.0000      -0.456856       -12.4317
  55   2.0000      -0.450580       -12.2609
  56   2.0000      -0.443183       -12.0596
  57   2.0000      -0.437572       -11.9069
  58   2.0000      -0.429401       -11.6846
  59   2.0000      -0.428572       -11.6620
  60   2.0000      -0.423686       -11.5291
  61   2.0000      -0.410936       -11.1821
  62   2.0000      -0.410539       -11.1713
  63   2.0000      -0.345056        -9.3895
  64   2.0000      -0.334508        -9.1024
  65   2.0000      -0.326686        -8.8896
  66   2.0000      -0.292209        -7.9514
  67   0.0000       0.027050         0.7361
  68   0.0000       0.066798         1.8177
  69   0.0000       0.113917         3.0998
  70   0.0000       0.121838         3.3154
  71   0.0000       0.126331         3.4376

MULLIKEN ATOMIC CHARGES
-----------------------
   0 S :    0.118013
   1 C :   -0.134750
   2 C :   -0.058837
   3 C :    0.029163
   4 C :   -0.161743
   5 H :    0.012965
   6 C :    0.033129
   7 H :    0.025731
   8 H :    0.034991
   9 C :   -0.062543
  10 H :    0.027569
  11 H :   -0.006854
  12 C :   -0.018787
  13 H :    0.026248
  14 H :    0.019996
  15 H :    0.038548
  16 S :    0.105099
  17 C :   -0.109474
  18 C :   -0.046775
  19 C :   -0.052405
  20 C :   -0.139786
  21 H :    0.035322
  22 C :    0.088000
  23 H :    0.016864
  24 H :    0.033504
  25 C :   -0.091640
  26 H :    0.029378
  27 H :    0.026451
  28 C :   -0.049294
  29 H :    0.043268
  30 H :    0.040933
  31 H :    0.033948
  32 H :    0.059561
  33 H :    0.054208
Sum of atomic charges:   -0.0000000

LOEWDIN ATOMIC CHARGES
----------------------
   0 S :    0.411241
   1 C :   -0.196972
   2 C :   -0.074824
   3 C :   -0.054564
   4 C :   -0.195677
   5 H :    0.030823
   6 C :   -0.029459
   7 H :    0.037711
   8 H :    0.028761
   9 C :   -0.042623
  10 H :    0.031600
  11 H :    0.007733
  12 C :   -0.063215
  13 H :    0.021794
  14 H :    0.025681
  15 H :    0.029944
  16 S :    0.405234
  17 C :   -0.178839
  18 C :   -0.069335
  19 C :   -0.054104
  20 C :   -0.212275
  21 H :    0.037826
  22 C :   -0.029263
  23 H :    0.022367
  24 H :    0.036833
  25 C :   -0.045406
  26 H :    0.022497
  27 H :    0.019780
  28 C :   -0.068501
  29 H :    0.031427
  30 H :    0.027295
  31 H :    0.030474
  32 H :    0.038172
  33 H :    0.017862

  Mayer bond orders larger than 0.100000
B(  0-S ,  1-C ) :   1.1569 B(  0-S ,  4-C ) :   1.1608 B(  1-C ,  2-C ) :   1.5791
B(  1-C ,  4-C ) :   0.1034 B(  1-C , 32-H ) :   0.9555 B(  2-C ,  3-C ) :   1.3053
B(  2-C ,  6-C ) :   1.0191 B(  3-C ,  4-C ) :   1.5258 B(  3-C ,  5-H ) :   0.9879
B(  4-C , 20-C ) :   1.0123 B(  6-C ,  7-H ) :   0.9406 B(  6-C ,  8-H ) :   0.9479
B(  6-C ,  9-C ) :   1.0727 B(  9-C , 10-H ) :   0.9602 B(  9-C , 11-H ) :   0.9500
B(  9-C , 12-C ) :   1.0747 B( 12-C , 13-H ) :   0.9780 B( 12-C , 14-H ) :   0.9720
B( 12-C , 15-H ) :   0.9750 B( 16-S , 17-C ) :   1.1556 B( 16-S , 20-C ) :   1.1498
B( 17-C , 18-C ) :   1.6078 B( 17-C , 33-H ) :   0.9686 B( 18-C , 19-C ) :   1.2157
B( 18-C , 21-H ) :   0.9904 B( 19-C , 20-C ) :   1.6174 B( 19-C , 22-C ) :   1.0385
B( 22-C , 23-H ) :   0.9338 B( 22-C , 24-H ) :   0.9256 B( 22-C , 25-C ) :   1.0621
B( 25-C , 26-H ) :   0.9424 B( 25-C , 27-H ) :   0.9610 B( 25-C , 28-C ) :   1.0837
B( 28-C , 29-H ) :   0.9736 B( 28-C , 30-H ) :   0.9716 B( 28-C , 31-H ) :   0.9760

Dispersion correction           -0.013968477
FINAL SINGLE POINT ENERGY     -1339.862621939270

DIPOLE MOMENT
-------------
                                X             Y             Z
Electronic contribution:    -25.98697       6.35755      13.96948
Nuclear contribution   :     26.52178      -6.32722     -14.22703
                        -----------------------------------------
Total Dipole Moment    :      0.53481       0.03033      -0.25755
                        -----------------------------------------
Magnitude (a.u.)       :      0.59437
Magnitude (Debye)      :      1.51078

Rotational constants in cm-1:     0.015923     0.009550     0.006574
Rotational constants in MHz :   477.364570   286.296025   197.076331

                             ****ORCA TERMINATED NORMALLY****
TOTAL RUN TIME: 0 days 0 hours 0 minutes 21 seconds 449 msec
