                         Program Version 4.2.1 -  RELEASE  -
|  1> ! wB97X-D3 SP def2-SVP
|  2> %pal
|  3> nprocs 24
|  4> end
|  5>
|  6> * xyz 0 1
|  7> S 	 -39.5559 	 6.9997 	 28.6407
|  8> C 	 -40.7976 	 5.76503 	 28.6817
|  9> C 	 -41.7368 	 6.00742 	 29.6755
| 10> C 	 -41.4647 	 7.19938 	 30.3839
| 11> C 	 -40.3009 	 7.83758 	 29.9912
| 12> H 	 -42.0013 	 7.53621 	 31.3142
| 13> C 	 -42.9281 	 5.16063 	 30.0128
| 14> H 	 -43.349 	 5.39799 	 30.9691
| 15> H 	 -42.4196 	 4.25271 	 30.3149
| 16> C 	 -44.0667 	 5.01652 	 28.97
| 17> H 	 -44.9404 	 5.68556 	 29.0648
| 18> H 	 -43.7507 	 5.278 	 27.9875
| 19> C 	 -44.7896 	 3.65053 	 29.0006
| 20> H 	 -45.3989 	 3.53803 	 28.0791
| 21> H 	 -44.118 	 2.86894 	 29.1136
| 22> H 	 -45.5516 	 3.65821 	 29.7437
| 23> S 	 -40.1656 	 10.6006 	 29.8407
| 24> C 	 -39.2582 	 11.4941 	 31.1176
| 25> C 	 -38.487 	 10.6214 	 31.837
| 26> C 	 -38.7836 	 9.19535 	 31.5648
| 27> C 	 -39.7376 	 9.04659 	 30.5602
| 28> H 	 -37.783 	 11.0531 	 32.5629
| 29> C 	 -38.1772 	 8.03495 	 32.3365
| 30> H 	 -37.1298 	 8.07945 	 32.4558
| 31> H 	 -38.4009 	 7.09756 	 31.7878
| 32> C 	 -38.7006 	 7.85241 	 33.7819
| 33> H 	 -38.5938 	 8.74177 	 34.4485
| 34> H 	 -38.1383 	 7.02944 	 34.2687
| 35> C 	 -40.1261 	 7.31118 	 33.9091
| 36> H 	 -40.4373 	 6.58639 	 33.1526
| 37> H 	 -40.9707 	 8.03916 	 33.9032
| 38> H 	 -40.1826 	 6.78269 	 34.8988
| 39> H 	 -40.7495 	 4.83921 	 28.0842
| 40> H 	 -39.1669 	 12.5785 	 31.1051
| 41> *
| 42>
| 43>                          ****END OF INPUT****

CARTESIAN COORDINATES (ANGSTROEM)
---------------------------------
  S    -39.555900    6.999700   28.640700
  C    -40.797600    5.765030   28.681700
  C    -41.736800    6.007420   29.675500
  C    -41.464700    7.199380   30.383900
  C    -40.300900    7.837580   29.991200
  H    -42.001300    7.536210   31.314200
  C    -42.928100    5.160630   30.012800
  H    -43.349000    5.397990   30.969100
  H    -42.419600    4.252710   30.314900
  C    -44.066700    5.016520   28.970000
  H    -44.940400    5.685560   29.064800
  H    -43.750700    5.278000   27.987500
  C    -44.789600    3.650530   29.000600
  H    -45.398900    3.538030   28.079100
  H    -44.118000    2.868940   29.113600
  H    -45.551600    3.658210   29.743700
  S    -40.165600   10.600600   29.840700
  C    -39.258200   11.494100   31.117600
  C    -38.487000   10.621400   31.837000
  C    -38.783600    9.195350   31.564800
  C    -39.737600    9.046590   30.560200
  H    -37.783000   11.053100   32.562900
  C    -38.177200    8.034950   32.336500
  H    -37.129800    8.079450   32.455800
  H    -38.400900    7.097560   31.787800
  C    -38.700600    7.852410   33.781900
  H    -38.593800    8.741770   34.448500
  H    -38.138300    7.029440   34.268700
  C    -40.126100    7.311180   33.909100
  H    -40.437300    6.586390   33.152600
  H    -40.970700    8.039160   33.903200
  H    -40.182600    6.782690   34.898800
  H    -40.749500    4.839210   28.084200
  H    -39.166900   12.578500   31.105100

 Total Charge           Charge          ....    0
 Multiplicity           Mult            ....    1
 Number of Electrons    NEL             ....  134
 Basis Dimension        Dim             ....  322

ORBITAL ENERGIES
----------------

  NO   OCC          E(Eh)            E(eV)
   0   2.0000     -88.969105     -2420.9724
   1   2.0000     -88.960335     -2420.7338
   2   2.0000     -10.326966      -281.0110
   3   2.0000     -10.326694      -281.0036
   4   2.0000     -10.321331      -280.8577
   5   2.0000     -10.316851      -280.7358
   6   2.0000     -10.310842      -280.5723
   7   2.0000     -10.301098      -280.3071
   8   2.0000     -10.300585      -280.2932
   9   2.0000     -10.295791      -280.1627
  10   2.0000     -10.290703      -280.0243
  11   2.0000     -10.290533      -280.0196
  12   2.0000     -10.290312      -280.0136
  13   2.0000     -10.286280      -279.9039
  14   2.0000     -10.277496      -279.6649
  15   2.0000     -10.272222      -279.5214
  16   2.0000      -8.083394      -219.9603
  17   2.0000      -8.074379      -219.7150
  18   2.0000      -6.041839      -164.4068
  19   2.0000      -6.037830      -164.2977
  20   2.0000      -6.034387      -164.2040
  21   2.0000      -6.033064      -164.1680
  22   2.0000      -6.029078      -164.0596
  23   2.0000      -6.024886      -163.9455
  24   2.0000      -1.002733       -27.2857
  25   2.0000      -0.977217       -26.5914
  26   2.0000      -0.909668       -24.7533
  27   2.0000      -0.902608       -24.5612
  28   2.0000      -0.868898       -23.6439
  29   2.0000      -0.852501       -23.1977
  30   2.0000      -0.839202       -22.8358
  31   2.0000      -0.815038       -22.1783
  32   2.0000      -0.783497       -21.3200
  33   2.0000      -0.770431       -20.9645
  34   2.0000      -0.709598       -19.3091
  35   2.0000      -0.702226       -19.1085
  36   2.0000      -0.689078       -18.7508
  37   2.0000      -0.653111       -17.7720
  38   2.0000      -0.641432       -17.4542
  39   2.0000      -0.614334       -16.7169
  40   2.0000      -0.593030       -16.1372
  41   2.0000      -0.571349       -15.5472
  42   2.0000      -0.556028       -15.1303
  43   2.0000      -0.547653       -14.9024
  44   2.0000      -0.541752       -14.7418
  45   2.0000      -0.526765       -14.3340
  46   2.0000      -0.517733       -14.0882
  47   2.0000      -0.510170       -13.8824
  48   2.0000      -0.507067       -13.7980
  49   2.0000      -0.498473       -13.5641
  50   2.0000      -0.491420       -13.3722
  51   2.0000      -0.476951       -12.9785
  52   2.0000      -0.463291       -12.6068
  53   2.0000      -0.461943       -12.5701
  54   2.0000      -0.457549       -12.4505
  55   2.0000      -0.447624       -12.1805
  56   2.0000      -0.440531       -11.9875
  57   2.0000      -0.434531       -11.8242
  58   2.0000      -0.429389       -11.6843
  59   2.0000      -0.428437       -11.6584
  60   2.0000      -0.424956       -11.5636
  61   2.0000      -0.410219       -11.1626
  62   2.0000      -0.401996       -10.9389
  63   2.0000      -0.337472        -9.1831
  64   2.0000      -0.328967        -8.9516
  65   2.0000      -0.315098        -8.5743
  66   2.0000      -0.313092        -8.5197
  67   0.0000       0.043898         1.1945
  68   0.0000       0.050114         1.3637
  69   0.0000       0.107707         2.9308
  70   0.0000       0.117134         3.1874
  71   0.0000       0.130080         3.5397

MULLIKEN ATOMIC CHARGES
-----------------------
   0 S :    0.130050
   1 C :   -0.141569
   2 C :   -0.100581
   3 C :    0.045963
   4 C :   -0.207879
   5 H :    0.035086
   6 C :    0.099867
   7 H :    0.005337
   8 H :    0.027244
   9 C :   -0.054114
  10 H :    0.027798
  11 H :    0.021088
  12 C :   -0.039116
  13 H :    0.029729
  14 H :    0.022368
  15 H :    0.024014
  16 S :    0.092101
  17 C :   -0.104950
  18 C :   -0.029982
  19 C :   -0.004710
  20 C :   -0.174003
  21 H :    0.032619
  22 C :    0.099078
  23 H :    0.019652
  24 H :    0.033187
  25 C :   -0.092571
  26 H :    0.039899
  27 H :    0.032860
  28 C :   -0.093912
  29 H :    0.029438
  30 H :    0.038864
  31 H :    0.032511
  32 H :    0.059107
  33 H :    0.065526
Sum of atomic charges:   -0.0000000

LOEWDIN ATOMIC CHARGES
----------------------
   0 S :    0.413638
   1 C :   -0.202252
   2 C :   -0.066408
   3 C :   -0.059840
   4 C :   -0.204773
   5 H :    0.043095
   6 C :   -0.035596
   7 H :    0.028540
   8 H :    0.037601
   9 C :   -0.038886
  10 H :    0.031483
  11 H :    0.017701
  12 C :   -0.055655
  13 H :    0.032796
  14 H :    0.010499
  15 H :    0.020193
  16 S :    0.370403
  17 C :   -0.167450
  18 C :   -0.070828
  19 C :   -0.047003
  20 C :   -0.199254
  21 H :    0.036621
  22 C :   -0.030815
  23 H :    0.027071
  24 H :    0.035972
  25 C :   -0.044652
  26 H :    0.028201
  27 H :    0.029394
  28 C :   -0.080104
  29 H :    0.021474
  30 H :    0.023204
  31 H :    0.030577
  32 H :    0.033636
  33 H :    0.031417

  Mayer bond orders larger than 0.100000
B(  0-S ,  1-C ) :   1.1472 B(  0-S ,  4-C ) :   1.1582 B(  1-C ,  2-C ) :   1.5921
B(  1-C ,  4-C ) :   0.1031 B(  1-C , 32-H ) :   0.9657 B(  2-C ,  3-C ) :   1.2687
B(  2-C ,  6-C ) :   1.0142 B(  3-C ,  4-C ) :   1.5746 B(  3-C ,  5-H ) :   0.9794
B(  4-C , 20-C ) :   1.0244 B(  6-C ,  7-H ) :   0.9362 B(  6-C ,  8-H ) :   0.9408
B(  6-C ,  9-C ) :   1.0333 B(  9-C , 10-H ) :   0.9581 B(  9-C , 11-H ) :   0.9707
B(  9-C , 12-C ) :   1.0719 B( 12-C , 13-H ) :   0.9727 B( 12-C , 14-H ) :   0.9828
B( 12-C , 15-H ) :   0.9813 B( 16-S , 17-C ) :   1.1272 B( 16-S , 20-C ) :   1.1328
B( 17-C , 18-C ) :   1.6608 B( 17-C , 33-H ) :   0.9664 B( 18-C , 19-C ) :   1.1826
B( 18-C , 21-H ) :   0.9848 B( 19-C , 20-C ) :   1.6310 B( 19-C , 22-C ) :   1.0529
B( 22-C , 23-H ) :   0.9325 B( 22-C , 24-H ) :   0.9291 B( 22-C , 25-C ) :   1.0757
B( 25-C , 26-H ) :   0.9560 B( 25-C , 27-H ) :   0.9595 B( 25-C , 28-C ) :   1.0648
B( 28-C , 29-H ) :   0.9720 B( 28-C , 30-H ) :   0.9754 B( 28-C , 31-H ) :   0.9763

Dispersion correction           -0.014941826
FINAL SINGLE POINT ENERGY     -1339.873980445167

DIPOLE MOMENT
-------------
                                X             Y             Z
Electronic contribution:     13.09013      18.55266     -13.54001
Nuclear contribution   :    -13.14866     -18.91608      14.01410
                        -----------------------------------------
Total Dipole Moment    :     -0.05852      -0.36342       0.47409
                        -----------------------------------------
Magnitude (a.u.)       :      0.60022
Magnitude (Debye)      :      1.52563

Rotational constants in cm-1:     0.021612     0.007661     0.006749
Rotational constants in MHz :   647.903208   229.660244   202.322924

                             ****ORCA TERMINATED NORMALLY****
TOTAL RUN TIME: 0 days 0 hours 0 minutes 20 seconds 334 msec
