                         Program Version 4.2.1 -  RELEASE  -
|  1> ! wB97X-D3 SP def2-SVP
|  2> %pal
|  3> nprocs 24
|  4> end
|  5>
|  6> * xyz 0 1
|  7> S 	 -117.286 	 30.7363 	 -17.6777
|  8> C 	 -118.943 	 30.4486 	 -18.1559
|  9> C 	 -119.522 	 31.5664 	 -18.6788
| 10> C 	 -118.603 	 32.6853 	 -18.6058
| 11> C 	 -117.288 	 32.3757 	 -18.2193
| 12> H 	 -118.907 	 33.6721 	 -18.8345
| 13> C 	 -121.013 	 31.7938 	 -19.085
| 14> H 	 -121.484 	 30.8242 	 -19.3625
| 15> H 	 -120.932 	 32.3347 	 -19.9763
| 16> C 	 -122.003 	 32.5581 	 -18.1137
| 17> H 	 -121.674 	 33.5398 	 -17.7492
| 18> H 	 -122.899 	 32.7923 	 -18.6349
| 19> C 	 -122.345 	 31.7796 	 -16.8356
| 20> H 	 -123.011 	 32.4692 	 -16.2523
| 21> H 	 -122.945 	 30.9088 	 -17.2256
| 22> H 	 -121.486 	 31.3806 	 -16.4016
| 23> S 	 -115.354 	 33.225 	 -16.4567
| 24> C 	 -114.422 	 34.6546 	 -16.8122
| 25> C 	 -114.505 	 34.9486 	 -18.1293
| 26> C 	 -115.472 	 34.1361 	 -18.8047
| 27> C 	 -116.111 	 33.2214 	 -18.0205
| 28> H 	 -113.871 	 35.7152 	 -18.5072
| 29> C 	 -115.804 	 34.3291 	 -20.3281
| 30> H 	 -115.751 	 35.4012 	 -20.4811
| 31> H 	 -116.822 	 33.9398 	 -20.5553
| 32> C 	 -114.913 	 33.421 	 -21.2792
| 33> H 	 -115.399 	 33.3607 	 -22.2531
| 34> H 	 -114.91 	 32.3196 	 -21.1232
| 35> C 	 -113.52 	 33.9647 	 -21.5453
| 36> H 	 -112.912 	 33.75 	 -20.5899
| 37> H 	 -113.492 	 34.9956 	 -21.8328
| 38> H 	 -112.98 	 33.4574 	 -22.3905
| 39> H 	 -119.466 	 29.5431 	 -17.87
| 40> H 	 -113.65 	 35.0819 	 -16.1471
| 41> *
| 42>
| 43>                          ****END OF INPUT****

CARTESIAN COORDINATES (ANGSTROEM)
---------------------------------
  S    -117.286000   30.736300  -17.677700
  C    -118.943000   30.448600  -18.155900
  C    -119.522000   31.566400  -18.678800
  C    -118.603000   32.685300  -18.605800
  C    -117.288000   32.375700  -18.219300
  H    -118.907000   33.672100  -18.834500
  C    -121.013000   31.793800  -19.085000
  H    -121.484000   30.824200  -19.362500
  H    -120.932000   32.334700  -19.976300
  C    -122.003000   32.558100  -18.113700
  H    -121.674000   33.539800  -17.749200
  H    -122.899000   32.792300  -18.634900
  C    -122.345000   31.779600  -16.835600
  H    -123.011000   32.469200  -16.252300
  H    -122.945000   30.908800  -17.225600
  H    -121.486000   31.380600  -16.401600
  S    -115.354000   33.225000  -16.456700
  C    -114.422000   34.654600  -16.812200
  C    -114.505000   34.948600  -18.129300
  C    -115.472000   34.136100  -18.804700
  C    -116.111000   33.221400  -18.020500
  H    -113.871000   35.715200  -18.507200
  C    -115.804000   34.329100  -20.328100
  H    -115.751000   35.401200  -20.481100
  H    -116.822000   33.939800  -20.555300
  C    -114.913000   33.421000  -21.279200
  H    -115.399000   33.360700  -22.253100
  H    -114.910000   32.319600  -21.123200
  C    -113.520000   33.964700  -21.545300
  H    -112.912000   33.750000  -20.589900
  H    -113.492000   34.995600  -21.832800
  H    -112.980000   33.457400  -22.390500
  H    -119.466000   29.543100  -17.870000
  H    -113.650000   35.081900  -16.147100

 Total Charge           Charge          ....    0
 Multiplicity           Mult            ....    1
 Number of Electrons    NEL             ....  134
 Basis Dimension        Dim             ....  322

ORBITAL ENERGIES
----------------

  NO   OCC          E(Eh)            E(eV)
   0   2.0000     -88.964252     -2420.8404
   1   2.0000     -88.960785     -2420.7460
   2   2.0000     -10.333757      -281.1958
   3   2.0000     -10.325319      -280.9662
   4   2.0000     -10.317260      -280.7469
   5   2.0000     -10.314731      -280.6781
   6   2.0000     -10.305945      -280.4390
   7   2.0000     -10.304388      -280.3966
   8   2.0000     -10.299660      -280.2680
   9   2.0000     -10.299378      -280.2603
  10   2.0000     -10.295713      -280.1606
  11   2.0000     -10.291498      -280.0459
  12   2.0000     -10.288284      -279.9584
  13   2.0000     -10.287873      -279.9472
  14   2.0000     -10.280110      -279.7360
  15   2.0000     -10.278321      -279.6873
  16   2.0000      -8.079672      -219.8591
  17   2.0000      -8.076409      -219.7703
  18   2.0000      -6.038158      -164.3066
  19   2.0000      -6.034909      -164.2182
  20   2.0000      -6.034032      -164.1944
  21   2.0000      -6.030861      -164.1081
  22   2.0000      -6.030458      -164.0971
  23   2.0000      -6.027019      -164.0035
  24   2.0000      -1.011502       -27.5244
  25   2.0000      -0.988844       -26.9078
  26   2.0000      -0.905981       -24.6530
  27   2.0000      -0.896720       -24.4010
  28   2.0000      -0.874263       -23.7899
  29   2.0000      -0.847587       -23.0640
  30   2.0000      -0.842437       -22.9239
  31   2.0000      -0.816948       -22.2303
  32   2.0000      -0.783708       -21.3258
  33   2.0000      -0.771377       -20.9902
  34   2.0000      -0.708998       -19.2928
  35   2.0000      -0.697122       -18.9696
  36   2.0000      -0.690148       -18.7799
  37   2.0000      -0.662852       -18.0371
  38   2.0000      -0.641536       -17.4571
  39   2.0000      -0.622330       -16.9344
  40   2.0000      -0.588079       -16.0025
  41   2.0000      -0.570831       -15.5331
  42   2.0000      -0.554117       -15.0783
  43   2.0000      -0.543420       -14.7872
  44   2.0000      -0.539064       -14.6687
  45   2.0000      -0.537201       -14.6180
  46   2.0000      -0.522669       -14.2225
  47   2.0000      -0.513583       -13.9753
  48   2.0000      -0.508996       -13.8505
  49   2.0000      -0.493544       -13.4300
  50   2.0000      -0.492241       -13.3945
  51   2.0000      -0.478953       -13.0330
  52   2.0000      -0.471783       -12.8379
  53   2.0000      -0.465125       -12.6567
  54   2.0000      -0.457329       -12.4446
  55   2.0000      -0.449656       -12.2358
  56   2.0000      -0.443872       -12.0784
  57   2.0000      -0.436819       -11.8864
  58   2.0000      -0.431776       -11.7492
  59   2.0000      -0.421700       -11.4750
  60   2.0000      -0.415652       -11.3105
  61   2.0000      -0.413243       -11.2449
  62   2.0000      -0.396778       -10.7969
  63   2.0000      -0.351353        -9.5608
  64   2.0000      -0.329525        -8.9668
  65   2.0000      -0.328123        -8.9287
  66   2.0000      -0.297941        -8.1074
  67   0.0000       0.030964         0.8426
  68   0.0000       0.071117         1.9352
  69   0.0000       0.112689         3.0664
  70   0.0000       0.119509         3.2520
  71   0.0000       0.136726         3.7205

MULLIKEN ATOMIC CHARGES
-----------------------
   0 S :    0.097641
   1 C :   -0.128598
   2 C :   -0.091847
   3 C :    0.044046
   4 C :   -0.150368
   5 H :   -0.002779
   6 C :    0.077477
   7 H :    0.025898
   8 H :    0.018876
   9 C :   -0.069327
  10 H :    0.023464
  11 H :    0.022378
  12 C :   -0.050015
  13 H :    0.049118
  14 H :    0.022876
  15 H :    0.035457
  16 S :    0.094975
  17 C :   -0.096834
  18 C :   -0.029393
  19 C :   -0.043157
  20 C :   -0.131906
  21 H :    0.011931
  22 C :    0.070821
  23 H :    0.031978
  24 H :    0.033180
  25 C :   -0.076111
  26 H :    0.016242
  27 H :    0.039175
  28 C :   -0.078191
  29 H :    0.048099
  30 H :    0.026289
  31 H :    0.036250
  32 H :    0.052843
  33 H :    0.069513
Sum of atomic charges:    0.0000000

LOEWDIN ATOMIC CHARGES
----------------------
   0 S :    0.413408
   1 C :   -0.196533
   2 C :   -0.066460
   3 C :   -0.056032
   4 C :   -0.198458
   5 H :    0.020961
   6 C :   -0.025019
   7 H :    0.033501
   8 H :    0.024425
   9 C :   -0.038831
  10 H :    0.021370
  11 H :    0.019933
  12 C :   -0.061158
  13 H :    0.035238
  14 H :    0.026292
  15 H :    0.016027
  16 S :    0.404603
  17 C :   -0.182817
  18 C :   -0.075169
  19 C :   -0.055630
  20 C :   -0.206657
  21 H :    0.030092
  22 C :   -0.022685
  23 H :    0.028471
  24 H :    0.035792
  25 C :   -0.051185
  26 H :    0.021241
  27 H :    0.034875
  28 C :   -0.078626
  29 H :    0.033537
  30 H :    0.017975
  31 H :    0.030127
  32 H :    0.029003
  33 H :    0.038390

  Mayer bond orders larger than 0.100000
B(  0-S ,  1-C ) :   1.1446 B(  0-S ,  4-C ) :   1.1608 B(  1-C ,  2-C ) :   1.6083
B(  1-C , 32-H ) :   0.9693 B(  2-C ,  3-C ) :   1.2471 B(  2-C ,  6-C ) :   1.0152
B(  3-C ,  4-C ) :   1.5616 B(  3-C ,  5-H ) :   1.0001 B(  4-C , 20-C ) :   1.0232
B(  6-C ,  7-H ) :   0.9472 B(  6-C ,  8-H ) :   0.9343 B(  6-C ,  9-C ) :   1.0666
B(  9-C , 10-H ) :   0.9597 B(  9-C , 11-H ) :   0.9559 B(  9-C , 12-C ) :   1.0672
B( 12-C , 13-H ) :   0.9743 B( 12-C , 14-H ) :   0.9772 B( 12-C , 15-H ) :   0.9808
B( 16-S , 17-C ) :   1.1578 B( 16-S , 20-C ) :   1.1289 B( 17-C , 18-C ) :   1.6204
B( 17-C , 33-H ) :   0.9609 B( 18-C , 19-C ) :   1.2224 B( 18-C , 21-H ) :   1.0007
B( 19-C , 20-C ) :   1.6305 B( 19-C , 22-C ) :   1.0276 B( 22-C , 23-H ) :   0.9473
B( 22-C , 24-H ) :   0.9368 B( 22-C , 25-C ) :   1.0562 B( 25-C , 26-H ) :   0.9558
B( 25-C , 27-H ) :   0.9557 B( 25-C , 28-C ) :   1.0802 B( 28-C , 29-H ) :   0.9752
B( 28-C , 30-H ) :   0.9752 B( 28-C , 31-H ) :   0.9725

Dispersion correction           -0.014181462
FINAL SINGLE POINT ENERGY     -1339.866054804684

DIPOLE MOMENT
-------------
                                X             Y             Z
Electronic contribution:     11.88255      -5.45591      14.41873
Nuclear contribution   :    -12.19326       5.83965     -14.81891
                        -----------------------------------------
Total Dipole Moment    :     -0.31071       0.38374      -0.40018
                        -----------------------------------------
Magnitude (a.u.)       :      0.63556
Magnitude (Debye)      :      1.61548

Rotational constants in cm-1:     0.021857     0.007456     0.006675
Rotational constants in MHz :   655.245367   223.521718   200.107071

                             ****ORCA TERMINATED NORMALLY****
TOTAL RUN TIME: 0 days 0 hours 0 minutes 21 seconds 256 msec
