                         Program Version 4.2.1 -  RELEASE  -
|  1> ! wB97X-D3 SP def2-SVP
|  2> %pal
|  3> nprocs 24
|  4> end
|  5>
|  6> * xyz 0 1
|  7> S 	 -42.8475 	 -7.00514 	 -19.1499
|  8> C 	 -43.3279 	 -8.64524 	 -19.3411
|  9> C 	 -42.9421 	 -9.47774 	 -18.3111
| 10> C 	 -42.1549 	 -8.72217 	 -17.3451
| 11> C 	 -42.1286 	 -7.34772 	 -17.5627
| 12> H 	 -41.6534 	 -9.21347 	 -16.5564
| 13> C 	 -43.0615 	 -10.984 	 -18.3317
| 14> H 	 -43.8687 	 -11.2423 	 -19.0215
| 15> H 	 -43.3469 	 -11.3795 	 -17.3693
| 16> C 	 -41.8161 	 -11.7478 	 -18.8163
| 17> H 	 -41.2635 	 -11.1798 	 -19.5717
| 18> H 	 -41.184 	 -11.8949 	 -17.9696
| 19> C 	 -42.105 	 -13.1412 	 -19.3326
| 20> H 	 -42.316 	 -13.761 	 -18.5052
| 21> H 	 -42.9258 	 -13.1273 	 -20.0086
| 22> H 	 -41.2547 	 -13.6729 	 -19.7325
| 23> S 	 -39.9853 	 -5.59791 	 -17.466
| 24> C 	 -39.85 	 -4.55094 	 -16.0017
| 25> C 	 -40.7903 	 -4.9128 	 -15.0811
| 26> C 	 -41.6754 	 -5.92431 	 -15.5236
| 27> C 	 -41.3544 	 -6.39229 	 -16.7698
| 28> H 	 -40.8682 	 -4.60142 	 -14.0436
| 29> C 	 -42.7826 	 -6.43297 	 -14.6117
| 30> H 	 -43.4264 	 -7.0764 	 -15.2276
| 31> H 	 -43.4613 	 -5.71629 	 -14.3201
| 32> C 	 -42.2451 	 -7.27732 	 -13.4494
| 33> H 	 -41.3587 	 -6.8135 	 -12.9423
| 34> H 	 -41.7865 	 -8.22386 	 -13.7617
| 35> C 	 -43.2425 	 -7.41064 	 -12.2788
| 36> H 	 -43.647 	 -6.41951 	 -11.9479
| 37> H 	 -42.7638 	 -7.81756 	 -11.4226
| 38> H 	 -44.1664 	 -8.0351 	 -12.4458
| 39> H 	 -43.8337 	 -8.99026 	 -20.256
| 40> H 	 -39.1077 	 -3.77372 	 -15.8188
| 41> *
| 42>
| 43>                          ****END OF INPUT****

CARTESIAN COORDINATES (ANGSTROEM)
---------------------------------
  S    -42.847500   -7.005140  -19.149900
  C    -43.327900   -8.645240  -19.341100
  C    -42.942100   -9.477740  -18.311100
  C    -42.154900   -8.722170  -17.345100
  C    -42.128600   -7.347720  -17.562700
  H    -41.653400   -9.213470  -16.556400
  C    -43.061500  -10.984000  -18.331700
  H    -43.868700  -11.242300  -19.021500
  H    -43.346900  -11.379500  -17.369300
  C    -41.816100  -11.747800  -18.816300
  H    -41.263500  -11.179800  -19.571700
  H    -41.184000  -11.894900  -17.969600
  C    -42.105000  -13.141200  -19.332600
  H    -42.316000  -13.761000  -18.505200
  H    -42.925800  -13.127300  -20.008600
  H    -41.254700  -13.672900  -19.732500
  S    -39.985300   -5.597910  -17.466000
  C    -39.850000   -4.550940  -16.001700
  C    -40.790300   -4.912800  -15.081100
  C    -41.675400   -5.924310  -15.523600
  C    -41.354400   -6.392290  -16.769800
  H    -40.868200   -4.601420  -14.043600
  C    -42.782600   -6.432970  -14.611700
  H    -43.426400   -7.076400  -15.227600
  H    -43.461300   -5.716290  -14.320100
  C    -42.245100   -7.277320  -13.449400
  H    -41.358700   -6.813500  -12.942300
  H    -41.786500   -8.223860  -13.761700
  C    -43.242500   -7.410640  -12.278800
  H    -43.647000   -6.419510  -11.947900
  H    -42.763800   -7.817560  -11.422600
  H    -44.166400   -8.035100  -12.445800
  H    -43.833700   -8.990260  -20.256000
  H    -39.107700   -3.773720  -15.818800

 Total Charge           Charge          ....    0
 Multiplicity           Mult            ....    1
 Number of Electrons    NEL             ....  134
 Basis Dimension        Dim             ....  322

ORBITAL ENERGIES
----------------

  NO   OCC          E(Eh)            E(eV)
   0   2.0000     -88.966287     -2420.8957
   1   2.0000     -88.966173     -2420.8926
   2   2.0000     -10.329539      -281.0811
   3   2.0000     -10.322000      -280.8759
   4   2.0000     -10.321074      -280.8507
   5   2.0000     -10.314144      -280.6621
   6   2.0000     -10.301057      -280.3060
   7   2.0000     -10.295228      -280.1474
   8   2.0000     -10.294855      -280.1373
   9   2.0000     -10.292329      -280.0685
  10   2.0000     -10.292245      -280.0662
  11   2.0000     -10.290047      -280.0064
  12   2.0000     -10.284251      -279.8487
  13   2.0000     -10.282159      -279.7918
  14   2.0000     -10.281502      -279.7739
  15   2.0000     -10.269746      -279.4540
  16   2.0000      -8.081011      -219.8955
  17   2.0000      -8.080590      -219.8840
  18   2.0000      -6.039497      -164.3431
  19   2.0000      -6.039237      -164.3360
  20   2.0000      -6.035539      -164.2354
  21   2.0000      -6.035188      -164.2258
  22   2.0000      -6.031763      -164.1326
  23   2.0000      -6.031181      -164.1168
  24   2.0000      -1.005215       -27.3533
  25   2.0000      -0.983170       -26.7534
  26   2.0000      -0.913850       -24.8671
  27   2.0000      -0.906170       -24.6581
  28   2.0000      -0.870672       -23.6922
  29   2.0000      -0.850889       -23.1539
  30   2.0000      -0.847114       -23.0511
  31   2.0000      -0.815264       -22.1845
  32   2.0000      -0.782741       -21.2995
  33   2.0000      -0.770888       -20.9769
  34   2.0000      -0.705465       -19.1967
  35   2.0000      -0.701291       -19.0831
  36   2.0000      -0.695526       -18.9262
  37   2.0000      -0.663604       -18.0576
  38   2.0000      -0.642916       -17.4946
  39   2.0000      -0.619444       -16.8559
  40   2.0000      -0.600246       -16.3335
  41   2.0000      -0.578218       -15.7341
  42   2.0000      -0.561116       -15.2687
  43   2.0000      -0.552636       -15.0380
  44   2.0000      -0.529630       -14.4120
  45   2.0000      -0.521837       -14.1999
  46   2.0000      -0.514041       -13.9878
  47   2.0000      -0.510205       -13.8834
  48   2.0000      -0.507739       -13.8163
  49   2.0000      -0.502642       -13.6776
  50   2.0000      -0.491491       -13.3742
  51   2.0000      -0.476836       -12.9754
  52   2.0000      -0.468705       -12.7541
  53   2.0000      -0.461588       -12.5605
  54   2.0000      -0.456045       -12.4096
  55   2.0000      -0.453782       -12.3480
  56   2.0000      -0.449765       -12.2387
  57   2.0000      -0.441926       -12.0254
  58   2.0000      -0.431783       -11.7494
  59   2.0000      -0.425896       -11.5892
  60   2.0000      -0.424226       -11.5438
  61   2.0000      -0.421138       -11.4597
  62   2.0000      -0.405716       -11.0401
  63   2.0000      -0.341431        -9.2908
  64   2.0000      -0.331501        -9.0206
  65   2.0000      -0.326201        -8.8764
  66   2.0000      -0.300813        -8.1855
  67   0.0000       0.037437         1.0187
  68   0.0000       0.065753         1.7892
  69   0.0000       0.110425         3.0048
  70   0.0000       0.125906         3.4261
  71   0.0000       0.129097         3.5129

MULLIKEN ATOMIC CHARGES
-----------------------
   0 S :    0.118567
   1 C :   -0.136160
   2 C :   -0.083448
   3 C :    0.040952
   4 C :   -0.158347
   5 H :   -0.000450
   6 C :    0.075450
   7 H :    0.011164
   8 H :    0.021672
   9 C :   -0.066540
  10 H :    0.035939
  11 H :    0.018605
  12 C :   -0.018642
  13 H :    0.010427
  14 H :    0.024118
  15 H :    0.029144
  16 S :    0.109384
  17 C :   -0.095993
  18 C :   -0.006592
  19 C :   -0.056819
  20 C :   -0.171820
  21 H :    0.018094
  22 C :    0.138950
  23 H :    0.024002
  24 H :    0.004307
  25 C :   -0.092287
  26 H :    0.026975
  27 H :    0.027215
  28 C :   -0.059109
  29 H :    0.029975
  30 H :    0.025376
  31 H :    0.037842
  32 H :    0.057397
  33 H :    0.060653
Sum of atomic charges:    0.0000000

LOEWDIN ATOMIC CHARGES
----------------------
   0 S :    0.407567
   1 C :   -0.202338
   2 C :   -0.067642
   3 C :   -0.045543
   4 C :   -0.192803
   5 H :    0.022532
   6 C :   -0.028873
   7 H :    0.028273
   8 H :    0.028016
   9 C :   -0.037122
  10 H :    0.024858
  11 H :    0.019914
  12 C :   -0.059104
  13 H :    0.020432
  14 H :    0.017988
  15 H :    0.029109
  16 S :    0.392664
  17 C :   -0.168828
  18 C :   -0.066917
  19 C :   -0.054972
  20 C :   -0.208109
  21 H :    0.032797
  22 C :   -0.025205
  23 H :    0.036181
  24 H :    0.019639
  25 C :   -0.042153
  26 H :    0.026805
  27 H :    0.024909
  28 C :   -0.071892
  29 H :    0.027796
  30 H :    0.020267
  31 H :    0.027213
  32 H :    0.031542
  33 H :    0.032995

  Mayer bond orders larger than 0.100000
B(  0-S ,  1-C ) :   1.1565 B(  0-S ,  4-C ) :   1.1357 B(  1-C ,  2-C ) :   1.6092
B(  1-C , 32-H ) :   0.9598 B(  2-C ,  3-C ) :   1.2375 B(  2-C ,  6-C ) :   1.0478
B(  3-C ,  4-C ) :   1.5781 B(  3-C ,  5-H ) :   0.9988 B(  4-C , 20-C ) :   1.0231
B(  6-C ,  7-H ) :   0.9427 B(  6-C ,  8-H ) :   0.9332 B(  6-C ,  9-C ) :   1.0526
B(  9-C , 10-H ) :   0.9618 B(  9-C , 11-H ) :   0.9527 B(  9-C , 12-C ) :   1.0919
B( 12-C , 13-H ) :   0.9718 B( 12-C , 14-H ) :   0.9773 B( 12-C , 15-H ) :   0.9706
B( 16-S , 17-C ) :   1.1296 B( 16-S , 20-C ) :   1.1392 B( 17-C , 18-C ) :   1.6165
B( 17-C , 33-H ) :   0.9674 B( 18-C , 19-C ) :   1.2524 B( 18-C , 21-H ) :   0.9815
B( 19-C , 20-C ) :   1.6270 B( 19-C , 22-C ) :   1.0442 B( 22-C , 23-H ) :   0.9171
B( 22-C , 24-H ) :   0.9377 B( 22-C , 25-C ) :   1.0470 B( 25-C , 26-H ) :   0.9631
B( 25-C , 27-H ) :   0.9511 B( 25-C , 28-C ) :   1.0722 B( 28-C , 29-H ) :   0.9748
B( 28-C , 30-H ) :   0.9746 B( 28-C , 31-H ) :   0.9759

Dispersion correction           -0.013891244
FINAL SINGLE POINT ENERGY     -1339.884286369509

DIPOLE MOMENT
-------------
                                X             Y             Z
Electronic contribution:      6.74878      22.62988     -14.16855
Nuclear contribution   :     -6.78203     -23.12165      14.60463
                        -----------------------------------------
Total Dipole Moment    :     -0.03325      -0.49177       0.43608
                        -----------------------------------------
Magnitude (a.u.)       :      0.65811
Magnitude (Debye)      :      1.67278

Rotational constants in cm-1:     0.017840     0.007967     0.006434
Rotational constants in MHz :   534.815788   238.859420   192.893262

                             ****ORCA TERMINATED NORMALLY****
TOTAL RUN TIME: 0 days 0 hours 0 minutes 21 seconds 120 msec
