                         Program Version 4.2.1 -  RELEASE  -
|  1> ! wB97X-D3 SP def2-SVP
|  2> %pal
|  3> nprocs 24
|  4> end
|  5>
|  6> * xyz 0 1
|  7> S 	 -85.807 	 -33.877 	 -77.2245
|  8> C 	 -85.048 	 -33.5954 	 -78.7858
|  9> C 	 -85.8876 	 -33.7025 	 -79.8662
| 10> C 	 -87.2101 	 -33.9502 	 -79.4314
| 11> C 	 -87.3399 	 -34.2446 	 -78.0967
| 12> H 	 -88.0554 	 -34.0445 	 -80.0142
| 13> C 	 -85.4395 	 -33.3275 	 -81.2721
| 14> H 	 -85.0518 	 -34.2193 	 -81.8061
| 15> H 	 -84.5987 	 -32.6211 	 -81.4336
| 16> C 	 -86.6172 	 -32.7394 	 -82.1542
| 17> H 	 -86.2711 	 -32.5287 	 -83.2255
| 18> H 	 -87.4191 	 -33.547 	 -82.2791
| 19> C 	 -87.398 	 -31.5856 	 -81.4725
| 20> H 	 -88.3895 	 -31.6932 	 -81.887
| 21> H 	 -87.6035 	 -31.5513 	 -80.4036
| 22> H 	 -87.159 	 -30.5699 	 -81.7409
| 23> S 	 -88.4915 	 -35.8676 	 -76.2301
| 24> C 	 -90.1498 	 -35.6326 	 -75.7135
| 25> C 	 -90.7702 	 -34.786 	 -76.5944
| 26> C 	 -89.9279 	 -34.2041 	 -77.6086
| 27> C 	 -88.6177 	 -34.6466 	 -77.499
| 28> H 	 -91.8568 	 -34.7069 	 -76.4233
| 29> C 	 -90.4979 	 -33.2395 	 -78.7081
| 30> H 	 -89.7632 	 -32.4873 	 -78.7954
| 31> H 	 -91.3721 	 -32.6776 	 -78.2454
| 32> C 	 -91.0414 	 -33.8409 	 -79.9854
| 33> H 	 -91.7113 	 -34.6846 	 -79.8538
| 34> H 	 -90.1922 	 -34.3954 	 -80.3061
| 35> C 	 -91.5086 	 -32.8035 	 -81.0375
| 36> H 	 -90.9679 	 -31.895 	 -80.8436
| 37> H 	 -92.5718 	 -32.6093 	 -80.8497
| 38> H 	 -91.4537 	 -33.1272 	 -82.0733
| 39> H 	 -84.0223 	 -33.2169 	 -78.8705
| 40> H 	 -90.6587 	 -35.9507 	 -74.7953
| 41> *
| 42>
| 43>                          ****END OF INPUT****

CARTESIAN COORDINATES (ANGSTROEM)
---------------------------------
  S    -85.807000  -33.877000  -77.224500
  C    -85.048000  -33.595400  -78.785800
  C    -85.887600  -33.702500  -79.866200
  C    -87.210100  -33.950200  -79.431400
  C    -87.339900  -34.244600  -78.096700
  H    -88.055400  -34.044500  -80.014200
  C    -85.439500  -33.327500  -81.272100
  H    -85.051800  -34.219300  -81.806100
  H    -84.598700  -32.621100  -81.433600
  C    -86.617200  -32.739400  -82.154200
  H    -86.271100  -32.528700  -83.225500
  H    -87.419100  -33.547000  -82.279100
  C    -87.398000  -31.585600  -81.472500
  H    -88.389500  -31.693200  -81.887000
  H    -87.603500  -31.551300  -80.403600
  H    -87.159000  -30.569900  -81.740900
  S    -88.491500  -35.867600  -76.230100
  C    -90.149800  -35.632600  -75.713500
  C    -90.770200  -34.786000  -76.594400
  C    -89.927900  -34.204100  -77.608600
  C    -88.617700  -34.646600  -77.499000
  H    -91.856800  -34.706900  -76.423300
  C    -90.497900  -33.239500  -78.708100
  H    -89.763200  -32.487300  -78.795400
  H    -91.372100  -32.677600  -78.245400
  C    -91.041400  -33.840900  -79.985400
  H    -91.711300  -34.684600  -79.853800
  H    -90.192200  -34.395400  -80.306100
  C    -91.508600  -32.803500  -81.037500
  H    -90.967900  -31.895000  -80.843600
  H    -92.571800  -32.609300  -80.849700
  H    -91.453700  -33.127200  -82.073300
  H    -84.022300  -33.216900  -78.870500
  H    -90.658700  -35.950700  -74.795300

 Total Charge           Charge          ....    0
 Multiplicity           Mult            ....    1
 Number of Electrons    NEL             ....  134
 Basis Dimension        Dim             ....  322

ORBITAL ENERGIES
----------------

  NO   OCC          E(Eh)            E(eV)
   0   2.0000     -88.971446     -2421.0361
   1   2.0000     -88.961952     -2420.7778
   2   2.0000     -10.333077      -281.1773
   3   2.0000     -10.331478      -281.1338
   4   2.0000     -10.316455      -280.7250
   5   2.0000     -10.315349      -280.6949
   6   2.0000     -10.309930      -280.5475
   7   2.0000     -10.306878      -280.4644
   8   2.0000     -10.303699      -280.3779
   9   2.0000     -10.302060      -280.3333
  10   2.0000     -10.297077      -280.1977
  11   2.0000     -10.293953      -280.1127
  12   2.0000     -10.290957      -280.0312
  13   2.0000     -10.285071      -279.8710
  14   2.0000     -10.283097      -279.8173
  15   2.0000     -10.275291      -279.6049
  16   2.0000      -8.084988      -220.0037
  17   2.0000      -8.076612      -219.7758
  18   2.0000      -6.043584      -164.4543
  19   2.0000      -6.039817      -164.3518
  20   2.0000      -6.035564      -164.2361
  21   2.0000      -6.035230      -164.2270
  22   2.0000      -6.031040      -164.1129
  23   2.0000      -6.027342      -164.0123
  24   2.0000      -1.004644       -27.3378
  25   2.0000      -0.983115       -26.7519
  26   2.0000      -0.909699       -24.7542
  27   2.0000      -0.903885       -24.5960
  28   2.0000      -0.870443       -23.6860
  29   2.0000      -0.848981       -23.1020
  30   2.0000      -0.841942       -22.9104
  31   2.0000      -0.819460       -22.2986
  32   2.0000      -0.785424       -21.3725
  33   2.0000      -0.775762       -21.1095
  34   2.0000      -0.712030       -19.3753
  35   2.0000      -0.703064       -19.1313
  36   2.0000      -0.689611       -18.7653
  37   2.0000      -0.659616       -17.9491
  38   2.0000      -0.641426       -17.4541
  39   2.0000      -0.628762       -17.1095
  40   2.0000      -0.591725       -16.1017
  41   2.0000      -0.566161       -15.4060
  42   2.0000      -0.558709       -15.2033
  43   2.0000      -0.546005       -14.8575
  44   2.0000      -0.532674       -14.4948
  45   2.0000      -0.529675       -14.4132
  46   2.0000      -0.514946       -14.0124
  47   2.0000      -0.513429       -13.9711
  48   2.0000      -0.504642       -13.7320
  49   2.0000      -0.498020       -13.5518
  50   2.0000      -0.492109       -13.3910
  51   2.0000      -0.484406       -13.1814
  52   2.0000      -0.476578       -12.9683
  53   2.0000      -0.466052       -12.6819
  54   2.0000      -0.458055       -12.4643
  55   2.0000      -0.455944       -12.4069
  56   2.0000      -0.447198       -12.1689
  57   2.0000      -0.439521       -11.9600
  58   2.0000      -0.431986       -11.7549
  59   2.0000      -0.424069       -11.5395
  60   2.0000      -0.418082       -11.3766
  61   2.0000      -0.407869       -11.0987
  62   2.0000      -0.402510       -10.9528
  63   2.0000      -0.351315        -9.5598
  64   2.0000      -0.334965        -9.1149
  65   2.0000      -0.329021        -8.9531
  66   2.0000      -0.290522        -7.9055
  67   0.0000       0.024249         0.6599
  68   0.0000       0.070773         1.9258
  69   0.0000       0.107480         2.9247
  70   0.0000       0.117011         3.1840
  71   0.0000       0.121291         3.3005

MULLIKEN ATOMIC CHARGES
-----------------------
   0 S :    0.124803
   1 C :   -0.141566
   2 C :   -0.020524
   3 C :    0.030638
   4 C :   -0.101596
   5 H :   -0.048557
   6 C :    0.066653
   7 H :    0.041124
   8 H :    0.038904
   9 C :   -0.146549
  10 H :    0.051546
  11 H :    0.040970
  12 C :   -0.055273
  13 H :    0.015956
  14 H :    0.054179
  15 H :    0.026100
  16 S :    0.092127
  17 C :   -0.103070
  18 C :   -0.056446
  19 C :   -0.036864
  20 C :   -0.181398
  21 H :    0.029137
  22 C :    0.044626
  23 H :    0.018601
  24 H :    0.019380
  25 C :   -0.024975
  26 H :    0.022196
  27 H :   -0.004129
  28 C :   -0.029866
  29 H :    0.033259
  30 H :    0.035292
  31 H :    0.043320
  32 H :    0.055812
  33 H :    0.066193
Sum of atomic charges:   -0.0000000

LOEWDIN ATOMIC CHARGES
----------------------
   0 S :    0.386061
   1 C :   -0.183375
   2 C :   -0.064776
   3 C :   -0.044832
   4 C :   -0.181054
   5 H :    0.014880
   6 C :   -0.038609
   7 H :    0.036628
   8 H :    0.033912
   9 C :   -0.048041
  10 H :    0.036990
  11 H :    0.026251
  12 C :   -0.081682
  13 H :    0.027685
  14 H :    0.030672
  15 H :    0.022531
  16 S :    0.392428
  17 C :   -0.194771
  18 C :   -0.078242
  19 C :   -0.059151
  20 C :   -0.184647
  21 H :    0.036812
  22 C :   -0.030721
  23 H :    0.022116
  24 H :    0.032008
  25 C :   -0.046255
  26 H :    0.027597
  27 H :    0.013694
  28 C :   -0.059071
  29 H :    0.024431
  30 H :    0.029923
  31 H :    0.029742
  32 H :    0.031398
  33 H :    0.039469

  Mayer bond orders larger than 0.100000
B(  0-S ,  1-C ) :   1.1407 B(  0-S ,  4-C ) :   1.1225 B(  1-C ,  2-C ) :   1.6199
B(  1-C , 32-H ) :   0.9619 B(  2-C ,  3-C ) :   1.2279 B(  2-C ,  6-C ) :   1.0059
B(  3-C ,  4-C ) :   1.5800 B(  3-C ,  5-H ) :   1.0070 B(  4-C , 20-C ) :   1.0612
B(  6-C ,  7-H ) :   0.9317 B(  6-C ,  8-H ) :   0.9557 B(  6-C ,  9-C ) :   1.0700
B(  9-C , 10-H ) :   0.9563 B(  9-C , 11-H ) :   0.9632 B(  9-C , 12-C ) :   1.0485
B( 12-C , 13-H ) :   0.9757 B( 12-C , 14-H ) :   0.9729 B( 12-C , 15-H ) :   0.9741
B( 16-S , 17-C ) :   1.1360 B( 16-S , 20-C ) :   1.1355 B( 17-C , 18-C ) :   1.6437
B( 17-C , 33-H ) :   0.9623 B( 18-C , 19-C ) :   1.2278 B( 18-C , 21-H ) :   0.9837
B( 19-C , 20-C ) :   1.5957 B( 19-C , 22-C ) :   1.0336 B( 22-C , 23-H ) :   0.9297
B( 22-C , 24-H ) :   0.9351 B( 22-C , 25-C ) :   1.0598 B( 25-C , 26-H ) :   0.9463
B( 25-C , 27-H ) :   0.9492 B( 25-C , 28-C ) :   1.0621 B( 28-C , 29-H ) :   0.9746
B( 28-C , 30-H ) :   0.9746 B( 28-C , 31-H ) :   0.9759

Dispersion correction           -0.015920834
FINAL SINGLE POINT ENERGY     -1339.855636158838

DIPOLE MOMENT
-------------
                                X             Y             Z
Electronic contribution:     12.14912     -13.90495      26.53999
Nuclear contribution   :    -12.47230      14.29066     -27.14455
                        -----------------------------------------
Total Dipole Moment    :     -0.32319       0.38571      -0.60456
                        -----------------------------------------
Magnitude (a.u.)       :      0.78658
Magnitude (Debye)      :      1.99934

Rotational constants in cm-1:     0.016348     0.011413     0.007147
Rotational constants in MHz :   490.094255   342.143602   214.261092

                             ****ORCA TERMINATED NORMALLY****
TOTAL RUN TIME: 0 days 0 hours 0 minutes 23 seconds 66 msec
