                         Program Version 4.2.1 -  RELEASE  -
|  1> ! wB97X-D3 SP def2-SVP
|  2> %pal
|  3> nprocs 24
|  4> end
|  5>
|  6> * xyz 0 1
|  7> S 	 -70.431 	 12.0264 	 -76.088
|  8> C 	 -69.0207 	 12.409 	 -77.1181
|  9> C 	 -68.1415 	 13.3132 	 -76.4994
| 10> C 	 -68.5165 	 13.3808 	 -75.1067
| 11> C 	 -69.713 	 12.7494 	 -74.6619
| 12> H 	 -68.0294 	 14.0444 	 -74.4077
| 13> C 	 -66.9163 	 14.0186 	 -77.0651
| 14> H 	 -66.6432 	 13.403 	 -77.9275
| 15> H 	 -66.1891 	 13.8315 	 -76.3327
| 16> C 	 -66.9805 	 15.5238 	 -77.4907
| 17> H 	 -67.1725 	 16.1252 	 -76.656
| 18> H 	 -65.9557 	 15.8604 	 -77.9169
| 19> C 	 -67.9713 	 15.8801 	 -78.6831
| 20> H 	 -68.9792 	 15.8306 	 -78.2541
| 21> H 	 -67.7033 	 16.8693 	 -79.06
| 22> H 	 -68.04 	 15.1314 	 -79.5316
| 23> S 	 -70.7132 	 11.0852 	 -72.6939
| 24> C 	 -71.221 	 11.875 	 -71.2292
| 25> C 	 -71.1526 	 13.2058 	 -71.2732
| 26> C 	 -70.609 	 13.7023 	 -72.4594
| 27> C 	 -70.239 	 12.681 	 -73.3334
| 28> H 	 -71.5283 	 13.675 	 -70.3626
| 29> C 	 -70.6939 	 15.2166 	 -72.8016
| 30> H 	 -71.6801 	 15.136 	 -73.272
| 31> H 	 -69.9129 	 15.4206 	 -73.532
| 32> C 	 -70.7575 	 16.2496 	 -71.7052
| 33> H 	 -69.7524 	 16.1851 	 -71.2334
| 34> H 	 -71.4819 	 16.0448 	 -70.9463
| 35> C 	 -70.9957 	 17.6389 	 -72.2825
| 36> H 	 -70.7539 	 18.4005 	 -71.4644
| 37> H 	 -72.03 	 17.6773 	 -72.5095
| 38> H 	 -70.5074 	 17.8652 	 -73.2146
| 39> H 	 -68.9452 	 12.2368 	 -78.1853
| 40> H 	 -71.5557 	 11.3964 	 -70.4065
| 41> *
| 42>
| 43>                          ****END OF INPUT****

CARTESIAN COORDINATES (ANGSTROEM)
---------------------------------
  S    -70.431000   12.026400  -76.088000
  C    -69.020700   12.409000  -77.118100
  C    -68.141500   13.313200  -76.499400
  C    -68.516500   13.380800  -75.106700
  C    -69.713000   12.749400  -74.661900
  H    -68.029400   14.044400  -74.407700
  C    -66.916300   14.018600  -77.065100
  H    -66.643200   13.403000  -77.927500
  H    -66.189100   13.831500  -76.332700
  C    -66.980500   15.523800  -77.490700
  H    -67.172500   16.125200  -76.656000
  H    -65.955700   15.860400  -77.916900
  C    -67.971300   15.880100  -78.683100
  H    -68.979200   15.830600  -78.254100
  H    -67.703300   16.869300  -79.060000
  H    -68.040000   15.131400  -79.531600
  S    -70.713200   11.085200  -72.693900
  C    -71.221000   11.875000  -71.229200
  C    -71.152600   13.205800  -71.273200
  C    -70.609000   13.702300  -72.459400
  C    -70.239000   12.681000  -73.333400
  H    -71.528300   13.675000  -70.362600
  C    -70.693900   15.216600  -72.801600
  H    -71.680100   15.136000  -73.272000
  H    -69.912900   15.420600  -73.532000
  C    -70.757500   16.249600  -71.705200
  H    -69.752400   16.185100  -71.233400
  H    -71.481900   16.044800  -70.946300
  C    -70.995700   17.638900  -72.282500
  H    -70.753900   18.400500  -71.464400
  H    -72.030000   17.677300  -72.509500
  H    -70.507400   17.865200  -73.214600
  H    -68.945200   12.236800  -78.185300
  H    -71.555700   11.396400  -70.406500

 Total Charge           Charge          ....    0
 Multiplicity           Mult            ....    1
 Number of Electrons    NEL             ....  134
 Basis Dimension        Dim             ....  322

ORBITAL ENERGIES
----------------

  NO   OCC          E(Eh)            E(eV)
   0   2.0000     -88.966626     -2420.9050
   1   2.0000     -88.964768     -2420.8544
   2   2.0000     -10.330459      -281.1061
   3   2.0000     -10.325821      -280.9799
   4   2.0000     -10.317582      -280.7557
   5   2.0000     -10.306962      -280.4667
   6   2.0000     -10.305949      -280.4391
   7   2.0000     -10.304533      -280.4006
   8   2.0000     -10.300005      -280.2774
   9   2.0000     -10.295546      -280.1561
  10   2.0000     -10.293337      -280.0959
  11   2.0000     -10.293171      -280.0914
  12   2.0000     -10.287768      -279.9444
  13   2.0000     -10.287458      -279.9360
  14   2.0000     -10.285544      -279.8839
  15   2.0000     -10.280931      -279.7583
  16   2.0000      -8.080364      -219.8779
  17   2.0000      -8.079438      -219.8527
  18   2.0000      -6.038977      -164.3289
  19   2.0000      -6.037825      -164.2976
  20   2.0000      -6.035047      -164.2220
  21   2.0000      -6.034149      -164.1975
  22   2.0000      -6.031023      -164.1125
  23   2.0000      -6.030137      -164.0884
  24   2.0000      -1.005737       -27.3675
  25   2.0000      -0.979150       -26.6440
  26   2.0000      -0.914961       -24.8973
  27   2.0000      -0.905467       -24.6390
  28   2.0000      -0.870145       -23.6778
  29   2.0000      -0.854966       -23.2648
  30   2.0000      -0.840418       -22.8689
  31   2.0000      -0.811086       -22.0708
  32   2.0000      -0.785201       -21.3664
  33   2.0000      -0.775521       -21.1030
  34   2.0000      -0.712877       -19.3984
  35   2.0000      -0.704299       -19.1650
  36   2.0000      -0.700251       -19.0548
  37   2.0000      -0.652773       -17.7629
  38   2.0000      -0.634225       -17.2581
  39   2.0000      -0.615509       -16.7488
  40   2.0000      -0.600315       -16.3354
  41   2.0000      -0.575859       -15.6699
  42   2.0000      -0.565646       -15.3920
  43   2.0000      -0.549461       -14.9516
  44   2.0000      -0.541863       -14.7449
  45   2.0000      -0.534068       -14.5327
  46   2.0000      -0.518143       -14.0994
  47   2.0000      -0.507898       -13.8206
  48   2.0000      -0.502693       -13.6790
  49   2.0000      -0.497781       -13.5453
  50   2.0000      -0.485816       -13.2197
  51   2.0000      -0.481275       -13.0962
  52   2.0000      -0.470005       -12.7895
  53   2.0000      -0.468097       -12.7376
  54   2.0000      -0.458293       -12.4708
  55   2.0000      -0.448604       -12.2071
  56   2.0000      -0.445387       -12.1196
  57   2.0000      -0.439655       -11.9636
  58   2.0000      -0.433127       -11.7860
  59   2.0000      -0.427360       -11.6291
  60   2.0000      -0.423627       -11.5275
  61   2.0000      -0.413777       -11.2595
  62   2.0000      -0.410483       -11.1698
  63   2.0000      -0.343836        -9.3563
  64   2.0000      -0.333127        -9.0648
  65   2.0000      -0.326317        -8.8795
  66   2.0000      -0.288121        -7.8402
  67   0.0000       0.026427         0.7191
  68   0.0000       0.067286         1.8309
  69   0.0000       0.105653         2.8750
  70   0.0000       0.122256         3.3268
  71   0.0000       0.127812         3.4779

MULLIKEN ATOMIC CHARGES
-----------------------
   0 S :    0.109819
   1 C :   -0.122420
   2 C :   -0.116929
   3 C :    0.026033
   4 C :   -0.170312
   5 H :    0.002717
   6 C :    0.095157
   7 H :    0.019587
   8 H :    0.025761
   9 C :   -0.070883
  10 H :    0.025409
  11 H :    0.042642
  12 C :   -0.087097
  13 H :    0.045241
  14 H :    0.045752
  15 H :    0.038419
  16 S :    0.110440
  17 C :   -0.033792
  18 C :   -0.061256
  19 C :   -0.001464
  20 C :   -0.174417
  21 H :    0.019773
  22 C :    0.051075
  23 H :    0.044809
  24 H :    0.026360
  25 C :   -0.069793
  26 H :    0.031933
  27 H :    0.029378
  28 C :   -0.032477
  29 H :    0.049238
  30 H :    0.020485
  31 H :    0.030060
  32 H :    0.047259
  33 H :    0.003495
Sum of atomic charges:    0.0000000

LOEWDIN ATOMIC CHARGES
----------------------
   0 S :    0.393126
   1 C :   -0.192956
   2 C :   -0.062714
   3 C :   -0.067494
   4 C :   -0.201213
   5 H :    0.020262
   6 C :   -0.029012
   7 H :    0.033943
   8 H :    0.029252
   9 C :   -0.033881
  10 H :    0.014804
  11 H :    0.034617
  12 C :   -0.073161
  13 H :    0.027485
  14 H :    0.027423
  15 H :    0.029666
  16 S :    0.396001
  17 C :   -0.157267
  18 C :   -0.082393
  19 C :   -0.041777
  20 C :   -0.202547
  21 H :    0.037783
  22 C :   -0.029395
  23 H :    0.041400
  24 H :    0.029259
  25 C :   -0.044315
  26 H :    0.027184
  27 H :    0.020659
  28 C :   -0.059872
  29 H :    0.038015
  30 H :    0.021053
  31 H :    0.023620
  32 H :    0.026016
  33 H :    0.006430

  Mayer bond orders larger than 0.100000
B(  0-S ,  1-C ) :   1.1435 B(  0-S ,  4-C ) :   1.1392 B(  1-C ,  2-C ) :   1.5905
B(  1-C ,  4-C ) :   0.1033 B(  1-C , 32-H ) :   0.9613 B(  2-C ,  3-C ) :   1.2616
B(  2-C ,  6-C ) :   1.0118 B(  3-C ,  4-C ) :   1.5584 B(  3-C ,  5-H ) :   0.9836
B(  4-C , 20-C ) :   1.0885 B(  6-C ,  7-H ) :   0.9389 B(  6-C ,  8-H ) :   0.9413
B(  6-C ,  9-C ) :   1.0638 B(  9-C , 10-H ) :   0.9602 B(  9-C , 11-H ) :   0.9613
B(  9-C , 12-C ) :   1.0569 B( 12-C , 13-H ) :   0.9778 B( 12-C , 14-H ) :   0.9774
B( 12-C , 15-H ) :   0.9785 B( 16-S , 17-C ) :   1.1519 B( 16-S , 20-C ) :   1.1239
B( 17-C , 18-C ) :   1.6501 B( 17-C , 33-H ) :   0.9695 B( 18-C , 19-C ) :   1.2188
B( 18-C , 21-H ) :   0.9899 B( 19-C , 20-C ) :   1.5962 B( 19-C , 22-C ) :   1.0080
B( 22-C , 23-H ) :   0.9333 B( 22-C , 24-H ) :   0.9319 B( 22-C , 25-C ) :   1.0782
B( 25-C , 26-H ) :   0.9568 B( 25-C , 27-H ) :   0.9459 B( 25-C , 28-C ) :   1.0794
B( 28-C , 29-H ) :   0.9728 B( 28-C , 30-H ) :   0.9746 B( 28-C , 31-H ) :   0.9750

Dispersion correction           -0.013709946
FINAL SINGLE POINT ENERGY     -1339.853541542643

DIPOLE MOMENT
-------------
                                X             Y             Z
Electronic contribution:     -8.15728     -28.55335       5.35752
Nuclear contribution   :      8.22764      29.32162      -5.18514
                        -----------------------------------------
Total Dipole Moment    :      0.07036       0.76827       0.17238
                        -----------------------------------------
Magnitude (a.u.)       :      0.79051
Magnitude (Debye)      :      2.00932

Rotational constants in cm-1:     0.016800     0.008788     0.006292
Rotational constants in MHz :   503.664472   263.468139   188.617650

                             ****ORCA TERMINATED NORMALLY****
TOTAL RUN TIME: 0 days 0 hours 0 minutes 21 seconds 253 msec
