                         Program Version 4.2.1 -  RELEASE  -
|  1> ! wB97X-D3 SP def2-SVP
|  2> %pal
|  3> nprocs 24
|  4> end
|  5>
|  6> * xyz 0 1
|  7> S 	 -111.357 	 72.0123 	 -10.3883
|  8> C 	 -110.184 	 73.2704 	 -10.3807
|  9> C 	 -108.955 	 72.8134 	 -10.0316
| 10> C 	 -108.949 	 71.3976 	 -9.94137
| 11> C 	 -110.187 	 70.8199 	 -10.1616
| 12> H 	 -108.046 	 70.8574 	 -9.71677
| 13> C 	 -107.783 	 73.6707 	 -9.67392
| 14> H 	 -106.948 	 73.1173 	 -9.46432
| 15> H 	 -108.047 	 74.1238 	 -8.68039
| 16> C 	 -107.437 	 74.8043 	 -10.7711
| 17> H 	 -107.054 	 74.3251 	 -11.7415
| 18> H 	 -108.323 	 75.3792 	 -11.0554
| 19> C 	 -106.335 	 75.8165 	 -10.4308
| 20> H 	 -105.391 	 75.3704 	 -9.94317
| 21> H 	 -106.016 	 76.376 	 -11.3183
| 22> H 	 -106.59 	 76.5523 	 -9.69301
| 23> S 	 -111.671 	 68.739 	 -8.98523
| 24> C 	 -111.407 	 67.1326 	 -9.36247
| 25> C 	 -110.44 	 67.0229 	 -10.3263
| 26> C 	 -109.818 	 68.2628 	 -10.653
| 27> C 	 -110.458 	 69.3732 	 -10.074
| 28> H 	 -110.179 	 66.0379 	 -10.7975
| 29> C 	 -108.68 	 68.3933 	 -11.6366
| 30> H 	 -108.086 	 67.5083 	 -11.6155
| 31> H 	 -108.149 	 69.2164 	 -11.3344
| 32> C 	 -109.149 	 68.4919 	 -13.1252
| 33> H 	 -108.19 	 68.6875 	 -13.6391
| 34> H 	 -109.777 	 69.3536 	 -13.2928
| 35> C 	 -109.739 	 67.2034 	 -13.6757
| 36> H 	 -109.031 	 66.3681 	 -13.7606
| 37> H 	 -110.194 	 67.3316 	 -14.6486
| 38> H 	 -110.61 	 66.8986 	 -13.0387
| 39> H 	 -110.4 	 74.2977 	 -10.5647
| 40> H 	 -112.01 	 66.3505 	 -8.96193
| 41> *
| 42>
| 43>                          ****END OF INPUT****

CARTESIAN COORDINATES (ANGSTROEM)
---------------------------------
  S    -111.357000   72.012300  -10.388300
  C    -110.184000   73.270400  -10.380700
  C    -108.955000   72.813400  -10.031600
  C    -108.949000   71.397600   -9.941370
  C    -110.187000   70.819900  -10.161600
  H    -108.046000   70.857400   -9.716770
  C    -107.783000   73.670700   -9.673920
  H    -106.948000   73.117300   -9.464320
  H    -108.047000   74.123800   -8.680390
  C    -107.437000   74.804300  -10.771100
  H    -107.054000   74.325100  -11.741500
  H    -108.323000   75.379200  -11.055400
  C    -106.335000   75.816500  -10.430800
  H    -105.391000   75.370400   -9.943170
  H    -106.016000   76.376000  -11.318300
  H    -106.590000   76.552300   -9.693010
  S    -111.671000   68.739000   -8.985230
  C    -111.407000   67.132600   -9.362470
  C    -110.440000   67.022900  -10.326300
  C    -109.818000   68.262800  -10.653000
  C    -110.458000   69.373200  -10.074000
  H    -110.179000   66.037900  -10.797500
  C    -108.680000   68.393300  -11.636600
  H    -108.086000   67.508300  -11.615500
  H    -108.149000   69.216400  -11.334400
  C    -109.149000   68.491900  -13.125200
  H    -108.190000   68.687500  -13.639100
  H    -109.777000   69.353600  -13.292800
  C    -109.739000   67.203400  -13.675700
  H    -109.031000   66.368100  -13.760600
  H    -110.194000   67.331600  -14.648600
  H    -110.610000   66.898600  -13.038700
  H    -110.400000   74.297700  -10.564700
  H    -112.010000   66.350500   -8.961930

 Total Charge           Charge          ....    0
 Multiplicity           Mult            ....    1
 Number of Electrons    NEL             ....  134
 Basis Dimension        Dim             ....  322

ORBITAL ENERGIES
----------------

  NO   OCC          E(Eh)            E(eV)
   0   2.0000     -88.967767     -2420.9360
   1   2.0000     -88.960450     -2420.7369
   2   2.0000     -10.327456      -281.0244
   3   2.0000     -10.325486      -280.9708
   4   2.0000     -10.308728      -280.5147
   5   2.0000     -10.305484      -280.4265
   6   2.0000     -10.302406      -280.3427
   7   2.0000     -10.299250      -280.2569
   8   2.0000     -10.296231      -280.1747
   9   2.0000     -10.295140      -280.1450
  10   2.0000     -10.292505      -280.0733
  11   2.0000     -10.290096      -280.0077
  12   2.0000     -10.284610      -279.8585
  13   2.0000     -10.283237      -279.8211
  14   2.0000     -10.278759      -279.6993
  15   2.0000     -10.276509      -279.6380
  16   2.0000      -8.084092      -219.9793
  17   2.0000      -8.076883      -219.7832
  18   2.0000      -6.042474      -164.4241
  19   2.0000      -6.038260      -164.3094
  20   2.0000      -6.035213      -164.2265
  21   2.0000      -6.035030      -164.2215
  22   2.0000      -6.030923      -164.1098
  23   2.0000      -6.027969      -164.0294
  24   2.0000      -1.016904       -27.6714
  25   2.0000      -0.996501       -27.1162
  26   2.0000      -0.909500       -24.7487
  27   2.0000      -0.907781       -24.7020
  28   2.0000      -0.868313       -23.6280
  29   2.0000      -0.854620       -23.2554
  30   2.0000      -0.843406       -22.9502
  31   2.0000      -0.814626       -22.1671
  32   2.0000      -0.786936       -21.4136
  33   2.0000      -0.776361       -21.1259
  34   2.0000      -0.709145       -19.2968
  35   2.0000      -0.700922       -19.0731
  36   2.0000      -0.689929       -18.7739
  37   2.0000      -0.660635       -17.9768
  38   2.0000      -0.642085       -17.4720
  39   2.0000      -0.619287       -16.8517
  40   2.0000      -0.596640       -16.2354
  41   2.0000      -0.576605       -15.6902
  42   2.0000      -0.561359       -15.2754
  43   2.0000      -0.553086       -15.0502
  44   2.0000      -0.535681       -14.5766
  45   2.0000      -0.526508       -14.3270
  46   2.0000      -0.516620       -14.0579
  47   2.0000      -0.512139       -13.9360
  48   2.0000      -0.506151       -13.7731
  49   2.0000      -0.504594       -13.7307
  50   2.0000      -0.486979       -13.2514
  51   2.0000      -0.478930       -13.0323
  52   2.0000      -0.476845       -12.9756
  53   2.0000      -0.472601       -12.8601
  54   2.0000      -0.463134       -12.6025
  55   2.0000      -0.448361       -12.2005
  56   2.0000      -0.443794       -12.0762
  57   2.0000      -0.435540       -11.8516
  58   2.0000      -0.433031       -11.7834
  59   2.0000      -0.430584       -11.7168
  60   2.0000      -0.419956       -11.4276
  61   2.0000      -0.418399       -11.3852
  62   2.0000      -0.407211       -11.0808
  63   2.0000      -0.347577        -9.4581
  64   2.0000      -0.331859        -9.0304
  65   2.0000      -0.326171        -8.8756
  66   2.0000      -0.291830        -7.9411
  67   0.0000       0.036322         0.9884
  68   0.0000       0.074808         2.0356
  69   0.0000       0.122720         3.3394
  70   0.0000       0.126258         3.4357
  71   0.0000       0.137078         3.7301

MULLIKEN ATOMIC CHARGES
-----------------------
   0 S :    0.133022
   1 C :   -0.131542
   2 C :   -0.076194
   3 C :    0.019574
   4 C :   -0.148528
   5 H :    0.010366
   6 C :    0.119031
   7 H :   -0.009654
   8 H :    0.048439
   9 C :   -0.111000
  10 H :    0.046636
  11 H :    0.035275
  12 C :   -0.071397
  13 H :    0.032755
  14 H :    0.040661
  15 H :    0.025325
  16 S :    0.109014
  17 C :   -0.080429
  18 C :   -0.054643
  19 C :   -0.087092
  20 C :   -0.148845
  21 H :    0.034912
  22 C :    0.151087
  23 H :    0.005501
  24 H :   -0.014256
  25 C :   -0.059773
  26 H :    0.028156
  27 H :    0.032999
  28 C :   -0.066760
  29 H :    0.031854
  30 H :    0.031012
  31 H :    0.038305
  32 H :    0.033588
  33 H :    0.052603
Sum of atomic charges:    0.0000000

LOEWDIN ATOMIC CHARGES
----------------------
   0 S :    0.452460
   1 C :   -0.203321
   2 C :   -0.065773
   3 C :   -0.063322
   4 C :   -0.217233
   5 H :    0.027646
   6 C :   -0.022095
   7 H :    0.014422
   8 H :    0.043748
   9 C :   -0.042607
  10 H :    0.035810
  11 H :    0.022600
  12 C :   -0.079206
  13 H :    0.031454
  14 H :    0.029786
  15 H :    0.018068
  16 S :    0.438239
  17 C :   -0.207347
  18 C :   -0.086539
  19 C :   -0.054967
  20 C :   -0.207236
  21 H :    0.037952
  22 C :   -0.019673
  23 H :    0.026581
  24 H :    0.015477
  25 C :   -0.031231
  26 H :    0.025602
  27 H :    0.023555
  28 C :   -0.073335
  29 H :    0.024374
  30 H :    0.026591
  31 H :    0.030713
  32 H :    0.021269
  33 H :    0.027539

  Mayer bond orders larger than 0.100000
B(  0-S ,  1-C ) :   1.1516 B(  0-S ,  4-C ) :   1.1859 B(  1-C ,  2-C ) :   1.5830
B(  1-C , 32-H ) :   0.9752 B(  2-C ,  3-C ) :   1.2862 B(  2-C ,  6-C ) :   1.0244
B(  3-C ,  4-C ) :   1.5235 B(  3-C ,  5-H ) :   0.9932 B(  4-C , 20-C ) :   1.0203
B(  6-C ,  7-H ) :   0.9355 B(  6-C ,  8-H ) :   0.9368 B(  6-C ,  9-C ) :   1.0437
B(  9-C , 10-H ) :   0.9614 B(  9-C , 11-H ) :   0.9590 B(  9-C , 12-C ) :   1.0802
B( 12-C , 13-H ) :   0.9736 B( 12-C , 14-H ) :   0.9751 B( 12-C , 15-H ) :   0.9752
B( 16-S , 17-C ) :   1.1948 B( 16-S , 20-C ) :   1.1599 B( 17-C , 18-C ) :   1.5515
B( 17-C , 20-C ) :   0.1043 B( 17-C , 33-H ) :   0.9721 B( 18-C , 19-C ) :   1.2827
B( 18-C , 21-H ) :   0.9824 B( 19-C , 20-C ) :   1.5527 B( 19-C , 22-C ) :   1.0593
B( 22-C , 23-H ) :   0.9266 B( 22-C , 24-H ) :   0.9184 B( 22-C , 25-C ) :   1.0726
B( 25-C , 26-H ) :   0.9555 B( 25-C , 27-H ) :   0.9582 B( 25-C , 28-C ) :   1.0818
B( 28-C , 29-H ) :   0.9740 B( 28-C , 30-H ) :   0.9705 B( 28-C , 31-H ) :   0.9692

Dispersion correction           -0.014086353
FINAL SINGLE POINT ENERGY     -1339.883583147745

DIPOLE MOMENT
-------------
                                X             Y             Z
Electronic contribution:    -21.09386      -7.20598      13.18741
Nuclear contribution   :     21.61916       7.32008     -13.35083
                        -----------------------------------------
Total Dipole Moment    :      0.52530       0.11409      -0.16342
                        -----------------------------------------
Magnitude (a.u.)       :      0.56184
Magnitude (Debye)      :      1.42807

Rotational constants in cm-1:     0.022486     0.007303     0.006226
Rotational constants in MHz :   674.116800   218.936244   186.638916

                             ****ORCA TERMINATED NORMALLY****
TOTAL RUN TIME: 0 days 0 hours 0 minutes 21 seconds 455 msec
