                         Program Version 4.2.1 -  RELEASE  -
|  1> ! wB97X-D3 SP def2-SVP
|  2> %pal
|  3> nprocs 24
|  4> end
|  5>
|  6> * xyz 0 1
|  7> S 	 -90.9642 	 -35.0177 	 -64.5389
|  8> C 	 -92.6424 	 -35.3579 	 -64.8415
|  9> C 	 -93.1944 	 -34.4488 	 -65.6958
| 10> C 	 -92.244 	 -33.4355 	 -66.0378
| 11> C 	 -90.9639 	 -33.6185 	 -65.5123
| 12> H 	 -92.3621 	 -32.5497 	 -66.6807
| 13> C 	 -94.6047 	 -34.3889 	 -66.1843
| 14> H 	 -94.7041 	 -33.4053 	 -66.4694
| 15> H 	 -95.2573 	 -34.4365 	 -65.3787
| 16> C 	 -95.0168 	 -35.3553 	 -67.3097
| 17> H 	 -94.5113 	 -35.1742 	 -68.2526
| 18> H 	 -94.7117 	 -36.3468 	 -67.0156
| 19> C 	 -96.4929 	 -35.3009 	 -67.7371
| 20> H 	 -97.0347 	 -35.8648 	 -67.0809
| 21> H 	 -96.9436 	 -34.3198 	 -67.9026
| 22> H 	 -96.5289 	 -35.8937 	 -68.6015
| 23> S 	 -89.2654 	 -32.0702 	 -64.0299
| 24> C 	 -87.8971 	 -31.3215 	 -64.8908
| 25> C 	 -87.9466 	 -31.5374 	 -66.2406
| 26> C 	 -89.0451 	 -32.3485 	 -66.6332
| 27> C 	 -89.819 	 -32.6701 	 -65.5352
| 28> H 	 -87.1826 	 -31.2183 	 -66.9485
| 29> C 	 -89.2232 	 -32.862 	 -68.0771
| 30> H 	 -90.1776 	 -33.4269 	 -68.1618
| 31> H 	 -88.5054 	 -33.6862 	 -68.2046
| 32> C 	 -89.2478 	 -31.9004 	 -69.288
| 33> H 	 -88.6975 	 -31.0355 	 -68.9513
| 34> H 	 -90.2892 	 -31.5747 	 -69.4652
| 35> C 	 -88.7049 	 -32.5184 	 -70.6245
| 36> H 	 -89.1055 	 -31.979 	 -71.4831
| 37> H 	 -88.9581 	 -33.5371 	 -70.9053
| 38> H 	 -87.6577 	 -32.5406 	 -70.6664
| 39> H 	 -93.2486 	 -36.1836 	 -64.5027
| 40> H 	 -87.2968 	 -30.4679 	 -64.5857
| 41> *
| 42>
| 43>                          ****END OF INPUT****

CARTESIAN COORDINATES (ANGSTROEM)
---------------------------------
  S    -90.964200  -35.017700  -64.538900
  C    -92.642400  -35.357900  -64.841500
  C    -93.194400  -34.448800  -65.695800
  C    -92.244000  -33.435500  -66.037800
  C    -90.963900  -33.618500  -65.512300
  H    -92.362100  -32.549700  -66.680700
  C    -94.604700  -34.388900  -66.184300
  H    -94.704100  -33.405300  -66.469400
  H    -95.257300  -34.436500  -65.378700
  C    -95.016800  -35.355300  -67.309700
  H    -94.511300  -35.174200  -68.252600
  H    -94.711700  -36.346800  -67.015600
  C    -96.492900  -35.300900  -67.737100
  H    -97.034700  -35.864800  -67.080900
  H    -96.943600  -34.319800  -67.902600
  H    -96.528900  -35.893700  -68.601500
  S    -89.265400  -32.070200  -64.029900
  C    -87.897100  -31.321500  -64.890800
  C    -87.946600  -31.537400  -66.240600
  C    -89.045100  -32.348500  -66.633200
  C    -89.819000  -32.670100  -65.535200
  H    -87.182600  -31.218300  -66.948500
  C    -89.223200  -32.862000  -68.077100
  H    -90.177600  -33.426900  -68.161800
  H    -88.505400  -33.686200  -68.204600
  C    -89.247800  -31.900400  -69.288000
  H    -88.697500  -31.035500  -68.951300
  H    -90.289200  -31.574700  -69.465200
  C    -88.704900  -32.518400  -70.624500
  H    -89.105500  -31.979000  -71.483100
  H    -88.958100  -33.537100  -70.905300
  H    -87.657700  -32.540600  -70.666400
  H    -93.248600  -36.183600  -64.502700
  H    -87.296800  -30.467900  -64.585700

 Total Charge           Charge          ....    0
 Multiplicity           Mult            ....    1
 Number of Electrons    NEL             ....  134
 Basis Dimension        Dim             ....  322

ORBITAL ENERGIES
----------------

  NO   OCC          E(Eh)            E(eV)
   0   2.0000     -88.970998     -2421.0239
   1   2.0000     -88.964448     -2420.8457
   2   2.0000     -10.326257      -280.9917
   3   2.0000     -10.323482      -280.9162
   4   2.0000     -10.315803      -280.7073
   5   2.0000     -10.307374      -280.4779
   6   2.0000     -10.302526      -280.3460
   7   2.0000     -10.294654      -280.1318
   8   2.0000     -10.293556      -280.1019
   9   2.0000     -10.293129      -280.0903
  10   2.0000     -10.292882      -280.0835
  11   2.0000     -10.290658      -280.0230
  12   2.0000     -10.284567      -279.8573
  13   2.0000     -10.278022      -279.6792
  14   2.0000     -10.276779      -279.6454
  15   2.0000     -10.267258      -279.3863
  16   2.0000      -8.085678      -220.0225
  17   2.0000      -8.079943      -219.8664
  18   2.0000      -6.044156      -164.4698
  19   2.0000      -6.040293      -164.3647
  20   2.0000      -6.038399      -164.3132
  21   2.0000      -6.036355      -164.2576
  22   2.0000      -6.034161      -164.1979
  23   2.0000      -6.030898      -164.1091
  24   2.0000      -1.010930       -27.5088
  25   2.0000      -0.988489       -26.8981
  26   2.0000      -0.914827       -24.8937
  27   2.0000      -0.901348       -24.5269
  28   2.0000      -0.871121       -23.7044
  29   2.0000      -0.851061       -23.1586
  30   2.0000      -0.849941       -23.1281
  31   2.0000      -0.814371       -22.1602
  32   2.0000      -0.789442       -21.4818
  33   2.0000      -0.776895       -21.1404
  34   2.0000      -0.709306       -19.3012
  35   2.0000      -0.706308       -19.2196
  36   2.0000      -0.695850       -18.9350
  37   2.0000      -0.660704       -17.9787
  38   2.0000      -0.641136       -17.4462
  39   2.0000      -0.613983       -16.7073
  40   2.0000      -0.594806       -16.1855
  41   2.0000      -0.573203       -15.5976
  42   2.0000      -0.561525       -15.2799
  43   2.0000      -0.556538       -15.1442
  44   2.0000      -0.532432       -14.4882
  45   2.0000      -0.521176       -14.1819
  46   2.0000      -0.515253       -14.0207
  47   2.0000      -0.508292       -13.8313
  48   2.0000      -0.506654       -13.7868
  49   2.0000      -0.501679       -13.6514
  50   2.0000      -0.493384       -13.4257
  51   2.0000      -0.478540       -13.0217
  52   2.0000      -0.474292       -12.9061
  53   2.0000      -0.464001       -12.6261
  54   2.0000      -0.459987       -12.5169
  55   2.0000      -0.456895       -12.4328
  56   2.0000      -0.445899       -12.1335
  57   2.0000      -0.439262       -11.9529
  58   2.0000      -0.435424       -11.8485
  59   2.0000      -0.431308       -11.7365
  60   2.0000      -0.421541       -11.4707
  61   2.0000      -0.415474       -11.3056
  62   2.0000      -0.406345       -11.0572
  63   2.0000      -0.344022        -9.3613
  64   2.0000      -0.334670        -9.1068
  65   2.0000      -0.327946        -8.9239
  66   2.0000      -0.297105        -8.0846
  67   0.0000       0.039754         1.0818
  68   0.0000       0.066293         1.8039
  69   0.0000       0.113089         3.0773
  70   0.0000       0.127559         3.4710
  71   0.0000       0.132575         3.6075

MULLIKEN ATOMIC CHARGES
-----------------------
   0 S :    0.120306
   1 C :   -0.116171
   2 C :   -0.111688
   3 C :    0.026461
   4 C :   -0.183289
   5 H :    0.014015
   6 C :    0.169754
   7 H :   -0.018311
   8 H :    0.003298
   9 C :   -0.082525
  10 H :    0.022664
  11 H :    0.016438
  12 C :    0.012936
  13 H :    0.003625
  14 H :    0.040598
  15 H :    0.012709
  16 S :    0.128361
  17 C :   -0.083651
  18 C :   -0.053102
  19 C :   -0.028578
  20 C :   -0.174204
  21 H :    0.027627
  22 C :    0.043795
  23 H :    0.026964
  24 H :    0.041417
  25 C :   -0.055377
  26 H :    0.024741
  27 H :    0.036489
  28 C :   -0.044912
  29 H :    0.029682
  30 H :    0.025269
  31 H :    0.024608
  32 H :    0.036880
  33 H :    0.063174
Sum of atomic charges:    0.0000000

LOEWDIN ATOMIC CHARGES
----------------------
   0 S :    0.430866
   1 C :   -0.204396
   2 C :   -0.063170
   3 C :   -0.070470
   4 C :   -0.214266
   5 H :    0.032085
   6 C :   -0.025056
   7 H :    0.021353
   8 H :    0.024402
   9 C :   -0.029783
  10 H :    0.023331
  11 H :    0.020505
  12 C :   -0.054586
  13 H :    0.012042
  14 H :    0.029482
  15 H :    0.024397
  16 S :    0.417560
  17 C :   -0.188381
  18 C :   -0.065664
  19 C :   -0.059262
  20 C :   -0.208418
  21 H :    0.034213
  22 C :   -0.042519
  23 H :    0.034546
  24 H :    0.035630
  25 C :   -0.035853
  26 H :    0.020361
  27 H :    0.028213
  28 C :   -0.065579
  29 H :    0.029222
  30 H :    0.027039
  31 H :    0.018451
  32 H :    0.029334
  33 H :    0.034371

  Mayer bond orders larger than 0.100000
B(  0-S ,  1-C ) :   1.1425 B(  0-S ,  4-C ) :   1.1756 B(  1-C ,  2-C ) :   1.6059
B(  1-C , 32-H ) :   0.9682 B(  2-C ,  3-C ) :   1.2584 B(  2-C ,  6-C ) :   1.0180
B(  3-C ,  4-C ) :   1.5706 B(  3-C ,  5-H ) :   0.9881 B(  4-C , 20-C ) :   0.9895
B(  6-C ,  7-H ) :   0.9210 B(  6-C ,  8-H ) :   0.9305 B(  6-C ,  9-C ) :   1.0575
B(  9-C , 10-H ) :   0.9623 B(  9-C , 11-H ) :   0.9573 B(  9-C , 12-C ) :   1.0834
B( 12-C , 13-H ) :   0.9706 B( 12-C , 14-H ) :   0.9755 B( 12-C , 15-H ) :   0.9705
B( 16-S , 17-C ) :   1.1317 B( 16-S , 20-C ) :   1.1635 B( 17-C , 18-C ) :   1.6362
B( 17-C , 33-H ) :   0.9564 B( 18-C , 19-C ) :   1.2510 B( 18-C , 21-H ) :   0.9796
B( 19-C , 20-C ) :   1.6101 B( 19-C , 22-C ) :   1.0321 B( 22-C , 23-H ) :   0.9279
B( 22-C , 24-H ) :   0.9445 B( 22-C , 25-C ) :   1.0376 B( 25-C , 26-H ) :   0.9673
B( 25-C , 27-H ) :   0.9627 B( 25-C , 28-C ) :   1.0649 B( 28-C , 29-H ) :   0.9763
B( 28-C , 30-H ) :   0.9770 B( 28-C , 31-H ) :   0.9784

Dispersion correction           -0.013404935
FINAL SINGLE POINT ENERGY     -1339.860788818391

DIPOLE MOMENT
-------------
                                X             Y             Z
Electronic contribution:     14.32210       2.01120      27.22814
Nuclear contribution   :    -14.61643      -1.92832     -27.87716
                        -----------------------------------------
Total Dipole Moment    :     -0.29433       0.08288      -0.64902
                        -----------------------------------------
Magnitude (a.u.)       :      0.71745
Magnitude (Debye)      :      1.82361

Rotational constants in cm-1:     0.017108     0.008099     0.005985
Rotational constants in MHz :   512.877738   242.813685   179.422779

                             ****ORCA TERMINATED NORMALLY****
TOTAL RUN TIME: 0 days 0 hours 0 minutes 20 seconds 786 msec
