                         Program Version 4.2.1 -  RELEASE  -
|  1> ! wB97X-D3 SP def2-SVP
|  2> %pal
|  3> nprocs 24
|  4> end
|  5>
|  6> * xyz 0 1
|  7> S 	 -112.128 	 17.2998 	 -114.264
|  8> C 	 -111.005 	 17.5708 	 -115.587
|  9> C 	 -111.451 	 16.8983 	 -116.719
| 10> C 	 -112.524 	 16.003 	 -116.374
| 11> C 	 -113.04 	 16.071 	 -115.085
| 12> H 	 -112.879 	 15.3017 	 -117.063
| 13> C 	 -110.784 	 16.9507 	 -118.106
| 14> H 	 -110.909 	 16.0447 	 -118.615
| 15> H 	 -109.683 	 16.9683 	 -117.921
| 16> C 	 -111.366 	 18.1376 	 -118.86
| 17> H 	 -112.234 	 18.624 	 -118.398
| 18> H 	 -110.503 	 18.8093 	 -119.031
| 19> C 	 -111.785 	 17.8233 	 -120.293
| 20> H 	 -112.629 	 17.1141 	 -120.559
| 21> H 	 -112.035 	 18.7737 	 -120.836
| 22> H 	 -110.929 	 17.4121 	 -120.891
| 23> S 	 -113.906 	 13.4922 	 -114.884
| 24> C 	 -115.321 	 13.1143 	 -113.896
| 25> C 	 -115.98 	 14.2489 	 -113.519
| 26> C 	 -115.232 	 15.4641 	 -113.82
| 27> C 	 -114.049 	 15.1814 	 -114.484
| 28> H 	 -116.911 	 14.0716 	 -112.997
| 29> C 	 -115.703 	 16.8094 	 -113.352
| 30> H 	 -115.171 	 17.5219 	 -113.927
| 31> H 	 -115.281 	 17.0882 	 -112.34
| 32> C 	 -117.237 	 17.0661 	 -113.327
| 33> H 	 -117.378 	 18.0175 	 -112.789
| 34> H 	 -117.608 	 16.2078 	 -112.856
| 35> C 	 -117.999 	 17.1107 	 -114.688
| 36> H 	 -117.579 	 17.9393 	 -115.295
| 37> H 	 -118.998 	 17.4204 	 -114.448
| 38> H 	 -118.127 	 16.1168 	 -115.202
| 39> H 	 -110.228 	 18.3148 	 -115.706
| 40> H 	 -115.794 	 12.1831 	 -113.794
| 41> *
| 42>
| 43>                          ****END OF INPUT****

CARTESIAN COORDINATES (ANGSTROEM)
---------------------------------
  S    -112.128000   17.299800  -114.264000
  C    -111.005000   17.570800  -115.587000
  C    -111.451000   16.898300  -116.719000
  C    -112.524000   16.003000  -116.374000
  C    -113.040000   16.071000  -115.085000
  H    -112.879000   15.301700  -117.063000
  C    -110.784000   16.950700  -118.106000
  H    -110.909000   16.044700  -118.615000
  H    -109.683000   16.968300  -117.921000
  C    -111.366000   18.137600  -118.860000
  H    -112.234000   18.624000  -118.398000
  H    -110.503000   18.809300  -119.031000
  C    -111.785000   17.823300  -120.293000
  H    -112.629000   17.114100  -120.559000
  H    -112.035000   18.773700  -120.836000
  H    -110.929000   17.412100  -120.891000
  S    -113.906000   13.492200  -114.884000
  C    -115.321000   13.114300  -113.896000
  C    -115.980000   14.248900  -113.519000
  C    -115.232000   15.464100  -113.820000
  C    -114.049000   15.181400  -114.484000
  H    -116.911000   14.071600  -112.997000
  C    -115.703000   16.809400  -113.352000
  H    -115.171000   17.521900  -113.927000
  H    -115.281000   17.088200  -112.340000
  C    -117.237000   17.066100  -113.327000
  H    -117.378000   18.017500  -112.789000
  H    -117.608000   16.207800  -112.856000
  C    -117.999000   17.110700  -114.688000
  H    -117.579000   17.939300  -115.295000
  H    -118.998000   17.420400  -114.448000
  H    -118.127000   16.116800  -115.202000
  H    -110.228000   18.314800  -115.706000
  H    -115.794000   12.183100  -113.794000

 Total Charge           Charge          ....    0
 Multiplicity           Mult            ....    1
 Number of Electrons    NEL             ....  134
 Basis Dimension        Dim             ....  322

ORBITAL ENERGIES
----------------

  NO   OCC          E(Eh)            E(eV)
   0   2.0000     -88.966285     -2420.8957
   1   2.0000     -88.965956     -2420.8867
   2   2.0000     -10.331316      -281.1294
   3   2.0000     -10.329680      -281.0849
   4   2.0000     -10.313538      -280.6456
   5   2.0000     -10.313296      -280.6391
   6   2.0000     -10.307211      -280.4735
   7   2.0000     -10.301628      -280.3215
   8   2.0000     -10.295144      -280.1451
   9   2.0000     -10.293146      -280.0907
  10   2.0000     -10.291090      -280.0348
  11   2.0000     -10.288453      -279.9630
  12   2.0000     -10.288303      -279.9590
  13   2.0000     -10.287139      -279.9273
  14   2.0000     -10.286292      -279.9042
  15   2.0000     -10.280635      -279.7503
  16   2.0000      -8.080537      -219.8826
  17   2.0000      -8.080511      -219.8819
  18   2.0000      -6.039189      -164.3347
  19   2.0000      -6.039157      -164.3338
  20   2.0000      -6.035142      -164.2246
  21   2.0000      -6.034909      -164.2182
  22   2.0000      -6.031358      -164.1216
  23   2.0000      -6.031036      -164.1128
  24   2.0000      -1.005702       -27.3665
  25   2.0000      -0.983750       -26.7692
  26   2.0000      -0.913821       -24.8663
  27   2.0000      -0.905053       -24.6277
  28   2.0000      -0.871272       -23.7085
  29   2.0000      -0.847289       -23.0559
  30   2.0000      -0.841276       -22.8923
  31   2.0000      -0.816496       -22.2180
  32   2.0000      -0.783193       -21.3118
  33   2.0000      -0.773137       -21.0381
  34   2.0000      -0.706580       -19.2270
  35   2.0000      -0.698261       -19.0006
  36   2.0000      -0.696713       -18.9585
  37   2.0000      -0.657762       -17.8986
  38   2.0000      -0.635162       -17.2836
  39   2.0000      -0.618884       -16.8407
  40   2.0000      -0.603139       -16.4122
  41   2.0000      -0.576869       -15.6974
  42   2.0000      -0.557124       -15.1601
  43   2.0000      -0.543167       -14.7803
  44   2.0000      -0.537457       -14.6250
  45   2.0000      -0.528815       -14.3898
  46   2.0000      -0.527592       -14.3565
  47   2.0000      -0.522433       -14.2161
  48   2.0000      -0.501652       -13.6506
  49   2.0000      -0.491606       -13.3773
  50   2.0000      -0.485011       -13.1978
  51   2.0000      -0.482513       -13.1298
  52   2.0000      -0.467156       -12.7120
  53   2.0000      -0.461519       -12.5586
  54   2.0000      -0.459269       -12.4973
  55   2.0000      -0.448427       -12.2023
  56   2.0000      -0.441488       -12.0135
  57   2.0000      -0.435765       -11.8578
  58   2.0000      -0.434593       -11.8259
  59   2.0000      -0.422185       -11.4882
  60   2.0000      -0.417201       -11.3526
  61   2.0000      -0.411123       -11.1872
  62   2.0000      -0.408686       -11.1209
  63   2.0000      -0.349872        -9.5205
  64   2.0000      -0.328967        -8.9516
  65   2.0000      -0.326195        -8.8762
  66   2.0000      -0.293951        -7.9988
  67   0.0000       0.031021         0.8441
  68   0.0000       0.069726         1.8973
  69   0.0000       0.103793         2.8244
  70   0.0000       0.127845         3.4788
  71   0.0000       0.129444         3.5224

MULLIKEN ATOMIC CHARGES
-----------------------
   0 S :    0.109902
   1 C :   -0.102541
   2 C :   -0.140614
   3 C :    0.018566
   4 C :   -0.134716
   5 H :   -0.014940
   6 C :    0.088686
   7 H :    0.011179
   8 H :    0.039829
   9 C :   -0.043332
  10 H :    0.061644
  11 H :    0.038318
  12 C :   -0.128325
  13 H :    0.045202
  14 H :    0.036586
  15 H :    0.028229
  16 S :    0.103975
  17 C :   -0.066578
  18 C :   -0.061663
  19 C :   -0.027940
  20 C :   -0.130830
  21 H :    0.027656
  22 C :    0.081384
  23 H :   -0.005450
  24 H :    0.045583
  25 C :   -0.071888
  26 H :    0.040281
  27 H :    0.017743
  28 C :   -0.061860
  29 H :    0.039787
  30 H :    0.024084
  31 H :    0.051743
  32 H :    0.044500
  33 H :    0.035800
Sum of atomic charges:   -0.0000000

LOEWDIN ATOMIC CHARGES
----------------------
   0 S :    0.413309
   1 C :   -0.203116
   2 C :   -0.056339
   3 C :   -0.069270
   4 C :   -0.200449
   5 H :    0.014698
   6 C :   -0.027376
   7 H :    0.021491
   8 H :    0.039305
   9 C :   -0.044233
  10 H :    0.034163
  11 H :    0.036496
  12 C :   -0.085644
  13 H :    0.027172
  14 H :    0.029086
  15 H :    0.024055
  16 S :    0.405666
  17 C :   -0.171032
  18 C :   -0.071646
  19 C :   -0.051999
  20 C :   -0.194892
  21 H :    0.033568
  22 C :   -0.041197
  23 H :    0.016029
  24 H :    0.043325
  25 C :   -0.033634
  26 H :    0.032154
  27 H :    0.013918
  28 C :   -0.069980
  29 H :    0.028771
  30 H :    0.022451
  31 H :    0.033963
  32 H :    0.030345
  33 H :    0.020845

  Mayer bond orders larger than 0.100000
B(  0-S ,  1-C ) :   1.1433 B(  0-S ,  4-C ) :   1.1489 B(  1-C ,  2-C ) :   1.6018
B(  1-C , 32-H ) :   0.9634 B(  2-C ,  3-C ) :   1.2667 B(  2-C ,  6-C ) :   1.0224
B(  3-C ,  4-C ) :   1.5510 B(  3-C ,  5-H ) :   1.0016 B(  4-C , 20-C ) :   1.0278
B(  6-C ,  7-H ) :   0.9508 B(  6-C ,  8-H ) :   0.9470 B(  6-C ,  9-C ) :   1.0211
B(  9-C , 10-H ) :   0.9677 B(  9-C , 11-H ) :   0.9496 B(  9-C , 12-C ) :   1.0825
B( 12-C , 13-H ) :   0.9759 B( 12-C , 14-H ) :   0.9748 B( 12-C , 15-H ) :   0.9732
B( 16-S , 17-C ) :   1.1376 B( 16-S , 20-C ) :   1.1347 B( 17-C , 18-C ) :   1.6683
B( 17-C , 33-H ) :   0.9666 B( 18-C , 19-C ) :   1.1915 B( 18-C , 21-H ) :   0.9855
B( 19-C , 20-C ) :   1.6045 B( 19-C , 22-C ) :   1.0474 B( 22-C , 23-H ) :   0.9169
B( 22-C , 24-H ) :   0.9329 B( 22-C , 25-C ) :   1.0673 B( 25-C , 26-H ) :   0.9547
B( 25-C , 27-H ) :   0.9552 B( 25-C , 28-C ) :   1.0825 B( 28-C , 29-H ) :   0.9755
B( 28-C , 30-H ) :   0.9726 B( 28-C , 31-H ) :   0.9733

Dispersion correction           -0.013743684
FINAL SINGLE POINT ENERGY     -1339.861478716387

DIPOLE MOMENT
-------------
                                X             Y             Z
Electronic contribution:      8.56910     -12.73218      14.70291
Nuclear contribution   :     -8.83356      12.91141     -15.04501
                        -----------------------------------------
Total Dipole Moment    :     -0.26446       0.17923      -0.34210
                        -----------------------------------------
Magnitude (a.u.)       :      0.46807
Magnitude (Debye)      :      1.18975

Rotational constants in cm-1:     0.019655     0.007325     0.006857
Rotational constants in MHz :   589.256345   219.602043   205.577108

                             ****ORCA TERMINATED NORMALLY****
TOTAL RUN TIME: 0 days 0 hours 0 minutes 20 seconds 954 msec
