                         Program Version 4.2.1 -  RELEASE  -
|  1> ! wB97X-D3 SP def2-SVP
|  2> %pal
|  3> nprocs 24
|  4> end
|  5>
|  6> * xyz 0 1
|  7> S 	 -106.24 	 55.3434 	 -111.386
|  8> C 	 -106.008 	 57.0573 	 -111.027
|  9> C 	 -107.125 	 57.6243 	 -110.478
| 10> C 	 -108.093 	 56.6402 	 -110.288
| 11> C 	 -107.814 	 55.354 	 -110.641
| 12> H 	 -109.179 	 56.8235 	 -109.938
| 13> C 	 -107.376 	 59.0214 	 -109.908
| 14> H 	 -108.249 	 59.0338 	 -109.242
| 15> H 	 -107.59 	 59.6606 	 -110.78
| 16> C 	 -106.177 	 59.6606 	 -109.173
| 17> H 	 -105.363 	 59.6062 	 -109.862
| 18> H 	 -106.409 	 60.7373 	 -109.048
| 19> C 	 -105.864 	 59.2184 	 -107.757
| 20> H 	 -104.961 	 59.6972 	 -107.528
| 21> H 	 -106.555 	 59.4056 	 -106.925
| 22> H 	 -105.672 	 58.1143 	 -107.773
| 23> S 	 -107.691 	 52.7538 	 -109.958
| 24> C 	 -109.165 	 51.7929 	 -109.789
| 25> C 	 -110.337 	 52.5498 	 -109.997
| 26> C 	 -110.002 	 53.936 	 -110.167
| 27> C 	 -108.63 	 54.1641 	 -110.368
| 28> H 	 -111.264 	 51.9859 	 -109.98
| 29> C 	 -111.161 	 54.8353 	 -110.42
| 30> H 	 -111.233 	 55.7514 	 -109.715
| 31> H 	 -112.1 	 54.3034 	 -110.255
| 32> C 	 -111.191 	 55.2945 	 -111.879
| 33> H 	 -111.245 	 54.3962 	 -112.494
| 34> H 	 -110.282 	 55.8819 	 -112.263
| 35> C 	 -112.504 	 55.994 	 -112.155
| 36> H 	 -113.297 	 55.2365 	 -112.277
| 37> H 	 -112.482 	 56.5165 	 -113.086
| 38> H 	 -112.66 	 56.7318 	 -111.399
| 39> H 	 -105.162 	 57.6778 	 -111.148
| 40> H 	 -109.142 	 50.6998 	 -109.675
| 41> *
| 42>
| 43>                          ****END OF INPUT****

CARTESIAN COORDINATES (ANGSTROEM)
---------------------------------
  S    -106.240000   55.343400  -111.386000
  C    -106.008000   57.057300  -111.027000
  C    -107.125000   57.624300  -110.478000
  C    -108.093000   56.640200  -110.288000
  C    -107.814000   55.354000  -110.641000
  H    -109.179000   56.823500  -109.938000
  C    -107.376000   59.021400  -109.908000
  H    -108.249000   59.033800  -109.242000
  H    -107.590000   59.660600  -110.780000
  C    -106.177000   59.660600  -109.173000
  H    -105.363000   59.606200  -109.862000
  H    -106.409000   60.737300  -109.048000
  C    -105.864000   59.218400  -107.757000
  H    -104.961000   59.697200  -107.528000
  H    -106.555000   59.405600  -106.925000
  H    -105.672000   58.114300  -107.773000
  S    -107.691000   52.753800  -109.958000
  C    -109.165000   51.792900  -109.789000
  C    -110.337000   52.549800  -109.997000
  C    -110.002000   53.936000  -110.167000
  C    -108.630000   54.164100  -110.368000
  H    -111.264000   51.985900  -109.980000
  C    -111.161000   54.835300  -110.420000
  H    -111.233000   55.751400  -109.715000
  H    -112.100000   54.303400  -110.255000
  C    -111.191000   55.294500  -111.879000
  H    -111.245000   54.396200  -112.494000
  H    -110.282000   55.881900  -112.263000
  C    -112.504000   55.994000  -112.155000
  H    -113.297000   55.236500  -112.277000
  H    -112.482000   56.516500  -113.086000
  H    -112.660000   56.731800  -111.399000
  H    -105.162000   57.677800  -111.148000
  H    -109.142000   50.699800  -109.675000

 Total Charge           Charge          ....    0
 Multiplicity           Mult            ....    1
 Number of Electrons    NEL             ....  134
 Basis Dimension        Dim             ....  322

ORBITAL ENERGIES
----------------

  NO   OCC          E(Eh)            E(eV)
   0   2.0000     -88.969439     -2420.9815
   1   2.0000     -88.967156     -2420.9194
   2   2.0000     -10.332004      -281.1481
   3   2.0000     -10.327226      -281.0181
   4   2.0000     -10.320553      -280.8365
   5   2.0000     -10.311351      -280.5861
   6   2.0000     -10.307536      -280.4823
   7   2.0000     -10.299967      -280.2763
   8   2.0000     -10.296757      -280.1890
   9   2.0000     -10.296713      -280.1878
  10   2.0000     -10.296303      -280.1767
  11   2.0000     -10.288994      -279.9778
  12   2.0000     -10.288139      -279.9545
  13   2.0000     -10.283999      -279.8418
  14   2.0000     -10.275281      -279.6046
  15   2.0000     -10.270545      -279.4757
  16   2.0000      -8.083673      -219.9679
  17   2.0000      -8.081720      -219.9148
  18   2.0000      -6.042328      -164.4201
  19   2.0000      -6.040214      -164.3626
  20   2.0000      -6.038303      -164.3106
  21   2.0000      -6.036229      -164.2541
  22   2.0000      -6.034231      -164.1998
  23   2.0000      -6.032529      -164.1534
  24   2.0000      -1.009601       -27.4726
  25   2.0000      -0.985113       -26.8063
  26   2.0000      -0.915250       -24.9052
  27   2.0000      -0.911195       -24.7949
  28   2.0000      -0.870053       -23.6754
  29   2.0000      -0.852707       -23.2033
  30   2.0000      -0.847833       -23.0707
  31   2.0000      -0.811974       -22.0949
  32   2.0000      -0.786427       -21.3998
  33   2.0000      -0.770680       -20.9713
  34   2.0000      -0.710252       -19.3270
  35   2.0000      -0.698136       -18.9972
  36   2.0000      -0.685900       -18.6643
  37   2.0000      -0.665514       -18.1095
  38   2.0000      -0.631939       -17.1959
  39   2.0000      -0.612381       -16.6637
  40   2.0000      -0.595138       -16.1945
  41   2.0000      -0.578433       -15.7400
  42   2.0000      -0.567385       -15.4393
  43   2.0000      -0.553823       -15.0703
  44   2.0000      -0.543453       -14.7881
  45   2.0000      -0.522713       -14.2237
  46   2.0000      -0.514794       -14.0083
  47   2.0000      -0.509327       -13.8595
  48   2.0000      -0.504103       -13.7173
  49   2.0000      -0.500931       -13.6310
  50   2.0000      -0.495299       -13.4778
  51   2.0000      -0.479080       -13.0364
  52   2.0000      -0.473774       -12.8921
  53   2.0000      -0.465465       -12.6660
  54   2.0000      -0.455561       -12.3965
  55   2.0000      -0.449379       -12.2282
  56   2.0000      -0.443019       -12.0552
  57   2.0000      -0.432563       -11.7706
  58   2.0000      -0.430368       -11.7109
  59   2.0000      -0.426950       -11.6179
  60   2.0000      -0.419940       -11.4271
  61   2.0000      -0.411195       -11.1892
  62   2.0000      -0.407605       -11.0915
  63   2.0000      -0.353543        -9.6204
  64   2.0000      -0.333060        -9.0630
  65   2.0000      -0.330621        -8.9967
  66   2.0000      -0.283508        -7.7146
  67   0.0000       0.021406         0.5825
  68   0.0000       0.076312         2.0765
  69   0.0000       0.106067         2.8862
  70   0.0000       0.117998         3.2109
  71   0.0000       0.135588         3.6895

MULLIKEN ATOMIC CHARGES
-----------------------
   0 S :    0.115842
   1 C :   -0.111296
   2 C :   -0.064364
   3 C :   -0.041343
   4 C :   -0.124847
   5 H :    0.022408
   6 C :    0.079498
   7 H :    0.028069
   8 H :    0.041163
   9 C :   -0.097313
  10 H :    0.020181
  11 H :    0.026942
  12 C :   -0.030498
  13 H :    0.022328
  14 H :    0.040282
  15 H :    0.038035
  16 S :    0.100357
  17 C :   -0.110811
  18 C :   -0.043456
  19 C :   -0.003782
  20 C :   -0.124600
  21 H :    0.031834
  22 C :    0.003341
  23 H :    0.047127
  24 H :    0.015865
  25 C :   -0.108815
  26 H :    0.023617
  27 H :    0.059662
  28 C :   -0.015459
  29 H :    0.034436
  30 H :    0.021185
  31 H :    0.020600
  32 H :    0.019416
  33 H :    0.064395
Sum of atomic charges:    0.0000000

LOEWDIN ATOMIC CHARGES
----------------------
   0 S :    0.402842
   1 C :   -0.190870
   2 C :   -0.068269
   3 C :   -0.078276
   4 C :   -0.202925
   5 H :    0.039265
   6 C :   -0.026812
   7 H :    0.030265
   8 H :    0.039183
   9 C :   -0.042274
  10 H :    0.018402
  11 H :    0.028816
  12 C :   -0.066272
  13 H :    0.021814
  14 H :    0.029035
  15 H :    0.031125
  16 S :    0.407417
  17 C :   -0.185406
  18 C :   -0.067106
  19 C :   -0.056910
  20 C :   -0.191496
  21 H :    0.038002
  22 C :   -0.040826
  23 H :    0.033043
  24 H :    0.030742
  25 C :   -0.048029
  26 H :    0.024452
  27 H :    0.034056
  28 C :   -0.062766
  29 H :    0.028417
  30 H :    0.023008
  31 H :    0.018362
  32 H :    0.020284
  33 H :    0.029704

  Mayer bond orders larger than 0.100000
B(  0-S ,  1-C ) :   1.1286 B(  0-S ,  4-C ) :   1.1354 B(  1-C ,  2-C ) :   1.6129
B(  1-C , 32-H ) :   0.9658 B(  2-C ,  3-C ) :   1.2703 B(  2-C ,  6-C ) :   0.9975
B(  3-C ,  4-C ) :   1.5904 B(  3-C ,  5-H ) :   0.9730 B(  4-C , 20-C ) :   1.0557
B(  6-C ,  7-H ) :   0.9529 B(  6-C ,  8-H ) :   0.9258 B(  6-C ,  9-C ) :   1.0845
B(  9-C , 10-H ) :   0.9559 B(  9-C , 11-H ) :   0.9513 B(  9-C , 12-C ) :   1.0781
B( 12-C , 13-H ) :   0.9703 B( 12-C , 14-H ) :   0.9746 B( 12-C , 15-H ) :   0.9747
B( 16-S , 17-C ) :   1.1591 B( 16-S , 20-C ) :   1.1476 B( 17-C , 18-C ) :   1.6093
B( 17-C , 20-C ) :   0.1075 B( 17-C , 33-H ) :   0.9633 B( 18-C , 19-C ) :   1.2324
B( 18-C , 21-H ) :   0.9901 B( 19-C , 20-C ) :   1.5607 B( 19-C , 22-C ) :   1.0618
B( 22-C , 23-H ) :   0.9227 B( 22-C , 24-H ) :   0.9366 B( 22-C , 25-C ) :   1.0624
B( 25-C , 26-H ) :   0.9531 B( 25-C , 27-H ) :   0.9536 B( 25-C , 28-C ) :   1.0849
B( 28-C , 29-H ) :   0.9763 B( 28-C , 30-H ) :   0.9697 B( 28-C , 31-H ) :   0.9726

Dispersion correction           -0.014159297
FINAL SINGLE POINT ENERGY     -1339.863889584458

DIPOLE MOMENT
-------------
                                X             Y             Z
Electronic contribution:     12.83839     -21.22954      -3.17271
Nuclear contribution   :    -13.29548      21.62595       3.25236
                        -----------------------------------------
Total Dipole Moment    :     -0.45709       0.39641       0.07965
                        -----------------------------------------
Magnitude (a.u.)       :      0.61026
Magnitude (Debye)      :      1.55116

Rotational constants in cm-1:     0.018588     0.008600     0.006919
Rotational constants in MHz :   557.251130   257.823876   207.429336

                             ****ORCA TERMINATED NORMALLY****
TOTAL RUN TIME: 0 days 0 hours 0 minutes 21 seconds 754 msec
