                         Program Version 4.2.1 -  RELEASE  -
|  1> ! wB97X-D3 SP def2-SVP
|  2> %pal
|  3> nprocs 24
|  4> end
|  5>
|  6> * xyz 0 1
|  7> S 	 -34.177 	 -27.9732 	 -97.2768
|  8> C 	 -35.6605 	 -27.0883 	 -97.4519
|  9> C 	 -36.4559 	 -27.2108 	 -96.334
| 10> C 	 -35.9163 	 -28.1924 	 -95.4185
| 11> C 	 -34.678 	 -28.7106 	 -95.7716
| 12> H 	 -36.2293 	 -28.5494 	 -94.4326
| 13> C 	 -37.9043 	 -26.731 	 -96.205
| 14> H 	 -38.1937 	 -26.1909 	 -97.1104
| 15> H 	 -38.0144 	 -25.9787 	 -95.4095
| 16> C 	 -38.8321 	 -27.8762 	 -96.0641
| 17> H 	 -38.67 	 -28.5519 	 -96.8173
| 18> H 	 -38.6258 	 -28.6254 	 -95.2871
| 19> C 	 -40.2872 	 -27.4601 	 -96.0265
| 20> H 	 -40.9077 	 -28.3343 	 -96.2132
| 21> H 	 -40.5915 	 -27.0158 	 -95.1193
| 22> H 	 -40.4792 	 -26.6223 	 -96.7608
| 23> S 	 -32.916 	 -30.8126 	 -96.1313
| 24> C 	 -31.9429 	 -31.4118 	 -94.8187
| 25> C 	 -32.468 	 -30.8225 	 -93.6841
| 26> C 	 -33.58 	 -29.9502 	 -93.7968
| 27> C 	 -33.8836 	 -29.7438 	 -95.1188
| 28> H 	 -32.0972 	 -31.2121 	 -92.7087
| 29> C 	 -34.2248 	 -29.3464 	 -92.607
| 30> H 	 -34.6151 	 -28.3347 	 -92.8486
| 31> H 	 -33.4529 	 -29.0952 	 -91.8724
| 32> C 	 -35.2402 	 -30.2021 	 -92.0077
| 33> H 	 -34.809 	 -31.0725 	 -91.5264
| 34> H 	 -35.9413 	 -30.6946 	 -92.7714
| 35> C 	 -36.2026 	 -29.5122 	 -91.0672
| 36> H 	 -35.6706 	 -28.7242 	 -90.5765
| 37> H 	 -36.5024 	 -30.195 	 -90.3419
| 38> H 	 -37.0923 	 -29.1247 	 -91.4688
| 39> H 	 -35.9565 	 -26.2764 	 -98.1635
| 40> H 	 -31.2186 	 -32.2361 	 -94.823
| 41> *
| 42>
| 43>                          ****END OF INPUT****

CARTESIAN COORDINATES (ANGSTROEM)
---------------------------------
  S    -34.177000  -27.973200  -97.276800
  C    -35.660500  -27.088300  -97.451900
  C    -36.455900  -27.210800  -96.334000
  C    -35.916300  -28.192400  -95.418500
  C    -34.678000  -28.710600  -95.771600
  H    -36.229300  -28.549400  -94.432600
  C    -37.904300  -26.731000  -96.205000
  H    -38.193700  -26.190900  -97.110400
  H    -38.014400  -25.978700  -95.409500
  C    -38.832100  -27.876200  -96.064100
  H    -38.670000  -28.551900  -96.817300
  H    -38.625800  -28.625400  -95.287100
  C    -40.287200  -27.460100  -96.026500
  H    -40.907700  -28.334300  -96.213200
  H    -40.591500  -27.015800  -95.119300
  H    -40.479200  -26.622300  -96.760800
  S    -32.916000  -30.812600  -96.131300
  C    -31.942900  -31.411800  -94.818700
  C    -32.468000  -30.822500  -93.684100
  C    -33.580000  -29.950200  -93.796800
  C    -33.883600  -29.743800  -95.118800
  H    -32.097200  -31.212100  -92.708700
  C    -34.224800  -29.346400  -92.607000
  H    -34.615100  -28.334700  -92.848600
  H    -33.452900  -29.095200  -91.872400
  C    -35.240200  -30.202100  -92.007700
  H    -34.809000  -31.072500  -91.526400
  H    -35.941300  -30.694600  -92.771400
  C    -36.202600  -29.512200  -91.067200
  H    -35.670600  -28.724200  -90.576500
  H    -36.502400  -30.195000  -90.341900
  H    -37.092300  -29.124700  -91.468800
  H    -35.956500  -26.276400  -98.163500
  H    -31.218600  -32.236100  -94.823000

 Total Charge           Charge          ....    0
 Multiplicity           Mult            ....    1
 Number of Electrons    NEL             ....  134
 Basis Dimension        Dim             ....  322

ORBITAL ENERGIES
----------------

  NO   OCC          E(Eh)            E(eV)
   0   2.0000     -88.966349     -2420.8974
   1   2.0000     -88.964836     -2420.8563
   2   2.0000     -10.330972      -281.1200
   3   2.0000     -10.330300      -281.1018
   4   2.0000     -10.320788      -280.8429
   5   2.0000     -10.315267      -280.6927
   6   2.0000     -10.303213      -280.3647
   7   2.0000     -10.301065      -280.3062
   8   2.0000     -10.295471      -280.1540
   9   2.0000     -10.294917      -280.1389
  10   2.0000     -10.293024      -280.0874
  11   2.0000     -10.290459      -280.0176
  12   2.0000     -10.285620      -279.8860
  13   2.0000     -10.276186      -279.6292
  14   2.0000     -10.273330      -279.5515
  15   2.0000     -10.265892      -279.3491
  16   2.0000      -8.081018      -219.8957
  17   2.0000      -8.079533      -219.8553
  18   2.0000      -6.039668      -164.3477
  19   2.0000      -6.038102      -164.3051
  20   2.0000      -6.035409      -164.2318
  21   2.0000      -6.033880      -164.1902
  22   2.0000      -6.031717      -164.1314
  23   2.0000      -6.030356      -164.0943
  24   2.0000      -1.011334       -27.5198
  25   2.0000      -0.988140       -26.8886
  26   2.0000      -0.926112       -25.2008
  27   2.0000      -0.920678       -25.0529
  28   2.0000      -0.873816       -23.7777
  29   2.0000      -0.858539       -23.3620
  30   2.0000      -0.843298       -22.9473
  31   2.0000      -0.815785       -22.1986
  32   2.0000      -0.789005       -21.4699
  33   2.0000      -0.776535       -21.1306
  34   2.0000      -0.714541       -19.4436
  35   2.0000      -0.702998       -19.1296
  36   2.0000      -0.696993       -18.9661
  37   2.0000      -0.664108       -18.0713
  38   2.0000      -0.641510       -17.4564
  39   2.0000      -0.617587       -16.8054
  40   2.0000      -0.604105       -16.4385
  41   2.0000      -0.570832       -15.5331
  42   2.0000      -0.568715       -15.4755
  43   2.0000      -0.556531       -15.1440
  44   2.0000      -0.539758       -14.6876
  45   2.0000      -0.531884       -14.4733
  46   2.0000      -0.522941       -14.2299
  47   2.0000      -0.514638       -14.0040
  48   2.0000      -0.511564       -13.9204
  49   2.0000      -0.504368       -13.7246
  50   2.0000      -0.494970       -13.4688
  51   2.0000      -0.482879       -13.1398
  52   2.0000      -0.474489       -12.9115
  53   2.0000      -0.466147       -12.6845
  54   2.0000      -0.457334       -12.4447
  55   2.0000      -0.454315       -12.3625
  56   2.0000      -0.449085       -12.2202
  57   2.0000      -0.443333       -12.0637
  58   2.0000      -0.433111       -11.7856
  59   2.0000      -0.422989       -11.5101
  60   2.0000      -0.416347       -11.3294
  61   2.0000      -0.405672       -11.0389
  62   2.0000      -0.402902       -10.9635
  63   2.0000      -0.358736        -9.7617
  64   2.0000      -0.332131        -9.0377
  65   2.0000      -0.327998        -8.9253
  66   2.0000      -0.290448        -7.9035
  67   0.0000       0.024468         0.6658
  68   0.0000       0.079136         2.1534
  69   0.0000       0.117468         3.1965
  70   0.0000       0.121296         3.3006
  71   0.0000       0.128395         3.4938

MULLIKEN ATOMIC CHARGES
-----------------------
   0 S :    0.119361
   1 C :   -0.119796
   2 C :   -0.086661
   3 C :    0.006436
   4 C :   -0.150058
   5 H :    0.005638
   6 C :    0.080361
   7 H :    0.010245
   8 H :    0.033207
   9 C :   -0.059505
  10 H :    0.001970
  11 H :    0.020411
  12 C :   -0.025994
  13 H :    0.036800
  14 H :    0.018399
  15 H :    0.025599
  16 S :    0.095970
  17 C :   -0.094400
  18 C :   -0.056616
  19 C :   -0.030063
  20 C :   -0.145234
  21 H :    0.023380
  22 C :    0.070795
  23 H :    0.027419
  24 H :    0.024583
  25 C :   -0.103753
  26 H :    0.022587
  27 H :    0.035076
  28 C :    0.023178
  29 H :    0.014455
  30 H :    0.012545
  31 H :    0.025257
  32 H :    0.066885
  33 H :    0.071527
Sum of atomic charges:    0.0000000

LOEWDIN ATOMIC CHARGES
----------------------
   0 S :    0.412492
   1 C :   -0.214928
   2 C :   -0.063111
   3 C :   -0.070811
   4 C :   -0.189381
   5 H :    0.030022
   6 C :   -0.027850
   7 H :    0.028912
   8 H :    0.030623
   9 C :   -0.049299
  10 H :    0.018128
  11 H :    0.028497
  12 C :   -0.059330
  13 H :    0.029486
  14 H :    0.016563
  15 H :    0.029236
  16 S :    0.404846
  17 C :   -0.195345
  18 C :   -0.076681
  19 C :   -0.057005
  20 C :   -0.188742
  21 H :    0.030868
  22 C :   -0.040691
  23 H :    0.033509
  24 H :    0.035835
  25 C :   -0.048267
  26 H :    0.023854
  27 H :    0.032134
  28 C :   -0.053559
  29 H :    0.021750
  30 H :    0.022422
  31 H :    0.019652
  32 H :    0.044848
  33 H :    0.041323

  Mayer bond orders larger than 0.100000
B(  0-S ,  1-C ) :   1.1347 B(  0-S ,  4-C ) :   1.1420 B(  1-C ,  2-C ) :   1.6344
B(  1-C , 32-H ) :   0.9516 B(  2-C ,  3-C ) :   1.2093 B(  2-C ,  6-C ) :   1.0295
B(  3-C ,  4-C ) :   1.5886 B(  3-C ,  5-H ) :   0.9882 B(  4-C , 20-C ) :   1.0591
B(  6-C ,  7-H ) :   0.9409 B(  6-C ,  8-H ) :   0.9360 B(  6-C ,  9-C ) :   1.0679
B(  9-C , 10-H ) :   0.9456 B(  9-C , 11-H ) :   0.9408 B(  9-C , 12-C ) :   1.0872
B( 12-C , 13-H ) :   0.9721 B( 12-C , 14-H ) :   0.9747 B( 12-C , 15-H ) :   0.9721
B( 16-S , 17-C ) :   1.1468 B( 16-S , 20-C ) :   1.1446 B( 17-C , 18-C ) :   1.5900
B( 17-C , 20-C ) :   0.1001 B( 17-C , 33-H ) :   0.9685 B( 18-C , 19-C ) :   1.2775
B( 18-C , 21-H ) :   0.9765 B( 19-C , 20-C ) :   1.5567 B( 19-C , 22-C ) :   1.0560
B( 22-C , 23-H ) :   0.9308 B( 22-C , 24-H ) :   0.9118 B( 22-C , 25-C ) :   1.0691
B( 25-C , 26-H ) :   0.9511 B( 25-C , 27-H ) :   0.9553 B( 25-C , 28-C ) :   1.0810
B( 28-C , 29-H ) :   0.9698 B( 28-C , 30-H ) :   0.9678 B( 28-C , 31-H ) :   0.9764

Dispersion correction           -0.014029300
FINAL SINGLE POINT ENERGY     -1339.864535972127

DIPOLE MOMENT
-------------
                                X             Y             Z
Electronic contribution:     25.35949      -4.83739     -17.57978
Nuclear contribution   :    -25.77539       4.80650      18.22123
                        -----------------------------------------
Total Dipole Moment    :     -0.41590      -0.03089       0.64145
                        -----------------------------------------
Magnitude (a.u.)       :      0.76511
Magnitude (Debye)      :      1.94475

Rotational constants in cm-1:     0.017468     0.009351     0.006651
Rotational constants in MHz :   523.678320   280.339679   199.398954

                             ****ORCA TERMINATED NORMALLY****
TOTAL RUN TIME: 0 days 0 hours 0 minutes 20 seconds 775 msec
