                         Program Version 4.2.1 -  RELEASE  -
|  1> ! wB97X-D3 SP def2-SVP
|  2> %pal
|  3> nprocs 24
|  4> end
|  5>
|  6> * xyz 0 1
|  7> S 	 -41.6845 	 7.71984 	 30.6374
|  8> C 	 -42.117 	 8.34047 	 32.1583
|  9> C 	 -41.1099 	 8.11747 	 33.0883
| 10> C 	 -39.916 	 7.43019 	 32.5753
| 11> C 	 -40.0676 	 7.11463 	 31.2243
| 12> H 	 -39.0869 	 7.21813 	 33.1699
| 13> C 	 -41.1789 	 8.66493 	 34.5198
| 14> H 	 -41.9797 	 9.47439 	 34.6385
| 15> H 	 -40.3176 	 9.29091 	 34.6939
| 16> C 	 -41.2499 	 7.62021 	 35.5921
| 17> H 	 -42.2582 	 7.07635 	 35.6313
| 18> H 	 -40.3845 	 6.95371 	 35.4648
| 19> C 	 -41.3009 	 8.18165 	 37.0192
| 20> H 	 -41.307 	 7.4802 	 37.8362
| 21> H 	 -40.3545 	 8.73813 	 37.0599
| 22> H 	 -42.1993 	 8.83063 	 37.1751
| 23> S 	 -38.8242 	 6.968 	 28.7265
| 24> C 	 -37.676 	 5.69519 	 28.4924
| 25> C 	 -37.5605 	 4.86775 	 29.5841
| 26> C 	 -38.296 	 5.32265 	 30.7377
| 27> C 	 -39.1031 	 6.41372 	 30.4152
| 28> H 	 -36.918 	 4.00566 	 29.5445
| 29> C 	 -38.4017 	 4.50906 	 32.0338
| 30> H 	 -39.0027 	 3.6582 	 31.763
| 31> H 	 -39.0976 	 4.95573 	 32.7547
| 32> C 	 -37.0958 	 4.07166 	 32.743
| 33> H 	 -36.4953 	 3.4732 	 32.1017
| 34> H 	 -37.32 	 3.58396 	 33.727
| 35> C 	 -36.2763 	 5.32695 	 33.1572
| 36> H 	 -36.758 	 5.92285 	 33.9254
| 37> H 	 -36.0424 	 6.03118 	 32.285
| 38> H 	 -35.2749 	 5.04119 	 33.5299
| 39> H 	 -43.0479 	 8.88896 	 32.4005
| 40> H 	 -37.1578 	 5.52383 	 27.5104
| 41> *
| 42>
| 43>                          ****END OF INPUT****

CARTESIAN COORDINATES (ANGSTROEM)
---------------------------------
  S    -41.684500    7.719840   30.637400
  C    -42.117000    8.340470   32.158300
  C    -41.109900    8.117470   33.088300
  C    -39.916000    7.430190   32.575300
  C    -40.067600    7.114630   31.224300
  H    -39.086900    7.218130   33.169900
  C    -41.178900    8.664930   34.519800
  H    -41.979700    9.474390   34.638500
  H    -40.317600    9.290910   34.693900
  C    -41.249900    7.620210   35.592100
  H    -42.258200    7.076350   35.631300
  H    -40.384500    6.953710   35.464800
  C    -41.300900    8.181650   37.019200
  H    -41.307000    7.480200   37.836200
  H    -40.354500    8.738130   37.059900
  H    -42.199300    8.830630   37.175100
  S    -38.824200    6.968000   28.726500
  C    -37.676000    5.695190   28.492400
  C    -37.560500    4.867750   29.584100
  C    -38.296000    5.322650   30.737700
  C    -39.103100    6.413720   30.415200
  H    -36.918000    4.005660   29.544500
  C    -38.401700    4.509060   32.033800
  H    -39.002700    3.658200   31.763000
  H    -39.097600    4.955730   32.754700
  C    -37.095800    4.071660   32.743000
  H    -36.495300    3.473200   32.101700
  H    -37.320000    3.583960   33.727000
  C    -36.276300    5.326950   33.157200
  H    -36.758000    5.922850   33.925400
  H    -36.042400    6.031180   32.285000
  H    -35.274900    5.041190   33.529900
  H    -43.047900    8.888960   32.400500
  H    -37.157800    5.523830   27.510400

 Total Charge           Charge          ....    0
 Multiplicity           Mult            ....    1
 Number of Electrons    NEL             ....  134
 Basis Dimension        Dim             ....  322

ORBITAL ENERGIES
----------------

  NO   OCC          E(Eh)            E(eV)
   0   2.0000     -88.966864     -2420.9115
   1   2.0000     -88.966737     -2420.9080
   2   2.0000     -10.336711      -281.2762
   3   2.0000     -10.330654      -281.1114
   4   2.0000     -10.322054      -280.8774
   5   2.0000     -10.314548      -280.6731
   6   2.0000     -10.311260      -280.5836
   7   2.0000     -10.303757      -280.3795
   8   2.0000     -10.297514      -280.2096
   9   2.0000     -10.296101      -280.1712
  10   2.0000     -10.295050      -280.1425
  11   2.0000     -10.294430      -280.1257
  12   2.0000     -10.293672      -280.1051
  13   2.0000     -10.290397      -280.0159
  14   2.0000     -10.283379      -279.8250
  15   2.0000     -10.280080      -279.7352
  16   2.0000      -8.081279      -219.9028
  17   2.0000      -8.081232      -219.9015
  18   2.0000      -6.039891      -164.3538
  19   2.0000      -6.039754      -164.3501
  20   2.0000      -6.035904      -164.2453
  21   2.0000      -6.035725      -164.2404
  22   2.0000      -6.031978      -164.1385
  23   2.0000      -6.031927      -164.1371
  24   2.0000      -1.001520       -27.2528
  25   2.0000      -0.980290       -26.6750
  26   2.0000      -0.911590       -24.8056
  27   2.0000      -0.906887       -24.6776
  28   2.0000      -0.873770       -23.7765
  29   2.0000      -0.849565       -23.1179
  30   2.0000      -0.844121       -22.9697
  31   2.0000      -0.812899       -22.1201
  32   2.0000      -0.782595       -21.2955
  33   2.0000      -0.766926       -20.8691
  34   2.0000      -0.709133       -19.2965
  35   2.0000      -0.695042       -18.9131
  36   2.0000      -0.686993       -18.6940
  37   2.0000      -0.658414       -17.9163
  38   2.0000      -0.639933       -17.4135
  39   2.0000      -0.623197       -16.9580
  40   2.0000      -0.599390       -16.3102
  41   2.0000      -0.572264       -15.5721
  42   2.0000      -0.560331       -15.2474
  43   2.0000      -0.550923       -14.9914
  44   2.0000      -0.544829       -14.8256
  45   2.0000      -0.522164       -14.2088
  46   2.0000      -0.518060       -14.0971
  47   2.0000      -0.512230       -13.9385
  48   2.0000      -0.503482       -13.7004
  49   2.0000      -0.496276       -13.5044
  50   2.0000      -0.490720       -13.3532
  51   2.0000      -0.479379       -13.0446
  52   2.0000      -0.473443       -12.8830
  53   2.0000      -0.467289       -12.7156
  54   2.0000      -0.460545       -12.5321
  55   2.0000      -0.447901       -12.1880
  56   2.0000      -0.440609       -11.9896
  57   2.0000      -0.434455       -11.8221
  58   2.0000      -0.430298       -11.7090
  59   2.0000      -0.425627       -11.5819
  60   2.0000      -0.423760       -11.5311
  61   2.0000      -0.417541       -11.3619
  62   2.0000      -0.397815       -10.8251
  63   2.0000      -0.358436        -9.7535
  64   2.0000      -0.332902        -9.0587
  65   2.0000      -0.326836        -8.8937
  66   2.0000      -0.285598        -7.7715
  67   0.0000       0.023765         0.6467
  68   0.0000       0.073871         2.0101
  69   0.0000       0.110551         3.0082
  70   0.0000       0.119816         3.2603
  71   0.0000       0.123597         3.3632

MULLIKEN ATOMIC CHARGES
-----------------------
   0 S :    0.108652
   1 C :   -0.121519
   2 C :   -0.081310
   3 C :    0.056219
   4 C :   -0.130515
   5 H :   -0.011009
   6 C :    0.030713
   7 H :    0.020256
   8 H :    0.021046
   9 C :   -0.092398
  10 H :    0.040788
  11 H :    0.032746
  12 C :   -0.057002
  13 H :    0.035398
  14 H :    0.021215
  15 H :    0.039358
  16 S :    0.107031
  17 C :   -0.107166
  18 C :   -0.028318
  19 C :   -0.029501
  20 C :   -0.157942
  21 H :    0.016467
  22 C :    0.048036
  23 H :    0.037326
  24 H :    0.018871
  25 C :   -0.047696
  26 H :    0.029695
  27 H :    0.045996
  28 C :   -0.108651
  29 H :    0.032685
  30 H :    0.052598
  31 H :    0.034532
  32 H :    0.064941
  33 H :    0.078460
Sum of atomic charges:   -0.0000000

LOEWDIN ATOMIC CHARGES
----------------------
   0 S :    0.395625
   1 C :   -0.218918
   2 C :   -0.061760
   3 C :   -0.049388
   4 C :   -0.169499
   5 H :    0.019912
   6 C :   -0.043223
   7 H :    0.033530
   8 H :    0.027099
   9 C :   -0.050623
  10 H :    0.033545
  11 H :    0.023273
  12 C :   -0.069048
  13 H :    0.022512
  14 H :    0.021284
  15 H :    0.029271
  16 S :    0.391437
  17 C :   -0.192037
  18 C :   -0.073932
  19 C :   -0.046009
  20 C :   -0.186050
  21 H :    0.029542
  22 C :   -0.037194
  23 H :    0.035747
  24 H :    0.032356
  25 C :   -0.034647
  26 H :    0.017349
  27 H :    0.036339
  28 C :   -0.076948
  29 H :    0.018727
  30 H :    0.033537
  31 H :    0.025567
  32 H :    0.041043
  33 H :    0.041582

  Mayer bond orders larger than 0.100000
B(  0-S ,  1-C ) :   1.1336 B(  0-S ,  4-C ) :   1.1329 B(  1-C ,  2-C ) :   1.6238
B(  1-C , 32-H ) :   0.9624 B(  2-C ,  3-C ) :   1.2294 B(  2-C ,  6-C ) :   1.0206
B(  3-C ,  4-C ) :   1.5523 B(  3-C ,  5-H ) :   1.0010 B(  4-C , 20-C ) :   1.0910
B(  6-C ,  7-H ) :   0.9456 B(  6-C ,  8-H ) :   0.9387 B(  6-C ,  9-C ) :   1.0621
B(  9-C , 10-H ) :   0.9577 B(  9-C , 11-H ) :   0.9563 B(  9-C , 12-C ) :   1.0694
B( 12-C , 13-H ) :   0.9764 B( 12-C , 14-H ) :   0.9749 B( 12-C , 15-H ) :   0.9759
B( 16-S , 17-C ) :   1.1526 B( 16-S , 20-C ) :   1.1230 B( 17-C , 18-C ) :   1.6246
B( 17-C , 33-H ) :   0.9590 B( 18-C , 19-C ) :   1.2202 B( 18-C , 21-H ) :   0.9916
B( 19-C , 20-C ) :   1.5934 B( 19-C , 22-C ) :   1.0285 B( 22-C , 23-H ) :   0.9336
B( 22-C , 24-H ) :   0.9372 B( 22-C , 25-C ) :   1.0677 B( 25-C , 26-H ) :   0.9587
B( 25-C , 27-H ) :   0.9558 B( 25-C , 28-C ) :   1.0713 B( 28-C , 29-H ) :   0.9753
B( 28-C , 30-H ) :   0.9730 B( 28-C , 31-H ) :   0.9749

Dispersion correction           -0.014381482
FINAL SINGLE POINT ENERGY     -1339.880835704147

DIPOLE MOMENT
-------------
                                X             Y             Z
Electronic contribution:     -6.92857       4.67690     -30.68891
Nuclear contribution   :      7.18270      -4.97384      31.23894
                        -----------------------------------------
Total Dipole Moment    :      0.25414      -0.29694       0.55003
                        -----------------------------------------
Magnitude (a.u.)       :      0.67475
Magnitude (Debye)      :      1.71509

Rotational constants in cm-1:     0.018267     0.009013     0.006401
Rotational constants in MHz :   547.639115   270.204085   191.892570

                             ****ORCA TERMINATED NORMALLY****
TOTAL RUN TIME: 0 days 0 hours 0 minutes 21 seconds 432 msec
