                         Program Version 4.2.1 -  RELEASE  -
|  1> ! wB97X-D3 SP def2-SVP
|  2> %pal
|  3> nprocs 24
|  4> end
|  5>
|  6> * xyz 0 1
|  7> S 	 -62.2732 	 21.7215 	 20.2039
|  8> C 	 -63.3084 	 21.0573 	 21.4523
|  9> C 	 -62.9186 	 19.7407 	 21.7019
| 10> C 	 -61.7886 	 19.3312 	 20.9054
| 11> C 	 -61.2077 	 20.3045 	 20.1283
| 12> H 	 -61.3259 	 18.3922 	 20.7991
| 13> C 	 -63.6547 	 18.877 	 22.678
| 14> H 	 -64.0023 	 17.9487 	 22.2711
| 15> H 	 -64.5116 	 19.3741 	 23.0619
| 16> C 	 -62.8734 	 18.4648 	 23.8838
| 17> H 	 -61.9528 	 17.8766 	 23.6864
| 18> H 	 -62.4691 	 19.3544 	 24.2748
| 19> C 	 -63.6407 	 17.7176 	 24.9522
| 20> H 	 -64.3258 	 18.2949 	 25.4962
| 21> H 	 -64.1448 	 16.9023 	 24.4822
| 22> H 	 -62.8854 	 17.2622 	 25.6119
| 23> S 	 -60.3434 	 20.2035 	 17.5063
| 24> C 	 -58.6525 	 19.8297 	 17.1894
| 25> C 	 -57.909 	 19.6224 	 18.3475
| 26> C 	 -58.7067 	 19.8786 	 19.5065
| 27> C 	 -60.0439 	 20.1941 	 19.2237
| 28> H 	 -56.8478 	 19.3821 	 18.4091
| 29> C 	 -58.0797 	 19.8395 	 20.8083
| 30> H 	 -58.0064 	 20.8112 	 21.2467
| 31> H 	 -57.0127 	 19.7126 	 20.5566
| 32> C 	 -58.5758 	 18.7356 	 21.8497
| 33> H 	 -59.6052 	 19.0024 	 22.1423
| 34> H 	 -57.887 	 18.8344 	 22.6561
| 35> C 	 -58.4469 	 17.2787 	 21.3598
| 36> H 	 -59.0031 	 17.1202 	 20.4244
| 37> H 	 -58.7965 	 16.534 	 21.9844
| 38> H 	 -57.4301 	 17.0778 	 21.0738
| 39> H 	 -64.1032 	 21.568 	 21.9505
| 40> H 	 -58.303 	 19.4775 	 16.1839
| 41> *
| 42>
| 43>                          ****END OF INPUT****

CARTESIAN COORDINATES (ANGSTROEM)
---------------------------------
  S    -62.273200   21.721500   20.203900
  C    -63.308400   21.057300   21.452300
  C    -62.918600   19.740700   21.701900
  C    -61.788600   19.331200   20.905400
  C    -61.207700   20.304500   20.128300
  H    -61.325900   18.392200   20.799100
  C    -63.654700   18.877000   22.678000
  H    -64.002300   17.948700   22.271100
  H    -64.511600   19.374100   23.061900
  C    -62.873400   18.464800   23.883800
  H    -61.952800   17.876600   23.686400
  H    -62.469100   19.354400   24.274800
  C    -63.640700   17.717600   24.952200
  H    -64.325800   18.294900   25.496200
  H    -64.144800   16.902300   24.482200
  H    -62.885400   17.262200   25.611900
  S    -60.343400   20.203500   17.506300
  C    -58.652500   19.829700   17.189400
  C    -57.909000   19.622400   18.347500
  C    -58.706700   19.878600   19.506500
  C    -60.043900   20.194100   19.223700
  H    -56.847800   19.382100   18.409100
  C    -58.079700   19.839500   20.808300
  H    -58.006400   20.811200   21.246700
  H    -57.012700   19.712600   20.556600
  C    -58.575800   18.735600   21.849700
  H    -59.605200   19.002400   22.142300
  H    -57.887000   18.834400   22.656100
  C    -58.446900   17.278700   21.359800
  H    -59.003100   17.120200   20.424400
  H    -58.796500   16.534000   21.984400
  H    -57.430100   17.077800   21.073800
  H    -64.103200   21.568000   21.950500
  H    -58.303000   19.477500   16.183900

 Total Charge           Charge          ....    0
 Multiplicity           Mult            ....    1
 Number of Electrons    NEL             ....  134
 Basis Dimension        Dim             ....  322

ORBITAL ENERGIES
----------------

  NO   OCC          E(Eh)            E(eV)
   0   2.0000     -88.969773     -2420.9906
   1   2.0000     -88.961949     -2420.7777
   2   2.0000     -10.332406      -281.1590
   3   2.0000     -10.328603      -281.0556
   4   2.0000     -10.324851      -280.9535
   5   2.0000     -10.317219      -280.7458
   6   2.0000     -10.305057      -280.4149
   7   2.0000     -10.300583      -280.2931
   8   2.0000     -10.298091      -280.2253
   9   2.0000     -10.292983      -280.0863
  10   2.0000     -10.288422      -279.9622
  11   2.0000     -10.285932      -279.8944
  12   2.0000     -10.282800      -279.8092
  13   2.0000     -10.275406      -279.6080
  14   2.0000     -10.271802      -279.5099
  15   2.0000     -10.271243      -279.4947
  16   2.0000      -8.084351      -219.9864
  17   2.0000      -8.076391      -219.7698
  18   2.0000      -6.042775      -164.4323
  19   2.0000      -6.038847      -164.3254
  20   2.0000      -6.035229      -164.2269
  21   2.0000      -6.034962      -164.2197
  22   2.0000      -6.030787      -164.1061
  23   2.0000      -6.027238      -164.0095
  24   2.0000      -1.004613       -27.3369
  25   2.0000      -0.983711       -26.7681
  26   2.0000      -0.920308       -25.0428
  27   2.0000      -0.907956       -24.7067
  28   2.0000      -0.871209       -23.7068
  29   2.0000      -0.852500       -23.1977
  30   2.0000      -0.845863       -23.0171
  31   2.0000      -0.819933       -22.3115
  32   2.0000      -0.785186       -21.3660
  33   2.0000      -0.772519       -21.0213
  34   2.0000      -0.714397       -19.4397
  35   2.0000      -0.700422       -19.0595
  36   2.0000      -0.686917       -18.6920
  37   2.0000      -0.666365       -18.1327
  38   2.0000      -0.653796       -17.7907
  39   2.0000      -0.616648       -16.7798
  40   2.0000      -0.594072       -16.1655
  41   2.0000      -0.578972       -15.7546
  42   2.0000      -0.565857       -15.3977
  43   2.0000      -0.554502       -15.0888
  44   2.0000      -0.542900       -14.7731
  45   2.0000      -0.527409       -14.3515
  46   2.0000      -0.519555       -14.1378
  47   2.0000      -0.510928       -13.9030
  48   2.0000      -0.506193       -13.7742
  49   2.0000      -0.499117       -13.5817
  50   2.0000      -0.486057       -13.2263
  51   2.0000      -0.484667       -13.1885
  52   2.0000      -0.477540       -12.9945
  53   2.0000      -0.468873       -12.7587
  54   2.0000      -0.461539       -12.5591
  55   2.0000      -0.449455       -12.2303
  56   2.0000      -0.444031       -12.0827
  57   2.0000      -0.441729       -12.0201
  58   2.0000      -0.434356       -11.8194
  59   2.0000      -0.420518       -11.4429
  60   2.0000      -0.419275       -11.4090
  61   2.0000      -0.414052       -11.2669
  62   2.0000      -0.411719       -11.2034
  63   2.0000      -0.345021        -9.3885
  64   2.0000      -0.329492        -8.9659
  65   2.0000      -0.324931        -8.8418
  66   2.0000      -0.298431        -8.1207
  67   0.0000       0.032901         0.8953
  68   0.0000       0.056269         1.5312
  69   0.0000       0.112802         3.0695
  70   0.0000       0.121472         3.3054
  71   0.0000       0.127632         3.4731

MULLIKEN ATOMIC CHARGES
-----------------------
   0 S :    0.094517
   1 C :   -0.103015
   2 C :   -0.091838
   3 C :    0.077900
   4 C :   -0.183682
   5 H :   -0.007381
   6 C :    0.137010
   7 H :    0.014202
   8 H :   -0.004024
   9 C :   -0.115465
  10 H :    0.026972
  11 H :    0.006571
  12 C :    0.000105
  13 H :    0.025374
  14 H :    0.014118
  15 H :    0.032096
  16 S :    0.120995
  17 C :   -0.101772
  18 C :   -0.037808
  19 C :   -0.052851
  20 C :   -0.155112
  21 H :    0.031088
  22 C :    0.063289
  23 H :    0.035350
  24 H :   -0.004075
  25 C :   -0.062834
  26 H :    0.053053
  27 H :    0.023748
  28 C :   -0.028406
  29 H :    0.028072
  30 H :    0.023690
  31 H :    0.017894
  32 H :    0.045713
  33 H :    0.076505
Sum of atomic charges:   -0.0000000

LOEWDIN ATOMIC CHARGES
----------------------
   0 S :    0.389432
   1 C :   -0.187288
   2 C :   -0.060005
   3 C :   -0.055795
   4 C :   -0.187816
   5 H :    0.025360
   6 C :   -0.028665
   7 H :    0.027111
   8 H :    0.025682
   9 C :   -0.045679
  10 H :    0.024101
  11 H :    0.014401
  12 C :   -0.054189
  13 H :    0.016323
  14 H :    0.020532
  15 H :    0.033842
  16 S :    0.417956
  17 C :   -0.188506
  18 C :   -0.071458
  19 C :   -0.056211
  20 C :   -0.209949
  21 H :    0.036194
  22 C :   -0.036809
  23 H :    0.035420
  24 H :    0.029421
  25 C :   -0.028012
  26 H :    0.025188
  27 H :    0.020693
  28 C :   -0.063504
  29 H :    0.025614
  30 H :    0.016728
  31 H :    0.023780
  32 H :    0.028054
  33 H :    0.038053

  Mayer bond orders larger than 0.100000
B(  0-S ,  1-C ) :   1.1413 B(  0-S ,  4-C ) :   1.1442 B(  1-C ,  2-C ) :   1.5960
B(  1-C , 32-H ) :   0.9745 B(  2-C ,  3-C ) :   1.2095 B(  2-C ,  6-C ) :   1.0508
B(  3-C ,  4-C ) :   1.5962 B(  3-C ,  5-H ) :   0.9985 B(  4-C , 20-C ) :   1.0146
B(  6-C ,  7-H ) :   0.9284 B(  6-C ,  8-H ) :   0.9331 B(  6-C ,  9-C ) :   1.0619
B(  9-C , 10-H ) :   0.9544 B(  9-C , 11-H ) :   0.9492 B(  9-C , 12-C ) :   1.0929
B( 12-C , 13-H ) :   0.9754 B( 12-C , 14-H ) :   0.9705 B( 12-C , 15-H ) :   0.9722
B( 16-S , 17-C ) :   1.1705 B( 16-S , 20-C ) :   1.1526 B( 17-C , 18-C ) :   1.5865
B( 17-C , 33-H ) :   0.9566 B( 18-C , 19-C ) :   1.2751 B( 18-C , 21-H ) :   0.9810
B( 19-C , 20-C ) :   1.5682 B( 19-C , 22-C ) :   1.0542 B( 22-C , 23-H ) :   0.9268
B( 22-C , 24-H ) :   0.9266 B( 22-C , 25-C ) :   1.0563 B( 25-C , 26-H ) :   0.9544
B( 25-C , 27-H ) :   0.9531 B( 25-C , 28-C ) :   1.0720 B( 28-C , 29-H ) :   0.9696
B( 28-C , 30-H ) :   0.9760 B( 28-C , 31-H ) :   0.9723

Dispersion correction           -0.015362061
FINAL SINGLE POINT ENERGY     -1339.871633380329

DIPOLE MOMENT
-------------
                                X             Y             Z
Electronic contribution:     -2.42883      18.12958     -24.86812
Nuclear contribution   :      2.65076     -18.66058      25.31644
                        -----------------------------------------
Total Dipole Moment    :      0.22193      -0.53101       0.44832
                        -----------------------------------------
Magnitude (a.u.)       :      0.72953
Magnitude (Debye)      :      1.85432

Rotational constants in cm-1:     0.020209     0.009092     0.006935
Rotational constants in MHz :   605.848896   272.557274   207.913496

                             ****ORCA TERMINATED NORMALLY****
TOTAL RUN TIME: 0 days 0 hours 0 minutes 22 seconds 551 msec
