                         Program Version 4.2.1 -  RELEASE  -
|  1> ! wB97X-D3 SP def2-SVP
|  2> %pal
|  3> nprocs 24
|  4> end
|  5>
|  6> * xyz 0 1
|  7> S 	 -32.2116 	 -37.1059 	 -86.7216
|  8> C 	 -31.1041 	 -35.7056 	 -86.4602
|  9> C 	 -30.6669 	 -35.2375 	 -87.7471
| 10> C 	 -31.1902 	 -35.9609 	 -88.8855
| 11> C 	 -32.1008 	 -36.9561 	 -88.5095
| 12> H 	 -30.8805 	 -35.8337 	 -89.8962
| 13> C 	 -29.6149 	 -34.1451 	 -87.9484
| 14> H 	 -29.5072 	 -33.6673 	 -87.0199
| 15> H 	 -30.1856 	 -33.4493 	 -88.587
| 16> C 	 -28.1735 	 -34.4278 	 -88.5185
| 17> H 	 -27.5003 	 -34.8566 	 -87.7371
| 18> H 	 -28.2597 	 -35.2212 	 -89.2926
| 19> C 	 -27.4721 	 -33.2317 	 -89.1048
| 20> H 	 -27.5065 	 -32.4524 	 -88.3561
| 21> H 	 -26.4705 	 -33.5116 	 -89.3777
| 22> H 	 -27.8961 	 -32.7968 	 -90.017
| 23> S 	 -33.9743 	 -37.6869 	 -90.2476
| 24> C 	 -33.7446 	 -39.1254 	 -91.2081
| 25> C 	 -32.4507 	 -39.5908 	 -91.0287
| 26> C 	 -31.6633 	 -38.8816 	 -90.1328
| 27> C 	 -32.45 	 -37.9157 	 -89.4951
| 28> H 	 -32.2386 	 -40.5017 	 -91.5603
| 29> C 	 -30.288 	 -39.4033 	 -89.6895
| 30> H 	 -30.3786 	 -40.429 	 -89.2162
| 31> H 	 -29.946 	 -38.8076 	 -88.8624
| 32> C 	 -29.2081 	 -39.4234 	 -90.7622
| 33> H 	 -29.3935 	 -38.7259 	 -91.5976
| 34> H 	 -29.3568 	 -40.4054 	 -91.1672
| 35> C 	 -27.8235 	 -39.1567 	 -90.3232
| 36> H 	 -27.5423 	 -39.7098 	 -89.4048
| 37> H 	 -27.5225 	 -38.1102 	 -90.1373
| 38> H 	 -27.1623 	 -39.5391 	 -91.0901
| 39> H 	 -30.8111 	 -35.1434 	 -85.59
| 40> H 	 -34.4695 	 -39.5843 	 -91.8712
| 41> *
| 42>
| 43>                          ****END OF INPUT****

CARTESIAN COORDINATES (ANGSTROEM)
---------------------------------
  S    -32.211600  -37.105900  -86.721600
  C    -31.104100  -35.705600  -86.460200
  C    -30.666900  -35.237500  -87.747100
  C    -31.190200  -35.960900  -88.885500
  C    -32.100800  -36.956100  -88.509500
  H    -30.880500  -35.833700  -89.896200
  C    -29.614900  -34.145100  -87.948400
  H    -29.507200  -33.667300  -87.019900
  H    -30.185600  -33.449300  -88.587000
  C    -28.173500  -34.427800  -88.518500
  H    -27.500300  -34.856600  -87.737100
  H    -28.259700  -35.221200  -89.292600
  C    -27.472100  -33.231700  -89.104800
  H    -27.506500  -32.452400  -88.356100
  H    -26.470500  -33.511600  -89.377700
  H    -27.896100  -32.796800  -90.017000
  S    -33.974300  -37.686900  -90.247600
  C    -33.744600  -39.125400  -91.208100
  C    -32.450700  -39.590800  -91.028700
  C    -31.663300  -38.881600  -90.132800
  C    -32.450000  -37.915700  -89.495100
  H    -32.238600  -40.501700  -91.560300
  C    -30.288000  -39.403300  -89.689500
  H    -30.378600  -40.429000  -89.216200
  H    -29.946000  -38.807600  -88.862400
  C    -29.208100  -39.423400  -90.762200
  H    -29.393500  -38.725900  -91.597600
  H    -29.356800  -40.405400  -91.167200
  C    -27.823500  -39.156700  -90.323200
  H    -27.542300  -39.709800  -89.404800
  H    -27.522500  -38.110200  -90.137300
  H    -27.162300  -39.539100  -91.090100
  H    -30.811100  -35.143400  -85.590000
  H    -34.469500  -39.584300  -91.871200

 Total Charge           Charge          ....    0
 Multiplicity           Mult            ....    1
 Number of Electrons    NEL             ....  134
 Basis Dimension        Dim             ....  322

ORBITAL ENERGIES
----------------

  NO   OCC          E(Eh)            E(eV)
   0   2.0000     -88.972723     -2421.0709
   1   2.0000     -88.964081     -2420.8357
   2   2.0000     -10.327997      -281.0391
   3   2.0000     -10.324684      -280.9489
   4   2.0000     -10.319545      -280.8091
   5   2.0000     -10.312744      -280.6240
   6   2.0000     -10.308208      -280.5006
   7   2.0000     -10.300894      -280.3016
   8   2.0000     -10.296205      -280.1740
   9   2.0000     -10.295606      -280.1577
  10   2.0000     -10.291687      -280.0510
  11   2.0000     -10.290455      -280.0175
  12   2.0000     -10.286796      -279.9180
  13   2.0000     -10.280313      -279.7415
  14   2.0000     -10.278028      -279.6794
  15   2.0000     -10.277100      -279.6541
  16   2.0000      -8.084922      -220.0019
  17   2.0000      -8.079599      -219.8571
  18   2.0000      -6.043731      -164.4583
  19   2.0000      -6.039741      -164.3497
  20   2.0000      -6.037837      -164.2979
  21   2.0000      -6.035525      -164.2350
  22   2.0000      -6.033948      -164.1921
  23   2.0000      -6.030651      -164.1023
  24   2.0000      -1.008118       -27.4323
  25   2.0000      -0.972499       -26.4631
  26   2.0000      -0.912855       -24.8400
  27   2.0000      -0.906201       -24.6590
  28   2.0000      -0.872380       -23.7387
  29   2.0000      -0.855632       -23.2829
  30   2.0000      -0.848718       -23.0948
  31   2.0000      -0.810767       -22.0621
  32   2.0000      -0.782238       -21.2858
  33   2.0000      -0.768622       -20.9153
  34   2.0000      -0.708598       -19.2819
  35   2.0000      -0.698886       -19.0177
  36   2.0000      -0.695691       -18.9307
  37   2.0000      -0.655368       -17.8335
  38   2.0000      -0.636525       -17.3207
  39   2.0000      -0.618144       -16.8205
  40   2.0000      -0.597625       -16.2622
  41   2.0000      -0.567123       -15.4322
  42   2.0000      -0.561174       -15.2703
  43   2.0000      -0.557962       -15.1829
  44   2.0000      -0.532134       -14.4801
  45   2.0000      -0.526657       -14.3311
  46   2.0000      -0.521395       -14.1879
  47   2.0000      -0.515002       -14.0139
  48   2.0000      -0.504370       -13.7246
  49   2.0000      -0.496789       -13.5183
  50   2.0000      -0.491716       -13.3803
  51   2.0000      -0.490505       -13.3473
  52   2.0000      -0.475384       -12.9359
  53   2.0000      -0.460679       -12.5357
  54   2.0000      -0.455933       -12.4066
  55   2.0000      -0.449488       -12.2312
  56   2.0000      -0.439864       -11.9693
  57   2.0000      -0.434176       -11.8145
  58   2.0000      -0.427381       -11.6296
  59   2.0000      -0.426886       -11.6162
  60   2.0000      -0.418462       -11.3869
  61   2.0000      -0.416676       -11.3383
  62   2.0000      -0.405373       -11.0308
  63   2.0000      -0.337291        -9.1781
  64   2.0000      -0.329489        -8.9659
  65   2.0000      -0.313244        -8.5238
  66   2.0000      -0.306338        -8.3359
  67   0.0000       0.035444         0.9645
  68   0.0000       0.050555         1.3757
  69   0.0000       0.106446         2.8965
  70   0.0000       0.118606         3.2274
  71   0.0000       0.126882         3.4526

MULLIKEN ATOMIC CHARGES
-----------------------
   0 S :    0.112747
   1 C :   -0.099532
   2 C :   -0.127790
   3 C :    0.043657
   4 C :   -0.140714
   5 H :    0.016511
   6 C :    0.073327
   7 H :   -0.002107
   8 H :    0.034692
   9 C :   -0.078287
  10 H :    0.039708
  11 H :    0.027075
  12 C :   -0.035732
  13 H :    0.027990
  14 H :    0.031615
  15 H :    0.030460
  16 S :    0.120965
  17 C :   -0.104575
  18 C :   -0.039691
  19 C :    0.017134
  20 C :   -0.211041
  21 H :    0.012630
  22 C :    0.055918
  23 H :    0.048170
  24 H :    0.015322
  25 C :   -0.067319
  26 H :    0.033585
  27 H :    0.022923
  28 C :   -0.056934
  29 H :    0.026716
  30 H :    0.042593
  31 H :    0.028541
  32 H :    0.046847
  33 H :    0.054593
Sum of atomic charges:    0.0000000

LOEWDIN ATOMIC CHARGES
----------------------
   0 S :    0.378381
   1 C :   -0.194871
   2 C :   -0.056463
   3 C :   -0.044417
   4 C :   -0.197485
   5 H :    0.029879
   6 C :   -0.037308
   7 H :    0.018537
   8 H :    0.036430
   9 C :   -0.041930
  10 H :    0.031229
  11 H :    0.021208
  12 C :   -0.062661
  13 H :    0.023690
  14 H :    0.026936
  15 H :    0.025477
  16 S :    0.432793
  17 C :   -0.193971
  18 C :   -0.070543
  19 C :   -0.056431
  20 C :   -0.210267
  21 H :    0.029357
  22 C :   -0.030533
  23 H :    0.041157
  24 H :    0.023945
  25 C :   -0.049763
  26 H :    0.029360
  27 H :    0.023308
  28 C :   -0.068931
  29 H :    0.025909
  30 H :    0.028405
  31 H :    0.028625
  32 H :    0.031489
  33 H :    0.029457

  Mayer bond orders larger than 0.100000
B(  0-S ,  1-C ) :   1.1213 B(  0-S ,  4-C ) :   1.1247 B(  1-C ,  2-C ) :   1.6063
B(  1-C ,  4-C ) :   0.1020 B(  1-C , 32-H ) :   0.9652 B(  2-C ,  3-C ) :   1.2303
B(  2-C ,  6-C ) :   1.0316 B(  3-C ,  4-C ) :   1.5658 B(  3-C ,  5-H ) :   0.9996
B(  4-C , 20-C ) :   1.0246 B(  6-C ,  7-H ) :   0.9338 B(  6-C ,  8-H ) :   0.9433
B(  6-C ,  9-C ) :   1.0436 B(  9-C , 10-H ) :   0.9559 B(  9-C , 11-H ) :   0.9588
B(  9-C , 12-C ) :   1.0834 B( 12-C , 13-H ) :   0.9762 B( 12-C , 14-H ) :   0.9711
B( 12-C , 15-H ) :   0.9740 B( 16-S , 17-C ) :   1.1582 B( 16-S , 20-C ) :   1.1811
B( 17-C , 18-C ) :   1.5984 B( 17-C , 20-C ) :   0.1102 B( 17-C , 33-H ) :   0.9703
B( 18-C , 19-C ) :   1.2477 B( 18-C , 21-H ) :   0.9934 B( 19-C , 20-C ) :   1.5524
B( 19-C , 22-C ) :   1.0463 B( 22-C , 23-H ) :   0.9427 B( 22-C , 24-H ) :   0.9402
B( 22-C , 25-C ) :   1.0307 B( 25-C , 26-H ) :   0.9601 B( 25-C , 27-H ) :   0.9538
B( 25-C , 28-C ) :   1.1040 B( 28-C , 29-H ) :   0.9699 B( 28-C , 30-H ) :   0.9724
B( 28-C , 31-H ) :   0.9688

Dispersion correction           -0.014483662
FINAL SINGLE POINT ENERGY     -1339.857251053602

DIPOLE MOMENT
-------------
                                X             Y             Z
Electronic contribution:    -30.49609      -5.49094       6.52233
Nuclear contribution   :     31.21651       5.50175      -6.81548
                        -----------------------------------------
Total Dipole Moment    :      0.72042       0.01081      -0.29315
                        -----------------------------------------
Magnitude (a.u.)       :      0.77786
Magnitude (Debye)      :      1.97716

Rotational constants in cm-1:     0.016187     0.009363     0.007238
Rotational constants in MHz :   485.274164   280.706559   216.978531

                             ****ORCA TERMINATED NORMALLY****
TOTAL RUN TIME: 0 days 0 hours 0 minutes 21 seconds 821 msec
