                         Program Version 4.2.1 -  RELEASE  -
|  1> ! wB97X-D3 SP def2-SVP
|  2> %pal
|  3> nprocs 24
|  4> end
|  5>
|  6> * xyz 0 1
|  7> S 	 -43.9141 	 9.7586 	 30.6327
|  8> C 	 -45.6734 	 9.53823 	 30.9391
|  9> C 	 -46.3332 	 9.15029 	 29.7633
| 10> C 	 -45.5033 	 9.34929 	 28.6117
| 11> C 	 -44.1839 	 9.75772 	 28.9052
| 12> H 	 -45.877 	 9.20061 	 27.622
| 13> C 	 -47.774 	 8.68737 	 29.6576
| 14> H 	 -47.9491 	 7.7163 	 30.1615
| 15> H 	 -47.969 	 8.3373 	 28.6564
| 16> C 	 -48.7866 	 9.69012 	 30.1786
| 17> H 	 -49.6537 	 9.1437 	 30.51
| 18> H 	 -48.4805 	 10.2417 	 31.0708
| 19> C 	 -49.2134 	 10.7068 	 29.1026
| 20> H 	 -50.1126 	 11.3255 	 29.3034
| 21> H 	 -48.3867 	 11.4313 	 29.0966
| 22> H 	 -49.4672 	 10.2766 	 28.1073
| 23> S 	 -42.1374 	 8.63763 	 27.5775
| 24> C 	 -41.1205 	 9.5739 	 26.4818
| 25> C 	 -41.6912 	 10.8563 	 26.2648
| 26> C 	 -42.8235 	 11.072 	 27.1364
| 27> C 	 -43.102 	 10.0106 	 27.935
| 28> H 	 -41.2841 	 11.5028 	 25.5297
| 29> C 	 -43.7217 	 12.306 	 27.1206
| 30> H 	 -43.3424 	 13.0506 	 27.8402
| 31> H 	 -44.7318 	 12.0667 	 27.4952
| 32> C 	 -43.899 	 13.0042 	 25.7673
| 33> H 	 -42.9012 	 13.344 	 25.3998
| 34> H 	 -44.4912 	 13.9493 	 25.901
| 35> C 	 -44.4615 	 11.9888 	 24.6906
| 36> H 	 -44.7624 	 12.6372 	 23.904
| 37> H 	 -45.2932 	 11.4309 	 25.1456
| 38> H 	 -43.6941 	 11.2589 	 24.323
| 39> H 	 -46.0668 	 9.32391 	 31.9308
| 40> H 	 -40.2826 	 9.16315 	 25.9357
| 41> *
| 42>
| 43>                          ****END OF INPUT****

CARTESIAN COORDINATES (ANGSTROEM)
---------------------------------
  S    -43.914100    9.758600   30.632700
  C    -45.673400    9.538230   30.939100
  C    -46.333200    9.150290   29.763300
  C    -45.503300    9.349290   28.611700
  C    -44.183900    9.757720   28.905200
  H    -45.877000    9.200610   27.622000
  C    -47.774000    8.687370   29.657600
  H    -47.949100    7.716300   30.161500
  H    -47.969000    8.337300   28.656400
  C    -48.786600    9.690120   30.178600
  H    -49.653700    9.143700   30.510000
  H    -48.480500   10.241700   31.070800
  C    -49.213400   10.706800   29.102600
  H    -50.112600   11.325500   29.303400
  H    -48.386700   11.431300   29.096600
  H    -49.467200   10.276600   28.107300
  S    -42.137400    8.637630   27.577500
  C    -41.120500    9.573900   26.481800
  C    -41.691200   10.856300   26.264800
  C    -42.823500   11.072000   27.136400
  C    -43.102000   10.010600   27.935000
  H    -41.284100   11.502800   25.529700
  C    -43.721700   12.306000   27.120600
  H    -43.342400   13.050600   27.840200
  H    -44.731800   12.066700   27.495200
  C    -43.899000   13.004200   25.767300
  H    -42.901200   13.344000   25.399800
  H    -44.491200   13.949300   25.901000
  C    -44.461500   11.988800   24.690600
  H    -44.762400   12.637200   23.904000
  H    -45.293200   11.430900   25.145600
  H    -43.694100   11.258900   24.323000
  H    -46.066800    9.323910   31.930800
  H    -40.282600    9.163150   25.935700

 Total Charge           Charge          ....    0
 Multiplicity           Mult            ....    1
 Number of Electrons    NEL             ....  134
 Basis Dimension        Dim             ....  322

ORBITAL ENERGIES
----------------

  NO   OCC          E(Eh)            E(eV)
   0   2.0000     -88.968991     -2420.9693
   1   2.0000     -88.963771     -2420.8273
   2   2.0000     -10.333225      -281.1813
   3   2.0000     -10.322345      -280.8853
   4   2.0000     -10.319212      -280.8000
   5   2.0000     -10.318564      -280.7824
   6   2.0000     -10.305422      -280.4248
   7   2.0000     -10.302535      -280.3462
   8   2.0000     -10.299574      -280.2657
   9   2.0000     -10.296619      -280.1853
  10   2.0000     -10.294457      -280.1264
  11   2.0000     -10.292798      -280.0813
  12   2.0000     -10.288538      -279.9653
  13   2.0000     -10.286771      -279.9173
  14   2.0000     -10.280963      -279.7592
  15   2.0000     -10.278648      -279.6962
  16   2.0000      -8.082695      -219.9413
  17   2.0000      -8.079007      -219.8410
  18   2.0000      -6.041204      -164.3895
  19   2.0000      -6.037478      -164.2881
  20   2.0000      -6.037405      -164.2861
  21   2.0000      -6.033447      -164.1785
  22   2.0000      -6.033382      -164.1767
  23   2.0000      -6.029835      -164.0802
  24   2.0000      -1.004627       -27.3373
  25   2.0000      -0.978583       -26.6286
  26   2.0000      -0.913040       -24.8451
  27   2.0000      -0.902501       -24.5583
  28   2.0000      -0.863725       -23.5032
  29   2.0000      -0.844190       -22.9716
  30   2.0000      -0.840319       -22.8662
  31   2.0000      -0.809098       -22.0167
  32   2.0000      -0.782041       -21.2804
  33   2.0000      -0.771814       -21.0021
  34   2.0000      -0.706800       -19.2330
  35   2.0000      -0.697268       -18.9736
  36   2.0000      -0.691159       -18.8074
  37   2.0000      -0.659152       -17.9364
  38   2.0000      -0.639724       -17.4078
  39   2.0000      -0.615235       -16.7414
  40   2.0000      -0.595166       -16.1953
  41   2.0000      -0.575218       -15.6525
  42   2.0000      -0.550828       -14.9888
  43   2.0000      -0.548762       -14.9326
  44   2.0000      -0.538590       -14.6558
  45   2.0000      -0.530833       -14.4447
  46   2.0000      -0.518151       -14.0996
  47   2.0000      -0.512928       -13.9575
  48   2.0000      -0.498672       -13.5695
  49   2.0000      -0.494234       -13.4488
  50   2.0000      -0.487358       -13.2617
  51   2.0000      -0.476815       -12.9748
  52   2.0000      -0.471287       -12.8244
  53   2.0000      -0.461894       -12.5688
  54   2.0000      -0.457372       -12.4457
  55   2.0000      -0.447386       -12.1740
  56   2.0000      -0.443499       -12.0682
  57   2.0000      -0.435185       -11.8420
  58   2.0000      -0.426902       -11.6166
  59   2.0000      -0.423661       -11.5284
  60   2.0000      -0.421628       -11.4731
  61   2.0000      -0.412719       -11.2307
  62   2.0000      -0.411339       -11.1931
  63   2.0000      -0.334116        -9.0917
  64   2.0000      -0.327282        -8.9058
  65   2.0000      -0.319631        -8.6976
  66   2.0000      -0.309066        -8.4101
  67   0.0000       0.037803         1.0287
  68   0.0000       0.051246         1.3945
  69   0.0000       0.105614         2.8739
  70   0.0000       0.113686         3.0936
  71   0.0000       0.131079         3.5668

MULLIKEN ATOMIC CHARGES
-----------------------
   0 S :    0.117993
   1 C :   -0.123386
   2 C :   -0.105111
   3 C :    0.068225
   4 C :   -0.176905
   5 H :    0.001966
   6 C :    0.077934
   7 H :    0.035412
   8 H :    0.006175
   9 C :   -0.052051
  10 H :    0.017136
  11 H :    0.034327
  12 C :   -0.078843
  13 H :    0.033419
  14 H :    0.039602
  15 H :    0.033803
  16 S :    0.116768
  17 C :   -0.101044
  18 C :   -0.037927
  19 C :   -0.008485
  20 C :   -0.182118
  21 H :    0.013643
  22 C :    0.065213
  23 H :    0.039406
  24 H :    0.033550
  25 C :   -0.122579
  26 H :    0.026264
  27 H :    0.043710
  28 C :   -0.050583
  29 H :    0.033665
  30 H :    0.034812
  31 H :    0.050612
  32 H :    0.055440
  33 H :    0.059960
Sum of atomic charges:   -0.0000000

LOEWDIN ATOMIC CHARGES
----------------------
   0 S :    0.401285
   1 C :   -0.191280
   2 C :   -0.057826
   3 C :   -0.057385
   4 C :   -0.199763
   5 H :    0.026225
   6 C :   -0.033738
   7 H :    0.038953
   8 H :    0.027823
   9 C :   -0.039475
  10 H :    0.019201
  11 H :    0.028337
  12 C :   -0.074256
  13 H :    0.027103
  14 H :    0.028876
  15 H :    0.025860
  16 S :    0.420593
  17 C :   -0.180448
  18 C :   -0.064037
  19 C :   -0.055498
  20 C :   -0.217335
  21 H :    0.025995
  22 C :   -0.037771
  23 H :    0.035346
  24 H :    0.030638
  25 C :   -0.046475
  26 H :    0.019723
  27 H :    0.031122
  28 C :   -0.066054
  29 H :    0.021504
  30 H :    0.025291
  31 H :    0.033237
  32 H :    0.026569
  33 H :    0.027656

  Mayer bond orders larger than 0.100000
B(  0-S ,  1-C ) :   1.1390 B(  0-S ,  4-C ) :   1.1696 B(  1-C ,  2-C ) :   1.5955
B(  1-C ,  4-C ) :   0.1094 B(  1-C , 32-H ) :   0.9631 B(  2-C ,  3-C ) :   1.2608
B(  2-C ,  6-C ) :   1.0260 B(  3-C ,  4-C ) :   1.5504 B(  3-C ,  5-H ) :   0.9973
B(  4-C , 20-C ) :   0.9939 B(  6-C ,  7-H ) :   0.9343 B(  6-C ,  8-H ) :   0.9415
B(  6-C ,  9-C ) :   1.0637 B(  9-C , 10-H ) :   0.9543 B(  9-C , 11-H ) :   0.9613
B(  9-C , 12-C ) :   1.0706 B( 12-C , 13-H ) :   0.9759 B( 12-C , 14-H ) :   0.9793
B( 12-C , 15-H ) :   0.9765 B( 16-S , 17-C ) :   1.1645 B( 16-S , 20-C ) :   1.1620
B( 17-C , 18-C ) :   1.5892 B( 17-C , 20-C ) :   0.1001 B( 17-C , 33-H ) :   0.9706
B( 18-C , 19-C ) :   1.2268 B( 18-C , 21-H ) :   0.9971 B( 19-C , 20-C ) :   1.6288
B( 19-C , 22-C ) :   1.0295 B( 22-C , 23-H ) :   0.9284 B( 22-C , 24-H ) :   0.9390
B( 22-C , 25-C ) :   1.0821 B( 25-C , 26-H ) :   0.9495 B( 25-C , 27-H ) :   0.9580
B( 25-C , 28-C ) :   1.0607 B( 28-C , 29-H ) :   0.9763 B( 28-C , 30-H ) :   0.9791
B( 28-C , 31-H ) :   0.9711

Dispersion correction           -0.014875231
FINAL SINGLE POINT ENERGY     -1339.877568805469

DIPOLE MOMENT
-------------
                                X             Y             Z
Electronic contribution:     22.34299     -12.22201      10.23620
Nuclear contribution   :    -22.83932      12.31272     -10.55464
                        -----------------------------------------
Total Dipole Moment    :     -0.49632       0.09072      -0.31844
                        -----------------------------------------
Magnitude (a.u.)       :      0.59663
Magnitude (Debye)      :      1.51652

Rotational constants in cm-1:     0.019309     0.008801     0.006932
Rotational constants in MHz :   578.870763   263.847778   207.806574

                             ****ORCA TERMINATED NORMALLY****
TOTAL RUN TIME: 0 days 0 hours 0 minutes 21 seconds 846 msec
