                         Program Version 4.2.1 -  RELEASE  -
|  1> ! wB97X-D3 SP def2-SVP
|  2> %pal
|  3> nprocs 24
|  4> end
|  5>
|  6> * xyz 0 1
|  7> S 	 -114.431 	 57.9897 	 -27.5639
|  8> C 	 -113.756 	 58.7052 	 -26.1605
|  9> C 	 -113.142 	 59.9842 	 -26.4598
| 10> C 	 -113.315 	 60.349 	 -27.7983
| 11> C 	 -113.997 	 59.3709 	 -28.5492
| 12> H 	 -113.026 	 61.2483 	 -28.3108
| 13> C 	 -112.561 	 60.9398 	 -25.3587
| 14> H 	 -112.111 	 61.8028 	 -25.8874
| 15> H 	 -111.565 	 60.6704 	 -24.8211
| 16> C 	 -113.564 	 61.3951 	 -24.2323
| 17> H 	 -114.455 	 61.688 	 -24.8514
| 18> H 	 -113.862 	 60.525 	 -23.5922
| 19> C 	 -113.031 	 62.4051 	 -23.2959
| 20> H 	 -112.601 	 63.2287 	 -23.8522
| 21> H 	 -113.732 	 62.8069 	 -22.5378
| 22> H 	 -112.216 	 61.9761 	 -22.7844
| 23> S 	 -113.417 	 58.4534 	 -31.0081
| 24> C 	 -114.536 	 58.633 	 -32.3279
| 25> C 	 -115.461 	 59.5696 	 -31.9861
| 26> C 	 -115.288 	 60.1274 	 -30.6578
| 27> C 	 -114.371 	 59.3994 	 -29.975
| 28> H 	 -116.229 	 59.9125 	 -32.7073
| 29> C 	 -116.121 	 61.2808 	 -30.1936
| 30> H 	 -116.783 	 61.5843 	 -30.9703
| 31> H 	 -115.285 	 61.9944 	 -30.0655
| 32> C 	 -116.931 	 61.0575 	 -28.8888
| 33> H 	 -117.363 	 62.0636 	 -28.7035
| 34> H 	 -116.263 	 60.7274 	 -28.0931
| 35> C 	 -118.03 	 60.0448 	 -28.9471
| 36> H 	 -118.558 	 60.1324 	 -29.8896
| 37> H 	 -118.678 	 60.1844 	 -28.0216
| 38> H 	 -117.698 	 59.0202 	 -28.9923
| 39> H 	 -113.817 	 58.3508 	 -25.1408
| 40> H 	 -114.507 	 58.134 	 -33.2982
| 41> *
| 42>
| 43>                          ****END OF INPUT****

CARTESIAN COORDINATES (ANGSTROEM)
---------------------------------
  S    -114.431000   57.989700  -27.563900
  C    -113.756000   58.705200  -26.160500
  C    -113.142000   59.984200  -26.459800
  C    -113.315000   60.349000  -27.798300
  C    -113.997000   59.370900  -28.549200
  H    -113.026000   61.248300  -28.310800
  C    -112.561000   60.939800  -25.358700
  H    -112.111000   61.802800  -25.887400
  H    -111.565000   60.670400  -24.821100
  C    -113.564000   61.395100  -24.232300
  H    -114.455000   61.688000  -24.851400
  H    -113.862000   60.525000  -23.592200
  C    -113.031000   62.405100  -23.295900
  H    -112.601000   63.228700  -23.852200
  H    -113.732000   62.806900  -22.537800
  H    -112.216000   61.976100  -22.784400
  S    -113.417000   58.453400  -31.008100
  C    -114.536000   58.633000  -32.327900
  C    -115.461000   59.569600  -31.986100
  C    -115.288000   60.127400  -30.657800
  C    -114.371000   59.399400  -29.975000
  H    -116.229000   59.912500  -32.707300
  C    -116.121000   61.280800  -30.193600
  H    -116.783000   61.584300  -30.970300
  H    -115.285000   61.994400  -30.065500
  C    -116.931000   61.057500  -28.888800
  H    -117.363000   62.063600  -28.703500
  H    -116.263000   60.727400  -28.093100
  C    -118.030000   60.044800  -28.947100
  H    -118.558000   60.132400  -29.889600
  H    -118.678000   60.184400  -28.021600
  H    -117.698000   59.020200  -28.992300
  H    -113.817000   58.350800  -25.140800
  H    -114.507000   58.134000  -33.298200

 Total Charge           Charge          ....    0
 Multiplicity           Mult            ....    1
 Number of Electrons    NEL             ....  134
 Basis Dimension        Dim             ....  322

ORBITAL ENERGIES
----------------

  NO   OCC          E(Eh)            E(eV)
   0   2.0000     -88.975827     -2421.1553
   1   2.0000     -88.957972     -2420.6695
   2   2.0000     -10.330578      -281.1093
   3   2.0000     -10.319539      -280.8089
   4   2.0000     -10.316129      -280.7161
   5   2.0000     -10.311736      -280.5966
   6   2.0000     -10.311512      -280.5905
   7   2.0000     -10.306247      -280.4472
   8   2.0000     -10.298291      -280.2307
   9   2.0000     -10.297263      -280.2028
  10   2.0000     -10.292430      -280.0712
  11   2.0000     -10.291047      -280.0336
  12   2.0000     -10.289212      -279.9837
  13   2.0000     -10.281768      -279.7811
  14   2.0000     -10.274612      -279.5864
  15   2.0000     -10.272868      -279.5389
  16   2.0000      -8.090185      -220.1451
  17   2.0000      -8.074300      -219.7129
  18   2.0000      -6.048388      -164.5850
  19   2.0000      -6.044511      -164.4795
  20   2.0000      -6.041526      -164.3983
  21   2.0000      -6.032875      -164.1629
  22   2.0000      -6.028555      -164.0453
  23   2.0000      -6.024920      -163.9464
  24   2.0000      -1.012857       -27.5612
  25   2.0000      -0.987521       -26.8718
  26   2.0000      -0.910598       -24.7786
  27   2.0000      -0.906649       -24.6712
  28   2.0000      -0.867483       -23.6054
  29   2.0000      -0.857935       -23.3456
  30   2.0000      -0.848935       -23.1007
  31   2.0000      -0.812987       -22.1225
  32   2.0000      -0.781608       -21.2686
  33   2.0000      -0.769067       -20.9274
  34   2.0000      -0.703379       -19.1399
  35   2.0000      -0.696354       -18.9488
  36   2.0000      -0.683596       -18.6016
  37   2.0000      -0.661830       -18.0093
  38   2.0000      -0.647404       -17.6167
  39   2.0000      -0.614085       -16.7101
  40   2.0000      -0.589519       -16.0416
  41   2.0000      -0.569951       -15.5092
  42   2.0000      -0.561108       -15.2685
  43   2.0000      -0.558351       -15.1935
  44   2.0000      -0.544508       -14.8168
  45   2.0000      -0.524170       -14.2634
  46   2.0000      -0.519389       -14.1333
  47   2.0000      -0.509759       -13.8713
  48   2.0000      -0.501109       -13.6359
  49   2.0000      -0.499437       -13.5904
  50   2.0000      -0.491585       -13.3767
  51   2.0000      -0.478619       -13.0239
  52   2.0000      -0.476921       -12.9777
  53   2.0000      -0.468618       -12.7517
  54   2.0000      -0.457353       -12.4452
  55   2.0000      -0.451405       -12.2834
  56   2.0000      -0.441789       -12.0217
  57   2.0000      -0.435356       -11.8466
  58   2.0000      -0.427300       -11.6274
  59   2.0000      -0.425405       -11.5759
  60   2.0000      -0.417479       -11.3602
  61   2.0000      -0.408762       -11.1230
  62   2.0000      -0.405783       -11.0419
  63   2.0000      -0.343929        -9.3588
  64   2.0000      -0.328397        -8.9361
  65   2.0000      -0.320765        -8.7285
  66   2.0000      -0.299916        -8.1611
  67   0.0000       0.036582         0.9954
  68   0.0000       0.057843         1.5740
  69   0.0000       0.117424         3.1953
  70   0.0000       0.122532         3.3343
  71   0.0000       0.126625         3.4456

MULLIKEN ATOMIC CHARGES
-----------------------
   0 S :    0.155970
   1 C :   -0.113784
   2 C :   -0.063395
   3 C :    0.065428
   4 C :   -0.217975
   5 H :    0.010633
   6 C :   -0.005175
   7 H :    0.016089
   8 H :    0.035281
   9 C :   -0.092476
  10 H :    0.042836
  11 H :    0.034635
  12 C :   -0.017541
  13 H :    0.019495
  14 H :    0.048029
  15 H :    0.015057
  16 S :    0.116578
  17 C :   -0.090302
  18 C :   -0.058565
  19 C :   -0.031621
  20 C :   -0.203204
  21 H :    0.025701
  22 C :    0.092480
  23 H :    0.007472
  24 H :    0.042088
  25 C :   -0.077756
  26 H :    0.032015
  27 H :    0.048968
  28 C :   -0.043855
  29 H :    0.014961
  30 H :    0.050598
  31 H :    0.029430
  32 H :    0.053170
  33 H :    0.058735
Sum of atomic charges:   -0.0000000

LOEWDIN ATOMIC CHARGES
----------------------
   0 S :    0.451171
   1 C :   -0.211101
   2 C :   -0.063570
   3 C :   -0.058053
   4 C :   -0.207160
   5 H :    0.033006
   6 C :   -0.047986
   7 H :    0.027512
   8 H :    0.034980
   9 C :   -0.049432
  10 H :    0.028151
  11 H :    0.026203
  12 C :   -0.066349
  13 H :    0.023364
  14 H :    0.035012
  15 H :    0.020858
  16 S :    0.425962
  17 C :   -0.194426
  18 C :   -0.079563
  19 C :   -0.057394
  20 C :   -0.230950
  21 H :    0.033599
  22 C :   -0.029563
  23 H :    0.023567
  24 H :    0.043313
  25 C :   -0.042223
  26 H :    0.027514
  27 H :    0.027506
  28 C :   -0.069137
  29 H :    0.019938
  30 H :    0.038941
  31 H :    0.022511
  32 H :    0.028983
  33 H :    0.034817

  Mayer bond orders larger than 0.100000
B(  0-S ,  1-C ) :   1.1880 B(  0-S ,  4-C ) :   1.1861 B(  1-C ,  2-C ) :   1.5263
B(  1-C ,  4-C ) :   0.1228 B(  1-C , 32-H ) :   0.9720 B(  2-C ,  3-C ) :   1.2997
B(  2-C ,  6-C ) :   1.0161 B(  3-C ,  4-C ) :   1.5311 B(  3-C ,  5-H ) :   0.9961
B(  4-C , 20-C ) :   0.9977 B(  6-C ,  7-H ) :   0.9465 B(  6-C ,  8-H ) :   0.9422
B(  6-C ,  9-C ) :   1.0438 B(  9-C , 10-H ) :   0.9576 B(  9-C , 11-H ) :   0.9531
B(  9-C , 12-C ) :   1.0848 B( 12-C , 13-H ) :   0.9727 B( 12-C , 14-H ) :   0.9711
B( 12-C , 15-H ) :   0.9682 B( 16-S , 17-C ) :   1.1435 B( 16-S , 20-C ) :   1.1646
B( 17-C , 18-C ) :   1.6217 B( 17-C , 33-H ) :   0.9688 B( 18-C , 19-C ) :   1.2228
B( 18-C , 21-H ) :   0.9825 B( 19-C , 20-C ) :   1.6065 B( 19-C , 22-C ) :   1.0266
B( 22-C , 23-H ) :   0.9319 B( 22-C , 24-H ) :   0.9260 B( 22-C , 25-C ) :   1.0810
B( 25-C , 26-H ) :   0.9544 B( 25-C , 27-H ) :   0.9516 B( 25-C , 28-C ) :   1.0791
B( 28-C , 29-H ) :   0.9732 B( 28-C , 30-H ) :   0.9719 B( 28-C , 31-H ) :   0.9698

Dispersion correction           -0.015230170
FINAL SINGLE POINT ENERGY     -1339.867229218715

DIPOLE MOMENT
-------------
                                X             Y             Z
Electronic contribution:      8.17739     -18.57586     -17.69016
Nuclear contribution   :     -8.36928      19.10434      17.89424
                        -----------------------------------------
Total Dipole Moment    :     -0.19189       0.52847       0.20408
                        -----------------------------------------
Magnitude (a.u.)       :      0.59812
Magnitude (Debye)      :      1.52031

Rotational constants in cm-1:     0.022581     0.007985     0.007008
Rotational constants in MHz :   676.975574   239.393206   210.103477

                             ****ORCA TERMINATED NORMALLY****
TOTAL RUN TIME: 0 days 0 hours 0 minutes 20 seconds 927 msec
