                         Program Version 4.2.1 -  RELEASE  -
|  1> ! wB97X-D3 SP def2-SVP
|  2> %pal
|  3> nprocs 24
|  4> end
|  5>
|  6> * xyz 0 1
|  7> S 	 -87.2426 	 -6.32767 	 -114.011
|  8> C 	 -88.3486 	 -7.64234 	 -114.111
|  9> C 	 -89.6502 	 -7.27462 	 -114.002
| 10> C 	 -89.7926 	 -5.84683 	 -114.067
| 11> C 	 -88.5503 	 -5.1688 	 -114.234
| 12> H 	 -90.7306 	 -5.20663 	 -113.977
| 13> C 	 -90.9092 	 -8.21574 	 -114.073
| 14> H 	 -90.6286 	 -9.16696 	 -113.687
| 15> H 	 -91.0087 	 -8.57898 	 -115.044
| 16> C 	 -92.2099 	 -7.79212 	 -113.472
| 17> H 	 -92.6234 	 -6.97548 	 -114.042
| 18> H 	 -92.8752 	 -8.61606 	 -113.562
| 19> C 	 -92.2411 	 -7.3509 	 -111.926
| 20> H 	 -93.241 	 -7.02542 	 -111.629
| 21> H 	 -92.0102 	 -8.15048 	 -111.253
| 22> H 	 -91.532 	 -6.64783 	 -111.687
| 23> S 	 -88.1205 	 -2.98643 	 -115.888
| 24> C 	 -88.2955 	 -1.35738 	 -115.321
| 25> C 	 -88.425 	 -1.36807 	 -113.959
| 26> C 	 -88.6268 	 -2.6834 	 -113.376
| 27> C 	 -88.3984 	 -3.68279 	 -114.336
| 28> H 	 -88.587 	 -0.393934 	 -113.447
| 29> C 	 -88.7344 	 -2.89318 	 -111.88
| 30> H 	 -89.1134 	 -3.91552 	 -111.798
| 31> H 	 -89.625 	 -2.3066 	 -111.541
| 32> C 	 -87.5036 	 -2.73141 	 -110.977
| 33> H 	 -86.8604 	 -3.60281 	 -111.233
| 34> H 	 -87.8568 	 -2.71462 	 -109.971
| 35> C 	 -86.7354 	 -1.45625 	 -111.103
| 36> H 	 -86.7844 	 -0.968841 	 -111.979
| 37> H 	 -85.7558 	 -1.47832 	 -110.809
| 38> H 	 -87.2572 	 -0.783954 	 -110.445
| 39> H 	 -88.0374 	 -8.65678 	 -113.957
| 40> H 	 -88.4137 	 -0.498426 	 -116.005
| 41> *
| 42>
| 43>                          ****END OF INPUT****

CARTESIAN COORDINATES (ANGSTROEM)
---------------------------------
  S    -87.242600   -6.327670  -114.011000
  C    -88.348600   -7.642340  -114.111000
  C    -89.650200   -7.274620  -114.002000
  C    -89.792600   -5.846830  -114.067000
  C    -88.550300   -5.168800  -114.234000
  H    -90.730600   -5.206630  -113.977000
  C    -90.909200   -8.215740  -114.073000
  H    -90.628600   -9.166960  -113.687000
  H    -91.008700   -8.578980  -115.044000
  C    -92.209900   -7.792120  -113.472000
  H    -92.623400   -6.975480  -114.042000
  H    -92.875200   -8.616060  -113.562000
  C    -92.241100   -7.350900  -111.926000
  H    -93.241000   -7.025420  -111.629000
  H    -92.010200   -8.150480  -111.253000
  H    -91.532000   -6.647830  -111.687000
  S    -88.120500   -2.986430  -115.888000
  C    -88.295500   -1.357380  -115.321000
  C    -88.425000   -1.368070  -113.959000
  C    -88.626800   -2.683400  -113.376000
  C    -88.398400   -3.682790  -114.336000
  H    -88.587000   -0.393934  -113.447000
  C    -88.734400   -2.893180  -111.880000
  H    -89.113400   -3.915520  -111.798000
  H    -89.625000   -2.306600  -111.541000
  C    -87.503600   -2.731410  -110.977000
  H    -86.860400   -3.602810  -111.233000
  H    -87.856800   -2.714620  -109.971000
  C    -86.735400   -1.456250  -111.103000
  H    -86.784400   -0.968841  -111.979000
  H    -85.755800   -1.478320  -110.809000
  H    -87.257200   -0.783954  -110.445000
  H    -88.037400   -8.656780  -113.957000
  H    -88.413700   -0.498426  -116.005000

 Total Charge           Charge          ....    0
 Multiplicity           Mult            ....    1
 Number of Electrons    NEL             ....  134
 Basis Dimension        Dim             ....  322

ORBITAL ENERGIES
----------------

  NO   OCC          E(Eh)            E(eV)
   0   2.0000     -88.968014     -2420.9427
   1   2.0000     -88.961911     -2420.7767
   2   2.0000     -10.334689      -281.2212
   3   2.0000     -10.328343      -281.0485
   4   2.0000     -10.317217      -280.7458
   5   2.0000     -10.309072      -280.5241
   6   2.0000     -10.305468      -280.4260
   7   2.0000     -10.304076      -280.3882
   8   2.0000     -10.303802      -280.3807
   9   2.0000     -10.295364      -280.1511
  10   2.0000     -10.289386      -279.9884
  11   2.0000     -10.288582      -279.9665
  12   2.0000     -10.287868      -279.9471
  13   2.0000     -10.281909      -279.7850
  14   2.0000     -10.273235      -279.5489
  15   2.0000     -10.251330      -278.9529
  16   2.0000      -8.082841      -219.9453
  17   2.0000      -8.077582      -219.8022
  18   2.0000      -6.041281      -164.3916
  19   2.0000      -6.037393      -164.2858
  20   2.0000      -6.036028      -164.2487
  21   2.0000      -6.033619      -164.1831
  22   2.0000      -6.031772      -164.1329
  23   2.0000      -6.028533      -164.0447
  24   2.0000      -1.004507       -27.3340
  25   2.0000      -0.986713       -26.8498
  26   2.0000      -0.910399       -24.7732
  27   2.0000      -0.908802       -24.7298
  28   2.0000      -0.866773       -23.5861
  29   2.0000      -0.849877       -23.1263
  30   2.0000      -0.841714       -22.9042
  31   2.0000      -0.814199       -22.1555
  32   2.0000      -0.793479       -21.5917
  33   2.0000      -0.779712       -21.2171
  34   2.0000      -0.712262       -19.3816
  35   2.0000      -0.701320       -19.0839
  36   2.0000      -0.687957       -18.7203
  37   2.0000      -0.653876       -17.7929
  38   2.0000      -0.638899       -17.3853
  39   2.0000      -0.618139       -16.8204
  40   2.0000      -0.588674       -16.0186
  41   2.0000      -0.569736       -15.5033
  42   2.0000      -0.563997       -15.3471
  43   2.0000      -0.549265       -14.9463
  44   2.0000      -0.544106       -14.8059
  45   2.0000      -0.539466       -14.6796
  46   2.0000      -0.517667       -14.0864
  47   2.0000      -0.506649       -13.7866
  48   2.0000      -0.499391       -13.5891
  49   2.0000      -0.492248       -13.3948
  50   2.0000      -0.489605       -13.3228
  51   2.0000      -0.480769       -13.0824
  52   2.0000      -0.477666       -12.9980
  53   2.0000      -0.464383       -12.6365
  54   2.0000      -0.461803       -12.5663
  55   2.0000      -0.451171       -12.2770
  56   2.0000      -0.439930       -11.9711
  57   2.0000      -0.436759       -11.8848
  58   2.0000      -0.431723       -11.7478
  59   2.0000      -0.422867       -11.5068
  60   2.0000      -0.421129       -11.4595
  61   2.0000      -0.416353       -11.3295
  62   2.0000      -0.409256       -11.1364
  63   2.0000      -0.335110        -9.1188
  64   2.0000      -0.329927        -8.9778
  65   2.0000      -0.323204        -8.7948
  66   2.0000      -0.307511        -8.3678
  67   0.0000       0.042650         1.1606
  68   0.0000       0.054199         1.4748
  69   0.0000       0.111598         3.0367
  70   0.0000       0.123233         3.3533
  71   0.0000       0.133531         3.6336

MULLIKEN ATOMIC CHARGES
-----------------------
   0 S :    0.123386
   1 C :   -0.113916
   2 C :   -0.084532
   3 C :    0.011583
   4 C :   -0.185601
   5 H :    0.047924
   6 C :    0.122519
   7 H :   -0.013053
   8 H :    0.020215
   9 C :   -0.064253
  10 H :    0.031703
  11 H :    0.024716
  12 C :   -0.030860
  13 H :    0.032735
  14 H :    0.018061
  15 H :    0.017441
  16 S :    0.111970
  17 C :   -0.118058
  18 C :   -0.039450
  19 C :   -0.058894
  20 C :   -0.170182
  21 H :    0.037763
  22 C :    0.044073
  23 H :    0.020349
  24 H :    0.023658
  25 C :   -0.029339
  26 H :    0.035346
  27 H :    0.027314
  28 C :    0.033710
  29 H :   -0.007848
  30 H :    0.014659
  31 H :    0.000039
  32 H :    0.041731
  33 H :    0.075092
Sum of atomic charges:   -0.0000000

LOEWDIN ATOMIC CHARGES
----------------------
   0 S :    0.417090
   1 C :   -0.202898
   2 C :   -0.064599
   3 C :   -0.063756
   4 C :   -0.203369
   5 H :    0.044505
   6 C :   -0.029552
   7 H :    0.025290
   8 H :    0.031934
   9 C :   -0.032657
  10 H :    0.022026
  11 H :    0.026489
  12 C :   -0.057245
  13 H :    0.028878
  14 H :    0.022639
  15 H :    0.011966
  16 S :    0.426457
  17 C :   -0.196856
  18 C :   -0.082589
  19 C :   -0.057706
  20 C :   -0.214918
  21 H :    0.036065
  22 C :   -0.040750
  23 H :    0.032295
  24 H :    0.031131
  25 C :   -0.029484
  26 H :    0.029322
  27 H :    0.026447
  28 C :   -0.053040
  29 H :    0.008005
  30 H :    0.018891
  31 H :    0.026608
  32 H :    0.024751
  33 H :    0.038631

  Mayer bond orders larger than 0.100000
B(  0-S ,  1-C ) :   1.1517 B(  0-S ,  4-C ) :   1.1604 B(  1-C ,  2-C ) :   1.6230
B(  1-C , 32-H ) :   0.9649 B(  2-C ,  3-C ) :   1.2432 B(  2-C ,  6-C ) :   0.9979
B(  3-C ,  4-C ) :   1.5725 B(  3-C ,  5-H ) :   0.9814 B(  4-C , 20-C ) :   1.0037
B(  6-C ,  7-H ) :   0.9236 B(  6-C ,  8-H ) :   0.9324 B(  6-C ,  9-C ) :   1.0893
B(  9-C , 10-H ) :   0.9526 B(  9-C , 11-H ) :   0.9508 B(  9-C , 12-C ) :   1.0705
B( 12-C , 13-H ) :   0.9771 B( 12-C , 14-H ) :   0.9751 B( 12-C , 15-H ) :   0.9787
B( 16-S , 17-C ) :   1.1667 B( 16-S , 20-C ) :   1.1670 B( 17-C , 18-C ) :   1.5997
B( 17-C , 33-H ) :   0.9652 B( 18-C , 19-C ) :   1.2427 B( 18-C , 21-H ) :   0.9750
B( 19-C , 20-C ) :   1.5778 B( 19-C , 22-C ) :   1.0539 B( 22-C , 23-H ) :   0.9256
B( 22-C , 24-H ) :   0.9294 B( 22-C , 25-C ) :   1.0735 B( 25-C , 26-H ) :   0.9542
B( 25-C , 27-H ) :   0.9581 B( 25-C , 28-C ) :   1.0809 B( 28-C , 29-H ) :   0.9685
B( 28-C , 30-H ) :   0.9676 B( 28-C , 31-H ) :   0.9710

Dispersion correction           -0.014843443
FINAL SINGLE POINT ENERGY     -1339.849719089327

DIPOLE MOMENT
-------------
                                X             Y             Z
Electronic contribution:     12.81203       1.34781     -18.94461
Nuclear contribution   :    -13.32678      -1.40564      19.32403
                        -----------------------------------------
Total Dipole Moment    :     -0.51475      -0.05783       0.37942
                        -----------------------------------------
Magnitude (a.u.)       :      0.64208
Magnitude (Debye)      :      1.63205

Rotational constants in cm-1:     0.019200     0.008132     0.007429
Rotational constants in MHz :   575.606161   243.790128   222.729780

                             ****ORCA TERMINATED NORMALLY****
TOTAL RUN TIME: 0 days 0 hours 0 minutes 21 seconds 782 msec
