                         Program Version 4.2.1 -  RELEASE  -
|  1> ! wB97X-D3 SP def2-SVP
|  2> %pal
|  3> nprocs 24
|  4> end
|  5>
|  6> * xyz 0 1
|  7> S 	 -54.0066 	 2.20228 	 -31.3631
|  8> C 	 -53.4173 	 0.690057 	 -31.7799
|  9> C 	 -53.4725 	 0.524968 	 -33.1583
| 10> C 	 -54.0213 	 1.6561 	 -33.8459
| 11> C 	 -54.1524 	 2.6933 	 -32.9942
| 12> H 	 -54.1591 	 1.72722 	 -34.9147
| 13> C 	 -53.2685 	 -0.770551 	 -33.8251
| 14> H 	 -54.173 	 -0.806916 	 -34.4748
| 15> H 	 -53.1253 	 -1.55715 	 -33.0671
| 16> C 	 -52.0828 	 -0.699582 	 -34.7451
| 17> H 	 -52.06 	 -1.54912 	 -35.394
| 18> H 	 -52.2008 	 0.19151 	 -35.3096
| 19> C 	 -50.6959 	 -0.613406 	 -34.1496
| 20> H 	 -49.9324 	 -0.549759 	 -35.0086
| 21> H 	 -50.571 	 0.291886 	 -33.5211
| 22> H 	 -50.2421 	 -1.5026 	 -33.574
| 23> S 	 -55.9644 	 4.73849 	 -32.7546
| 24> C 	 -55.734 	 6.21611 	 -33.6488
| 25> C 	 -54.6445 	 6.15659 	 -34.4586
| 26> C 	 -53.8803 	 4.97258 	 -34.1797
| 27> C 	 -54.4556 	 4.06711 	 -33.3188
| 28> H 	 -54.2464 	 6.94369 	 -35.0952
| 29> C 	 -52.5616 	 4.79718 	 -34.8358
| 30> H 	 -52.7292 	 4.59913 	 -35.8601
| 31> H 	 -52.1541 	 3.93524 	 -34.4281
| 32> C 	 -51.4975 	 5.96563 	 -34.616
| 33> H 	 -51.4037 	 6.16969 	 -33.5459
| 34> H 	 -51.9148 	 6.82733 	 -35.0802
| 35> C 	 -50.2101 	 5.53053 	 -35.2073
| 36> H 	 -49.7849 	 4.65052 	 -34.7449
| 37> H 	 -49.4376 	 6.37938 	 -35.141
| 38> H 	 -50.4148 	 5.34221 	 -36.2715
| 39> H 	 -53.1366 	 -0.234827 	 -31.2233
| 40> H 	 -56.1813 	 7.15719 	 -33.3362
| 41> *
| 42>
| 43>                          ****END OF INPUT****

CARTESIAN COORDINATES (ANGSTROEM)
---------------------------------
  S    -54.006600    2.202280  -31.363100
  C    -53.417300    0.690057  -31.779900
  C    -53.472500    0.524968  -33.158300
  C    -54.021300    1.656100  -33.845900
  C    -54.152400    2.693300  -32.994200
  H    -54.159100    1.727220  -34.914700
  C    -53.268500   -0.770551  -33.825100
  H    -54.173000   -0.806916  -34.474800
  H    -53.125300   -1.557150  -33.067100
  C    -52.082800   -0.699582  -34.745100
  H    -52.060000   -1.549120  -35.394000
  H    -52.200800    0.191510  -35.309600
  C    -50.695900   -0.613406  -34.149600
  H    -49.932400   -0.549759  -35.008600
  H    -50.571000    0.291886  -33.521100
  H    -50.242100   -1.502600  -33.574000
  S    -55.964400    4.738490  -32.754600
  C    -55.734000    6.216110  -33.648800
  C    -54.644500    6.156590  -34.458600
  C    -53.880300    4.972580  -34.179700
  C    -54.455600    4.067110  -33.318800
  H    -54.246400    6.943690  -35.095200
  C    -52.561600    4.797180  -34.835800
  H    -52.729200    4.599130  -35.860100
  H    -52.154100    3.935240  -34.428100
  C    -51.497500    5.965630  -34.616000
  H    -51.403700    6.169690  -33.545900
  H    -51.914800    6.827330  -35.080200
  C    -50.210100    5.530530  -35.207300
  H    -49.784900    4.650520  -34.744900
  H    -49.437600    6.379380  -35.141000
  H    -50.414800    5.342210  -36.271500
  H    -53.136600   -0.234827  -31.223300
  H    -56.181300    7.157190  -33.336200

 Total Charge           Charge          ....    0
 Multiplicity           Mult            ....    1
 Number of Electrons    NEL             ....  134
 Basis Dimension        Dim             ....  322

ORBITAL ENERGIES
----------------

  NO   OCC          E(Eh)            E(eV)
   0   2.0000     -88.965877     -2420.8846
   1   2.0000     -88.958749     -2420.6906
   2   2.0000     -10.322809      -280.8979
   3   2.0000     -10.320331      -280.8305
   4   2.0000     -10.315415      -280.6967
   5   2.0000     -10.309703      -280.5413
   6   2.0000     -10.296764      -280.1892
   7   2.0000     -10.292836      -280.0823
   8   2.0000     -10.292124      -280.0629
   9   2.0000     -10.292010      -280.0598
  10   2.0000     -10.289344      -279.9873
  11   2.0000     -10.287464      -279.9361
  12   2.0000     -10.283921      -279.8397
  13   2.0000     -10.281114      -279.7633
  14   2.0000     -10.278788      -279.7000
  15   2.0000     -10.276748      -279.6445
  16   2.0000      -8.082617      -219.9392
  17   2.0000      -8.074278      -219.7123
  18   2.0000      -6.041003      -164.3841
  19   2.0000      -6.036790      -164.2694
  20   2.0000      -6.033418      -164.1777
  21   2.0000      -6.032859      -164.1624
  22   2.0000      -6.028590      -164.0463
  23   2.0000      -6.025000      -163.9486
  24   2.0000      -1.020717       -27.7751
  25   2.0000      -0.993701       -27.0400
  26   2.0000      -0.925094       -25.1731
  27   2.0000      -0.912021       -24.8174
  28   2.0000      -0.876330       -23.8462
  29   2.0000      -0.855819       -23.2880
  30   2.0000      -0.850474       -23.1426
  31   2.0000      -0.821497       -22.3541
  32   2.0000      -0.780471       -21.2377
  33   2.0000      -0.766930       -20.8692
  34   2.0000      -0.709280       -19.3005
  35   2.0000      -0.702072       -19.1044
  36   2.0000      -0.689102       -18.7514
  37   2.0000      -0.661504       -18.0005
  38   2.0000      -0.640591       -17.4314
  39   2.0000      -0.627805       -17.0834
  40   2.0000      -0.597951       -16.2711
  41   2.0000      -0.574174       -15.6241
  42   2.0000      -0.572067       -15.5667
  43   2.0000      -0.554959       -15.1012
  44   2.0000      -0.548930       -14.9372
  45   2.0000      -0.524980       -14.2854
  46   2.0000      -0.518645       -14.1131
  47   2.0000      -0.515897       -14.0383
  48   2.0000      -0.509464       -13.8632
  49   2.0000      -0.499106       -13.5814
  50   2.0000      -0.490517       -13.3477
  51   2.0000      -0.483127       -13.1465
  52   2.0000      -0.475068       -12.9272
  53   2.0000      -0.469627       -12.7792
  54   2.0000      -0.461190       -12.5496
  55   2.0000      -0.446257       -12.1433
  56   2.0000      -0.444881       -12.1058
  57   2.0000      -0.440359       -11.9828
  58   2.0000      -0.430202       -11.7064
  59   2.0000      -0.426250       -11.5988
  60   2.0000      -0.419676       -11.4200
  61   2.0000      -0.411358       -11.1936
  62   2.0000      -0.409866       -11.1530
  63   2.0000      -0.344660        -9.3787
  64   2.0000      -0.330105        -8.9826
  65   2.0000      -0.323346        -8.7987
  66   2.0000      -0.299051        -8.1376
  67   0.0000       0.034455         0.9376
  68   0.0000       0.073836         2.0092
  69   0.0000       0.111112         3.0235
  70   0.0000       0.122422         3.3313
  71   0.0000       0.131391         3.5753

MULLIKEN ATOMIC CHARGES
-----------------------
   0 S :    0.138206
   1 C :   -0.093764
   2 C :   -0.177530
   3 C :    0.051222
   4 C :   -0.170078
   5 H :    0.017091
   6 C :    0.100056
   7 H :    0.040042
   8 H :    0.017601
   9 C :   -0.029541
  10 H :    0.021951
  11 H :    0.011614
  12 C :   -0.120296
  13 H :    0.038240
  14 H :    0.045207
  15 H :    0.039430
  16 S :    0.088410
  17 C :   -0.085840
  18 C :   -0.020987
  19 C :   -0.079956
  20 C :   -0.128001
  21 H :    0.024966
  22 C :    0.083953
  23 H :    0.019107
  24 H :   -0.003537
  25 C :   -0.063529
  26 H :    0.035845
  27 H :    0.017542
  28 C :   -0.049378
  29 H :    0.037829
  30 H :    0.043358
  31 H :    0.027398
  32 H :    0.053924
  33 H :    0.069445
Sum of atomic charges:    0.0000000

LOEWDIN ATOMIC CHARGES
----------------------
   0 S :    0.455780
   1 C :   -0.237081
   2 C :   -0.070212
   3 C :   -0.057046
   4 C :   -0.208033
   5 H :    0.033310
   6 C :   -0.032095
   7 H :    0.044685
   8 H :    0.028856
   9 C :   -0.043558
  10 H :    0.020662
  11 H :    0.021584
  12 C :   -0.082449
  13 H :    0.034229
  14 H :    0.025224
  15 H :    0.029001
  16 S :    0.399135
  17 C :   -0.182004
  18 C :   -0.070589
  19 C :   -0.055046
  20 C :   -0.208470
  21 H :    0.033353
  22 C :   -0.026706
  23 H :    0.025653
  24 H :    0.017790
  25 C :   -0.032099
  26 H :    0.026918
  27 H :    0.014734
  28 C :   -0.067406
  29 H :    0.024892
  30 H :    0.033767
  31 H :    0.026775
  32 H :    0.043151
  33 H :    0.033298

  Mayer bond orders larger than 0.100000
B(  0-S ,  1-C ) :   1.1421 B(  0-S ,  4-C ) :   1.1769 B(  1-C ,  2-C ) :   1.5991
B(  1-C , 32-H ) :   0.9608 B(  2-C ,  3-C ) :   1.2382 B(  2-C ,  6-C ) :   1.0293
B(  3-C ,  4-C ) :   1.5699 B(  3-C ,  5-H ) :   0.9959 B(  4-C , 20-C ) :   0.9983
B(  6-C ,  7-H ) :   0.9316 B(  6-C ,  8-H ) :   0.9413 B(  6-C ,  9-C ) :   1.0744
B(  9-C , 10-H ) :   0.9535 B(  9-C , 11-H ) :   0.9502 B(  9-C , 12-C ) :   1.0784
B( 12-C , 13-H ) :   0.9715 B( 12-C , 14-H ) :   0.9722 B( 12-C , 15-H ) :   0.9737
B( 16-S , 17-C ) :   1.1629 B( 16-S , 20-C ) :   1.1246 B( 17-C , 18-C ) :   1.5972
B( 17-C , 33-H ) :   0.9613 B( 18-C , 19-C ) :   1.2433 B( 18-C , 21-H ) :   0.9879
B( 19-C , 20-C ) :   1.6211 B( 19-C , 22-C ) :   1.0578 B( 22-C , 23-H ) :   0.9242
B( 22-C , 24-H ) :   0.9307 B( 22-C , 25-C ) :   1.0566 B( 25-C , 26-H ) :   0.9555
B( 25-C , 27-H ) :   0.9524 B( 25-C , 28-C ) :   1.0967 B( 28-C , 29-H ) :   0.9741
B( 28-C , 30-H ) :   0.9710 B( 28-C , 31-H ) :   0.9696

Dispersion correction           -0.014229407
FINAL SINGLE POINT ENERGY     -1339.864935319603

DIPOLE MOMENT
-------------
                                X             Y             Z
Electronic contribution:    -23.97548       6.51444      15.93313
Nuclear contribution   :     24.40395      -6.60752     -16.43058
                        -----------------------------------------
Total Dipole Moment    :      0.42847      -0.09307      -0.49745
                        -----------------------------------------
Magnitude (a.u.)       :      0.66310
Magnitude (Debye)      :      1.68547

Rotational constants in cm-1:     0.017485     0.009636     0.007034
Rotational constants in MHz :   524.199571   288.882599   210.888270

                             ****ORCA TERMINATED NORMALLY****
TOTAL RUN TIME: 0 days 0 hours 0 minutes 22 seconds 81 msec
