                         Program Version 4.2.1 -  RELEASE  -
|  1> ! wB97X-D3 SP def2-SVP
|  2> %pal
|  3> nprocs 24
|  4> end
|  5>
|  6> * xyz 0 1
|  7> S 	 -71.5269 	 8.57551 	 15.8289
|  8> C 	 -70.1997 	 9.51126 	 16.3855
|  9> C 	 -69.2666 	 8.78337 	 17.1155
| 10> C 	 -69.682 	 7.42714 	 17.166
| 11> C 	 -70.7323 	 7.11583 	 16.3648
| 12> H 	 -69.1311 	 6.67825 	 17.598
| 13> C 	 -68.0223 	 9.30783 	 17.8004
| 14> H 	 -68.1071 	 9.0155 	 18.8571
| 15> H 	 -68.0911 	 10.3638 	 17.6997
| 16> C 	 -66.7153 	 8.86775 	 17.1817
| 17> H 	 -65.9709 	 9.22591 	 17.8577
| 18> H 	 -66.603 	 7.82144 	 17.0747
| 19> C 	 -66.537 	 9.48188 	 15.7269
| 20> H 	 -67.2074 	 8.89252 	 15.0568
| 21> H 	 -66.9665 	 10.5268 	 15.7792
| 22> H 	 -65.5163 	 9.49233 	 15.3834
| 23> S 	 -73.1904 	 5.85241 	 16.4947
| 24> C 	 -73.2393 	 4.14847 	 16.1059
| 25> C 	 -71.9878 	 3.58763 	 15.9789
| 26> C 	 -70.9386 	 4.53643 	 16.0528
| 27> C 	 -71.4184 	 5.8431 	 16.2694
| 28> H 	 -71.7992 	 2.52812 	 15.8615
| 29> C 	 -69.4741 	 4.10623 	 15.791
| 30> H 	 -68.8668 	 4.87415 	 15.3673
| 31> H 	 -69.5281 	 3.43623 	 14.9332
| 32> C 	 -68.7564 	 3.56841 	 16.9878
| 33> H 	 -69.1716 	 2.58244 	 17.2596
| 34> H 	 -69.0516 	 4.16279 	 17.8205
| 35> C 	 -67.1693 	 3.3943 	 16.7696
| 36> H 	 -66.5991 	 4.35357 	 16.6792
| 37> H 	 -67.0157 	 2.84333 	 15.8663
| 38> H 	 -66.7147 	 2.85738 	 17.6722
| 39> H 	 -70.1195 	 10.5392 	 16.1576
| 40> H 	 -74.0962 	 3.52476 	 16.1514
| 41> *
| 42>
| 43>                          ****END OF INPUT****

CARTESIAN COORDINATES (ANGSTROEM)
---------------------------------
  S    -71.526900    8.575510   15.828900
  C    -70.199700    9.511260   16.385500
  C    -69.266600    8.783370   17.115500
  C    -69.682000    7.427140   17.166000
  C    -70.732300    7.115830   16.364800
  H    -69.131100    6.678250   17.598000
  C    -68.022300    9.307830   17.800400
  H    -68.107100    9.015500   18.857100
  H    -68.091100   10.363800   17.699700
  C    -66.715300    8.867750   17.181700
  H    -65.970900    9.225910   17.857700
  H    -66.603000    7.821440   17.074700
  C    -66.537000    9.481880   15.726900
  H    -67.207400    8.892520   15.056800
  H    -66.966500   10.526800   15.779200
  H    -65.516300    9.492330   15.383400
  S    -73.190400    5.852410   16.494700
  C    -73.239300    4.148470   16.105900
  C    -71.987800    3.587630   15.978900
  C    -70.938600    4.536430   16.052800
  C    -71.418400    5.843100   16.269400
  H    -71.799200    2.528120   15.861500
  C    -69.474100    4.106230   15.791000
  H    -68.866800    4.874150   15.367300
  H    -69.528100    3.436230   14.933200
  C    -68.756400    3.568410   16.987800
  H    -69.171600    2.582440   17.259600
  H    -69.051600    4.162790   17.820500
  C    -67.169300    3.394300   16.769600
  H    -66.599100    4.353570   16.679200
  H    -67.015700    2.843330   15.866300
  H    -66.714700    2.857380   17.672200
  H    -70.119500   10.539200   16.157600
  H    -74.096200    3.524760   16.151400

 Total Charge           Charge          ....    0
 Multiplicity           Mult            ....    1
 Number of Electrons    NEL             ....  134
 Basis Dimension        Dim             ....  322

ORBITAL ENERGIES
----------------

  NO   OCC          E(Eh)            E(eV)
   0   2.0000     -88.968015     -2420.9428
   1   2.0000     -88.964218     -2420.8394
   2   2.0000     -10.329529      -281.0808
   3   2.0000     -10.323271      -280.9105
   4   2.0000     -10.313475      -280.6439
   5   2.0000     -10.308819      -280.5172
   6   2.0000     -10.304188      -280.3912
   7   2.0000     -10.298392      -280.2335
   8   2.0000     -10.293130      -280.0903
   9   2.0000     -10.291751      -280.0528
  10   2.0000     -10.291140      -280.0362
  11   2.0000     -10.289649      -279.9956
  12   2.0000     -10.288759      -279.9714
  13   2.0000     -10.285214      -279.8749
  14   2.0000     -10.283859      -279.8380
  15   2.0000     -10.283088      -279.8171
  16   2.0000      -8.082103      -219.9252
  17   2.0000      -8.079919      -219.8658
  18   2.0000      -6.040628      -164.3738
  19   2.0000      -6.038323      -164.3111
  20   2.0000      -6.036845      -164.2709
  21   2.0000      -6.034411      -164.2047
  22   2.0000      -6.032742      -164.1593
  23   2.0000      -6.030612      -164.1013
  24   2.0000      -1.009829       -27.4788
  25   2.0000      -0.983874       -26.7726
  26   2.0000      -0.916233       -24.9320
  27   2.0000      -0.907906       -24.7054
  28   2.0000      -0.868718       -23.6390
  29   2.0000      -0.851174       -23.1616
  30   2.0000      -0.842685       -22.9306
  31   2.0000      -0.811554       -22.0835
  32   2.0000      -0.782679       -21.2978
  33   2.0000      -0.772270       -21.0145
  34   2.0000      -0.712137       -19.3782
  35   2.0000      -0.703751       -19.1500
  36   2.0000      -0.695656       -18.9298
  37   2.0000      -0.662442       -18.0260
  38   2.0000      -0.647070       -17.6077
  39   2.0000      -0.627737       -17.0816
  40   2.0000      -0.599567       -16.3150
  41   2.0000      -0.568219       -15.4620
  42   2.0000      -0.559988       -15.2381
  43   2.0000      -0.554018       -15.0756
  44   2.0000      -0.541575       -14.7370
  45   2.0000      -0.524186       -14.2638
  46   2.0000      -0.514991       -14.0136
  47   2.0000      -0.512985       -13.9590
  48   2.0000      -0.499999       -13.6057
  49   2.0000      -0.492512       -13.4019
  50   2.0000      -0.486704       -13.2439
  51   2.0000      -0.482171       -13.1206
  52   2.0000      -0.471552       -12.8316
  53   2.0000      -0.464413       -12.6373
  54   2.0000      -0.460508       -12.5311
  55   2.0000      -0.452828       -12.3221
  56   2.0000      -0.448230       -12.1970
  57   2.0000      -0.445097       -12.1117
  58   2.0000      -0.439897       -11.9702
  59   2.0000      -0.426544       -11.6069
  60   2.0000      -0.422970       -11.5096
  61   2.0000      -0.418037       -11.3754
  62   2.0000      -0.411634       -11.2011
  63   2.0000      -0.352827        -9.6009
  64   2.0000      -0.334730        -9.1085
  65   2.0000      -0.330116        -8.9829
  66   2.0000      -0.285795        -7.7769
  67   0.0000       0.027005         0.7348
  68   0.0000       0.071349         1.9415
  69   0.0000       0.104798         2.8517
  70   0.0000       0.121519         3.3067
  71   0.0000       0.129663         3.5283

MULLIKEN ATOMIC CHARGES
-----------------------
   0 S :    0.104803
   1 C :   -0.110845
   2 C :   -0.110030
   3 C :    0.062070
   4 C :   -0.134640
   5 H :   -0.035310
   6 C :    0.089028
   7 H :    0.042981
   8 H :    0.007935
   9 C :   -0.045412
  10 H :    0.026838
  11 H :    0.025194
  12 C :   -0.087577
  13 H :    0.053216
  14 H :    0.028578
  15 H :    0.045448
  16 S :    0.106443
  17 C :   -0.069048
  18 C :   -0.031773
  19 C :   -0.052562
  20 C :   -0.153271
  21 H :    0.018130
  22 C :    0.070314
  23 H :    0.010562
  24 H :    0.021067
  25 C :   -0.054049
  26 H :    0.020480
  27 H :    0.026001
  28 C :   -0.080670
  29 H :    0.043649
  30 H :    0.036905
  31 H :    0.051491
  32 H :    0.030122
  33 H :    0.043931
Sum of atomic charges:   -0.0000000

LOEWDIN ATOMIC CHARGES
----------------------
   0 S :    0.415411
   1 C :   -0.198074
   2 C :   -0.060891
   3 C :   -0.049918
   4 C :   -0.191854
   5 H :    0.014416
   6 C :   -0.027029
   7 H :    0.038381
   8 H :    0.024856
   9 C :   -0.033772
  10 H :    0.021338
  11 H :    0.016404
  12 C :   -0.065189
  13 H :    0.032469
  14 H :    0.026211
  15 H :    0.023160
  16 S :    0.391804
  17 C :   -0.182370
  18 C :   -0.068583
  19 C :   -0.055066
  20 C :   -0.182866
  21 H :    0.032141
  22 C :   -0.034699
  23 H :    0.025237
  24 H :    0.029900
  25 C :   -0.039485
  26 H :    0.024533
  27 H :    0.018466
  28 C :   -0.070178
  29 H :    0.027646
  30 H :    0.021809
  31 H :    0.036530
  32 H :    0.016299
  33 H :    0.022962

  Mayer bond orders larger than 0.100000
B(  0-S ,  1-C ) :   1.1546 B(  0-S ,  4-C ) :   1.1425 B(  1-C ,  2-C ) :   1.5919
B(  1-C , 32-H ) :   0.9703 B(  2-C ,  3-C ) :   1.2488 B(  2-C ,  6-C ) :   1.0215
B(  3-C ,  4-C ) :   1.5712 B(  3-C ,  5-H ) :   1.0026 B(  4-C , 20-C ) :   1.0539
B(  6-C ,  7-H ) :   0.9361 B(  6-C ,  8-H ) :   0.9357 B(  6-C ,  9-C ) :   1.0769
B(  9-C , 10-H ) :   0.9557 B(  9-C , 11-H ) :   0.9608 B(  9-C , 12-C ) :   1.0565
B( 12-C , 13-H ) :   0.9759 B( 12-C , 14-H ) :   0.9789 B( 12-C , 15-H ) :   0.9774
B( 16-S , 17-C ) :   1.1430 B( 16-S , 20-C ) :   1.1371 B( 17-C , 18-C ) :   1.6109
B( 17-C , 33-H ) :   0.9683 B( 18-C , 19-C ) :   1.2614 B( 18-C , 21-H ) :   0.9857
B( 19-C , 20-C ) :   1.5942 B( 19-C , 22-C ) :   1.0371 B( 22-C , 23-H ) :   0.9370
B( 22-C , 24-H ) :   0.9339 B( 22-C , 25-C ) :   1.0527 B( 25-C , 26-H ) :   0.9513
B( 25-C , 27-H ) :   0.9571 B( 25-C , 28-C ) :   1.0642 B( 28-C , 29-H ) :   0.9773
B( 28-C , 30-H ) :   0.9759 B( 28-C , 31-H ) :   0.9771

Dispersion correction           -0.014735394
FINAL SINGLE POINT ENERGY     -1339.880575499183

DIPOLE MOMENT
-------------
                                X             Y             Z
Electronic contribution:    -30.53778       4.66707      -2.53245
Nuclear contribution   :     31.19863      -4.90843       2.72147
                        -----------------------------------------
Total Dipole Moment    :      0.66086      -0.24135       0.18902
                        -----------------------------------------
Magnitude (a.u.)       :      0.72850
Magnitude (Debye)      :      1.85170

Rotational constants in cm-1:     0.017216     0.010139     0.006814
Rotational constants in MHz :   516.131505   303.947982   204.274146

                             ****ORCA TERMINATED NORMALLY****
TOTAL RUN TIME: 0 days 0 hours 0 minutes 22 seconds 312 msec
