                         Program Version 4.2.1 -  RELEASE  -
|  1> ! wB97X-D3 SP def2-SVP
|  2> %pal
|  3> nprocs 24
|  4> end
|  5>
|  6> * xyz 0 1
|  7> S 	 -40.0293 	 18.6338 	 -97.7679
|  8> C 	 -39.0835 	 17.841 	 -99.0282
|  9> C 	 -38.7686 	 16.5786 	 -98.5343
| 10> C 	 -39.3087 	 16.2576 	 -97.2468
| 11> C 	 -40.0462 	 17.2426 	 -96.683
| 12> H 	 -39.2362 	 15.2837 	 -96.7752
| 13> C 	 -37.7654 	 15.6403 	 -99.1551
| 14> H 	 -37.1123 	 15.4396 	 -98.3847
| 15> H 	 -37.2946 	 16.1639 	 -99.952
| 16> C 	 -38.3242 	 14.3514 	 -99.8526
| 17> H 	 -39.0163 	 14.6019 	 -100.599
| 18> H 	 -37.5041 	 13.9514 	 -100.383
| 19> C 	 -38.9767 	 13.3451 	 -98.8724
| 20> H 	 -39.1589 	 12.3949 	 -99.3307
| 21> H 	 -38.3912 	 13.188 	 -97.9575
| 22> H 	 -39.9519 	 13.7029 	 -98.4653
| 23> S 	 -39.7178 	 18.1512 	 -94.1463
| 24> C 	 -40.8143 	 17.5007 	 -92.8178
| 25> C 	 -41.6215 	 16.5236 	 -93.3664
| 26> C 	 -41.5896 	 16.4121 	 -94.7958
| 27> C 	 -40.5724 	 17.1888 	 -95.3475
| 28> H 	 -42.3133 	 15.8517 	 -92.7748
| 29> C 	 -42.3179 	 15.3191 	 -95.5036
| 30> H 	 -41.9465 	 15.2241 	 -96.497
| 31> H 	 -43.3329 	 15.6513 	 -95.5408
| 32> C 	 -42.2166 	 13.9047 	 -94.8783
| 33> H 	 -42.6796 	 13.8053 	 -93.9393
| 34> H 	 -41.1868 	 13.5765 	 -94.7476
| 35> C 	 -43.0541 	 12.8897 	 -95.7481
| 36> H 	 -42.9723 	 11.9178 	 -95.4144
| 37> H 	 -42.8052 	 12.8386 	 -96.7676
| 38> H 	 -44.1231 	 13.1289 	 -95.7689
| 39> H 	 -38.6086 	 18.4326 	 -99.7924
| 40> H 	 -40.588 	 17.4813 	 -91.7049
| 41> *
| 42>
| 43>                          ****END OF INPUT****

CARTESIAN COORDINATES (ANGSTROEM)
---------------------------------
  S    -40.029300   18.633800  -97.767900
  C    -39.083500   17.841000  -99.028200
  C    -38.768600   16.578600  -98.534300
  C    -39.308700   16.257600  -97.246800
  C    -40.046200   17.242600  -96.683000
  H    -39.236200   15.283700  -96.775200
  C    -37.765400   15.640300  -99.155100
  H    -37.112300   15.439600  -98.384700
  H    -37.294600   16.163900  -99.952000
  C    -38.324200   14.351400  -99.852600
  H    -39.016300   14.601900  -100.599000
  H    -37.504100   13.951400  -100.383000
  C    -38.976700   13.345100  -98.872400
  H    -39.158900   12.394900  -99.330700
  H    -38.391200   13.188000  -97.957500
  H    -39.951900   13.702900  -98.465300
  S    -39.717800   18.151200  -94.146300
  C    -40.814300   17.500700  -92.817800
  C    -41.621500   16.523600  -93.366400
  C    -41.589600   16.412100  -94.795800
  C    -40.572400   17.188800  -95.347500
  H    -42.313300   15.851700  -92.774800
  C    -42.317900   15.319100  -95.503600
  H    -41.946500   15.224100  -96.497000
  H    -43.332900   15.651300  -95.540800
  C    -42.216600   13.904700  -94.878300
  H    -42.679600   13.805300  -93.939300
  H    -41.186800   13.576500  -94.747600
  C    -43.054100   12.889700  -95.748100
  H    -42.972300   11.917800  -95.414400
  H    -42.805200   12.838600  -96.767600
  H    -44.123100   13.128900  -95.768900
  H    -38.608600   18.432600  -99.792400
  H    -40.588000   17.481300  -91.704900

 Total Charge           Charge          ....    0
 Multiplicity           Mult            ....    1
 Number of Electrons    NEL             ....  134
 Basis Dimension        Dim             ....  322

ORBITAL ENERGIES
----------------

  NO   OCC          E(Eh)            E(eV)
   0   2.0000     -88.966232     -2420.8943
   1   2.0000     -88.960660     -2420.7426
   2   2.0000     -10.328736      -281.0592
   3   2.0000     -10.328147      -281.0432
   4   2.0000     -10.326958      -281.0108
   5   2.0000     -10.317275      -280.7473
   6   2.0000     -10.302298      -280.3398
   7   2.0000     -10.301670      -280.3227
   8   2.0000     -10.301140      -280.3083
   9   2.0000     -10.291046      -280.0336
  10   2.0000     -10.290625      -280.0221
  11   2.0000     -10.287487      -279.9368
  12   2.0000     -10.282897      -279.8118
  13   2.0000     -10.281788      -279.7817
  14   2.0000     -10.280881      -279.7570
  15   2.0000     -10.271575      -279.5038
  16   2.0000      -8.079465      -219.8534
  17   2.0000      -8.075202      -219.7374
  18   2.0000      -6.038323      -164.3111
  19   2.0000      -6.034185      -164.1985
  20   2.0000      -6.033837      -164.1890
  21   2.0000      -6.029925      -164.0826
  22   2.0000      -6.029566      -164.0728
  23   2.0000      -6.025981      -163.9753
  24   2.0000      -1.005093       -27.3500
  25   2.0000      -0.978774       -26.6338
  26   2.0000      -0.911062       -24.7912
  27   2.0000      -0.907468       -24.6935
  28   2.0000      -0.872702       -23.7474
  29   2.0000      -0.848955       -23.1012
  30   2.0000      -0.842166       -22.9165
  31   2.0000      -0.818266       -22.2661
  32   2.0000      -0.783235       -21.3129
  33   2.0000      -0.771390       -20.9906
  34   2.0000      -0.715779       -19.4773
  35   2.0000      -0.710788       -19.3415
  36   2.0000      -0.701658       -19.0931
  37   2.0000      -0.657014       -17.8783
  38   2.0000      -0.647220       -17.6118
  39   2.0000      -0.615113       -16.7381
  40   2.0000      -0.592942       -16.1348
  41   2.0000      -0.571669       -15.5559
  42   2.0000      -0.568716       -15.4756
  43   2.0000      -0.545564       -14.8455
  44   2.0000      -0.537849       -14.6356
  45   2.0000      -0.528178       -14.3725
  46   2.0000      -0.524051       -14.2601
  47   2.0000      -0.514265       -13.9939
  48   2.0000      -0.509910       -13.8754
  49   2.0000      -0.497975       -13.5506
  50   2.0000      -0.488093       -13.2817
  51   2.0000      -0.481327       -13.0976
  52   2.0000      -0.472130       -12.8473
  53   2.0000      -0.468573       -12.7505
  54   2.0000      -0.457774       -12.4567
  55   2.0000      -0.448179       -12.1956
  56   2.0000      -0.443724       -12.0743
  57   2.0000      -0.441086       -12.0026
  58   2.0000      -0.432484       -11.7685
  59   2.0000      -0.429813       -11.6958
  60   2.0000      -0.426572       -11.6076
  61   2.0000      -0.419988       -11.4285
  62   2.0000      -0.407373       -11.0852
  63   2.0000      -0.342782        -9.3276
  64   2.0000      -0.328144        -8.9292
  65   2.0000      -0.322639        -8.7794
  66   2.0000      -0.304042        -8.2734
  67   0.0000       0.032936         0.8962
  68   0.0000       0.055447         1.5088
  69   0.0000       0.103743         2.8230
  70   0.0000       0.117754         3.2042
  71   0.0000       0.122959         3.3459

MULLIKEN ATOMIC CHARGES
-----------------------
   0 S :    0.091973
   1 C :   -0.120595
   2 C :   -0.104740
   3 C :    0.037803
   4 C :   -0.149894
   5 H :    0.010951
   6 C :    0.090205
   7 H :    0.020298
   8 H :    0.003271
   9 C :   -0.016030
  10 H :    0.016430
  11 H :    0.020019
  12 C :   -0.073629
  13 H :    0.033084
  14 H :    0.027461
  15 H :    0.038176
  16 S :    0.096671
  17 C :   -0.106222
  18 C :   -0.064522
  19 C :   -0.018170
  20 C :   -0.180509
  21 H :    0.042539
  22 C :    0.093132
  23 H :    0.018226
  24 H :    0.027284
  25 C :   -0.070873
  26 H :    0.019624
  27 H :    0.036266
  28 C :   -0.021809
  29 H :    0.014169
  30 H :    0.012793
  31 H :    0.025398
  32 H :    0.062728
  33 H :    0.088493
Sum of atomic charges:    0.0000000

LOEWDIN ATOMIC CHARGES
----------------------
   0 S :    0.389857
   1 C :   -0.194588
   2 C :   -0.060178
   3 C :   -0.064117
   4 C :   -0.195625
   5 H :    0.032048
   6 C :   -0.019413
   7 H :    0.021869
   8 H :    0.025888
   9 C :   -0.024682
  10 H :    0.020182
  11 H :    0.019565
  12 C :   -0.070296
  13 H :    0.023287
  14 H :    0.022051
  15 H :    0.027838
  16 S :    0.372644
  17 C :   -0.182963
  18 C :   -0.069391
  19 C :   -0.058947
  20 C :   -0.188708
  21 H :    0.040042
  22 C :   -0.026382
  23 H :    0.027390
  24 H :    0.033558
  25 C :   -0.026115
  26 H :    0.016072
  27 H :    0.025326
  28 C :   -0.057584
  29 H :    0.015754
  30 H :    0.016581
  31 H :    0.028746
  32 H :    0.031154
  33 H :    0.049139

  Mayer bond orders larger than 0.100000
B(  0-S ,  1-C ) :   1.1299 B(  0-S ,  4-C ) :   1.1444 B(  1-C ,  2-C ) :   1.6015
B(  1-C , 32-H ) :   0.9724 B(  2-C ,  3-C ) :   1.2395 B(  2-C ,  6-C ) :   1.0235
B(  3-C ,  4-C ) :   1.5770 B(  3-C ,  5-H ) :   0.9912 B(  4-C , 20-C ) :   1.0350
B(  6-C ,  7-H ) :   0.9445 B(  6-C ,  8-H ) :   0.9355 B(  6-C ,  9-C ) :   1.0792
B(  9-C , 10-H ) :   0.9513 B(  9-C , 11-H ) :   0.9580 B(  9-C , 12-C ) :   1.0798
B( 12-C , 13-H ) :   0.9719 B( 12-C , 14-H ) :   0.9750 B( 12-C , 15-H ) :   0.9708
B( 16-S , 17-C ) :   1.1149 B( 16-S , 20-C ) :   1.1436 B( 17-C , 18-C ) :   1.6465
B( 17-C , 33-H ) :   0.9536 B( 18-C , 19-C ) :   1.2305 B( 18-C , 21-H ) :   0.9674
B( 19-C , 20-C ) :   1.6055 B( 19-C , 22-C ) :   1.0534 B( 22-C , 23-H ) :   0.9383
B( 22-C , 24-H ) :   0.9162 B( 22-C , 25-C ) :   1.0714 B( 25-C , 26-H ) :   0.9484
B( 25-C , 27-H ) :   0.9605 B( 25-C , 28-C ) :   1.0785 B( 28-C , 29-H ) :   0.9740
B( 28-C , 30-H ) :   0.9764 B( 28-C , 31-H ) :   0.9747

Dispersion correction           -0.014849905
FINAL SINGLE POINT ENERGY     -1339.861891359567

DIPOLE MOMENT
-------------
                                X             Y             Z
Electronic contribution:      4.21299      29.18790       8.39319
Nuclear contribution   :     -4.10890     -30.10191      -8.48611
                        -----------------------------------------
Total Dipole Moment    :      0.10409      -0.91401      -0.09292
                        -----------------------------------------
Magnitude (a.u.)       :      0.92460
Magnitude (Debye)      :      2.35014

Rotational constants in cm-1:     0.015752     0.010461     0.007157
Rotational constants in MHz :   472.245472   313.609200   214.552381

                             ****ORCA TERMINATED NORMALLY****
TOTAL RUN TIME: 0 days 0 hours 0 minutes 21 seconds 60 msec
