                         Program Version 4.2.1 -  RELEASE  -
|  1> ! wB97X-D3 SP def2-SVP
|  2> %pal
|  3> nprocs 24
|  4> end
|  5>
|  6> * xyz 0 1
|  7> S 	 -117.272 	 26.3501 	 -14.2756
|  8> C 	 -117.623 	 25.9645 	 -15.884
|  9> C 	 -117.195 	 26.8874 	 -16.8157
| 10> C 	 -116.662 	 28.0366 	 -16.1625
| 11> C 	 -116.739 	 27.9796 	 -14.7567
| 12> H 	 -115.983 	 28.7454 	 -16.6013
| 13> C 	 -117.157 	 26.6353 	 -18.3104
| 14> H 	 -117.695 	 25.7148 	 -18.5644
| 15> H 	 -116.099 	 26.3642 	 -18.4863
| 16> C 	 -117.519 	 27.8139 	 -19.1355
| 17> H 	 -118.561 	 27.9889 	 -19.0838
| 18> H 	 -116.985 	 28.6345 	 -18.7808
| 19> C 	 -117.125 	 27.6256 	 -20.6319
| 20> H 	 -117.4 	 28.5811 	 -21.2214
| 21> H 	 -116.045 	 27.417 	 -20.7109
| 22> H 	 -117.712 	 26.7578 	 -21.0232
| 23> S 	 -114.91 	 28.6021 	 -12.714
| 24> C 	 -114.635 	 30.2716 	 -12.4676
| 25> C 	 -115.516 	 31.0684 	 -13.0501
| 26> C 	 -116.488 	 30.3485 	 -13.8525
| 27> C 	 -116.184 	 28.9835 	 -13.8915
| 28> H 	 -115.371 	 32.1851 	 -12.8523
| 29> C 	 -117.616 	 31.0972 	 -14.5444
| 30> H 	 -117.762 	 30.8006 	 -15.6102
| 31> H 	 -117.417 	 32.1798 	 -14.7082
| 32> C 	 -119.021 	 31.0727 	 -13.7818
| 33> H 	 -119.771 	 31.6522 	 -14.329
| 34> H 	 -118.752 	 31.5815 	 -12.804
| 35> C 	 -119.655 	 29.6707 	 -13.5081
| 36> H 	 -120.331 	 29.2781 	 -14.2572
| 37> H 	 -120.245 	 29.7953 	 -12.6344
| 38> H 	 -118.878 	 28.9712 	 -13.2371
| 39> H 	 -118.127 	 24.9975 	 -16.1444
| 40> H 	 -113.894 	 30.7636 	 -11.7606
| 41> *
| 42>
| 43>                          ****END OF INPUT****

CARTESIAN COORDINATES (ANGSTROEM)
---------------------------------
  S    -117.272000   26.350100  -14.275600
  C    -117.623000   25.964500  -15.884000
  C    -117.195000   26.887400  -16.815700
  C    -116.662000   28.036600  -16.162500
  C    -116.739000   27.979600  -14.756700
  H    -115.983000   28.745400  -16.601300
  C    -117.157000   26.635300  -18.310400
  H    -117.695000   25.714800  -18.564400
  H    -116.099000   26.364200  -18.486300
  C    -117.519000   27.813900  -19.135500
  H    -118.561000   27.988900  -19.083800
  H    -116.985000   28.634500  -18.780800
  C    -117.125000   27.625600  -20.631900
  H    -117.400000   28.581100  -21.221400
  H    -116.045000   27.417000  -20.710900
  H    -117.712000   26.757800  -21.023200
  S    -114.910000   28.602100  -12.714000
  C    -114.635000   30.271600  -12.467600
  C    -115.516000   31.068400  -13.050100
  C    -116.488000   30.348500  -13.852500
  C    -116.184000   28.983500  -13.891500
  H    -115.371000   32.185100  -12.852300
  C    -117.616000   31.097200  -14.544400
  H    -117.762000   30.800600  -15.610200
  H    -117.417000   32.179800  -14.708200
  C    -119.021000   31.072700  -13.781800
  H    -119.771000   31.652200  -14.329000
  H    -118.752000   31.581500  -12.804000
  C    -119.655000   29.670700  -13.508100
  H    -120.331000   29.278100  -14.257200
  H    -120.245000   29.795300  -12.634400
  H    -118.878000   28.971200  -13.237100
  H    -118.127000   24.997500  -16.144400
  H    -113.894000   30.763600  -11.760600

 Total Charge           Charge          ....    0
 Multiplicity           Mult            ....    1
 Number of Electrons    NEL             ....  134
 Basis Dimension        Dim             ....  322

ORBITAL ENERGIES
----------------

  NO   OCC          E(Eh)            E(eV)
   0   2.0000     -88.968262     -2420.9495
   1   2.0000     -88.964736     -2420.8536
   2   2.0000     -10.330944      -281.1193
   3   2.0000     -10.329090      -281.0688
   4   2.0000     -10.312692      -280.6226
   5   2.0000     -10.311689      -280.5953
   6   2.0000     -10.309610      -280.5388
   7   2.0000     -10.299459      -280.2625
   8   2.0000     -10.295535      -280.1558
   9   2.0000     -10.295465      -280.1538
  10   2.0000     -10.292110      -280.0626
  11   2.0000     -10.291849      -280.0555
  12   2.0000     -10.291806      -280.0543
  13   2.0000     -10.289984      -280.0047
  14   2.0000     -10.276433      -279.6360
  15   2.0000     -10.263193      -279.2757
  16   2.0000      -8.083338      -219.9588
  17   2.0000      -8.080154      -219.8722
  18   2.0000      -6.041696      -164.4029
  19   2.0000      -6.038647      -164.3199
  20   2.0000      -6.037855      -164.2984
  21   2.0000      -6.034806      -164.2154
  22   2.0000      -6.034194      -164.1988
  23   2.0000      -6.030630      -164.1018
  24   2.0000      -1.008550       -27.4440
  25   2.0000      -0.989092       -26.9146
  26   2.0000      -0.918983       -25.0068
  27   2.0000      -0.894105       -24.3298
  28   2.0000      -0.873322       -23.7643
  29   2.0000      -0.850514       -23.1437
  30   2.0000      -0.841425       -22.8963
  31   2.0000      -0.813261       -22.1300
  32   2.0000      -0.781601       -21.2684
  33   2.0000      -0.767431       -20.8828
  34   2.0000      -0.711990       -19.3742
  35   2.0000      -0.692970       -18.8567
  36   2.0000      -0.682111       -18.5612
  37   2.0000      -0.650577       -17.7031
  38   2.0000      -0.636513       -17.3204
  39   2.0000      -0.622559       -16.9407
  40   2.0000      -0.591913       -16.1068
  41   2.0000      -0.573966       -15.6184
  42   2.0000      -0.564919       -15.3722
  43   2.0000      -0.544924       -14.8281
  44   2.0000      -0.529746       -14.4151
  45   2.0000      -0.525530       -14.3004
  46   2.0000      -0.509726       -13.8703
  47   2.0000      -0.503105       -13.6902
  48   2.0000      -0.501062       -13.6346
  49   2.0000      -0.491732       -13.3807
  50   2.0000      -0.488464       -13.2918
  51   2.0000      -0.481544       -13.1035
  52   2.0000      -0.473355       -12.8806
  53   2.0000      -0.465917       -12.6782
  54   2.0000      -0.458801       -12.4846
  55   2.0000      -0.448342       -12.2000
  56   2.0000      -0.440934       -11.9984
  57   2.0000      -0.439135       -11.9495
  58   2.0000      -0.430332       -11.7099
  59   2.0000      -0.422331       -11.4922
  60   2.0000      -0.417967       -11.3735
  61   2.0000      -0.415833       -11.3154
  62   2.0000      -0.409724       -11.1492
  63   2.0000      -0.350145        -9.5279
  64   2.0000      -0.330889        -9.0040
  65   2.0000      -0.327665        -8.9162
  66   2.0000      -0.289090        -7.8665
  67   0.0000       0.027237         0.7412
  68   0.0000       0.068688         1.8691
  69   0.0000       0.109705         2.9852
  70   0.0000       0.123573         3.3626
  71   0.0000       0.132579         3.6077

MULLIKEN ATOMIC CHARGES
-----------------------
   0 S :    0.121904
   1 C :   -0.144278
   2 C :   -0.081325
   3 C :    0.018196
   4 C :   -0.171508
   5 H :    0.032375
   6 C :    0.072153
   7 H :    0.013299
   8 H :    0.034812
   9 C :   -0.040032
  10 H :    0.026987
  11 H :    0.016058
  12 C :   -0.093319
  13 H :    0.052111
  14 H :    0.037957
  15 H :    0.038462
  16 S :    0.112851
  17 C :   -0.095986
  18 C :   -0.068397
  19 C :   -0.019584
  20 C :   -0.166109
  21 H :    0.045341
  22 C :    0.044511
  23 H :    0.028090
  24 H :    0.024355
  25 C :   -0.108329
  26 H :    0.035625
  27 H :    0.035892
  28 C :   -0.014535
  29 H :    0.036751
  30 H :    0.016516
  31 H :    0.027814
  32 H :    0.062497
  33 H :    0.068843
Sum of atomic charges:   -0.0000000

LOEWDIN ATOMIC CHARGES
----------------------
   0 S :    0.418494
   1 C :   -0.219347
   2 C :   -0.067425
   3 C :   -0.054716
   4 C :   -0.188925
   5 H :    0.032564
   6 C :   -0.031113
   7 H :    0.028417
   8 H :    0.037469
   9 C :   -0.036602
  10 H :    0.022895
  11 H :    0.015760
  12 C :   -0.069752
  13 H :    0.035650
  14 H :    0.023972
  15 H :    0.026823
  16 S :    0.399368
  17 C :   -0.206791
  18 C :   -0.088999
  19 C :   -0.050568
  20 C :   -0.194455
  21 H :    0.047583
  22 C :   -0.045177
  23 H :    0.030093
  24 H :    0.033062
  25 C :   -0.036347
  26 H :    0.023610
  27 H :    0.028283
  28 C :   -0.066750
  29 H :    0.025700
  30 H :    0.022810
  31 H :    0.022130
  32 H :    0.035766
  33 H :    0.046519

  Mayer bond orders larger than 0.100000
B(  0-S ,  1-C ) :   1.1578 B(  0-S ,  4-C ) :   1.1440 B(  1-C ,  2-C ) :   1.5981
B(  1-C , 32-H ) :   0.9581 B(  2-C ,  3-C ) :   1.2620 B(  2-C ,  6-C ) :   1.0219
B(  3-C ,  4-C ) :   1.5607 B(  3-C ,  5-H ) :   0.9818 B(  4-C , 20-C ) :   1.0892
B(  6-C ,  7-H ) :   0.9387 B(  6-C ,  8-H ) :   0.9333 B(  6-C ,  9-C ) :   1.0658
B(  9-C , 10-H ) :   0.9553 B(  9-C , 11-H ) :   0.9510 B(  9-C , 12-C ) :   1.0828
B( 12-C , 13-H ) :   0.9747 B( 12-C , 14-H ) :   0.9764 B( 12-C , 15-H ) :   0.9752
B( 16-S , 17-C ) :   1.1351 B( 16-S , 20-C ) :   1.1156 B( 17-C , 18-C ) :   1.6919
B( 17-C , 33-H ) :   0.9483 B( 18-C , 19-C ) :   1.2030 B( 18-C , 21-H ) :   0.9753
B( 19-C , 20-C ) :   1.6032 B( 19-C , 22-C ) :   1.0443 B( 22-C , 23-H ) :   0.9344
B( 22-C , 24-H ) :   0.9421 B( 22-C , 25-C ) :   1.0583 B( 25-C , 26-H ) :   0.9581
B( 25-C , 27-H ) :   0.9602 B( 25-C , 28-C ) :   1.0751 B( 28-C , 29-H ) :   0.9776
B( 28-C , 30-H ) :   0.9713 B( 28-C , 31-H ) :   0.9711

Dispersion correction           -0.014814620
FINAL SINGLE POINT ENERGY     -1339.871490636957

DIPOLE MOMENT
-------------
                                X             Y             Z
Electronic contribution:     12.62419      -8.78191      20.48485
Nuclear contribution   :    -12.65264       9.06454     -20.94443
                        -----------------------------------------
Total Dipole Moment    :     -0.02845       0.28263      -0.45958
                        -----------------------------------------
Magnitude (a.u.)       :      0.54028
Magnitude (Debye)      :      1.37329

Rotational constants in cm-1:     0.018900     0.008308     0.007646
Rotational constants in MHz :   566.610265   249.076198   229.228674

                             ****ORCA TERMINATED NORMALLY****
TOTAL RUN TIME: 0 days 0 hours 0 minutes 22 seconds 89 msec
