                         Program Version 4.2.1 -  RELEASE  -
|  1> ! wB97X-D3 SP def2-SVP
|  2> %pal
|  3> nprocs 24
|  4> end
|  5>
|  6> * xyz 0 1
|  7> S 	 -76.3437 	 -5.93415 	 3.36148
|  8> C 	 -74.6924 	 -5.59614 	 3.12505
|  9> C 	 -74.0835 	 -6.49127 	 2.24781
| 10> C 	 -74.9445 	 -7.39186 	 1.57541
| 11> C 	 -76.1772 	 -7.34571 	 2.24774
| 12> H 	 -74.6273 	 -8.1921 	 0.893135
| 13> C 	 -72.5918 	 -6.49185 	 2.01847
| 14> H 	 -72.3674 	 -5.53415 	 1.45051
| 15> H 	 -72.3354 	 -7.32834 	 1.35305
| 16> C 	 -71.5442 	 -6.52855 	 3.18537
| 17> H 	 -70.5401 	 -6.3091 	 2.72845
| 18> H 	 -71.7053 	 -5.76357 	 3.95852
| 19> C 	 -71.5218 	 -7.91375 	 3.88366
| 20> H 	 -72.3803 	 -8.08402 	 4.5498
| 21> H 	 -71.5943 	 -8.6984 	 3.18604
| 22> H 	 -70.7026 	 -8.14535 	 4.59846
| 23> S 	 -77.6314 	 -8.85004 	 0.436559
| 24> C 	 -78.9482 	 -9.79196 	 0.99145
| 25> C 	 -79.1674 	 -9.70812 	 2.36338
| 26> C 	 -78.1536 	 -8.85987 	 2.93527
| 27> C 	 -77.2572 	 -8.33884 	 2.05071
| 28> H 	 -80.0126 	 -10.2585 	 2.78625
| 29> C 	 -78.2182 	 -8.55059 	 4.4417
| 30> H 	 -79.1088 	 -8.16564 	 4.80495
| 31> H 	 -77.4187 	 -7.86936 	 4.58678
| 32> C 	 -78.027 	 -9.63453 	 5.40534
| 33> H 	 -76.9306 	 -9.79475 	 5.38169
| 34> H 	 -78.601 	 -10.5214 	 5.25521
| 35> C 	 -78.4207 	 -9.2466 	 6.89595
| 36> H 	 -79.4692 	 -9.08765 	 7.00746
| 37> H 	 -78.0338 	 -8.29374 	 7.15101
| 38> H 	 -78.1313 	 -10.1212 	 7.53804
| 39> H 	 -74.1591 	 -4.84749 	 3.68315
| 40> H 	 -79.7188 	 -10.2194 	 0.266373
| 41> *
| 42>
| 43>                          ****END OF INPUT****

CARTESIAN COORDINATES (ANGSTROEM)
---------------------------------
  S    -76.343700   -5.934150    3.361480
  C    -74.692400   -5.596140    3.125050
  C    -74.083500   -6.491270    2.247810
  C    -74.944500   -7.391860    1.575410
  C    -76.177200   -7.345710    2.247740
  H    -74.627300   -8.192100    0.893135
  C    -72.591800   -6.491850    2.018470
  H    -72.367400   -5.534150    1.450510
  H    -72.335400   -7.328340    1.353050
  C    -71.544200   -6.528550    3.185370
  H    -70.540100   -6.309100    2.728450
  H    -71.705300   -5.763570    3.958520
  C    -71.521800   -7.913750    3.883660
  H    -72.380300   -8.084020    4.549800
  H    -71.594300   -8.698400    3.186040
  H    -70.702600   -8.145350    4.598460
  S    -77.631400   -8.850040    0.436559
  C    -78.948200   -9.791960    0.991450
  C    -79.167400   -9.708120    2.363380
  C    -78.153600   -8.859870    2.935270
  C    -77.257200   -8.338840    2.050710
  H    -80.012600  -10.258500    2.786250
  C    -78.218200   -8.550590    4.441700
  H    -79.108800   -8.165640    4.804950
  H    -77.418700   -7.869360    4.586780
  C    -78.027000   -9.634530    5.405340
  H    -76.930600   -9.794750    5.381690
  H    -78.601000  -10.521400    5.255210
  C    -78.420700   -9.246600    6.895950
  H    -79.469200   -9.087650    7.007460
  H    -78.033800   -8.293740    7.151010
  H    -78.131300  -10.121200    7.538040
  H    -74.159100   -4.847490    3.683150
  H    -79.718800  -10.219400    0.266373

 Total Charge           Charge          ....    0
 Multiplicity           Mult            ....    1
 Number of Electrons    NEL             ....  134
 Basis Dimension        Dim             ....  322

ORBITAL ENERGIES
----------------

  NO   OCC          E(Eh)            E(eV)
   0   2.0000     -88.973982     -2421.1051
   1   2.0000     -88.966049     -2420.8893
   2   2.0000     -10.340101      -281.3684
   3   2.0000     -10.324111      -280.9333
   4   2.0000     -10.319755      -280.8148
   5   2.0000     -10.307814      -280.4899
   6   2.0000     -10.302642      -280.3491
   7   2.0000     -10.301461      -280.3170
   8   2.0000     -10.301155      -280.3087
   9   2.0000     -10.298027      -280.2236
  10   2.0000     -10.297077      -280.1977
  11   2.0000     -10.296867      -280.1920
  12   2.0000     -10.277407      -279.6625
  13   2.0000     -10.275668      -279.6152
  14   2.0000     -10.274580      -279.5855
  15   2.0000     -10.271879      -279.5120
  16   2.0000      -8.087805      -220.0804
  17   2.0000      -8.081774      -219.9163
  18   2.0000      -6.046291      -164.5279
  19   2.0000      -6.042418      -164.4225
  20   2.0000      -6.040173      -164.3615
  21   2.0000      -6.038654      -164.3201
  22   2.0000      -6.036169      -164.2525
  23   2.0000      -6.032572      -164.1546
  24   2.0000      -1.009850       -27.4794
  25   2.0000      -0.988393       -26.8956
  26   2.0000      -0.915957       -24.9245
  27   2.0000      -0.902776       -24.5658
  28   2.0000      -0.868636       -23.6368
  29   2.0000      -0.854947       -23.2643
  30   2.0000      -0.846659       -23.0388
  31   2.0000      -0.811787       -22.0899
  32   2.0000      -0.783162       -21.3109
  33   2.0000      -0.768095       -20.9009
  34   2.0000      -0.706696       -19.2302
  35   2.0000      -0.698304       -19.0018
  36   2.0000      -0.688535       -18.7360
  37   2.0000      -0.662624       -18.0309
  38   2.0000      -0.640913       -17.4401
  39   2.0000      -0.610504       -16.6127
  40   2.0000      -0.597447       -16.2574
  41   2.0000      -0.577571       -15.7165
  42   2.0000      -0.570716       -15.5300
  43   2.0000      -0.545957       -14.8562
  44   2.0000      -0.531809       -14.4713
  45   2.0000      -0.524441       -14.2708
  46   2.0000      -0.515692       -14.0327
  47   2.0000      -0.512177       -13.9370
  48   2.0000      -0.510438       -13.8897
  49   2.0000      -0.494615       -13.4592
  50   2.0000      -0.486545       -13.2396
  51   2.0000      -0.476067       -12.9544
  52   2.0000      -0.473961       -12.8971
  53   2.0000      -0.464799       -12.6478
  54   2.0000      -0.457079       -12.4378
  55   2.0000      -0.453233       -12.3331
  56   2.0000      -0.448219       -12.1967
  57   2.0000      -0.436574       -11.8798
  58   2.0000      -0.432415       -11.7666
  59   2.0000      -0.425832       -11.5875
  60   2.0000      -0.416632       -11.3371
  61   2.0000      -0.414238       -11.2720
  62   2.0000      -0.403096       -10.9688
  63   2.0000      -0.357424        -9.7260
  64   2.0000      -0.332539        -9.0489
  65   2.0000      -0.330206        -8.9854
  66   2.0000      -0.282621        -7.6905
  67   0.0000       0.025764         0.7011
  68   0.0000       0.073878         2.0103
  69   0.0000       0.102021         2.7761
  70   0.0000       0.112764         3.0685
  71   0.0000       0.129642         3.5277

MULLIKEN ATOMIC CHARGES
-----------------------
   0 S :    0.127874
   1 C :   -0.116805
   2 C :   -0.075578
   3 C :    0.005126
   4 C :   -0.136812
   5 H :    0.039159
   6 C :    0.005838
   7 H :    0.052543
   8 H :    0.021642
   9 C :   -0.059070
  10 H :    0.039636
  11 H :    0.030648
  12 C :   -0.056727
  13 H :    0.030621
  14 H :    0.012633
  15 H :    0.036437
  16 S :    0.111663
  17 C :   -0.124600
  18 C :   -0.038651
  19 C :   -0.059766
  20 C :   -0.128250
  21 H :    0.031560
  22 C :    0.143541
  23 H :   -0.003627
  24 H :   -0.003844
  25 C :   -0.100520
  26 H :    0.030109
  27 H :    0.024839
  28 C :   -0.055647
  29 H :    0.018950
  30 H :    0.019992
  31 H :    0.051351
  32 H :    0.043552
  33 H :    0.082185
Sum of atomic charges:   -0.0000000

LOEWDIN ATOMIC CHARGES
----------------------
   0 S :    0.428835
   1 C :   -0.222180
   2 C :   -0.064373
   3 C :   -0.064560
   4 C :   -0.160931
   5 H :    0.040813
   6 C :   -0.041007
   7 H :    0.042879
   8 H :    0.027789
   9 C :   -0.038866
  10 H :    0.031802
  11 H :    0.022106
  12 C :   -0.075359
  13 H :    0.029126
  14 H :    0.014379
  15 H :    0.029788
  16 S :    0.427398
  17 C :   -0.205855
  18 C :   -0.072701
  19 C :   -0.054164
  20 C :   -0.208674
  21 H :    0.038406
  22 C :   -0.036207
  23 H :    0.019533
  24 H :    0.008432
  25 C :   -0.034261
  26 H :    0.026994
  27 H :    0.016045
  28 C :   -0.063178
  29 H :    0.017186
  30 H :    0.017220
  31 H :    0.036667
  32 H :    0.024279
  33 H :    0.042636

  Mayer bond orders larger than 0.100000
B(  0-S ,  1-C ) :   1.1333 B(  0-S ,  4-C ) :   1.1615 B(  1-C ,  2-C ) :   1.5943
B(  1-C , 32-H ) :   0.9707 B(  2-C ,  3-C ) :   1.2644 B(  2-C ,  6-C ) :   1.0196
B(  3-C ,  4-C ) :   1.5399 B(  3-C ,  5-H ) :   0.9817 B(  4-C , 20-C ) :   1.0418
B(  6-C ,  7-H ) :   0.9359 B(  6-C ,  8-H ) :   0.9484 B(  6-C ,  9-C ) :   1.0732
B(  9-C , 10-H ) :   0.9552 B(  9-C , 11-H ) :   0.9575 B(  9-C , 12-C ) :   1.0618
B( 12-C , 13-H ) :   0.9749 B( 12-C , 14-H ) :   0.9783 B( 12-C , 15-H ) :   0.9766
B( 16-S , 17-C ) :   1.1747 B( 16-S , 20-C ) :   1.1297 B( 17-C , 18-C ) :   1.6110
B( 17-C , 33-H ) :   0.9538 B( 18-C , 19-C ) :   1.2165 B( 18-C , 21-H ) :   0.9958
B( 19-C , 20-C ) :   1.6182 B( 19-C , 22-C ) :   1.0332 B( 22-C , 23-H ) :   0.9348
B( 22-C , 24-H ) :   0.9171 B( 22-C , 25-C ) :   1.0710 B( 25-C , 26-H ) :   0.9556
B( 25-C , 27-H ) :   0.9593 B( 25-C , 28-C ) :   1.0807 B( 28-C , 29-H ) :   0.9719
B( 28-C , 30-H ) :   0.9753 B( 28-C , 31-H ) :   0.9757

Dispersion correction           -0.013887308
FINAL SINGLE POINT ENERGY     -1339.856790283839

DIPOLE MOMENT
-------------
                                X             Y             Z
Electronic contribution:    -12.84473       5.44265     -18.42746
Nuclear contribution   :     12.95561      -5.55897      18.65745
                        -----------------------------------------
Total Dipole Moment    :      0.11088      -0.11632       0.22999
                        -----------------------------------------
Magnitude (a.u.)       :      0.28057
Magnitude (Debye)      :      0.71316

Rotational constants in cm-1:     0.017833     0.008552     0.006927
Rotational constants in MHz :   534.629055   256.392402   207.667190

                             ****ORCA TERMINATED NORMALLY****
TOTAL RUN TIME: 0 days 0 hours 0 minutes 21 seconds 365 msec
