                         Program Version 4.2.1 -  RELEASE  -
|  1> ! wB97X-D3 SP def2-SVP
|  2> %pal
|  3> nprocs 24
|  4> end
|  5>
|  6> * xyz 0 1
|  7> S 	 -64.8192 	 18.072 	 -115.65
|  8> C 	 -65.6754 	 16.6134 	 -115.19
|  9> C 	 -66.0453 	 16.704 	 -113.892
| 10> C 	 -65.6369 	 17.8865 	 -113.208
| 11> C 	 -65.0694 	 18.8249 	 -114.027
| 12> H 	 -65.6793 	 18.1028 	 -112.202
| 13> C 	 -66.929 	 15.6372 	 -113.212
| 14> H 	 -67.4718 	 15.0979 	 -113.993
| 15> H 	 -67.5833 	 16.1494 	 -112.523
| 16> C 	 -66.0325 	 14.5844 	 -112.615
| 17> H 	 -65.5321 	 14.001 	 -113.397
| 18> H 	 -65.2381 	 15.0387 	 -112.026
| 19> C 	 -66.8115 	 13.5583 	 -111.772
| 20> H 	 -66.2972 	 12.6634 	 -111.441
| 21> H 	 -67.2104 	 13.999 	 -110.805
| 22> H 	 -67.7296 	 13.1907 	 -112.294
| 23> S 	 -64.6582 	 21.4974 	 -114.982
| 24> C 	 -63.6359 	 22.5319 	 -113.976
| 25> C 	 -63.3447 	 22.0022 	 -112.71
| 26> C 	 -63.8235 	 20.6335 	 -112.572
| 27> C 	 -64.55 	 20.1709 	 -113.707
| 28> H 	 -62.8398 	 22.6196 	 -111.998
| 29> C 	 -63.5044 	 19.7923 	 -111.39
| 30> H 	 -62.4622 	 19.8095 	 -111.353
| 31> H 	 -63.5666 	 18.6919 	 -111.575
| 32> C 	 -64.1723 	 20.1887 	 -110.086
| 33> H 	 -65.248 	 19.9883 	 -110.036
| 34> H 	 -63.9692 	 21.2247 	 -109.923
| 35> C 	 -63.5367 	 19.424 	 -108.889
| 36> H 	 -63.6298 	 18.3917 	 -108.923
| 37> H 	 -63.984 	 19.8421 	 -108.02
| 38> H 	 -62.5102 	 19.7067 	 -108.694
| 39> H 	 -65.9272 	 15.8407 	 -115.856
| 40> H 	 -63.5844 	 23.5602 	 -114.209
| 41> *
| 42>
| 43>                          ****END OF INPUT****

CARTESIAN COORDINATES (ANGSTROEM)
---------------------------------
  S    -64.819200   18.072000  -115.650000
  C    -65.675400   16.613400  -115.190000
  C    -66.045300   16.704000  -113.892000
  C    -65.636900   17.886500  -113.208000
  C    -65.069400   18.824900  -114.027000
  H    -65.679300   18.102800  -112.202000
  C    -66.929000   15.637200  -113.212000
  H    -67.471800   15.097900  -113.993000
  H    -67.583300   16.149400  -112.523000
  C    -66.032500   14.584400  -112.615000
  H    -65.532100   14.001000  -113.397000
  H    -65.238100   15.038700  -112.026000
  C    -66.811500   13.558300  -111.772000
  H    -66.297200   12.663400  -111.441000
  H    -67.210400   13.999000  -110.805000
  H    -67.729600   13.190700  -112.294000
  S    -64.658200   21.497400  -114.982000
  C    -63.635900   22.531900  -113.976000
  C    -63.344700   22.002200  -112.710000
  C    -63.823500   20.633500  -112.572000
  C    -64.550000   20.170900  -113.707000
  H    -62.839800   22.619600  -111.998000
  C    -63.504400   19.792300  -111.390000
  H    -62.462200   19.809500  -111.353000
  H    -63.566600   18.691900  -111.575000
  C    -64.172300   20.188700  -110.086000
  H    -65.248000   19.988300  -110.036000
  H    -63.969200   21.224700  -109.923000
  C    -63.536700   19.424000  -108.889000
  H    -63.629800   18.391700  -108.923000
  H    -63.984000   19.842100  -108.020000
  H    -62.510200   19.706700  -108.694000
  H    -65.927200   15.840700  -115.856000
  H    -63.584400   23.560200  -114.209000

 Total Charge           Charge          ....    0
 Multiplicity           Mult            ....    1
 Number of Electrons    NEL             ....  134
 Basis Dimension        Dim             ....  322

ORBITAL ENERGIES
----------------

  NO   OCC          E(Eh)            E(eV)
   0   2.0000     -88.967620     -2420.9320
   1   2.0000     -88.959864     -2420.7210
   2   2.0000     -10.339755      -281.3590
   3   2.0000     -10.334511      -281.2163
   4   2.0000     -10.322502      -280.8895
   5   2.0000     -10.314249      -280.6650
   6   2.0000     -10.307817      -280.4900
   7   2.0000     -10.303696      -280.3778
   8   2.0000     -10.297372      -280.2058
   9   2.0000     -10.290774      -280.0262
  10   2.0000     -10.290634      -280.0224
  11   2.0000     -10.288391      -279.9614
  12   2.0000     -10.287168      -279.9281
  13   2.0000     -10.286156      -279.9005
  14   2.0000     -10.282491      -279.8008
  15   2.0000     -10.271820      -279.5104
  16   2.0000      -8.080736      -219.8880
  17   2.0000      -8.073981      -219.7042
  18   2.0000      -6.039327      -164.3384
  19   2.0000      -6.035515      -164.2347
  20   2.0000      -6.032703      -164.1582
  21   2.0000      -6.031455      -164.1242
  22   2.0000      -6.028598      -164.0465
  23   2.0000      -6.024517      -163.9355
  24   2.0000      -0.997732       -27.1497
  25   2.0000      -0.975214       -26.5369
  26   2.0000      -0.914981       -24.8979
  27   2.0000      -0.912029       -24.8176
  28   2.0000      -0.867804       -23.6142
  29   2.0000      -0.853032       -23.2122
  30   2.0000      -0.841841       -22.9076
  31   2.0000      -0.816390       -22.2151
  32   2.0000      -0.785443       -21.3730
  33   2.0000      -0.768280       -20.9060
  34   2.0000      -0.713423       -19.4132
  35   2.0000      -0.700721       -19.0676
  36   2.0000      -0.697612       -18.9830
  37   2.0000      -0.662555       -18.0290
  38   2.0000      -0.649259       -17.6672
  39   2.0000      -0.623301       -16.9609
  40   2.0000      -0.600598       -16.3431
  41   2.0000      -0.571983       -15.5644
  42   2.0000      -0.568360       -15.4659
  43   2.0000      -0.560483       -15.2515
  44   2.0000      -0.536332       -14.5943
  45   2.0000      -0.524037       -14.2598
  46   2.0000      -0.522012       -14.2047
  47   2.0000      -0.513155       -13.9636
  48   2.0000      -0.508733       -13.8433
  49   2.0000      -0.495612       -13.4863
  50   2.0000      -0.493658       -13.4331
  51   2.0000      -0.480970       -13.0879
  52   2.0000      -0.473822       -12.8933
  53   2.0000      -0.464550       -12.6410
  54   2.0000      -0.457090       -12.4380
  55   2.0000      -0.450812       -12.2672
  56   2.0000      -0.443387       -12.0652
  57   2.0000      -0.438119       -11.9218
  58   2.0000      -0.436110       -11.8672
  59   2.0000      -0.427855       -11.6425
  60   2.0000      -0.419847       -11.4246
  61   2.0000      -0.411008       -11.1841
  62   2.0000      -0.408353       -11.1119
  63   2.0000      -0.353507        -9.6194
  64   2.0000      -0.331721        -9.0266
  65   2.0000      -0.327186        -8.9032
  66   2.0000      -0.288537        -7.8515
  67   0.0000       0.021013         0.5718
  68   0.0000       0.069655         1.8954
  69   0.0000       0.101840         2.7712
  70   0.0000       0.123905         3.3716
  71   0.0000       0.126483         3.4418

MULLIKEN ATOMIC CHARGES
-----------------------
   0 S :    0.084731
   1 C :   -0.102774
   2 C :   -0.088965
   3 C :    0.049448
   4 C :   -0.121476
   5 H :   -0.025086
   6 C :    0.089950
   7 H :    0.019983
   8 H :    0.030692
   9 C :   -0.069550
  10 H :    0.028921
  11 H :    0.026610
  12 C :   -0.063910
  13 H :    0.034180
  14 H :    0.028396
  15 H :    0.026321
  16 S :    0.089151
  17 C :   -0.080003
  18 C :   -0.028400
  19 C :   -0.018684
  20 C :   -0.146197
  21 H :    0.022314
  22 C :    0.045649
  23 H :    0.009706
  24 H :    0.021636
  25 C :   -0.060501
  26 H :    0.041506
  27 H :    0.021588
  28 C :   -0.014673
  29 H :    0.026650
  30 H :    0.016724
  31 H :    0.019300
  32 H :    0.031570
  33 H :    0.055195
Sum of atomic charges:    0.0000000

LOEWDIN ATOMIC CHARGES
----------------------
   0 S :    0.371605
   1 C :   -0.186039
   2 C :   -0.060142
   3 C :   -0.060365
   4 C :   -0.163423
   5 H :    0.017563
   6 C :   -0.021513
   7 H :    0.031526
   8 H :    0.028157
   9 C :   -0.042392
  10 H :    0.027163
  11 H :    0.021507
  12 C :   -0.078011
  13 H :    0.022769
  14 H :    0.026898
  15 H :    0.026041
  16 S :    0.361872
  17 C :   -0.164850
  18 C :   -0.065081
  19 C :   -0.040713
  20 C :   -0.173738
  21 H :    0.030516
  22 C :   -0.046305
  23 H :    0.028803
  24 H :    0.036463
  25 C :   -0.027650
  26 H :    0.027814
  27 H :    0.021930
  28 C :   -0.055851
  29 H :    0.014604
  30 H :    0.024476
  31 H :    0.024766
  32 H :    0.021707
  33 H :    0.019893

  Mayer bond orders larger than 0.100000
B(  0-S ,  1-C ) :   1.1172 B(  0-S ,  4-C ) :   1.1318 B(  1-C ,  2-C ) :   1.6381
B(  1-C , 32-H ) :   0.9755 B(  2-C ,  3-C ) :   1.2079 B(  2-C ,  6-C ) :   1.0176
B(  3-C ,  4-C ) :   1.5891 B(  3-C ,  5-H ) :   1.0125 B(  4-C , 20-C ) :   1.0639
B(  6-C ,  7-H ) :   0.9377 B(  6-C ,  8-H ) :   0.9506 B(  6-C ,  9-C ) :   1.0585
B(  9-C , 10-H ) :   0.9549 B(  9-C , 11-H ) :   0.9598 B(  9-C , 12-C ) :   1.0756
B( 12-C , 13-H ) :   0.9766 B( 12-C , 14-H ) :   0.9754 B( 12-C , 15-H ) :   0.9713
B( 16-S , 17-C ) :   1.1553 B( 16-S , 20-C ) :   1.1135 B( 17-C , 18-C ) :   1.6217
B( 17-C , 33-H ) :   0.9657 B( 18-C , 19-C ) :   1.2175 B( 18-C , 21-H ) :   0.9907
B( 19-C , 20-C ) :   1.5890 B( 19-C , 22-C ) :   1.0422 B( 22-C , 23-H ) :   0.9247
B( 22-C , 24-H ) :   0.9287 B( 22-C , 25-C ) :   1.0617 B( 25-C , 26-H ) :   0.9567
B( 25-C , 27-H ) :   0.9545 B( 25-C , 28-C ) :   1.0877 B( 28-C , 29-H ) :   0.9782
B( 28-C , 30-H ) :   0.9710 B( 28-C , 31-H ) :   0.9727

Dispersion correction           -0.013680472
FINAL SINGLE POINT ENERGY     -1339.867825108990

DIPOLE MOMENT
-------------
                                X             Y             Z
Electronic contribution:      2.58300      18.23242     -26.99944
Nuclear contribution   :     -2.53917     -18.37653      27.80429
                        -----------------------------------------
Total Dipole Moment    :      0.04384      -0.14411       0.80485
                        -----------------------------------------
Magnitude (a.u.)       :      0.81882
Magnitude (Debye)      :      2.08129

Rotational constants in cm-1:     0.017257     0.008760     0.006058
Rotational constants in MHz :   517.337109   262.626247   181.612125

                             ****ORCA TERMINATED NORMALLY****
TOTAL RUN TIME: 0 days 0 hours 0 minutes 21 seconds 264 msec
