                         Program Version 4.2.1 -  RELEASE  -
|  1> ! wB97X-D3 SP def2-SVP
|  2> %pal
|  3> nprocs 24
|  4> end
|  5>
|  6> * xyz 0 1
|  7> S 	 4.55893 	 -18.7625 	 -112.966
|  8> C 	 3.4974 	 -18.0757 	 -114.191
|  9> C 	 2.22312 	 -18.6241 	 -114.192
| 10> C 	 2.21151 	 -19.799 	 -113.367
| 11> C 	 3.39983 	 -20.0055 	 -112.643
| 12> H 	 1.34766 	 -20.4165 	 -113.241
| 13> C 	 1.02753 	 -18.2187 	 -115.053
| 14> H 	 1.09397 	 -17.1811 	 -115.117
| 15> H 	 0.234235 	 -18.3294 	 -114.443
| 16> C 	 0.801315 	 -19.0974 	 -116.26
| 17> H 	 0.699319 	 -20.1204 	 -115.944
| 18> H 	 -0.144496 	 -18.7871 	 -116.839
| 19> C 	 1.99277 	 -19.2845 	 -117.229
| 20> H 	 2.8159 	 -19.6642 	 -116.788
| 21> H 	 1.54014 	 -19.8591 	 -118.05
| 22> H 	 2.23773 	 -18.301 	 -117.625
| 23> S 	 4.23967 	 -20.5026 	 -110.161
| 24> C 	 3.97751 	 -22.0475 	 -109.392
| 25> C 	 3.6074 	 -23.0002 	 -110.393
| 26> C 	 3.35341 	 -22.3872 	 -111.699
| 27> C 	 3.63602 	 -21.0487 	 -111.674
| 28> H 	 3.3685 	 -23.9477 	 -110.085
| 29> C 	 2.80273 	 -23.2766 	 -112.841
| 30> H 	 2.2432 	 -22.6213 	 -113.498
| 31> H 	 2.17128 	 -24.0527 	 -112.496
| 32> C 	 3.94972 	 -24.1065 	 -113.557
| 33> H 	 3.5955 	 -24.9672 	 -114.095
| 34> H 	 4.46632 	 -24.5105 	 -112.645
| 35> C 	 4.82119 	 -23.1722 	 -114.475
| 36> H 	 4.33126 	 -22.958 	 -115.444
| 37> H 	 5.75193 	 -23.6506 	 -114.785
| 38> H 	 5.07777 	 -22.2062 	 -114.035
| 39> H 	 3.76915 	 -17.2174 	 -114.837
| 40> H 	 4.16324 	 -22.1982 	 -108.32
| 41> *
| 42>
| 43>                          ****END OF INPUT****

CARTESIAN COORDINATES (ANGSTROEM)
---------------------------------
  S      4.558930  -18.762500  -112.966000
  C      3.497400  -18.075700  -114.191000
  C      2.223120  -18.624100  -114.192000
  C      2.211510  -19.799000  -113.367000
  C      3.399830  -20.005500  -112.643000
  H      1.347660  -20.416500  -113.241000
  C      1.027530  -18.218700  -115.053000
  H      1.093970  -17.181100  -115.117000
  H      0.234235  -18.329400  -114.443000
  C      0.801315  -19.097400  -116.260000
  H      0.699319  -20.120400  -115.944000
  H     -0.144496  -18.787100  -116.839000
  C      1.992770  -19.284500  -117.229000
  H      2.815900  -19.664200  -116.788000
  H      1.540140  -19.859100  -118.050000
  H      2.237730  -18.301000  -117.625000
  S      4.239670  -20.502600  -110.161000
  C      3.977510  -22.047500  -109.392000
  C      3.607400  -23.000200  -110.393000
  C      3.353410  -22.387200  -111.699000
  C      3.636020  -21.048700  -111.674000
  H      3.368500  -23.947700  -110.085000
  C      2.802730  -23.276600  -112.841000
  H      2.243200  -22.621300  -113.498000
  H      2.171280  -24.052700  -112.496000
  C      3.949720  -24.106500  -113.557000
  H      3.595500  -24.967200  -114.095000
  H      4.466320  -24.510500  -112.645000
  C      4.821190  -23.172200  -114.475000
  H      4.331260  -22.958000  -115.444000
  H      5.751930  -23.650600  -114.785000
  H      5.077770  -22.206200  -114.035000
  H      3.769150  -17.217400  -114.837000
  H      4.163240  -22.198200  -108.320000

 Total Charge           Charge          ....    0
 Multiplicity           Mult            ....    1
 Number of Electrons    NEL             ....  134
 Basis Dimension        Dim             ....  322

ORBITAL ENERGIES
----------------

  NO   OCC          E(Eh)            E(eV)
   0   2.0000     -88.970726     -2421.0165
   1   2.0000     -88.964167     -2420.8381
   2   2.0000     -10.329910      -281.0911
   3   2.0000     -10.324292      -280.9383
   4   2.0000     -10.323912      -280.9279
   5   2.0000     -10.316501      -280.7263
   6   2.0000     -10.307857      -280.4911
   7   2.0000     -10.302244      -280.3383
   8   2.0000     -10.297145      -280.1996
   9   2.0000     -10.293926      -280.1120
  10   2.0000     -10.293030      -280.0876
  11   2.0000     -10.292952      -280.0855
  12   2.0000     -10.291467      -280.0451
  13   2.0000     -10.280422      -279.7445
  14   2.0000     -10.275148      -279.6010
  15   2.0000     -10.267303      -279.3875
  16   2.0000      -8.085391      -220.0147
  17   2.0000      -8.079869      -219.8644
  18   2.0000      -6.043878      -164.4623
  19   2.0000      -6.039952      -164.3555
  20   2.0000      -6.038386      -164.3128
  21   2.0000      -6.036145      -164.2518
  22   2.0000      -6.034121      -164.1968
  23   2.0000      -6.030689      -164.1034
  24   2.0000      -1.009846       -27.4793
  25   2.0000      -0.982644       -26.7391
  26   2.0000      -0.918091       -24.9825
  27   2.0000      -0.899724       -24.4827
  28   2.0000      -0.867775       -23.6134
  29   2.0000      -0.849350       -23.1120
  30   2.0000      -0.839725       -22.8501
  31   2.0000      -0.810881       -22.0652
  32   2.0000      -0.789953       -21.4957
  33   2.0000      -0.776842       -21.1389
  34   2.0000      -0.707650       -19.2561
  35   2.0000      -0.697349       -18.9758
  36   2.0000      -0.692012       -18.8306
  37   2.0000      -0.669272       -18.2118
  38   2.0000      -0.637514       -17.3476
  39   2.0000      -0.622047       -16.9268
  40   2.0000      -0.592714       -16.1286
  41   2.0000      -0.569213       -15.4891
  42   2.0000      -0.554436       -15.0870
  43   2.0000      -0.550936       -14.9917
  44   2.0000      -0.546632       -14.8746
  45   2.0000      -0.540080       -14.6963
  46   2.0000      -0.518486       -14.1087
  47   2.0000      -0.507951       -13.8220
  48   2.0000      -0.506023       -13.7696
  49   2.0000      -0.496388       -13.5074
  50   2.0000      -0.492265       -13.3952
  51   2.0000      -0.477085       -12.9821
  52   2.0000      -0.469925       -12.7873
  53   2.0000      -0.464096       -12.6287
  54   2.0000      -0.456194       -12.4137
  55   2.0000      -0.450202       -12.2506
  56   2.0000      -0.447829       -12.1860
  57   2.0000      -0.438960       -11.9447
  58   2.0000      -0.431935       -11.7535
  59   2.0000      -0.423616       -11.5272
  60   2.0000      -0.421467       -11.4687
  61   2.0000      -0.411683       -11.2025
  62   2.0000      -0.409585       -11.1454
  63   2.0000      -0.349427        -9.5084
  64   2.0000      -0.334412        -9.0998
  65   2.0000      -0.328877        -8.9492
  66   2.0000      -0.287730        -7.8295
  67   0.0000       0.031427         0.8552
  68   0.0000       0.065596         1.7850
  69   0.0000       0.104315         2.8385
  70   0.0000       0.115586         3.1453
  71   0.0000       0.132467         3.6046

MULLIKEN ATOMIC CHARGES
-----------------------
   0 S :    0.119590
   1 C :   -0.138483
   2 C :   -0.150114
   3 C :    0.021602
   4 C :   -0.148521
   5 H :    0.008836
   6 C :    0.203589
   7 H :    0.003330
   8 H :   -0.012285
   9 C :   -0.107592
  10 H :    0.021194
  11 H :    0.045644
  12 C :   -0.014139
  13 H :    0.030585
  14 H :    0.036650
  15 H :    0.014054
  16 S :    0.102587
  17 C :   -0.118142
  18 C :   -0.003642
  19 C :   -0.060259
  20 C :   -0.137646
  21 H :   -0.007562
  22 C :    0.101511
  23 H :    0.011735
  24 H :    0.014635
  25 C :   -0.078417
  26 H :    0.031707
  27 H :    0.031828
  28 C :   -0.051878
  29 H :    0.030496
  30 H :    0.028492
  31 H :    0.040163
  32 H :    0.055988
  33 H :    0.074463
Sum of atomic charges:   -0.0000000

LOEWDIN ATOMIC CHARGES
----------------------
   0 S :    0.411037
   1 C :   -0.203347
   2 C :   -0.054945
   3 C :   -0.062785
   4 C :   -0.199896
   5 H :    0.024872
   6 C :   -0.023198
   7 H :    0.024800
   8 H :    0.021645
   9 C :   -0.038694
  10 H :    0.022290
  11 H :    0.033838
  12 C :   -0.051397
  13 H :    0.009058
  14 H :    0.032739
  15 H :    0.019813
  16 S :    0.418225
  17 C :   -0.190020
  18 C :   -0.056366
  19 C :   -0.054037
  20 C :   -0.209863
  21 H :    0.013016
  22 C :   -0.021991
  23 H :    0.021902
  24 H :    0.025430
  25 C :   -0.034336
  26 H :    0.019695
  27 H :    0.028528
  28 C :   -0.070548
  29 H :    0.027808
  30 H :    0.023888
  31 H :    0.026611
  32 H :    0.032220
  33 H :    0.034008

  Mayer bond orders larger than 0.100000
B(  0-S ,  1-C ) :   1.1338 B(  0-S ,  4-C ) :   1.1524 B(  1-C ,  2-C ) :   1.6131
B(  1-C , 32-H ) :   0.9626 B(  2-C ,  3-C ) :   1.2431 B(  2-C ,  6-C ) :   1.0120
B(  3-C ,  4-C ) :   1.5610 B(  3-C ,  5-H ) :   0.9923 B(  4-C , 20-C ) :   1.0343
B(  6-C ,  7-H ) :   0.9318 B(  6-C ,  8-H ) :   0.9161 B(  6-C ,  9-C ) :   1.0663
B(  9-C , 10-H ) :   0.9554 B(  9-C , 11-H ) :   0.9567 B(  9-C , 12-C ) :   1.0742
B( 12-C , 13-H ) :   0.9752 B( 12-C , 14-H ) :   0.9745 B( 12-C , 15-H ) :   0.9765
B( 16-S , 17-C ) :   1.1621 B( 16-S , 20-C ) :   1.1473 B( 17-C , 18-C ) :   1.5908
B( 17-C , 33-H ) :   0.9698 B( 18-C , 19-C ) :   1.2198 B( 18-C , 21-H ) :   0.9989
B( 19-C , 20-C ) :   1.6149 B( 19-C , 22-C ) :   1.0438 B( 22-C , 23-H ) :   0.9376
B( 22-C , 24-H ) :   0.9352 B( 22-C , 25-C ) :   1.0582 B( 25-C , 26-H ) :   0.9613
B( 25-C , 27-H ) :   0.9584 B( 25-C , 28-C ) :   1.0643 B( 28-C , 29-H ) :   0.9756
B( 28-C , 30-H ) :   0.9753 B( 28-C , 31-H ) :   0.9783

Dispersion correction           -0.015413285
FINAL SINGLE POINT ENERGY     -1339.859052064636

DIPOLE MOMENT
-------------
                                X             Y             Z
Electronic contribution:      9.58172       9.79656      23.15732
Nuclear contribution   :    -10.10578     -10.07144     -23.40499
                        -----------------------------------------
Total Dipole Moment    :     -0.52406      -0.27488      -0.24767
                        -----------------------------------------
Magnitude (a.u.)       :      0.64151
Magnitude (Debye)      :      1.63059

Rotational constants in cm-1:     0.019983     0.009388     0.007581
Rotational constants in MHz :   599.082940   281.450356   227.273411

                             ****ORCA TERMINATED NORMALLY****
TOTAL RUN TIME: 0 days 0 hours 0 minutes 22 seconds 440 msec
