                         Program Version 4.2.1 -  RELEASE  -
|  1> ! wB97X-D3 SP def2-SVP
|  2> %pal
|  3> nprocs 24
|  4> end
|  5>
|  6> * xyz 0 1
|  7> S 	 -53.5583 	 -47.9214 	 -82.304
|  8> C 	 -53.3047 	 -46.6138 	 -81.1428
|  9> C 	 -53.148 	 -47.1424 	 -79.8449
| 10> C 	 -52.9726 	 -48.5636 	 -79.8749
| 11> C 	 -52.9694 	 -49.1341 	 -81.1289
| 12> H 	 -52.7004 	 -49.096 	 -78.9373
| 13> C 	 -53.1074 	 -46.3417 	 -78.5664
| 14> H 	 -53.9577 	 -46.6103 	 -77.9302
| 15> H 	 -53.2287 	 -45.2677 	 -78.7656
| 16> C 	 -51.7252 	 -46.6155 	 -77.841
| 17> H 	 -51.7902 	 -46.0511 	 -76.8878
| 18> H 	 -51.6762 	 -47.6232 	 -77.478
| 19> C 	 -50.3467 	 -46.3086 	 -78.5203
| 20> H 	 -49.5031 	 -46.0954 	 -77.7815
| 21> H 	 -50.061 	 -47.1737 	 -79.1484
| 22> H 	 -50.4773 	 -45.4978 	 -79.2132
| 23> S 	 -53.904 	 -51.1348 	 -82.6169
| 24> C 	 -53.1843 	 -52.6953 	 -82.4999
| 25> C 	 -52.1201 	 -52.7225 	 -81.6573
| 26> C 	 -51.9112 	 -51.4989 	 -80.9722
| 27> C 	 -52.7922 	 -50.5178 	 -81.4237
| 28> H 	 -51.6316 	 -53.7048 	 -81.4653
| 29> C 	 -50.7665 	 -51.3373 	 -79.9576
| 30> H 	 -50.2195 	 -52.2928 	 -79.6883
| 31> H 	 -51.2964 	 -50.9358 	 -79.0339
| 32> C 	 -49.7708 	 -50.2536 	 -80.4127
| 33> H 	 -50.3147 	 -49.3168 	 -80.6706
| 34> H 	 -49.3217 	 -50.6835 	 -81.3104
| 35> C 	 -48.7105 	 -50.0464 	 -79.4009
| 36> H 	 -48.2538 	 -51.017 	 -79.1536
| 37> H 	 -49.0243 	 -49.5354 	 -78.4561
| 38> H 	 -47.9463 	 -49.3507 	 -79.7055
| 39> H 	 -53.673 	 -45.6319 	 -81.3325
| 40> H 	 -53.4678 	 -53.5827 	 -83.0719
| 41> *
| 42>
| 43>                          ****END OF INPUT****

CARTESIAN COORDINATES (ANGSTROEM)
---------------------------------
  S    -53.558300  -47.921400  -82.304000
  C    -53.304700  -46.613800  -81.142800
  C    -53.148000  -47.142400  -79.844900
  C    -52.972600  -48.563600  -79.874900
  C    -52.969400  -49.134100  -81.128900
  H    -52.700400  -49.096000  -78.937300
  C    -53.107400  -46.341700  -78.566400
  H    -53.957700  -46.610300  -77.930200
  H    -53.228700  -45.267700  -78.765600
  C    -51.725200  -46.615500  -77.841000
  H    -51.790200  -46.051100  -76.887800
  H    -51.676200  -47.623200  -77.478000
  C    -50.346700  -46.308600  -78.520300
  H    -49.503100  -46.095400  -77.781500
  H    -50.061000  -47.173700  -79.148400
  H    -50.477300  -45.497800  -79.213200
  S    -53.904000  -51.134800  -82.616900
  C    -53.184300  -52.695300  -82.499900
  C    -52.120100  -52.722500  -81.657300
  C    -51.911200  -51.498900  -80.972200
  C    -52.792200  -50.517800  -81.423700
  H    -51.631600  -53.704800  -81.465300
  C    -50.766500  -51.337300  -79.957600
  H    -50.219500  -52.292800  -79.688300
  H    -51.296400  -50.935800  -79.033900
  C    -49.770800  -50.253600  -80.412700
  H    -50.314700  -49.316800  -80.670600
  H    -49.321700  -50.683500  -81.310400
  C    -48.710500  -50.046400  -79.400900
  H    -48.253800  -51.017000  -79.153600
  H    -49.024300  -49.535400  -78.456100
  H    -47.946300  -49.350700  -79.705500
  H    -53.673000  -45.631900  -81.332500
  H    -53.467800  -53.582700  -83.071900

 Total Charge           Charge          ....    0
 Multiplicity           Mult            ....    1
 Number of Electrons    NEL             ....  134
 Basis Dimension        Dim             ....  322

ORBITAL ENERGIES
----------------

  NO   OCC          E(Eh)            E(eV)
   0   2.0000     -88.966821     -2420.9103
   1   2.0000     -88.965643     -2420.8782
   2   2.0000     -10.332751      -281.1684
   3   2.0000     -10.325203      -280.9631
   4   2.0000     -10.314251      -280.6650
   5   2.0000     -10.312601      -280.6201
   6   2.0000     -10.306656      -280.4584
   7   2.0000     -10.304753      -280.4066
   8   2.0000     -10.302745      -280.3519
   9   2.0000     -10.301853      -280.3277
  10   2.0000     -10.295710      -280.1605
  11   2.0000     -10.292280      -280.0672
  12   2.0000     -10.291938      -280.0579
  13   2.0000     -10.285898      -279.8935
  14   2.0000     -10.282233      -279.7938
  15   2.0000     -10.275722      -279.6166
  16   2.0000      -8.082360      -219.9322
  17   2.0000      -8.079529      -219.8552
  18   2.0000      -6.040826      -164.3792
  19   2.0000      -6.038279      -164.3099
  20   2.0000      -6.036789      -164.2694
  21   2.0000      -6.034301      -164.2017
  22   2.0000      -6.033085      -164.1686
  23   2.0000      -6.029933      -164.0828
  24   2.0000      -1.011146       -27.5147
  25   2.0000      -0.982648       -26.7392
  26   2.0000      -0.912592       -24.8329
  27   2.0000      -0.905943       -24.6520
  28   2.0000      -0.870912       -23.6987
  29   2.0000      -0.855519       -23.2799
  30   2.0000      -0.839089       -22.8328
  31   2.0000      -0.814991       -22.1770
  32   2.0000      -0.781379       -21.2624
  33   2.0000      -0.770465       -20.9654
  34   2.0000      -0.711634       -19.3646
  35   2.0000      -0.697267       -18.9736
  36   2.0000      -0.686846       -18.6900
  37   2.0000      -0.661018       -17.9872
  38   2.0000      -0.635266       -17.2865
  39   2.0000      -0.624555       -16.9950
  40   2.0000      -0.595305       -16.1991
  41   2.0000      -0.571626       -15.5547
  42   2.0000      -0.560020       -15.2389
  43   2.0000      -0.548891       -14.9361
  44   2.0000      -0.528932       -14.3930
  45   2.0000      -0.520540       -14.1646
  46   2.0000      -0.517210       -14.0740
  47   2.0000      -0.510801       -13.8996
  48   2.0000      -0.504861       -13.7380
  49   2.0000      -0.501960       -13.6590
  50   2.0000      -0.488379       -13.2895
  51   2.0000      -0.485842       -13.2204
  52   2.0000      -0.471130       -12.8201
  53   2.0000      -0.465603       -12.6697
  54   2.0000      -0.459309       -12.4984
  55   2.0000      -0.452009       -12.2998
  56   2.0000      -0.444472       -12.0947
  57   2.0000      -0.439256       -11.9528
  58   2.0000      -0.426638       -11.6094
  59   2.0000      -0.423293       -11.5184
  60   2.0000      -0.420394       -11.4395
  61   2.0000      -0.414942       -11.2912
  62   2.0000      -0.410869       -11.1803
  63   2.0000      -0.355624        -9.6770
  64   2.0000      -0.335488        -9.1291
  65   2.0000      -0.325490        -8.8570
  66   2.0000      -0.284245        -7.7347
  67   0.0000       0.019348         0.5265
  68   0.0000       0.068670         1.8686
  69   0.0000       0.102611         2.7922
  70   0.0000       0.117485         3.1969
  71   0.0000       0.127737         3.4759

MULLIKEN ATOMIC CHARGES
-----------------------
   0 S :    0.089615
   1 C :   -0.100026
   2 C :   -0.114928
   3 C :   -0.001776
   4 C :   -0.122966
   5 H :    0.023451
   6 C :    0.087075
   7 H :    0.046679
   8 H :    0.023749
   9 C :   -0.120956
  10 H :    0.028148
  11 H :    0.021834
  12 C :   -0.050027
  13 H :    0.054743
  14 H :    0.036294
  15 H :    0.027720
  16 S :    0.110109
  17 C :   -0.085834
  18 C :   -0.062006
  19 C :   -0.012575
  20 C :   -0.159091
  21 H :    0.030673
  22 C :    0.024841
  23 H :    0.036325
  24 H :    0.032085
  25 C :   -0.087424
  26 H :    0.061006
  27 H :    0.030241
  28 C :   -0.027008
  29 H :    0.024981
  30 H :    0.024585
  31 H :    0.028339
  32 H :    0.045420
  33 H :    0.056705
Sum of atomic charges:   -0.0000000

LOEWDIN ATOMIC CHARGES
----------------------
   0 S :    0.375637
   1 C :   -0.197541
   2 C :   -0.058976
   3 C :   -0.069953
   4 C :   -0.180639
   5 H :    0.033837
   6 C :   -0.028950
   7 H :    0.039981
   8 H :    0.031046
   9 C :   -0.046701
  10 H :    0.024789
  11 H :    0.015474
  12 C :   -0.070076
  13 H :    0.039251
  14 H :    0.028588
  15 H :    0.022377
  16 S :    0.422093
  17 C :   -0.194516
  18 C :   -0.081220
  19 C :   -0.053215
  20 C :   -0.197764
  21 H :    0.039664
  22 C :   -0.033548
  23 H :    0.035238
  24 H :    0.032852
  25 C :   -0.046108
  26 H :    0.031287
  27 H :    0.027350
  28 C :   -0.071355
  29 H :    0.025919
  30 H :    0.025851
  31 H :    0.024914
  32 H :    0.020997
  33 H :    0.033417

  Mayer bond orders larger than 0.100000
B(  0-S ,  1-C ) :   1.1220 B(  0-S ,  4-C ) :   1.1294 B(  1-C ,  2-C ) :   1.6058
B(  1-C ,  4-C ) :   0.1003 B(  1-C , 32-H ) :   0.9655 B(  2-C ,  3-C ) :   1.2457
B(  2-C ,  6-C ) :   1.0373 B(  3-C ,  4-C ) :   1.5519 B(  3-C ,  5-H ) :   0.9859
B(  4-C , 20-C ) :   1.1015 B(  6-C ,  7-H ) :   0.9365 B(  6-C ,  8-H ) :   0.9419
B(  6-C ,  9-C ) :   1.0640 B(  9-C , 10-H ) :   0.9578 B(  9-C , 11-H ) :   0.9596
B(  9-C , 12-C ) :   1.0577 B( 12-C , 13-H ) :   0.9744 B( 12-C , 14-H ) :   0.9726
B( 12-C , 15-H ) :   0.9762 B( 16-S , 17-C ) :   1.1563 B( 16-S , 20-C ) :   1.1422
B( 17-C , 18-C ) :   1.6240 B( 17-C , 33-H ) :   0.9622 B( 18-C , 19-C ) :   1.2529
B( 18-C , 21-H ) :   0.9830 B( 19-C , 20-C ) :   1.5715 B( 19-C , 22-C ) :   1.0292
B( 22-C , 23-H ) :   0.9419 B( 22-C , 24-H ) :   0.9304 B( 22-C , 25-C ) :   1.0596
B( 25-C , 26-H ) :   0.9496 B( 25-C , 27-H ) :   0.9477 B( 25-C , 28-C ) :   1.1026
B( 28-C , 29-H ) :   0.9659 B( 28-C , 30-H ) :   0.9671 B( 28-C , 31-H ) :   0.9690

Dispersion correction           -0.016150304
FINAL SINGLE POINT ENERGY     -1339.881983870659

DIPOLE MOMENT
-------------
                                X             Y             Z
Electronic contribution:    -21.53816      -7.64360     -21.44835
Nuclear contribution   :     21.80986       7.57189      22.04123
                        -----------------------------------------
Total Dipole Moment    :      0.27170      -0.07171       0.59288
                        -----------------------------------------
Magnitude (a.u.)       :      0.65610
Magnitude (Debye)      :      1.66768

Rotational constants in cm-1:     0.018603     0.010803     0.007552
Rotational constants in MHz :   557.699410   323.874615   226.414365

                             ****ORCA TERMINATED NORMALLY****
TOTAL RUN TIME: 0 days 0 hours 0 minutes 22 seconds 301 msec
