                         Program Version 4.2.1 -  RELEASE  -
|  1> ! wB97X-D3 SP def2-SVP
|  2> %pal
|  3> nprocs 24
|  4> end
|  5>
|  6> * xyz 0 1
|  7> S 	 -67.3011 	 5.12515 	 -76.1521
|  8> C 	 -66.887 	 3.53442 	 -76.7467
|  9> C 	 -67.7597 	 3.1531 	 -77.7269
| 10> C 	 -68.8152 	 4.13763 	 -77.9465
| 11> C 	 -68.6594 	 5.30735 	 -77.2517
| 12> H 	 -69.6027 	 4.14268 	 -78.6363
| 13> C 	 -67.754 	 1.8128 	 -78.4851
| 14> H 	 -68.2632 	 1.10103 	 -77.808
| 15> H 	 -66.7485 	 1.49015 	 -78.5882
| 16> C 	 -68.4323 	 1.7612 	 -79.804
| 17> H 	 -69.4909 	 1.88225 	 -79.8045
| 18> H 	 -67.9486 	 2.48609 	 -80.4287
| 19> C 	 -68.2509 	 0.356664 	 -80.3994
| 20> H 	 -69.0729 	 -0.333782 	 -80.0962
| 21> H 	 -68.3786 	 0.517939 	 -81.5061
| 22> H 	 -67.2881 	 0.00744285 	 -80.1383
| 23> S 	 -68.4542 	 7.93333 	 -77.4534
| 24> C 	 -69.9021 	 8.94163 	 -77.4715
| 25> C 	 -71.0463 	 8.20961 	 -77.623
| 26> C 	 -70.8081 	 6.75393 	 -77.6081
| 27> C 	 -69.4426 	 6.51193 	 -77.4495
| 28> H 	 -71.9648 	 8.69666 	 -77.7864
| 29> C 	 -71.9653 	 5.74544 	 -77.6124
| 30> H 	 -72.7955 	 6.11888 	 -76.8469
| 31> H 	 -71.5741 	 4.89133 	 -77.1553
| 32> C 	 -72.6839 	 5.46984 	 -79.0122
| 33> H 	 -71.9916 	 5.16738 	 -79.7972
| 34> H 	 -73.1097 	 6.3746 	 -79.3549
| 35> C 	 -73.6791 	 4.31945 	 -79.0045
| 36> H 	 -74.5293 	 4.37129 	 -78.3106
| 37> H 	 -73.1412 	 3.37928 	 -78.7608
| 38> H 	 -74.1382 	 4.21153 	 -79.9984
| 39> H 	 -65.9685 	 2.97131 	 -76.526
| 40> H 	 -70.0179 	 9.98205 	 -77.3846
| 41> *
| 42>
| 43>                          ****END OF INPUT****

CARTESIAN COORDINATES (ANGSTROEM)
---------------------------------
  S    -67.301100    5.125150  -76.152100
  C    -66.887000    3.534420  -76.746700
  C    -67.759700    3.153100  -77.726900
  C    -68.815200    4.137630  -77.946500
  C    -68.659400    5.307350  -77.251700
  H    -69.602700    4.142680  -78.636300
  C    -67.754000    1.812800  -78.485100
  H    -68.263200    1.101030  -77.808000
  H    -66.748500    1.490150  -78.588200
  C    -68.432300    1.761200  -79.804000
  H    -69.490900    1.882250  -79.804500
  H    -67.948600    2.486090  -80.428700
  C    -68.250900    0.356664  -80.399400
  H    -69.072900   -0.333782  -80.096200
  H    -68.378600    0.517939  -81.506100
  H    -67.288100    0.007443  -80.138300
  S    -68.454200    7.933330  -77.453400
  C    -69.902100    8.941630  -77.471500
  C    -71.046300    8.209610  -77.623000
  C    -70.808100    6.753930  -77.608100
  C    -69.442600    6.511930  -77.449500
  H    -71.964800    8.696660  -77.786400
  C    -71.965300    5.745440  -77.612400
  H    -72.795500    6.118880  -76.846900
  H    -71.574100    4.891330  -77.155300
  C    -72.683900    5.469840  -79.012200
  H    -71.991600    5.167380  -79.797200
  H    -73.109700    6.374600  -79.354900
  C    -73.679100    4.319450  -79.004500
  H    -74.529300    4.371290  -78.310600
  H    -73.141200    3.379280  -78.760800
  H    -74.138200    4.211530  -79.998400
  H    -65.968500    2.971310  -76.526000
  H    -70.017900    9.982050  -77.384600

 Total Charge           Charge          ....    0
 Multiplicity           Mult            ....    1
 Number of Electrons    NEL             ....  134
 Basis Dimension        Dim             ....  322

ORBITAL ENERGIES
----------------

  NO   OCC          E(Eh)            E(eV)
   0   2.0000     -88.966441     -2420.8999
   1   2.0000     -88.963983     -2420.8331
   2   2.0000     -10.328380      -281.0495
   3   2.0000     -10.326294      -280.9927
   4   2.0000     -10.313457      -280.6434
   5   2.0000     -10.311688      -280.5953
   6   2.0000     -10.310365      -280.5593
   7   2.0000     -10.304277      -280.3936
   8   2.0000     -10.302727      -280.3515
   9   2.0000     -10.291888      -280.0565
  10   2.0000     -10.291315      -280.0409
  11   2.0000     -10.289003      -279.9780
  12   2.0000     -10.288016      -279.9511
  13   2.0000     -10.283785      -279.8360
  14   2.0000     -10.281185      -279.7653
  15   2.0000     -10.278813      -279.7007
  16   2.0000      -8.081299      -219.9033
  17   2.0000      -8.078485      -219.8268
  18   2.0000      -6.039986      -164.3564
  19   2.0000      -6.037152      -164.2792
  20   2.0000      -6.035858      -164.2440
  21   2.0000      -6.032941      -164.1647
  22   2.0000      -6.031773      -164.1329
  23   2.0000      -6.029152      -164.0616
  24   2.0000      -1.007071       -27.4038
  25   2.0000      -0.981425       -26.7059
  26   2.0000      -0.920407       -25.0455
  27   2.0000      -0.901694       -24.5363
  28   2.0000      -0.875958       -23.8360
  29   2.0000      -0.853147       -23.2153
  30   2.0000      -0.842494       -22.9254
  31   2.0000      -0.819874       -22.3099
  32   2.0000      -0.778472       -21.1833
  33   2.0000      -0.770035       -20.9537
  34   2.0000      -0.711815       -19.3695
  35   2.0000      -0.702090       -19.1048
  36   2.0000      -0.690813       -18.7980
  37   2.0000      -0.664128       -18.0718
  38   2.0000      -0.642821       -17.4920
  39   2.0000      -0.617665       -16.8075
  40   2.0000      -0.590537       -16.0693
  41   2.0000      -0.583569       -15.8797
  42   2.0000      -0.569005       -15.4834
  43   2.0000      -0.561775       -15.2867
  44   2.0000      -0.529797       -14.4165
  45   2.0000      -0.525141       -14.2898
  46   2.0000      -0.514119       -13.9899
  47   2.0000      -0.509131       -13.8542
  48   2.0000      -0.506462       -13.7815
  49   2.0000      -0.500971       -13.6321
  50   2.0000      -0.497137       -13.5278
  51   2.0000      -0.480514       -13.0754
  52   2.0000      -0.468568       -12.7504
  53   2.0000      -0.463386       -12.6094
  54   2.0000      -0.457192       -12.4408
  55   2.0000      -0.451716       -12.2918
  56   2.0000      -0.445927       -12.1343
  57   2.0000      -0.438321       -11.9273
  58   2.0000      -0.436655       -11.8820
  59   2.0000      -0.426938       -11.6176
  60   2.0000      -0.424446       -11.5498
  61   2.0000      -0.421039       -11.4571
  62   2.0000      -0.407891       -11.0993
  63   2.0000      -0.352659        -9.5963
  64   2.0000      -0.329920        -8.9776
  65   2.0000      -0.325478        -8.8567
  66   2.0000      -0.292099        -7.9484
  67   0.0000       0.028548         0.7768
  68   0.0000       0.080875         2.2007
  69   0.0000       0.109250         2.9729
  70   0.0000       0.118831         3.2336
  71   0.0000       0.124681         3.3927

MULLIKEN ATOMIC CHARGES
-----------------------
   0 S :    0.107688
   1 C :   -0.133292
   2 C :   -0.073561
   3 C :    0.031026
   4 C :   -0.130236
   5 H :   -0.019189
   6 C :    0.069048
   7 H :    0.041295
   8 H :    0.010218
   9 C :   -0.080846
  10 H :    0.029142
  11 H :    0.029596
  12 C :   -0.049267
  13 H :    0.044534
  14 H :    0.039242
  15 H :    0.022171
  16 S :    0.111461
  17 C :   -0.056600
  18 C :   -0.028837
  19 C :   -0.027167
  20 C :   -0.167378
  21 H :    0.003521
  22 C :    0.031449
  23 H :    0.049103
  24 H :    0.009922
  25 C :   -0.039309
  26 H :    0.030676
  27 H :    0.018821
  28 C :   -0.065526
  29 H :    0.031083
  30 H :    0.033330
  31 H :    0.037850
  32 H :    0.056639
  33 H :    0.033391
Sum of atomic charges:    0.0000000

LOEWDIN ATOMIC CHARGES
----------------------
   0 S :    0.396250
   1 C :   -0.205649
   2 C :   -0.059247
   3 C :   -0.062088
   4 C :   -0.195341
   5 H :    0.018848
   6 C :   -0.032155
   7 H :    0.038234
   8 H :    0.023311
   9 C :   -0.042165
  10 H :    0.021613
  11 H :    0.022851
  12 C :   -0.058042
  13 H :    0.030082
  14 H :    0.034152
  15 H :    0.014604
  16 S :    0.408433
  17 C :   -0.176883
  18 C :   -0.058952
  19 C :   -0.055704
  20 C :   -0.194475
  21 H :    0.023605
  22 C :   -0.033095
  23 H :    0.046317
  24 H :    0.017565
  25 C :   -0.036179
  26 H :    0.027037
  27 H :    0.017115
  28 C :   -0.069956
  29 H :    0.022150
  30 H :    0.027974
  31 H :    0.030005
  32 H :    0.037519
  33 H :    0.022264

  Mayer bond orders larger than 0.100000
B(  0-S ,  1-C ) :   1.1200 B(  0-S ,  4-C ) :   1.1357 B(  1-C ,  2-C ) :   1.6412
B(  1-C , 32-H ) :   0.9666 B(  2-C ,  3-C ) :   1.2103 B(  2-C ,  6-C ) :   1.0113
B(  3-C ,  4-C ) :   1.5893 B(  3-C ,  5-H ) :   1.0024 B(  4-C , 20-C ) :   1.0523
B(  6-C ,  7-H ) :   0.9334 B(  6-C ,  8-H ) :   0.9382 B(  6-C ,  9-C ) :   1.0977
B(  9-C , 10-H ) :   0.9418 B(  9-C , 11-H ) :   0.9589 B(  9-C , 12-C ) :   1.0824
B( 12-C , 13-H ) :   0.9771 B( 12-C , 14-H ) :   0.9745 B( 12-C , 15-H ) :   0.9751
B( 16-S , 17-C ) :   1.1178 B( 16-S , 20-C ) :   1.1398 B( 17-C , 18-C ) :   1.6714
B( 17-C , 33-H ) :   0.9691 B( 18-C , 19-C ) :   1.1964 B( 18-C , 21-H ) :   0.9911
B( 19-C , 20-C ) :   1.6102 B( 19-C , 22-C ) :   1.0447 B( 22-C , 23-H ) :   0.9415
B( 22-C , 24-H ) :   0.9353 B( 22-C , 25-C ) :   1.0426 B( 25-C , 26-H ) :   0.9556
B( 25-C , 27-H ) :   0.9563 B( 25-C , 28-C ) :   1.0848 B( 28-C , 29-H ) :   0.9759
B( 28-C , 30-H ) :   0.9750 B( 28-C , 31-H ) :   0.9737

Dispersion correction           -0.013613896
FINAL SINGLE POINT ENERGY     -1339.869649820362

DIPOLE MOMENT
-------------
                                X             Y             Z
Electronic contribution:     17.19365      22.69515      16.04749
Nuclear contribution   :    -17.67165     -23.08284     -16.49318
                        -----------------------------------------
Total Dipole Moment    :     -0.47800      -0.38769      -0.44569
                        -----------------------------------------
Magnitude (a.u.)       :      0.75989
Magnitude (Debye)      :      1.93148

Rotational constants in cm-1:     0.015589     0.009594     0.006488
Rotational constants in MHz :   467.333764   287.617815   194.511677

                             ****ORCA TERMINATED NORMALLY****
TOTAL RUN TIME: 0 days 0 hours 0 minutes 21 seconds 266 msec
