                         Program Version 4.2.1 -  RELEASE  -
|  1> ! wB97X-D3 SP def2-SVP
|  2> %pal
|  3> nprocs 24
|  4> end
|  5>
|  6> * xyz 0 1
|  7> S 	 -81.3423 	 -42.8535 	 -91.6443
|  8> C 	 -79.8955 	 -42.0666 	 -91.1258
|  9> C 	 -79.0321 	 -42.9009 	 -90.4435
| 10> C 	 -79.7666 	 -44.0482 	 -89.9485
| 11> C 	 -81.1186 	 -44.1537 	 -90.3857
| 12> H 	 -79.3201 	 -44.7732 	 -89.3034
| 13> C 	 -77.6454 	 -42.5231 	 -90.1366
| 14> H 	 -77.4361 	 -41.4822 	 -90.4511
| 15> H 	 -76.9404 	 -43.1947 	 -90.5577
| 16> C 	 -77.2182 	 -42.3335 	 -88.6765
| 17> H 	 -77.506 	 -41.379 	 -88.2271
| 18> H 	 -77.7311 	 -43.1217 	 -88.0879
| 19> C 	 -75.7241 	 -42.3937 	 -88.4137
| 20> H 	 -75.1219 	 -41.723 	 -88.9991
| 21> H 	 -75.5296 	 -42.1515 	 -87.342
| 22> H 	 -75.3863 	 -43.4476 	 -88.6506
| 23> S 	 -83.5399 	 -44.608 	 -89.0338
| 24> C 	 -83.9742 	 -46.2615 	 -88.7599
| 25> C 	 -83.153 	 -47.1417 	 -89.4845
| 26> C 	 -82.1089 	 -46.5178 	 -90.1532
| 27> C 	 -82.1124 	 -45.1396 	 -90.0039
| 28> H 	 -83.3894 	 -48.1871 	 -89.4238
| 29> C 	 -81.0154 	 -47.2562 	 -90.8737
| 30> H 	 -80.7527 	 -48.226 	 -90.3193
| 31> H 	 -80.1031 	 -46.628 	 -90.6324
| 32> C 	 -81.0071 	 -47.1903 	 -92.4095
| 33> H 	 -79.9987 	 -47.457 	 -92.7451
| 34> H 	 -81.2395 	 -46.1429 	 -92.6964
| 35> C 	 -82.0905 	 -48.1749 	 -93.0279
| 36> H 	 -82.1131 	 -48.1114 	 -94.0978
| 37> H 	 -83.0231 	 -47.8929 	 -92.6579
| 38> H 	 -81.8832 	 -49.1507 	 -92.6742
| 39> H 	 -79.671 	 -41.0552 	 -91.5345
| 40> H 	 -84.745 	 -46.608 	 -88.2056
| 41> *
| 42>
| 43>                          ****END OF INPUT****

CARTESIAN COORDINATES (ANGSTROEM)
---------------------------------
  S    -81.342300  -42.853500  -91.644300
  C    -79.895500  -42.066600  -91.125800
  C    -79.032100  -42.900900  -90.443500
  C    -79.766600  -44.048200  -89.948500
  C    -81.118600  -44.153700  -90.385700
  H    -79.320100  -44.773200  -89.303400
  C    -77.645400  -42.523100  -90.136600
  H    -77.436100  -41.482200  -90.451100
  H    -76.940400  -43.194700  -90.557700
  C    -77.218200  -42.333500  -88.676500
  H    -77.506000  -41.379000  -88.227100
  H    -77.731100  -43.121700  -88.087900
  C    -75.724100  -42.393700  -88.413700
  H    -75.121900  -41.723000  -88.999100
  H    -75.529600  -42.151500  -87.342000
  H    -75.386300  -43.447600  -88.650600
  S    -83.539900  -44.608000  -89.033800
  C    -83.974200  -46.261500  -88.759900
  C    -83.153000  -47.141700  -89.484500
  C    -82.108900  -46.517800  -90.153200
  C    -82.112400  -45.139600  -90.003900
  H    -83.389400  -48.187100  -89.423800
  C    -81.015400  -47.256200  -90.873700
  H    -80.752700  -48.226000  -90.319300
  H    -80.103100  -46.628000  -90.632400
  C    -81.007100  -47.190300  -92.409500
  H    -79.998700  -47.457000  -92.745100
  H    -81.239500  -46.142900  -92.696400
  C    -82.090500  -48.174900  -93.027900
  H    -82.113100  -48.111400  -94.097800
  H    -83.023100  -47.892900  -92.657900
  H    -81.883200  -49.150700  -92.674200
  H    -79.671000  -41.055200  -91.534500
  H    -84.745000  -46.608000  -88.205600

 Total Charge           Charge          ....    0
 Multiplicity           Mult            ....    1
 Number of Electrons    NEL             ....  134
 Basis Dimension        Dim             ....  322

ORBITAL ENERGIES
----------------

  NO   OCC          E(Eh)            E(eV)
   0   2.0000     -88.968989     -2420.9693
   1   2.0000     -88.963441     -2420.8183
   2   2.0000     -10.337635      -281.3013
   3   2.0000     -10.327233      -281.0183
   4   2.0000     -10.316854      -280.7359
   5   2.0000     -10.313960      -280.6571
   6   2.0000     -10.303447      -280.3710
   7   2.0000     -10.303048      -280.3602
   8   2.0000     -10.302341      -280.3410
   9   2.0000     -10.295718      -280.1607
  10   2.0000     -10.290561      -280.0204
  11   2.0000     -10.290507      -280.0189
  12   2.0000     -10.289475      -279.9908
  13   2.0000     -10.285446      -279.8812
  14   2.0000     -10.283783      -279.8359
  15   2.0000     -10.265453      -279.3372
  16   2.0000      -8.083010      -219.9499
  17   2.0000      -8.077691      -219.8052
  18   2.0000      -6.041346      -164.3934
  19   2.0000      -6.037583      -164.2910
  20   2.0000      -6.036218      -164.2539
  21   2.0000      -6.034018      -164.1940
  22   2.0000      -6.032415      -164.1503
  23   2.0000      -6.028309      -164.0386
  24   2.0000      -1.001006       -27.2387
  25   2.0000      -0.981938       -26.7199
  26   2.0000      -0.915427       -24.9100
  27   2.0000      -0.904645       -24.6166
  28   2.0000      -0.868620       -23.6363
  29   2.0000      -0.849781       -23.1237
  30   2.0000      -0.846688       -23.0396
  31   2.0000      -0.812582       -22.1115
  32   2.0000      -0.783948       -21.3323
  33   2.0000      -0.770532       -20.9672
  34   2.0000      -0.712701       -19.3936
  35   2.0000      -0.693157       -18.8618
  36   2.0000      -0.690019       -18.7764
  37   2.0000      -0.663539       -18.0558
  38   2.0000      -0.642215       -17.4756
  39   2.0000      -0.621972       -16.9247
  40   2.0000      -0.591885       -16.1060
  41   2.0000      -0.576241       -15.6803
  42   2.0000      -0.565037       -15.3754
  43   2.0000      -0.548441       -14.9238
  44   2.0000      -0.542358       -14.7583
  45   2.0000      -0.525422       -14.2975
  46   2.0000      -0.517841       -14.0912
  47   2.0000      -0.511134       -13.9087
  48   2.0000      -0.504796       -13.7362
  49   2.0000      -0.499875       -13.6023
  50   2.0000      -0.482344       -13.1252
  51   2.0000      -0.477996       -13.0069
  52   2.0000      -0.474897       -12.9226
  53   2.0000      -0.469508       -12.7760
  54   2.0000      -0.458857       -12.4861
  55   2.0000      -0.453098       -12.3294
  56   2.0000      -0.442116       -12.0306
  57   2.0000      -0.438607       -11.9351
  58   2.0000      -0.433013       -11.7829
  59   2.0000      -0.426271       -11.5994
  60   2.0000      -0.421704       -11.4751
  61   2.0000      -0.404955       -11.0194
  62   2.0000      -0.402749       -10.9594
  63   2.0000      -0.336321        -9.1518
  64   2.0000      -0.333274        -9.0689
  65   2.0000      -0.321765        -8.7557
  66   2.0000      -0.296311        -8.0630
  67   0.0000       0.024406         0.6641
  68   0.0000       0.052619         1.4318
  69   0.0000       0.098304         2.6750
  70   0.0000       0.121590         3.3086
  71   0.0000       0.128201         3.4885

MULLIKEN ATOMIC CHARGES
-----------------------
   0 S :    0.101684
   1 C :   -0.146052
   2 C :   -0.058991
   3 C :    0.057437
   4 C :   -0.182761
   5 H :    0.015719
   6 C :    0.087597
   7 H :    0.023214
   8 H :    0.024536
   9 C :   -0.106001
  10 H :    0.028479
  11 H :    0.025862
  12 C :   -0.067027
  13 H :    0.027943
  14 H :    0.044459
  15 H :    0.032842
  16 S :    0.125110
  17 C :   -0.048417
  18 C :   -0.058723
  19 C :    0.020288
  20 C :   -0.186045
  21 H :    0.011446
  22 C :    0.015337
  23 H :    0.042065
  24 H :    0.019279
  25 C :   -0.063288
  26 H :    0.033092
  27 H :    0.037189
  28 C :   -0.000472
  29 H :    0.033590
  30 H :    0.014593
  31 H :    0.014725
  32 H :    0.066697
  33 H :    0.014593
Sum of atomic charges:   -0.0000000

LOEWDIN ATOMIC CHARGES
----------------------
   0 S :    0.377798
   1 C :   -0.192563
   2 C :   -0.069434
   3 C :   -0.045868
   4 C :   -0.180415
   5 H :    0.024731
   6 C :   -0.036498
   7 H :    0.039520
   8 H :    0.029114
   9 C :   -0.046090
  10 H :    0.022132
  11 H :    0.020817
  12 C :   -0.067430
  13 H :    0.018454
  14 H :    0.033721
  15 H :    0.026947
  16 S :    0.407894
  17 C :   -0.165350
  18 C :   -0.072692
  19 C :   -0.051196
  20 C :   -0.198497
  21 H :    0.029854
  22 C :   -0.048897
  23 H :    0.037532
  24 H :    0.040097
  25 C :   -0.028073
  26 H :    0.023421
  27 H :    0.027911
  28 C :   -0.054875
  29 H :    0.022999
  30 H :    0.016385
  31 H :    0.017754
  32 H :    0.033437
  33 H :    0.007364

  Mayer bond orders larger than 0.100000
B(  0-S ,  1-C ) :   1.1571 B(  0-S ,  4-C ) :   1.1178 B(  1-C ,  2-C ) :   1.5924
B(  1-C , 32-H ) :   0.9614 B(  2-C ,  3-C ) :   1.2294 B(  2-C ,  6-C ) :   1.0525
B(  3-C ,  4-C ) :   1.5701 B(  3-C ,  5-H ) :   0.9864 B(  4-C , 20-C ) :   1.0717
B(  6-C ,  7-H ) :   0.9413 B(  6-C ,  8-H ) :   0.9313 B(  6-C ,  9-C ) :   1.0448
B(  9-C , 10-H ) :   0.9615 B(  9-C , 11-H ) :   0.9583 B(  9-C , 12-C ) :   1.0813
B( 12-C , 13-H ) :   0.9755 B( 12-C , 14-H ) :   0.9732 B( 12-C , 15-H ) :   0.9742
B( 16-S , 17-C ) :   1.1814 B( 16-S , 20-C ) :   1.1309 B( 17-C , 18-C ) :   1.5726
B( 17-C , 20-C ) :   0.1126 B( 17-C , 33-H ) :   0.9788 B( 18-C , 19-C ) :   1.2598
B( 18-C , 21-H ) :   0.9990 B( 19-C , 20-C ) :   1.5642 B( 19-C , 22-C ) :   1.0347
B( 22-C , 23-H ) :   0.9409 B( 22-C , 24-H ) :   0.9211 B( 22-C , 25-C ) :   1.0620
B( 25-C , 26-H ) :   0.9586 B( 25-C , 27-H ) :   0.9542 B( 25-C , 28-C ) :   1.0684
B( 28-C , 29-H ) :   0.9776 B( 28-C , 30-H ) :   0.9777 B( 28-C , 31-H ) :   0.9765

Dispersion correction           -0.014352040
FINAL SINGLE POINT ENERGY     -1339.857942185214

DIPOLE MOMENT
-------------
                                X             Y             Z
Electronic contribution:    -21.94085       7.44981       1.32519
Nuclear contribution   :     22.45119      -7.71244      -1.16737
                        -----------------------------------------
Total Dipole Moment    :      0.51034      -0.26263       0.15782
                        -----------------------------------------
Magnitude (a.u.)       :      0.59526
Magnitude (Debye)      :      1.51302

Rotational constants in cm-1:     0.019396     0.007496     0.006967
Rotational constants in MHz :   581.484904   224.721692   208.860054

                             ****ORCA TERMINATED NORMALLY****
TOTAL RUN TIME: 0 days 0 hours 0 minutes 21 seconds 433 msec
