                         Program Version 4.2.1 -  RELEASE  -
|  1> ! wB97X-D3 SP def2-SVP
|  2> %pal
|  3> nprocs 24
|  4> end
|  5>
|  6> * xyz 0 1
|  7> S 	 -35.9487 	 -49.2728 	 -78.434
|  8> C 	 -34.6919 	 -50.332 	 -79.065
|  9> C 	 -33.4153 	 -49.9157 	 -78.8236
| 10> C 	 -33.4299 	 -48.8978 	 -77.8813
| 11> C 	 -34.7051 	 -48.4374 	 -77.5409
| 12> H 	 -32.5686 	 -48.4871 	 -77.3702
| 13> C 	 -32.1867 	 -50.6189 	 -79.3971
| 14> H 	 -32.3154 	 -51.6813 	 -79.1264
| 15> H 	 -31.2617 	 -50.3163 	 -78.889
| 16> C 	 -31.9846 	 -50.4012 	 -80.9167
| 17> H 	 -32.8886 	 -50.5546 	 -81.4143
| 18> H 	 -31.5535 	 -49.4103 	 -81.0252
| 19> C 	 -31.1507 	 -51.5421 	 -81.4907
| 20> H 	 -31.7783 	 -52.443 	 -81.5482
| 21> H 	 -30.7562 	 -51.4566 	 -82.4965
| 22> H 	 -30.3166 	 -51.773 	 -80.8631
| 23> S 	 -36.5669 	 -47.63 	 -75.8678
| 24> C 	 -36.1933 	 -46.4253 	 -74.7074
| 25> C 	 -34.9314 	 -45.913 	 -74.8099
| 26> C 	 -34.1886 	 -46.5479 	 -75.8045
| 27> C 	 -34.9749 	 -47.4796 	 -76.5123
| 28> H 	 -34.635 	 -45.2068 	 -74.1237
| 29> C 	 -32.7176 	 -46.2192 	 -76.1176
| 30> H 	 -32.4027 	 -46.4427 	 -77.0423
| 31> H 	 -32.2351 	 -46.7801 	 -75.3146
| 32> C 	 -32.3354 	 -44.7652 	 -76.0331
| 33> H 	 -32.6639 	 -44.3864 	 -75.0869
| 34> H 	 -32.8347 	 -44.2624 	 -76.8446
| 35> C 	 -30.7282 	 -44.6479 	 -76.0979
| 36> H 	 -30.5054 	 -45.1152 	 -77.0158
| 37> H 	 -30.1485 	 -45.0792 	 -75.2645
| 38> H 	 -30.397 	 -43.6538 	 -76.105
| 39> H 	 -34.8597 	 -51.0637 	 -79.7793
| 40> H 	 -36.9261 	 -46.2363 	 -73.9116
| 41> *
| 42>
| 43>                          ****END OF INPUT****

CARTESIAN COORDINATES (ANGSTROEM)
---------------------------------
  S    -35.948700  -49.272800  -78.434000
  C    -34.691900  -50.332000  -79.065000
  C    -33.415300  -49.915700  -78.823600
  C    -33.429900  -48.897800  -77.881300
  C    -34.705100  -48.437400  -77.540900
  H    -32.568600  -48.487100  -77.370200
  C    -32.186700  -50.618900  -79.397100
  H    -32.315400  -51.681300  -79.126400
  H    -31.261700  -50.316300  -78.889000
  C    -31.984600  -50.401200  -80.916700
  H    -32.888600  -50.554600  -81.414300
  H    -31.553500  -49.410300  -81.025200
  C    -31.150700  -51.542100  -81.490700
  H    -31.778300  -52.443000  -81.548200
  H    -30.756200  -51.456600  -82.496500
  H    -30.316600  -51.773000  -80.863100
  S    -36.566900  -47.630000  -75.867800
  C    -36.193300  -46.425300  -74.707400
  C    -34.931400  -45.913000  -74.809900
  C    -34.188600  -46.547900  -75.804500
  C    -34.974900  -47.479600  -76.512300
  H    -34.635000  -45.206800  -74.123700
  C    -32.717600  -46.219200  -76.117600
  H    -32.402700  -46.442700  -77.042300
  H    -32.235100  -46.780100  -75.314600
  C    -32.335400  -44.765200  -76.033100
  H    -32.663900  -44.386400  -75.086900
  H    -32.834700  -44.262400  -76.844600
  C    -30.728200  -44.647900  -76.097900
  H    -30.505400  -45.115200  -77.015800
  H    -30.148500  -45.079200  -75.264500
  H    -30.397000  -43.653800  -76.105000
  H    -34.859700  -51.063700  -79.779300
  H    -36.926100  -46.236300  -73.911600

 Total Charge           Charge          ....    0
 Multiplicity           Mult            ....    1
 Number of Electrons    NEL             ....  134
 Basis Dimension        Dim             ....  322

ORBITAL ENERGIES
----------------

  NO   OCC          E(Eh)            E(eV)
   0   2.0000     -88.968793     -2420.9639
   1   2.0000     -88.962483     -2420.7922
   2   2.0000     -10.323975      -280.9296
   3   2.0000     -10.320090      -280.8239
   4   2.0000     -10.311143      -280.5805
   5   2.0000     -10.303122      -280.3622
   6   2.0000     -10.301284      -280.3122
   7   2.0000     -10.295208      -280.1468
   8   2.0000     -10.293445      -280.0989
   9   2.0000     -10.286827      -279.9188
  10   2.0000     -10.285361      -279.8789
  11   2.0000     -10.284414      -279.8531
  12   2.0000     -10.283216      -279.8205
  13   2.0000     -10.282968      -279.8138
  14   2.0000     -10.278338      -279.6878
  15   2.0000     -10.275031      -279.5978
  16   2.0000      -8.083244      -219.9563
  17   2.0000      -8.078922      -219.8386
  18   2.0000      -6.041669      -164.4022
  19   2.0000      -6.038057      -164.3039
  20   2.0000      -6.037046      -164.2764
  21   2.0000      -6.033865      -164.1898
  22   2.0000      -6.033316      -164.1749
  23   2.0000      -6.029862      -164.0809
  24   2.0000      -1.014358       -27.6021
  25   2.0000      -0.988807       -26.9068
  26   2.0000      -0.917745       -24.9731
  27   2.0000      -0.913409       -24.8551
  28   2.0000      -0.874978       -23.8094
  29   2.0000      -0.854443       -23.2506
  30   2.0000      -0.848465       -23.0879
  31   2.0000      -0.811170       -22.0731
  32   2.0000      -0.787155       -21.4196
  33   2.0000      -0.773077       -21.0365
  34   2.0000      -0.712441       -19.3865
  35   2.0000      -0.706009       -19.2115
  36   2.0000      -0.698712       -19.0129
  37   2.0000      -0.664625       -18.0854
  38   2.0000      -0.634830       -17.2746
  39   2.0000      -0.624670       -16.9981
  40   2.0000      -0.605538       -16.4775
  41   2.0000      -0.582827       -15.8595
  42   2.0000      -0.576946       -15.6995
  43   2.0000      -0.560244       -15.2450
  44   2.0000      -0.527515       -14.3544
  45   2.0000      -0.522542       -14.2191
  46   2.0000      -0.519442       -14.1347
  47   2.0000      -0.515032       -14.0147
  48   2.0000      -0.506594       -13.7851
  49   2.0000      -0.492387       -13.3985
  50   2.0000      -0.490060       -13.3352
  51   2.0000      -0.478934       -13.0325
  52   2.0000      -0.475208       -12.9311
  53   2.0000      -0.467823       -12.7301
  54   2.0000      -0.462804       -12.5935
  55   2.0000      -0.457250       -12.4424
  56   2.0000      -0.444476       -12.0948
  57   2.0000      -0.441740       -12.0204
  58   2.0000      -0.434362       -11.8196
  59   2.0000      -0.428380       -11.6568
  60   2.0000      -0.425769       -11.5858
  61   2.0000      -0.423490       -11.5238
  62   2.0000      -0.412382       -11.2215
  63   2.0000      -0.359232        -9.7752
  64   2.0000      -0.338748        -9.2178
  65   2.0000      -0.332105        -9.0370
  66   2.0000      -0.270996        -7.3742
  67   0.0000       0.021220         0.5774
  68   0.0000       0.083671         2.2768
  69   0.0000       0.098690         2.6855
  70   0.0000       0.125891         3.4257
  71   0.0000       0.139055         3.7839

MULLIKEN ATOMIC CHARGES
-----------------------
   0 S :    0.114965
   1 C :   -0.098713
   2 C :   -0.047315
   3 C :   -0.034278
   4 C :   -0.111244
   5 H :    0.001992
   6 C :    0.024596
   7 H :    0.039110
   8 H :    0.021261
   9 C :   -0.019077
  10 H :    0.019419
  11 H :    0.039116
  12 C :   -0.055082
  13 H :    0.024484
  14 H :    0.031362
  15 H :    0.019726
  16 S :    0.095805
  17 C :   -0.098116
  18 C :   -0.009414
  19 C :   -0.046493
  20 C :   -0.137991
  21 H :   -0.014310
  22 C :    0.093059
  23 H :    0.002538
  24 H :    0.039237
  25 C :   -0.076503
  26 H :    0.018349
  27 H :    0.040067
  28 C :   -0.028187
  29 H :    0.019280
  30 H :    0.037287
  31 H :    0.022701
  32 H :    0.012001
  33 H :    0.060372
Sum of atomic charges:    0.0000000

LOEWDIN ATOMIC CHARGES
----------------------
   0 S :    0.398562
   1 C :   -0.185145
   2 C :   -0.060284
   3 C :   -0.071116
   4 C :   -0.191591
   5 H :    0.028859
   6 C :   -0.027966
   7 H :    0.035216
   8 H :    0.028855
   9 C :   -0.029726
  10 H :    0.017144
  11 H :    0.027377
  12 C :   -0.064668
  13 H :    0.026872
  14 H :    0.024428
  15 H :    0.017129
  16 S :    0.427913
  17 C :   -0.191328
  18 C :   -0.066430
  19 C :   -0.051550
  20 C :   -0.200977
  21 H :    0.020774
  22 C :   -0.024031
  23 H :    0.009487
  24 H :    0.038594
  25 C :   -0.023138
  26 H :    0.012720
  27 H :    0.026874
  28 C :   -0.056213
  29 H :    0.017887
  30 H :    0.030716
  31 H :    0.018530
  32 H :    0.007831
  33 H :    0.028394

  Mayer bond orders larger than 0.100000
B(  0-S ,  1-C ) :   1.1277 B(  0-S ,  4-C ) :   1.1430 B(  1-C ,  2-C ) :   1.6131
B(  1-C , 32-H ) :   0.9668 B(  2-C ,  3-C ) :   1.2649 B(  2-C ,  6-C ) :   1.0039
B(  3-C ,  4-C ) :   1.5515 B(  3-C ,  5-H ) :   0.9891 B(  4-C , 20-C ) :   1.1048
B(  6-C ,  7-H ) :   0.9506 B(  6-C ,  8-H ) :   0.9418 B(  6-C ,  9-C ) :   1.0540
B(  9-C , 10-H ) :   0.9657 B(  9-C , 11-H ) :   0.9567 B(  9-C , 12-C ) :   1.0702
B( 12-C , 13-H ) :   0.9778 B( 12-C , 14-H ) :   0.9739 B( 12-C , 15-H ) :   0.9749
B( 16-S , 17-C ) :   1.1771 B( 16-S , 20-C ) :   1.1533 B( 17-C , 18-C ) :   1.5752
B( 17-C , 33-H ) :   0.9644 B( 18-C , 19-C ) :   1.2643 B( 18-C , 21-H ) :   1.0110
B( 19-C , 20-C ) :   1.5543 B( 19-C , 22-C ) :   1.0160 B( 22-C , 23-H ) :   0.9402
B( 22-C , 24-H ) :   0.9276 B( 22-C , 25-C ) :   1.0653 B( 25-C , 26-H ) :   0.9519
B( 25-C , 27-H ) :   0.9627 B( 25-C , 28-C ) :   1.0701 B( 28-C , 29-H ) :   0.9777
B( 28-C , 30-H ) :   0.9779 B( 28-C , 31-H ) :   0.9762

Dispersion correction           -0.013204288
FINAL SINGLE POINT ENERGY     -1339.855877274509

DIPOLE MOMENT
-------------
                                X             Y             Z
Electronic contribution:    -29.37129      -1.68128       8.57996
Nuclear contribution   :     30.04918       1.78328      -8.52073
                        -----------------------------------------
Total Dipole Moment    :      0.67789       0.10200       0.05923
                        -----------------------------------------
Magnitude (a.u.)       :      0.68807
Magnitude (Debye)      :      1.74895

Rotational constants in cm-1:     0.017927     0.008304     0.005842
Rotational constants in MHz :   537.446564   248.951518   175.142487

                             ****ORCA TERMINATED NORMALLY****
TOTAL RUN TIME: 0 days 0 hours 0 minutes 21 seconds 168 msec
