                         Program Version 4.2.1 -  RELEASE  -
|  1> ! wB97X-D3 SP def2-SVP
|  2> %pal
|  3> nprocs 24
|  4> end
|  5>
|  6> * xyz 0 1
|  7> S 	 46.6377 	 -21.7655 	 -113.159
|  8> C 	 47.8724 	 -22.8636 	 -113.792
|  9> C 	 47.4967 	 -24.2127 	 -113.617
| 10> C 	 46.2087 	 -24.3335 	 -112.994
| 11> C 	 45.5674 	 -23.0845 	 -112.89
| 12> H 	 45.6087 	 -25.1834 	 -112.686
| 13> C 	 48.1688 	 -25.4145 	 -114.068
| 14> H 	 47.4723 	 -26.2287 	 -114.22
| 15> H 	 48.77 	 -25.7088 	 -113.237
| 16> C 	 48.9968 	 -25.2305 	 -115.364
| 17> H 	 48.4276 	 -24.6154 	 -115.885
| 18> H 	 49.8885 	 -24.7121 	 -115.195
| 19> C 	 49.0677 	 -26.4992 	 -116.192
| 20> H 	 49.561 	 -27.3003 	 -115.637
| 21> H 	 48.0794 	 -26.8578 	 -116.557
| 22> H 	 49.6836 	 -26.3463 	 -117.122
| 23> S 	 43.8 	 -21.5773 	 -111.362
| 24> C 	 42.1589 	 -22.0242 	 -111.316
| 25> C 	 41.9066 	 -23.2124 	 -111.96
| 26> C 	 43.048 	 -23.7374 	 -112.606
| 27> C 	 44.1435 	 -22.9231 	 -112.415
| 28> H 	 40.9555 	 -23.7384 	 -111.826
| 29> C 	 42.9123 	 -24.7299 	 -113.739
| 30> H 	 43.7044 	 -24.5494 	 -114.435
| 31> H 	 42.0377 	 -24.5536 	 -114.372
| 32> C 	 42.8176 	 -26.1706 	 -113.265
| 33> H 	 41.8701 	 -26.3664 	 -112.759
| 34> H 	 43.5298 	 -26.3987 	 -112.495
| 35> C 	 43.0779 	 -27.2214 	 -114.293
| 36> H 	 42.7307 	 -28.2106 	 -113.926
| 37> H 	 44.1318 	 -27.2176 	 -114.429
| 38> H 	 42.6831 	 -26.9145 	 -115.247
| 39> H 	 48.6533 	 -22.4983 	 -114.372
| 40> H 	 41.5573 	 -21.4937 	 -110.596
| 41> *
| 42>
| 43>                          ****END OF INPUT****

CARTESIAN COORDINATES (ANGSTROEM)
---------------------------------
  S     46.637700  -21.765500  -113.159000
  C     47.872400  -22.863600  -113.792000
  C     47.496700  -24.212700  -113.617000
  C     46.208700  -24.333500  -112.994000
  C     45.567400  -23.084500  -112.890000
  H     45.608700  -25.183400  -112.686000
  C     48.168800  -25.414500  -114.068000
  H     47.472300  -26.228700  -114.220000
  H     48.770000  -25.708800  -113.237000
  C     48.996800  -25.230500  -115.364000
  H     48.427600  -24.615400  -115.885000
  H     49.888500  -24.712100  -115.195000
  C     49.067700  -26.499200  -116.192000
  H     49.561000  -27.300300  -115.637000
  H     48.079400  -26.857800  -116.557000
  H     49.683600  -26.346300  -117.122000
  S     43.800000  -21.577300  -111.362000
  C     42.158900  -22.024200  -111.316000
  C     41.906600  -23.212400  -111.960000
  C     43.048000  -23.737400  -112.606000
  C     44.143500  -22.923100  -112.415000
  H     40.955500  -23.738400  -111.826000
  C     42.912300  -24.729900  -113.739000
  H     43.704400  -24.549400  -114.435000
  H     42.037700  -24.553600  -114.372000
  C     42.817600  -26.170600  -113.265000
  H     41.870100  -26.366400  -112.759000
  H     43.529800  -26.398700  -112.495000
  C     43.077900  -27.221400  -114.293000
  H     42.730700  -28.210600  -113.926000
  H     44.131800  -27.217600  -114.429000
  H     42.683100  -26.914500  -115.247000
  H     48.653300  -22.498300  -114.372000
  H     41.557300  -21.493700  -110.596000

 Total Charge           Charge          ....    0
 Multiplicity           Mult            ....    1
 Number of Electrons    NEL             ....  134
 Basis Dimension        Dim             ....  322

ORBITAL ENERGIES
----------------

  NO   OCC          E(Eh)            E(eV)
   0   2.0000     -88.967131     -2420.9187
   1   2.0000     -88.964431     -2420.8452
   2   2.0000     -10.331225      -281.1269
   3   2.0000     -10.328008      -281.0394
   4   2.0000     -10.311993      -280.6036
   5   2.0000     -10.311434      -280.5884
   6   2.0000     -10.304614      -280.4028
   7   2.0000     -10.298925      -280.2480
   8   2.0000     -10.293915      -280.1117
   9   2.0000     -10.292845      -280.0825
  10   2.0000     -10.288316      -279.9593
  11   2.0000     -10.284970      -279.8683
  12   2.0000     -10.283833      -279.8373
  13   2.0000     -10.277991      -279.6784
  14   2.0000     -10.273471      -279.5554
  15   2.0000     -10.271607      -279.5046
  16   2.0000      -8.081950      -219.9210
  17   2.0000      -8.080690      -219.8867
  18   2.0000      -6.040434      -164.3686
  19   2.0000      -6.038909      -164.3271
  20   2.0000      -6.036515      -164.2619
  21   2.0000      -6.035065      -164.2225
  22   2.0000      -6.032690      -164.1578
  23   2.0000      -6.031594      -164.1280
  24   2.0000      -1.010381       -27.4939
  25   2.0000      -0.987414       -26.8689
  26   2.0000      -0.922558       -25.1041
  27   2.0000      -0.917810       -24.9749
  28   2.0000      -0.864740       -23.5308
  29   2.0000      -0.862728       -23.4760
  30   2.0000      -0.851313       -23.1654
  31   2.0000      -0.811518       -22.0825
  32   2.0000      -0.785143       -21.3648
  33   2.0000      -0.772564       -21.0225
  34   2.0000      -0.721577       -19.6351
  35   2.0000      -0.700239       -19.0545
  36   2.0000      -0.687843       -18.7171
  37   2.0000      -0.665454       -18.1079
  38   2.0000      -0.644079       -17.5263
  39   2.0000      -0.614153       -16.7120
  40   2.0000      -0.602503       -16.3949
  41   2.0000      -0.579654       -15.7732
  42   2.0000      -0.569441       -15.4953
  43   2.0000      -0.564636       -15.3645
  44   2.0000      -0.540582       -14.7100
  45   2.0000      -0.527248       -14.3471
  46   2.0000      -0.520370       -14.1600
  47   2.0000      -0.514395       -13.9974
  48   2.0000      -0.504142       -13.7184
  49   2.0000      -0.495979       -13.4963
  50   2.0000      -0.489445       -13.3185
  51   2.0000      -0.485635       -13.2148
  52   2.0000      -0.474708       -12.9175
  53   2.0000      -0.465458       -12.6657
  54   2.0000      -0.463463       -12.6115
  55   2.0000      -0.452975       -12.3261
  56   2.0000      -0.449333       -12.2270
  57   2.0000      -0.443084       -12.0569
  58   2.0000      -0.435211       -11.8427
  59   2.0000      -0.427533       -11.6338
  60   2.0000      -0.424455       -11.5500
  61   2.0000      -0.417248       -11.3539
  62   2.0000      -0.410407       -11.1677
  63   2.0000      -0.349722        -9.5164
  64   2.0000      -0.333295        -9.0694
  65   2.0000      -0.327041        -8.8992
  66   2.0000      -0.286104        -7.7853
  67   0.0000       0.025651         0.6980
  68   0.0000       0.077791         2.1168
  69   0.0000       0.102832         2.7982
  70   0.0000       0.117324         3.1925
  71   0.0000       0.120855         3.2886

MULLIKEN ATOMIC CHARGES
-----------------------
   0 S :    0.105471
   1 C :   -0.109364
   2 C :   -0.091923
   3 C :    0.010475
   4 C :   -0.134747
   5 H :    0.005222
   6 C :    0.089208
   7 H :    0.015163
   8 H :    0.036304
   9 C :   -0.005081
  10 H :   -0.005925
  11 H :    0.022252
  12 C :   -0.078668
  13 H :    0.033351
  14 H :    0.039344
  15 H :    0.036946
  16 S :    0.104044
  17 C :   -0.091664
  18 C :   -0.028779
  19 C :   -0.024228
  20 C :   -0.151105
  21 H :    0.028769
  22 C :    0.041557
  23 H :    0.022099
  24 H :    0.031528
  25 C :   -0.094069
  26 H :    0.019596
  27 H :    0.015961
  28 C :    0.000147
  29 H :    0.042142
  30 H :    0.012157
  31 H :    0.017949
  32 H :    0.029821
  33 H :    0.056049
Sum of atomic charges:   -0.0000000

LOEWDIN ATOMIC CHARGES
----------------------
   0 S :    0.406687
   1 C :   -0.197678
   2 C :   -0.048606
   3 C :   -0.067781
   4 C :   -0.193881
   5 H :    0.032128
   6 C :   -0.028047
   7 H :    0.029587
   8 H :    0.037055
   9 C :   -0.028111
  10 H :    0.007399
  11 H :    0.019744
  12 C :   -0.064497
  13 H :    0.022548
  14 H :    0.029025
  15 H :    0.031795
  16 S :    0.422472
  17 C :   -0.195028
  18 C :   -0.069007
  19 C :   -0.064816
  20 C :   -0.189891
  21 H :    0.036069
  22 C :   -0.027434
  23 H :    0.026531
  24 H :    0.034786
  25 C :   -0.047647
  26 H :    0.020539
  27 H :    0.016193
  28 C :   -0.056875
  29 H :    0.032966
  30 H :    0.018783
  31 H :    0.019643
  32 H :    0.011837
  33 H :    0.023513

  Mayer bond orders larger than 0.100000
B(  0-S ,  1-C ) :   1.1188 B(  0-S ,  4-C ) :   1.1759 B(  1-C ,  2-C ) :   1.5867
B(  1-C , 32-H ) :   0.9796 B(  2-C ,  3-C ) :   1.2264 B(  2-C ,  6-C ) :   1.0358
B(  3-C ,  4-C ) :   1.5568 B(  3-C ,  5-H ) :   0.9927 B(  4-C , 20-C ) :   1.0184
B(  6-C ,  7-H ) :   0.9476 B(  6-C ,  8-H ) :   0.9058 B(  6-C ,  9-C ) :   1.0638
B(  9-C , 10-H ) :   0.9550 B(  9-C , 11-H ) :   0.9472 B(  9-C , 12-C ) :   1.0944
B( 12-C , 13-H ) :   0.9768 B( 12-C , 14-H ) :   0.9733 B( 12-C , 15-H ) :   0.9725
B( 16-S , 17-C ) :   1.1685 B( 16-S , 20-C ) :   1.1588 B( 17-C , 18-C ) :   1.5945
B( 17-C , 33-H ) :   0.9695 B( 18-C , 19-C ) :   1.2539 B( 18-C , 21-H ) :   0.9877
B( 19-C , 20-C ) :   1.5992 B( 19-C , 22-C ) :   1.0348 B( 22-C , 23-H ) :   0.9489
B( 22-C , 24-H ) :   0.9402 B( 22-C , 25-C ) :   1.0421 B( 25-C , 26-H ) :   0.9534
B( 25-C , 27-H ) :   0.9584 B( 25-C , 28-C ) :   1.0846 B( 28-C , 29-H ) :   0.9719
B( 28-C , 30-H ) :   0.9755 B( 28-C , 31-H ) :   0.9704

Dispersion correction           -0.014229788
FINAL SINGLE POINT ENERGY     -1339.860457512978

DIPOLE MOMENT
-------------
                                X             Y             Z
Electronic contribution:     -4.45983      28.41832      16.01027
Nuclear contribution   :      4.39888     -29.01189     -16.24942
                        -----------------------------------------
Total Dipole Moment    :     -0.06095      -0.59357      -0.23916
                        -----------------------------------------
Magnitude (a.u.)       :      0.64284
Magnitude (Debye)      :      1.63396

Rotational constants in cm-1:     0.018648     0.009121     0.006350
Rotational constants in MHz :   559.060225   273.435081   190.381349

                             ****ORCA TERMINATED NORMALLY****
TOTAL RUN TIME: 0 days 0 hours 0 minutes 22 seconds 21 msec
