                         Program Version 4.2.1 -  RELEASE  -
|  1> ! wB97X-D3 SP def2-SVP
|  2> %pal
|  3> nprocs 24
|  4> end
|  5>
|  6> * xyz 0 1
|  7> S 	 -112.127 	 21.4668 	 -111.721
|  8> C 	 -112.887 	 22.8495 	 -112.486
|  9> C 	 -114.175 	 22.6557 	 -112.96
| 10> C 	 -114.578 	 21.2699 	 -112.626
| 11> C 	 -113.553 	 20.5108 	 -112.135
| 12> H 	 -115.563 	 20.7791 	 -112.799
| 13> C 	 -115.117 	 23.6244 	 -113.677
| 14> H 	 -114.547 	 24.2998 	 -114.262
| 15> H 	 -115.497 	 24.2764 	 -112.867
| 16> C 	 -116.337 	 22.9102 	 -114.282
| 17> H 	 -116.079 	 22.0798 	 -115.029
| 18> H 	 -116.938 	 22.3328 	 -113.512
| 19> C 	 -117.275 	 23.8356 	 -115.046
| 20> H 	 -117.919 	 24.2572 	 -114.345
| 21> H 	 -116.727 	 24.6731 	 -115.503
| 22> H 	 -117.929 	 23.3507 	 -115.849
| 23> S 	 -113.738 	 18.6661 	 -109.996
| 24> C 	 -113.62 	 16.968 	 -110.387
| 25> C 	 -113.371 	 16.7872 	 -111.789
| 26> C 	 -113.453 	 17.9995 	 -112.539
| 27> C 	 -113.55 	 19.129 	 -111.717
| 28> H 	 -113.199 	 15.7719 	 -112.247
| 29> C 	 -113.344 	 18.0702 	 -114.03
| 30> H 	 -113.096 	 19.1054 	 -114.302
| 31> H 	 -114.37 	 17.8229 	 -114.385
| 32> C 	 -112.34 	 17.174 	 -114.775
| 33> H 	 -112.396 	 17.5323 	 -115.846
| 34> H 	 -112.684 	 16.1359 	 -114.75
| 35> C 	 -110.92 	 17.3249 	 -114.232
| 36> H 	 -110.588 	 18.33 	 -114.34
| 37> H 	 -110.27 	 16.7265 	 -114.751
| 38> H 	 -110.958 	 17.0234 	 -113.166
| 39> H 	 -112.402 	 23.7443 	 -112.429
| 40> H 	 -113.632 	 16.1904 	 -109.641
| 41> *
| 42>
| 43>                          ****END OF INPUT****

CARTESIAN COORDINATES (ANGSTROEM)
---------------------------------
  S    -112.127000   21.466800  -111.721000
  C    -112.887000   22.849500  -112.486000
  C    -114.175000   22.655700  -112.960000
  C    -114.578000   21.269900  -112.626000
  C    -113.553000   20.510800  -112.135000
  H    -115.563000   20.779100  -112.799000
  C    -115.117000   23.624400  -113.677000
  H    -114.547000   24.299800  -114.262000
  H    -115.497000   24.276400  -112.867000
  C    -116.337000   22.910200  -114.282000
  H    -116.079000   22.079800  -115.029000
  H    -116.938000   22.332800  -113.512000
  C    -117.275000   23.835600  -115.046000
  H    -117.919000   24.257200  -114.345000
  H    -116.727000   24.673100  -115.503000
  H    -117.929000   23.350700  -115.849000
  S    -113.738000   18.666100  -109.996000
  C    -113.620000   16.968000  -110.387000
  C    -113.371000   16.787200  -111.789000
  C    -113.453000   17.999500  -112.539000
  C    -113.550000   19.129000  -111.717000
  H    -113.199000   15.771900  -112.247000
  C    -113.344000   18.070200  -114.030000
  H    -113.096000   19.105400  -114.302000
  H    -114.370000   17.822900  -114.385000
  C    -112.340000   17.174000  -114.775000
  H    -112.396000   17.532300  -115.846000
  H    -112.684000   16.135900  -114.750000
  C    -110.920000   17.324900  -114.232000
  H    -110.588000   18.330000  -114.340000
  H    -110.270000   16.726500  -114.751000
  H    -110.958000   17.023400  -113.166000
  H    -112.402000   23.744300  -112.429000
  H    -113.632000   16.190400  -109.641000

 Total Charge           Charge          ....    0
 Multiplicity           Mult            ....    1
 Number of Electrons    NEL             ....  134
 Basis Dimension        Dim             ....  322

ORBITAL ENERGIES
----------------

  NO   OCC          E(Eh)            E(eV)
   0   2.0000     -88.966551     -2420.9029
   1   2.0000     -88.961664     -2420.7700
   2   2.0000     -10.323048      -280.9044
   3   2.0000     -10.322640      -280.8933
   4   2.0000     -10.322009      -280.8762
   5   2.0000     -10.309075      -280.5242
   6   2.0000     -10.307172      -280.4724
   7   2.0000     -10.301853      -280.3277
   8   2.0000     -10.301236      -280.3109
   9   2.0000     -10.300596      -280.2935
  10   2.0000     -10.300180      -280.2821
  11   2.0000     -10.298810      -280.2449
  12   2.0000     -10.287805      -279.9454
  13   2.0000     -10.287488      -279.9368
  14   2.0000     -10.279888      -279.7300
  15   2.0000     -10.264002      -279.2977
  16   2.0000      -8.080371      -219.8781
  17   2.0000      -8.076531      -219.7736
  18   2.0000      -6.038862      -164.3258
  19   2.0000      -6.034957      -164.2195
  20   2.0000      -6.034939      -164.2190
  21   2.0000      -6.031281      -164.1195
  22   2.0000      -6.031244      -164.1185
  23   2.0000      -6.027158      -164.0073
  24   2.0000      -0.998592       -27.1731
  25   2.0000      -0.974452       -26.5162
  26   2.0000      -0.912084       -24.8191
  27   2.0000      -0.907658       -24.6986
  28   2.0000      -0.866612       -23.5817
  29   2.0000      -0.847644       -23.0656
  30   2.0000      -0.842482       -22.9251
  31   2.0000      -0.809129       -22.0175
  32   2.0000      -0.784940       -21.3593
  33   2.0000      -0.771238       -20.9864
  34   2.0000      -0.709199       -19.2983
  35   2.0000      -0.694721       -18.9043
  36   2.0000      -0.688734       -18.7414
  37   2.0000      -0.651442       -17.7266
  38   2.0000      -0.644521       -17.5383
  39   2.0000      -0.612331       -16.6624
  40   2.0000      -0.593592       -16.1525
  41   2.0000      -0.565429       -15.3861
  42   2.0000      -0.557804       -15.1786
  43   2.0000      -0.555228       -15.1085
  44   2.0000      -0.537181       -14.6174
  45   2.0000      -0.529252       -14.4017
  46   2.0000      -0.520986       -14.1768
  47   2.0000      -0.509040       -13.8517
  48   2.0000      -0.500990       -13.6326
  49   2.0000      -0.494258       -13.4494
  50   2.0000      -0.485298       -13.2056
  51   2.0000      -0.475572       -12.9410
  52   2.0000      -0.471800       -12.8383
  53   2.0000      -0.463551       -12.6139
  54   2.0000      -0.454244       -12.3606
  55   2.0000      -0.451907       -12.2970
  56   2.0000      -0.439874       -11.9696
  57   2.0000      -0.437669       -11.9096
  58   2.0000      -0.433411       -11.7937
  59   2.0000      -0.426923       -11.6172
  60   2.0000      -0.419465       -11.4142
  61   2.0000      -0.414756       -11.2861
  62   2.0000      -0.411366       -11.1938
  63   2.0000      -0.334066        -9.0904
  64   2.0000      -0.326098        -8.8736
  65   2.0000      -0.318257        -8.6602
  66   2.0000      -0.301043        -8.1918
  67   0.0000       0.040508         1.1023
  68   0.0000       0.055654         1.5144
  69   0.0000       0.115508         3.1431
  70   0.0000       0.121132         3.2962
  71   0.0000       0.126364         3.4385

MULLIKEN ATOMIC CHARGES
-----------------------
   0 S :    0.103686
   1 C :   -0.096251
   2 C :   -0.095387
   3 C :    0.024074
   4 C :   -0.200816
   5 H :    0.031292
   6 C :    0.118548
   7 H :    0.022093
   8 H :    0.041459
   9 C :   -0.156341
  10 H :    0.044528
  11 H :    0.049900
  12 C :   -0.022591
  13 H :    0.016898
  14 H :    0.030497
  15 H :    0.047075
  16 S :    0.120196
  17 C :   -0.103325
  18 C :   -0.053705
  19 C :   -0.037475
  20 C :   -0.176233
  21 H :    0.039967
  22 C :    0.066705
  23 H :    0.036947
  24 H :    0.042537
  25 C :   -0.112884
  26 H :    0.038648
  27 H :    0.027792
  28 C :    0.005056
  29 H :    0.024433
  30 H :    0.013690
  31 H :    0.040806
  32 H :    0.008051
  33 H :    0.060130
Sum of atomic charges:   -0.0000000

LOEWDIN ATOMIC CHARGES
----------------------
   0 S :    0.392126
   1 C :   -0.180560
   2 C :   -0.053045
   3 C :   -0.058546
   4 C :   -0.194879
   5 H :    0.040272
   6 C :   -0.029910
   7 H :    0.028097
   8 H :    0.043684
   9 C :   -0.053999
  10 H :    0.030393
  11 H :    0.031845
  12 C :   -0.068562
  13 H :    0.015030
  14 H :    0.026768
  15 H :    0.036916
  16 S :    0.397889
  17 C :   -0.186518
  18 C :   -0.081786
  19 C :   -0.053826
  20 C :   -0.207886
  21 H :    0.038347
  22 C :   -0.036894
  23 H :    0.033138
  24 H :    0.039936
  25 C :   -0.043117
  26 H :    0.032347
  27 H :    0.018045
  28 C :   -0.054515
  29 H :    0.024016
  30 H :    0.012941
  31 H :    0.033083
  32 H :    0.002838
  33 H :    0.026334

  Mayer bond orders larger than 0.100000
B(  0-S ,  1-C ) :   1.1375 B(  0-S ,  4-C ) :   1.1311 B(  1-C ,  2-C ) :   1.6484
B(  1-C , 32-H ) :   0.9814 B(  2-C ,  3-C ) :   1.1920 B(  2-C ,  6-C ) :   1.0054
B(  3-C ,  4-C ) :   1.6420 B(  3-C ,  5-H ) :   0.9776 B(  4-C , 20-C ) :   1.0271
B(  6-C ,  7-H ) :   0.9418 B(  6-C ,  8-H ) :   0.9258 B(  6-C ,  9-C ) :   1.0700
B(  9-C , 10-H ) :   0.9624 B(  9-C , 11-H ) :   0.9448 B(  9-C , 12-C ) :   1.0698
B( 12-C , 13-H ) :   0.9749 B( 12-C , 14-H ) :   0.9740 B( 12-C , 15-H ) :   0.9755
B( 16-S , 17-C ) :   1.1749 B( 16-S , 20-C ) :   1.1357 B( 17-C , 18-C ) :   1.5689
B( 17-C , 20-C ) :   0.1111 B( 17-C , 33-H ) :   0.9704 B( 18-C , 19-C ) :   1.2596
B( 18-C , 21-H ) :   0.9769 B( 19-C , 20-C ) :   1.5806 B( 19-C , 22-C ) :   1.0422
B( 22-C , 23-H ) :   0.9307 B( 22-C , 24-H ) :   0.9254 B( 22-C , 25-C ) :   1.0780
B( 25-C , 26-H ) :   0.9537 B( 25-C , 27-H ) :   0.9502 B( 25-C , 28-C ) :   1.0827
B( 28-C , 29-H ) :   0.9737 B( 28-C , 30-H ) :   0.9718 B( 28-C , 31-H ) :   0.9686

Dispersion correction           -0.014463790
FINAL SINGLE POINT ENERGY     -1339.873208097274

DIPOLE MOMENT
-------------
                                X             Y             Z
Electronic contribution:      7.94999      -2.55884      22.26286
Nuclear contribution   :     -8.28849       2.67239     -22.74934
                        -----------------------------------------
Total Dipole Moment    :     -0.33849       0.11354      -0.48647
                        -----------------------------------------
Magnitude (a.u.)       :      0.60343
Magnitude (Debye)      :      1.53379

Rotational constants in cm-1:     0.018981     0.007850     0.007210
Rotational constants in MHz :   569.026174   235.329100   216.149457

                             ****ORCA TERMINATED NORMALLY****
TOTAL RUN TIME: 0 days 0 hours 0 minutes 20 seconds 377 msec
