                         Program Version 4.2.1 -  RELEASE  -
|  1> ! wB97X-D3 SP def2-SVP
|  2> %pal
|  3> nprocs 24
|  4> end
|  5>
|  6> * xyz 0 1
|  7> S 	 -105.045 	 35.1058 	 -21.2087
|  8> C 	 -103.76 	 33.8477 	 -21.1626
|  9> C 	 -103.717 	 33.0869 	 -22.3277
| 10> C 	 -104.941 	 33.3402 	 -23.1275
| 11> C 	 -105.62 	 34.4232 	 -22.6936
| 12> H 	 -105.109 	 32.7878 	 -24.0088
| 13> C 	 -102.647 	 32.0353 	 -22.6378
| 14> H 	 -101.726 	 32.6827 	 -22.8258
| 15> H 	 -103.022 	 31.7212 	 -23.5705
| 16> C 	 -102.508 	 30.8167 	 -21.7187
| 17> H 	 -101.596 	 30.36 	 -22.0345
| 18> H 	 -102.419 	 31.2655 	 -20.706
| 19> C 	 -103.765 	 29.9372 	 -21.8703
| 20> H 	 -104.761 	 30.4115 	 -21.847
| 21> H 	 -103.657 	 29.2181 	 -22.691
| 22> H 	 -103.866 	 29.4742 	 -20.858
| 23> S 	 -108.21 	 35.488 	 -22.2676
| 24> C 	 -109.077 	 35.942 	 -23.7716
| 25> C 	 -108.405 	 35.68 	 -24.9102
| 26> C 	 -107.142 	 35.0896 	 -24.7132
| 27> C 	 -106.835 	 34.977 	 -23.3137
| 28> H 	 -108.851 	 35.9582 	 -25.8265
| 29> C 	 -106.237 	 34.5775 	 -25.8913
| 30> H 	 -105.138 	 34.5782 	 -25.6719
| 31> H 	 -106.375 	 35.3512 	 -26.6598
| 32> C 	 -106.753 	 33.3081 	 -26.6451
| 33> H 	 -107.728 	 33.6155 	 -27.0808
| 34> H 	 -106.835 	 32.4508 	 -25.9947
| 35> C 	 -105.766 	 32.9566 	 -27.8623
| 36> H 	 -105.748 	 33.8889 	 -28.4926
| 37> H 	 -106.096 	 32.2015 	 -28.4375
| 38> H 	 -104.733 	 32.8867 	 -27.5869
| 39> H 	 -102.924 	 33.8116 	 -20.4691
| 40> H 	 -110.126 	 36.3185 	 -23.7897
| 41> *
| 42>
| 43>                          ****END OF INPUT****

CARTESIAN COORDINATES (ANGSTROEM)
---------------------------------
  S    -105.045000   35.105800  -21.208700
  C    -103.760000   33.847700  -21.162600
  C    -103.717000   33.086900  -22.327700
  C    -104.941000   33.340200  -23.127500
  C    -105.620000   34.423200  -22.693600
  H    -105.109000   32.787800  -24.008800
  C    -102.647000   32.035300  -22.637800
  H    -101.726000   32.682700  -22.825800
  H    -103.022000   31.721200  -23.570500
  C    -102.508000   30.816700  -21.718700
  H    -101.596000   30.360000  -22.034500
  H    -102.419000   31.265500  -20.706000
  C    -103.765000   29.937200  -21.870300
  H    -104.761000   30.411500  -21.847000
  H    -103.657000   29.218100  -22.691000
  H    -103.866000   29.474200  -20.858000
  S    -108.210000   35.488000  -22.267600
  C    -109.077000   35.942000  -23.771600
  C    -108.405000   35.680000  -24.910200
  C    -107.142000   35.089600  -24.713200
  C    -106.835000   34.977000  -23.313700
  H    -108.851000   35.958200  -25.826500
  C    -106.237000   34.577500  -25.891300
  H    -105.138000   34.578200  -25.671900
  H    -106.375000   35.351200  -26.659800
  C    -106.753000   33.308100  -26.645100
  H    -107.728000   33.615500  -27.080800
  H    -106.835000   32.450800  -25.994700
  C    -105.766000   32.956600  -27.862300
  H    -105.748000   33.888900  -28.492600
  H    -106.096000   32.201500  -28.437500
  H    -104.733000   32.886700  -27.586900
  H    -102.924000   33.811600  -20.469100
  H    -110.126000   36.318500  -23.789700

 Total Charge           Charge          ....    0
 Multiplicity           Mult            ....    1
 Number of Electrons    NEL             ....  134
 Basis Dimension        Dim             ....  322

ORBITAL ENERGIES
----------------

  NO   OCC          E(Eh)            E(eV)
   0   2.0000     -88.969230     -2420.9758
   1   2.0000     -88.965445     -2420.8728
   2   2.0000     -10.333822      -281.1976
   3   2.0000     -10.326298      -280.9928
   4   2.0000     -10.319252      -280.8011
   5   2.0000     -10.312395      -280.6145
   6   2.0000     -10.311270      -280.5839
   7   2.0000     -10.302868      -280.3553
   8   2.0000     -10.302850      -280.3548
   9   2.0000     -10.298513      -280.2368
  10   2.0000     -10.292755      -280.0801
  11   2.0000     -10.291633      -280.0496
  12   2.0000     -10.290379      -280.0155
  13   2.0000     -10.289437      -279.9898
  14   2.0000     -10.284057      -279.8434
  15   2.0000     -10.278530      -279.6930
  16   2.0000      -8.082347      -219.9319
  17   2.0000      -8.079769      -219.8617
  18   2.0000      -6.040911      -164.3815
  19   2.0000      -6.038388      -164.3129
  20   2.0000      -6.037293      -164.2831
  21   2.0000      -6.034522      -164.2077
  22   2.0000      -6.032944      -164.1647
  23   2.0000      -6.030261      -164.0917
  24   2.0000      -0.998632       -27.1742
  25   2.0000      -0.974912       -26.5287
  26   2.0000      -0.913587       -24.8600
  27   2.0000      -0.899145       -24.4670
  28   2.0000      -0.864616       -23.5274
  29   2.0000      -0.847784       -23.0694
  30   2.0000      -0.841546       -22.8996
  31   2.0000      -0.811925       -22.0936
  32   2.0000      -0.782906       -21.3039
  33   2.0000      -0.769787       -20.9470
  34   2.0000      -0.710182       -19.3250
  35   2.0000      -0.705196       -19.1894
  36   2.0000      -0.691298       -18.8112
  37   2.0000      -0.657351       -17.8874
  38   2.0000      -0.630643       -17.1607
  39   2.0000      -0.614016       -16.7082
  40   2.0000      -0.591080       -16.0841
  41   2.0000      -0.575879       -15.6705
  42   2.0000      -0.564103       -15.3500
  43   2.0000      -0.546456       -14.8698
  44   2.0000      -0.543297       -14.7839
  45   2.0000      -0.531440       -14.4612
  46   2.0000      -0.513342       -13.9688
  47   2.0000      -0.508658       -13.8413
  48   2.0000      -0.500567       -13.6211
  49   2.0000      -0.487529       -13.2663
  50   2.0000      -0.484535       -13.1849
  51   2.0000      -0.476860       -12.9760
  52   2.0000      -0.467669       -12.7259
  53   2.0000      -0.464122       -12.6294
  54   2.0000      -0.455210       -12.3869
  55   2.0000      -0.454163       -12.3584
  56   2.0000      -0.444939       -12.1074
  57   2.0000      -0.439493       -11.9592
  58   2.0000      -0.432124       -11.7587
  59   2.0000      -0.426789       -11.6135
  60   2.0000      -0.419327       -11.4105
  61   2.0000      -0.417093       -11.3497
  62   2.0000      -0.412273       -11.2185
  63   2.0000      -0.350810        -9.5460
  64   2.0000      -0.334273        -9.0960
  65   2.0000      -0.327941        -8.9237
  66   2.0000      -0.284917        -7.7530
  67   0.0000       0.025692         0.6991
  68   0.0000       0.074151         2.0177
  69   0.0000       0.093747         2.5510
  70   0.0000       0.118787         3.2324
  71   0.0000       0.127039         3.4569

MULLIKEN ATOMIC CHARGES
-----------------------
   0 S :    0.100956
   1 C :   -0.118490
   2 C :   -0.163954
   3 C :    0.032538
   4 C :   -0.110536
   5 H :   -0.007972
   6 C :    0.057920
   7 H :    0.053032
   8 H :   -0.008933
   9 C :   -0.020388
  10 H :    0.035051
  11 H :    0.034008
  12 C :   -0.085092
  13 H :    0.049776
  14 H :    0.050744
  15 H :    0.032937
  16 S :    0.100342
  17 C :   -0.107786
  18 C :   -0.012071
  19 C :   -0.002393
  20 C :   -0.147808
  21 H :    0.002855
  22 C :    0.000939
  23 H :    0.049308
  24 H :    0.020410
  25 C :   -0.080397
  26 H :    0.037852
  27 H :    0.041437
  28 C :   -0.016685
  29 H :    0.019196
  30 H :    0.022144
  31 H :    0.027643
  32 H :    0.045927
  33 H :    0.067490
Sum of atomic charges:    0.0000000

LOEWDIN ATOMIC CHARGES
----------------------
   0 S :    0.384954
   1 C :   -0.193643
   2 C :   -0.053265
   3 C :   -0.063202
   4 C :   -0.189596
   5 H :    0.022355
   6 C :   -0.040611
   7 H :    0.041622
   8 H :    0.016975
   9 C :   -0.032449
  10 H :    0.026337
  11 H :    0.027525
  12 C :   -0.076429
  13 H :    0.035178
  14 H :    0.029492
  15 H :    0.036274
  16 S :    0.364865
  17 C :   -0.173589
  18 C :   -0.070586
  19 C :   -0.048883
  20 C :   -0.179754
  21 H :    0.028638
  22 C :   -0.039151
  23 H :    0.033815
  24 H :    0.030170
  25 C :   -0.030371
  26 H :    0.028677
  27 H :    0.016704
  28 C :   -0.055647
  29 H :    0.030835
  30 H :    0.008422
  31 H :    0.022631
  32 H :    0.024103
  33 H :    0.037606

  Mayer bond orders larger than 0.100000
B(  0-S ,  1-C ) :   1.1060 B(  0-S ,  4-C ) :   1.1368 B(  1-C ,  2-C ) :   1.6611
B(  1-C , 32-H ) :   0.9626 B(  2-C ,  3-C ) :   1.1964 B(  2-C ,  6-C ) :   1.0045
B(  3-C ,  4-C ) :   1.6047 B(  3-C ,  5-H ) :   0.9913 B(  4-C , 20-C ) :   1.0452
B(  6-C ,  7-H ) :   0.9343 B(  6-C ,  8-H ) :   0.9338 B(  6-C ,  9-C ) :   1.0598
B(  9-C , 10-H ) :   0.9541 B(  9-C , 11-H ) :   0.9628 B(  9-C , 12-C ) :   1.0621
B( 12-C , 13-H ) :   0.9751 B( 12-C , 14-H ) :   0.9755 B( 12-C , 15-H ) :   0.9718
B( 16-S , 17-C ) :   1.1258 B( 16-S , 20-C ) :   1.1329 B( 17-C , 18-C ) :   1.6487
B( 17-C , 33-H ) :   0.9567 B( 18-C , 19-C ) :   1.2300 B( 18-C , 21-H ) :   0.9925
B( 19-C , 20-C ) :   1.5892 B( 19-C , 22-C ) :   1.0298 B( 22-C , 23-H ) :   0.9440
B( 22-C , 24-H ) :   0.9364 B( 22-C , 25-C ) :   1.0475 B( 25-C , 26-H ) :   0.9569
B( 25-C , 27-H ) :   0.9622 B( 25-C , 28-C ) :   1.0685 B( 28-C , 29-H ) :   0.9740
B( 28-C , 30-H ) :   0.9780 B( 28-C , 31-H ) :   0.9781

Dispersion correction           -0.014248207
FINAL SINGLE POINT ENERGY     -1339.850821151975

DIPOLE MOMENT
-------------
                                X             Y             Z
Electronic contribution:    -12.05747      20.43981      17.63503
Nuclear contribution   :     12.27941     -20.87056     -18.28761
                        -----------------------------------------
Total Dipole Moment    :      0.22194      -0.43075      -0.65257
                        -----------------------------------------
Magnitude (a.u.)       :      0.81281
Magnitude (Debye)      :      2.06600

Rotational constants in cm-1:     0.016606     0.009333     0.006651
Rotational constants in MHz :   497.845971   279.803306   199.406630

                             ****ORCA TERMINATED NORMALLY****
TOTAL RUN TIME: 0 days 0 hours 0 minutes 21 seconds 519 msec
