                         Program Version 4.2.1 -  RELEASE  -
|  1> ! wB97X-D3 SP def2-SVP
|  2> %pal
|  3> nprocs 24
|  4> end
|  5>
|  6> * xyz 0 1
|  7> S 	 -71.8388 	 0.367312 	 -106.56
|  8> C 	 -71.9482 	 2.07188 	 -106.593
|  9> C 	 -71.5761 	 2.68495 	 -107.8
| 10> C 	 -71.1378 	 1.70502 	 -108.722
| 11> C 	 -71.3361 	 0.371001 	 -108.272
| 12> H 	 -70.7007 	 1.86227 	 -109.741
| 13> C 	 -71.4398 	 4.22297 	 -107.986
| 14> H 	 -72.4565 	 4.63829 	 -108.105
| 15> H 	 -70.9664 	 4.49355 	 -108.938
| 16> C 	 -70.7311 	 4.94544 	 -106.743
| 17> H 	 -71.3156 	 4.99824 	 -105.918
| 18> H 	 -69.8578 	 4.33352 	 -106.472
| 19> C 	 -70.1051 	 6.30581 	 -107.037
| 20> H 	 -69.4487 	 6.40823 	 -107.852
| 21> H 	 -70.9858 	 6.9496 	 -107.157
| 22> H 	 -69.6415 	 6.69733 	 -106.202
| 23> S 	 -72.3895 	 -2.10057 	 -109.296
| 24> C 	 -71.3505 	 -3.07763 	 -110.216
| 25> C 	 -70.0736 	 -2.51943 	 -110.292
| 26> C 	 -69.9421 	 -1.29699 	 -109.583
| 27> C 	 -71.1096 	 -0.87908 	 -108.985
| 28> H 	 -69.272 	 -3.0922 	 -110.777
| 29> C 	 -68.5877 	 -0.613996 	 -109.356
| 30> H 	 -68.6664 	 0.435323 	 -109.386
| 31> H 	 -67.9246 	 -0.844889 	 -110.271
| 32> C 	 -67.8919 	 -0.911819 	 -108.06
| 33> H 	 -67.41 	 -1.93727 	 -108.081
| 34> H 	 -68.6167 	 -1.18549 	 -107.337
| 35> C 	 -66.922 	 -0.0172851 	 -107.425
| 36> H 	 -67.2789 	 0.835786 	 -106.882
| 37> H 	 -66.1818 	 0.43404 	 -108.066
| 38> H 	 -66.3046 	 -0.530897 	 -106.726
| 39> H 	 -72.3299 	 2.61666 	 -105.746
| 40> H 	 -71.6141 	 -4.07422 	 -110.603
| 41> *
| 42>
| 43>                          ****END OF INPUT****

CARTESIAN COORDINATES (ANGSTROEM)
---------------------------------
  S    -71.838800    0.367312  -106.560000
  C    -71.948200    2.071880  -106.593000
  C    -71.576100    2.684950  -107.800000
  C    -71.137800    1.705020  -108.722000
  C    -71.336100    0.371001  -108.272000
  H    -70.700700    1.862270  -109.741000
  C    -71.439800    4.222970  -107.986000
  H    -72.456500    4.638290  -108.105000
  H    -70.966400    4.493550  -108.938000
  C    -70.731100    4.945440  -106.743000
  H    -71.315600    4.998240  -105.918000
  H    -69.857800    4.333520  -106.472000
  C    -70.105100    6.305810  -107.037000
  H    -69.448700    6.408230  -107.852000
  H    -70.985800    6.949600  -107.157000
  H    -69.641500    6.697330  -106.202000
  S    -72.389500   -2.100570  -109.296000
  C    -71.350500   -3.077630  -110.216000
  C    -70.073600   -2.519430  -110.292000
  C    -69.942100   -1.296990  -109.583000
  C    -71.109600   -0.879080  -108.985000
  H    -69.272000   -3.092200  -110.777000
  C    -68.587700   -0.613996  -109.356000
  H    -68.666400    0.435323  -109.386000
  H    -67.924600   -0.844889  -110.271000
  C    -67.891900   -0.911819  -108.060000
  H    -67.410000   -1.937270  -108.081000
  H    -68.616700   -1.185490  -107.337000
  C    -66.922000   -0.017285  -107.425000
  H    -67.278900    0.835786  -106.882000
  H    -66.181800    0.434040  -108.066000
  H    -66.304600   -0.530897  -106.726000
  H    -72.329900    2.616660  -105.746000
  H    -71.614100   -4.074220  -110.603000

 Total Charge           Charge          ....    0
 Multiplicity           Mult            ....    1
 Number of Electrons    NEL             ....  134
 Basis Dimension        Dim             ....  322

ORBITAL ENERGIES
----------------

  NO   OCC          E(Eh)            E(eV)
   0   2.0000     -88.970379     -2421.0071
   1   2.0000     -88.965072     -2420.8627
   2   2.0000     -10.332222      -281.1541
   3   2.0000     -10.325073      -280.9595
   4   2.0000     -10.318483      -280.7802
   5   2.0000     -10.312794      -280.6254
   6   2.0000     -10.306277      -280.4481
   7   2.0000     -10.303635      -280.3762
   8   2.0000     -10.303556      -280.3740
   9   2.0000     -10.301498      -280.3180
  10   2.0000     -10.293449      -280.0990
  11   2.0000     -10.290138      -280.0089
  12   2.0000     -10.284426      -279.8534
  13   2.0000     -10.274999      -279.5969
  14   2.0000     -10.269223      -279.4398
  15   2.0000     -10.264655      -279.3155
  16   2.0000      -8.085002      -220.0041
  17   2.0000      -8.080054      -219.8694
  18   2.0000      -6.043240      -164.4449
  19   2.0000      -6.039539      -164.3442
  20   2.0000      -6.038429      -164.3140
  21   2.0000      -6.036070      -164.2498
  22   2.0000      -6.034404      -164.2045
  23   2.0000      -6.031054      -164.1133
  24   2.0000      -1.003278       -27.3006
  25   2.0000      -0.983707       -26.7680
  26   2.0000      -0.912197       -24.8221
  27   2.0000      -0.903701       -24.5910
  28   2.0000      -0.867876       -23.6161
  29   2.0000      -0.856825       -23.3154
  30   2.0000      -0.849479       -23.1155
  31   2.0000      -0.809575       -22.0297
  32   2.0000      -0.788563       -21.4579
  33   2.0000      -0.770720       -20.9724
  34   2.0000      -0.710718       -19.3396
  35   2.0000      -0.703178       -19.1345
  36   2.0000      -0.692271       -18.8377
  37   2.0000      -0.656660       -17.8686
  38   2.0000      -0.640834       -17.4380
  39   2.0000      -0.613810       -16.7026
  40   2.0000      -0.597753       -16.2657
  41   2.0000      -0.568715       -15.4755
  42   2.0000      -0.563869       -15.3437
  43   2.0000      -0.552509       -15.0345
  44   2.0000      -0.526978       -14.3398
  45   2.0000      -0.521830       -14.1997
  46   2.0000      -0.519881       -14.1467
  47   2.0000      -0.512906       -13.9569
  48   2.0000      -0.508008       -13.8236
  49   2.0000      -0.496241       -13.5034
  50   2.0000      -0.489119       -13.3096
  51   2.0000      -0.483489       -13.1564
  52   2.0000      -0.477349       -12.9893
  53   2.0000      -0.466063       -12.6822
  54   2.0000      -0.460654       -12.5350
  55   2.0000      -0.450346       -12.2545
  56   2.0000      -0.447609       -12.1800
  57   2.0000      -0.437542       -11.9061
  58   2.0000      -0.435728       -11.8568
  59   2.0000      -0.428537       -11.6611
  60   2.0000      -0.424406       -11.5487
  61   2.0000      -0.409685       -11.1481
  62   2.0000      -0.391170       -10.6443
  63   2.0000      -0.341370        -9.2892
  64   2.0000      -0.334333        -9.0977
  65   2.0000      -0.328300        -8.9335
  66   2.0000      -0.291252        -7.9254
  67   0.0000       0.028457         0.7743
  68   0.0000       0.063575         1.7300
  69   0.0000       0.111516         3.0345
  70   0.0000       0.128962         3.5092
  71   0.0000       0.132767         3.6128

MULLIKEN ATOMIC CHARGES
-----------------------
   0 S :    0.131516
   1 C :   -0.122118
   2 C :   -0.077516
   3 C :    0.027618
   4 C :   -0.209772
   5 H :    0.038662
   6 C :    0.069141
   7 H :    0.040256
   8 H :    0.021057
   9 C :   -0.074875
  10 H :    0.011007
  11 H :    0.034265
  12 C :   -0.010755
  13 H :    0.030053
  14 H :    0.017190
  15 H :    0.013507
  16 S :    0.118335
  17 C :   -0.105921
  18 C :   -0.047575
  19 C :   -0.032308
  20 C :   -0.165439
  21 H :    0.025380
  22 C :    0.115814
  23 H :   -0.005510
  24 H :    0.028495
  25 C :   -0.055916
  26 H :    0.014316
  27 H :    0.011114
  28 C :   -0.004085
  29 H :    0.024026
  30 H :    0.009159
  31 H :    0.014759
  32 H :    0.045775
  33 H :    0.070346
Sum of atomic charges:    0.0000000

LOEWDIN ATOMIC CHARGES
----------------------
   0 S :    0.423146
   1 C :   -0.205522
   2 C :   -0.067214
   3 C :   -0.056651
   4 C :   -0.192903
   5 H :    0.041293
   6 C :   -0.027736
   7 H :    0.035295
   8 H :    0.029748
   9 C :   -0.029453
  10 H :    0.007883
  11 H :    0.026642
  12 C :   -0.055847
  13 H :    0.019370
  14 H :    0.026649
  15 H :    0.018467
  16 S :    0.412625
  17 C :   -0.202389
  18 C :   -0.080573
  19 C :   -0.052195
  20 C :   -0.202094
  21 H :    0.034474
  22 C :   -0.029316
  23 H :    0.020585
  24 H :    0.036684
  25 C :   -0.053943
  26 H :    0.030845
  27 H :    0.024115
  28 C :   -0.065128
  29 H :    0.023107
  30 H :    0.022116
  31 H :    0.028321
  32 H :    0.022285
  33 H :    0.037313

  Mayer bond orders larger than 0.100000
B(  0-S ,  1-C ) :   1.1747 B(  0-S ,  4-C ) :   1.1589 B(  1-C ,  2-C ) :   1.5698
B(  1-C ,  4-C ) :   0.1124 B(  1-C , 32-H ) :   0.9670 B(  2-C ,  3-C ) :   1.2877
B(  2-C ,  6-C ) :   1.0168 B(  3-C ,  4-C ) :   1.5473 B(  3-C ,  5-H ) :   0.9793
B(  4-C , 20-C ) :   1.0587 B(  6-C ,  7-H ) :   0.9341 B(  6-C ,  8-H ) :   0.9536
B(  6-C ,  9-C ) :   1.0463 B(  9-C , 10-H ) :   0.9546 B(  9-C , 11-H ) :   0.9655
B(  9-C , 12-C ) :   1.0931 B( 12-C , 13-H ) :   0.9779 B( 12-C , 14-H ) :   0.9734
B( 12-C , 15-H ) :   0.9701 B( 16-S , 17-C ) :   1.1833 B( 16-S , 20-C ) :   1.1318
B( 17-C , 18-C ) :   1.5736 B( 17-C , 33-H ) :   0.9631 B( 18-C , 19-C ) :   1.2711
B( 18-C , 21-H ) :   0.9893 B( 19-C , 20-C ) :   1.5739 B( 19-C , 22-C ) :   1.0533
B( 22-C , 23-H ) :   0.9246 B( 22-C , 24-H ) :   0.9275 B( 22-C , 25-C ) :   1.0587
B( 25-C , 26-H ) :   0.9453 B( 25-C , 27-H ) :   0.9462 B( 25-C , 28-C ) :   1.1007
B( 28-C , 29-H ) :   0.9687 B( 28-C , 30-H ) :   0.9691 B( 28-C , 31-H ) :   0.9655

Dispersion correction           -0.014362195
FINAL SINGLE POINT ENERGY     -1339.863508728851

DIPOLE MOMENT
-------------
                                X             Y             Z
Electronic contribution:    -20.01243     -21.65987      -3.51362
Nuclear contribution   :     20.44207      22.05576       3.55174
                        -----------------------------------------
Total Dipole Moment    :      0.42964       0.39589       0.03812
                        -----------------------------------------
Magnitude (a.u.)       :      0.58547
Magnitude (Debye)      :      1.48815

Rotational constants in cm-1:     0.020849     0.007883     0.006618
Rotational constants in MHz :   625.048165   236.332681   198.390066

                             ****ORCA TERMINATED NORMALLY****
TOTAL RUN TIME: 0 days 0 hours 0 minutes 21 seconds 487 msec
