                         Program Version 4.2.1 -  RELEASE  -
|  1> ! wB97X-D3 SP def2-SVP
|  2> %pal
|  3> nprocs 24
|  4> end
|  5>
|  6> * xyz 0 1
|  7> S 	 -88.1792 	 -45.636 	 -69.4882
|  8> C 	 -86.7084 	 -45.9566 	 -68.6209
|  9> C 	 -85.9418 	 -46.8708 	 -69.2994
| 10> C 	 -86.5959 	 -47.4054 	 -70.4889
| 11> C 	 -87.8498 	 -46.8237 	 -70.7476
| 12> H 	 -86.2578 	 -48.1367 	 -71.1296
| 13> C 	 -84.5131 	 -47.28 	 -68.9816
| 14> H 	 -84.4994 	 -48.369 	 -69.0078
| 15> H 	 -84.3026 	 -46.8425 	 -68.0103
| 16> C 	 -83.5167 	 -46.6979 	 -69.9857
| 17> H 	 -82.4601 	 -46.9051 	 -69.5895
| 18> H 	 -83.7098 	 -47.3262 	 -70.9219
| 19> C 	 -83.6661 	 -45.1967 	 -70.198
| 20> H 	 -83.1752 	 -44.7374 	 -69.2777
| 21> H 	 -83.0505 	 -44.8951 	 -71.0063
| 22> H 	 -84.6021 	 -44.6887 	 -70.2786
| 23> S 	 -88.9302 	 -46.4957 	 -73.3729
| 24> C 	 -90.2736 	 -47.6171 	 -73.8034
| 25> C 	 -90.5723 	 -48.516 	 -72.765
| 26> C 	 -89.8428 	 -48.1877 	 -71.5656
| 27> C 	 -88.8323 	 -47.2739 	 -71.7644
| 28> H 	 -91.4362 	 -49.1789 	 -72.8892
| 29> C 	 -90.1368 	 -48.902 	 -70.2113
| 30> H 	 -91.2044 	 -49.1881 	 -70.0391
| 31> H 	 -89.8254 	 -48.1518 	 -69.504
| 32> C 	 -89.1908 	 -50.1302 	 -69.9242
| 33> H 	 -89.2746 	 -50.3508 	 -68.8002
| 34> H 	 -88.079 	 -49.9035 	 -70.0572
| 35> C 	 -89.3664 	 -51.447 	 -70.7227
| 36> H 	 -88.5017 	 -52.0103 	 -70.5177
| 37> H 	 -89.3779 	 -51.2382 	 -71.8029
| 38> H 	 -90.3363 	 -51.8397 	 -70.4191
| 39> H 	 -86.457 	 -45.2933 	 -67.7996
| 40> H 	 -90.7593 	 -47.6127 	 -74.8142
| 41> *
| 42>
| 43>                          ****END OF INPUT****

CARTESIAN COORDINATES (ANGSTROEM)
---------------------------------
  S    -88.179200  -45.636000  -69.488200
  C    -86.708400  -45.956600  -68.620900
  C    -85.941800  -46.870800  -69.299400
  C    -86.595900  -47.405400  -70.488900
  C    -87.849800  -46.823700  -70.747600
  H    -86.257800  -48.136700  -71.129600
  C    -84.513100  -47.280000  -68.981600
  H    -84.499400  -48.369000  -69.007800
  H    -84.302600  -46.842500  -68.010300
  C    -83.516700  -46.697900  -69.985700
  H    -82.460100  -46.905100  -69.589500
  H    -83.709800  -47.326200  -70.921900
  C    -83.666100  -45.196700  -70.198000
  H    -83.175200  -44.737400  -69.277700
  H    -83.050500  -44.895100  -71.006300
  H    -84.602100  -44.688700  -70.278600
  S    -88.930200  -46.495700  -73.372900
  C    -90.273600  -47.617100  -73.803400
  C    -90.572300  -48.516000  -72.765000
  C    -89.842800  -48.187700  -71.565600
  C    -88.832300  -47.273900  -71.764400
  H    -91.436200  -49.178900  -72.889200
  C    -90.136800  -48.902000  -70.211300
  H    -91.204400  -49.188100  -70.039100
  H    -89.825400  -48.151800  -69.504000
  C    -89.190800  -50.130200  -69.924200
  H    -89.274600  -50.350800  -68.800200
  H    -88.079000  -49.903500  -70.057200
  C    -89.366400  -51.447000  -70.722700
  H    -88.501700  -52.010300  -70.517700
  H    -89.377900  -51.238200  -71.802900
  H    -90.336300  -51.839700  -70.419100
  H    -86.457000  -45.293300  -67.799600
  H    -90.759300  -47.612700  -74.814200

 Total Charge           Charge          ....    0
 Multiplicity           Mult            ....    1
 Number of Electrons    NEL             ....  134
 Basis Dimension        Dim             ....  322

ORBITAL ENERGIES
----------------

  NO   OCC          E(Eh)            E(eV)
   0   2.0000     -88.968789     -2420.9638
   1   2.0000     -88.964114     -2420.8366
   2   2.0000     -10.333699      -281.1943
   3   2.0000     -10.330017      -281.0941
   4   2.0000     -10.329709      -281.0857
   5   2.0000     -10.315922      -280.7105
   6   2.0000     -10.308810      -280.5170
   7   2.0000     -10.303843      -280.3818
   8   2.0000     -10.301355      -280.3141
   9   2.0000     -10.298521      -280.2370
  10   2.0000     -10.297160      -280.2000
  11   2.0000     -10.294774      -280.1350
  12   2.0000     -10.293670      -280.1050
  13   2.0000     -10.290732      -280.0251
  14   2.0000     -10.274747      -279.5901
  15   2.0000     -10.272705      -279.5345
  16   2.0000      -8.082027      -219.9231
  17   2.0000      -8.078689      -219.8323
  18   2.0000      -6.040671      -164.3750
  19   2.0000      -6.037207      -164.2807
  20   2.0000      -6.036834      -164.2706
  21   2.0000      -6.033005      -164.1664
  22   2.0000      -6.032641      -164.1565
  23   2.0000      -6.029649      -164.0751
  24   2.0000      -0.999075       -27.1862
  25   2.0000      -0.977339       -26.5947
  26   2.0000      -0.912523       -24.8310
  27   2.0000      -0.893544       -24.3146
  28   2.0000      -0.864370       -23.5207
  29   2.0000      -0.843470       -22.9520
  30   2.0000      -0.842301       -22.9202
  31   2.0000      -0.813342       -22.1322
  32   2.0000      -0.783648       -21.3241
  33   2.0000      -0.773345       -21.0438
  34   2.0000      -0.701893       -19.0995
  35   2.0000      -0.689456       -18.7610
  36   2.0000      -0.676146       -18.3989
  37   2.0000      -0.657921       -17.9029
  38   2.0000      -0.649847       -17.6832
  39   2.0000      -0.613919       -16.7056
  40   2.0000      -0.584883       -15.9155
  41   2.0000      -0.563014       -15.3204
  42   2.0000      -0.559184       -15.2162
  43   2.0000      -0.549685       -14.9577
  44   2.0000      -0.544288       -14.8108
  45   2.0000      -0.531522       -14.4635
  46   2.0000      -0.522308       -14.2127
  47   2.0000      -0.514111       -13.9897
  48   2.0000      -0.502408       -13.6712
  49   2.0000      -0.494932       -13.4678
  50   2.0000      -0.484210       -13.1760
  51   2.0000      -0.476925       -12.9778
  52   2.0000      -0.468701       -12.7540
  53   2.0000      -0.461503       -12.5581
  54   2.0000      -0.458330       -12.4718
  55   2.0000      -0.445433       -12.1208
  56   2.0000      -0.438679       -11.9371
  57   2.0000      -0.435529       -11.8513
  58   2.0000      -0.432585       -11.7712
  59   2.0000      -0.416339       -11.3292
  60   2.0000      -0.413436       -11.2502
  61   2.0000      -0.410684       -11.1753
  62   2.0000      -0.406129       -11.0513
  63   2.0000      -0.334143        -9.0925
  64   2.0000      -0.329514        -8.9665
  65   2.0000      -0.320143        -8.7115
  66   2.0000      -0.313282        -8.5248
  67   0.0000       0.042891         1.1671
  68   0.0000       0.047492         1.2923
  69   0.0000       0.107303         2.9199
  70   0.0000       0.118715         3.2304
  71   0.0000       0.124557         3.3894

MULLIKEN ATOMIC CHARGES
-----------------------
   0 S :    0.099530
   1 C :   -0.135847
   2 C :   -0.107700
   3 C :    0.081027
   4 C :   -0.186301
   5 H :   -0.011907
   6 C :    0.108527
   7 H :    0.036406
   8 H :    0.009058
   9 C :   -0.117683
  10 H :    0.049275
  11 H :    0.039242
  12 C :   -0.043546
  13 H :    0.022095
  14 H :    0.029648
  15 H :    0.050873
  16 S :    0.102855
  17 C :   -0.130460
  18 C :   -0.021571
  19 C :   -0.042848
  20 C :   -0.171020
  21 H :    0.035066
  22 C :    0.108965
  23 H :    0.041057
  24 H :    0.023843
  25 C :   -0.158527
  26 H :    0.038954
  27 H :    0.033486
  28 C :   -0.018786
  29 H :    0.032714
  30 H :    0.033917
  31 H :    0.030167
  32 H :    0.059002
  33 H :    0.080490
Sum of atomic charges:    0.0000000

LOEWDIN ATOMIC CHARGES
----------------------
   0 S :    0.404555
   1 C :   -0.201229
   2 C :   -0.063174
   3 C :   -0.045428
   4 C :   -0.191322
   5 H :    0.016773
   6 C :   -0.031077
   7 H :    0.032846
   8 H :    0.024305
   9 C :   -0.046520
  10 H :    0.035200
  11 H :    0.025518
  12 C :   -0.069647
  13 H :    0.032578
  14 H :    0.023755
  15 H :    0.025293
  16 S :    0.370626
  17 C :   -0.171935
  18 C :   -0.076801
  19 C :   -0.045602
  20 C :   -0.200659
  21 H :    0.037311
  22 C :   -0.030473
  23 H :    0.035770
  24 H :    0.028247
  25 C :   -0.050170
  26 H :    0.027847
  27 H :    0.027064
  28 C :   -0.064499
  29 H :    0.022753
  30 H :    0.026671
  31 H :    0.022479
  32 H :    0.030126
  33 H :    0.038821

  Mayer bond orders larger than 0.100000
B(  0-S ,  1-C ) :   1.1432 B(  0-S ,  4-C ) :   1.1522 B(  1-C ,  2-C ) :   1.6032
B(  1-C , 32-H ) :   0.9705 B(  2-C ,  3-C ) :   1.2179 B(  2-C ,  6-C ) :   1.0259
B(  3-C ,  4-C ) :   1.5875 B(  3-C ,  5-H ) :   0.9999 B(  4-C , 20-C ) :   1.0112
B(  6-C ,  7-H ) :   0.9398 B(  6-C ,  8-H ) :   0.9370 B(  6-C ,  9-C ) :   1.0687
B(  9-C , 10-H ) :   0.9580 B(  9-C , 11-H ) :   0.9545 B(  9-C , 12-C ) :   1.0664
B( 12-C , 13-H ) :   0.9724 B( 12-C , 14-H ) :   0.9728 B( 12-C , 15-H ) :   0.9758
B( 16-S , 17-C ) :   1.1490 B( 16-S , 20-C ) :   1.1202 B( 17-C , 18-C ) :   1.6295
B( 17-C , 33-H ) :   0.9592 B( 18-C , 19-C ) :   1.2139 B( 18-C , 21-H ) :   0.9828
B( 19-C , 20-C ) :   1.6382 B( 19-C , 22-C ) :   1.0334 B( 22-C , 23-H ) :   0.9468
B( 22-C , 24-H ) :   0.9135 B( 22-C , 25-C ) :   1.0639 B( 25-C , 26-H ) :   0.9574
B( 25-C , 27-H ) :   0.9581 B( 25-C , 28-C ) :   1.0686 B( 28-C , 29-H ) :   0.9751
B( 28-C , 30-H ) :   0.9739 B( 28-C , 31-H ) :   0.9771

Dispersion correction           -0.015759852
FINAL SINGLE POINT ENERGY     -1339.871288153019

DIPOLE MOMENT
-------------
                                X             Y             Z
Electronic contribution:    -12.71740      13.42713      -8.31025
Nuclear contribution   :     12.92007     -13.75147       8.47059
                        -----------------------------------------
Total Dipole Moment    :      0.20268      -0.32434       0.16034
                        -----------------------------------------
Magnitude (a.u.)       :      0.41471
Magnitude (Debye)      :      1.05410

Rotational constants in cm-1:     0.019746     0.008747     0.007553
Rotational constants in MHz :   591.976054   262.240684   226.425665

                             ****ORCA TERMINATED NORMALLY****
TOTAL RUN TIME: 0 days 0 hours 0 minutes 22 seconds 188 msec
