                         Program Version 4.2.1 -  RELEASE  -
|  1> ! wB97X-D3 SP def2-SVP
|  2> %pal
|  3> nprocs 24
|  4> end
|  5>
|  6> * xyz 0 1
|  7> S 	 -33.7467 	 3.6027 	 1.83248
|  8> C 	 -33.8766 	 1.96406 	 1.24863
|  9> C 	 -33.8041 	 1.04992 	 2.25738
| 10> C 	 -33.6525 	 1.64679 	 3.54783
| 11> C 	 -33.6179 	 3.01892 	 3.45478
| 12> H 	 -33.5504 	 1.16984 	 4.54149
| 13> C 	 -33.9979 	 -0.466622 	 1.96883
| 14> H 	 -34.3037 	 -0.646658 	 0.937439
| 15> H 	 -34.8054 	 -0.829168 	 2.54491
| 16> C 	 -32.6734 	 -1.18177 	 2.20911
| 17> H 	 -31.8815 	 -0.872148 	 1.51158
| 18> H 	 -32.3722 	 -0.987415 	 3.25276
| 19> C 	 -33.007 	 -2.66135 	 2.13145
| 20> H 	 -33.8602 	 -2.9007 	 2.79161
| 21> H 	 -33.1491 	 -3.02938 	 1.12518
| 22> H 	 -32.1578 	 -3.21479 	 2.64702
| 23> S 	 -34.9753 	 4.94832 	 4.79554
| 24> C 	 -34.3433 	 5.57084 	 6.25478
| 25> C 	 -33.2708 	 4.80839 	 6.68751
| 26> C 	 -32.8158 	 3.83287 	 5.75726
| 27> C 	 -33.6107 	 3.88625 	 4.61319
| 28> H 	 -32.8001 	 4.9819 	 7.61472
| 29> C 	 -31.5801 	 2.9872 	 6.06979
| 30> H 	 -31.7749 	 1.98138 	 5.77624
| 31> H 	 -31.4341 	 2.87255 	 7.18617
| 32> C 	 -30.2081 	 3.4735 	 5.56953
| 33> H 	 -29.5222 	 2.69598 	 5.93136
| 34> H 	 -29.8934 	 4.41304 	 6.05619
| 35> C 	 -30.0764 	 3.6914 	 4.07326
| 36> H 	 -30.8773 	 4.37552 	 3.73593
| 37> H 	 -30.225 	 2.74868 	 3.60089
| 38> H 	 -29.0769 	 4.01512 	 3.79192
| 39> H 	 -33.9326 	 1.62339 	 0.223094
| 40> H 	 -34.8252 	 6.35053 	 6.85014
| 41> *
| 42>
| 43>                          ****END OF INPUT****

CARTESIAN COORDINATES (ANGSTROEM)
---------------------------------
  S    -33.746700    3.602700    1.832480
  C    -33.876600    1.964060    1.248630
  C    -33.804100    1.049920    2.257380
  C    -33.652500    1.646790    3.547830
  C    -33.617900    3.018920    3.454780
  H    -33.550400    1.169840    4.541490
  C    -33.997900   -0.466622    1.968830
  H    -34.303700   -0.646658    0.937439
  H    -34.805400   -0.829168    2.544910
  C    -32.673400   -1.181770    2.209110
  H    -31.881500   -0.872148    1.511580
  H    -32.372200   -0.987415    3.252760
  C    -33.007000   -2.661350    2.131450
  H    -33.860200   -2.900700    2.791610
  H    -33.149100   -3.029380    1.125180
  H    -32.157800   -3.214790    2.647020
  S    -34.975300    4.948320    4.795540
  C    -34.343300    5.570840    6.254780
  C    -33.270800    4.808390    6.687510
  C    -32.815800    3.832870    5.757260
  C    -33.610700    3.886250    4.613190
  H    -32.800100    4.981900    7.614720
  C    -31.580100    2.987200    6.069790
  H    -31.774900    1.981380    5.776240
  H    -31.434100    2.872550    7.186170
  C    -30.208100    3.473500    5.569530
  H    -29.522200    2.695980    5.931360
  H    -29.893400    4.413040    6.056190
  C    -30.076400    3.691400    4.073260
  H    -30.877300    4.375520    3.735930
  H    -30.225000    2.748680    3.600890
  H    -29.076900    4.015120    3.791920
  H    -33.932600    1.623390    0.223094
  H    -34.825200    6.350530    6.850140

 Total Charge           Charge          ....    0
 Multiplicity           Mult            ....    1
 Number of Electrons    NEL             ....  134
 Basis Dimension        Dim             ....  322

ORBITAL ENERGIES
----------------

  NO   OCC          E(Eh)            E(eV)
   0   2.0000     -88.967350     -2420.9247
   1   2.0000     -88.964931     -2420.8588
   2   2.0000     -10.323488      -280.9164
   3   2.0000     -10.322818      -280.8982
   4   2.0000     -10.312599      -280.6201
   5   2.0000     -10.307245      -280.4744
   6   2.0000     -10.301836      -280.3272
   7   2.0000     -10.297610      -280.2122
   8   2.0000     -10.295745      -280.1615
   9   2.0000     -10.294875      -280.1378
  10   2.0000     -10.288687      -279.9694
  11   2.0000     -10.286973      -279.9228
  12   2.0000     -10.286823      -279.9187
  13   2.0000     -10.284644      -279.8594
  14   2.0000     -10.280982      -279.7597
  15   2.0000     -10.266409      -279.3632
  16   2.0000      -8.082293      -219.9304
  17   2.0000      -8.080690      -219.8868
  18   2.0000      -6.040760      -164.3774
  19   2.0000      -6.039005      -164.3297
  20   2.0000      -6.036829      -164.2705
  21   2.0000      -6.035042      -164.2218
  22   2.0000      -6.033031      -164.1671
  23   2.0000      -6.031607      -164.1284
  24   2.0000      -1.011907       -27.5354
  25   2.0000      -0.987867       -26.8812
  26   2.0000      -0.916186       -24.9307
  27   2.0000      -0.907406       -24.6918
  28   2.0000      -0.870550       -23.6889
  29   2.0000      -0.852326       -23.1930
  30   2.0000      -0.845560       -23.0088
  31   2.0000      -0.810022       -22.0418
  32   2.0000      -0.784799       -21.3555
  33   2.0000      -0.769453       -20.9379
  34   2.0000      -0.704777       -19.1780
  35   2.0000      -0.694409       -18.8958
  36   2.0000      -0.688555       -18.7365
  37   2.0000      -0.661947       -18.0125
  38   2.0000      -0.640254       -17.4222
  39   2.0000      -0.618090       -16.8191
  40   2.0000      -0.597959       -16.2713
  41   2.0000      -0.574424       -15.6309
  42   2.0000      -0.561843       -15.2885
  43   2.0000      -0.547023       -14.8853
  44   2.0000      -0.540477       -14.7071
  45   2.0000      -0.521819       -14.1994
  46   2.0000      -0.516527       -14.0554
  47   2.0000      -0.505503       -13.7554
  48   2.0000      -0.502145       -13.6640
  49   2.0000      -0.498515       -13.5653
  50   2.0000      -0.495362       -13.4795
  51   2.0000      -0.479816       -13.0565
  52   2.0000      -0.470283       -12.7971
  53   2.0000      -0.467505       -12.7215
  54   2.0000      -0.461484       -12.5576
  55   2.0000      -0.450746       -12.2654
  56   2.0000      -0.444717       -12.1014
  57   2.0000      -0.441043       -12.0014
  58   2.0000      -0.433587       -11.7985
  59   2.0000      -0.428911       -11.6713
  60   2.0000      -0.420462       -11.4414
  61   2.0000      -0.410599       -11.1730
  62   2.0000      -0.402599       -10.9553
  63   2.0000      -0.344578        -9.3764
  64   2.0000      -0.333607        -9.0779
  65   2.0000      -0.329536        -8.9671
  66   2.0000      -0.292045        -7.9469
  67   0.0000       0.033786         0.9194
  68   0.0000       0.076082         2.0703
  69   0.0000       0.111924         3.0456
  70   0.0000       0.122076         3.3218
  71   0.0000       0.132705         3.6111

MULLIKEN ATOMIC CHARGES
-----------------------
   0 S :    0.124711
   1 C :   -0.112817
   2 C :   -0.084677
   3 C :    0.021934
   4 C :   -0.171684
   5 H :    0.029834
   6 C :    0.076765
   7 H :    0.009993
   8 H :    0.023243
   9 C :   -0.089580
  10 H :    0.043562
  11 H :    0.028704
  12 C :   -0.051325
  13 H :    0.028941
  14 H :    0.039425
  15 H :    0.033296
  16 S :    0.123699
  17 C :   -0.091299
  18 C :   -0.026480
  19 C :   -0.028814
  20 C :   -0.174968
  21 H :   -0.003082
  22 C :    0.071783
  23 H :    0.001646
  24 H :    0.028437
  25 C :   -0.075042
  26 H :    0.027612
  27 H :    0.026517
  28 C :   -0.024890
  29 H :    0.045293
  30 H :    0.017458
  31 H :    0.031716
  32 H :    0.038811
  33 H :    0.061277
Sum of atomic charges:   -0.0000000

LOEWDIN ATOMIC CHARGES
----------------------
   0 S :    0.415282
   1 C :   -0.204970
   2 C :   -0.059774
   3 C :   -0.065629
   4 C :   -0.203444
   5 H :    0.037309
   6 C :   -0.022259
   7 H :    0.026613
   8 H :    0.023943
   9 C :   -0.040901
  10 H :    0.029880
  11 H :    0.024570
  12 C :   -0.070097
  13 H :    0.026668
  14 H :    0.022037
  15 H :    0.030102
  16 S :    0.433228
  17 C :   -0.204407
  18 C :   -0.064282
  19 C :   -0.059228
  20 C :   -0.205338
  21 H :    0.021604
  22 C :   -0.032653
  23 H :    0.019992
  24 H :    0.040786
  25 C :   -0.039800
  26 H :    0.025086
  27 H :    0.023038
  28 C :   -0.064343
  29 H :    0.030459
  30 H :    0.019840
  31 H :    0.025805
  32 H :    0.028523
  33 H :    0.032359

  Mayer bond orders larger than 0.100000
B(  0-S ,  1-C ) :   1.1195 B(  0-S ,  4-C ) :   1.1596 B(  1-C ,  2-C ) :   1.6489
B(  1-C , 32-H ) :   0.9645 B(  2-C ,  3-C ) :   1.2266 B(  2-C ,  6-C ) :   1.0088
B(  3-C ,  4-C ) :   1.5824 B(  3-C ,  5-H ) :   0.9861 B(  4-C , 20-C ) :   1.0278
B(  6-C ,  7-H ) :   0.9444 B(  6-C ,  8-H ) :   0.9463 B(  6-C ,  9-C ) :   1.0590
B(  9-C , 10-H ) :   0.9551 B(  9-C , 11-H ) :   0.9597 B(  9-C , 12-C ) :   1.0827
B( 12-C , 13-H ) :   0.9723 B( 12-C , 14-H ) :   0.9749 B( 12-C , 15-H ) :   0.9732
B( 16-S , 17-C ) :   1.1621 B( 16-S , 20-C ) :   1.1746 B( 17-C , 18-C ) :   1.5786
B( 17-C , 20-C ) :   0.1006 B( 17-C , 33-H ) :   0.9687 B( 18-C , 19-C ) :   1.2685
B( 18-C , 21-H ) :   0.9951 B( 19-C , 20-C ) :   1.5651 B( 19-C , 22-C ) :   1.0372
B( 22-C , 23-H ) :   0.9267 B( 22-C , 24-H ) :   0.9335 B( 22-C , 25-C ) :   1.0774
B( 25-C , 26-H ) :   0.9513 B( 25-C , 27-H ) :   0.9548 B( 25-C , 28-C ) :   1.0874
B( 28-C , 29-H ) :   0.9703 B( 28-C , 30-H ) :   0.9729 B( 28-C , 31-H ) :   0.9719

Dispersion correction           -0.015028255
FINAL SINGLE POINT ENERGY     -1339.891747067328

DIPOLE MOMENT
-------------
                                X             Y             Z
Electronic contribution:    -16.33639      22.08818      -1.22265
Nuclear contribution   :     16.56206     -22.65409       1.48463
                        -----------------------------------------
Total Dipole Moment    :      0.22566      -0.56590       0.26199
                        -----------------------------------------
Magnitude (a.u.)       :      0.66318
Magnitude (Debye)      :      1.68567

Rotational constants in cm-1:     0.019965     0.008634     0.007369
Rotational constants in MHz :   598.549654   258.837967   220.913080

                             ****ORCA TERMINATED NORMALLY****
TOTAL RUN TIME: 0 days 0 hours 0 minutes 21 seconds 192 msec
