                         Program Version 4.2.1 -  RELEASE  -
|  1> ! wB97X-D3 SP def2-SVP
|  2> %pal
|  3> nprocs 24
|  4> end
|  5>
|  6> * xyz 0 1
|  7> S 	 -141.144 	 28.7911 	 -19.3276
|  8> C 	 -139.54 	 28.9215 	 -18.6616
|  9> C 	 -138.829 	 27.7519 	 -18.8085
| 10> C 	 -139.617 	 26.732 	 -19.4543
| 11> C 	 -140.89 	 27.0977 	 -19.8952
| 12> H 	 -139.321 	 25.6814 	 -19.7044
| 13> C 	 -137.458 	 27.4179 	 -18.2991
| 14> H 	 -136.915 	 28.27 	 -18.2954
| 15> H 	 -136.982 	 26.8438 	 -19.1059
| 16> C 	 -137.362 	 26.6518 	 -16.9352
| 17> H 	 -136.313 	 26.5975 	 -16.6086
| 18> H 	 -137.818 	 27.2307 	 -16.2041
| 19> C 	 -137.883 	 25.236 	 -17.0657
| 20> H 	 -138.83 	 25.1212 	 -17.5339
| 21> H 	 -137.25 	 24.6455 	 -17.7154
| 22> H 	 -137.998 	 24.8304 	 -16.0426
| 23> S 	 -142.375 	 27.333 	 -22.2092
| 24> C 	 -143.368 	 25.9769 	 -22.743
| 25> C 	 -143.224 	 24.8836 	 -21.899
| 26> C 	 -142.344 	 25.1663 	 -20.7995
| 27> C 	 -141.778 	 26.4233 	 -20.801
| 28> H 	 -143.878 	 24.044 	 -22.0341
| 29> C 	 -142.09 	 24.1198 	 -19.733
| 30> H 	 -143.076 	 23.6635 	 -19.4345
| 31> H 	 -141.803 	 24.7217 	 -18.9235
| 32> C 	 -141.037 	 23.0482 	 -20.0151
| 33> H 	 -140.176 	 23.4849 	 -20.4362
| 34> H 	 -141.423 	 22.4501 	 -20.8329
| 35> C 	 -140.692 	 22.1234 	 -18.8364
| 36> H 	 -140.242 	 22.731 	 -18.0278
| 37> H 	 -140.004 	 21.386 	 -19.2234
| 38> H 	 -141.556 	 21.6611 	 -18.4557
| 39> H 	 -139.193 	 29.7603 	 -18.12
| 40> H 	 -143.869 	 25.8863 	 -23.6986
| 41> *
| 42>
| 43>                          ****END OF INPUT****

CARTESIAN COORDINATES (ANGSTROEM)
---------------------------------
  S    -141.144000   28.791100  -19.327600
  C    -139.540000   28.921500  -18.661600
  C    -138.829000   27.751900  -18.808500
  C    -139.617000   26.732000  -19.454300
  C    -140.890000   27.097700  -19.895200
  H    -139.321000   25.681400  -19.704400
  C    -137.458000   27.417900  -18.299100
  H    -136.915000   28.270000  -18.295400
  H    -136.982000   26.843800  -19.105900
  C    -137.362000   26.651800  -16.935200
  H    -136.313000   26.597500  -16.608600
  H    -137.818000   27.230700  -16.204100
  C    -137.883000   25.236000  -17.065700
  H    -138.830000   25.121200  -17.533900
  H    -137.250000   24.645500  -17.715400
  H    -137.998000   24.830400  -16.042600
  S    -142.375000   27.333000  -22.209200
  C    -143.368000   25.976900  -22.743000
  C    -143.224000   24.883600  -21.899000
  C    -142.344000   25.166300  -20.799500
  C    -141.778000   26.423300  -20.801000
  H    -143.878000   24.044000  -22.034100
  C    -142.090000   24.119800  -19.733000
  H    -143.076000   23.663500  -19.434500
  H    -141.803000   24.721700  -18.923500
  C    -141.037000   23.048200  -20.015100
  H    -140.176000   23.484900  -20.436200
  H    -141.423000   22.450100  -20.832900
  C    -140.692000   22.123400  -18.836400
  H    -140.242000   22.731000  -18.027800
  H    -140.004000   21.386000  -19.223400
  H    -141.556000   21.661100  -18.455700
  H    -139.193000   29.760300  -18.120000
  H    -143.869000   25.886300  -23.698600

 Total Charge           Charge          ....    0
 Multiplicity           Mult            ....    1
 Number of Electrons    NEL             ....  134
 Basis Dimension        Dim             ....  322

ORBITAL ENERGIES
----------------

  NO   OCC          E(Eh)            E(eV)
   0   2.0000     -88.965614     -2420.8774
   1   2.0000     -88.965420     -2420.8722
   2   2.0000     -10.334781      -281.2237
   3   2.0000     -10.329593      -281.0825
   4   2.0000     -10.320122      -280.8248
   5   2.0000     -10.315268      -280.6927
   6   2.0000     -10.303990      -280.3858
   7   2.0000     -10.302634      -280.3489
   8   2.0000     -10.300912      -280.3021
   9   2.0000     -10.294485      -280.1272
  10   2.0000     -10.286412      -279.9075
  11   2.0000     -10.285748      -279.8894
  12   2.0000     -10.284681      -279.8604
  13   2.0000     -10.281543      -279.7750
  14   2.0000     -10.277239      -279.6579
  15   2.0000     -10.274441      -279.5818
  16   2.0000      -8.079705      -219.8599
  17   2.0000      -8.079479      -219.8538
  18   2.0000      -6.038307      -164.3107
  19   2.0000      -6.038104      -164.3052
  20   2.0000      -6.034266      -164.2007
  21   2.0000      -6.034012      -164.1938
  22   2.0000      -6.030407      -164.0957
  23   2.0000      -6.030205      -164.0902
  24   2.0000      -1.002948       -27.2916
  25   2.0000      -0.980997       -26.6943
  26   2.0000      -0.912931       -24.8421
  27   2.0000      -0.909340       -24.7444
  28   2.0000      -0.874151       -23.7869
  29   2.0000      -0.852236       -23.1905
  30   2.0000      -0.844041       -22.9675
  31   2.0000      -0.818378       -22.2692
  32   2.0000      -0.784755       -21.3543
  33   2.0000      -0.773366       -21.0444
  34   2.0000      -0.711479       -19.3603
  35   2.0000      -0.710096       -19.3227
  36   2.0000      -0.700398       -19.0588
  37   2.0000      -0.664626       -18.0854
  38   2.0000      -0.645284       -17.5591
  39   2.0000      -0.615036       -16.7360
  40   2.0000      -0.590672       -16.0730
  41   2.0000      -0.574306       -15.6277
  42   2.0000      -0.567959       -15.4550
  43   2.0000      -0.551238       -14.9999
  44   2.0000      -0.541794       -14.7430
  45   2.0000      -0.530823       -14.4444
  46   2.0000      -0.518394       -14.1062
  47   2.0000      -0.516471       -14.0539
  48   2.0000      -0.510805       -13.8997
  49   2.0000      -0.502273       -13.6676
  50   2.0000      -0.492132       -13.3916
  51   2.0000      -0.479690       -13.0530
  52   2.0000      -0.473813       -12.8931
  53   2.0000      -0.466187       -12.6856
  54   2.0000      -0.460757       -12.5378
  55   2.0000      -0.446585       -12.1522
  56   2.0000      -0.443211       -12.0604
  57   2.0000      -0.440521       -11.9872
  58   2.0000      -0.430152       -11.7050
  59   2.0000      -0.426829       -11.6146
  60   2.0000      -0.420095       -11.4314
  61   2.0000      -0.416831       -11.3425
  62   2.0000      -0.414998       -11.2927
  63   2.0000      -0.352477        -9.5914
  64   2.0000      -0.331715        -9.0264
  65   2.0000      -0.327632        -8.9153
  66   2.0000      -0.291963        -7.9447
  67   0.0000       0.025843         0.7032
  68   0.0000       0.064333         1.7506
  69   0.0000       0.115423         3.1408
  70   0.0000       0.120189         3.2705
  71   0.0000       0.121923         3.3177

MULLIKEN ATOMIC CHARGES
-----------------------
   0 S :    0.101292
   1 C :   -0.104230
   2 C :   -0.095885
   3 C :    0.017688
   4 C :   -0.172587
   5 H :    0.020520
   6 C :    0.102194
   7 H :   -0.014969
   8 H :    0.021668
   9 C :   -0.014354
  10 H :    0.030894
  11 H :    0.012235
  12 C :   -0.047524
  13 H :    0.022501
  14 H :    0.022391
  15 H :    0.038425
  16 S :    0.102742
  17 C :   -0.095442
  18 C :   -0.027412
  19 C :   -0.057767
  20 C :   -0.140080
  21 H :    0.021224
  22 C :    0.072011
  23 H :    0.027506
  24 H :    0.003891
  25 C :   -0.053648
  26 H :    0.011150
  27 H :    0.014165
  28 C :   -0.014378
  29 H :    0.035385
  30 H :    0.038819
  31 H :    0.021708
  32 H :    0.036392
  33 H :    0.063474
Sum of atomic charges:    0.0000000

LOEWDIN ATOMIC CHARGES
----------------------
   0 S :    0.386241
   1 C :   -0.185083
   2 C :   -0.065753
   3 C :   -0.062213
   4 C :   -0.185526
   5 H :    0.034255
   6 C :   -0.025700
   7 H :    0.013207
   8 H :    0.034560
   9 C :   -0.025233
  10 H :    0.029456
  11 H :    0.014428
  12 C :   -0.064620
  13 H :    0.016961
  14 H :    0.024591
  15 H :    0.032313
  16 S :    0.391743
  17 C :   -0.177776
  18 C :   -0.071283
  19 C :   -0.052032
  20 C :   -0.193009
  21 H :    0.031649
  22 C :   -0.032902
  23 H :    0.034994
  24 H :    0.019275
  25 C :   -0.037343
  26 H :    0.014100
  27 H :    0.022198
  28 C :   -0.053896
  29 H :    0.028533
  30 H :    0.029375
  31 H :    0.018463
  32 H :    0.023642
  33 H :    0.032383

  Mayer bond orders larger than 0.100000
B(  0-S ,  1-C ) :   1.1423 B(  0-S ,  4-C ) :   1.1253 B(  1-C ,  2-C ) :   1.6077
B(  1-C , 32-H ) :   0.9734 B(  2-C ,  3-C ) :   1.2346 B(  2-C ,  6-C ) :   1.0272
B(  3-C ,  4-C ) :   1.5785 B(  3-C ,  5-H ) :   0.9757 B(  4-C , 20-C ) :   1.0707
B(  6-C ,  7-H ) :   0.9272 B(  6-C ,  8-H ) :   0.9382 B(  6-C ,  9-C ) :   1.0659
B(  9-C , 10-H ) :   0.9527 B(  9-C , 11-H ) :   0.9556 B(  9-C , 12-C ) :   1.0822
B( 12-C , 13-H ) :   0.9712 B( 12-C , 14-H ) :   0.9724 B( 12-C , 15-H ) :   0.9704
B( 16-S , 17-C ) :   1.1542 B( 16-S , 20-C ) :   1.1162 B( 17-C , 18-C ) :   1.6198
B( 17-C , 33-H ) :   0.9628 B( 18-C , 19-C ) :   1.2286 B( 18-C , 21-H ) :   0.9923
B( 19-C , 20-C ) :   1.6077 B( 19-C , 22-C ) :   1.0489 B( 22-C , 23-H ) :   0.9323
B( 22-C , 24-H ) :   0.9245 B( 22-C , 25-C ) :   1.0650 B( 25-C , 26-H ) :   0.9505
B( 25-C , 27-H ) :   0.9485 B( 25-C , 28-C ) :   1.0856 B( 28-C , 29-H ) :   0.9755
B( 28-C , 30-H ) :   0.9729 B( 28-C , 31-H ) :   0.9729

Dispersion correction           -0.015226197
FINAL SINGLE POINT ENERGY     -1339.879314548424

DIPOLE MOMENT
-------------
                                X             Y             Z
Electronic contribution:    -15.19605      22.99917     -15.30227
Nuclear contribution   :     15.53600     -23.55779      15.53249
                        -----------------------------------------
Total Dipole Moment    :      0.33996      -0.55861       0.23022
                        -----------------------------------------
Magnitude (a.u.)       :      0.69327
Magnitude (Debye)      :      1.76215

Rotational constants in cm-1:     0.016917     0.010531     0.006920
Rotational constants in MHz :   507.147551   315.703859   207.462007

                             ****ORCA TERMINATED NORMALLY****
TOTAL RUN TIME: 0 days 0 hours 0 minutes 22 seconds 331 msec
