                         Program Version 4.2.1 -  RELEASE  -
|  1> ! wB97X-D3 SP def2-SVP
|  2> %pal
|  3> nprocs 24
|  4> end
|  5>
|  6> * xyz 0 1
|  7> S 	 -103.115 	 1.69392 	 -104.415
|  8> C 	 -101.995 	 2.07582 	 -105.726
|  9> C 	 -101.287 	 1.00064 	 -106.11
| 10> C 	 -101.583 	 -0.194761 	 -105.349
| 11> C 	 -102.559 	 -0.00674163 	 -104.333
| 12> H 	 -101.12 	 -1.17267 	 -105.448
| 13> C 	 -100.106 	 0.948239 	 -107.065
| 14> H 	 -99.2595 	 0.504871 	 -106.638
| 15> H 	 -99.7928 	 1.97736 	 -107.207
| 16> C 	 -100.352 	 0.308175 	 -108.432
| 17> H 	 -100.917 	 -0.597112 	 -108.363
| 18> H 	 -100.931 	 0.99461 	 -109.099
| 19> C 	 -99.0429 	 -0.0560827 	 -109.192
| 20> H 	 -98.4671 	 0.743097 	 -109.548
| 21> H 	 -98.3452 	 -0.605785 	 -108.493
| 22> H 	 -99.167 	 -0.712917 	 -110.058
| 23> S 	 -101.93 	 -1.89324 	 -102.521
| 24> C 	 -103.175 	 -2.69317 	 -101.663
| 25> C 	 -104.406 	 -2.19056 	 -101.931
| 26> C 	 -104.407 	 -1.31683 	 -103.024
| 27> C 	 -103.11 	 -1.02997 	 -103.467
| 28> H 	 -105.29 	 -2.51692 	 -101.483
| 29> C 	 -105.689 	 -0.719337 	 -103.609
| 30> H 	 -105.801 	 -1.0079 	 -104.626
| 31> H 	 -105.566 	 0.386254 	 -103.775
| 32> C 	 -107.07 	 -0.925327 	 -102.903
| 33> H 	 -106.938 	 -0.632563 	 -101.846
| 34> H 	 -107.341 	 -1.95988 	 -103.141
| 35> C 	 -108.154 	 -0.0327603 	 -103.445
| 36> H 	 -109.18 	 -0.360101 	 -103.472
| 37> H 	 -107.944 	 0.0424234 	 -104.523
| 38> H 	 -108.239 	 0.963765 	 -103.048
| 39> H 	 -101.939 	 3.04531 	 -106.176
| 40> H 	 -102.949 	 -3.3259 	 -100.853
| 41> *
| 42>
| 43>                          ****END OF INPUT****

CARTESIAN COORDINATES (ANGSTROEM)
---------------------------------
  S    -103.115000    1.693920  -104.415000
  C    -101.995000    2.075820  -105.726000
  C    -101.287000    1.000640  -106.110000
  C    -101.583000   -0.194761  -105.349000
  C    -102.559000   -0.006742  -104.333000
  H    -101.120000   -1.172670  -105.448000
  C    -100.106000    0.948239  -107.065000
  H    -99.259500    0.504871  -106.638000
  H    -99.792800    1.977360  -107.207000
  C    -100.352000    0.308175  -108.432000
  H    -100.917000   -0.597112  -108.363000
  H    -100.931000    0.994610  -109.099000
  C    -99.042900   -0.056083  -109.192000
  H    -98.467100    0.743097  -109.548000
  H    -98.345200   -0.605785  -108.493000
  H    -99.167000   -0.712917  -110.058000
  S    -101.930000   -1.893240  -102.521000
  C    -103.175000   -2.693170  -101.663000
  C    -104.406000   -2.190560  -101.931000
  C    -104.407000   -1.316830  -103.024000
  C    -103.110000   -1.029970  -103.467000
  H    -105.290000   -2.516920  -101.483000
  C    -105.689000   -0.719337  -103.609000
  H    -105.801000   -1.007900  -104.626000
  H    -105.566000    0.386254  -103.775000
  C    -107.070000   -0.925327  -102.903000
  H    -106.938000   -0.632563  -101.846000
  H    -107.341000   -1.959880  -103.141000
  C    -108.154000   -0.032760  -103.445000
  H    -109.180000   -0.360101  -103.472000
  H    -107.944000    0.042423  -104.523000
  H    -108.239000    0.963765  -103.048000
  H    -101.939000    3.045310  -106.176000
  H    -102.949000   -3.325900  -100.853000

 Total Charge           Charge          ....    0
 Multiplicity           Mult            ....    1
 Number of Electrons    NEL             ....  134
 Basis Dimension        Dim             ....  322

ORBITAL ENERGIES
----------------

  NO   OCC          E(Eh)            E(eV)
   0   2.0000     -88.966445     -2420.9000
   1   2.0000     -88.965185     -2420.8658
   2   2.0000     -10.334971      -281.2289
   3   2.0000     -10.324090      -280.9328
   4   2.0000     -10.313252      -280.6379
   5   2.0000     -10.308977      -280.5215
   6   2.0000     -10.303994      -280.3859
   7   2.0000     -10.299609      -280.2666
   8   2.0000     -10.297016      -280.1960
   9   2.0000     -10.292259      -280.0666
  10   2.0000     -10.291093      -280.0349
  11   2.0000     -10.288411      -279.9619
  12   2.0000     -10.286683      -279.9149
  13   2.0000     -10.284680      -279.8604
  14   2.0000     -10.278136      -279.6823
  15   2.0000     -10.274038      -279.5708
  16   2.0000      -8.082127      -219.9259
  17   2.0000      -8.078751      -219.8340
  18   2.0000      -6.040331      -164.3658
  19   2.0000      -6.037466      -164.2878
  20   2.0000      -6.036524      -164.2622
  21   2.0000      -6.033392      -164.1770
  22   2.0000      -6.033123      -164.1696
  23   2.0000      -6.029394      -164.0682
  24   2.0000      -1.009631       -27.4735
  25   2.0000      -0.983292       -26.7567
  26   2.0000      -0.909409       -24.7463
  27   2.0000      -0.908698       -24.7269
  28   2.0000      -0.873301       -23.7637
  29   2.0000      -0.857536       -23.3347
  30   2.0000      -0.842059       -22.9136
  31   2.0000      -0.812843       -22.1186
  32   2.0000      -0.783236       -21.3129
  33   2.0000      -0.774059       -21.0632
  34   2.0000      -0.708383       -19.2761
  35   2.0000      -0.704611       -19.1734
  36   2.0000      -0.699055       -19.0222
  37   2.0000      -0.662806       -18.0359
  38   2.0000      -0.639196       -17.3934
  39   2.0000      -0.616442       -16.7742
  40   2.0000      -0.607208       -16.5230
  41   2.0000      -0.574805       -15.6412
  42   2.0000      -0.571835       -15.5604
  43   2.0000      -0.557943       -15.1824
  44   2.0000      -0.522787       -14.2257
  45   2.0000      -0.521658       -14.1950
  46   2.0000      -0.516342       -14.0504
  47   2.0000      -0.513099       -13.9621
  48   2.0000      -0.508104       -13.8262
  49   2.0000      -0.497915       -13.5489
  50   2.0000      -0.489380       -13.3167
  51   2.0000      -0.477658       -12.9977
  52   2.0000      -0.471645       -12.8341
  53   2.0000      -0.464625       -12.6431
  54   2.0000      -0.463257       -12.6059
  55   2.0000      -0.459549       -12.5050
  56   2.0000      -0.445489       -12.1224
  57   2.0000      -0.434853       -11.8329
  58   2.0000      -0.431417       -11.7395
  59   2.0000      -0.429722       -11.6933
  60   2.0000      -0.419272       -11.4090
  61   2.0000      -0.416862       -11.3434
  62   2.0000      -0.405447       -11.0328
  63   2.0000      -0.349719        -9.5163
  64   2.0000      -0.333541        -9.0761
  65   2.0000      -0.328642        -8.9428
  66   2.0000      -0.289416        -7.8754
  67   0.0000       0.026008         0.7077
  68   0.0000       0.073086         1.9888
  69   0.0000       0.111962         3.0466
  70   0.0000       0.120196         3.2707
  71   0.0000       0.128647         3.5007

MULLIKEN ATOMIC CHARGES
-----------------------
   0 S :    0.095173
   1 C :   -0.125386
   2 C :   -0.045055
   3 C :    0.007918
   4 C :   -0.136312
   5 H :    0.018041
   6 C :    0.095105
   7 H :    0.012369
   8 H :    0.008321
   9 C :   -0.065109
  10 H :    0.027892
  11 H :    0.034009
  12 C :   -0.064920
  13 H :    0.021305
  14 H :    0.025261
  15 H :    0.035646
  16 S :    0.117232
  17 C :   -0.055431
  18 C :   -0.024696
  19 C :   -0.029741
  20 C :   -0.163950
  21 H :    0.000156
  22 C :    0.022507
  23 H :    0.025786
  24 H :    0.027176
  25 C :   -0.065080
  26 H :    0.044364
  27 H :    0.042453
  28 C :   -0.044851
  29 H :    0.025777
  30 H :    0.017181
  31 H :    0.033926
  32 H :    0.042045
  33 H :    0.040888
Sum of atomic charges:   -0.0000000

LOEWDIN ATOMIC CHARGES
----------------------
   0 S :    0.383144
   1 C :   -0.182593
   2 C :   -0.065824
   3 C :   -0.061329
   4 C :   -0.183398
   5 H :    0.029028
   6 C :   -0.025490
   7 H :    0.023459
   8 H :    0.029403
   9 C :   -0.036952
  10 H :    0.020912
  11 H :    0.028497
  12 C :   -0.069250
  13 H :    0.014791
  14 H :    0.027137
  15 H :    0.028133
  16 S :    0.439814
  17 C :   -0.185226
  18 C :   -0.065112
  19 C :   -0.051702
  20 C :   -0.206875
  21 H :    0.023632
  22 C :   -0.042651
  23 H :    0.028909
  24 H :    0.027912
  25 C :   -0.042644
  26 H :    0.029787
  27 H :    0.029750
  28 C :   -0.071525
  29 H :    0.026519
  30 H :    0.027875
  31 H :    0.024962
  32 H :    0.027612
  33 H :    0.019296

  Mayer bond orders larger than 0.100000
B(  0-S ,  1-C ) :   1.1227 B(  0-S ,  4-C ) :   1.1264 B(  1-C ,  2-C ) :   1.6468
B(  1-C , 32-H ) :   0.9686 B(  2-C ,  3-C ) :   1.2122 B(  2-C ,  6-C ) :   1.0217
B(  3-C ,  4-C ) :   1.5732 B(  3-C ,  5-H ) :   0.9916 B(  4-C , 20-C ) :   1.0621
B(  6-C ,  7-H ) :   0.9476 B(  6-C ,  8-H ) :   0.9366 B(  6-C ,  9-C ) :   1.0562
B(  9-C , 10-H ) :   0.9630 B(  9-C , 11-H ) :   0.9545 B(  9-C , 12-C ) :   1.0745
B( 12-C , 13-H ) :   0.9780 B( 12-C , 14-H ) :   0.9747 B( 12-C , 15-H ) :   0.9761
B( 16-S , 17-C ) :   1.1778 B( 16-S , 20-C ) :   1.1644 B( 17-C , 18-C ) :   1.5619
B( 17-C , 20-C ) :   0.1009 B( 17-C , 33-H ) :   0.9688 B( 18-C , 19-C ) :   1.3002
B( 18-C , 21-H ) :   0.9963 B( 19-C , 20-C ) :   1.5529 B( 19-C , 22-C ) :   1.0197
B( 22-C , 23-H ) :   0.9208 B( 22-C , 24-H ) :   0.9337 B( 22-C , 25-C ) :   1.0771
B( 25-C , 26-H ) :   0.9550 B( 25-C , 27-H ) :   0.9497 B( 25-C , 28-C ) :   1.0864
B( 28-C , 29-H ) :   0.9719 B( 28-C , 30-H ) :   0.9690 B( 28-C , 31-H ) :   0.9741

Dispersion correction           -0.013249896
FINAL SINGLE POINT ENERGY     -1339.874191225548

DIPOLE MOMENT
-------------
                                X             Y             Z
Electronic contribution:      5.72516      -0.71495      16.28125
Nuclear contribution   :     -5.84441       0.65066     -16.50491
                        -----------------------------------------
Total Dipole Moment    :     -0.11925      -0.06429      -0.22366
                        -----------------------------------------
Magnitude (a.u.)       :      0.26149
Magnitude (Debye)      :      0.66466

Rotational constants in cm-1:     0.020546     0.007067     0.005954
Rotational constants in MHz :   615.955613   211.854721   178.483129

                             ****ORCA TERMINATED NORMALLY****
TOTAL RUN TIME: 0 days 0 hours 0 minutes 20 seconds 381 msec
