                         Program Version 4.2.1 -  RELEASE  -
|  1> ! wB97X-D3 SP def2-SVP
|  2> %pal
|  3> nprocs 24
|  4> end
|  5>
|  6> * xyz 0 1
|  7> S 	 -11.3653 	 -31.3407 	 -106.612
|  8> C 	 -11.4085 	 -30.8062 	 -104.913
|  9> C 	 -11.426 	 -31.8568 	 -104.039
| 10> C 	 -11.1389 	 -33.0965 	 -104.715
| 11> C 	 -11.0666 	 -32.9717 	 -106.122
| 12> H 	 -11.1553 	 -34.0658 	 -104.206
| 13> C 	 -11.6902 	 -31.8399 	 -102.548
| 14> H 	 -11.8782 	 -32.8479 	 -102.211
| 15> H 	 -12.697 	 -31.2872 	 -102.404
| 16> C 	 -10.6059 	 -31.2916 	 -101.552
| 17> H 	 -10.9169 	 -31.351 	 -100.528
| 18> H 	 -9.65943 	 -31.8474 	 -101.638
| 19> C 	 -10.3599 	 -29.8663 	 -102.016
| 20> H 	 -11.222 	 -29.2255 	 -102.002
| 21> H 	 -9.88457 	 -29.3689 	 -101.286
| 22> H 	 -9.75579 	 -29.9149 	 -102.939
| 23> S 	 -12.0793 	 -33.7459 	 -108.555
| 24> C 	 -11.5686 	 -35.3039 	 -109.228
| 25> C 	 -10.6028 	 -35.8444 	 -108.405
| 26> C 	 -10.2873 	 -35.0885 	 -107.275
| 27> C 	 -11.0858 	 -34.0073 	 -107.138
| 28> H 	 -10.0381 	 -36.7106 	 -108.656
| 29> C 	 -9.10268 	 -35.4517 	 -106.365
| 30> H 	 -9.31311 	 -36.5248 	 -106.098
| 31> H 	 -9.14103 	 -34.9054 	 -105.388
| 32> C 	 -7.68332 	 -35.3085 	 -106.909
| 33> H 	 -7.54202 	 -35.7235 	 -107.913
| 34> H 	 -7.04186 	 -35.9165 	 -106.301
| 35> C 	 -7.31111 	 -33.8029 	 -106.915
| 36> H 	 -8.16608 	 -33.1379 	 -107.04
| 37> H 	 -6.68824 	 -33.5608 	 -107.729
| 38> H 	 -6.8237 	 -33.4424 	 -105.968
| 39> H 	 -11.6552 	 -29.7846 	 -104.692
| 40> H 	 -11.8154 	 -35.8106 	 -110.139
| 41> *
| 42>
| 43>                          ****END OF INPUT****

CARTESIAN COORDINATES (ANGSTROEM)
---------------------------------
  S    -11.365300  -31.340700  -106.612000
  C    -11.408500  -30.806200  -104.913000
  C    -11.426000  -31.856800  -104.039000
  C    -11.138900  -33.096500  -104.715000
  C    -11.066600  -32.971700  -106.122000
  H    -11.155300  -34.065800  -104.206000
  C    -11.690200  -31.839900  -102.548000
  H    -11.878200  -32.847900  -102.211000
  H    -12.697000  -31.287200  -102.404000
  C    -10.605900  -31.291600  -101.552000
  H    -10.916900  -31.351000  -100.528000
  H     -9.659430  -31.847400  -101.638000
  C    -10.359900  -29.866300  -102.016000
  H    -11.222000  -29.225500  -102.002000
  H     -9.884570  -29.368900  -101.286000
  H     -9.755790  -29.914900  -102.939000
  S    -12.079300  -33.745900  -108.555000
  C    -11.568600  -35.303900  -109.228000
  C    -10.602800  -35.844400  -108.405000
  C    -10.287300  -35.088500  -107.275000
  C    -11.085800  -34.007300  -107.138000
  H    -10.038100  -36.710600  -108.656000
  C     -9.102680  -35.451700  -106.365000
  H     -9.313110  -36.524800  -106.098000
  H     -9.141030  -34.905400  -105.388000
  C     -7.683320  -35.308500  -106.909000
  H     -7.542020  -35.723500  -107.913000
  H     -7.041860  -35.916500  -106.301000
  C     -7.311110  -33.802900  -106.915000
  H     -8.166080  -33.137900  -107.040000
  H     -6.688240  -33.560800  -107.729000
  H     -6.823700  -33.442400  -105.968000
  H    -11.655200  -29.784600  -104.692000
  H    -11.815400  -35.810600  -110.139000

 Total Charge           Charge          ....    0
 Multiplicity           Mult            ....    1
 Number of Electrons    NEL             ....  134
 Basis Dimension        Dim             ....  322

ORBITAL ENERGIES
----------------

  NO   OCC          E(Eh)            E(eV)
   0   2.0000     -88.967515     -2420.9292
   1   2.0000     -88.966631     -2420.9051
   2   2.0000     -10.331315      -281.1294
   3   2.0000     -10.322126      -280.8793
   4   2.0000     -10.317746      -280.7601
   5   2.0000     -10.312971      -280.6302
   6   2.0000     -10.304036      -280.3871
   7   2.0000     -10.298271      -280.2302
   8   2.0000     -10.298176      -280.2276
   9   2.0000     -10.295694      -280.1601
  10   2.0000     -10.293847      -280.1098
  11   2.0000     -10.288732      -279.9706
  12   2.0000     -10.287121      -279.9268
  13   2.0000     -10.286121      -279.8996
  14   2.0000     -10.270545      -279.4757
  15   2.0000     -10.263321      -279.2792
  16   2.0000      -8.081775      -219.9163
  17   2.0000      -8.081372      -219.9053
  18   2.0000      -6.040481      -164.3699
  19   2.0000      -6.039856      -164.3528
  20   2.0000      -6.036418      -164.2593
  21   2.0000      -6.035950      -164.2465
  22   2.0000      -6.032269      -164.1464
  23   2.0000      -6.032094      -164.1416
  24   2.0000      -1.010561       -27.4987
  25   2.0000      -0.984174       -26.7807
  26   2.0000      -0.912886       -24.8409
  27   2.0000      -0.904837       -24.6219
  28   2.0000      -0.871627       -23.7182
  29   2.0000      -0.850336       -23.1388
  30   2.0000      -0.843735       -22.9592
  31   2.0000      -0.808763       -22.0076
  32   2.0000      -0.783386       -21.3170
  33   2.0000      -0.774343       -21.0709
  34   2.0000      -0.709653       -19.3106
  35   2.0000      -0.702020       -19.1029
  36   2.0000      -0.698305       -19.0018
  37   2.0000      -0.664478       -18.0814
  38   2.0000      -0.638787       -17.3823
  39   2.0000      -0.615294       -16.7430
  40   2.0000      -0.594433       -16.1754
  41   2.0000      -0.577225       -15.7071
  42   2.0000      -0.551098       -14.9961
  43   2.0000      -0.547631       -14.9018
  44   2.0000      -0.543492       -14.7892
  45   2.0000      -0.532598       -14.4927
  46   2.0000      -0.516354       -14.0507
  47   2.0000      -0.512421       -13.9437
  48   2.0000      -0.496719       -13.5164
  49   2.0000      -0.492668       -13.4062
  50   2.0000      -0.491108       -13.3637
  51   2.0000      -0.480702       -13.0806
  52   2.0000      -0.466813       -12.7026
  53   2.0000      -0.465805       -12.6752
  54   2.0000      -0.460253       -12.5241
  55   2.0000      -0.450443       -12.2572
  56   2.0000      -0.445642       -12.1265
  57   2.0000      -0.434880       -11.8337
  58   2.0000      -0.429131       -11.6772
  59   2.0000      -0.426009       -11.5923
  60   2.0000      -0.419900       -11.4261
  61   2.0000      -0.415171       -11.2974
  62   2.0000      -0.406998       -11.0750
  63   2.0000      -0.352739        -9.5985
  64   2.0000      -0.333467        -9.0741
  65   2.0000      -0.330704        -8.9989
  66   2.0000      -0.286199        -7.7879
  67   0.0000       0.024135         0.6567
  68   0.0000       0.069136         1.8813
  69   0.0000       0.102482         2.7887
  70   0.0000       0.118119         3.2142
  71   0.0000       0.136944         3.7264

MULLIKEN ATOMIC CHARGES
-----------------------
   0 S :    0.093337
   1 C :   -0.121535
   2 C :   -0.085471
   3 C :    0.016635
   4 C :   -0.144040
   5 H :    0.025262
   6 C :    0.029183
   7 H :    0.011965
   8 H :    0.050306
   9 C :   -0.053707
  10 H :    0.028593
  11 H :    0.034123
  12 C :   -0.015501
  13 H :    0.012123
  14 H :   -0.011272
  15 H :    0.061202
  16 S :    0.099728
  17 C :   -0.072252
  18 C :   -0.019671
  19 C :   -0.038261
  20 C :   -0.137055
  21 H :    0.001587
  22 C :    0.016951
  23 H :    0.029828
  24 H :    0.028865
  25 C :   -0.024803
  26 H :    0.023879
  27 H :    0.025309
  28 C :   -0.056704
  29 H :    0.036431
  30 H :    0.020456
  31 H :    0.038731
  32 H :    0.046653
  33 H :    0.049125
Sum of atomic charges:    0.0000000

LOEWDIN ATOMIC CHARGES
----------------------
   0 S :    0.400775
   1 C :   -0.185540
   2 C :   -0.062417
   3 C :   -0.066685
   4 C :   -0.192239
   5 H :    0.032517
   6 C :   -0.035157
   7 H :    0.022434
   8 H :    0.042437
   9 C :   -0.029835
  10 H :    0.021389
  11 H :    0.028330
  12 C :   -0.066576
  13 H :    0.023993
  14 H :    0.008150
  15 H :    0.037101
  16 S :    0.393246
  17 C :   -0.178185
  18 C :   -0.062441
  19 C :   -0.067129
  20 C :   -0.196044
  21 H :    0.025314
  22 C :   -0.034328
  23 H :    0.032134
  24 H :    0.033433
  25 C :   -0.037124
  26 H :    0.023398
  27 H :    0.023781
  28 C :   -0.067633
  29 H :    0.028962
  30 H :    0.018419
  31 H :    0.031787
  32 H :    0.022362
  33 H :    0.031369

  Mayer bond orders larger than 0.100000
B(  0-S ,  1-C ) :   1.1231 B(  0-S ,  4-C ) :   1.1546 B(  1-C ,  2-C ) :   1.6136
B(  1-C , 32-H ) :   0.9702 B(  2-C ,  3-C ) :   1.2574 B(  2-C ,  6-C ) :   1.0153
B(  3-C ,  4-C ) :   1.5480 B(  3-C ,  5-H ) :   0.9831 B(  4-C , 20-C ) :   1.0537
B(  6-C ,  7-H ) :   0.9408 B(  6-C ,  8-H ) :   0.9455 B(  6-C ,  9-C ) :   1.0674
B(  9-C , 10-H ) :   0.9560 B(  9-C , 11-H ) :   0.9544 B(  9-C , 12-C ) :   1.0932
B( 12-C , 13-H ) :   0.9674 B( 12-C , 14-H ) :   0.9614 B( 12-C , 15-H ) :   0.9678
B( 16-S , 17-C ) :   1.1324 B( 16-S , 20-C ) :   1.1238 B( 17-C , 18-C ) :   1.6102
B( 17-C , 33-H ) :   0.9701 B( 18-C , 19-C ) :   1.2621 B( 18-C , 21-H ) :   0.9870
B( 19-C , 20-C ) :   1.6100 B( 19-C , 22-C ) :   1.0369 B( 22-C , 23-H ) :   0.9330
B( 22-C , 24-H ) :   0.9343 B( 22-C , 25-C ) :   1.0779 B( 25-C , 26-H ) :   0.9607
B( 25-C , 27-H ) :   0.9542 B( 25-C , 28-C ) :   1.0553 B( 28-C , 29-H ) :   0.9807
B( 28-C , 30-H ) :   0.9759 B( 28-C , 31-H ) :   0.9751

Dispersion correction           -0.014900194
FINAL SINGLE POINT ENERGY     -1339.866408168843

DIPOLE MOMENT
-------------
                                X             Y             Z
Electronic contribution:    -15.56732      -0.66732     -19.84458
Nuclear contribution   :     15.83918       0.42619      20.34408
                        -----------------------------------------
Total Dipole Moment    :      0.27186      -0.24114       0.49949
                        -----------------------------------------
Magnitude (a.u.)       :      0.61769
Magnitude (Debye)      :      1.57005

Rotational constants in cm-1:     0.022282     0.008370     0.007026
Rotational constants in MHz :   667.987567   250.929712   210.637638

                             ****ORCA TERMINATED NORMALLY****
TOTAL RUN TIME: 0 days 0 hours 0 minutes 22 seconds 369 msec
