                         Program Version 4.2.1 -  RELEASE  -
|  1> ! wB97X-D3 SP def2-SVP
|  2> %pal
|  3> nprocs 24
|  4> end
|  5>
|  6> * xyz 0 1
|  7> S 	 -111.31 	 22.0022 	 -107.636
|  8> C 	 -109.725 	 21.3477 	 -107.249
|  9> C 	 -108.77 	 21.6958 	 -108.233
| 10> C 	 -109.428 	 22.2263 	 -109.379
| 11> C 	 -110.803 	 22.4514 	 -109.263
| 12> H 	 -109.047 	 22.3781 	 -110.377
| 13> C 	 -107.269 	 21.2379 	 -108.159
| 14> H 	 -107.061 	 20.6297 	 -109.085
| 15> H 	 -107.197 	 20.694 	 -107.184
| 16> C 	 -106.183 	 22.3265 	 -107.923
| 17> H 	 -106.552 	 22.8566 	 -107.071
| 18> H 	 -105.257 	 21.8271 	 -107.472
| 19> C 	 -105.865 	 23.3451 	 -109.09
| 20> H 	 -105.382 	 22.8099 	 -109.94
| 21> H 	 -106.865 	 23.764 	 -109.402
| 22> H 	 -105.25 	 24.153 	 -108.78
| 23> S 	 -112.669 	 24.5114 	 -109.533
| 24> C 	 -113.342 	 24.8077 	 -111.084
| 25> C 	 -112.799 	 23.9774 	 -112.048
| 26> C 	 -111.848 	 23.0146 	 -111.55
| 27> C 	 -111.663 	 23.1935 	 -110.199
| 28> H 	 -113.032 	 24.12 	 -113.106
| 29> C 	 -111.201 	 21.9932 	 -112.466
| 30> H 	 -111.992 	 21.4183 	 -113.016
| 31> H 	 -110.672 	 21.2515 	 -111.9
| 32> C 	 -110.297 	 22.5368 	 -113.548
| 33> H 	 -110.971 	 23.0739 	 -114.229
| 34> H 	 -109.862 	 21.7289 	 -114.165
| 35> C 	 -109.208 	 23.5187 	 -113.105
| 36> H 	 -109.691 	 24.3564 	 -112.618
| 37> H 	 -108.54 	 23.6431 	 -113.984
| 38> H 	 -108.647 	 22.9764 	 -112.253
| 39> H 	 -109.538 	 20.8815 	 -106.239
| 40> H 	 -114.279 	 25.3875 	 -111.195
| 41> *
| 42>
| 43>                          ****END OF INPUT****

CARTESIAN COORDINATES (ANGSTROEM)
---------------------------------
  S    -111.310000   22.002200  -107.636000
  C    -109.725000   21.347700  -107.249000
  C    -108.770000   21.695800  -108.233000
  C    -109.428000   22.226300  -109.379000
  C    -110.803000   22.451400  -109.263000
  H    -109.047000   22.378100  -110.377000
  C    -107.269000   21.237900  -108.159000
  H    -107.061000   20.629700  -109.085000
  H    -107.197000   20.694000  -107.184000
  C    -106.183000   22.326500  -107.923000
  H    -106.552000   22.856600  -107.071000
  H    -105.257000   21.827100  -107.472000
  C    -105.865000   23.345100  -109.090000
  H    -105.382000   22.809900  -109.940000
  H    -106.865000   23.764000  -109.402000
  H    -105.250000   24.153000  -108.780000
  S    -112.669000   24.511400  -109.533000
  C    -113.342000   24.807700  -111.084000
  C    -112.799000   23.977400  -112.048000
  C    -111.848000   23.014600  -111.550000
  C    -111.663000   23.193500  -110.199000
  H    -113.032000   24.120000  -113.106000
  C    -111.201000   21.993200  -112.466000
  H    -111.992000   21.418300  -113.016000
  H    -110.672000   21.251500  -111.900000
  C    -110.297000   22.536800  -113.548000
  H    -110.971000   23.073900  -114.229000
  H    -109.862000   21.728900  -114.165000
  C    -109.208000   23.518700  -113.105000
  H    -109.691000   24.356400  -112.618000
  H    -108.540000   23.643100  -113.984000
  H    -108.647000   22.976400  -112.253000
  H    -109.538000   20.881500  -106.239000
  H    -114.279000   25.387500  -111.195000

 Total Charge           Charge          ....    0
 Multiplicity           Mult            ....    1
 Number of Electrons    NEL             ....  134
 Basis Dimension        Dim             ....  322

ORBITAL ENERGIES
----------------

  NO   OCC          E(Eh)            E(eV)
   0   2.0000     -88.968293     -2420.9503
   1   2.0000     -88.966858     -2420.9113
   2   2.0000     -10.332002      -281.1481
   3   2.0000     -10.331873      -281.1445
   4   2.0000     -10.325839      -280.9804
   5   2.0000     -10.318520      -280.7812
   6   2.0000     -10.311819      -280.5989
   7   2.0000     -10.307209      -280.4734
   8   2.0000     -10.306290      -280.4484
   9   2.0000     -10.296662      -280.1864
  10   2.0000     -10.296520      -280.1826
  11   2.0000     -10.293355      -280.0964
  12   2.0000     -10.293090      -280.0892
  13   2.0000     -10.286679      -279.9148
  14   2.0000     -10.285451      -279.8814
  15   2.0000     -10.284178      -279.8467
  16   2.0000      -8.082517      -219.9365
  17   2.0000      -8.081827      -219.9177
  18   2.0000      -6.040907      -164.3814
  19   2.0000      -6.040314      -164.3653
  20   2.0000      -6.037024      -164.2758
  21   2.0000      -6.036327      -164.2568
  22   2.0000      -6.033510      -164.1802
  23   2.0000      -6.032571      -164.1546
  24   2.0000      -1.004817       -27.3425
  25   2.0000      -0.982257       -26.7286
  26   2.0000      -0.915059       -24.9000
  27   2.0000      -0.899970       -24.4894
  28   2.0000      -0.864983       -23.5374
  29   2.0000      -0.850045       -23.1309
  30   2.0000      -0.841110       -22.8878
  31   2.0000      -0.810254       -22.0481
  32   2.0000      -0.786706       -21.4074
  33   2.0000      -0.773630       -21.0516
  34   2.0000      -0.701744       -19.0954
  35   2.0000      -0.692892       -18.8546
  36   2.0000      -0.689312       -18.7571
  37   2.0000      -0.656522       -17.8649
  38   2.0000      -0.640945       -17.4410
  39   2.0000      -0.614960       -16.7339
  40   2.0000      -0.596572       -16.2336
  41   2.0000      -0.564022       -15.3478
  42   2.0000      -0.559375       -15.2214
  43   2.0000      -0.548854       -14.9351
  44   2.0000      -0.537539       -14.6272
  45   2.0000      -0.532577       -14.4922
  46   2.0000      -0.515311       -14.0223
  47   2.0000      -0.508048       -13.8247
  48   2.0000      -0.501808       -13.6549
  49   2.0000      -0.499418       -13.5898
  50   2.0000      -0.490208       -13.3392
  51   2.0000      -0.482416       -13.1272
  52   2.0000      -0.469478       -12.7751
  53   2.0000      -0.464395       -12.6368
  54   2.0000      -0.459929       -12.5153
  55   2.0000      -0.449039       -12.2190
  56   2.0000      -0.442283       -12.0351
  57   2.0000      -0.437982       -11.9181
  58   2.0000      -0.430067       -11.7027
  59   2.0000      -0.425326       -11.5737
  60   2.0000      -0.418890       -11.3986
  61   2.0000      -0.411728       -11.2037
  62   2.0000      -0.407067       -11.0768
  63   2.0000      -0.348172        -9.4742
  64   2.0000      -0.333832        -9.0840
  65   2.0000      -0.331306        -9.0153
  66   2.0000      -0.291729        -7.9384
  67   0.0000       0.025221         0.6863
  68   0.0000       0.066893         1.8202
  69   0.0000       0.108950         2.9647
  70   0.0000       0.115577         3.1450
  71   0.0000       0.121921         3.3176

MULLIKEN ATOMIC CHARGES
-----------------------
   0 S :    0.106763
   1 C :   -0.153473
   2 C :   -0.064639
   3 C :    0.060116
   4 C :   -0.164492
   5 H :   -0.036518
   6 C :    0.034162
   7 H :    0.053572
   8 H :    0.029863
   9 C :   -0.094534
  10 H :    0.018211
  11 H :    0.038109
  12 C :   -0.058549
  13 H :    0.041166
  14 H :    0.044336
  15 H :    0.038525
  16 S :    0.108445
  17 C :   -0.107294
  18 C :   -0.045937
  19 C :   -0.048972
  20 C :   -0.159449
  21 H :    0.026583
  22 C :    0.082397
  23 H :    0.040118
  24 H :    0.019942
  25 C :   -0.106247
  26 H :    0.019810
  27 H :    0.034707
  28 C :   -0.063457
  29 H :    0.057022
  30 H :    0.052505
  31 H :    0.039707
  32 H :    0.078252
  33 H :    0.079252
Sum of atomic charges:    0.0000000

LOEWDIN ATOMIC CHARGES
----------------------
   0 S :    0.400543
   1 C :   -0.201027
   2 C :   -0.067328
   3 C :   -0.064392
   4 C :   -0.193751
   5 H :    0.021581
   6 C :   -0.031215
   7 H :    0.035732
   8 H :    0.039300
   9 C :   -0.051139
  10 H :    0.019577
  11 H :    0.029615
  12 C :   -0.069930
  13 H :    0.028174
  14 H :    0.033783
  15 H :    0.022370
  16 S :    0.401292
  17 C :   -0.201765
  18 C :   -0.072853
  19 C :   -0.058665
  20 C :   -0.184015
  21 H :    0.031890
  22 C :   -0.033232
  23 H :    0.042537
  24 H :    0.024146
  25 C :   -0.048378
  26 H :    0.018095
  27 H :    0.027127
  28 C :   -0.069289
  29 H :    0.029490
  30 H :    0.035700
  31 H :    0.027593
  32 H :    0.039380
  33 H :    0.039055

  Mayer bond orders larger than 0.100000
B(  0-S ,  1-C ) :   1.1610 B(  0-S ,  4-C ) :   1.1493 B(  1-C ,  2-C ) :   1.5771
B(  1-C ,  4-C ) :   0.1053 B(  1-C , 32-H ) :   0.9586 B(  2-C ,  3-C ) :   1.2519
B(  2-C ,  6-C ) :   1.0124 B(  3-C ,  4-C ) :   1.5594 B(  3-C ,  5-H ) :   0.9901
B(  4-C , 20-C ) :   1.0428 B(  6-C ,  7-H ) :   0.9507 B(  6-C ,  8-H ) :   0.9395
B(  6-C ,  9-C ) :   1.0630 B(  9-C , 10-H ) :   0.9523 B(  9-C , 11-H ) :   0.9591
B(  9-C , 12-C ) :   1.0660 B( 12-C , 13-H ) :   0.9783 B( 12-C , 14-H ) :   0.9733
B( 12-C , 15-H ) :   0.9763 B( 16-S , 17-C ) :   1.1546 B( 16-S , 20-C ) :   1.1364
B( 17-C , 18-C ) :   1.6192 B( 17-C , 33-H ) :   0.9602 B( 18-C , 19-C ) :   1.2231
B( 18-C , 21-H ) :   0.9868 B( 19-C , 20-C ) :   1.6131 B( 19-C , 22-C ) :   1.0475
B( 22-C , 23-H ) :   0.9336 B( 22-C , 24-H ) :   0.9296 B( 22-C , 25-C ) :   1.0743
B( 25-C , 26-H ) :   0.9519 B( 25-C , 27-H ) :   0.9550 B( 25-C , 28-C ) :   1.0743
B( 28-C , 29-H ) :   0.9689 B( 28-C , 30-H ) :   0.9674 B( 28-C , 31-H ) :   0.9680

Dispersion correction           -0.015143713
FINAL SINGLE POINT ENERGY     -1339.878472955385

DIPOLE MOMENT
-------------
                                X             Y             Z
Electronic contribution:    -24.59910       2.73509      13.61034
Nuclear contribution   :     24.94987      -2.89462     -13.98020
                        -----------------------------------------
Total Dipole Moment    :      0.35078      -0.15952      -0.36986
                        -----------------------------------------
Magnitude (a.u.)       :      0.53413
Magnitude (Debye)      :      1.35764

Rotational constants in cm-1:     0.017869     0.009512     0.007250
Rotational constants in MHz :   535.705106   285.176265   217.337753

                             ****ORCA TERMINATED NORMALLY****
TOTAL RUN TIME: 0 days 0 hours 0 minutes 21 seconds 39 msec
