                         Program Version 4.2.1 -  RELEASE  -
|  1> ! wB97X-D3 SP def2-SVP
|  2> %pal
|  3> nprocs 24
|  4> end
|  5>
|  6> * xyz 0 1
|  7> S 	 -109.052 	 61.8963 	 -96.3567
|  8> C 	 -107.425 	 62.4855 	 -95.867
|  9> C 	 -106.412 	 61.5866 	 -96.1146
| 10> C 	 -106.945 	 60.4362 	 -96.772
| 11> C 	 -108.32 	 60.3988 	 -96.8128
| 12> H 	 -106.509 	 59.6223 	 -97.279
| 13> C 	 -104.975 	 61.8227 	 -95.9722
| 14> H 	 -104.879 	 61.4183 	 -94.9541
| 15> H 	 -104.836 	 62.9356 	 -95.9145
| 16> C 	 -103.914 	 61.1042 	 -96.9452
| 17> H 	 -104.279 	 60.0704 	 -97.0042
| 18> H 	 -104.039 	 61.4679 	 -97.9629
| 19> C 	 -102.549 	 61.2549 	 -96.4124
| 20> H 	 -101.791 	 60.8494 	 -97.2082
| 21> H 	 -102.315 	 62.3021 	 -96.1825
| 22> H 	 -102.495 	 60.6894 	 -95.5287
| 23> S 	 -109.705 	 58.1761 	 -96.0921
| 24> C 	 -110.55 	 57.3126 	 -97.3269
| 25> C 	 -110.44 	 57.9133 	 -98.526
| 26> C 	 -109.651 	 59.0742 	 -98.5857
| 27> C 	 -109.101 	 59.3074 	 -97.345
| 28> H 	 -110.947 	 57.4903 	 -99.346
| 29> C 	 -109.415 	 59.8379 	 -99.8097
| 30> H 	 -108.852 	 60.6866 	 -99.5423
| 31> H 	 -110.407 	 60.1636 	 -100.198
| 32> C 	 -108.647 	 58.9801 	 -100.851
| 33> H 	 -109.17 	 58.0417 	 -101.141
| 34> H 	 -107.722 	 58.791 	 -100.246
| 35> C 	 -108.174 	 59.7164 	 -102.125
| 36> H 	 -107.676 	 60.6515 	 -101.951
| 37> H 	 -108.909 	 59.9652 	 -102.809
| 38> H 	 -107.29 	 59.1788 	 -102.526
| 39> H 	 -107.292 	 63.4546 	 -95.4314
| 40> H 	 -111.151 	 56.4428 	 -97.1058
| 41> *
| 42>
| 43>                          ****END OF INPUT****

CARTESIAN COORDINATES (ANGSTROEM)
---------------------------------
  S    -109.052000   61.896300  -96.356700
  C    -107.425000   62.485500  -95.867000
  C    -106.412000   61.586600  -96.114600
  C    -106.945000   60.436200  -96.772000
  C    -108.320000   60.398800  -96.812800
  H    -106.509000   59.622300  -97.279000
  C    -104.975000   61.822700  -95.972200
  H    -104.879000   61.418300  -94.954100
  H    -104.836000   62.935600  -95.914500
  C    -103.914000   61.104200  -96.945200
  H    -104.279000   60.070400  -97.004200
  H    -104.039000   61.467900  -97.962900
  C    -102.549000   61.254900  -96.412400
  H    -101.791000   60.849400  -97.208200
  H    -102.315000   62.302100  -96.182500
  H    -102.495000   60.689400  -95.528700
  S    -109.705000   58.176100  -96.092100
  C    -110.550000   57.312600  -97.326900
  C    -110.440000   57.913300  -98.526000
  C    -109.651000   59.074200  -98.585700
  C    -109.101000   59.307400  -97.345000
  H    -110.947000   57.490300  -99.346000
  C    -109.415000   59.837900  -99.809700
  H    -108.852000   60.686600  -99.542300
  H    -110.407000   60.163600  -100.198000
  C    -108.647000   58.980100  -100.851000
  H    -109.170000   58.041700  -101.141000
  H    -107.722000   58.791000  -100.246000
  C    -108.174000   59.716400  -102.125000
  H    -107.676000   60.651500  -101.951000
  H    -108.909000   59.965200  -102.809000
  H    -107.290000   59.178800  -102.526000
  H    -107.292000   63.454600  -95.431400
  H    -111.151000   56.442800  -97.105800

 Total Charge           Charge          ....    0
 Multiplicity           Mult            ....    1
 Number of Electrons    NEL             ....  134
 Basis Dimension        Dim             ....  322

ORBITAL ENERGIES
----------------

  NO   OCC          E(Eh)            E(eV)
   0   2.0000     -88.963371     -2420.8164
   1   2.0000     -88.958509     -2420.6841
   2   2.0000     -10.318977      -280.7936
   3   2.0000     -10.317998      -280.7670
   4   2.0000     -10.310540      -280.5641
   5   2.0000     -10.309200      -280.5276
   6   2.0000     -10.299756      -280.2706
   7   2.0000     -10.296296      -280.1765
   8   2.0000     -10.295433      -280.1530
   9   2.0000     -10.295178      -280.1460
  10   2.0000     -10.293190      -280.0919
  11   2.0000     -10.286964      -279.9225
  12   2.0000     -10.285404      -279.8801
  13   2.0000     -10.283818      -279.8369
  14   2.0000     -10.279909      -279.7306
  15   2.0000     -10.272854      -279.5386
  16   2.0000      -8.077731      -219.8062
  17   2.0000      -8.073577      -219.6932
  18   2.0000      -6.036127      -164.2514
  19   2.0000      -6.032492      -164.1525
  20   2.0000      -6.031930      -164.1372
  21   2.0000      -6.028444      -164.0423
  22   2.0000      -6.028189      -164.0354
  23   2.0000      -6.024330      -163.9304
  24   2.0000      -1.007148       -27.4059
  25   2.0000      -0.984173       -26.7807
  26   2.0000      -0.915182       -24.9034
  27   2.0000      -0.912442       -24.8288
  28   2.0000      -0.874327       -23.7917
  29   2.0000      -0.852466       -23.1968
  30   2.0000      -0.849805       -23.1244
  31   2.0000      -0.814584       -22.1660
  32   2.0000      -0.786681       -21.4067
  33   2.0000      -0.769503       -20.9392
  34   2.0000      -0.711932       -19.3726
  35   2.0000      -0.702065       -19.1041
  36   2.0000      -0.691840       -18.8259
  37   2.0000      -0.659852       -17.9555
  38   2.0000      -0.644440       -17.5361
  39   2.0000      -0.614065       -16.7096
  40   2.0000      -0.598983       -16.2992
  41   2.0000      -0.571821       -15.5600
  42   2.0000      -0.571303       -15.5459
  43   2.0000      -0.558604       -15.2004
  44   2.0000      -0.529241       -14.4014
  45   2.0000      -0.525233       -14.2923
  46   2.0000      -0.521809       -14.1992
  47   2.0000      -0.512573       -13.9478
  48   2.0000      -0.509429       -13.8623
  49   2.0000      -0.500547       -13.6206
  50   2.0000      -0.486513       -13.2387
  51   2.0000      -0.479259       -13.0413
  52   2.0000      -0.473265       -12.8782
  53   2.0000      -0.469150       -12.7662
  54   2.0000      -0.453752       -12.3472
  55   2.0000      -0.450916       -12.2700
  56   2.0000      -0.445883       -12.1331
  57   2.0000      -0.431432       -11.7399
  58   2.0000      -0.431002       -11.7282
  59   2.0000      -0.430213       -11.7067
  60   2.0000      -0.423171       -11.5151
  61   2.0000      -0.419542       -11.4163
  62   2.0000      -0.413602       -11.2547
  63   2.0000      -0.333078        -9.0635
  64   2.0000      -0.324325        -8.8253
  65   2.0000      -0.315078        -8.5737
  66   2.0000      -0.309489        -8.4216
  67   0.0000       0.049771         1.3543
  68   0.0000       0.056295         1.5319
  69   0.0000       0.110764         3.0140
  70   0.0000       0.117916         3.2087
  71   0.0000       0.133074         3.6211

MULLIKEN ATOMIC CHARGES
-----------------------
   0 S :    0.119850
   1 C :   -0.145913
   2 C :   -0.013398
   3 C :    0.021079
   4 C :   -0.181795
   5 H :   -0.005823
   6 C :    0.004358
   7 H :    0.044945
   8 H :    0.032505
   9 C :   -0.063075
  10 H :    0.036484
  11 H :    0.033587
  12 C :   -0.033997
  13 H :    0.051182
  14 H :    0.037564
  15 H :    0.025435
  16 S :    0.100573
  17 C :   -0.076168
  18 C :   -0.023542
  19 C :   -0.000693
  20 C :   -0.233380
  21 H :   -0.008274
  22 C :    0.136982
  23 H :    0.008457
  24 H :    0.031736
  25 C :   -0.133167
  26 H :    0.049346
  27 H :    0.036168
  28 C :   -0.004054
  29 H :    0.007764
  30 H :    0.024957
  31 H :    0.033926
  32 H :    0.034495
  33 H :    0.051891
Sum of atomic charges:   -0.0000000

LOEWDIN ATOMIC CHARGES
----------------------
   0 S :    0.393646
   1 C :   -0.185658
   2 C :   -0.060942
   3 C :   -0.062766
   4 C :   -0.207809
   5 H :    0.023912
   6 C :   -0.041000
   7 H :    0.043021
   8 H :    0.034037
   9 C :   -0.038737
  10 H :    0.025535
  11 H :    0.023594
  12 C :   -0.063537
  13 H :    0.041214
  14 H :    0.028396
  15 H :    0.020428
  16 S :    0.392205
  17 C :   -0.180174
  18 C :   -0.071719
  19 C :   -0.051807
  20 C :   -0.191688
  21 H :    0.022244
  22 C :   -0.027738
  23 H :    0.024603
  24 H :    0.034790
  25 C :   -0.038198
  26 H :    0.028624
  27 H :    0.033168
  28 C :   -0.068811
  29 H :    0.023819
  30 H :    0.014581
  31 H :    0.035562
  32 H :    0.019027
  33 H :    0.028178

  Mayer bond orders larger than 0.100000
B(  0-S ,  1-C ) :   1.1226 B(  0-S ,  4-C ) :   1.1487 B(  1-C ,  2-C ) :   1.6289
B(  1-C , 32-H ) :   0.9707 B(  2-C ,  3-C ) :   1.1880 B(  2-C ,  6-C ) :   1.0063
B(  3-C ,  4-C ) :   1.6191 B(  3-C ,  5-H ) :   0.9941 B(  4-C , 20-C ) :   1.0186
B(  6-C ,  7-H ) :   0.9257 B(  6-C ,  8-H ) :   0.9436 B(  6-C ,  9-C ) :   1.0555
B(  9-C , 10-H ) :   0.9461 B(  9-C , 11-H ) :   0.9562 B(  9-C , 12-C ) :   1.0875
B( 12-C , 13-H ) :   0.9691 B( 12-C , 14-H ) :   0.9725 B( 12-C , 15-H ) :   0.9748
B( 16-S , 17-C ) :   1.1465 B( 16-S , 20-C ) :   1.1427 B( 17-C , 18-C ) :   1.6303
B( 17-C , 33-H ) :   0.9673 B( 18-C , 19-C ) :   1.2062 B( 18-C , 21-H ) :   0.9980
B( 19-C , 20-C ) :   1.6085 B( 19-C , 22-C ) :   1.0661 B( 22-C , 23-H ) :   0.9191
B( 22-C , 24-H ) :   0.9177 B( 22-C , 25-C ) :   1.0564 B( 25-C , 26-H ) :   0.9585
B( 25-C , 27-H ) :   0.9544 B( 25-C , 28-C ) :   1.0877 B( 28-C , 29-H ) :   0.9666
B( 28-C , 30-H ) :   0.9753 B( 28-C , 31-H ) :   0.9727

Dispersion correction           -0.013962237
FINAL SINGLE POINT ENERGY     -1339.863149694329

DIPOLE MOMENT
-------------
                                X             Y             Z
Electronic contribution:    -21.56972      -2.50295      16.59149
Nuclear contribution   :     21.99880       2.52295     -17.05124
                        -----------------------------------------
Total Dipole Moment    :      0.42908       0.02000      -0.45975
                        -----------------------------------------
Magnitude (a.u.)       :      0.62918
Magnitude (Debye)      :      1.59926

Rotational constants in cm-1:     0.016613     0.008425     0.006990
Rotational constants in MHz :   498.030460   252.582546   209.565553

                             ****ORCA TERMINATED NORMALLY****
TOTAL RUN TIME: 0 days 0 hours 0 minutes 21 seconds 351 msec
