                         Program Version 4.2.1 -  RELEASE  -
|  1> ! wB97X-D3 SP def2-SVP
|  2> %pal
|  3> nprocs 24
|  4> end
|  5>
|  6> * xyz 0 1
|  7> S 	 -67.8006 	 9.65758 	 -72.7617
|  8> C 	 -68.7948 	 9.18351 	 -71.4074
|  9> C 	 -68.5863 	 10.0259 	 -70.3103
| 10> C 	 -67.6807 	 11.0657 	 -70.5994
| 11> C 	 -67.2718 	 11.0797 	 -71.9151
| 12> H 	 -67.2881 	 11.8787 	 -69.9266
| 13> C 	 -69.4076 	 10.0051 	 -69.0333
| 14> H 	 -70.441 	 9.63215 	 -69.3282
| 15> H 	 -69.5359 	 11.049 	 -68.6454
| 16> C 	 -68.9324 	 9.31599 	 -67.7629
| 17> H 	 -68.0085 	 9.70302 	 -67.2208
| 18> H 	 -69.7086 	 9.41216 	 -66.9549
| 19> C 	 -68.6667 	 7.86894 	 -68.025
| 20> H 	 -69.4658 	 7.54788 	 -68.5985
| 21> H 	 -67.7041 	 7.64739 	 -68.4934
| 22> H 	 -68.6785 	 7.23761 	 -67.1147
| 23> S 	 -66.7388 	 13.5938 	 -72.7573
| 24> C 	 -65.3202 	 14.0174 	 -73.6427
| 25> C 	 -64.5774 	 12.8739 	 -73.8801
| 26> C 	 -65.0427 	 11.7436 	 -73.1369
| 27> C 	 -66.2442 	 11.9475 	 -72.4989
| 28> H 	 -63.8795 	 12.925 	 -74.694
| 29> C 	 -64.374 	 10.3981 	 -73.3047
| 30> H 	 -64.8611 	 9.67057 	 -72.6285
| 31> H 	 -63.3345 	 10.5417 	 -72.9297
| 32> C 	 -64.4992 	 9.75247 	 -74.7341
| 33> H 	 -63.515 	 9.99308 	 -75.2379
| 34> H 	 -65.3377 	 10.1692 	 -75.2733
| 35> C 	 -64.6394 	 8.19995 	 -74.7553
| 36> H 	 -65.5925 	 7.8031 	 -74.3062
| 37> H 	 -63.8974 	 7.66558 	 -74.1142
| 38> H 	 -64.4873 	 7.70993 	 -75.7532
| 39> H 	 -69.5817 	 8.39553 	 -71.4846
| 40> H 	 -65.1032 	 14.875 	 -74.3386
| 41> *
| 42>
| 43>                          ****END OF INPUT****

CARTESIAN COORDINATES (ANGSTROEM)
---------------------------------
  S    -67.800600    9.657580  -72.761700
  C    -68.794800    9.183510  -71.407400
  C    -68.586300   10.025900  -70.310300
  C    -67.680700   11.065700  -70.599400
  C    -67.271800   11.079700  -71.915100
  H    -67.288100   11.878700  -69.926600
  C    -69.407600   10.005100  -69.033300
  H    -70.441000    9.632150  -69.328200
  H    -69.535900   11.049000  -68.645400
  C    -68.932400    9.315990  -67.762900
  H    -68.008500    9.703020  -67.220800
  H    -69.708600    9.412160  -66.954900
  C    -68.666700    7.868940  -68.025000
  H    -69.465800    7.547880  -68.598500
  H    -67.704100    7.647390  -68.493400
  H    -68.678500    7.237610  -67.114700
  S    -66.738800   13.593800  -72.757300
  C    -65.320200   14.017400  -73.642700
  C    -64.577400   12.873900  -73.880100
  C    -65.042700   11.743600  -73.136900
  C    -66.244200   11.947500  -72.498900
  H    -63.879500   12.925000  -74.694000
  C    -64.374000   10.398100  -73.304700
  H    -64.861100    9.670570  -72.628500
  H    -63.334500   10.541700  -72.929700
  C    -64.499200    9.752470  -74.734100
  H    -63.515000    9.993080  -75.237900
  H    -65.337700   10.169200  -75.273300
  C    -64.639400    8.199950  -74.755300
  H    -65.592500    7.803100  -74.306200
  H    -63.897400    7.665580  -74.114200
  H    -64.487300    7.709930  -75.753200
  H    -69.581700    8.395530  -71.484600
  H    -65.103200   14.875000  -74.338600

 Total Charge           Charge          ....    0
 Multiplicity           Mult            ....    1
 Number of Electrons    NEL             ....  134
 Basis Dimension        Dim             ....  322

ORBITAL ENERGIES
----------------

  NO   OCC          E(Eh)            E(eV)
   0   2.0000     -88.972396     -2421.0620
   1   2.0000     -88.963053     -2420.8077
   2   2.0000     -10.330058      -281.0952
   3   2.0000     -10.324581      -280.9461
   4   2.0000     -10.323549      -280.9181
   5   2.0000     -10.315795      -280.7070
   6   2.0000     -10.306772      -280.4615
   7   2.0000     -10.301418      -280.3158
   8   2.0000     -10.300934      -280.3027
   9   2.0000     -10.299296      -280.2581
  10   2.0000     -10.294664      -280.1320
  11   2.0000     -10.292098      -280.0622
  12   2.0000     -10.291588      -280.0483
  13   2.0000     -10.290096      -280.0077
  14   2.0000     -10.285659      -279.8870
  15   2.0000     -10.265822      -279.3472
  16   2.0000      -8.086862      -220.0547
  17   2.0000      -8.078304      -219.8218
  18   2.0000      -6.045243      -164.4994
  19   2.0000      -6.041386      -164.3945
  20   2.0000      -6.037788      -164.2966
  21   2.0000      -6.036818      -164.2702
  22   2.0000      -6.032653      -164.1568
  23   2.0000      -6.029080      -164.0596
  24   2.0000      -1.012452       -27.5502
  25   2.0000      -0.989848       -26.9351
  26   2.0000      -0.915517       -24.9125
  27   2.0000      -0.899073       -24.4650
  28   2.0000      -0.871460       -23.7136
  29   2.0000      -0.854385       -23.2490
  30   2.0000      -0.842732       -22.9319
  31   2.0000      -0.814730       -22.1699
  32   2.0000      -0.781588       -21.2681
  33   2.0000      -0.766936       -20.8694
  34   2.0000      -0.705483       -19.1972
  35   2.0000      -0.695395       -18.9227
  36   2.0000      -0.689319       -18.7573
  37   2.0000      -0.658886       -17.9292
  38   2.0000      -0.638441       -17.3729
  39   2.0000      -0.618771       -16.8376
  40   2.0000      -0.588309       -16.0087
  41   2.0000      -0.569008       -15.4835
  42   2.0000      -0.557670       -15.1750
  43   2.0000      -0.552125       -15.0241
  44   2.0000      -0.544715       -14.8224
  45   2.0000      -0.521941       -14.2027
  46   2.0000      -0.519172       -14.1274
  47   2.0000      -0.514799       -14.0084
  48   2.0000      -0.506337       -13.7781
  49   2.0000      -0.492041       -13.3891
  50   2.0000      -0.482306       -13.1242
  51   2.0000      -0.476329       -12.9616
  52   2.0000      -0.468886       -12.7590
  53   2.0000      -0.466161       -12.6849
  54   2.0000      -0.461455       -12.5568
  55   2.0000      -0.447218       -12.1694
  56   2.0000      -0.440220       -11.9790
  57   2.0000      -0.435010       -11.8372
  58   2.0000      -0.427605       -11.6357
  59   2.0000      -0.424107       -11.5405
  60   2.0000      -0.418273       -11.3818
  61   2.0000      -0.407773       -11.0961
  62   2.0000      -0.406349       -11.0573
  63   2.0000      -0.345323        -9.3967
  64   2.0000      -0.333895        -9.0857
  65   2.0000      -0.325343        -8.8530
  66   2.0000      -0.300862        -8.1869
  67   0.0000       0.035279         0.9600
  68   0.0000       0.057086         1.5534
  69   0.0000       0.105606         2.8737
  70   0.0000       0.114903         3.1267
  71   0.0000       0.128670         3.5013

MULLIKEN ATOMIC CHARGES
-----------------------
   0 S :    0.123086
   1 C :   -0.141601
   2 C :   -0.036482
   3 C :    0.014749
   4 C :   -0.150982
   5 H :    0.042319
   6 C :    0.007225
   7 H :    0.043071
   8 H :    0.038427
   9 C :   -0.095650
  10 H :    0.036411
  11 H :    0.035652
  12 C :   -0.024892
  13 H :   -0.002223
  14 H :    0.043997
  15 H :    0.024294
  16 S :    0.105968
  17 C :   -0.101471
  18 C :   -0.060294
  19 C :   -0.060238
  20 C :   -0.151432
  21 H :    0.021931
  22 C :    0.038881
  23 H :    0.024548
  24 H :    0.045179
  25 C :   -0.062281
  26 H :    0.042591
  27 H :    0.044915
  28 C :   -0.099939
  29 H :    0.035495
  30 H :    0.027481
  31 H :    0.044202
  32 H :    0.069845
  33 H :    0.077219
Sum of atomic charges:    0.0000000

LOEWDIN ATOMIC CHARGES
----------------------
   0 S :    0.430132
   1 C :   -0.200518
   2 C :   -0.068198
   3 C :   -0.059898
   4 C :   -0.204544
   5 H :    0.046433
   6 C :   -0.039937
   7 H :    0.039491
   8 H :    0.038927
   9 C :   -0.053167
  10 H :    0.029536
  11 H :    0.030727
  12 C :   -0.067770
  13 H :    0.009456
  14 H :    0.028632
  15 H :    0.027301
  16 S :    0.424657
  17 C :   -0.212266
  18 C :   -0.072825
  19 C :   -0.067284
  20 C :   -0.205077
  21 H :    0.029732
  22 C :   -0.040165
  23 H :    0.024050
  24 H :    0.037446
  25 C :   -0.042358
  26 H :    0.032517
  27 H :    0.024320
  28 C :   -0.084538
  29 H :    0.023765
  30 H :    0.025501
  31 H :    0.031434
  32 H :    0.036921
  33 H :    0.047569

  Mayer bond orders larger than 0.100000
B(  0-S ,  1-C ) :   1.1564 B(  0-S ,  4-C ) :   1.1562 B(  1-C ,  2-C ) :   1.5764
B(  1-C ,  4-C ) :   0.1008 B(  1-C , 32-H ) :   0.9635 B(  2-C ,  3-C ) :   1.2581
B(  2-C ,  6-C ) :   1.0111 B(  3-C ,  4-C ) :   1.5771 B(  3-C ,  5-H ) :   0.9832
B(  4-C , 20-C ) :   0.9914 B(  6-C ,  7-H ) :   0.9448 B(  6-C ,  8-H ) :   0.9456
B(  6-C ,  9-C ) :   1.0762 B(  9-C , 10-H ) :   0.9553 B(  9-C , 11-H ) :   0.9520
B(  9-C , 12-C ) :   1.0811 B( 12-C , 13-H ) :   0.9738 B( 12-C , 14-H ) :   0.9724
B( 12-C , 15-H ) :   0.9703 B( 16-S , 17-C ) :   1.1617 B( 16-S , 20-C ) :   1.1518
B( 17-C , 18-C ) :   1.6227 B( 17-C , 33-H ) :   0.9560 B( 18-C , 19-C ) :   1.2293
B( 18-C , 21-H ) :   0.9916 B( 19-C , 20-C ) :   1.6062 B( 19-C , 22-C ) :   1.0572
B( 22-C , 23-H ) :   0.9446 B( 22-C , 24-H ) :   0.9326 B( 22-C , 25-C ) :   1.0300
B( 25-C , 26-H ) :   0.9536 B( 25-C , 27-H ) :   0.9650 B( 25-C , 28-C ) :   1.0803
B( 28-C , 29-H ) :   0.9717 B( 28-C , 30-H ) :   0.9745 B( 28-C , 31-H ) :   0.9758

Dispersion correction           -0.014739689
FINAL SINGLE POINT ENERGY     -1339.866843666853

DIPOLE MOMENT
-------------
                                X             Y             Z
Electronic contribution:     -2.84801      18.20180      -8.63307
Nuclear contribution   :      2.83588     -18.48294       8.69686
                        -----------------------------------------
Total Dipole Moment    :     -0.01214      -0.28114       0.06379
                        -----------------------------------------
Magnitude (a.u.)       :      0.28854
Magnitude (Debye)      :      0.73342

Rotational constants in cm-1:     0.020624     0.008383     0.006657
Rotational constants in MHz :   618.278942   251.311266   199.558577

                             ****ORCA TERMINATED NORMALLY****
TOTAL RUN TIME: 0 days 0 hours 0 minutes 21 seconds 404 msec
