                         Program Version 4.2.1 -  RELEASE  -
|  1> ! wB97X-D3 SP def2-SVP
|  2> %pal
|  3> nprocs 24
|  4> end
|  5>
|  6> * xyz 0 1
|  7> S 	 -39.9998 	 -52.1345 	 -72.603
|  8> C 	 -39.0247 	 -53.145 	 -73.6957
|  9> C 	 -39.0851 	 -52.7649 	 -75.0107
| 10> C 	 -40.0048 	 -51.6372 	 -75.1733
| 11> C 	 -40.6667 	 -51.2266 	 -73.9983
| 12> H 	 -40.2834 	 -51.162 	 -76.1963
| 13> C 	 -38.3419 	 -53.4222 	 -76.1971
| 14> H 	 -38.9245 	 -53.2916 	 -77.1637
| 15> H 	 -38.244 	 -54.5034 	 -76.0804
| 16> C 	 -36.9418 	 -52.8199 	 -76.3244
| 17> H 	 -36.4855 	 -52.7144 	 -75.3377
| 18> H 	 -36.355 	 -53.5216 	 -76.8928
| 19> C 	 -37.0346 	 -51.4869 	 -77.0586
| 20> H 	 -37.7748 	 -50.8774 	 -76.5605
| 21> H 	 -36.0702 	 -50.991 	 -77.3104
| 22> H 	 -37.462 	 -51.6112 	 -78.143
| 23> S 	 -43.3471 	 -50.9859 	 -74.1309
| 24> C 	 -44.1689 	 -49.4608 	 -73.8901
| 25> C 	 -43.2631 	 -48.5547 	 -73.3646
| 26> C 	 -41.9241 	 -49.0215 	 -73.375
| 27> C 	 -41.7891 	 -50.3349 	 -73.8217
| 28> H 	 -43.4609 	 -47.5573 	 -73.1048
| 29> C 	 -40.7649 	 -48.1724 	 -72.8782
| 30> H 	 -40.2043 	 -47.6313 	 -73.6958
| 31> H 	 -40.0716 	 -48.9693 	 -72.5968
| 32> C 	 -41.0205 	 -47.1977 	 -71.7452
| 33> H 	 -41.6358 	 -47.7645 	 -71.0676
| 34> H 	 -41.6611 	 -46.4409 	 -72.1621
| 35> C 	 -39.8157 	 -46.4611 	 -71.1655
| 36> H 	 -40.1022 	 -45.7693 	 -70.279
| 37> H 	 -39.4993 	 -45.8474 	 -71.9963
| 38> H 	 -38.8933 	 -47.1367 	 -71.0225
| 39> H 	 -38.596 	 -54.07 	 -73.465
| 40> H 	 -45.2858 	 -49.4395 	 -73.8923
| 41> *
| 42>
| 43>                          ****END OF INPUT****

CARTESIAN COORDINATES (ANGSTROEM)
---------------------------------
  S    -39.999800  -52.134500  -72.603000
  C    -39.024700  -53.145000  -73.695700
  C    -39.085100  -52.764900  -75.010700
  C    -40.004800  -51.637200  -75.173300
  C    -40.666700  -51.226600  -73.998300
  H    -40.283400  -51.162000  -76.196300
  C    -38.341900  -53.422200  -76.197100
  H    -38.924500  -53.291600  -77.163700
  H    -38.244000  -54.503400  -76.080400
  C    -36.941800  -52.819900  -76.324400
  H    -36.485500  -52.714400  -75.337700
  H    -36.355000  -53.521600  -76.892800
  C    -37.034600  -51.486900  -77.058600
  H    -37.774800  -50.877400  -76.560500
  H    -36.070200  -50.991000  -77.310400
  H    -37.462000  -51.611200  -78.143000
  S    -43.347100  -50.985900  -74.130900
  C    -44.168900  -49.460800  -73.890100
  C    -43.263100  -48.554700  -73.364600
  C    -41.924100  -49.021500  -73.375000
  C    -41.789100  -50.334900  -73.821700
  H    -43.460900  -47.557300  -73.104800
  C    -40.764900  -48.172400  -72.878200
  H    -40.204300  -47.631300  -73.695800
  H    -40.071600  -48.969300  -72.596800
  C    -41.020500  -47.197700  -71.745200
  H    -41.635800  -47.764500  -71.067600
  H    -41.661100  -46.440900  -72.162100
  C    -39.815700  -46.461100  -71.165500
  H    -40.102200  -45.769300  -70.279000
  H    -39.499300  -45.847400  -71.996300
  H    -38.893300  -47.136700  -71.022500
  H    -38.596000  -54.070000  -73.465000
  H    -45.285800  -49.439500  -73.892300

 Total Charge           Charge          ....    0
 Multiplicity           Mult            ....    1
 Number of Electrons    NEL             ....  134
 Basis Dimension        Dim             ....  322

ORBITAL ENERGIES
----------------

  NO   OCC          E(Eh)            E(eV)
   0   2.0000     -88.968431     -2420.9541
   1   2.0000     -88.963572     -2420.8219
   2   2.0000     -10.336941      -281.2825
   3   2.0000     -10.323447      -280.9153
   4   2.0000     -10.323298      -280.9112
   5   2.0000     -10.314025      -280.6589
   6   2.0000     -10.311566      -280.5920
   7   2.0000     -10.308042      -280.4961
   8   2.0000     -10.302573      -280.3473
   9   2.0000     -10.301653      -280.3222
  10   2.0000     -10.291563      -280.0477
  11   2.0000     -10.291232      -280.0387
  12   2.0000     -10.289491      -279.9913
  13   2.0000     -10.285698      -279.8881
  14   2.0000     -10.284624      -279.8589
  15   2.0000     -10.281990      -279.7872
  16   2.0000      -8.081824      -219.9176
  17   2.0000      -8.079093      -219.8433
  18   2.0000      -6.040461      -164.3693
  19   2.0000      -6.037482      -164.2882
  20   2.0000      -6.036552      -164.2629
  21   2.0000      -6.033311      -164.1747
  22   2.0000      -6.032478      -164.1521
  23   2.0000      -6.030093      -164.0872
  24   2.0000      -1.007177       -27.4067
  25   2.0000      -0.979706       -26.6592
  26   2.0000      -0.913842       -24.8669
  27   2.0000      -0.911064       -24.7913
  28   2.0000      -0.871610       -23.7177
  29   2.0000      -0.849780       -23.1237
  30   2.0000      -0.837622       -22.7928
  31   2.0000      -0.812592       -22.1118
  32   2.0000      -0.779042       -21.1988
  33   2.0000      -0.768979       -20.9250
  34   2.0000      -0.705963       -19.2102
  35   2.0000      -0.700561       -19.0632
  36   2.0000      -0.697313       -18.9749
  37   2.0000      -0.657703       -17.8970
  38   2.0000      -0.638017       -17.3613
  39   2.0000      -0.610704       -16.6181
  40   2.0000      -0.599537       -16.3142
  41   2.0000      -0.574994       -15.6464
  42   2.0000      -0.567140       -15.4327
  43   2.0000      -0.551492       -15.0069
  44   2.0000      -0.538587       -14.6557
  45   2.0000      -0.526182       -14.3181
  46   2.0000      -0.514948       -14.0124
  47   2.0000      -0.508360       -13.8332
  48   2.0000      -0.503243       -13.6939
  49   2.0000      -0.493838       -13.4380
  50   2.0000      -0.484546       -13.1852
  51   2.0000      -0.475374       -12.9356
  52   2.0000      -0.473830       -12.8936
  53   2.0000      -0.467482       -12.7208
  54   2.0000      -0.453909       -12.3515
  55   2.0000      -0.450973       -12.2716
  56   2.0000      -0.441078       -12.0023
  57   2.0000      -0.433628       -11.7996
  58   2.0000      -0.426337       -11.6012
  59   2.0000      -0.423149       -11.5145
  60   2.0000      -0.420437       -11.4407
  61   2.0000      -0.416529       -11.3343
  62   2.0000      -0.411682       -11.2024
  63   2.0000      -0.336795        -9.1647
  64   2.0000      -0.329728        -8.9724
  65   2.0000      -0.324354        -8.8261
  66   2.0000      -0.308301        -8.3893
  67   0.0000       0.038541         1.0488
  68   0.0000       0.045496         1.2380
  69   0.0000       0.106514         2.8984
  70   0.0000       0.119291         3.2461
  71   0.0000       0.124438         3.3861

MULLIKEN ATOMIC CHARGES
-----------------------
   0 S :    0.111152
   1 C :   -0.085683
   2 C :   -0.108847
   3 C :    0.031402
   4 C :   -0.197756
   5 H :    0.053803
   6 C :    0.020919
   7 H :    0.040268
   8 H :    0.030038
   9 C :   -0.027587
  10 H :    0.039136
  11 H :    0.023248
  12 C :   -0.088480
  13 H :    0.036921
  14 H :    0.046203
  15 H :    0.025273
  16 S :    0.117682
  17 C :   -0.104663
  18 C :   -0.007866
  19 C :   -0.042953
  20 C :   -0.172763
  21 H :   -0.000975
  22 C :    0.059125
  23 H :    0.036299
  24 H :    0.014197
  25 C :   -0.080186
  26 H :    0.026009
  27 H :    0.025707
  28 C :   -0.061417
  29 H :    0.063962
  30 H :    0.022908
  31 H :    0.047228
  32 H :    0.026535
  33 H :    0.081158
Sum of atomic charges:    0.0000000

LOEWDIN ATOMIC CHARGES
----------------------
   0 S :    0.378020
   1 C :   -0.177994
   2 C :   -0.062134
   3 C :   -0.064490
   4 C :   -0.192602
   5 H :    0.047457
   6 C :   -0.030442
   7 H :    0.037204
   8 H :    0.029965
   9 C :   -0.038777
  10 H :    0.027916
  11 H :    0.019946
  12 C :   -0.075324
  13 H :    0.022712
  14 H :    0.028642
  15 H :    0.030851
  16 S :    0.435359
  17 C :   -0.189139
  18 C :   -0.069828
  19 C :   -0.053865
  20 C :   -0.225019
  21 H :    0.022400
  22 C :   -0.039307
  23 H :    0.034542
  24 H :    0.026146
  25 C :   -0.048452
  26 H :    0.019898
  27 H :    0.020972
  28 C :   -0.074885
  29 H :    0.043400
  30 H :    0.023643
  31 H :    0.035757
  32 H :    0.018429
  33 H :    0.039000

  Mayer bond orders larger than 0.100000
B(  0-S ,  1-C ) :   1.1278 B(  0-S ,  4-C ) :   1.1231 B(  1-C ,  2-C ) :   1.6605
B(  1-C , 32-H ) :   0.9642 B(  2-C ,  3-C ) :   1.2116 B(  2-C ,  6-C ) :   1.0184
B(  3-C ,  4-C ) :   1.6181 B(  3-C ,  5-H ) :   0.9692 B(  4-C , 20-C ) :   1.0248
B(  6-C ,  7-H ) :   0.9480 B(  6-C ,  8-H ) :   0.9441 B(  6-C ,  9-C ) :   1.0604
B(  9-C , 10-H ) :   0.9550 B(  9-C , 11-H ) :   0.9544 B(  9-C , 12-C ) :   1.0730
B( 12-C , 13-H ) :   0.9743 B( 12-C , 14-H ) :   0.9734 B( 12-C , 15-H ) :   0.9718
B( 16-S , 17-C ) :   1.1814 B( 16-S , 20-C ) :   1.1741 B( 17-C , 18-C ) :   1.5396
B( 17-C , 20-C ) :   0.1068 B( 17-C , 33-H ) :   0.9637 B( 18-C , 19-C ) :   1.2940
B( 18-C , 21-H ) :   0.9961 B( 19-C , 20-C ) :   1.5609 B( 19-C , 22-C ) :   1.0333
B( 22-C , 23-H ) :   0.9257 B( 22-C , 24-H ) :   0.9257 B( 22-C , 25-C ) :   1.0735
B( 25-C , 26-H ) :   0.9596 B( 25-C , 27-H ) :   0.9450 B( 25-C , 28-C ) :   1.0723
B( 28-C , 29-H ) :   0.9709 B( 28-C , 30-H ) :   0.9704 B( 28-C , 31-H ) :   0.9754

Dispersion correction           -0.013944706
FINAL SINGLE POINT ENERGY     -1339.867268019225

DIPOLE MOMENT
-------------
                                X             Y             Z
Electronic contribution:    -18.04216     -11.91180       5.44528
Nuclear contribution   :     18.23793      12.02955      -5.71708
                        -----------------------------------------
Total Dipole Moment    :      0.19577       0.11774      -0.27179
                        -----------------------------------------
Magnitude (a.u.)       :      0.35505
Magnitude (Debye)      :      0.90246

Rotational constants in cm-1:     0.018654     0.007864     0.006712
Rotational constants in MHz :   559.219249   235.764186   201.233274

                             ****ORCA TERMINATED NORMALLY****
TOTAL RUN TIME: 0 days 0 hours 0 minutes 21 seconds 183 msec
