                         Program Version 4.2.1 -  RELEASE  -
|  1> ! wB97X-D3 SP def2-SVP
|  2> %pal
|  3> nprocs 24
|  4> end
|  5>
|  6> * xyz 0 1
|  7> S 	 -131.701 	 26.8567 	 -26.4452
|  8> C 	 -133.075 	 25.8779 	 -26.0672
|  9> C 	 -133.093 	 25.5265 	 -24.7029
| 10> C 	 -131.985 	 26.1713 	 -24.0604
| 11> C 	 -131.337 	 27.1264 	 -24.7989
| 12> H 	 -131.564 	 26.0667 	 -23.054
| 13> C 	 -134.034 	 24.5195 	 -24.028
| 14> H 	 -133.781 	 23.4682 	 -24.0458
| 15> H 	 -135.047 	 24.6937 	 -24.392
| 16> C 	 -134.265 	 24.7903 	 -22.4938
| 17> H 	 -133.369 	 24.6442 	 -21.9102
| 18> H 	 -134.675 	 25.7892 	 -22.2133
| 19> C 	 -135.302 	 23.908 	 -21.7932
| 20> H 	 -136.312 	 23.9385 	 -22.1574
| 21> H 	 -135.074 	 22.8158 	 -21.989
| 22> H 	 -135.154 	 24.0202 	 -20.7141
| 23> S 	 -128.899 	 28.4068 	 -25.2039
| 24> C 	 -128.452 	 29.686 	 -24.1422
| 25> C 	 -129.489 	 30.0482 	 -23.3408
| 26> C 	 -130.567 	 29.0952 	 -23.2259
| 27> C 	 -130.431 	 28.1469 	 -24.2329
| 28> H 	 -129.387 	 30.8702 	 -22.67
| 29> C 	 -131.729 	 29.2741 	 -22.2657
| 30> H 	 -132.69 	 28.9503 	 -22.7019
| 31> H 	 -131.835 	 30.2719 	 -21.9584
| 32> C 	 -131.663 	 28.3847 	 -20.9695
| 33> H 	 -130.763 	 28.6602 	 -20.3969
| 34> H 	 -131.55 	 27.3115 	 -21.219
| 35> C 	 -132.918 	 28.4875 	 -20.0692
| 36> H 	 -133.817 	 28.3884 	 -20.6337
| 37> H 	 -132.896 	 29.5363 	 -19.6384
| 38> H 	 -132.967 	 27.7432 	 -19.2659
| 39> H 	 -133.824 	 25.3436 	 -26.6688
| 40> H 	 -127.552 	 30.2719 	 -24.2455
| 41> *
| 42>
| 43>                          ****END OF INPUT****

CARTESIAN COORDINATES (ANGSTROEM)
---------------------------------
  S    -131.701000   26.856700  -26.445200
  C    -133.075000   25.877900  -26.067200
  C    -133.093000   25.526500  -24.702900
  C    -131.985000   26.171300  -24.060400
  C    -131.337000   27.126400  -24.798900
  H    -131.564000   26.066700  -23.054000
  C    -134.034000   24.519500  -24.028000
  H    -133.781000   23.468200  -24.045800
  H    -135.047000   24.693700  -24.392000
  C    -134.265000   24.790300  -22.493800
  H    -133.369000   24.644200  -21.910200
  H    -134.675000   25.789200  -22.213300
  C    -135.302000   23.908000  -21.793200
  H    -136.312000   23.938500  -22.157400
  H    -135.074000   22.815800  -21.989000
  H    -135.154000   24.020200  -20.714100
  S    -128.899000   28.406800  -25.203900
  C    -128.452000   29.686000  -24.142200
  C    -129.489000   30.048200  -23.340800
  C    -130.567000   29.095200  -23.225900
  C    -130.431000   28.146900  -24.232900
  H    -129.387000   30.870200  -22.670000
  C    -131.729000   29.274100  -22.265700
  H    -132.690000   28.950300  -22.701900
  H    -131.835000   30.271900  -21.958400
  C    -131.663000   28.384700  -20.969500
  H    -130.763000   28.660200  -20.396900
  H    -131.550000   27.311500  -21.219000
  C    -132.918000   28.487500  -20.069200
  H    -133.817000   28.388400  -20.633700
  H    -132.896000   29.536300  -19.638400
  H    -132.967000   27.743200  -19.265900
  H    -133.824000   25.343600  -26.668800
  H    -127.552000   30.271900  -24.245500

 Total Charge           Charge          ....    0
 Multiplicity           Mult            ....    1
 Number of Electrons    NEL             ....  134
 Basis Dimension        Dim             ....  322

ORBITAL ENERGIES
----------------

  NO   OCC          E(Eh)            E(eV)
   0   2.0000     -88.969372     -2420.9797
   1   2.0000     -88.963756     -2420.8269
   2   2.0000     -10.336979      -281.2835
   3   2.0000     -10.324333      -280.9394
   4   2.0000     -10.316248      -280.7194
   5   2.0000     -10.315991      -280.7124
   6   2.0000     -10.313150      -280.6351
   7   2.0000     -10.306828      -280.4631
   8   2.0000     -10.301177      -280.3093
   9   2.0000     -10.296336      -280.1775
  10   2.0000     -10.292464      -280.0722
  11   2.0000     -10.292054      -280.0610
  12   2.0000     -10.289959      -280.0040
  13   2.0000     -10.289758      -279.9985
  14   2.0000     -10.283832      -279.8373
  15   2.0000     -10.281868      -279.7839
  16   2.0000      -8.084714      -219.9962
  17   2.0000      -8.078350      -219.8231
  18   2.0000      -6.043221      -164.4444
  19   2.0000      -6.039265      -164.3368
  20   2.0000      -6.036886      -164.2720
  21   2.0000      -6.035280      -164.2283
  22   2.0000      -6.033032      -164.1672
  23   2.0000      -6.028942      -164.0559
  24   2.0000      -1.009551       -27.4713
  25   2.0000      -0.986450       -26.8427
  26   2.0000      -0.908736       -24.7280
  27   2.0000      -0.906714       -24.6729
  28   2.0000      -0.869209       -23.6524
  29   2.0000      -0.853493       -23.2247
  30   2.0000      -0.845736       -23.0136
  31   2.0000      -0.813882       -22.1468
  32   2.0000      -0.785135       -21.3646
  33   2.0000      -0.775667       -21.1070
  34   2.0000      -0.706111       -19.2143
  35   2.0000      -0.696157       -18.9434
  36   2.0000      -0.687807       -18.7162
  37   2.0000      -0.662416       -18.0253
  38   2.0000      -0.642069       -17.4716
  39   2.0000      -0.614386       -16.7183
  40   2.0000      -0.601750       -16.3745
  41   2.0000      -0.574560       -15.6346
  42   2.0000      -0.569383       -15.4937
  43   2.0000      -0.564561       -15.3625
  44   2.0000      -0.527320       -14.3491
  45   2.0000      -0.520076       -14.1520
  46   2.0000      -0.518616       -14.1123
  47   2.0000      -0.511280       -13.9126
  48   2.0000      -0.505479       -13.7548
  49   2.0000      -0.497175       -13.5288
  50   2.0000      -0.491756       -13.3814
  51   2.0000      -0.485914       -13.2224
  52   2.0000      -0.470934       -12.8148
  53   2.0000      -0.467179       -12.7126
  54   2.0000      -0.462365       -12.5816
  55   2.0000      -0.449404       -12.2289
  56   2.0000      -0.443412       -12.0658
  57   2.0000      -0.432906       -11.7800
  58   2.0000      -0.429080       -11.6759
  59   2.0000      -0.426258       -11.5991
  60   2.0000      -0.421323       -11.4648
  61   2.0000      -0.416391       -11.3306
  62   2.0000      -0.414432       -11.2773
  63   2.0000      -0.348452        -9.4818
  64   2.0000      -0.331915        -9.0319
  65   2.0000      -0.328297        -8.9334
  66   2.0000      -0.289670        -7.8823
  67   0.0000       0.026181         0.7124
  68   0.0000       0.064146         1.7455
  69   0.0000       0.102185         2.7806
  70   0.0000       0.117909         3.2085
  71   0.0000       0.125870         3.4251

MULLIKEN ATOMIC CHARGES
-----------------------
   0 S :    0.136059
   1 C :   -0.103928
   2 C :   -0.085104
   3 C :   -0.005870
   4 C :   -0.133418
   5 H :    0.019807
   6 C :    0.088020
   7 H :    0.048510
   8 H :    0.028913
   9 C :   -0.130912
  10 H :    0.028272
  11 H :    0.037492
  12 C :   -0.063627
  13 H :    0.033468
  14 H :    0.012702
  15 H :    0.043785
  16 S :    0.080729
  17 C :   -0.070903
  18 C :   -0.024160
  19 C :   -0.016799
  20 C :   -0.173686
  21 H :    0.007597
  22 C :    0.088910
  23 H :    0.033596
  24 H :    0.008801
  25 C :   -0.108006
  26 H :    0.031126
  27 H :    0.026469
  28 C :   -0.047603
  29 H :    0.025945
  30 H :    0.035129
  31 H :    0.042151
  32 H :    0.047657
  33 H :    0.058879
Sum of atomic charges:   -0.0000000

LOEWDIN ATOMIC CHARGES
----------------------
   0 S :    0.435326
   1 C :   -0.211386
   2 C :   -0.065177
   3 C :   -0.070672
   4 C :   -0.214931
   5 H :    0.030522
   6 C :   -0.029461
   7 H :    0.034276
   8 H :    0.034987
   9 C :   -0.047462
  10 H :    0.018168
  11 H :    0.027297
  12 C :   -0.072199
  13 H :    0.019724
  14 H :    0.022716
  15 H :    0.032337
  16 S :    0.372255
  17 C :   -0.183229
  18 C :   -0.069958
  19 C :   -0.044058
  20 C :   -0.160544
  21 H :    0.024456
  22 C :   -0.023526
  23 H :    0.036577
  24 H :    0.023137
  25 C :   -0.040302
  26 H :    0.022267
  27 H :    0.019357
  28 C :   -0.067112
  29 H :    0.018287
  30 H :    0.031090
  31 H :    0.028763
  32 H :    0.037488
  33 H :    0.030986

  Mayer bond orders larger than 0.100000
B(  0-S ,  1-C ) :   1.1502 B(  0-S ,  4-C ) :   1.1482 B(  1-C ,  2-C ) :   1.5997
B(  1-C , 32-H ) :   0.9659 B(  2-C ,  3-C ) :   1.2439 B(  2-C ,  6-C ) :   1.0190
B(  3-C ,  4-C ) :   1.5612 B(  3-C ,  5-H ) :   0.9927 B(  4-C , 20-C ) :   1.0452
B(  6-C ,  7-H ) :   0.9413 B(  6-C ,  8-H ) :   0.9447 B(  6-C ,  9-C ) :   1.0588
B(  9-C , 10-H ) :   0.9519 B(  9-C , 11-H ) :   0.9609 B(  9-C , 12-C ) :   1.0852
B( 12-C , 13-H ) :   0.9757 B( 12-C , 14-H ) :   0.9688 B( 12-C , 15-H ) :   0.9737
B( 16-S , 17-C ) :   1.1438 B( 16-S , 20-C ) :   1.1195 B( 17-C , 18-C ) :   1.6430
B( 17-C , 33-H ) :   0.9657 B( 18-C , 19-C ) :   1.2211 B( 18-C , 21-H ) :   0.9832
B( 19-C , 20-C ) :   1.6145 B( 19-C , 22-C ) :   1.0535 B( 22-C , 23-H ) :   0.9319
B( 22-C , 24-H ) :   0.9354 B( 22-C , 25-C ) :   1.0503 B( 25-C , 26-H ) :   0.9551
B( 25-C , 27-H ) :   0.9555 B( 25-C , 28-C ) :   1.0796 B( 28-C , 29-H ) :   0.9739
B( 28-C , 30-H ) :   0.9746 B( 28-C , 31-H ) :   0.9753

Dispersion correction           -0.014508250
FINAL SINGLE POINT ENERGY     -1339.856784046252

DIPOLE MOMENT
-------------
                                X             Y             Z
Electronic contribution:     20.95329       7.99855     -27.37687
Nuclear contribution   :    -21.30021      -8.01410      28.01312
                        -----------------------------------------
Total Dipole Moment    :     -0.34693      -0.01555       0.63625
                        -----------------------------------------
Magnitude (a.u.)       :      0.72486
Magnitude (Debye)      :      1.84244

Rotational constants in cm-1:     0.017327     0.009765     0.006595
Rotational constants in MHz :   519.461231   292.760984   197.713513

                             ****ORCA TERMINATED NORMALLY****
TOTAL RUN TIME: 0 days 0 hours 0 minutes 21 seconds 991 msec
