                         Program Version 4.2.1 -  RELEASE  -
|  1> ! wB97X-D3 SP def2-SVP
|  2> %pal
|  3> nprocs 24
|  4> end
|  5>
|  6> * xyz 0 1
|  7> S 	 -56.8513 	 8.72526 	 -101.659
|  8> C 	 -56.3133 	 10.2658 	 -102.369
|  9> C 	 -55.0381 	 10.1246 	 -102.907
| 10> C 	 -54.4819 	 8.9056 	 -102.462
| 11> C 	 -55.2953 	 8.04308 	 -101.704
| 12> H 	 -53.5336 	 8.52236 	 -102.855
| 13> C 	 -54.2361 	 11.1538 	 -103.691
| 14> H 	 -53.6196 	 10.6043 	 -104.384
| 15> H 	 -53.486 	 11.7379 	 -103.079
| 16> C 	 -54.9836 	 12.1491 	 -104.528
| 17> H 	 -55.5991 	 11.6313 	 -105.26
| 18> H 	 -55.6353 	 12.6995 	 -103.836
| 19> C 	 -54.1325 	 13.1984 	 -105.364
| 20> H 	 -53.9114 	 14.0739 	 -104.783
| 21> H 	 -53.1668 	 12.8634 	 -105.521
| 22> H 	 -54.5299 	 13.5953 	 -106.234
| 23> S 	 -55.7074 	 5.46792 	 -102.364
| 24> C 	 -55.1106 	 4.13998 	 -101.369
| 25> C 	 -54.4019 	 4.67534 	 -100.318
| 26> C 	 -54.2789 	 6.13425 	 -100.309
| 27> C 	 -55.0279 	 6.6904 	 -101.347
| 28> H 	 -53.94 	 3.90483 	 -99.7072
| 29> C 	 -53.7163 	 6.87672 	 -99.0882
| 30> H 	 -53.8129 	 7.89378 	 -99.3748
| 31> H 	 -52.713 	 6.64061 	 -98.995
| 32> C 	 -54.4678 	 6.55897 	 -97.7659
| 33> H 	 -53.9421 	 7.04934 	 -96.9232
| 34> H 	 -54.2296 	 5.4665 	 -97.5212
| 35> C 	 -55.9665 	 6.79631 	 -97.5559
| 36> H 	 -56.5327 	 6.28976 	 -98.4035
| 37> H 	 -56.1496 	 7.87609 	 -97.4644
| 38> H 	 -56.3875 	 6.42485 	 -96.6002
| 39> H 	 -56.92 	 11.1326 	 -102.438
| 40> H 	 -55.2876 	 3.14955 	 -101.594
| 41> *
| 42>
| 43>                          ****END OF INPUT****

CARTESIAN COORDINATES (ANGSTROEM)
---------------------------------
  S    -56.851300    8.725260  -101.659000
  C    -56.313300   10.265800  -102.369000
  C    -55.038100   10.124600  -102.907000
  C    -54.481900    8.905600  -102.462000
  C    -55.295300    8.043080  -101.704000
  H    -53.533600    8.522360  -102.855000
  C    -54.236100   11.153800  -103.691000
  H    -53.619600   10.604300  -104.384000
  H    -53.486000   11.737900  -103.079000
  C    -54.983600   12.149100  -104.528000
  H    -55.599100   11.631300  -105.260000
  H    -55.635300   12.699500  -103.836000
  C    -54.132500   13.198400  -105.364000
  H    -53.911400   14.073900  -104.783000
  H    -53.166800   12.863400  -105.521000
  H    -54.529900   13.595300  -106.234000
  S    -55.707400    5.467920  -102.364000
  C    -55.110600    4.139980  -101.369000
  C    -54.401900    4.675340  -100.318000
  C    -54.278900    6.134250  -100.309000
  C    -55.027900    6.690400  -101.347000
  H    -53.940000    3.904830  -99.707200
  C    -53.716300    6.876720  -99.088200
  H    -53.812900    7.893780  -99.374800
  H    -52.713000    6.640610  -98.995000
  C    -54.467800    6.558970  -97.765900
  H    -53.942100    7.049340  -96.923200
  H    -54.229600    5.466500  -97.521200
  C    -55.966500    6.796310  -97.555900
  H    -56.532700    6.289760  -98.403500
  H    -56.149600    7.876090  -97.464400
  H    -56.387500    6.424850  -96.600200
  H    -56.920000   11.132600  -102.438000
  H    -55.287600    3.149550  -101.594000

 Total Charge           Charge          ....    0
 Multiplicity           Mult            ....    1
 Number of Electrons    NEL             ....  134
 Basis Dimension        Dim             ....  322

ORBITAL ENERGIES
----------------

  NO   OCC          E(Eh)            E(eV)
   0   2.0000     -88.967406     -2420.9262
   1   2.0000     -88.960424     -2420.7362
   2   2.0000     -10.325725      -280.9773
   3   2.0000     -10.325199      -280.9630
   4   2.0000     -10.317288      -280.7477
   5   2.0000     -10.313125      -280.6344
   6   2.0000     -10.307923      -280.4928
   7   2.0000     -10.305130      -280.4168
   8   2.0000     -10.297298      -280.2037
   9   2.0000     -10.295700      -280.1602
  10   2.0000     -10.294289      -280.1218
  11   2.0000     -10.291614      -280.0491
  12   2.0000     -10.290174      -280.0099
  13   2.0000     -10.286523      -279.9105
  14   2.0000     -10.280765      -279.7538
  15   2.0000     -10.270131      -279.4645
  16   2.0000      -8.082439      -219.9343
  17   2.0000      -8.075717      -219.7514
  18   2.0000      -6.040875      -164.3806
  19   2.0000      -6.036832      -164.2706
  20   2.0000      -6.034305      -164.2018
  21   2.0000      -6.033298      -164.1744
  22   2.0000      -6.029984      -164.0842
  23   2.0000      -6.026515      -163.9898
  24   2.0000      -1.010867       -27.5071
  25   2.0000      -0.983764       -26.7696
  26   2.0000      -0.915113       -24.9015
  27   2.0000      -0.901564       -24.5328
  28   2.0000      -0.873811       -23.7776
  29   2.0000      -0.848311       -23.0837
  30   2.0000      -0.839480       -22.8434
  31   2.0000      -0.812943       -22.1213
  32   2.0000      -0.791854       -21.5475
  33   2.0000      -0.778365       -21.1804
  34   2.0000      -0.714130       -19.4325
  35   2.0000      -0.702981       -19.1291
  36   2.0000      -0.692539       -18.8449
  37   2.0000      -0.655727       -17.8432
  38   2.0000      -0.643644       -17.5145
  39   2.0000      -0.614003       -16.7079
  40   2.0000      -0.593081       -16.1385
  41   2.0000      -0.575246       -15.6532
  42   2.0000      -0.567306       -15.4372
  43   2.0000      -0.554246       -15.0818
  44   2.0000      -0.539710       -14.6863
  45   2.0000      -0.524703       -14.2779
  46   2.0000      -0.522430       -14.2161
  47   2.0000      -0.519009       -14.1230
  48   2.0000      -0.506607       -13.7855
  49   2.0000      -0.495136       -13.4733
  50   2.0000      -0.487207       -13.2576
  51   2.0000      -0.480427       -13.0731
  52   2.0000      -0.471415       -12.8278
  53   2.0000      -0.460546       -12.5321
  54   2.0000      -0.458335       -12.4719
  55   2.0000      -0.455056       -12.3827
  56   2.0000      -0.448099       -12.1934
  57   2.0000      -0.434646       -11.8273
  58   2.0000      -0.429415       -11.6850
  59   2.0000      -0.423151       -11.5145
  60   2.0000      -0.416413       -11.3312
  61   2.0000      -0.411004       -11.1840
  62   2.0000      -0.403400       -10.9771
  63   2.0000      -0.336813        -9.1652
  64   2.0000      -0.333641        -9.0788
  65   2.0000      -0.323160        -8.7936
  66   2.0000      -0.303636        -8.2624
  67   0.0000       0.038393         1.0447
  68   0.0000       0.056305         1.5322
  69   0.0000       0.112218         3.0536
  70   0.0000       0.125218         3.4074
  71   0.0000       0.129017         3.5107

MULLIKEN ATOMIC CHARGES
-----------------------
   0 S :    0.120407
   1 C :   -0.127451
   2 C :   -0.060835
   3 C :    0.030661
   4 C :   -0.166649
   5 H :    0.014353
   6 C :    0.065235
   7 H :    0.016882
   8 H :    0.049020
   9 C :   -0.113377
  10 H :    0.034668
  11 H :    0.030106
  12 C :    0.017649
  13 H :    0.011523
  14 H :    0.001735
  15 H :    0.023303
  16 S :    0.101700
  17 C :   -0.076905
  18 C :   -0.044277
  19 C :   -0.046377
  20 C :   -0.177445
  21 H :    0.025361
  22 C :    0.170465
  23 H :    0.018311
  24 H :    0.012515
  25 C :   -0.126374
  26 H :    0.027107
  27 H :    0.026441
  28 C :   -0.055813
  29 H :    0.055665
  30 H :    0.035028
  31 H :    0.034558
  32 H :    0.040095
  33 H :    0.032713
Sum of atomic charges:   -0.0000000

LOEWDIN ATOMIC CHARGES
----------------------
   0 S :    0.429840
   1 C :   -0.179784
   2 C :   -0.063271
   3 C :   -0.059239
   4 C :   -0.224866
   5 H :    0.030603
   6 C :   -0.036071
   7 H :    0.028529
   8 H :    0.040090
   9 C :   -0.039520
  10 H :    0.024551
  11 H :    0.021124
  12 C :   -0.056112
  13 H :    0.026730
  14 H :    0.016206
  15 H :    0.020322
  16 S :    0.404638
  17 C :   -0.167748
  18 C :   -0.072376
  19 C :   -0.052297
  20 C :   -0.211285
  21 H :    0.032404
  22 C :   -0.016537
  23 H :    0.026133
  24 H :    0.025980
  25 C :   -0.050788
  26 H :    0.025117
  27 H :    0.025618
  28 C :   -0.074819
  29 H :    0.035434
  30 H :    0.026409
  31 H :    0.030674
  32 H :    0.019883
  33 H :    0.014427

  Mayer bond orders larger than 0.100000
B(  0-S ,  1-C ) :   1.1589 B(  0-S ,  4-C ) :   1.1696 B(  1-C ,  2-C ) :   1.5583
B(  1-C ,  4-C ) :   0.1090 B(  1-C , 32-H ) :   0.9771 B(  2-C ,  3-C ) :   1.2938
B(  2-C ,  6-C ) :   1.0133 B(  3-C ,  4-C ) :   1.5382 B(  3-C ,  5-H ) :   0.9909
B(  4-C , 20-C ) :   1.0299 B(  6-C ,  7-H ) :   0.9342 B(  6-C ,  8-H ) :   0.9393
B(  6-C ,  9-C ) :   1.0708 B(  9-C , 10-H ) :   0.9648 B(  9-C , 11-H ) :   0.9560
B(  9-C , 12-C ) :   1.0710 B( 12-C , 13-H ) :   0.9695 B( 12-C , 14-H ) :   0.9738
B( 12-C , 15-H ) :   0.9779 B( 16-S , 17-C ) :   1.1378 B( 16-S , 20-C ) :   1.1619
B( 17-C , 18-C ) :   1.6337 B( 17-C , 33-H ) :   0.9816 B( 18-C , 19-C ) :   1.1925
B( 18-C , 21-H ) :   0.9884 B( 19-C , 20-C ) :   1.5978 B( 19-C , 22-C ) :   1.0471
B( 22-C , 23-H ) :   0.9329 B( 22-C , 24-H ) :   0.9206 B( 22-C , 25-C ) :   1.0695
B( 25-C , 26-H ) :   0.9538 B( 25-C , 27-H ) :   0.9522 B( 25-C , 28-C ) :   1.0752
B( 28-C , 29-H ) :   0.9733 B( 28-C , 30-H ) :   0.9744 B( 28-C , 31-H ) :   0.9711

Dispersion correction           -0.014117578
FINAL SINGLE POINT ENERGY     -1339.860410143223

DIPOLE MOMENT
-------------
                                X             Y             Z
Electronic contribution:     -8.86063     -16.00253      -3.78628
Nuclear contribution   :      9.27696      16.22988       3.81849
                        -----------------------------------------
Total Dipole Moment    :      0.41633       0.22735       0.03222
                        -----------------------------------------
Magnitude (a.u.)       :      0.47545
Magnitude (Debye)      :      1.20850

Rotational constants in cm-1:     0.025006     0.006754     0.006237
Rotational constants in MHz :   749.667302   202.473231   186.990112

                             ****ORCA TERMINATED NORMALLY****
TOTAL RUN TIME: 0 days 0 hours 0 minutes 21 seconds 145 msec
