                         Program Version 4.2.1 -  RELEASE  -
|  1> ! wB97X-D3 SP def2-SVP
|  2> %pal
|  3> nprocs 24
|  4> end
|  5>
|  6> * xyz 0 1
|  7> S 	 -146.165 	 11.6095 	 -4.04668
|  8> C 	 -146.87 	 10.1724 	 -3.31697
|  9> C 	 -147.872 	 9.6691 	 -4.1339
| 10> C 	 -148.001 	 10.3602 	 -5.37866
| 11> C 	 -147.078 	 11.4031 	 -5.50146
| 12> H 	 -148.633 	 10.0222 	 -6.16067
| 13> C 	 -148.696 	 8.46094 	 -3.78141
| 14> H 	 -149.691 	 8.56427 	 -4.23736
| 15> H 	 -148.795 	 8.45988 	 -2.69358
| 16> C 	 -148.085 	 7.13058 	 -4.22045
| 17> H 	 -148.545 	 6.28406 	 -3.6576
| 18> H 	 -148.373 	 6.9844 	 -5.23145
| 19> C 	 -146.589 	 7.01633 	 -4.01252
| 20> H 	 -146.179 	 6.32712 	 -4.78981
| 21> H 	 -146.02 	 7.84486 	 -4.17987
| 22> H 	 -146.294 	 6.45709 	 -3.06763
| 23> S 	 -145.683 	 12.2036 	 -7.73782
| 24> C 	 -146.348 	 13.377 	 -8.67542
| 25> C 	 -147.51 	 13.8876 	 -8.20366
| 26> C 	 -147.924 	 13.3061 	 -6.97822
| 27> C 	 -147.008 	 12.3194 	 -6.59204
| 28> H 	 -147.954 	 14.7949 	 -8.6051
| 29> C 	 -149.11 	 13.7426 	 -6.16896
| 30> H 	 -148.864 	 14.7299 	 -5.84446
| 31> H 	 -149.107 	 13.1432 	 -5.23039
| 32> C 	 -150.465 	 13.6328 	 -6.87575
| 33> H 	 -150.35 	 12.805 	 -7.58035
| 34> H 	 -150.696 	 14.4515 	 -7.57447
| 35> C 	 -151.694 	 13.4854 	 -5.93985
| 36> H 	 -151.717 	 14.3754 	 -5.32929
| 37> H 	 -151.648 	 12.5814 	 -5.35128
| 38> H 	 -152.659 	 13.4825 	 -6.56754
| 39> H 	 -146.61 	 9.80274 	 -2.31325
| 40> H 	 -145.729 	 13.7868 	 -9.48208
| 41> *
| 42>
| 43>                          ****END OF INPUT****

CARTESIAN COORDINATES (ANGSTROEM)
---------------------------------
  S    -146.165000   11.609500   -4.046680
  C    -146.870000   10.172400   -3.316970
  C    -147.872000    9.669100   -4.133900
  C    -148.001000   10.360200   -5.378660
  C    -147.078000   11.403100   -5.501460
  H    -148.633000   10.022200   -6.160670
  C    -148.696000    8.460940   -3.781410
  H    -149.691000    8.564270   -4.237360
  H    -148.795000    8.459880   -2.693580
  C    -148.085000    7.130580   -4.220450
  H    -148.545000    6.284060   -3.657600
  H    -148.373000    6.984400   -5.231450
  C    -146.589000    7.016330   -4.012520
  H    -146.179000    6.327120   -4.789810
  H    -146.020000    7.844860   -4.179870
  H    -146.294000    6.457090   -3.067630
  S    -145.683000   12.203600   -7.737820
  C    -146.348000   13.377000   -8.675420
  C    -147.510000   13.887600   -8.203660
  C    -147.924000   13.306100   -6.978220
  C    -147.008000   12.319400   -6.592040
  H    -147.954000   14.794900   -8.605100
  C    -149.110000   13.742600   -6.168960
  H    -148.864000   14.729900   -5.844460
  H    -149.107000   13.143200   -5.230390
  C    -150.465000   13.632800   -6.875750
  H    -150.350000   12.805000   -7.580350
  H    -150.696000   14.451500   -7.574470
  C    -151.694000   13.485400   -5.939850
  H    -151.717000   14.375400   -5.329290
  H    -151.648000   12.581400   -5.351280
  H    -152.659000   13.482500   -6.567540
  H    -146.610000    9.802740   -2.313250
  H    -145.729000   13.786800   -9.482080

 Total Charge           Charge          ....    0
 Multiplicity           Mult            ....    1
 Number of Electrons    NEL             ....  134
 Basis Dimension        Dim             ....  322

ORBITAL ENERGIES
----------------

  NO   OCC          E(Eh)            E(eV)
   0   2.0000     -88.965395     -2420.8715
   1   2.0000     -88.961867     -2420.7755
   2   2.0000     -10.323443      -280.9152
   3   2.0000     -10.316900      -280.7371
   4   2.0000     -10.314762      -280.6790
   5   2.0000     -10.307387      -280.4783
   6   2.0000     -10.300499      -280.2908
   7   2.0000     -10.297138      -280.1994
   8   2.0000     -10.291366      -280.0423
   9   2.0000     -10.288270      -279.9581
  10   2.0000     -10.287874      -279.9473
  11   2.0000     -10.286510      -279.9102
  12   2.0000     -10.285957      -279.8951
  13   2.0000     -10.283366      -279.8246
  14   2.0000     -10.282726      -279.8072
  15   2.0000     -10.269288      -279.4415
  16   2.0000      -8.080215      -219.8738
  17   2.0000      -8.079154      -219.8450
  18   2.0000      -6.038639      -164.3197
  19   2.0000      -6.037271      -164.2825
  20   2.0000      -6.034584      -164.2094
  21   2.0000      -6.033229      -164.1725
  22   2.0000      -6.031187      -164.1170
  23   2.0000      -6.030246      -164.0913
  24   2.0000      -1.013913       -27.5900
  25   2.0000      -0.988795       -26.9065
  26   2.0000      -0.914580       -24.8870
  27   2.0000      -0.909925       -24.7603
  28   2.0000      -0.868631       -23.6367
  29   2.0000      -0.853124       -23.2147
  30   2.0000      -0.845226       -22.9998
  31   2.0000      -0.809158       -22.0183
  32   2.0000      -0.786434       -21.4000
  33   2.0000      -0.773536       -21.0490
  34   2.0000      -0.706525       -19.2255
  35   2.0000      -0.699880       -19.0447
  36   2.0000      -0.691992       -18.8301
  37   2.0000      -0.653897       -17.7934
  38   2.0000      -0.638730       -17.3807
  39   2.0000      -0.619160       -16.8482
  40   2.0000      -0.601376       -16.3643
  41   2.0000      -0.564871       -15.3709
  42   2.0000      -0.561545       -15.2804
  43   2.0000      -0.558292       -15.1919
  44   2.0000      -0.542634       -14.7658
  45   2.0000      -0.522960       -14.2305
  46   2.0000      -0.519466       -14.1354
  47   2.0000      -0.513168       -13.9640
  48   2.0000      -0.501647       -13.6505
  49   2.0000      -0.494777       -13.4636
  50   2.0000      -0.490919       -13.3586
  51   2.0000      -0.477599       -12.9961
  52   2.0000      -0.468526       -12.7492
  53   2.0000      -0.463965       -12.6251
  54   2.0000      -0.456041       -12.4095
  55   2.0000      -0.451664       -12.2904
  56   2.0000      -0.450499       -12.2587
  57   2.0000      -0.433009       -11.7828
  58   2.0000      -0.431305       -11.7364
  59   2.0000      -0.427593       -11.6354
  60   2.0000      -0.419157       -11.4058
  61   2.0000      -0.414275       -11.2730
  62   2.0000      -0.408076       -11.1043
  63   2.0000      -0.335271        -9.1232
  64   2.0000      -0.328397        -8.9361
  65   2.0000      -0.324811        -8.8386
  66   2.0000      -0.303848        -8.2681
  67   0.0000       0.041206         1.1213
  68   0.0000       0.064900         1.7660
  69   0.0000       0.115116         3.1325
  70   0.0000       0.125415         3.4127
  71   0.0000       0.135647         3.6911

MULLIKEN ATOMIC CHARGES
-----------------------
   0 S :    0.119164
   1 C :   -0.135345
   2 C :   -0.124046
   3 C :    0.061017
   4 C :   -0.178206
   5 H :    0.001194
   6 C :    0.085249
   7 H :    0.025892
   8 H :    0.020945
   9 C :   -0.051959
  10 H :    0.033512
  11 H :    0.018012
  12 C :   -0.057164
  13 H :    0.021802
  14 H :    0.033570
  15 H :    0.037449
  16 S :    0.132267
  17 C :   -0.089689
  18 C :   -0.031845
  19 C :   -0.034922
  20 C :   -0.213735
  21 H :    0.014955
  22 C :    0.112409
  23 H :    0.026439
  24 H :    0.031060
  25 C :   -0.095424
  26 H :    0.027232
  27 H :    0.027181
  28 C :   -0.058995
  29 H :    0.034734
  30 H :    0.041764
  31 H :    0.043287
  32 H :    0.057704
  33 H :    0.064494
Sum of atomic charges:    0.0000000

LOEWDIN ATOMIC CHARGES
----------------------
   0 S :    0.415747
   1 C :   -0.200865
   2 C :   -0.065492
   3 C :   -0.054811
   4 C :   -0.208132
   5 H :    0.027287
   6 C :   -0.033395
   7 H :    0.032408
   8 H :    0.028746
   9 C :   -0.040107
  10 H :    0.032429
  11 H :    0.017179
  12 C :   -0.071761
  13 H :    0.034401
  14 H :    0.010671
  15 H :    0.032979
  16 S :    0.451896
  17 C :   -0.214520
  18 C :   -0.083374
  19 C :   -0.042441
  20 C :   -0.219416
  21 H :    0.031447
  22 C :   -0.031901
  23 H :    0.030378
  24 H :    0.037694
  25 C :   -0.047572
  26 H :    0.022555
  27 H :    0.024587
  28 C :   -0.063765
  29 H :    0.023894
  30 H :    0.022665
  31 H :    0.036102
  32 H :    0.032578
  33 H :    0.031911

  Mayer bond orders larger than 0.100000
B(  0-S ,  1-C ) :   1.1386 B(  0-S ,  4-C ) :   1.1740 B(  1-C ,  2-C ) :   1.5823
B(  1-C ,  4-C ) :   0.1002 B(  1-C , 32-H ) :   0.9686 B(  2-C ,  3-C ) :   1.2537
B(  2-C ,  6-C ) :   1.0365 B(  3-C ,  4-C ) :   1.5437 B(  3-C ,  5-H ) :   1.0058
B(  4-C , 20-C ) :   1.0231 B(  6-C ,  7-H ) :   0.9415 B(  6-C ,  8-H ) :   0.9362
B(  6-C ,  9-C ) :   1.0677 B(  9-C , 10-H ) :   0.9555 B(  9-C , 11-H ) :   0.9602
B(  9-C , 12-C ) :   1.0830 B( 12-C , 13-H ) :   0.9679 B( 12-C , 14-H ) :   0.9706
B( 12-C , 15-H ) :   0.9768 B( 16-S , 17-C ) :   1.2025 B( 16-S , 20-C ) :   1.1598
B( 17-C , 18-C ) :   1.5689 B( 17-C , 33-H ) :   0.9621 B( 18-C , 19-C ) :   1.2625
B( 18-C , 21-H ) :   0.9935 B( 19-C , 20-C ) :   1.5726 B( 19-C , 22-C ) :   1.0533
B( 22-C , 23-H ) :   0.9224 B( 22-C , 24-H ) :   0.9303 B( 22-C , 25-C ) :   1.0398
B( 25-C , 26-H ) :   0.9643 B( 25-C , 27-H ) :   0.9503 B( 25-C , 28-C ) :   1.0848
B( 28-C , 29-H ) :   0.9750 B( 28-C , 30-H ) :   0.9778 B( 28-C , 31-H ) :   0.9752

Dispersion correction           -0.014771391
FINAL SINGLE POINT ENERGY     -1339.885678557444

DIPOLE MOMENT
-------------
                                X             Y             Z
Electronic contribution:     19.69897       9.81677      -4.93410
Nuclear contribution   :    -20.12473      -9.85909       4.91720
                        -----------------------------------------
Total Dipole Moment    :     -0.42576      -0.04232      -0.01690
                        -----------------------------------------
Magnitude (a.u.)       :      0.42819
Magnitude (Debye)      :      1.08838

Rotational constants in cm-1:     0.018404     0.008913     0.007130
Rotational constants in MHz :   551.737034   267.207032   213.760180

                             ****ORCA TERMINATED NORMALLY****
TOTAL RUN TIME: 0 days 0 hours 0 minutes 22 seconds 29 msec
