                         Program Version 4.2.1 -  RELEASE  -
|  1> ! wB97X-D3 SP def2-SVP
|  2> %pal
|  3> nprocs 24
|  4> end
|  5>
|  6> * xyz 0 1
|  7> S 	 -56.4232 	 6.53555 	 -30.9846
|  8> C 	 -58.0488 	 5.95204 	 -30.6212
|  9> C 	 -58.9372 	 6.9337 	 -30.8748
| 10> C 	 -58.3296 	 8.20986 	 -30.7519
| 11> C 	 -56.933 	 8.17793 	 -30.9408
| 12> H 	 -58.7457 	 9.19385 	 -30.6829
| 13> C 	 -60.4446 	 6.74648 	 -30.8914
| 14> H 	 -60.9067 	 5.90764 	 -31.3845
| 15> H 	 -60.8405 	 7.57606 	 -31.4264
| 16> C 	 -61.0471 	 6.59373 	 -29.4155
| 17> H 	 -60.251 	 5.95464 	 -28.9022
| 18> H 	 -60.8644 	 7.51489 	 -28.7914
| 19> C 	 -62.4624 	 6.03575 	 -29.2672
| 20> H 	 -63.2011 	 6.8332 	 -29.5349
| 21> H 	 -62.6801 	 5.21649 	 -29.9862
| 22> H 	 -62.7685 	 5.69651 	 -28.2402
| 23> S 	 -54.392 	 9.14033 	 -30.452
| 24> C 	 -53.9134 	 10.7609 	 -30.933
| 25> C 	 -55.0016 	 11.5043 	 -31.2118
| 26> C 	 -56.2188 	 10.741 	 -31.1811
| 27> C 	 -56.0404 	 9.34625 	 -31.0009
| 28> H 	 -54.8985 	 12.566 	 -31.4591
| 29> C 	 -57.4802 	 11.535 	 -31.3002
| 30> H 	 -57.3277 	 12.5994 	 -31.2102
| 31> H 	 -57.988 	 11.2217 	 -30.3807
| 32> C 	 -58.3416 	 11.248 	 -32.5638
| 33> H 	 -59.3822 	 11.5229 	 -32.3443
| 34> H 	 -58.3939 	 10.2646 	 -32.8104
| 35> C 	 -57.9223 	 12.0455 	 -33.8186
| 36> H 	 -56.955 	 11.6888 	 -34.0239
| 37> H 	 -57.9333 	 13.1648 	 -33.6482
| 38> H 	 -58.5747 	 11.874 	 -34.6432
| 39> H 	 -58.3175 	 4.86718 	 -30.5907
| 40> H 	 -52.8821 	 11.0894 	 -30.7615
| 41> *
| 42>
| 43>                          ****END OF INPUT****

CARTESIAN COORDINATES (ANGSTROEM)
---------------------------------
  S    -56.423200    6.535550  -30.984600
  C    -58.048800    5.952040  -30.621200
  C    -58.937200    6.933700  -30.874800
  C    -58.329600    8.209860  -30.751900
  C    -56.933000    8.177930  -30.940800
  H    -58.745700    9.193850  -30.682900
  C    -60.444600    6.746480  -30.891400
  H    -60.906700    5.907640  -31.384500
  H    -60.840500    7.576060  -31.426400
  C    -61.047100    6.593730  -29.415500
  H    -60.251000    5.954640  -28.902200
  H    -60.864400    7.514890  -28.791400
  C    -62.462400    6.035750  -29.267200
  H    -63.201100    6.833200  -29.534900
  H    -62.680100    5.216490  -29.986200
  H    -62.768500    5.696510  -28.240200
  S    -54.392000    9.140330  -30.452000
  C    -53.913400   10.760900  -30.933000
  C    -55.001600   11.504300  -31.211800
  C    -56.218800   10.741000  -31.181100
  C    -56.040400    9.346250  -31.000900
  H    -54.898500   12.566000  -31.459100
  C    -57.480200   11.535000  -31.300200
  H    -57.327700   12.599400  -31.210200
  H    -57.988000   11.221700  -30.380700
  C    -58.341600   11.248000  -32.563800
  H    -59.382200   11.522900  -32.344300
  H    -58.393900   10.264600  -32.810400
  C    -57.922300   12.045500  -33.818600
  H    -56.955000   11.688800  -34.023900
  H    -57.933300   13.164800  -33.648200
  H    -58.574700   11.874000  -34.643200
  H    -58.317500    4.867180  -30.590700
  H    -52.882100   11.089400  -30.761500

 Total Charge           Charge          ....    0
 Multiplicity           Mult            ....    1
 Number of Electrons    NEL             ....  134
 Basis Dimension        Dim             ....  322

ORBITAL ENERGIES
----------------

  NO   OCC          E(Eh)            E(eV)
   0   2.0000     -88.967661     -2420.9331
   1   2.0000     -88.960812     -2420.7468
   2   2.0000     -10.334116      -281.2056
   3   2.0000     -10.333961      -281.2014
   4   2.0000     -10.316875      -280.7365
   5   2.0000     -10.316109      -280.7156
   6   2.0000     -10.308104      -280.4978
   7   2.0000     -10.303980      -280.3856
   8   2.0000     -10.298978      -280.2494
   9   2.0000     -10.294971      -280.1404
  10   2.0000     -10.294663      -280.1320
  11   2.0000     -10.293788      -280.1082
  12   2.0000     -10.292762      -280.0803
  13   2.0000     -10.291498      -280.0459
  14   2.0000     -10.279778      -279.7270
  15   2.0000     -10.274349      -279.5793
  16   2.0000      -8.082518      -219.9365
  17   2.0000      -8.075865      -219.7555
  18   2.0000      -6.041093      -164.3865
  19   2.0000      -6.037053      -164.2766
  20   2.0000      -6.034444      -164.2056
  21   2.0000      -6.033125      -164.1697
  22   2.0000      -6.030348      -164.0941
  23   2.0000      -6.026509      -163.9897
  24   2.0000      -1.011396       -27.5215
  25   2.0000      -0.990474       -26.9522
  26   2.0000      -0.910243       -24.7690
  27   2.0000      -0.906802       -24.6753
  28   2.0000      -0.870704       -23.6931
  29   2.0000      -0.850310       -23.1381
  30   2.0000      -0.845426       -23.0052
  31   2.0000      -0.817150       -22.2358
  32   2.0000      -0.783986       -21.3333
  33   2.0000      -0.774008       -21.0618
  34   2.0000      -0.712234       -19.3809
  35   2.0000      -0.699573       -19.0364
  36   2.0000      -0.692562       -18.8456
  37   2.0000      -0.666514       -18.1368
  38   2.0000      -0.640162       -17.4197
  39   2.0000      -0.619539       -16.8585
  40   2.0000      -0.597543       -16.2600
  41   2.0000      -0.572975       -15.5914
  42   2.0000      -0.559321       -15.2199
  43   2.0000      -0.550786       -14.9876
  44   2.0000      -0.546770       -14.8784
  45   2.0000      -0.521746       -14.1974
  46   2.0000      -0.513997       -13.9866
  47   2.0000      -0.511538       -13.9196
  48   2.0000      -0.504711       -13.7339
  49   2.0000      -0.501470       -13.6457
  50   2.0000      -0.493320       -13.4239
  51   2.0000      -0.485262       -13.2047
  52   2.0000      -0.473331       -12.8800
  53   2.0000      -0.465304       -12.6616
  54   2.0000      -0.461089       -12.5469
  55   2.0000      -0.453252       -12.3336
  56   2.0000      -0.445174       -12.1138
  57   2.0000      -0.439940       -11.9714
  58   2.0000      -0.433418       -11.7939
  59   2.0000      -0.431202       -11.7336
  60   2.0000      -0.419054       -11.4030
  61   2.0000      -0.406841       -11.0707
  62   2.0000      -0.403970       -10.9926
  63   2.0000      -0.359847        -9.7919
  64   2.0000      -0.330611        -8.9964
  65   2.0000      -0.325444        -8.8558
  66   2.0000      -0.284339        -7.7373
  67   0.0000       0.014793         0.4025
  68   0.0000       0.082918         2.2563
  69   0.0000       0.102446         2.7877
  70   0.0000       0.108311         2.9473
  71   0.0000       0.133683         3.6377

MULLIKEN ATOMIC CHARGES
-----------------------
   0 S :    0.115138
   1 C :   -0.132713
   2 C :   -0.075413
   3 C :    0.012387
   4 C :   -0.126039
   5 H :   -0.005786
   6 C :    0.089870
   7 H :    0.016080
   8 H :    0.017746
   9 C :   -0.121080
  10 H :    0.030426
  11 H :    0.032160
  12 C :   -0.057838
  13 H :    0.037474
  14 H :    0.035040
  15 H :    0.050713
  16 S :    0.076939
  17 C :   -0.090035
  18 C :   -0.031814
  19 C :   -0.070575
  20 C :   -0.112419
  21 H :    0.030079
  22 C :    0.042486
  23 H :    0.016639
  24 H :    0.042383
  25 C :   -0.045726
  26 H :    0.017031
  27 H :    0.012467
  28 C :   -0.034959
  29 H :    0.027132
  30 H :    0.031521
  31 H :    0.030881
  32 H :    0.072986
  33 H :    0.066821
Sum of atomic charges:   -0.0000000

LOEWDIN ATOMIC CHARGES
----------------------
   0 S :    0.412163
   1 C :   -0.193383
   2 C :   -0.062310
   3 C :   -0.063412
   4 C :   -0.199579
   5 H :    0.025535
   6 C :   -0.027912
   7 H :    0.027887
   8 H :    0.024137
   9 C :   -0.054567
  10 H :    0.028748
  11 H :    0.027825
  12 C :   -0.080056
  13 H :    0.030388
  14 H :    0.026535
  15 H :    0.035973
  16 S :    0.395481
  17 C :   -0.177346
  18 C :   -0.078812
  19 C :   -0.054444
  20 C :   -0.198756
  21 H :    0.038193
  22 C :   -0.032298
  23 H :    0.029463
  24 H :    0.035387
  25 C :   -0.032072
  26 H :    0.021989
  27 H :    0.008781
  28 C :   -0.056580
  29 H :    0.019364
  30 H :    0.028295
  31 H :    0.022759
  32 H :    0.039612
  33 H :    0.033010

  Mayer bond orders larger than 0.100000
B(  0-S ,  1-C ) :   1.1321 B(  0-S ,  4-C ) :   1.1590 B(  1-C ,  2-C ) :   1.6044
B(  1-C , 32-H ) :   0.9598 B(  2-C ,  3-C ) :   1.2220 B(  2-C ,  6-C ) :   1.0519
B(  3-C ,  4-C ) :   1.5599 B(  3-C ,  5-H ) :   0.9861 B(  4-C , 20-C ) :   1.0817
B(  6-C ,  7-H ) :   0.9456 B(  6-C ,  8-H ) :   0.9370 B(  6-C ,  9-C ) :   1.0335
B(  9-C , 10-H ) :   0.9592 B(  9-C , 11-H ) :   0.9549 B(  9-C , 12-C ) :   1.0691
B( 12-C , 13-H ) :   0.9734 B( 12-C , 14-H ) :   0.9733 B( 12-C , 15-H ) :   0.9732
B( 16-S , 17-C ) :   1.1561 B( 16-S , 20-C ) :   1.1375 B( 17-C , 18-C ) :   1.5932
B( 17-C , 33-H ) :   0.9668 B( 18-C , 19-C ) :   1.2528 B( 18-C , 21-H ) :   0.9919
B( 19-C , 20-C ) :   1.5517 B( 19-C , 22-C ) :   1.0371 B( 22-C , 23-H ) :   0.9397
B( 22-C , 24-H ) :   0.9301 B( 22-C , 25-C ) :   1.0626 B( 25-C , 26-H ) :   0.9541
B( 25-C , 27-H ) :   0.9581 B( 25-C , 28-C ) :   1.0784 B( 28-C , 29-H ) :   0.9789
B( 28-C , 30-H ) :   0.9763 B( 28-C , 31-H ) :   0.9740

Dispersion correction           -0.014187451
FINAL SINGLE POINT ENERGY     -1339.851101827944

DIPOLE MOMENT
-------------
                                X             Y             Z
Electronic contribution:     27.86596      -7.22717       3.03646
Nuclear contribution   :    -28.49140       7.60715      -3.06229
                        -----------------------------------------
Total Dipole Moment    :     -0.62544       0.37998      -0.02583
                        -----------------------------------------
Magnitude (a.u.)       :      0.73227
Magnitude (Debye)      :      1.86128

Rotational constants in cm-1:     0.019805     0.008168     0.006359
Rotational constants in MHz :   593.745037   244.878736   190.639725

                             ****ORCA TERMINATED NORMALLY****
TOTAL RUN TIME: 0 days 0 hours 0 minutes 21 seconds 662 msec
