                         Program Version 4.2.1 -  RELEASE  -
|  1> ! wB97X-D3 SP def2-SVP
|  2> %pal
|  3> nprocs 24
|  4> end
|  5>
|  6> * xyz 0 1
|  7> S 	 -40.391 	 14.405 	 20.9802
|  8> C 	 -41.9754 	 15.0941 	 21.1692
|  9> C 	 -42.7816 	 14.9669 	 20.0686
| 10> C 	 -42.0068 	 14.5664 	 18.9599
| 11> C 	 -40.6898 	 14.187 	 19.2722
| 12> H 	 -42.3199 	 14.4741 	 17.9408
| 13> C 	 -44.2154 	 15.5926 	 19.9241
| 14> H 	 -44.5464 	 15.6979 	 18.8353
| 15> H 	 -44.0951 	 16.576 	 20.3313
| 16> C 	 -45.3538 	 14.86 	 20.6466
| 17> H 	 -45.271 	 13.7948 	 20.2794
| 18> H 	 -45.1188 	 14.7875 	 21.6769
| 19> C 	 -46.6747 	 15.4915 	 20.4465
| 20> H 	 -46.615 	 16.5058 	 20.783
| 21> H 	 -46.8511 	 15.6843 	 19.4149
| 22> H 	 -47.554 	 14.8954 	 20.7822
| 23> S 	 -38.8606 	 12.1522 	 18.7729
| 24> C 	 -37.7809 	 12.204 	 17.3905
| 25> C 	 -38.1195 	 13.2891 	 16.5739
| 26> C 	 -39.1576 	 14.1411 	 17.1289
| 27> C 	 -39.6283 	 13.6885 	 18.3693
| 28> H 	 -37.6126 	 13.3606 	 15.657
| 29> C 	 -39.6499 	 15.3513 	 16.3973
| 30> H 	 -38.777 	 15.7716 	 15.9533
| 31> H 	 -40.0269 	 15.9496 	 17.1535
| 32> C 	 -40.5486 	 14.9802 	 15.2607
| 33> H 	 -41.4615 	 14.5436 	 15.7055
| 34> H 	 -40.1337 	 14.3182 	 14.5055
| 35> C 	 -41.0672 	 16.2034 	 14.4657
| 36> H 	 -41.3962 	 15.8344 	 13.465
| 37> H 	 -40.2753 	 17.016 	 14.3049
| 38> H 	 -41.8678 	 16.6844 	 15.0965
| 39> H 	 -42.3905 	 15.535 	 22.1154
| 40> H 	 -37.0112 	 11.3926 	 17.2673
| 41> *
| 42>
| 43>                          ****END OF INPUT****

CARTESIAN COORDINATES (ANGSTROEM)
---------------------------------
  S    -40.391000   14.405000   20.980200
  C    -41.975400   15.094100   21.169200
  C    -42.781600   14.966900   20.068600
  C    -42.006800   14.566400   18.959900
  C    -40.689800   14.187000   19.272200
  H    -42.319900   14.474100   17.940800
  C    -44.215400   15.592600   19.924100
  H    -44.546400   15.697900   18.835300
  H    -44.095100   16.576000   20.331300
  C    -45.353800   14.860000   20.646600
  H    -45.271000   13.794800   20.279400
  H    -45.118800   14.787500   21.676900
  C    -46.674700   15.491500   20.446500
  H    -46.615000   16.505800   20.783000
  H    -46.851100   15.684300   19.414900
  H    -47.554000   14.895400   20.782200
  S    -38.860600   12.152200   18.772900
  C    -37.780900   12.204000   17.390500
  C    -38.119500   13.289100   16.573900
  C    -39.157600   14.141100   17.128900
  C    -39.628300   13.688500   18.369300
  H    -37.612600   13.360600   15.657000
  C    -39.649900   15.351300   16.397300
  H    -38.777000   15.771600   15.953300
  H    -40.026900   15.949600   17.153500
  C    -40.548600   14.980200   15.260700
  H    -41.461500   14.543600   15.705500
  H    -40.133700   14.318200   14.505500
  C    -41.067200   16.203400   14.465700
  H    -41.396200   15.834400   13.465000
  H    -40.275300   17.016000   14.304900
  H    -41.867800   16.684400   15.096500
  H    -42.390500   15.535000   22.115400
  H    -37.011200   11.392600   17.267300

 Total Charge           Charge          ....    0
 Multiplicity           Mult            ....    1
 Number of Electrons    NEL             ....  134
 Basis Dimension        Dim             ....  322

ORBITAL ENERGIES
----------------

  NO   OCC          E(Eh)            E(eV)
   0   2.0000     -88.971586     -2421.0399
   1   2.0000     -88.960487     -2420.7379
   2   2.0000     -10.332761      -281.1687
   3   2.0000     -10.329221      -281.0724
   4   2.0000     -10.324217      -280.9362
   5   2.0000     -10.318019      -280.7676
   6   2.0000     -10.304707      -280.4053
   7   2.0000     -10.303819      -280.3812
   8   2.0000     -10.301371      -280.3146
   9   2.0000     -10.296307      -280.1768
  10   2.0000     -10.295220      -280.1472
  11   2.0000     -10.289064      -279.9797
  12   2.0000     -10.286657      -279.9142
  13   2.0000     -10.283588      -279.8307
  14   2.0000     -10.279653      -279.7236
  15   2.0000     -10.275040      -279.5980
  16   2.0000      -8.086300      -220.0394
  17   2.0000      -8.075204      -219.7375
  18   2.0000      -6.044688      -164.4843
  19   2.0000      -6.040827      -164.3792
  20   2.0000      -6.037155      -164.2793
  21   2.0000      -6.033725      -164.1860
  22   2.0000      -6.029605      -164.0739
  23   2.0000      -6.026076      -163.9779
  24   2.0000      -1.005305       -27.3558
  25   2.0000      -0.982296       -26.7296
  26   2.0000      -0.917244       -24.9595
  27   2.0000      -0.915160       -24.9028
  28   2.0000      -0.869513       -23.6606
  29   2.0000      -0.852965       -23.2103
  30   2.0000      -0.845208       -22.9993
  31   2.0000      -0.812630       -22.1128
  32   2.0000      -0.783291       -21.3144
  33   2.0000      -0.769934       -20.9510
  34   2.0000      -0.702151       -19.1065
  35   2.0000      -0.698012       -18.9939
  36   2.0000      -0.691480       -18.8161
  37   2.0000      -0.663546       -18.0560
  38   2.0000      -0.639701       -17.4071
  39   2.0000      -0.618825       -16.8391
  40   2.0000      -0.593302       -16.1446
  41   2.0000      -0.576235       -15.6801
  42   2.0000      -0.574293       -15.6273
  43   2.0000      -0.561820       -15.2879
  44   2.0000      -0.537088       -14.6149
  45   2.0000      -0.530206       -14.4276
  46   2.0000      -0.518320       -14.1042
  47   2.0000      -0.508722       -13.8430
  48   2.0000      -0.504376       -13.7248
  49   2.0000      -0.497272       -13.5315
  50   2.0000      -0.491369       -13.3708
  51   2.0000      -0.477324       -12.9886
  52   2.0000      -0.469012       -12.7625
  53   2.0000      -0.464859       -12.6495
  54   2.0000      -0.460933       -12.5426
  55   2.0000      -0.447537       -12.1781
  56   2.0000      -0.447147       -12.1675
  57   2.0000      -0.437205       -11.8969
  58   2.0000      -0.433630       -11.7997
  59   2.0000      -0.430791       -11.7224
  60   2.0000      -0.419088       -11.4040
  61   2.0000      -0.415199       -11.2981
  62   2.0000      -0.409802       -11.1513
  63   2.0000      -0.343971        -9.3599
  64   2.0000      -0.338195        -9.2028
  65   2.0000      -0.324911        -8.8413
  66   2.0000      -0.292101        -7.9485
  67   0.0000       0.030825         0.8388
  68   0.0000       0.065941         1.7943
  69   0.0000       0.113753         3.0954
  70   0.0000       0.117395         3.1945
  71   0.0000       0.127334         3.4649

MULLIKEN ATOMIC CHARGES
-----------------------
   0 S :    0.136372
   1 C :   -0.137607
   2 C :   -0.043086
   3 C :    0.034837
   4 C :   -0.172180
   5 H :   -0.008764
   6 C :    0.001697
   7 H :    0.035071
   8 H :    0.030559
   9 C :   -0.075753
  10 H :    0.034074
  11 H :    0.017670
  12 C :    0.007674
  13 H :    0.013912
  14 H :    0.002406
  15 H :    0.052008
  16 S :    0.087154
  17 C :   -0.125219
  18 C :   -0.016483
  19 C :   -0.066100
  20 C :   -0.149293
  21 H :    0.004484
  22 C :    0.155300
  23 H :    0.006600
  24 H :    0.013430
  25 C :   -0.090409
  26 H :    0.028239
  27 H :    0.033470
  28 C :   -0.080722
  29 H :    0.045778
  30 H :    0.036702
  31 H :    0.041085
  32 H :    0.062417
  33 H :    0.084680
Sum of atomic charges:    0.0000000

LOEWDIN ATOMIC CHARGES
----------------------
   0 S :    0.424004
   1 C :   -0.203088
   2 C :   -0.068264
   3 C :   -0.056458
   4 C :   -0.201341
   5 H :    0.024940
   6 C :   -0.026341
   7 H :    0.035069
   8 H :    0.025644
   9 C :   -0.047793
  10 H :    0.030396
  11 H :    0.015831
  12 C :   -0.066901
  13 H :    0.025866
  14 H :    0.019900
  15 H :    0.037113
  16 S :    0.390148
  17 C :   -0.188494
  18 C :   -0.069336
  19 C :   -0.048267
  20 C :   -0.203085
  21 H :    0.023450
  22 C :   -0.024415
  23 H :    0.029146
  24 H :    0.024398
  25 C :   -0.040211
  26 H :    0.024221
  27 H :    0.025359
  28 C :   -0.075503
  29 H :    0.029397
  30 H :    0.027220
  31 H :    0.029068
  32 H :    0.037158
  33 H :    0.041171

  Mayer bond orders larger than 0.100000
B(  0-S ,  1-C ) :   1.1575 B(  0-S ,  4-C ) :   1.1583 B(  1-C ,  2-C ) :   1.6078
B(  1-C ,  4-C ) :   0.1037 B(  1-C , 32-H ) :   0.9552 B(  2-C ,  3-C ) :   1.2539
B(  2-C ,  6-C ) :   0.9991 B(  3-C ,  4-C ) :   1.5569 B(  3-C ,  5-H ) :   1.0011
B(  4-C , 20-C ) :   1.0259 B(  6-C ,  7-H ) :   0.9543 B(  6-C ,  8-H ) :   0.9465
B(  6-C ,  9-C ) :   1.0543 B(  9-C , 10-H ) :   0.9533 B(  9-C , 11-H ) :   0.9552
B(  9-C , 12-C ) :   1.0909 B( 12-C , 13-H ) :   0.9637 B( 12-C , 14-H ) :   0.9658
B( 12-C , 15-H ) :   0.9703 B( 16-S , 17-C ) :   1.1613 B( 16-S , 20-C ) :   1.1403
B( 17-C , 18-C ) :   1.5900 B( 17-C , 33-H ) :   0.9631 B( 18-C , 19-C ) :   1.2242
B( 18-C , 21-H ) :   1.0015 B( 19-C , 20-C ) :   1.5922 B( 19-C , 22-C ) :   1.0525
B( 22-C , 23-H ) :   0.9151 B( 22-C , 24-H ) :   0.9269 B( 22-C , 25-C ) :   1.0777
B( 25-C , 26-H ) :   0.9523 B( 25-C , 27-H ) :   0.9580 B( 25-C , 28-C ) :   1.0732
B( 28-C , 29-H ) :   0.9769 B( 28-C , 30-H ) :   0.9740 B( 28-C , 31-H ) :   0.9777

Dispersion correction           -0.013725310
FINAL SINGLE POINT ENERGY     -1339.871724847581

DIPOLE MOMENT
-------------
                                X             Y             Z
Electronic contribution:     23.11466     -13.98700      13.44507
Nuclear contribution   :    -23.48384      14.31952     -13.86134
                        -----------------------------------------
Total Dipole Moment    :     -0.36918       0.33252      -0.41627
                        -----------------------------------------
Magnitude (a.u.)       :      0.64819
Magnitude (Debye)      :      1.64756

Rotational constants in cm-1:     0.018365     0.007989     0.006086
Rotational constants in MHz :   550.557436   239.517259   182.464160

                             ****ORCA TERMINATED NORMALLY****
TOTAL RUN TIME: 0 days 0 hours 0 minutes 21 seconds 139 msec
