                         Program Version 4.2.1 -  RELEASE  -
|  1> ! wB97X-D3 SP def2-SVP
|  2> %pal
|  3> nprocs 24
|  4> end
|  5>
|  6> * xyz 0 1
|  7> S 	 -134.253 	 14.5576 	 -14.5834
|  8> C 	 -134.848 	 13.1615 	 -13.7553
|  9> C 	 -135.946 	 12.5741 	 -14.3163
| 10> C 	 -136.302 	 13.3166 	 -15.5076
| 11> C 	 -135.449 	 14.3694 	 -15.8384
| 12> H 	 -137.042 	 12.9926 	 -16.1644
| 13> C 	 -136.703 	 11.3056 	 -13.9236
| 14> H 	 -137.772 	 11.3986 	 -13.8748
| 15> H 	 -136.409 	 11.025 	 -12.8538
| 16> C 	 -136.404 	 10.062 	 -14.77
| 17> H 	 -136.719 	 10.2344 	 -15.8114
| 18> H 	 -135.346 	 9.83521 	 -14.7089
| 19> C 	 -137.37 	 8.86635 	 -14.3079
| 20> H 	 -137.279 	 8.06037 	 -14.968
| 21> H 	 -137.276 	 8.39865 	 -13.3404
| 22> H 	 -138.32 	 9.34169 	 -14.3885
| 23> S 	 -135.581 	 16.9145 	 -16.8999
| 24> C 	 -135.619 	 17.1308 	 -18.6102
| 25> C 	 -135.478 	 15.8772 	 -19.2986
| 26> C 	 -135.532 	 14.785 	 -18.384
| 27> C 	 -135.445 	 15.16 	 -17.0502
| 28> H 	 -135.482 	 15.8398 	 -20.3831
| 29> C 	 -135.446 	 13.3932 	 -18.8781
| 30> H 	 -135.842 	 13.4956 	 -19.9176
| 31> H 	 -136.126 	 12.7613 	 -18.3652
| 32> C 	 -134.039 	 12.8356 	 -18.9058
| 33> H 	 -133.703 	 12.5364 	 -17.9042
| 34> H 	 -133.423 	 13.6879 	 -19.173
| 35> C 	 -133.814 	 11.6257 	 -19.7527
| 36> H 	 -132.742 	 11.3459 	 -19.6092
| 37> H 	 -134.15 	 11.804 	 -20.798
| 38> H 	 -134.43 	 10.8038 	 -19.365
| 39> H 	 -134.436 	 12.8373 	 -12.8431
| 40> H 	 -135.641 	 18.0878 	 -19.027
| 41> *
| 42>
| 43>                          ****END OF INPUT****

CARTESIAN COORDINATES (ANGSTROEM)
---------------------------------
  S    -134.253000   14.557600  -14.583400
  C    -134.848000   13.161500  -13.755300
  C    -135.946000   12.574100  -14.316300
  C    -136.302000   13.316600  -15.507600
  C    -135.449000   14.369400  -15.838400
  H    -137.042000   12.992600  -16.164400
  C    -136.703000   11.305600  -13.923600
  H    -137.772000   11.398600  -13.874800
  H    -136.409000   11.025000  -12.853800
  C    -136.404000   10.062000  -14.770000
  H    -136.719000   10.234400  -15.811400
  H    -135.346000    9.835210  -14.708900
  C    -137.370000    8.866350  -14.307900
  H    -137.279000    8.060370  -14.968000
  H    -137.276000    8.398650  -13.340400
  H    -138.320000    9.341690  -14.388500
  S    -135.581000   16.914500  -16.899900
  C    -135.619000   17.130800  -18.610200
  C    -135.478000   15.877200  -19.298600
  C    -135.532000   14.785000  -18.384000
  C    -135.445000   15.160000  -17.050200
  H    -135.482000   15.839800  -20.383100
  C    -135.446000   13.393200  -18.878100
  H    -135.842000   13.495600  -19.917600
  H    -136.126000   12.761300  -18.365200
  C    -134.039000   12.835600  -18.905800
  H    -133.703000   12.536400  -17.904200
  H    -133.423000   13.687900  -19.173000
  C    -133.814000   11.625700  -19.752700
  H    -132.742000   11.345900  -19.609200
  H    -134.150000   11.804000  -20.798000
  H    -134.430000   10.803800  -19.365000
  H    -134.436000   12.837300  -12.843100
  H    -135.641000   18.087800  -19.027000

 Total Charge           Charge          ....    0
 Multiplicity           Mult            ....    1
 Number of Electrons    NEL             ....  134
 Basis Dimension        Dim             ....  322

ORBITAL ENERGIES
----------------

  NO   OCC          E(Eh)            E(eV)
   0   2.0000     -88.966418     -2420.8993
   1   2.0000     -88.966286     -2420.8957
   2   2.0000     -10.328406      -281.0502
   3   2.0000     -10.323997      -280.9302
   4   2.0000     -10.319218      -280.8002
   5   2.0000     -10.309611      -280.5388
   6   2.0000     -10.302397      -280.3425
   7   2.0000     -10.301173      -280.3092
   8   2.0000     -10.300391      -280.2879
   9   2.0000     -10.299872      -280.2738
  10   2.0000     -10.294819      -280.1363
  11   2.0000     -10.290217      -280.0110
  12   2.0000     -10.283881      -279.8386
  13   2.0000     -10.279768      -279.7267
  14   2.0000     -10.277172      -279.6561
  15   2.0000     -10.276918      -279.6492
  16   2.0000      -8.081763      -219.9159
  17   2.0000      -8.081214      -219.9010
  18   2.0000      -6.040275      -164.3642
  19   2.0000      -6.039545      -164.3444
  20   2.0000      -6.036132      -164.2515
  21   2.0000      -6.035553      -164.2358
  22   2.0000      -6.032540      -164.1538
  23   2.0000      -6.032309      -164.1475
  24   2.0000      -1.006974       -27.4012
  25   2.0000      -0.984699       -26.7950
  26   2.0000      -0.916622       -24.9425
  27   2.0000      -0.909939       -24.7607
  28   2.0000      -0.868887       -23.6436
  29   2.0000      -0.856869       -23.3166
  30   2.0000      -0.846496       -23.0343
  31   2.0000      -0.809231       -22.0203
  32   2.0000      -0.784370       -21.3438
  33   2.0000      -0.774239       -21.0681
  34   2.0000      -0.705942       -19.2097
  35   2.0000      -0.700547       -19.0629
  36   2.0000      -0.690803       -18.7977
  37   2.0000      -0.669506       -18.2182
  38   2.0000      -0.646784       -17.5999
  39   2.0000      -0.622629       -16.9426
  40   2.0000      -0.599746       -16.3199
  41   2.0000      -0.579815       -15.7776
  42   2.0000      -0.567562       -15.4442
  43   2.0000      -0.558077       -15.1860
  44   2.0000      -0.528879       -14.3915
  45   2.0000      -0.523634       -14.2488
  46   2.0000      -0.518856       -14.1188
  47   2.0000      -0.509662       -13.8686
  48   2.0000      -0.506921       -13.7940
  49   2.0000      -0.499172       -13.5832
  50   2.0000      -0.490198       -13.3390
  51   2.0000      -0.485566       -13.2129
  52   2.0000      -0.472664       -12.8619
  53   2.0000      -0.464598       -12.6424
  54   2.0000      -0.458767       -12.4837
  55   2.0000      -0.447558       -12.1787
  56   2.0000      -0.443993       -12.0817
  57   2.0000      -0.442056       -12.0290
  58   2.0000      -0.434680       -11.8282
  59   2.0000      -0.427760       -11.6400
  60   2.0000      -0.422295       -11.4912
  61   2.0000      -0.419535       -11.4161
  62   2.0000      -0.409131       -11.1330
  63   2.0000      -0.342736        -9.3263
  64   2.0000      -0.333011        -9.0617
  65   2.0000      -0.330860        -9.0032
  66   2.0000      -0.291759        -7.9392
  67   0.0000       0.031062         0.8452
  68   0.0000       0.067287         1.8310
  69   0.0000       0.114128         3.1056
  70   0.0000       0.120957         3.2914
  71   0.0000       0.126164         3.4331

MULLIKEN ATOMIC CHARGES
-----------------------
   0 S :    0.119392
   1 C :   -0.103053
   2 C :   -0.056457
   3 C :    0.051457
   4 C :   -0.158778
   5 H :   -0.016182
   6 C :    0.037395
   7 H :    0.023365
   8 H :    0.026697
   9 C :   -0.082340
  10 H :    0.031930
  11 H :    0.037335
  12 C :   -0.032759
  13 H :    0.023467
  14 H :    0.034291
  15 H :    0.021351
  16 S :    0.112458
  17 C :   -0.082594
  18 C :   -0.038750
  19 C :   -0.061185
  20 C :   -0.143264
  21 H :    0.025609
  22 C :    0.093618
  23 H :    0.011822
  24 H :    0.003077
  25 C :   -0.064133
  26 H :    0.029846
  27 H :    0.023416
  28 C :   -0.041898
  29 H :    0.047449
  30 H :    0.033412
  31 H :    0.026582
  32 H :    0.023282
  33 H :    0.044144
Sum of atomic charges:    0.0000000

LOEWDIN ATOMIC CHARGES
----------------------
   0 S :    0.416556
   1 C :   -0.189950
   2 C :   -0.063535
   3 C :   -0.050390
   4 C :   -0.199505
   5 H :    0.015451
   6 C :   -0.036320
   7 H :    0.025617
   8 H :    0.036147
   9 C :   -0.029730
  10 H :    0.024311
  11 H :    0.021711
  12 C :   -0.058751
  13 H :    0.018734
  14 H :    0.024038
  15 H :    0.022106
  16 S :    0.419730
  17 C :   -0.180491
  18 C :   -0.070178
  19 C :   -0.053307
  20 C :   -0.204285
  21 H :    0.032146
  22 C :   -0.031874
  23 H :    0.032856
  24 H :    0.019853
  25 C :   -0.043736
  26 H :    0.028639
  27 H :    0.023307
  28 C :   -0.066605
  29 H :    0.035808
  30 H :    0.024526
  31 H :    0.025257
  32 H :    0.016442
  33 H :    0.015420

  Mayer bond orders larger than 0.100000
B(  0-S ,  1-C ) :   1.1443 B(  0-S ,  4-C ) :   1.1471 B(  1-C ,  2-C ) :   1.6290
B(  1-C , 32-H ) :   0.9684 B(  2-C ,  3-C ) :   1.2306 B(  2-C ,  6-C ) :   1.0228
B(  3-C ,  4-C ) :   1.5783 B(  3-C ,  5-H ) :   1.0032 B(  4-C , 20-C ) :   1.0400
B(  6-C ,  7-H ) :   0.9430 B(  6-C ,  8-H ) :   0.9424 B(  6-C ,  9-C ) :   1.0644
B(  9-C , 10-H ) :   0.9573 B(  9-C , 11-H ) :   0.9594 B(  9-C , 12-C ) :   1.0593
B( 12-C , 13-H ) :   0.9773 B( 12-C , 14-H ) :   0.9802 B( 12-C , 15-H ) :   0.9767
B( 16-S , 17-C ) :   1.1958 B( 16-S , 20-C ) :   1.1452 B( 17-C , 18-C ) :   1.5479
B( 17-C , 20-C ) :   0.1123 B( 17-C , 33-H ) :   0.9772 B( 18-C , 19-C ) :   1.2678
B( 18-C , 21-H ) :   0.9893 B( 19-C , 20-C ) :   1.5634 B( 19-C , 22-C ) :   1.0676
B( 22-C , 23-H ) :   0.9260 B( 22-C , 24-H ) :   0.9170 B( 22-C , 25-C ) :   1.0684
B( 25-C , 26-H ) :   0.9462 B( 25-C , 27-H ) :   0.9532 B( 25-C , 28-C ) :   1.0930
B( 28-C , 29-H ) :   0.9715 B( 28-C , 30-H ) :   0.9740 B( 28-C , 31-H ) :   0.9704

Dispersion correction           -0.014322535
FINAL SINGLE POINT ENERGY     -1339.881132093994

DIPOLE MOMENT
-------------
                                X             Y             Z
Electronic contribution:      3.97486      30.32849       6.86323
Nuclear contribution   :     -4.15138     -30.92205      -7.11025
                        -----------------------------------------
Total Dipole Moment    :     -0.17652      -0.59356      -0.24703
                        -----------------------------------------
Magnitude (a.u.)       :      0.66670
Magnitude (Debye)      :      1.69462

Rotational constants in cm-1:     0.018167     0.008823     0.006868
Rotational constants in MHz :   544.635699   264.497747   205.883503

                             ****ORCA TERMINATED NORMALLY****
TOTAL RUN TIME: 0 days 0 hours 0 minutes 22 seconds 103 msec
