                         Program Version 4.2.1 -  RELEASE  -
|  1> ! wB97X-D3 SP def2-SVP
|  2> %pal
|  3> nprocs 24
|  4> end
|  5>
|  6> * xyz 0 1
|  7> S 	 -86.3531 	 -33.7041 	 -66.4167
|  8> C 	 -86.4109 	 -34.9289 	 -67.722
|  9> C 	 -87.3906 	 -35.8261 	 -67.4681
| 10> C 	 -88.3632 	 -35.2861 	 -66.5598
| 11> C 	 -88.0248 	 -34.1218 	 -65.9004
| 12> H 	 -89.2437 	 -35.8072 	 -66.2212
| 13> C 	 -87.5043 	 -37.1671 	 -68.225
| 14> H 	 -88.5623 	 -37.5254 	 -68.1463
| 15> H 	 -86.9006 	 -37.7885 	 -67.617
| 16> C 	 -87.1063 	 -37.2483 	 -69.7072
| 17> H 	 -86.1265 	 -36.7908 	 -69.8221
| 18> H 	 -87.1469 	 -38.3394 	 -69.9529
| 19> C 	 -88.2134 	 -36.5776 	 -70.7017
| 20> H 	 -89.1928 	 -37.0674 	 -70.5385
| 21> H 	 -88.423 	 -35.484 	 -70.4497
| 22> H 	 -87.9323 	 -36.5209 	 -71.751
| 23> S 	 -87.6411 	 -33.0655 	 -63.4155
| 24> C 	 -89.0074 	 -32.7037 	 -62.3804
| 25> C 	 -90.1861 	 -33.1101 	 -63.039
| 26> C 	 -90.0383 	 -33.4917 	 -64.417
| 27> C 	 -88.692 	 -33.5767 	 -64.7148
| 28> H 	 -91.1838 	 -32.868 	 -62.6957
| 29> C 	 -91.2559 	 -33.7482 	 -65.2977
| 30> H 	 -91.9726 	 -34.0864 	 -64.4896
| 31> H 	 -91.026 	 -34.472 	 -66.073
| 32> C 	 -91.8649 	 -32.5522 	 -66.0336
| 33> H 	 -92.0277 	 -31.7471 	 -65.257
| 34> H 	 -92.7944 	 -32.8719 	 -66.4319
| 35> C 	 -90.9857 	 -31.9354 	 -67.0795
| 36> H 	 -91.2745 	 -30.9862 	 -67.4687
| 37> H 	 -90.7909 	 -32.6733 	 -67.8662
| 38> H 	 -90.0048 	 -31.6311 	 -66.6448
| 39> H 	 -85.6284 	 -35.0253 	 -68.469
| 40> H 	 -88.8641 	 -32.3323 	 -61.3825
| 41> *
| 42>
| 43>                          ****END OF INPUT****

CARTESIAN COORDINATES (ANGSTROEM)
---------------------------------
  S    -86.353100  -33.704100  -66.416700
  C    -86.410900  -34.928900  -67.722000
  C    -87.390600  -35.826100  -67.468100
  C    -88.363200  -35.286100  -66.559800
  C    -88.024800  -34.121800  -65.900400
  H    -89.243700  -35.807200  -66.221200
  C    -87.504300  -37.167100  -68.225000
  H    -88.562300  -37.525400  -68.146300
  H    -86.900600  -37.788500  -67.617000
  C    -87.106300  -37.248300  -69.707200
  H    -86.126500  -36.790800  -69.822100
  H    -87.146900  -38.339400  -69.952900
  C    -88.213400  -36.577600  -70.701700
  H    -89.192800  -37.067400  -70.538500
  H    -88.423000  -35.484000  -70.449700
  H    -87.932300  -36.520900  -71.751000
  S    -87.641100  -33.065500  -63.415500
  C    -89.007400  -32.703700  -62.380400
  C    -90.186100  -33.110100  -63.039000
  C    -90.038300  -33.491700  -64.417000
  C    -88.692000  -33.576700  -64.714800
  H    -91.183800  -32.868000  -62.695700
  C    -91.255900  -33.748200  -65.297700
  H    -91.972600  -34.086400  -64.489600
  H    -91.026000  -34.472000  -66.073000
  C    -91.864900  -32.552200  -66.033600
  H    -92.027700  -31.747100  -65.257000
  H    -92.794400  -32.871900  -66.431900
  C    -90.985700  -31.935400  -67.079500
  H    -91.274500  -30.986200  -67.468700
  H    -90.790900  -32.673300  -67.866200
  H    -90.004800  -31.631100  -66.644800
  H    -85.628400  -35.025300  -68.469000
  H    -88.864100  -32.332300  -61.382500

 Total Charge           Charge          ....    0
 Multiplicity           Mult            ....    1
 Number of Electrons    NEL             ....  134
 Basis Dimension        Dim             ....  322

ORBITAL ENERGIES
----------------

  NO   OCC          E(Eh)            E(eV)
   0   2.0000     -88.967116     -2420.9183
   1   2.0000     -88.961911     -2420.7767
   2   2.0000     -10.333453      -281.1875
   3   2.0000     -10.329222      -281.0724
   4   2.0000     -10.322749      -280.8963
   5   2.0000     -10.314965      -280.6845
   6   2.0000     -10.303931      -280.3842
   7   2.0000     -10.303096      -280.3615
   8   2.0000     -10.302906      -280.3563
   9   2.0000     -10.298878      -280.2467
  10   2.0000     -10.298577      -280.2385
  11   2.0000     -10.297397      -280.2064
  12   2.0000     -10.294570      -280.1295
  13   2.0000     -10.291298      -280.0405
  14   2.0000     -10.285024      -279.8697
  15   2.0000     -10.270105      -279.4638
  16   2.0000      -8.082031      -219.9232
  17   2.0000      -8.075514      -219.7459
  18   2.0000      -6.040565      -164.3721
  19   2.0000      -6.036461      -164.2604
  20   2.0000      -6.034298      -164.2016
  21   2.0000      -6.032803      -164.1609
  22   2.0000      -6.030380      -164.0950
  23   2.0000      -6.025854      -163.9718
  24   2.0000      -1.004576       -27.3359
  25   2.0000      -0.981381       -26.7047
  26   2.0000      -0.913204       -24.8495
  27   2.0000      -0.905178       -24.6311
  28   2.0000      -0.864539       -23.5253
  29   2.0000      -0.853566       -23.2267
  30   2.0000      -0.835839       -22.7443
  31   2.0000      -0.809041       -22.0151
  32   2.0000      -0.783741       -21.3267
  33   2.0000      -0.775511       -21.1027
  34   2.0000      -0.708451       -19.2779
  35   2.0000      -0.701927       -19.1004
  36   2.0000      -0.691084       -18.8054
  37   2.0000      -0.666722       -18.1424
  38   2.0000      -0.636808       -17.3284
  39   2.0000      -0.611035       -16.6271
  40   2.0000      -0.597131       -16.2488
  41   2.0000      -0.576222       -15.6798
  42   2.0000      -0.553794       -15.0695
  43   2.0000      -0.551681       -15.0120
  44   2.0000      -0.551301       -15.0017
  45   2.0000      -0.524510       -14.2726
  46   2.0000      -0.520090       -14.1524
  47   2.0000      -0.507605       -13.8126
  48   2.0000      -0.500173       -13.6104
  49   2.0000      -0.498345       -13.5607
  50   2.0000      -0.485088       -13.1999
  51   2.0000      -0.482374       -13.1261
  52   2.0000      -0.468950       -12.7608
  53   2.0000      -0.466664       -12.6986
  54   2.0000      -0.456829       -12.4309
  55   2.0000      -0.444559       -12.0971
  56   2.0000      -0.441986       -12.0271
  57   2.0000      -0.438130       -11.9221
  58   2.0000      -0.431537       -11.7427
  59   2.0000      -0.425340       -11.5741
  60   2.0000      -0.416442       -11.3320
  61   2.0000      -0.415638       -11.3101
  62   2.0000      -0.410235       -11.1631
  63   2.0000      -0.356490        -9.7006
  64   2.0000      -0.333379        -9.0717
  65   2.0000      -0.325643        -8.8612
  66   2.0000      -0.284941        -7.7536
  67   0.0000       0.021482         0.5846
  68   0.0000       0.069606         1.8941
  69   0.0000       0.096643         2.6298
  70   0.0000       0.120300         3.2735
  71   0.0000       0.133516         3.6332

MULLIKEN ATOMIC CHARGES
-----------------------
   0 S :    0.072154
   1 C :   -0.136814
   2 C :   -0.076424
   3 C :    0.001375
   4 C :   -0.108327
   5 H :    0.015339
   6 C :    0.068832
   7 H :    0.023832
   8 H :    0.039425
   9 C :   -0.076621
  10 H :    0.036777
  11 H :    0.049568
  12 C :   -0.099587
  13 H :    0.037610
  14 H :    0.043229
  15 H :    0.047296
  16 S :    0.103534
  17 C :   -0.100912
  18 C :   -0.013280
  19 C :   -0.091812
  20 C :   -0.145570
  21 H :    0.017938
  22 C :    0.060329
  23 H :    0.039911
  24 H :    0.018123
  25 C :   -0.040361
  26 H :    0.023019
  27 H :    0.027524
  28 C :   -0.045316
  29 H :    0.026188
  30 H :    0.031721
  31 H :    0.035443
  32 H :    0.051692
  33 H :    0.064168
Sum of atomic charges:   -0.0000000

LOEWDIN ATOMIC CHARGES
----------------------
   0 S :    0.351754
   1 C :   -0.177647
   2 C :   -0.062298
   3 C :   -0.066424
   4 C :   -0.173034
   5 H :    0.026955
   6 C :   -0.030151
   7 H :    0.031728
   8 H :    0.031786
   9 C :   -0.035268
  10 H :    0.020470
  11 H :    0.035644
  12 C :   -0.078503
  13 H :    0.026536
  14 H :    0.032246
  15 H :    0.025475
  16 S :    0.409149
  17 C :   -0.185448
  18 C :   -0.067822
  19 C :   -0.066500
  20 C :   -0.191389
  21 H :    0.026354
  22 C :   -0.029651
  23 H :    0.043410
  24 H :    0.026239
  25 C :   -0.038460
  26 H :    0.027824
  27 H :    0.019356
  28 C :   -0.069399
  29 H :    0.022959
  30 H :    0.025306
  31 H :    0.034130
  32 H :    0.026584
  33 H :    0.028091

  Mayer bond orders larger than 0.100000
B(  0-S ,  1-C ) :   1.1120 B(  0-S ,  4-C ) :   1.1218 B(  1-C ,  2-C ) :   1.6341
B(  1-C , 32-H ) :   0.9718 B(  2-C ,  3-C ) :   1.2322 B(  2-C ,  6-C ) :   0.9943
B(  3-C ,  4-C ) :   1.5885 B(  3-C ,  5-H ) :   0.9836 B(  4-C , 20-C ) :   1.0597
B(  6-C ,  7-H ) :   0.9491 B(  6-C ,  8-H ) :   0.9289 B(  6-C ,  9-C ) :   1.0803
B(  9-C , 10-H ) :   0.9549 B(  9-C , 11-H ) :   0.9551 B(  9-C , 12-C ) :   1.0566
B( 12-C , 13-H ) :   0.9759 B( 12-C , 14-H ) :   0.9790 B( 12-C , 15-H ) :   0.9799
B( 16-S , 17-C ) :   1.1518 B( 16-S , 20-C ) :   1.1503 B( 17-C , 18-C ) :   1.5823
B( 17-C , 33-H ) :   0.9754 B( 18-C , 19-C ) :   1.2719 B( 18-C , 21-H ) :   0.9727
B( 19-C , 20-C ) :   1.5863 B( 19-C , 22-C ) :   1.0293 B( 22-C , 23-H ) :   0.9302
B( 22-C , 24-H ) :   0.9315 B( 22-C , 25-C ) :   1.0788 B( 25-C , 26-H ) :   0.9502
B( 25-C , 27-H ) :   0.9535 B( 25-C , 28-C ) :   1.0856 B( 28-C , 29-H ) :   0.9709
B( 28-C , 30-H ) :   0.9733 B( 28-C , 31-H ) :   0.9686

Dispersion correction           -0.014642256
FINAL SINGLE POINT ENERGY     -1339.866568004284

DIPOLE MOMENT
-------------
                                X             Y             Z
Electronic contribution:     15.26551       7.67129      20.52494
Nuclear contribution   :    -15.69463      -8.08253     -20.75993
                        -----------------------------------------
Total Dipole Moment    :     -0.42912      -0.41124      -0.23499
                        -----------------------------------------
Magnitude (a.u.)       :      0.63913
Magnitude (Debye)      :      1.62454

Rotational constants in cm-1:     0.020864     0.008406     0.006844
Rotational constants in MHz :   625.489628   252.014997   205.168194

                             ****ORCA TERMINATED NORMALLY****
TOTAL RUN TIME: 0 days 0 hours 0 minutes 21 seconds 851 msec
