                         Program Version 4.2.1 -  RELEASE  -
|  1> ! wB97X-D3 SP def2-SVP
|  2> %pal
|  3> nprocs 24
|  4> end
|  5>
|  6> * xyz 0 1
|  7> S 	 -75.6724 	 -6.1871 	 3.60124
|  8> C 	 -73.9838 	 -5.76637 	 3.42091
|  9> C 	 -73.1488 	 -6.80163 	 3.02359
| 10> C 	 -74.0156 	 -7.90704 	 2.61612
| 11> C 	 -75.2877 	 -7.85134 	 3.07164
| 12> H 	 -73.6209 	 -8.76231 	 2.12635
| 13> C 	 -71.672 	 -6.66103 	 2.84889
| 14> H 	 -71.4468 	 -5.57851 	 2.86944
| 15> H 	 -71.4009 	 -7.05891 	 1.87381
| 16> C 	 -70.9356 	 -7.46357 	 3.91355
| 17> H 	 -69.8957 	 -7.16528 	 3.80115
| 18> H 	 -71.197 	 -7.11153 	 4.90079
| 19> C 	 -71.1744 	 -9.04602 	 3.90493
| 20> H 	 -72.2008 	 -9.44864 	 4.17194
| 21> H 	 -70.8081 	 -9.37251 	 3.00562
| 22> H 	 -70.4785 	 -9.43337 	 4.68062
| 23> S 	 -77.4125 	 -9.00973 	 1.64259
| 24> C 	 -78.3883 	 -10.2648 	 2.45381
| 25> C 	 -77.9456 	 -10.5517 	 3.70641
| 26> C 	 -76.679 	 -9.94983 	 3.88683
| 27> C 	 -76.2816 	 -8.92432 	 3.01051
| 28> H 	 -78.4259 	 -11.1743 	 4.47054
| 29> C 	 -75.9602 	 -9.99584 	 5.2714
| 30> H 	 -76.4905 	 -9.49357 	 6.03616
| 31> H 	 -74.9931 	 -9.46809 	 5.12483
| 32> C 	 -75.5814 	 -11.364 	 5.91162
| 33> H 	 -75.0342 	 -11.9691 	 5.17254
| 34> H 	 -76.5526 	 -11.818 	 6.02924
| 35> C 	 -74.789 	 -11.1795 	 7.19546
| 36> H 	 -75.3807 	 -10.3997 	 7.82623
| 37> H 	 -73.7793 	 -10.7833 	 7.06648
| 38> H 	 -74.8503 	 -12.0559 	 7.91881
| 39> H 	 -73.5792 	 -4.72799 	 3.59078
| 40> H 	 -79.3442 	 -10.7616 	 2.03175
| 41> *
| 42>
| 43>                          ****END OF INPUT****

CARTESIAN COORDINATES (ANGSTROEM)
---------------------------------
  S    -75.672400   -6.187100    3.601240
  C    -73.983800   -5.766370    3.420910
  C    -73.148800   -6.801630    3.023590
  C    -74.015600   -7.907040    2.616120
  C    -75.287700   -7.851340    3.071640
  H    -73.620900   -8.762310    2.126350
  C    -71.672000   -6.661030    2.848890
  H    -71.446800   -5.578510    2.869440
  H    -71.400900   -7.058910    1.873810
  C    -70.935600   -7.463570    3.913550
  H    -69.895700   -7.165280    3.801150
  H    -71.197000   -7.111530    4.900790
  C    -71.174400   -9.046020    3.904930
  H    -72.200800   -9.448640    4.171940
  H    -70.808100   -9.372510    3.005620
  H    -70.478500   -9.433370    4.680620
  S    -77.412500   -9.009730    1.642590
  C    -78.388300  -10.264800    2.453810
  C    -77.945600  -10.551700    3.706410
  C    -76.679000   -9.949830    3.886830
  C    -76.281600   -8.924320    3.010510
  H    -78.425900  -11.174300    4.470540
  C    -75.960200   -9.995840    5.271400
  H    -76.490500   -9.493570    6.036160
  H    -74.993100   -9.468090    5.124830
  C    -75.581400  -11.364000    5.911620
  H    -75.034200  -11.969100    5.172540
  H    -76.552600  -11.818000    6.029240
  C    -74.789000  -11.179500    7.195460
  H    -75.380700  -10.399700    7.826230
  H    -73.779300  -10.783300    7.066480
  H    -74.850300  -12.055900    7.918810
  H    -73.579200   -4.727990    3.590780
  H    -79.344200  -10.761600    2.031750

 Total Charge           Charge          ....    0
 Multiplicity           Mult            ....    1
 Number of Electrons    NEL             ....  134
 Basis Dimension        Dim             ....  322

ORBITAL ENERGIES
----------------

  NO   OCC          E(Eh)            E(eV)
   0   2.0000     -88.965396     -2420.8715
   1   2.0000     -88.964014     -2420.8339
   2   2.0000     -10.330184      -281.0986
   3   2.0000     -10.329862      -281.0898
   4   2.0000     -10.327529      -281.0263
   5   2.0000     -10.318495      -280.7805
   6   2.0000     -10.305616      -280.4301
   7   2.0000     -10.301253      -280.3113
   8   2.0000     -10.295913      -280.1660
   9   2.0000     -10.295757      -280.1618
  10   2.0000     -10.295072      -280.1432
  11   2.0000     -10.290778      -280.0263
  12   2.0000     -10.290502      -280.0188
  13   2.0000     -10.285601      -279.8854
  14   2.0000     -10.283871      -279.8384
  15   2.0000     -10.282836      -279.8102
  16   2.0000      -8.079656      -219.8586
  17   2.0000      -8.077908      -219.8110
  18   2.0000      -6.038301      -164.3105
  19   2.0000      -6.036524      -164.2622
  20   2.0000      -6.034417      -164.2048
  21   2.0000      -6.032419      -164.1505
  22   2.0000      -6.030104      -164.0875
  23   2.0000      -6.028692      -164.0490
  24   2.0000      -1.001757       -27.2592
  25   2.0000      -0.981892       -26.7186
  26   2.0000      -0.913710       -24.8633
  27   2.0000      -0.900764       -24.5110
  28   2.0000      -0.869171       -23.6514
  29   2.0000      -0.842413       -22.9232
  30   2.0000      -0.841691       -22.9036
  31   2.0000      -0.818801       -22.2807
  32   2.0000      -0.783405       -21.3175
  33   2.0000      -0.761428       -20.7195
  34   2.0000      -0.705332       -19.1931
  35   2.0000      -0.697111       -18.9693
  36   2.0000      -0.690556       -18.7910
  37   2.0000      -0.654570       -17.8118
  38   2.0000      -0.639724       -17.4078
  39   2.0000      -0.617488       -16.8027
  40   2.0000      -0.590949       -16.0805
  41   2.0000      -0.577490       -15.7143
  42   2.0000      -0.566999       -15.4288
  43   2.0000      -0.547117       -14.8878
  44   2.0000      -0.542692       -14.7674
  45   2.0000      -0.516221       -14.0471
  46   2.0000      -0.510551       -13.8928
  47   2.0000      -0.507253       -13.8030
  48   2.0000      -0.504293       -13.7225
  49   2.0000      -0.497337       -13.5332
  50   2.0000      -0.485569       -13.2130
  51   2.0000      -0.480370       -13.0715
  52   2.0000      -0.469345       -12.7715
  53   2.0000      -0.462528       -12.5860
  54   2.0000      -0.456034       -12.4093
  55   2.0000      -0.450576       -12.2608
  56   2.0000      -0.447584       -12.1794
  57   2.0000      -0.440148       -11.9770
  58   2.0000      -0.429798       -11.6954
  59   2.0000      -0.419350       -11.4111
  60   2.0000      -0.417571       -11.3627
  61   2.0000      -0.413719       -11.2579
  62   2.0000      -0.404661       -11.0114
  63   2.0000      -0.336854        -9.1663
  64   2.0000      -0.330399        -8.9906
  65   2.0000      -0.316169        -8.6034
  66   2.0000      -0.309543        -8.4231
  67   0.0000       0.039854         1.0845
  68   0.0000       0.051954         1.4138
  69   0.0000       0.112109         3.0506
  70   0.0000       0.114444         3.1142
  71   0.0000       0.124184         3.3792

MULLIKEN ATOMIC CHARGES
-----------------------
   0 S :    0.117269
   1 C :   -0.135959
   2 C :   -0.118391
   3 C :    0.063261
   4 C :   -0.163810
   5 H :    0.006048
   6 C :    0.082711
   7 H :    0.025345
   8 H :    0.025743
   9 C :   -0.069545
  10 H :    0.028746
  11 H :    0.020980
  12 C :   -0.063724
  13 H :    0.071633
  14 H :    0.016446
  15 H :    0.038160
  16 S :    0.101114
  17 C :   -0.116167
  18 C :   -0.020045
  19 C :   -0.014756
  20 C :   -0.160862
  21 H :    0.040257
  22 C :   -0.011575
  23 H :    0.025742
  24 H :    0.033129
  25 C :   -0.057377
  26 H :    0.030023
  27 H :    0.014751
  28 C :   -0.080598
  29 H :    0.025927
  30 H :    0.049244
  31 H :    0.047555
  32 H :    0.063240
  33 H :    0.085486
Sum of atomic charges:    0.0000000

LOEWDIN ATOMIC CHARGES
----------------------
   0 S :    0.384297
   1 C :   -0.197556
   2 C :   -0.064022
   3 C :   -0.040666
   4 C :   -0.194264
   5 H :    0.025663
   6 C :   -0.032535
   7 H :    0.035541
   8 H :    0.030051
   9 C :   -0.035337
  10 H :    0.024578
  11 H :    0.020180
  12 C :   -0.063887
  13 H :    0.037895
  14 H :    0.009263
  15 H :    0.034387
  16 S :    0.382760
  17 C :   -0.179142
  18 C :   -0.079522
  19 C :   -0.051702
  20 C :   -0.196181
  21 H :    0.040472
  22 C :   -0.033705
  23 H :    0.021056
  24 H :    0.028019
  25 C :   -0.047427
  26 H :    0.022856
  27 H :    0.016923
  28 C :   -0.077080
  29 H :    0.032213
  30 H :    0.027657
  31 H :    0.034888
  32 H :    0.035585
  33 H :    0.048745

  Mayer bond orders larger than 0.100000
B(  0-S ,  1-C ) :   1.1381 B(  0-S ,  4-C ) :   1.1064 B(  1-C ,  2-C ) :   1.6518
B(  1-C , 32-H ) :   0.9524 B(  2-C ,  3-C ) :   1.2017 B(  2-C ,  6-C ) :   1.0280
B(  3-C ,  4-C ) :   1.6337 B(  3-C ,  5-H ) :   0.9878 B(  4-C , 20-C ) :   1.0313
B(  6-C ,  7-H ) :   0.9379 B(  6-C ,  8-H ) :   0.9394 B(  6-C ,  9-C ) :   1.0676
B(  9-C , 10-H ) :   0.9574 B(  9-C , 11-H ) :   0.9549 B(  9-C , 12-C ) :   1.0655
B( 12-C , 13-H ) :   0.9685 B( 12-C , 14-H ) :   0.9772 B( 12-C , 15-H ) :   0.9721
B( 16-S , 17-C ) :   1.1595 B( 16-S , 20-C ) :   1.1236 B( 17-C , 18-C ) :   1.6052
B( 17-C , 20-C ) :   0.1009 B( 17-C , 33-H ) :   0.9520 B( 18-C , 19-C ) :   1.2469
B( 18-C , 21-H ) :   0.9854 B( 19-C , 20-C ) :   1.5984 B( 19-C , 22-C ) :   1.0377
B( 22-C , 23-H ) :   0.9456 B( 22-C , 24-H ) :   0.9440 B( 22-C , 25-C ) :   1.0504
B( 25-C , 26-H ) :   0.9567 B( 25-C , 27-H ) :   0.9555 B( 25-C , 28-C ) :   1.0815
B( 28-C , 29-H ) :   0.9691 B( 28-C , 30-H ) :   0.9742 B( 28-C , 31-H ) :   0.9721

Dispersion correction           -0.014777072
FINAL SINGLE POINT ENERGY     -1339.853020767018

DIPOLE MOMENT
-------------
                                X             Y             Z
Electronic contribution:    -20.76256      11.76016     -16.44904
Nuclear contribution   :     21.24291     -11.94444      16.75345
                        -----------------------------------------
Total Dipole Moment    :      0.48035      -0.18428       0.30441
                        -----------------------------------------
Magnitude (a.u.)       :      0.59779
Magnitude (Debye)      :      1.51947

Rotational constants in cm-1:     0.016211     0.009897     0.007290
Rotational constants in MHz :   486.008095   296.714598   218.536801

                             ****ORCA TERMINATED NORMALLY****
TOTAL RUN TIME: 0 days 0 hours 0 minutes 21 seconds 925 msec
