                         Program Version 4.2.1 -  RELEASE  -
|  1> ! wB97X-D3 SP def2-SVP
|  2> %pal
|  3> nprocs 24
|  4> end
|  5>
|  6> * xyz 0 1
|  7> S 	 -110.213 	 16.4527 	 -112.818
|  8> C 	 -109.316 	 16.51 	 -114.347
|  9> C 	 -110.17 	 16.121 	 -115.388
| 10> C 	 -111.54 	 15.9708 	 -114.968
| 11> C 	 -111.703 	 16.1002 	 -113.641
| 12> H 	 -112.355 	 15.5802 	 -115.493
| 13> C 	 -109.689 	 16.2608 	 -116.728
| 14> H 	 -110.137 	 15.4403 	 -117.35
| 15> H 	 -108.558 	 16.1705 	 -116.755
| 16> C 	 -110.093 	 17.6928 	 -117.214
| 17> H 	 -111.132 	 17.7912 	 -117.384
| 18> H 	 -109.886 	 18.3177 	 -116.317
| 19> C 	 -109.443 	 18.2369 	 -118.491
| 20> H 	 -109.724 	 17.6435 	 -119.343
| 21> H 	 -109.775 	 19.2463 	 -118.727
| 22> H 	 -108.35 	 18.1168 	 -118.343
| 23> S 	 -113.379 	 14.5363 	 -112.121
| 24> C 	 -114.857 	 15.3198 	 -111.561
| 25> C 	 -114.903 	 16.6757 	 -111.834
| 26> C 	 -113.843 	 17.0156 	 -112.689
| 27> C 	 -112.937 	 16.0449 	 -112.885
| 28> H 	 -115.721 	 17.2251 	 -111.397
| 29> C 	 -113.62 	 18.4264 	 -113.178
| 30> H 	 -112.77 	 18.5003 	 -113.875
| 31> H 	 -113.431 	 19.1138 	 -112.312
| 32> C 	 -114.897 	 18.9962 	 -113.954
| 33> H 	 -114.745 	 20.0676 	 -114.145
| 34> H 	 -115.805 	 18.9257 	 -113.309
| 35> C 	 -114.933 	 18.3123 	 -115.329
| 36> H 	 -113.891 	 18.3434 	 -115.646
| 37> H 	 -115.561 	 18.9279 	 -115.933
| 38> H 	 -115.373 	 17.3025 	 -115.33
| 39> H 	 -108.286 	 16.7637 	 -114.494
| 40> H 	 -115.579 	 14.9588 	 -110.863
| 41> *
| 42>
| 43>                          ****END OF INPUT****

CARTESIAN COORDINATES (ANGSTROEM)
---------------------------------
  S    -110.213000   16.452700  -112.818000
  C    -109.316000   16.510000  -114.347000
  C    -110.170000   16.121000  -115.388000
  C    -111.540000   15.970800  -114.968000
  C    -111.703000   16.100200  -113.641000
  H    -112.355000   15.580200  -115.493000
  C    -109.689000   16.260800  -116.728000
  H    -110.137000   15.440300  -117.350000
  H    -108.558000   16.170500  -116.755000
  C    -110.093000   17.692800  -117.214000
  H    -111.132000   17.791200  -117.384000
  H    -109.886000   18.317700  -116.317000
  C    -109.443000   18.236900  -118.491000
  H    -109.724000   17.643500  -119.343000
  H    -109.775000   19.246300  -118.727000
  H    -108.350000   18.116800  -118.343000
  S    -113.379000   14.536300  -112.121000
  C    -114.857000   15.319800  -111.561000
  C    -114.903000   16.675700  -111.834000
  C    -113.843000   17.015600  -112.689000
  C    -112.937000   16.044900  -112.885000
  H    -115.721000   17.225100  -111.397000
  C    -113.620000   18.426400  -113.178000
  H    -112.770000   18.500300  -113.875000
  H    -113.431000   19.113800  -112.312000
  C    -114.897000   18.996200  -113.954000
  H    -114.745000   20.067600  -114.145000
  H    -115.805000   18.925700  -113.309000
  C    -114.933000   18.312300  -115.329000
  H    -113.891000   18.343400  -115.646000
  H    -115.561000   18.927900  -115.933000
  H    -115.373000   17.302500  -115.330000
  H    -108.286000   16.763700  -114.494000
  H    -115.579000   14.958800  -110.863000

 Total Charge           Charge          ....    0
 Multiplicity           Mult            ....    1
 Number of Electrons    NEL             ....  134
 Basis Dimension        Dim             ....  322

ORBITAL ENERGIES
----------------

  NO   OCC          E(Eh)            E(eV)
   0   2.0000     -88.967177     -2420.9200
   1   2.0000     -88.962403     -2420.7901
   2   2.0000     -10.322009      -280.8761
   3   2.0000     -10.316801      -280.7344
   4   2.0000     -10.314976      -280.6848
   5   2.0000     -10.312984      -280.6306
   6   2.0000     -10.297870      -280.2193
   7   2.0000     -10.296461      -280.1809
   8   2.0000     -10.295398      -280.1520
   9   2.0000     -10.291894      -280.0567
  10   2.0000     -10.291751      -280.0528
  11   2.0000     -10.289195      -279.9832
  12   2.0000     -10.287908      -279.9482
  13   2.0000     -10.284392      -279.8525
  14   2.0000     -10.278656      -279.6965
  15   2.0000     -10.273236      -279.5490
  16   2.0000      -8.081731      -219.9151
  17   2.0000      -8.077009      -219.7866
  18   2.0000      -6.040177      -164.3616
  19   2.0000      -6.036425      -164.2595
  20   2.0000      -6.035531      -164.2352
  21   2.0000      -6.032410      -164.1502
  22   2.0000      -6.031480      -164.1249
  23   2.0000      -6.027814      -164.0251
  24   2.0000      -1.012421       -27.5494
  25   2.0000      -0.987710       -26.8770
  26   2.0000      -0.918091       -24.9825
  27   2.0000      -0.902822       -24.5670
  28   2.0000      -0.870132       -23.6775
  29   2.0000      -0.849323       -23.1113
  30   2.0000      -0.848528       -23.0896
  31   2.0000      -0.823931       -22.4203
  32   2.0000      -0.777236       -21.1497
  33   2.0000      -0.764341       -20.7988
  34   2.0000      -0.707527       -19.2528
  35   2.0000      -0.696631       -18.9563
  36   2.0000      -0.692972       -18.8567
  37   2.0000      -0.659438       -17.9442
  38   2.0000      -0.648723       -17.6527
  39   2.0000      -0.619546       -16.8587
  40   2.0000      -0.594522       -16.1778
  41   2.0000      -0.571359       -15.5475
  42   2.0000      -0.562645       -15.3103
  43   2.0000      -0.551693       -15.0123
  44   2.0000      -0.541701       -14.7404
  45   2.0000      -0.525818       -14.3082
  46   2.0000      -0.524864       -14.2823
  47   2.0000      -0.512610       -13.9488
  48   2.0000      -0.508748       -13.8437
  49   2.0000      -0.499484       -13.5917
  50   2.0000      -0.487218       -13.2579
  51   2.0000      -0.477833       -13.0025
  52   2.0000      -0.466792       -12.7020
  53   2.0000      -0.459413       -12.5013
  54   2.0000      -0.452770       -12.3205
  55   2.0000      -0.451474       -12.2852
  56   2.0000      -0.446660       -12.1542
  57   2.0000      -0.433589       -11.7986
  58   2.0000      -0.430605       -11.7174
  59   2.0000      -0.423127       -11.5139
  60   2.0000      -0.421294       -11.4640
  61   2.0000      -0.415189       -11.2979
  62   2.0000      -0.413866       -11.2619
  63   2.0000      -0.338136        -9.2012
  64   2.0000      -0.329985        -8.9794
  65   2.0000      -0.320582        -8.7235
  66   2.0000      -0.309701        -8.4274
  67   0.0000       0.049646         1.3509
  68   0.0000       0.052539         1.4297
  69   0.0000       0.113082         3.0771
  70   0.0000       0.116889         3.1807
  71   0.0000       0.125155         3.4056

MULLIKEN ATOMIC CHARGES
-----------------------
   0 S :    0.112436
   1 C :   -0.122221
   2 C :   -0.083221
   3 C :    0.073220
   4 C :   -0.192170
   5 H :   -0.003027
   6 C :    0.035334
   7 H :    0.035707
   8 H :    0.030767
   9 C :   -0.096881
  10 H :    0.020969
  11 H :    0.032819
  12 C :   -0.017293
  13 H :    0.023576
  14 H :    0.038926
  15 H :    0.031211
  16 S :    0.121815
  17 C :   -0.078436
  18 C :   -0.058004
  19 C :    0.040401
  20 C :   -0.186665
  21 H :    0.024054
  22 C :    0.022554
  23 H :    0.038259
  24 H :    0.045950
  25 C :   -0.117579
  26 H :    0.030239
  27 H :    0.036324
  28 C :   -0.028520
  29 H :    0.030660
  30 H :    0.023556
  31 H :    0.048909
  32 H :    0.044894
  33 H :    0.041437
Sum of atomic charges:   -0.0000000

LOEWDIN ATOMIC CHARGES
----------------------
   0 S :    0.398269
   1 C :   -0.191248
   2 C :   -0.062469
   3 C :   -0.057775
   4 C :   -0.190617
   5 H :    0.027662
   6 C :   -0.040515
   7 H :    0.034359
   8 H :    0.035173
   9 C :   -0.040317
  10 H :    0.017077
  11 H :    0.027400
  12 C :   -0.064531
  13 H :    0.022481
  14 H :    0.028910
  15 H :    0.026225
  16 S :    0.401619
  17 C :   -0.172592
  18 C :   -0.066014
  19 C :   -0.057146
  20 C :   -0.208194
  21 H :    0.035266
  22 C :   -0.030708
  23 H :    0.027574
  24 H :    0.035699
  25 C :   -0.042632
  26 H :    0.023152
  27 H :    0.021178
  28 C :   -0.063017
  29 H :    0.026531
  30 H :    0.020259
  31 H :    0.029647
  32 H :    0.025613
  33 H :    0.023683

  Mayer bond orders larger than 0.100000
B(  0-S ,  1-C ) :   1.1275 B(  0-S ,  4-C ) :   1.1505 B(  1-C ,  2-C ) :   1.6035
B(  1-C , 32-H ) :   0.9722 B(  2-C ,  3-C ) :   1.1896 B(  2-C ,  6-C ) :   1.0757
B(  3-C ,  4-C ) :   1.6341 B(  3-C ,  5-H ) :   1.0007 B(  4-C , 20-C ) :   0.9876
B(  6-C ,  7-H ) :   0.9241 B(  6-C ,  8-H ) :   0.9390 B(  6-C ,  9-C ) :   1.0418
B(  9-C , 10-H ) :   0.9525 B(  9-C , 11-H ) :   0.9583 B(  9-C , 12-C ) :   1.0851
B( 12-C , 13-H ) :   0.9712 B( 12-C , 14-H ) :   0.9723 B( 12-C , 15-H ) :   0.9766
B( 16-S , 17-C ) :   1.1485 B( 16-S , 20-C ) :   1.1296 B( 17-C , 18-C ) :   1.6529
B( 17-C , 33-H ) :   0.9624 B( 18-C , 19-C ) :   1.1964 B( 18-C , 21-H ) :   0.9928
B( 19-C , 20-C ) :   1.6505 B( 19-C , 22-C ) :   1.0391 B( 22-C , 23-H ) :   0.9387
B( 22-C , 24-H ) :   0.9387 B( 22-C , 25-C ) :   1.0687 B( 25-C , 26-H ) :   0.9593
B( 25-C , 27-H ) :   0.9579 B( 25-C , 28-C ) :   1.0608 B( 28-C , 29-H ) :   0.9731
B( 28-C , 30-H ) :   0.9754 B( 28-C , 31-H ) :   0.9752

Dispersion correction           -0.015481651
FINAL SINGLE POINT ENERGY     -1339.871911254854

DIPOLE MOMENT
-------------
                                X             Y             Z
Electronic contribution:      1.88496     -17.23470      23.08224
Nuclear contribution   :     -2.12823      17.65429     -23.44831
                        -----------------------------------------
Total Dipole Moment    :     -0.24327       0.41958      -0.36607
                        -----------------------------------------
Magnitude (a.u.)       :      0.60765
Magnitude (Debye)      :      1.54452

Rotational constants in cm-1:     0.020233     0.009179     0.007227
Rotational constants in MHz :   606.556055   275.192431   216.659108

                             ****ORCA TERMINATED NORMALLY****
TOTAL RUN TIME: 0 days 0 hours 0 minutes 21 seconds 297 msec
