                         Program Version 4.2.1 -  RELEASE  -
|  1> ! wB97X-D3 SP def2-SVP
|  2> %pal
|  3> nprocs 24
|  4> end
|  5>
|  6> * xyz 0 1
|  7> S 	 24.4129 	 -4.02394 	 -111.641
|  8> C 	 23.4604 	 -5.44664 	 -111.891
|  9> C 	 22.0739 	 -5.06733 	 -111.805
| 10> C 	 21.8458 	 -3.63112 	 -111.812
| 11> C 	 23.0287 	 -2.98409 	 -111.688
| 12> H 	 20.9692 	 -3.08167 	 -111.931
| 13> C 	 20.921 	 -5.99947 	 -112.317
| 14> H 	 20.0411 	 -5.6164 	 -111.758
| 15> H 	 21.1072 	 -7.00425 	 -112.004
| 16> C 	 20.764 	 -6.03598 	 -113.838
| 17> H 	 20.4966 	 -5.05612 	 -114.21
| 18> H 	 21.7164 	 -6.30154 	 -114.291
| 19> C 	 19.726 	 -7.11054 	 -114.24
| 20> H 	 18.7645 	 -6.86974 	 -113.695
| 21> H 	 19.4502 	 -7.12756 	 -115.258
| 22> H 	 20.0022 	 -8.12537 	 -113.973
| 23> S 	 24.4181 	 -0.894819 	 -110.486
| 24> C 	 23.8855 	 0.751321 	 -110.711
| 25> C 	 22.8568 	 0.799279 	 -111.685
| 26> C 	 22.4714 	 -0.475021 	 -112.156
| 27> C 	 23.1899 	 -1.51214 	 -111.596
| 28> H 	 22.443 	 1.73453 	 -111.973
| 29> C 	 21.4487 	 -0.530635 	 -113.268
| 30> H 	 21.5477 	 -1.43549 	 -113.892
| 31> H 	 21.5431 	 0.326755 	 -113.944
| 32> C 	 19.9737 	 -0.457431 	 -112.784
| 33> H 	 19.8095 	 0.407793 	 -112.206
| 34> H 	 19.6943 	 -1.2929 	 -112.169
| 35> C 	 19.0028 	 -0.473413 	 -113.941
| 36> H 	 19.4558 	 0.109169 	 -114.766
| 37> H 	 17.9356 	 -0.262162 	 -113.675
| 38> H 	 18.8645 	 -1.51335 	 -114.361
| 39> H 	 23.7556 	 -6.429 	 -112.043
| 40> H 	 24.1964 	 1.55544 	 -110.041
| 41> *
| 42>
| 43>                          ****END OF INPUT****

CARTESIAN COORDINATES (ANGSTROEM)
---------------------------------
  S     24.412900   -4.023940  -111.641000
  C     23.460400   -5.446640  -111.891000
  C     22.073900   -5.067330  -111.805000
  C     21.845800   -3.631120  -111.812000
  C     23.028700   -2.984090  -111.688000
  H     20.969200   -3.081670  -111.931000
  C     20.921000   -5.999470  -112.317000
  H     20.041100   -5.616400  -111.758000
  H     21.107200   -7.004250  -112.004000
  C     20.764000   -6.035980  -113.838000
  H     20.496600   -5.056120  -114.210000
  H     21.716400   -6.301540  -114.291000
  C     19.726000   -7.110540  -114.240000
  H     18.764500   -6.869740  -113.695000
  H     19.450200   -7.127560  -115.258000
  H     20.002200   -8.125370  -113.973000
  S     24.418100   -0.894819  -110.486000
  C     23.885500    0.751321  -110.711000
  C     22.856800    0.799279  -111.685000
  C     22.471400   -0.475021  -112.156000
  C     23.189900   -1.512140  -111.596000
  H     22.443000    1.734530  -111.973000
  C     21.448700   -0.530635  -113.268000
  H     21.547700   -1.435490  -113.892000
  H     21.543100    0.326755  -113.944000
  C     19.973700   -0.457431  -112.784000
  H     19.809500    0.407793  -112.206000
  H     19.694300   -1.292900  -112.169000
  C     19.002800   -0.473413  -113.941000
  H     19.455800    0.109169  -114.766000
  H     17.935600   -0.262162  -113.675000
  H     18.864500   -1.513350  -114.361000
  H     23.755600   -6.429000  -112.043000
  H     24.196400    1.555440  -110.041000

 Total Charge           Charge          ....    0
 Multiplicity           Mult            ....    1
 Number of Electrons    NEL             ....  134
 Basis Dimension        Dim             ....  322

ORBITAL ENERGIES
----------------

  NO   OCC          E(Eh)            E(eV)
   0   2.0000     -88.969982     -2420.9963
   1   2.0000     -88.967362     -2420.9250
   2   2.0000     -10.330793      -281.1152
   3   2.0000     -10.329101      -281.0691
   4   2.0000     -10.322234      -280.8823
   5   2.0000     -10.315904      -280.7100
   6   2.0000     -10.308913      -280.5198
   7   2.0000     -10.303286      -280.3667
   8   2.0000     -10.297852      -280.2188
   9   2.0000     -10.295874      -280.1650
  10   2.0000     -10.291831      -280.0549
  11   2.0000     -10.291114      -280.0354
  12   2.0000     -10.287056      -279.9250
  13   2.0000     -10.286387      -279.9068
  14   2.0000     -10.282690      -279.8062
  15   2.0000     -10.278692      -279.6974
  16   2.0000      -8.085005      -220.0042
  17   2.0000      -8.081954      -219.9212
  18   2.0000      -6.043554      -164.4535
  19   2.0000      -6.040449      -164.3690
  20   2.0000      -6.039370      -164.3396
  21   2.0000      -6.036379      -164.2582
  22   2.0000      -6.035810      -164.2427
  23   2.0000      -6.032859      -164.1624
  24   2.0000      -1.008455       -27.4414
  25   2.0000      -0.984278       -26.7836
  26   2.0000      -0.914392       -24.8819
  27   2.0000      -0.907242       -24.6873
  28   2.0000      -0.867471       -23.6051
  29   2.0000      -0.857500       -23.3338
  30   2.0000      -0.847970       -23.0744
  31   2.0000      -0.812595       -22.1118
  32   2.0000      -0.778758       -21.1911
  33   2.0000      -0.768417       -20.9097
  34   2.0000      -0.703927       -19.1548
  35   2.0000      -0.703357       -19.1393
  36   2.0000      -0.695044       -18.9131
  37   2.0000      -0.669749       -18.2248
  38   2.0000      -0.649119       -17.6634
  39   2.0000      -0.621522       -16.9125
  40   2.0000      -0.601219       -16.3600
  41   2.0000      -0.572940       -15.5905
  42   2.0000      -0.565905       -15.3991
  43   2.0000      -0.561304       -15.2739
  44   2.0000      -0.527681       -14.3589
  45   2.0000      -0.524122       -14.2621
  46   2.0000      -0.519306       -14.1310
  47   2.0000      -0.515475       -14.0268
  48   2.0000      -0.505722       -13.7614
  49   2.0000      -0.500586       -13.6216
  50   2.0000      -0.492528       -13.4024
  51   2.0000      -0.482585       -13.1318
  52   2.0000      -0.472301       -12.8520
  53   2.0000      -0.466423       -12.6920
  54   2.0000      -0.463489       -12.6122
  55   2.0000      -0.448490       -12.2040
  56   2.0000      -0.441496       -12.0137
  57   2.0000      -0.437596       -11.9076
  58   2.0000      -0.435631       -11.8541
  59   2.0000      -0.429090       -11.6761
  60   2.0000      -0.426427       -11.6037
  61   2.0000      -0.417746       -11.3675
  62   2.0000      -0.408382       -11.1126
  63   2.0000      -0.355425        -9.6716
  64   2.0000      -0.334132        -9.0922
  65   2.0000      -0.329985        -8.9794
  66   2.0000      -0.285702        -7.7744
  67   0.0000       0.027097         0.7374
  68   0.0000       0.066748         1.8163
  69   0.0000       0.105392         2.8679
  70   0.0000       0.114972         3.1285
  71   0.0000       0.118625         3.2280

MULLIKEN ATOMIC CHARGES
-----------------------
   0 S :    0.122354
   1 C :   -0.084901
   2 C :   -0.079663
   3 C :    0.040664
   4 C :   -0.114585
   5 H :   -0.039103
   6 C :    0.011985
   7 H :    0.033538
   8 H :    0.013528
   9 C :   -0.028011
  10 H :    0.021089
  11 H :    0.025160
  12 C :   -0.049252
  13 H :    0.026758
  14 H :    0.026785
  15 H :    0.030373
  16 S :    0.100731
  17 C :   -0.108898
  18 C :   -0.024145
  19 C :   -0.015583
  20 C :   -0.129928
  21 H :    0.008870
  22 C :    0.019191
  23 H :    0.034099
  24 H :    0.026819
  25 C :   -0.046407
  26 H :    0.017594
  27 H :    0.026487
  28 C :   -0.071785
  29 H :    0.032642
  30 H :    0.045864
  31 H :    0.025935
  32 H :    0.029530
  33 H :    0.072264
Sum of atomic charges:    0.0000000

LOEWDIN ATOMIC CHARGES
----------------------
   0 S :    0.424002
   1 C :   -0.198012
   2 C :   -0.052837
   3 C :   -0.060055
   4 C :   -0.188084
   5 H :    0.021651
   6 C :   -0.033306
   7 H :    0.031104
   8 H :    0.020951
   9 C :   -0.033851
  10 H :    0.020492
  11 H :    0.023909
  12 C :   -0.065502
  13 H :    0.030155
  14 H :    0.018935
  15 H :    0.023037
  16 S :    0.403457
  17 C :   -0.190698
  18 C :   -0.062007
  19 C :   -0.064714
  20 C :   -0.186692
  21 H :    0.025800
  22 C :   -0.028289
  23 H :    0.031717
  24 H :    0.032294
  25 C :   -0.039363
  26 H :    0.017389
  27 H :    0.018516
  28 C :   -0.075428
  29 H :    0.025393
  30 H :    0.032833
  31 H :    0.027017
  32 H :    0.016841
  33 H :    0.033345

  Mayer bond orders larger than 0.100000
B(  0-S ,  1-C ) :   1.1413 B(  0-S ,  4-C ) :   1.1554 B(  1-C ,  2-C ) :   1.5816
B(  1-C , 32-H ) :   0.9835 B(  2-C ,  3-C ) :   1.2073 B(  2-C ,  6-C ) :   1.0438
B(  3-C ,  4-C ) :   1.5859 B(  3-C ,  5-H ) :   1.0064 B(  4-C , 20-C ) :   1.0202
B(  6-C ,  7-H ) :   0.9429 B(  6-C ,  8-H ) :   0.9470 B(  6-C ,  9-C ) :   1.0568
B(  9-C , 10-H ) :   0.9554 B(  9-C , 11-H ) :   0.9547 B(  9-C , 12-C ) :   1.0764
B( 12-C , 13-H ) :   0.9746 B( 12-C , 14-H ) :   0.9753 B( 12-C , 15-H ) :   0.9765
B( 16-S , 17-C ) :   1.1696 B( 16-S , 20-C ) :   1.1412 B( 17-C , 18-C ) :   1.5693
B( 17-C , 20-C ) :   0.1059 B( 17-C , 33-H ) :   0.9682 B( 18-C , 19-C ) :   1.2605
B( 18-C , 21-H ) :   0.9972 B( 19-C , 20-C ) :   1.5944 B( 19-C , 22-C ) :   1.0427
B( 22-C , 23-H ) :   0.9419 B( 22-C , 24-H ) :   0.9355 B( 22-C , 25-C ) :   1.0601
B( 25-C , 26-H ) :   0.9516 B( 25-C , 27-H ) :   0.9492 B( 25-C , 28-C ) :   1.0846
B( 28-C , 29-H ) :   0.9707 B( 28-C , 30-H ) :   0.9718 B( 28-C , 31-H ) :   0.9729

Dispersion correction           -0.014184096
FINAL SINGLE POINT ENERGY     -1339.875087406782

DIPOLE MOMENT
-------------
                                X             Y             Z
Electronic contribution:     28.31001       7.22967      16.69172
Nuclear contribution   :    -28.91410      -7.17498     -17.03697
                        -----------------------------------------
Total Dipole Moment    :     -0.60408       0.05469      -0.34526
                        -----------------------------------------
Magnitude (a.u.)       :      0.69793
Magnitude (Debye)      :      1.77400

Rotational constants in cm-1:     0.017527     0.009445     0.006396
Rotational constants in MHz :   525.438195   283.160225   191.751746

                             ****ORCA TERMINATED NORMALLY****
TOTAL RUN TIME: 0 days 0 hours 0 minutes 20 seconds 498 msec
