                         Program Version 4.2.1 -  RELEASE  -
|  1> ! wB97X-D3 SP def2-SVP
|  2> %pal
|  3> nprocs 24
|  4> end
|  5>
|  6> * xyz 0 1
|  7> S 	 -119.35 	 26.2566 	 -18.3413
|  8> C 	 -119.071 	 25.8229 	 -20.0239
|  9> C 	 -117.767 	 26.0725 	 -20.4184
| 10> C 	 -117.024 	 26.7474 	 -19.4408
| 11> C 	 -117.67 	 26.8812 	 -18.2516
| 12> H 	 -116.049 	 27.1094 	 -19.5694
| 13> C 	 -117.146 	 25.7553 	 -21.7301
| 14> H 	 -116.168 	 26.2509 	 -21.8074
| 15> H 	 -117.712 	 26.21 	 -22.6058
| 16> C 	 -116.925 	 24.3715 	 -22.0611
| 17> H 	 -116.409 	 23.9173 	 -21.2413
| 18> H 	 -117.928 	 24.0048 	 -22.2639
| 19> C 	 -116.09 	 24.1775 	 -23.2612
| 20> H 	 -116.374 	 24.8108 	 -24.0556
| 21> H 	 -114.997 	 24.2599 	 -23.1235
| 22> H 	 -116.187 	 23.2116 	 -23.6907
| 23> S 	 -117.491 	 26.7098 	 -15.4407
| 24> C 	 -116.277 	 27.6597 	 -14.6748
| 25> C 	 -115.703 	 28.5834 	 -15.5206
| 26> C 	 -116.25 	 28.5759 	 -16.864
| 27> C 	 -117.188 	 27.5096 	 -17.0372
| 28> H 	 -114.888 	 29.2089 	 -15.2142
| 29> C 	 -115.616 	 29.5332 	 -17.8267
| 30> H 	 -116.307 	 29.6538 	 -18.6591
| 31> H 	 -114.821 	 28.9363 	 -18.225
| 32> C 	 -115.013 	 30.9137 	 -17.3397
| 33> H 	 -114.597 	 31.1868 	 -18.3401
| 34> H 	 -114.092 	 30.9075 	 -16.6869
| 35> C 	 -116.108 	 31.85 	 -16.7499
| 36> H 	 -115.722 	 32.8399 	 -16.7606
| 37> H 	 -116.406 	 31.5072 	 -15.7014
| 38> H 	 -117.082 	 31.8391 	 -17.0706
| 39> H 	 -119.796 	 25.3378 	 -20.6601
| 40> H 	 -115.884 	 27.5728 	 -13.6293
| 41> *
| 42>
| 43>                          ****END OF INPUT****

CARTESIAN COORDINATES (ANGSTROEM)
---------------------------------
  S    -119.350000   26.256600  -18.341300
  C    -119.071000   25.822900  -20.023900
  C    -117.767000   26.072500  -20.418400
  C    -117.024000   26.747400  -19.440800
  C    -117.670000   26.881200  -18.251600
  H    -116.049000   27.109400  -19.569400
  C    -117.146000   25.755300  -21.730100
  H    -116.168000   26.250900  -21.807400
  H    -117.712000   26.210000  -22.605800
  C    -116.925000   24.371500  -22.061100
  H    -116.409000   23.917300  -21.241300
  H    -117.928000   24.004800  -22.263900
  C    -116.090000   24.177500  -23.261200
  H    -116.374000   24.810800  -24.055600
  H    -114.997000   24.259900  -23.123500
  H    -116.187000   23.211600  -23.690700
  S    -117.491000   26.709800  -15.440700
  C    -116.277000   27.659700  -14.674800
  C    -115.703000   28.583400  -15.520600
  C    -116.250000   28.575900  -16.864000
  C    -117.188000   27.509600  -17.037200
  H    -114.888000   29.208900  -15.214200
  C    -115.616000   29.533200  -17.826700
  H    -116.307000   29.653800  -18.659100
  H    -114.821000   28.936300  -18.225000
  C    -115.013000   30.913700  -17.339700
  H    -114.597000   31.186800  -18.340100
  H    -114.092000   30.907500  -16.686900
  C    -116.108000   31.850000  -16.749900
  H    -115.722000   32.839900  -16.760600
  H    -116.406000   31.507200  -15.701400
  H    -117.082000   31.839100  -17.070600
  H    -119.796000   25.337800  -20.660100
  H    -115.884000   27.572800  -13.629300

 Total Charge           Charge          ....    0
 Multiplicity           Mult            ....    1
 Number of Electrons    NEL             ....  134
 Basis Dimension        Dim             ....  322

ORBITAL ENERGIES
----------------

  NO   OCC          E(Eh)            E(eV)
   0   2.0000     -88.966160     -2420.8923
   1   2.0000     -88.965836     -2420.8835
   2   2.0000     -10.331748      -281.1412
   3   2.0000     -10.329812      -281.0885
   4   2.0000     -10.318187      -280.7722
   5   2.0000     -10.314015      -280.6586
   6   2.0000     -10.307947      -280.4935
   7   2.0000     -10.307357      -280.4774
   8   2.0000     -10.295665      -280.1593
   9   2.0000     -10.295444      -280.1533
  10   2.0000     -10.288835      -279.9734
  11   2.0000     -10.286303      -279.9045
  12   2.0000     -10.284857      -279.8652
  13   2.0000     -10.276835      -279.6469
  14   2.0000     -10.272792      -279.5369
  15   2.0000     -10.268458      -279.4189
  16   2.0000      -8.080159      -219.8723
  17   2.0000      -8.080019      -219.8685
  18   2.0000      -6.038738      -164.3224
  19   2.0000      -6.038654      -164.3201
  20   2.0000      -6.034895      -164.2178
  21   2.0000      -6.034623      -164.2104
  22   2.0000      -6.030780      -164.1059
  23   2.0000      -6.030667      -164.1028
  24   2.0000      -1.001699       -27.2576
  25   2.0000      -0.979598       -26.6562
  26   2.0000      -0.931036       -25.3348
  27   2.0000      -0.906766       -24.6743
  28   2.0000      -0.869952       -23.6726
  29   2.0000      -0.856398       -23.3038
  30   2.0000      -0.844596       -22.9826
  31   2.0000      -0.814100       -22.1528
  32   2.0000      -0.789049       -21.4711
  33   2.0000      -0.773283       -21.0421
  34   2.0000      -0.715883       -19.4802
  35   2.0000      -0.703315       -19.1382
  36   2.0000      -0.692081       -18.8325
  37   2.0000      -0.655816       -17.8457
  38   2.0000      -0.640931       -17.4406
  39   2.0000      -0.624598       -16.9962
  40   2.0000      -0.593657       -16.1542
  41   2.0000      -0.584390       -15.9021
  42   2.0000      -0.567970       -15.4553
  43   2.0000      -0.554360       -15.0849
  44   2.0000      -0.533515       -14.5177
  45   2.0000      -0.525189       -14.2911
  46   2.0000      -0.520223       -14.1560
  47   2.0000      -0.516399       -14.0519
  48   2.0000      -0.508517       -13.8374
  49   2.0000      -0.499354       -13.5881
  50   2.0000      -0.495685       -13.4883
  51   2.0000      -0.476724       -12.9723
  52   2.0000      -0.471066       -12.8183
  53   2.0000      -0.463301       -12.6071
  54   2.0000      -0.459003       -12.4901
  55   2.0000      -0.455062       -12.3829
  56   2.0000      -0.445974       -12.1356
  57   2.0000      -0.437318       -11.9000
  58   2.0000      -0.431357       -11.7378
  59   2.0000      -0.424783       -11.5589
  60   2.0000      -0.421118       -11.4592
  61   2.0000      -0.411012       -11.1842
  62   2.0000      -0.406387       -11.0584
  63   2.0000      -0.351995        -9.5783
  64   2.0000      -0.334373        -9.0987
  65   2.0000      -0.325802        -8.8655
  66   2.0000      -0.280406        -7.6302
  67   0.0000       0.023879         0.6498
  68   0.0000       0.069901         1.9021
  69   0.0000       0.103108         2.8057
  70   0.0000       0.123622         3.3639
  71   0.0000       0.136913         3.7256

MULLIKEN ATOMIC CHARGES
-----------------------
   0 S :    0.100693
   1 C :   -0.116374
   2 C :   -0.047605
   3 C :    0.014016
   4 C :   -0.121369
   5 H :   -0.016490
   6 C :    0.022836
   7 H :    0.003702
   8 H :    0.030617
   9 C :   -0.019435
  10 H :    0.023267
  11 H :    0.018108
  12 C :   -0.020086
  13 H :    0.005635
  14 H :    0.032042
  15 H :    0.017015
  16 S :    0.103472
  17 C :   -0.088910
  18 C :   -0.051692
  19 C :   -0.052126
  20 C :   -0.138784
  21 H :    0.012766
  22 C :    0.028052
  23 H :    0.035906
  24 H :    0.042537
  25 C :   -0.086694
  26 H :    0.038129
  27 H :    0.048067
  28 C :   -0.021864
  29 H :    0.039070
  30 H :    0.034114
  31 H :    0.016510
  32 H :    0.042644
  33 H :    0.072231
Sum of atomic charges:    0.0000000

LOEWDIN ATOMIC CHARGES
----------------------
   0 S :    0.380824
   1 C :   -0.187466
   2 C :   -0.062207
   3 C :   -0.057181
   4 C :   -0.170329
   5 H :    0.024176
   6 C :   -0.041090
   7 H :    0.025157
   8 H :    0.034900
   9 C :   -0.041920
  10 H :    0.026435
  11 H :    0.025290
  12 C :   -0.062152
  13 H :    0.017615
  14 H :    0.029614
  15 H :    0.024651
  16 S :    0.391024
  17 C :   -0.200119
  18 C :   -0.077853
  19 C :   -0.047581
  20 C :   -0.195088
  21 H :    0.026976
  22 C :   -0.039260
  23 H :    0.033821
  24 H :    0.034175
  25 C :   -0.041140
  26 H :    0.033250
  27 H :    0.031592
  28 C :   -0.068558
  29 H :    0.024708
  30 H :    0.040675
  31 H :    0.017793
  32 H :    0.025593
  33 H :    0.043675

  Mayer bond orders larger than 0.100000
B(  0-S ,  1-C ) :   1.1295 B(  0-S ,  4-C ) :   1.1318 B(  1-C ,  2-C ) :   1.6117
B(  1-C , 32-H ) :   0.9689 B(  2-C ,  3-C ) :   1.2412 B(  2-C ,  6-C ) :   1.0242
B(  3-C ,  4-C ) :   1.5798 B(  3-C ,  5-H ) :   1.0057 B(  4-C , 20-C ) :   1.0619
B(  6-C ,  7-H ) :   0.9405 B(  6-C ,  8-H ) :   0.9247 B(  6-C ,  9-C ) :   1.0838
B(  9-C , 10-H ) :   0.9482 B(  9-C , 11-H ) :   0.9457 B(  9-C , 12-C ) :   1.1078
B( 12-C , 13-H ) :   0.9649 B( 12-C , 14-H ) :   0.9691 B( 12-C , 15-H ) :   0.9666
B( 16-S , 17-C ) :   1.1556 B( 16-S , 20-C ) :   1.1134 B( 17-C , 18-C ) :   1.6199
B( 17-C , 33-H ) :   0.9556 B( 18-C , 19-C ) :   1.2409 B( 18-C , 21-H ) :   0.9861
B( 19-C , 20-C ) :   1.5711 B( 19-C , 22-C ) :   1.0346 B( 22-C , 23-H ) :   0.9361
B( 22-C , 24-H ) :   0.9226 B( 22-C , 25-C ) :   1.0635 B( 25-C , 26-H ) :   0.9547
B( 25-C , 27-H ) :   0.9509 B( 25-C , 28-C ) :   1.0599 B( 28-C , 29-H ) :   0.9781
B( 28-C , 30-H ) :   0.9664 B( 28-C , 31-H ) :   0.9769

Dispersion correction           -0.013684745
FINAL SINGLE POINT ENERGY     -1339.849306831017

DIPOLE MOMENT
-------------
                                X             Y             Z
Electronic contribution:    -14.86696      -7.89317      18.98221
Nuclear contribution   :     15.54374       8.15833     -19.44312
                        -----------------------------------------
Total Dipole Moment    :      0.67678       0.26516      -0.46091
                        -----------------------------------------
Magnitude (a.u.)       :      0.86069
Magnitude (Debye)      :      2.18770

Rotational constants in cm-1:     0.020075     0.007318     0.006159
Rotational constants in MHz :   601.819166   219.397693   184.634200

                             ****ORCA TERMINATED NORMALLY****
TOTAL RUN TIME: 0 days 0 hours 0 minutes 21 seconds 94 msec
