                         Program Version 4.2.1 -  RELEASE  -
|  1> ! wB97X-D3 SP def2-SVP
|  2> %pal
|  3> nprocs 24
|  4> end
|  5>
|  6> * xyz 0 1
|  7> S 	 -75.7308 	 -3.57108 	 1.39017
|  8> C 	 -74.404 	 -3.11011 	 2.40748
|  9> C 	 -73.4276 	 -4.04936 	 2.40884
| 10> C 	 -73.9303 	 -5.23217 	 1.75181
| 11> C 	 -75.1928 	 -5.18403 	 1.2733
| 12> H 	 -73.3159 	 -6.14528 	 1.71032
| 13> C 	 -72.0215 	 -3.87541 	 3.03123
| 14> H 	 -71.6851 	 -2.85341 	 2.77169
| 15> H 	 -71.1998 	 -4.51448 	 2.68526
| 16> C 	 -72.0403 	 -3.84763 	 4.59168
| 17> H 	 -71.1357 	 -3.57429 	 5.00215
| 18> H 	 -72.8003 	 -3.1581 	 4.98335
| 19> C 	 -72.426 	 -5.28682 	 5.0199
| 20> H 	 -72.2514 	 -5.51017 	 6.10081
| 21> H 	 -73.4505 	 -5.47366 	 4.8432
| 22> H 	 -71.9226 	 -6.07958 	 4.51971
| 23> S 	 -75.5133 	 -6.73761 	 -1.02397
| 24> C 	 -76.793 	 -7.92124 	 -1.02349
| 25> C 	 -77.3179 	 -8.15609 	 0.242461
| 26> C 	 -76.8028 	 -7.21759 	 1.23312
| 27> C 	 -75.8572 	 -6.34593 	 0.657814
| 28> H 	 -78.0907 	 -8.90786 	 0.417543
| 29> C 	 -77.4067 	 -7.22458 	 2.59318
| 30> H 	 -78.3721 	 -7.76581 	 2.58533
| 31> H 	 -77.6102 	 -6.15469 	 2.88898
| 32> C 	 -76.4118 	 -7.68461 	 3.66211
| 33> H 	 -75.472 	 -7.23014 	 3.40755
| 34> H 	 -76.2384 	 -8.7935 	 3.50099
| 35> C 	 -76.8214 	 -7.24314 	 5.05768
| 36> H 	 -77.6226 	 -7.81689 	 5.44241
| 37> H 	 -77.0223 	 -6.18138 	 5.02204
| 38> H 	 -75.9787 	 -7.47111 	 5.73315
| 39> H 	 -74.2258 	 -2.15447 	 2.88862
| 40> H 	 -77.0944 	 -8.37367 	 -1.91048
| 41> *
| 42>
| 43>                          ****END OF INPUT****

CARTESIAN COORDINATES (ANGSTROEM)
---------------------------------
  S    -75.730800   -3.571080    1.390170
  C    -74.404000   -3.110110    2.407480
  C    -73.427600   -4.049360    2.408840
  C    -73.930300   -5.232170    1.751810
  C    -75.192800   -5.184030    1.273300
  H    -73.315900   -6.145280    1.710320
  C    -72.021500   -3.875410    3.031230
  H    -71.685100   -2.853410    2.771690
  H    -71.199800   -4.514480    2.685260
  C    -72.040300   -3.847630    4.591680
  H    -71.135700   -3.574290    5.002150
  H    -72.800300   -3.158100    4.983350
  C    -72.426000   -5.286820    5.019900
  H    -72.251400   -5.510170    6.100810
  H    -73.450500   -5.473660    4.843200
  H    -71.922600   -6.079580    4.519710
  S    -75.513300   -6.737610   -1.023970
  C    -76.793000   -7.921240   -1.023490
  C    -77.317900   -8.156090    0.242461
  C    -76.802800   -7.217590    1.233120
  C    -75.857200   -6.345930    0.657814
  H    -78.090700   -8.907860    0.417543
  C    -77.406700   -7.224580    2.593180
  H    -78.372100   -7.765810    2.585330
  H    -77.610200   -6.154690    2.888980
  C    -76.411800   -7.684610    3.662110
  H    -75.472000   -7.230140    3.407550
  H    -76.238400   -8.793500    3.500990
  C    -76.821400   -7.243140    5.057680
  H    -77.622600   -7.816890    5.442410
  H    -77.022300   -6.181380    5.022040
  H    -75.978700   -7.471110    5.733150
  H    -74.225800   -2.154470    2.888620
  H    -77.094400   -8.373670   -1.910480

 Total Charge           Charge          ....    0
 Multiplicity           Mult            ....    1
 Number of Electrons    NEL             ....  134
 Basis Dimension        Dim             ....  322

ORBITAL ENERGIES
----------------

  NO   OCC          E(Eh)            E(eV)
   0   2.0000     -88.966488     -2420.9012
   1   2.0000     -88.965902     -2420.8853
   2   2.0000     -10.327924      -281.0371
   3   2.0000     -10.321637      -280.8660
   4   2.0000     -10.314354      -280.6678
   5   2.0000     -10.310734      -280.5693
   6   2.0000     -10.306119      -280.4437
   7   2.0000     -10.300989      -280.3042
   8   2.0000     -10.300672      -280.2955
   9   2.0000     -10.297060      -280.1972
  10   2.0000     -10.290753      -280.0256
  11   2.0000     -10.289544      -279.9927
  12   2.0000     -10.286132      -279.8999
  13   2.0000     -10.281760      -279.7809
  14   2.0000     -10.272392      -279.5260
  15   2.0000     -10.269236      -279.4401
  16   2.0000      -8.082044      -219.9236
  17   2.0000      -8.080649      -219.8856
  18   2.0000      -6.040582      -164.3726
  19   2.0000      -6.039080      -164.3317
  20   2.0000      -6.036500      -164.2615
  21   2.0000      -6.035159      -164.2250
  22   2.0000      -6.032625      -164.1561
  23   2.0000      -6.031511      -164.1258
  24   2.0000      -1.012011       -27.5382
  25   2.0000      -0.984782       -26.7973
  26   2.0000      -0.911432       -24.8013
  27   2.0000      -0.910669       -24.7806
  28   2.0000      -0.868175       -23.6242
  29   2.0000      -0.850503       -23.1434
  30   2.0000      -0.842538       -22.9266
  31   2.0000      -0.812228       -22.1019
  32   2.0000      -0.782165       -21.2838
  33   2.0000      -0.771535       -20.9945
  34   2.0000      -0.708315       -19.2742
  35   2.0000      -0.703436       -19.1415
  36   2.0000      -0.687220       -18.7002
  37   2.0000      -0.662988       -18.0408
  38   2.0000      -0.639291       -17.3960
  39   2.0000      -0.614485       -16.7210
  40   2.0000      -0.597270       -16.2525
  41   2.0000      -0.579752       -15.7758
  42   2.0000      -0.567488       -15.4421
  43   2.0000      -0.547192       -14.8898
  44   2.0000      -0.540802       -14.7160
  45   2.0000      -0.518210       -14.1012
  46   2.0000      -0.515094       -14.0164
  47   2.0000      -0.510711       -13.8972
  48   2.0000      -0.503093       -13.6899
  49   2.0000      -0.499151       -13.5826
  50   2.0000      -0.488348       -13.2886
  51   2.0000      -0.482906       -13.1405
  52   2.0000      -0.469690       -12.7809
  53   2.0000      -0.465082       -12.6555
  54   2.0000      -0.460514       -12.5312
  55   2.0000      -0.445344       -12.1184
  56   2.0000      -0.441762       -12.0210
  57   2.0000      -0.437396       -11.9022
  58   2.0000      -0.429490       -11.6870
  59   2.0000      -0.427449       -11.6315
  60   2.0000      -0.422694       -11.5021
  61   2.0000      -0.418110       -11.3773
  62   2.0000      -0.415854       -11.3160
  63   2.0000      -0.331751        -9.0274
  64   2.0000      -0.328495        -8.9388
  65   2.0000      -0.322641        -8.7795
  66   2.0000      -0.309630        -8.4255
  67   0.0000       0.045578         1.2402
  68   0.0000       0.053617         1.4590
  69   0.0000       0.110077         2.9953
  70   0.0000       0.123381         3.3574
  71   0.0000       0.124575         3.3899

MULLIKEN ATOMIC CHARGES
-----------------------
   0 S :    0.132225
   1 C :   -0.129248
   2 C :   -0.074699
   3 C :    0.020069
   4 C :   -0.157955
   5 H :    0.015863
   6 C :    0.038753
   7 H :    0.026080
   8 H :    0.039071
   9 C :   -0.028962
  10 H :    0.014554
  11 H :    0.031124
  12 C :   -0.060950
  13 H :    0.029176
  14 H :    0.033166
  15 H :    0.014049
  16 S :    0.119506
  17 C :   -0.077086
  18 C :   -0.031690
  19 C :   -0.018461
  20 C :   -0.194871
  21 H :    0.025920
  22 C :    0.060354
  23 H :    0.028845
  24 H :    0.025802
  25 C :   -0.101876
  26 H :    0.025684
  27 H :    0.030115
  28 C :   -0.006704
  29 H :    0.023863
  30 H :    0.036471
  31 H :    0.033885
  32 H :    0.042322
  33 H :    0.035606
Sum of atomic charges:    0.0000000

LOEWDIN ATOMIC CHARGES
----------------------
   0 S :    0.430848
   1 C :   -0.197773
   2 C :   -0.065951
   3 C :   -0.064896
   4 C :   -0.223871
   5 H :    0.030535
   6 C :   -0.028321
   7 H :    0.031040
   8 H :    0.033184
   9 C :   -0.026204
  10 H :    0.011073
  11 H :    0.026769
  12 C :   -0.067708
  13 H :    0.026785
  14 H :    0.020530
  15 H :    0.017058
  16 S :    0.407818
  17 C :   -0.172811
  18 C :   -0.070112
  19 C :   -0.043594
  20 C :   -0.203291
  21 H :    0.033579
  22 C :   -0.038370
  23 H :    0.031039
  24 H :    0.035651
  25 C :   -0.043014
  26 H :    0.021002
  27 H :    0.027097
  28 C :   -0.059458
  29 H :    0.019619
  30 H :    0.027076
  31 H :    0.031113
  32 H :    0.029838
  33 H :    0.013721

  Mayer bond orders larger than 0.100000
B(  0-S ,  1-C ) :   1.1514 B(  0-S ,  4-C ) :   1.1424 B(  1-C ,  2-C ) :   1.6216
B(  1-C , 32-H ) :   0.9619 B(  2-C ,  3-C ) :   1.2454 B(  2-C ,  6-C ) :   1.0061
B(  3-C ,  4-C ) :   1.5844 B(  3-C ,  5-H ) :   0.9933 B(  4-C , 20-C ) :   1.0192
B(  6-C ,  7-H ) :   0.9401 B(  6-C ,  8-H ) :   0.9556 B(  6-C ,  9-C ) :   1.0781
B(  9-C , 10-H ) :   0.9597 B(  9-C , 11-H ) :   0.9580 B(  9-C , 12-C ) :   1.0621
B( 12-C , 13-H ) :   0.9743 B( 12-C , 14-H ) :   0.9768 B( 12-C , 15-H ) :   0.9766
B( 16-S , 17-C ) :   1.1635 B( 16-S , 20-C ) :   1.1435 B( 17-C , 18-C ) :   1.6023
B( 17-C , 33-H ) :   0.9766 B( 18-C , 19-C ) :   1.2355 B( 18-C , 21-H ) :   0.9871
B( 19-C , 20-C ) :   1.5948 B( 19-C , 22-C ) :   1.0550 B( 22-C , 23-H ) :   0.9359
B( 22-C , 24-H ) :   0.9264 B( 22-C , 25-C ) :   1.0543 B( 25-C , 26-H ) :   0.9590
B( 25-C , 27-H ) :   0.9473 B( 25-C , 28-C ) :   1.0854 B( 28-C , 29-H ) :   0.9733
B( 28-C , 30-H ) :   0.9714 B( 28-C , 31-H ) :   0.9714

Dispersion correction           -0.015635289
FINAL SINGLE POINT ENERGY     -1339.875522747270

DIPOLE MOMENT
-------------
                                X             Y             Z
Electronic contribution:     -7.15595       4.98499     -26.70114
Nuclear contribution   :      7.33228      -5.13969      27.12064
                        -----------------------------------------
Total Dipole Moment    :      0.17633      -0.15470       0.41950
                        -----------------------------------------
Magnitude (a.u.)       :      0.48063
Magnitude (Debye)      :      1.22166

Rotational constants in cm-1:     0.018857     0.009534     0.007651
Rotational constants in MHz :   565.320838   285.811097   229.358962

                             ****ORCA TERMINATED NORMALLY****
TOTAL RUN TIME: 0 days 0 hours 0 minutes 22 seconds 712 msec
