                         Program Version 4.2.1 -  RELEASE  -
|  1> ! wB97X-D3 SP def2-SVP
|  2> %pal
|  3> nprocs 24
|  4> end
|  5>
|  6> * xyz 0 1
|  7> S 	 -77.906 	 -5.62407 	 5.48577
|  8> C 	 -76.2166 	 -5.16555 	 5.50992
|  9> C 	 -75.505 	 -5.93439 	 4.61752
| 10> C 	 -76.3041 	 -6.9302 	 3.99081
| 11> C 	 -77.6208 	 -7.01298 	 4.46122
| 12> H 	 -75.9373 	 -7.65607 	 3.21291
| 13> C 	 -74.0368 	 -5.66102 	 4.28405
| 14> H 	 -74.0339 	 -4.7084 	 3.85446
| 15> H 	 -73.8008 	 -6.45441 	 3.52446
| 16> C 	 -73.0826 	 -5.78875 	 5.50566
| 17> H 	 -72.1221 	 -5.48455 	 5.17025
| 18> H 	 -73.4725 	 -5.00415 	 6.14969
| 19> C 	 -73.2342 	 -7.16831 	 6.24546
| 20> H 	 -74.213 	 -7.23156 	 6.69366
| 21> H 	 -72.9711 	 -8.00949 	 5.59712
| 22> H 	 -72.5114 	 -7.15778 	 7.03242
| 23> S 	 -80.2958 	 -7.34614 	 3.83721
| 24> C 	 -80.8705 	 -8.82685 	 3.11822
| 25> C 	 -79.8698 	 -9.75561 	 3.01487
| 26> C 	 -78.585 	 -9.26372 	 3.5529
| 27> C 	 -78.7069 	 -7.94618 	 4.03724
| 28> H 	 -80.083 	 -10.6998 	 2.51043
| 29> C 	 -77.3979 	 -10.103 	 3.57385
| 30> H 	 -77.7792 	 -11.0394 	 4.04197
| 31> H 	 -76.6999 	 -9.68346 	 4.26208
| 32> C 	 -76.7251 	 -10.3156 	 2.20311
| 33> H 	 -76.3632 	 -9.42536 	 1.65157
| 34> H 	 -77.3399 	 -10.9099 	 1.52606
| 35> C 	 -75.3976 	 -11.1691 	 2.38499
| 36> H 	 -75.6859 	 -12.1044 	 2.82019
| 37> H 	 -74.7669 	 -10.6869 	 3.15059
| 38> H 	 -74.9197 	 -11.564 	 1.46724
| 39> H 	 -75.8354 	 -4.16896 	 5.79058
| 40> H 	 -81.9044 	 -9.0588 	 2.85229
| 41> *
| 42>
| 43>                          ****END OF INPUT****

CARTESIAN COORDINATES (ANGSTROEM)
---------------------------------
  S    -77.906000   -5.624070    5.485770
  C    -76.216600   -5.165550    5.509920
  C    -75.505000   -5.934390    4.617520
  C    -76.304100   -6.930200    3.990810
  C    -77.620800   -7.012980    4.461220
  H    -75.937300   -7.656070    3.212910
  C    -74.036800   -5.661020    4.284050
  H    -74.033900   -4.708400    3.854460
  H    -73.800800   -6.454410    3.524460
  C    -73.082600   -5.788750    5.505660
  H    -72.122100   -5.484550    5.170250
  H    -73.472500   -5.004150    6.149690
  C    -73.234200   -7.168310    6.245460
  H    -74.213000   -7.231560    6.693660
  H    -72.971100   -8.009490    5.597120
  H    -72.511400   -7.157780    7.032420
  S    -80.295800   -7.346140    3.837210
  C    -80.870500   -8.826850    3.118220
  C    -79.869800   -9.755610    3.014870
  C    -78.585000   -9.263720    3.552900
  C    -78.706900   -7.946180    4.037240
  H    -80.083000  -10.699800    2.510430
  C    -77.397900  -10.103000    3.573850
  H    -77.779200  -11.039400    4.041970
  H    -76.699900   -9.683460    4.262080
  C    -76.725100  -10.315600    2.203110
  H    -76.363200   -9.425360    1.651570
  H    -77.339900  -10.909900    1.526060
  C    -75.397600  -11.169100    2.384990
  H    -75.685900  -12.104400    2.820190
  H    -74.766900  -10.686900    3.150590
  H    -74.919700  -11.564000    1.467240
  H    -75.835400   -4.168960    5.790580
  H    -81.904400   -9.058800    2.852290

 Total Charge           Charge          ....    0
 Multiplicity           Mult            ....    1
 Number of Electrons    NEL             ....  134
 Basis Dimension        Dim             ....  322

ORBITAL ENERGIES
----------------

  NO   OCC          E(Eh)            E(eV)
   0   2.0000     -88.966127     -2420.8914
   1   2.0000     -88.965640     -2420.8782
   2   2.0000     -10.336684      -281.2755
   3   2.0000     -10.330190      -281.0988
   4   2.0000     -10.318657      -280.7849
   5   2.0000     -10.311883      -280.6006
   6   2.0000     -10.306361      -280.4503
   7   2.0000     -10.299313      -280.2586
   8   2.0000     -10.298811      -280.2449
   9   2.0000     -10.298066      -280.2246
  10   2.0000     -10.296602      -280.1848
  11   2.0000     -10.291559      -280.0475
  12   2.0000     -10.290123      -280.0085
  13   2.0000     -10.287993      -279.9505
  14   2.0000     -10.281280      -279.7678
  15   2.0000     -10.276847      -279.6472
  16   2.0000      -8.081251      -219.9020
  17   2.0000      -8.080675      -219.8863
  18   2.0000      -6.039813      -164.3517
  19   2.0000      -6.039212      -164.3353
  20   2.0000      -6.035613      -164.2374
  21   2.0000      -6.035175      -164.2255
  22   2.0000      -6.031929      -164.1371
  23   2.0000      -6.031450      -164.1241
  24   2.0000      -1.007460       -27.4144
  25   2.0000      -0.986339       -26.8396
  26   2.0000      -0.913906       -24.8686
  27   2.0000      -0.909161       -24.7395
  28   2.0000      -0.866042       -23.5662
  29   2.0000      -0.850420       -23.1411
  30   2.0000      -0.840915       -22.8825
  31   2.0000      -0.816606       -22.2210
  32   2.0000      -0.782988       -21.3062
  33   2.0000      -0.769972       -20.9520
  34   2.0000      -0.707785       -19.2598
  35   2.0000      -0.705864       -19.2075
  36   2.0000      -0.694916       -18.9096
  37   2.0000      -0.661198       -17.9921
  38   2.0000      -0.629599       -17.1323
  39   2.0000      -0.616535       -16.7768
  40   2.0000      -0.594033       -16.1644
  41   2.0000      -0.573359       -15.6019
  42   2.0000      -0.565231       -15.3807
  43   2.0000      -0.552505       -15.0344
  44   2.0000      -0.543264       -14.7830
  45   2.0000      -0.529644       -14.4124
  46   2.0000      -0.516555       -14.0562
  47   2.0000      -0.509699       -13.8696
  48   2.0000      -0.504102       -13.7173
  49   2.0000      -0.501459       -13.6454
  50   2.0000      -0.488227       -13.2853
  51   2.0000      -0.477570       -12.9953
  52   2.0000      -0.472092       -12.8463
  53   2.0000      -0.465215       -12.6591
  54   2.0000      -0.458617       -12.4796
  55   2.0000      -0.450698       -12.2641
  56   2.0000      -0.445131       -12.1126
  57   2.0000      -0.436327       -11.8731
  58   2.0000      -0.431629       -11.7452
  59   2.0000      -0.427566       -11.6347
  60   2.0000      -0.423721       -11.5300
  61   2.0000      -0.418857       -11.3977
  62   2.0000      -0.409627       -11.1465
  63   2.0000      -0.355975        -9.6866
  64   2.0000      -0.331906        -9.0316
  65   2.0000      -0.325116        -8.8469
  66   2.0000      -0.289495        -7.8776
  67   0.0000       0.022647         0.6162
  68   0.0000       0.081609         2.2207
  69   0.0000       0.105211         2.8629
  70   0.0000       0.118766         3.2318
  71   0.0000       0.128223         3.4891

MULLIKEN ATOMIC CHARGES
-----------------------
   0 S :    0.100001
   1 C :   -0.119304
   2 C :   -0.149350
   3 C :    0.010310
   4 C :   -0.146604
   5 H :    0.018808
   6 C :    0.070975
   7 H :    0.030781
   8 H :    0.020994
   9 C :   -0.064674
  10 H :    0.026186
  11 H :    0.019939
  12 C :   -0.031995
  13 H :    0.054814
  14 H :    0.034880
  15 H :    0.025768
  16 S :    0.104160
  17 C :   -0.091964
  18 C :   -0.034229
  19 C :   -0.067526
  20 C :   -0.100697
  21 H :    0.026212
  22 C :    0.051693
  23 H :    0.041201
  24 H :    0.016448
  25 C :   -0.087701
  26 H :    0.051954
  27 H :    0.028770
  28 C :   -0.052529
  29 H :    0.007652
  30 H :    0.035070
  31 H :    0.042869
  32 H :    0.064492
  33 H :    0.062597
Sum of atomic charges:   -0.0000000

LOEWDIN ATOMIC CHARGES
----------------------
   0 S :    0.406227
   1 C :   -0.215590
   2 C :   -0.065940
   3 C :   -0.078118
   4 C :   -0.187628
   5 H :    0.036971
   6 C :   -0.026643
   7 H :    0.023847
   8 H :    0.029016
   9 C :   -0.031246
  10 H :    0.018001
  11 H :    0.021872
  12 C :   -0.056681
  13 H :    0.031456
  14 H :    0.025735
  15 H :    0.023049
  16 S :    0.419026
  17 C :   -0.187807
  18 C :   -0.071841
  19 C :   -0.052998
  20 C :   -0.213256
  21 H :    0.034630
  22 C :   -0.039010
  23 H :    0.044403
  24 H :    0.026659
  25 C :   -0.034906
  26 H :    0.027614
  27 H :    0.023137
  28 C :   -0.074791
  29 H :    0.017667
  30 H :    0.025639
  31 H :    0.030797
  32 H :    0.035504
  33 H :    0.035204

  Mayer bond orders larger than 0.100000
B(  0-S ,  1-C ) :   1.1363 B(  0-S ,  4-C ) :   1.1705 B(  1-C ,  2-C ) :   1.5945
B(  1-C ,  4-C ) :   0.1028 B(  1-C , 32-H ) :   0.9579 B(  2-C ,  3-C ) :   1.2883
B(  2-C ,  6-C ) :   0.9965 B(  3-C ,  4-C ) :   1.5311 B(  3-C ,  5-H ) :   0.9789
B(  4-C , 20-C ) :   1.0396 B(  6-C ,  7-H ) :   0.9414 B(  6-C ,  8-H ) :   0.9456
B(  6-C ,  9-C ) :   1.0707 B(  9-C , 10-H ) :   0.9611 B(  9-C , 11-H ) :   0.9544
B(  9-C , 12-C ) :   1.0686 B( 12-C , 13-H ) :   0.9696 B( 12-C , 14-H ) :   0.9793
B( 12-C , 15-H ) :   0.9747 B( 16-S , 17-C ) :   1.1511 B( 16-S , 20-C ) :   1.1406
B( 17-C , 18-C ) :   1.6309 B( 17-C , 33-H ) :   0.9645 B( 18-C , 19-C ) :   1.2180
B( 18-C , 21-H ) :   0.9893 B( 19-C , 20-C ) :   1.5826 B( 19-C , 22-C ) :   1.0687
B( 22-C , 23-H ) :   0.9261 B( 22-C , 24-H ) :   0.9324 B( 22-C , 25-C ) :   1.0533
B( 25-C , 26-H ) :   0.9585 B( 25-C , 27-H ) :   0.9548 B( 25-C , 28-C ) :   1.0746
B( 28-C , 29-H ) :   0.9716 B( 28-C , 30-H ) :   0.9751 B( 28-C , 31-H ) :   0.9746

Dispersion correction           -0.014607639
FINAL SINGLE POINT ENERGY     -1339.876899665728

DIPOLE MOMENT
-------------
                                X             Y             Z
Electronic contribution:    -27.38216      13.13450       3.53149
Nuclear contribution   :     27.83373     -13.52383      -3.89459
                        -----------------------------------------
Total Dipole Moment    :      0.45157      -0.38933      -0.36310
                        -----------------------------------------
Magnitude (a.u.)       :      0.69809
Magnitude (Debye)      :      1.77441

Rotational constants in cm-1:     0.018042     0.009652     0.006673
Rotational constants in MHz :   540.876428   289.349671   200.039887

                             ****ORCA TERMINATED NORMALLY****
TOTAL RUN TIME: 0 days 0 hours 0 minutes 22 seconds 114 msec
