                         Program Version 4.2.1 -  RELEASE  -
|  1> ! wB97X-D3 SP def2-SVP
|  2> %pal
|  3> nprocs 24
|  4> end
|  5>
|  6> * xyz 0 1
|  7> S 	 -142.144 	 7.59605 	 3.92745
|  8> C 	 -142.409 	 6.38739 	 2.73986
|  9> C 	 -141.346 	 5.55829 	 2.45192
| 10> C 	 -140.22 	 5.8823 	 3.27496
| 11> C 	 -140.466 	 7.02634 	 4.00047
| 12> H 	 -139.245 	 5.32709 	 3.27132
| 13> C 	 -141.312 	 4.53732 	 1.41366
| 14> H 	 -140.249 	 4.42179 	 1.08937
| 15> H 	 -141.882 	 4.82621 	 0.512892
| 16> C 	 -141.908 	 3.20079 	 1.81911
| 17> H 	 -141.701 	 3.07638 	 2.84501
| 18> H 	 -142.945 	 3.36588 	 1.80738
| 19> C 	 -141.484 	 1.94807 	 0.988487
| 20> H 	 -140.413 	 2.01495 	 1.01471
| 21> H 	 -141.839 	 0.986871 	 1.33862
| 22> H 	 -141.807 	 2.13679 	 -0.0927476
| 23> S 	 -139.395 	 9.4873 	 4.58834
| 24> C 	 -137.973 	 9.62375 	 5.62321
| 25> C 	 -137.643 	 8.34345 	 6.14139
| 26> C 	 -138.49 	 7.30526 	 5.70559
| 27> C 	 -139.45 	 7.73395 	 4.78126
| 28> H 	 -136.878 	 8.27361 	 6.83357
| 29> C 	 -138.216 	 5.88528 	 6.06495
| 30> H 	 -137.178 	 5.71984 	 5.94825
| 31> H 	 -138.702 	 5.16515 	 5.34413
| 32> C 	 -138.542 	 5.54458 	 7.50061
| 33> H 	 -138 	 6.24429 	 8.17857
| 34> H 	 -138.036 	 4.65907 	 7.74602
| 35> C 	 -140.075 	 5.52266 	 7.82175
| 36> H 	 -140.471 	 6.53277 	 7.70629
| 37> H 	 -140.177 	 5.06775 	 8.7518
| 38> H 	 -140.636 	 4.83749 	 7.24271
| 39> H 	 -143.272 	 6.36608 	 2.10612
| 40> H 	 -137.527 	 10.5849 	 5.8861
| 41> *
| 42>
| 43>                          ****END OF INPUT****

CARTESIAN COORDINATES (ANGSTROEM)
---------------------------------
  S    -142.144000    7.596050    3.927450
  C    -142.409000    6.387390    2.739860
  C    -141.346000    5.558290    2.451920
  C    -140.220000    5.882300    3.274960
  C    -140.466000    7.026340    4.000470
  H    -139.245000    5.327090    3.271320
  C    -141.312000    4.537320    1.413660
  H    -140.249000    4.421790    1.089370
  H    -141.882000    4.826210    0.512892
  C    -141.908000    3.200790    1.819110
  H    -141.701000    3.076380    2.845010
  H    -142.945000    3.365880    1.807380
  C    -141.484000    1.948070    0.988487
  H    -140.413000    2.014950    1.014710
  H    -141.839000    0.986871    1.338620
  H    -141.807000    2.136790   -0.092748
  S    -139.395000    9.487300    4.588340
  C    -137.973000    9.623750    5.623210
  C    -137.643000    8.343450    6.141390
  C    -138.490000    7.305260    5.705590
  C    -139.450000    7.733950    4.781260
  H    -136.878000    8.273610    6.833570
  C    -138.216000    5.885280    6.064950
  H    -137.178000    5.719840    5.948250
  H    -138.702000    5.165150    5.344130
  C    -138.542000    5.544580    7.500610
  H    -138.000000    6.244290    8.178570
  H    -138.036000    4.659070    7.746020
  C    -140.075000    5.522660    7.821750
  H    -140.471000    6.532770    7.706290
  H    -140.177000    5.067750    8.751800
  H    -140.636000    4.837490    7.242710
  H    -143.272000    6.366080    2.106120
  H    -137.527000   10.584900    5.886100

 Total Charge           Charge          ....    0
 Multiplicity           Mult            ....    1
 Number of Electrons    NEL             ....  134
 Basis Dimension        Dim             ....  322

ORBITAL ENERGIES
----------------

  NO   OCC          E(Eh)            E(eV)
   0   2.0000     -88.971684     -2421.0426
   1   2.0000     -88.964390     -2420.8441
   2   2.0000     -10.330847      -281.1166
   3   2.0000     -10.326065      -280.9865
   4   2.0000     -10.321926      -280.8739
   5   2.0000     -10.306777      -280.4617
   6   2.0000     -10.299819      -280.2723
   7   2.0000     -10.298683      -280.2414
   8   2.0000     -10.296615      -280.1851
   9   2.0000     -10.291687      -280.0510
  10   2.0000     -10.290352      -280.0147
  11   2.0000     -10.285897      -279.8935
  12   2.0000     -10.285470      -279.8819
  13   2.0000     -10.281729      -279.7801
  14   2.0000     -10.276497      -279.6377
  15   2.0000     -10.265704      -279.3440
  16   2.0000      -8.086531      -220.0457
  17   2.0000      -8.078608      -219.8301
  18   2.0000      -6.044953      -164.4915
  19   2.0000      -6.041284      -164.3917
  20   2.0000      -6.037127      -164.2786
  21   2.0000      -6.037031      -164.2760
  22   2.0000      -6.033072      -164.1682
  23   2.0000      -6.029617      -164.0742
  24   2.0000      -1.006810       -27.3967
  25   2.0000      -0.982997       -26.7487
  26   2.0000      -0.918663       -24.9981
  27   2.0000      -0.910299       -24.7705
  28   2.0000      -0.865648       -23.5555
  29   2.0000      -0.855656       -23.2836
  30   2.0000      -0.845266       -23.0009
  31   2.0000      -0.811689       -22.0872
  32   2.0000      -0.785463       -21.3735
  33   2.0000      -0.771468       -20.9927
  34   2.0000      -0.707813       -19.2606
  35   2.0000      -0.706101       -19.2140
  36   2.0000      -0.693738       -18.8776
  37   2.0000      -0.664068       -18.0702
  38   2.0000      -0.639663       -17.4061
  39   2.0000      -0.623593       -16.9688
  40   2.0000      -0.597276       -16.2527
  41   2.0000      -0.569468       -15.4960
  42   2.0000      -0.563219       -15.3260
  43   2.0000      -0.556946       -15.1553
  44   2.0000      -0.538404       -14.6507
  45   2.0000      -0.525385       -14.2965
  46   2.0000      -0.518217       -14.1014
  47   2.0000      -0.505701       -13.7608
  48   2.0000      -0.499043       -13.5797
  49   2.0000      -0.495900       -13.4941
  50   2.0000      -0.489636       -13.3237
  51   2.0000      -0.483997       -13.1702
  52   2.0000      -0.478538       -13.0217
  53   2.0000      -0.461862       -12.5679
  54   2.0000      -0.457904       -12.4602
  55   2.0000      -0.455545       -12.3960
  56   2.0000      -0.446583       -12.1521
  57   2.0000      -0.440501       -11.9866
  58   2.0000      -0.428541       -11.6612
  59   2.0000      -0.425564       -11.5802
  60   2.0000      -0.421348       -11.4655
  61   2.0000      -0.417549       -11.3621
  62   2.0000      -0.413449       -11.2505
  63   2.0000      -0.348214        -9.4754
  64   2.0000      -0.331022        -9.0076
  65   2.0000      -0.329922        -8.9776
  66   2.0000      -0.285723        -7.7749
  67   0.0000       0.027267         0.7420
  68   0.0000       0.068159         1.8547
  69   0.0000       0.108692         2.9577
  70   0.0000       0.116627         3.1736
  71   0.0000       0.129412         3.5215

MULLIKEN ATOMIC CHARGES
-----------------------
   0 S :    0.131488
   1 C :   -0.101441
   2 C :   -0.088678
   3 C :   -0.005207
   4 C :   -0.136427
   5 H :    0.044199
   6 C :    0.040145
   7 H :    0.020927
   8 H :    0.028283
   9 C :   -0.046854
  10 H :    0.012392
  11 H :    0.009121
  12 C :   -0.039882
  13 H :    0.026097
  14 H :    0.047240
  15 H :    0.037408
  16 S :    0.097078
  17 C :   -0.108218
  18 C :   -0.014156
  19 C :   -0.007810
  20 C :   -0.175478
  21 H :   -0.008029
  22 C :    0.068841
  23 H :    0.014003
  24 H :    0.021416
  25 C :   -0.075341
  26 H :    0.019331
  27 H :    0.004287
  28 C :    0.004454
  29 H :    0.051986
  30 H :    0.013953
  31 H :    0.014531
  32 H :    0.033509
  33 H :    0.066831
Sum of atomic charges:   -0.0000000

LOEWDIN ATOMIC CHARGES
----------------------
   0 S :    0.411874
   1 C :   -0.205489
   2 C :   -0.063274
   3 C :   -0.060929
   4 C :   -0.183192
   5 H :    0.042708
   6 C :   -0.036402
   7 H :    0.030790
   8 H :    0.033933
   9 C :   -0.037575
  10 H :    0.015597
  11 H :    0.015208
  12 C :   -0.061671
  13 H :    0.021458
  14 H :    0.027052
  15 H :    0.033111
  16 S :    0.396258
  17 C :   -0.184542
  18 C :   -0.058438
  19 C :   -0.059259
  20 C :   -0.195084
  21 H :    0.017583
  22 C :   -0.033663
  23 H :    0.026960
  24 H :    0.032866
  25 C :   -0.035743
  26 H :    0.025213
  27 H :    0.013984
  28 C :   -0.055299
  29 H :    0.032745
  30 H :    0.019818
  31 H :    0.021304
  32 H :    0.020831
  33 H :    0.031264

  Mayer bond orders larger than 0.100000
B(  0-S ,  1-C ) :   1.1275 B(  0-S ,  4-C ) :   1.1461 B(  1-C ,  2-C ) :   1.6332
B(  1-C , 32-H ) :   0.9593 B(  2-C ,  3-C ) :   1.2284 B(  2-C ,  6-C ) :   1.0468
B(  3-C ,  4-C ) :   1.5869 B(  3-C ,  5-H ) :   0.9786 B(  4-C , 20-C ) :   1.0476
B(  6-C ,  7-H ) :   0.9382 B(  6-C ,  8-H ) :   0.9358 B(  6-C ,  9-C ) :   1.0470
B(  9-C , 10-H ) :   0.9580 B(  9-C , 11-H ) :   0.9529 B(  9-C , 12-C ) :   1.0675
B( 12-C , 13-H ) :   0.9783 B( 12-C , 14-H ) :   0.9760 B( 12-C , 15-H ) :   0.9749
B( 16-S , 17-C ) :   1.1638 B( 16-S , 20-C ) :   1.1477 B( 17-C , 18-C ) :   1.5653
B( 17-C , 20-C ) :   0.1110 B( 17-C , 33-H ) :   0.9700 B( 18-C , 19-C ) :   1.2620
B( 18-C , 21-H ) :   1.0006 B( 19-C , 20-C ) :   1.5505 B( 19-C , 22-C ) :   1.0432
B( 22-C , 23-H ) :   0.9280 B( 22-C , 24-H ) :   0.9342 B( 22-C , 25-C ) :   1.0898
B( 25-C , 26-H ) :   0.9537 B( 25-C , 27-H ) :   0.9511 B( 25-C , 28-C ) :   1.0671
B( 28-C , 29-H ) :   0.9765 B( 28-C , 30-H ) :   0.9712 B( 28-C , 31-H ) :   0.9730

Dispersion correction           -0.014453534
FINAL SINGLE POINT ENERGY     -1339.872607331778

DIPOLE MOMENT
-------------
                                X             Y             Z
Electronic contribution:     -1.87772      26.97070      -0.17632
Nuclear contribution   :      2.15043     -27.51277       0.19443
                        -----------------------------------------
Total Dipole Moment    :      0.27271      -0.54208       0.01812
                        -----------------------------------------
Magnitude (a.u.)       :      0.60708
Magnitude (Debye)      :      1.54308

Rotational constants in cm-1:     0.020200     0.008190     0.006847
Rotational constants in MHz :   605.592988   245.518446   205.278934

                             ****ORCA TERMINATED NORMALLY****
TOTAL RUN TIME: 0 days 0 hours 0 minutes 20 seconds 561 msec
