                         Program Version 4.2.1 -  RELEASE  -
|  1> ! wB97X-D3 SP def2-SVP
|  2> %pal
|  3> nprocs 24
|  4> end
|  5>
|  6> * xyz 0 1
|  7> S 	 -48.9545 	 11.608 	 34.6886
|  8> C 	 -47.5849 	 11.0617 	 33.7803
|  9> C 	 -47.1568 	 11.9249 	 32.7711
| 10> C 	 -48.0274 	 13.0916 	 32.7673
| 11> C 	 -49.0337 	 13.0796 	 33.6671
| 12> H 	 -47.9412 	 13.9833 	 32.2161
| 13> C 	 -46.0991 	 11.6231 	 31.7309
| 14> H 	 -45.7796 	 10.5435 	 31.7348
| 15> H 	 -45.2087 	 12.2414 	 31.9067
| 16> C 	 -46.5145 	 11.8952 	 30.2698
| 17> H 	 -46.5929 	 12.9871 	 30.1689
| 18> H 	 -45.6653 	 11.6281 	 29.6349
| 19> C 	 -47.7086 	 11.1216 	 29.68
| 20> H 	 -47.2663 	 10.0911 	 29.6777
| 21> H 	 -48.6495 	 11.1466 	 30.2399
| 22> H 	 -47.9369 	 11.3179 	 28.6515
| 23> S 	 -51.743 	 13.4991 	 34.0761
| 24> C 	 -52.3257 	 15.1308 	 34.3034
| 25> C 	 -51.3282 	 16.0249 	 33.9988
| 26> C 	 -50.0307 	 15.4484 	 33.9504
| 27> C 	 -50.0809 	 14.0944 	 33.9064
| 28> H 	 -51.5812 	 17.0755 	 34.0162
| 29> C 	 -48.8383 	 16.2921 	 33.9819
| 30> H 	 -48.0302 	 15.5132 	 34.1673
| 31> H 	 -48.7871 	 16.8185 	 34.8661
| 32> C 	 -48.6093 	 17.3265 	 32.8851
| 33> H 	 -47.6554 	 17.8187 	 33.1684
| 34> H 	 -49.3776 	 18.1298 	 32.943
| 35> C 	 -48.5337 	 16.6345 	 31.5028
| 36> H 	 -47.6868 	 16.0709 	 31.2748
| 37> H 	 -48.6332 	 17.3492 	 30.6798
| 38> H 	 -49.3812 	 16.0267 	 31.3448
| 39> H 	 -47.2923 	 9.97885 	 33.7324
| 40> H 	 -53.3719 	 15.4507 	 34.3517
| 41> *
| 42>
| 43>                          ****END OF INPUT****

CARTESIAN COORDINATES (ANGSTROEM)
---------------------------------
  S    -48.954500   11.608000   34.688600
  C    -47.584900   11.061700   33.780300
  C    -47.156800   11.924900   32.771100
  C    -48.027400   13.091600   32.767300
  C    -49.033700   13.079600   33.667100
  H    -47.941200   13.983300   32.216100
  C    -46.099100   11.623100   31.730900
  H    -45.779600   10.543500   31.734800
  H    -45.208700   12.241400   31.906700
  C    -46.514500   11.895200   30.269800
  H    -46.592900   12.987100   30.168900
  H    -45.665300   11.628100   29.634900
  C    -47.708600   11.121600   29.680000
  H    -47.266300   10.091100   29.677700
  H    -48.649500   11.146600   30.239900
  H    -47.936900   11.317900   28.651500
  S    -51.743000   13.499100   34.076100
  C    -52.325700   15.130800   34.303400
  C    -51.328200   16.024900   33.998800
  C    -50.030700   15.448400   33.950400
  C    -50.080900   14.094400   33.906400
  H    -51.581200   17.075500   34.016200
  C    -48.838300   16.292100   33.981900
  H    -48.030200   15.513200   34.167300
  H    -48.787100   16.818500   34.866100
  C    -48.609300   17.326500   32.885100
  H    -47.655400   17.818700   33.168400
  H    -49.377600   18.129800   32.943000
  C    -48.533700   16.634500   31.502800
  H    -47.686800   16.070900   31.274800
  H    -48.633200   17.349200   30.679800
  H    -49.381200   16.026700   31.344800
  H    -47.292300    9.978850   33.732400
  H    -53.371900   15.450700   34.351700

 Total Charge           Charge          ....    0
 Multiplicity           Mult            ....    1
 Number of Electrons    NEL             ....  134
 Basis Dimension        Dim             ....  322

ORBITAL ENERGIES
----------------

  NO   OCC          E(Eh)            E(eV)
   0   2.0000     -88.963909     -2420.8310
   1   2.0000     -88.963812     -2420.8284
   2   2.0000     -10.329521      -281.0805
   3   2.0000     -10.326302      -280.9930
   4   2.0000     -10.317358      -280.7496
   5   2.0000     -10.315649      -280.7031
   6   2.0000     -10.306622      -280.4575
   7   2.0000     -10.300686      -280.2959
   8   2.0000     -10.297868      -280.2192
   9   2.0000     -10.296399      -280.1793
  10   2.0000     -10.291535      -280.0469
  11   2.0000     -10.289923      -280.0030
  12   2.0000     -10.289484      -279.9911
  13   2.0000     -10.282786      -279.8088
  14   2.0000     -10.278389      -279.6892
  15   2.0000     -10.271754      -279.5086
  16   2.0000      -8.078537      -219.8282
  17   2.0000      -8.078354      -219.8232
  18   2.0000      -6.037132      -164.2787
  19   2.0000      -6.036893      -164.2722
  20   2.0000      -6.033152      -164.1704
  21   2.0000      -6.033003      -164.1664
  22   2.0000      -6.029106      -164.0603
  23   2.0000      -6.028982      -164.0569
  24   2.0000      -1.007540       -27.4166
  25   2.0000      -0.984064       -26.7777
  26   2.0000      -0.916213       -24.9314
  27   2.0000      -0.908853       -24.7311
  28   2.0000      -0.868695       -23.6384
  29   2.0000      -0.851601       -23.1732
  30   2.0000      -0.843923       -22.9643
  31   2.0000      -0.818349       -22.2684
  32   2.0000      -0.789359       -21.4796
  33   2.0000      -0.776885       -21.1401
  34   2.0000      -0.714339       -19.4382
  35   2.0000      -0.699090       -19.0232
  36   2.0000      -0.687398       -18.7051
  37   2.0000      -0.659442       -17.9443
  38   2.0000      -0.641269       -17.4498
  39   2.0000      -0.621069       -16.9002
  40   2.0000      -0.598036       -16.2734
  41   2.0000      -0.563176       -15.3248
  42   2.0000      -0.556695       -15.1484
  43   2.0000      -0.552960       -15.0468
  44   2.0000      -0.542833       -14.7712
  45   2.0000      -0.542359       -14.7583
  46   2.0000      -0.525496       -14.2995
  47   2.0000      -0.506754       -13.7895
  48   2.0000      -0.499855       -13.6018
  49   2.0000      -0.496310       -13.5053
  50   2.0000      -0.488946       -13.3049
  51   2.0000      -0.474030       -12.8990
  52   2.0000      -0.473697       -12.8899
  53   2.0000      -0.467858       -12.7311
  54   2.0000      -0.456426       -12.4200
  55   2.0000      -0.447526       -12.1778
  56   2.0000      -0.444773       -12.1029
  57   2.0000      -0.442239       -12.0339
  58   2.0000      -0.433680       -11.8010
  59   2.0000      -0.426824       -11.6145
  60   2.0000      -0.420404       -11.4398
  61   2.0000      -0.415034       -11.2937
  62   2.0000      -0.409900       -11.1539
  63   2.0000      -0.348989        -9.4965
  64   2.0000      -0.329915        -8.9774
  65   2.0000      -0.328840        -8.9482
  66   2.0000      -0.295844        -8.0503
  67   0.0000       0.029907         0.8138
  68   0.0000       0.073457         1.9989
  69   0.0000       0.108457         2.9513
  70   0.0000       0.117221         3.1897
  71   0.0000       0.132117         3.5951

MULLIKEN ATOMIC CHARGES
-----------------------
   0 S :    0.103230
   1 C :   -0.128402
   2 C :   -0.080052
   3 C :    0.067037
   4 C :   -0.159133
   5 H :   -0.050619
   6 C :    0.063585
   7 H :    0.025717
   8 H :    0.043676
   9 C :   -0.109726
  10 H :    0.025623
  11 H :    0.029005
  12 C :   -0.049598
  13 H :    0.023950
  14 H :    0.054378
  15 H :    0.033449
  16 S :    0.097907
  17 C :   -0.089602
  18 C :   -0.044737
  19 C :   -0.042843
  20 C :   -0.139932
  21 H :    0.017401
  22 C :    0.060587
  23 H :    0.031171
  24 H :    0.009908
  25 C :   -0.066507
  26 H :    0.037452
  27 H :    0.038113
  28 C :   -0.025680
  29 H :    0.037746
  30 H :    0.021583
  31 H :    0.031531
  32 H :    0.068851
  33 H :    0.064931
Sum of atomic charges:   -0.0000000

LOEWDIN ATOMIC CHARGES
----------------------
   0 S :    0.385331
   1 C :   -0.208414
   2 C :   -0.063209
   3 C :   -0.056171
   4 C :   -0.175620
   5 H :    0.021705
   6 C :   -0.032982
   7 H :    0.033259
   8 H :    0.038418
   9 C :   -0.047816
  10 H :    0.015831
  11 H :    0.027122
  12 C :   -0.069014
  13 H :    0.031214
  14 H :    0.029030
  15 H :    0.024529
  16 S :    0.390322
  17 C :   -0.183304
  18 C :   -0.069151
  19 C :   -0.063223
  20 C :   -0.188007
  21 H :    0.028973
  22 C :   -0.041009
  23 H :    0.041763
  24 H :    0.024109
  25 C :   -0.031951
  26 H :    0.031695
  27 H :    0.028280
  28 C :   -0.064435
  29 H :    0.017560
  30 H :    0.029007
  31 H :    0.023291
  32 H :    0.037767
  33 H :    0.035099

  Mayer bond orders larger than 0.100000
B(  0-S ,  1-C ) :   1.1403 B(  0-S ,  4-C ) :   1.1237 B(  1-C ,  2-C ) :   1.6447
B(  1-C , 32-H ) :   0.9493 B(  2-C ,  3-C ) :   1.1892 B(  2-C ,  6-C ) :   1.0298
B(  3-C ,  4-C ) :   1.6352 B(  3-C ,  5-H ) :   0.9975 B(  4-C , 20-C ) :   1.0141
B(  6-C ,  7-H ) :   0.9460 B(  6-C ,  8-H ) :   0.9294 B(  6-C ,  9-C ) :   1.0826
B(  9-C , 10-H ) :   0.9513 B(  9-C , 11-H ) :   0.9572 B(  9-C , 12-C ) :   1.0614
B( 12-C , 13-H ) :   0.9747 B( 12-C , 14-H ) :   0.9777 B( 12-C , 15-H ) :   0.9751
B( 16-S , 17-C ) :   1.1415 B( 16-S , 20-C ) :   1.1282 B( 17-C , 18-C ) :   1.6478
B( 17-C , 33-H ) :   0.9620 B( 18-C , 19-C ) :   1.2035 B( 18-C , 21-H ) :   0.9870
B( 19-C , 20-C ) :   1.6238 B( 19-C , 22-C ) :   1.0501 B( 22-C , 23-H ) :   0.9298
B( 22-C , 24-H ) :   0.9195 B( 22-C , 25-C ) :   1.0737 B( 25-C , 26-H ) :   0.9533
B( 25-C , 27-H ) :   0.9536 B( 25-C , 28-C ) :   1.0741 B( 28-C , 29-H ) :   0.9667
B( 28-C , 30-H ) :   0.9677 B( 28-C , 31-H ) :   0.9705

Dispersion correction           -0.015431084
FINAL SINGLE POINT ENERGY     -1339.874411401610

DIPOLE MOMENT
-------------
                                X             Y             Z
Electronic contribution:    -15.45695      -8.70535      20.00351
Nuclear contribution   :     15.75594       9.21606     -20.50697
                        -----------------------------------------
Total Dipole Moment    :      0.29899       0.51071      -0.50346
                        -----------------------------------------
Magnitude (a.u.)       :      0.77698
Magnitude (Debye)      :      1.97492

Rotational constants in cm-1:     0.018297     0.009748     0.007647
Rotational constants in MHz :   548.537698   292.228207   229.259685

                             ****ORCA TERMINATED NORMALLY****
TOTAL RUN TIME: 0 days 0 hours 0 minutes 22 seconds 744 msec
