                         Program Version 4.2.1 -  RELEASE  -
|  1> ! wB97X-D3 SP def2-SVP
|  2> %pal
|  3> nprocs 24
|  4> end
|  5>
|  6> * xyz 0 1
|  7> S 	 -32.1761 	 12.2781 	 -0.277915
|  8> C 	 -31.5413 	 10.7932 	 -1.02432
|  9> C 	 -32.4455 	 9.7352 	 -1.0152
| 10> C 	 -33.6323 	 10.1658 	 -0.340946
| 11> C 	 -33.5885 	 11.4393 	 0.208894
| 12> H 	 -34.5403 	 9.5618 	 -0.345441
| 13> C 	 -32.2778 	 8.46229 	 -1.82561
| 14> H 	 -31.4457 	 7.92186 	 -1.50104
| 15> H 	 -32.0982 	 8.66609 	 -2.95351
| 16> C 	 -33.396 	 7.33257 	 -1.73792
| 17> H 	 -33.4392 	 6.97875 	 -0.712601
| 18> H 	 -34.2625 	 7.79131 	 -1.97377
| 19> C 	 -33.226 	 6.00765 	 -2.55083
| 20> H 	 -34.1448 	 5.55838 	 -2.70916
| 21> H 	 -32.7522 	 6.06699 	 -3.50885
| 22> H 	 -32.6716 	 5.267 	 -1.91144
| 23> S 	 -33.9474 	 12.9404 	 2.38246
| 24> C 	 -35.5036 	 13.7618 	 2.68042
| 25> C 	 -36.4896 	 13.3204 	 1.72482
| 26> C 	 -35.871 	 12.5139 	 0.699831
| 27> C 	 -34.5832 	 12.1643 	 0.98274
| 28> H 	 -37.5065 	 13.5805 	 1.81597
| 29> C 	 -36.6794 	 12.0032 	 -0.463519
| 30> H 	 -37.6184 	 11.5775 	 -0.0984114
| 31> H 	 -36.1387 	 11.0985 	 -0.787037
| 32> C 	 -36.9398 	 13.092 	 -1.53887
| 33> H 	 -37.5292 	 13.8423 	 -0.976215
| 34> H 	 -37.5827 	 12.7268 	 -2.36234
| 35> C 	 -35.7338 	 13.8523 	 -2.05984
| 36> H 	 -35.2691 	 13.2735 	 -2.9535
| 37> H 	 -34.8515 	 13.9092 	 -1.39569
| 38> H 	 -35.9914 	 14.8999 	 -2.40986
| 39> H 	 -30.6292 	 10.682 	 -1.55626
| 40> H 	 -35.9335 	 14.3851 	 3.43977
| 41> *
| 42>
| 43>                          ****END OF INPUT****

CARTESIAN COORDINATES (ANGSTROEM)
---------------------------------
  S    -32.176100   12.278100   -0.277915
  C    -31.541300   10.793200   -1.024320
  C    -32.445500    9.735200   -1.015200
  C    -33.632300   10.165800   -0.340946
  C    -33.588500   11.439300    0.208894
  H    -34.540300    9.561800   -0.345441
  C    -32.277800    8.462290   -1.825610
  H    -31.445700    7.921860   -1.501040
  H    -32.098200    8.666090   -2.953510
  C    -33.396000    7.332570   -1.737920
  H    -33.439200    6.978750   -0.712601
  H    -34.262500    7.791310   -1.973770
  C    -33.226000    6.007650   -2.550830
  H    -34.144800    5.558380   -2.709160
  H    -32.752200    6.066990   -3.508850
  H    -32.671600    5.267000   -1.911440
  S    -33.947400   12.940400    2.382460
  C    -35.503600   13.761800    2.680420
  C    -36.489600   13.320400    1.724820
  C    -35.871000   12.513900    0.699831
  C    -34.583200   12.164300    0.982740
  H    -37.506500   13.580500    1.815970
  C    -36.679400   12.003200   -0.463519
  H    -37.618400   11.577500   -0.098411
  H    -36.138700   11.098500   -0.787037
  C    -36.939800   13.092000   -1.538870
  H    -37.529200   13.842300   -0.976215
  H    -37.582700   12.726800   -2.362340
  C    -35.733800   13.852300   -2.059840
  H    -35.269100   13.273500   -2.953500
  H    -34.851500   13.909200   -1.395690
  H    -35.991400   14.899900   -2.409860
  H    -30.629200   10.682000   -1.556260
  H    -35.933500   14.385100    3.439770

 Total Charge           Charge          ....    0
 Multiplicity           Mult            ....    1
 Number of Electrons    NEL             ....  134
 Basis Dimension        Dim             ....  322

ORBITAL ENERGIES
----------------

  NO   OCC          E(Eh)            E(eV)
   0   2.0000     -88.972014     -2421.0516
   1   2.0000     -88.971646     -2421.0416
   2   2.0000     -10.327304      -281.0202
   3   2.0000     -10.322258      -280.8829
   4   2.0000     -10.321862      -280.8722
   5   2.0000     -10.312817      -280.6260
   6   2.0000     -10.305711      -280.4327
   7   2.0000     -10.300603      -280.2936
   8   2.0000     -10.299567      -280.2655
   9   2.0000     -10.296602      -280.1848
  10   2.0000     -10.295491      -280.1545
  11   2.0000     -10.290720      -280.0247
  12   2.0000     -10.289734      -279.9979
  13   2.0000     -10.285713      -279.8885
  14   2.0000     -10.282025      -279.7881
  15   2.0000     -10.280042      -279.7342
  16   2.0000      -8.086332      -220.0403
  17   2.0000      -8.085698      -220.0230
  18   2.0000      -6.044767      -164.4865
  19   2.0000      -6.044409      -164.4767
  20   2.0000      -6.040936      -164.3822
  21   2.0000      -6.040140      -164.3606
  22   2.0000      -6.037128      -164.2786
  23   2.0000      -6.036409      -164.2590
  24   2.0000      -1.010601       -27.4999
  25   2.0000      -0.981256       -26.7013
  26   2.0000      -0.908530       -24.7223
  27   2.0000      -0.904402       -24.6100
  28   2.0000      -0.869747       -23.6670
  29   2.0000      -0.847038       -23.0491
  30   2.0000      -0.843309       -22.9476
  31   2.0000      -0.813623       -22.1398
  32   2.0000      -0.786090       -21.3906
  33   2.0000      -0.771526       -20.9943
  34   2.0000      -0.715004       -19.4563
  35   2.0000      -0.694869       -18.9083
  36   2.0000      -0.690605       -18.7923
  37   2.0000      -0.664574       -18.0840
  38   2.0000      -0.641996       -17.4696
  39   2.0000      -0.622382       -16.9359
  40   2.0000      -0.586335       -15.9550
  41   2.0000      -0.573848       -15.6152
  42   2.0000      -0.566366       -15.4116
  43   2.0000      -0.544749       -14.8234
  44   2.0000      -0.543955       -14.8018
  45   2.0000      -0.520127       -14.1534
  46   2.0000      -0.515346       -14.0233
  47   2.0000      -0.506124       -13.7723
  48   2.0000      -0.500832       -13.6283
  49   2.0000      -0.498753       -13.5718
  50   2.0000      -0.494573       -13.4580
  51   2.0000      -0.483057       -13.1446
  52   2.0000      -0.469098       -12.7648
  53   2.0000      -0.462162       -12.5761
  54   2.0000      -0.457564       -12.4510
  55   2.0000      -0.447654       -12.1813
  56   2.0000      -0.441815       -12.0224
  57   2.0000      -0.438800       -11.9403
  58   2.0000      -0.431474       -11.7410
  59   2.0000      -0.430716       -11.7204
  60   2.0000      -0.422725       -11.5029
  61   2.0000      -0.415170       -11.2973
  62   2.0000      -0.401286       -10.9195
  63   2.0000      -0.338439        -9.2094
  64   2.0000      -0.337438        -9.1821
  65   2.0000      -0.328657        -8.9432
  66   2.0000      -0.293087        -7.9753
  67   0.0000       0.031688         0.8623
  68   0.0000       0.061086         1.6622
  69   0.0000       0.103580         2.8185
  70   0.0000       0.107727         2.9314
  71   0.0000       0.131138         3.5685

MULLIKEN ATOMIC CHARGES
-----------------------
   0 S :    0.134263
   1 C :   -0.114277
   2 C :   -0.065282
   3 C :    0.011800
   4 C :   -0.147448
   5 H :    0.021185
   6 C :    0.035647
   7 H :    0.021193
   8 H :    0.055464
   9 C :   -0.086101
  10 H :    0.035394
  11 H :    0.014327
  12 C :   -0.024721
  13 H :    0.018314
  14 H :    0.029326
  15 H :    0.034174
  16 S :    0.124061
  17 C :   -0.081119
  18 C :   -0.045137
  19 C :   -0.058212
  20 C :   -0.164163
  21 H :    0.012761
  22 C :    0.096033
  23 H :    0.025007
  24 H :    0.002463
  25 C :   -0.059850
  26 H :    0.024030
  27 H :    0.042021
  28 C :   -0.092571
  29 H :    0.035305
  30 H :    0.040718
  31 H :    0.047486
  32 H :    0.029047
  33 H :    0.048862
Sum of atomic charges:    0.0000000

LOEWDIN ATOMIC CHARGES
----------------------
   0 S :    0.425028
   1 C :   -0.185104
   2 C :   -0.060213
   3 C :   -0.067220
   4 C :   -0.209679
   5 H :    0.028625
   6 C :   -0.034281
   7 H :    0.023975
   8 H :    0.043566
   9 C :   -0.030756
  10 H :    0.028178
  11 H :    0.002248
  12 C :   -0.058317
  13 H :    0.020371
  14 H :    0.021647
  15 H :    0.032639
  16 S :    0.419095
  17 C :   -0.187240
  18 C :   -0.056384
  19 C :   -0.058455
  20 C :   -0.214046
  21 H :    0.023205
  22 C :   -0.033080
  23 H :    0.032519
  24 H :    0.025804
  25 C :   -0.045742
  26 H :    0.025194
  27 H :    0.028997
  28 C :   -0.081494
  29 H :    0.032333
  30 H :    0.025207
  31 H :    0.033028
  32 H :    0.020156
  33 H :    0.030198

  Mayer bond orders larger than 0.100000
B(  0-S ,  1-C ) :   1.1414 B(  0-S ,  4-C ) :   1.1656 B(  1-C ,  2-C ) :   1.6127
B(  1-C ,  4-C ) :   0.1017 B(  1-C , 32-H ) :   0.9732 B(  2-C ,  3-C ) :   1.2731
B(  2-C ,  6-C ) :   1.0110 B(  3-C ,  4-C ) :   1.5589 B(  3-C ,  5-H ) :   0.9845
B(  4-C , 20-C ) :   1.0145 B(  6-C ,  7-H ) :   0.9368 B(  6-C ,  8-H ) :   0.9428
B(  6-C ,  9-C ) :   1.0695 B(  9-C , 10-H ) :   0.9618 B(  9-C , 11-H ) :   0.9576
B(  9-C , 12-C ) :   1.0763 B( 12-C , 13-H ) :   0.9725 B( 12-C , 14-H ) :   0.9773
B( 12-C , 15-H ) :   0.9798 B( 16-S , 17-C ) :   1.1446 B( 16-S , 20-C ) :   1.1348
B( 17-C , 18-C ) :   1.6144 B( 17-C , 33-H ) :   0.9670 B( 18-C , 19-C ) :   1.2295
B( 18-C , 21-H ) :   0.9873 B( 19-C , 20-C ) :   1.6099 B( 19-C , 22-C ) :   1.0357
B( 22-C , 23-H ) :   0.9361 B( 22-C , 24-H ) :   0.9343 B( 22-C , 25-C ) :   1.0531
B( 25-C , 26-H ) :   0.9579 B( 25-C , 27-H ) :   0.9581 B( 25-C , 28-C ) :   1.0690
B( 28-C , 29-H ) :   0.9741 B( 28-C , 30-H ) :   0.9719 B( 28-C , 31-H ) :   0.9751

Dispersion correction           -0.014760999
FINAL SINGLE POINT ENERGY     -1339.850848442853

DIPOLE MOMENT
-------------
                                X             Y             Z
Electronic contribution:      9.69855      16.00105      19.07287
Nuclear contribution   :    -10.12612     -16.43679     -19.47442
                        -----------------------------------------
Total Dipole Moment    :     -0.42757      -0.43574      -0.40155
                        -----------------------------------------
Magnitude (a.u.)       :      0.73070
Magnitude (Debye)      :      1.85729

Rotational constants in cm-1:     0.020304     0.008055     0.007149
Rotational constants in MHz :   608.698913   241.478430   214.308433

                             ****ORCA TERMINATED NORMALLY****
TOTAL RUN TIME: 0 days 0 hours 0 minutes 20 seconds 715 msec
