                         Program Version 4.2.1 -  RELEASE  -
|  1> ! wB97X-D3 SP def2-SVP
|  2> %pal
|  3> nprocs 24
|  4> end
|  5>
|  6> * xyz 0 1
|  7> S 	 -48.5808 	 19.2565 	 33.3636
|  8> C 	 -48.1238 	 17.6369 	 33.9426
|  9> C 	 -46.8051 	 17.4854 	 34.3042
| 10> C 	 -46.1392 	 18.7255 	 34.0808
| 11> C 	 -46.9087 	 19.6376 	 33.3865
| 12> H 	 -45.0766 	 19.0056 	 34.2665
| 13> C 	 -46.1314 	 16.2041 	 34.7452
| 14> H 	 -46.725 	 15.6737 	 35.4976
| 15> H 	 -45.1499 	 16.4878 	 35.234
| 16> C 	 -45.8157 	 15.2765 	 33.5769
| 17> H 	 -45.2497 	 14.4344 	 34.0193
| 18> H 	 -46.7687 	 14.8692 	 33.2588
| 19> C 	 -45.0216 	 15.976 	 32.4375
| 20> H 	 -44.0094 	 16.2495 	 32.6321
| 21> H 	 -44.909 	 15.2684 	 31.5721
| 22> H 	 -45.5282 	 16.8339 	 31.9912
| 23> S 	 -47.5597 	 22.2102 	 32.5523
| 24> C 	 -46.4344 	 23.14 	 31.6452
| 25> C 	 -45.2599 	 22.4952 	 31.5421
| 26> C 	 -45.1903 	 21.2196 	 32.1627
| 27> C 	 -46.433 	 20.9066 	 32.7194
| 28> H 	 -44.5039 	 22.9057 	 30.9892
| 29> C 	 -44.077 	 20.2416 	 32.0037
| 30> H 	 -44.5445 	 19.3204 	 31.6724
| 31> H 	 -43.6859 	 20.1756 	 33.0564
| 32> C 	 -42.9576 	 20.5872 	 30.9915
| 33> H 	 -42.6091 	 21.5394 	 31.3339
| 34> H 	 -43.4697 	 20.7102 	 29.9936
| 35> C 	 -41.8294 	 19.479 	 30.8925
| 36> H 	 -42.1916 	 18.4831 	 30.5838
| 37> H 	 -41.4588 	 19.2623 	 31.8816
| 38> H 	 -40.9746 	 19.6925 	 30.2598
| 39> H 	 -48.8281 	 16.8608 	 33.9032
| 40> H 	 -46.6948 	 24.1584 	 31.2117
| 41> *
| 42>
| 43>                          ****END OF INPUT****

CARTESIAN COORDINATES (ANGSTROEM)
---------------------------------
  S    -48.580800   19.256500   33.363600
  C    -48.123800   17.636900   33.942600
  C    -46.805100   17.485400   34.304200
  C    -46.139200   18.725500   34.080800
  C    -46.908700   19.637600   33.386500
  H    -45.076600   19.005600   34.266500
  C    -46.131400   16.204100   34.745200
  H    -46.725000   15.673700   35.497600
  H    -45.149900   16.487800   35.234000
  C    -45.815700   15.276500   33.576900
  H    -45.249700   14.434400   34.019300
  H    -46.768700   14.869200   33.258800
  C    -45.021600   15.976000   32.437500
  H    -44.009400   16.249500   32.632100
  H    -44.909000   15.268400   31.572100
  H    -45.528200   16.833900   31.991200
  S    -47.559700   22.210200   32.552300
  C    -46.434400   23.140000   31.645200
  C    -45.259900   22.495200   31.542100
  C    -45.190300   21.219600   32.162700
  C    -46.433000   20.906600   32.719400
  H    -44.503900   22.905700   30.989200
  C    -44.077000   20.241600   32.003700
  H    -44.544500   19.320400   31.672400
  H    -43.685900   20.175600   33.056400
  C    -42.957600   20.587200   30.991500
  H    -42.609100   21.539400   31.333900
  H    -43.469700   20.710200   29.993600
  C    -41.829400   19.479000   30.892500
  H    -42.191600   18.483100   30.583800
  H    -41.458800   19.262300   31.881600
  H    -40.974600   19.692500   30.259800
  H    -48.828100   16.860800   33.903200
  H    -46.694800   24.158400   31.211700

 Total Charge           Charge          ....    0
 Multiplicity           Mult            ....    1
 Number of Electrons    NEL             ....  134
 Basis Dimension        Dim             ....  322

ORBITAL ENERGIES
----------------

  NO   OCC          E(Eh)            E(eV)
   0   2.0000     -88.965950     -2420.8866
   1   2.0000     -88.962389     -2420.7897
   2   2.0000     -10.327939      -281.0375
   3   2.0000     -10.325159      -280.9619
   4   2.0000     -10.314893      -280.6825
   5   2.0000     -10.308482      -280.5080
   6   2.0000     -10.301798      -280.3262
   7   2.0000     -10.299564      -280.2654
   8   2.0000     -10.297866      -280.2192
   9   2.0000     -10.297594      -280.2118
  10   2.0000     -10.294901      -280.1385
  11   2.0000     -10.293744      -280.1070
  12   2.0000     -10.292738      -280.0796
  13   2.0000     -10.285640      -279.8865
  14   2.0000     -10.281879      -279.7841
  15   2.0000     -10.279862      -279.7293
  16   2.0000      -8.081126      -219.8986
  17   2.0000      -8.078282      -219.8212
  18   2.0000      -6.039507      -164.3433
  19   2.0000      -6.036668      -164.2661
  20   2.0000      -6.035912      -164.2455
  21   2.0000      -6.032607      -164.1556
  22   2.0000      -6.031674      -164.1302
  23   2.0000      -6.029168      -164.0620
  24   2.0000      -1.011071       -27.5126
  25   2.0000      -0.989520       -26.9262
  26   2.0000      -0.914327       -24.8801
  27   2.0000      -0.910164       -24.7668
  28   2.0000      -0.863968       -23.5098
  29   2.0000      -0.851881       -23.1809
  30   2.0000      -0.841862       -22.9082
  31   2.0000      -0.813911       -22.1477
  32   2.0000      -0.787097       -21.4180
  33   2.0000      -0.774915       -21.0865
  34   2.0000      -0.712723       -19.3942
  35   2.0000      -0.704914       -19.1817
  36   2.0000      -0.690476       -18.7888
  37   2.0000      -0.653985       -17.7958
  38   2.0000      -0.637798       -17.3554
  39   2.0000      -0.614353       -16.7174
  40   2.0000      -0.595927       -16.2160
  41   2.0000      -0.575152       -15.6507
  42   2.0000      -0.573788       -15.6136
  43   2.0000      -0.550834       -14.9890
  44   2.0000      -0.540774       -14.7152
  45   2.0000      -0.523366       -14.2415
  46   2.0000      -0.512473       -13.9451
  47   2.0000      -0.507835       -13.8189
  48   2.0000      -0.502393       -13.6708
  49   2.0000      -0.488688       -13.2979
  50   2.0000      -0.487570       -13.2675
  51   2.0000      -0.479859       -13.0576
  52   2.0000      -0.473854       -12.8942
  53   2.0000      -0.468377       -12.7452
  54   2.0000      -0.459105       -12.4929
  55   2.0000      -0.457922       -12.4607
  56   2.0000      -0.451095       -12.2749
  57   2.0000      -0.437809       -11.9134
  58   2.0000      -0.433317       -11.7912
  59   2.0000      -0.426953       -11.6180
  60   2.0000      -0.424646       -11.5552
  61   2.0000      -0.419012       -11.4019
  62   2.0000      -0.416155       -11.3241
  63   2.0000      -0.352320        -9.5871
  64   2.0000      -0.334556        -9.1037
  65   2.0000      -0.329125        -8.9560
  66   2.0000      -0.282387        -7.6841
  67   0.0000       0.025059         0.6819
  68   0.0000       0.082523         2.2456
  69   0.0000       0.098142         2.6706
  70   0.0000       0.127678         3.4743
  71   0.0000       0.132749         3.6123

MULLIKEN ATOMIC CHARGES
-----------------------
   0 S :    0.103968
   1 C :   -0.108677
   2 C :   -0.069156
   3 C :   -0.015419
   4 C :   -0.134122
   5 H :    0.017141
   6 C :    0.054088
   7 H :    0.037217
   8 H :    0.028831
   9 C :   -0.050835
  10 H :    0.035778
  11 H :    0.025585
  12 C :   -0.071353
  13 H :    0.024744
  14 H :    0.030495
  15 H :    0.059924
  16 S :    0.095075
  17 C :   -0.099005
  18 C :   -0.011767
  19 C :   -0.047907
  20 C :   -0.147428
  21 H :   -0.024445
  22 C :    0.013180
  23 H :    0.045512
  24 H :    0.051893
  25 C :   -0.081826
  26 H :    0.032791
  27 H :    0.044107
  28 C :   -0.022264
  29 H :    0.026766
  30 H :    0.016703
  31 H :    0.041191
  32 H :    0.020645
  33 H :    0.078569
Sum of atomic charges:   -0.0000000

LOEWDIN ATOMIC CHARGES
----------------------
   0 S :    0.397857
   1 C :   -0.177219
   2 C :   -0.058398
   3 C :   -0.072759
   4 C :   -0.193476
   5 H :    0.035304
   6 C :   -0.034004
   7 H :    0.032567
   8 H :    0.034188
   9 C :   -0.035116
  10 H :    0.028815
  11 H :    0.021944
  12 C :   -0.071418
  13 H :    0.019834
  14 H :    0.032473
  15 H :    0.029372
  16 S :    0.413778
  17 C :   -0.200488
  18 C :   -0.071345
  19 C :   -0.062348
  20 C :   -0.200468
  21 H :    0.015521
  22 C :   -0.037725
  23 H :    0.034672
  24 H :    0.037642
  25 C :   -0.036916
  26 H :    0.018664
  27 H :    0.031718
  28 C :   -0.066121
  29 H :    0.028095
  30 H :    0.022265
  31 H :    0.027756
  32 H :    0.009921
  33 H :    0.045416

  Mayer bond orders larger than 0.100000
B(  0-S ,  1-C ) :   1.1238 B(  0-S ,  4-C ) :   1.1574 B(  1-C ,  2-C ) :   1.6297
B(  1-C , 32-H ) :   0.9752 B(  2-C ,  3-C ) :   1.2135 B(  2-C ,  6-C ) :   1.0172
B(  3-C ,  4-C ) :   1.5903 B(  3-C ,  5-H ) :   0.9852 B(  4-C , 20-C ) :   1.0305
B(  6-C ,  7-H ) :   0.9413 B(  6-C ,  8-H ) :   0.9409 B(  6-C ,  9-C ) :   1.0758
B(  9-C , 10-H ) :   0.9558 B(  9-C , 11-H ) :   0.9558 B(  9-C , 12-C ) :   1.0735
B( 12-C , 13-H ) :   0.9766 B( 12-C , 14-H ) :   0.9709 B( 12-C , 15-H ) :   0.9684
B( 16-S , 17-C ) :   1.1526 B( 16-S , 20-C ) :   1.1605 B( 17-C , 18-C ) :   1.5924
B( 17-C , 33-H ) :   0.9573 B( 18-C , 19-C ) :   1.2628 B( 18-C , 21-H ) :   1.0045
B( 19-C , 20-C ) :   1.5845 B( 19-C , 22-C ) :   1.0180 B( 22-C , 23-H ) :   0.9382
B( 22-C , 24-H ) :   0.9165 B( 22-C , 25-C ) :   1.0857 B( 25-C , 26-H ) :   0.9491
B( 25-C , 27-H ) :   0.9546 B( 25-C , 28-C ) :   1.0707 B( 28-C , 29-H ) :   0.9750
B( 28-C , 30-H ) :   0.9741 B( 28-C , 31-H ) :   0.9776

Dispersion correction           -0.015212932
FINAL SINGLE POINT ENERGY     -1339.879999152934

DIPOLE MOMENT
-------------
                                X             Y             Z
Electronic contribution:    -25.16235      18.36055       5.98503
Nuclear contribution   :     25.79584     -18.76477      -6.19918
                        -----------------------------------------
Total Dipole Moment    :      0.63349      -0.40422      -0.21415
                        -----------------------------------------
Magnitude (a.u.)       :      0.78138
Magnitude (Debye)      :      1.98611

Rotational constants in cm-1:     0.016272     0.010991     0.006894
Rotational constants in MHz :   487.817877   329.492958   206.679405

                             ****ORCA TERMINATED NORMALLY****
TOTAL RUN TIME: 0 days 0 hours 0 minutes 22 seconds 613 msec
