                         Program Version 4.2.1 -  RELEASE  -
|  1> ! wB97X-D3 SP def2-SVP
|  2> %pal
|  3> nprocs 24
|  4> end
|  5>
|  6> * xyz 0 1
|  7> S 	 -81.9125 	 -41.3435 	 -74.3981
|  8> C 	 -82.2202 	 -42.9379 	 -74.9033
|  9> C 	 -83.5563 	 -43.3204 	 -74.7796
| 10> C 	 -84.3333 	 -42.3583 	 -74.0113
| 11> C 	 -83.6151 	 -41.213 	 -73.7914
| 12> H 	 -85.3409 	 -42.4313 	 -73.6436
| 13> C 	 -84.175 	 -44.5569 	 -75.2727
| 14> H 	 -84.1218 	 -45.1096 	 -74.3095
| 15> H 	 -83.5185 	 -45.1287 	 -75.8195
| 16> C 	 -85.5621 	 -44.5666 	 -75.9457
| 17> H 	 -85.9085 	 -45.5663 	 -76.085
| 18> H 	 -86.3244 	 -44.085 	 -75.3918
| 19> C 	 -85.5175 	 -43.7739 	 -77.2719
| 20> H 	 -84.6169 	 -44.0516 	 -77.8259
| 21> H 	 -86.4544 	 -43.8347 	 -77.854
| 22> H 	 -85.4724 	 -42.6588 	 -77.0444
| 23> S 	 -85.3064 	 -39.0544 	 -73.5099
| 24> C 	 -85.3605 	 -38.1956 	 -71.9092
| 25> C 	 -84.6055 	 -38.8277 	 -70.935
| 26> C 	 -83.7773 	 -39.798 	 -71.595
| 27> C 	 -84.0427 	 -40.1192 	 -72.9068
| 28> H 	 -84.5619 	 -38.5809 	 -69.881
| 29> C 	 -82.7252 	 -40.5313 	 -70.8412
| 30> H 	 -82.3432 	 -41.3998 	 -71.3493
| 31> H 	 -83.1366 	 -40.8986 	 -69.9359
| 32> C 	 -81.5417 	 -39.7203 	 -70.4937
| 33> H 	 -80.8833 	 -40.3202 	 -69.8287
| 34> H 	 -81.6739 	 -38.799 	 -69.8995
| 35> C 	 -80.5219 	 -39.4421 	 -71.671
| 36> H 	 -81.0716 	 -38.7895 	 -72.397
| 37> H 	 -80.2125 	 -40.3738 	 -72.0676
| 38> H 	 -79.7105 	 -38.8935 	 -71.2691
| 39> H 	 -81.5295 	 -43.5806 	 -75.2833
| 40> H 	 -85.8915 	 -37.2519 	 -71.7231
| 41> *
| 42>
| 43>                          ****END OF INPUT****

CARTESIAN COORDINATES (ANGSTROEM)
---------------------------------
  S    -81.912500  -41.343500  -74.398100
  C    -82.220200  -42.937900  -74.903300
  C    -83.556300  -43.320400  -74.779600
  C    -84.333300  -42.358300  -74.011300
  C    -83.615100  -41.213000  -73.791400
  H    -85.340900  -42.431300  -73.643600
  C    -84.175000  -44.556900  -75.272700
  H    -84.121800  -45.109600  -74.309500
  H    -83.518500  -45.128700  -75.819500
  C    -85.562100  -44.566600  -75.945700
  H    -85.908500  -45.566300  -76.085000
  H    -86.324400  -44.085000  -75.391800
  C    -85.517500  -43.773900  -77.271900
  H    -84.616900  -44.051600  -77.825900
  H    -86.454400  -43.834700  -77.854000
  H    -85.472400  -42.658800  -77.044400
  S    -85.306400  -39.054400  -73.509900
  C    -85.360500  -38.195600  -71.909200
  C    -84.605500  -38.827700  -70.935000
  C    -83.777300  -39.798000  -71.595000
  C    -84.042700  -40.119200  -72.906800
  H    -84.561900  -38.580900  -69.881000
  C    -82.725200  -40.531300  -70.841200
  H    -82.343200  -41.399800  -71.349300
  H    -83.136600  -40.898600  -69.935900
  C    -81.541700  -39.720300  -70.493700
  H    -80.883300  -40.320200  -69.828700
  H    -81.673900  -38.799000  -69.899500
  C    -80.521900  -39.442100  -71.671000
  H    -81.071600  -38.789500  -72.397000
  H    -80.212500  -40.373800  -72.067600
  H    -79.710500  -38.893500  -71.269100
  H    -81.529500  -43.580600  -75.283300
  H    -85.891500  -37.251900  -71.723100

 Total Charge           Charge          ....    0
 Multiplicity           Mult            ....    1
 Number of Electrons    NEL             ....  134
 Basis Dimension        Dim             ....  322

ORBITAL ENERGIES
----------------

  NO   OCC          E(Eh)            E(eV)
   0   2.0000     -88.966584     -2420.9038
   1   2.0000     -88.962619     -2420.7959
   2   2.0000     -10.331614      -281.1375
   3   2.0000     -10.326572      -281.0003
   4   2.0000     -10.322759      -280.8966
   5   2.0000     -10.304623      -280.4030
   6   2.0000     -10.302948      -280.3575
   7   2.0000     -10.299817      -280.2723
   8   2.0000     -10.298555      -280.2379
   9   2.0000     -10.296673      -280.1867
  10   2.0000     -10.286068      -279.8981
  11   2.0000     -10.285934      -279.8945
  12   2.0000     -10.281617      -279.7770
  13   2.0000     -10.279537      -279.7204
  14   2.0000     -10.274048      -279.5711
  15   2.0000     -10.266886      -279.3762
  16   2.0000      -8.080734      -219.8879
  17   2.0000      -8.076396      -219.7699
  18   2.0000      -6.039247      -164.3363
  19   2.0000      -6.035384      -164.2311
  20   2.0000      -6.035063      -164.2224
  21   2.0000      -6.031449      -164.1241
  22   2.0000      -6.031087      -164.1142
  23   2.0000      -6.026991      -164.0028
  24   2.0000      -1.001980       -27.2653
  25   2.0000      -0.981212       -26.7001
  26   2.0000      -0.914349       -24.8807
  27   2.0000      -0.909055       -24.7366
  28   2.0000      -0.872303       -23.7366
  29   2.0000      -0.849667       -23.1206
  30   2.0000      -0.839366       -22.8403
  31   2.0000      -0.819418       -22.2975
  32   2.0000      -0.781059       -21.2537
  33   2.0000      -0.767021       -20.8717
  34   2.0000      -0.709960       -19.3190
  35   2.0000      -0.698908       -19.0183
  36   2.0000      -0.684937       -18.6381
  37   2.0000      -0.664594       -18.0845
  38   2.0000      -0.645626       -17.5684
  39   2.0000      -0.622742       -16.9457
  40   2.0000      -0.598308       -16.2808
  41   2.0000      -0.569557       -15.4984
  42   2.0000      -0.557257       -15.1637
  43   2.0000      -0.554357       -15.0848
  44   2.0000      -0.539838       -14.6897
  45   2.0000      -0.535426       -14.5697
  46   2.0000      -0.519991       -14.1497
  47   2.0000      -0.516401       -14.0520
  48   2.0000      -0.503510       -13.7012
  49   2.0000      -0.490132       -13.3372
  50   2.0000      -0.489155       -13.3106
  51   2.0000      -0.472413       -12.8550
  52   2.0000      -0.470110       -12.7923
  53   2.0000      -0.467003       -12.7078
  54   2.0000      -0.461400       -12.5553
  55   2.0000      -0.443451       -12.0669
  56   2.0000      -0.442708       -12.0467
  57   2.0000      -0.440008       -11.9732
  58   2.0000      -0.433474       -11.7954
  59   2.0000      -0.423553       -11.5255
  60   2.0000      -0.421030       -11.4568
  61   2.0000      -0.414403       -11.2765
  62   2.0000      -0.392552       -10.6819
  63   2.0000      -0.343359        -9.3433
  64   2.0000      -0.333453        -9.0737
  65   2.0000      -0.310905        -8.4602
  66   2.0000      -0.298178        -8.1138
  67   0.0000       0.039358         1.0710
  68   0.0000       0.058952         1.6042
  69   0.0000       0.106451         2.8967
  70   0.0000       0.110491         3.0066
  71   0.0000       0.123022         3.3476

MULLIKEN ATOMIC CHARGES
-----------------------
   0 S :    0.120549
   1 C :   -0.073687
   2 C :   -0.107009
   3 C :    0.043375
   4 C :   -0.163220
   5 H :    0.021438
   6 C :    0.077841
   7 H :    0.040226
   8 H :   -0.013039
   9 C :   -0.009874
  10 H :    0.025849
  11 H :    0.016845
  12 C :   -0.093467
  13 H :    0.036951
  14 H :    0.041262
  15 H :    0.047476
  16 S :    0.086266
  17 C :   -0.103550
  18 C :   -0.004323
  19 C :   -0.056839
  20 C :   -0.160513
  21 H :    0.031062
  22 C :    0.138889
  23 H :    0.013696
  24 H :    0.007507
  25 C :   -0.135846
  26 H :    0.017752
  27 H :    0.024926
  28 C :   -0.030915
  29 H :    0.040364
  30 H :    0.024634
  31 H :    0.024712
  32 H :    0.003013
  33 H :    0.067648
Sum of atomic charges:    0.0000000

LOEWDIN ATOMIC CHARGES
----------------------
   0 S :    0.412270
   1 C :   -0.203331
   2 C :   -0.055007
   3 C :   -0.047369
   4 C :   -0.178276
   5 H :    0.035201
   6 C :   -0.039181
   7 H :    0.048005
   8 H :    0.017153
   9 C :   -0.031565
  10 H :    0.023813
  11 H :    0.018530
  12 C :   -0.070685
  13 H :    0.023313
  14 H :    0.027774
  15 H :    0.035240
  16 S :    0.370562
  17 C :   -0.158464
  18 C :   -0.063895
  19 C :   -0.052208
  20 C :   -0.204499
  21 H :    0.037813
  22 C :   -0.034512
  23 H :    0.028583
  24 H :    0.027731
  25 C :   -0.045460
  26 H :    0.022969
  27 H :    0.018835
  28 C :   -0.059016
  29 H :    0.025924
  30 H :    0.010509
  31 H :    0.019373
  32 H :    0.007418
  33 H :    0.032453

  Mayer bond orders larger than 0.100000
B(  0-S ,  1-C ) :   1.1367 B(  0-S ,  4-C ) :   1.1269 B(  1-C ,  2-C ) :   1.6220
B(  1-C , 32-H ) :   0.9734 B(  2-C ,  3-C ) :   1.1902 B(  2-C ,  6-C ) :   1.0231
B(  3-C ,  4-C ) :   1.6292 B(  3-C ,  5-H ) :   0.9906 B(  4-C , 20-C ) :   1.0033
B(  6-C ,  7-H ) :   0.9214 B(  6-C ,  8-H ) :   0.9346 B(  6-C ,  9-C ) :   1.0714
B(  9-C , 10-H ) :   0.9534 B(  9-C , 11-H ) :   0.9547 B(  9-C , 12-C ) :   1.0697
B( 12-C , 13-H ) :   0.9786 B( 12-C , 14-H ) :   0.9745 B( 12-C , 15-H ) :   0.9740
B( 16-S , 17-C ) :   1.1508 B( 16-S , 20-C ) :   1.1072 B( 17-C , 18-C ) :   1.6109
B( 17-C , 33-H ) :   0.9638 B( 18-C , 19-C ) :   1.2203 B( 18-C , 21-H ) :   0.9898
B( 19-C , 20-C ) :   1.6318 B( 19-C , 22-C ) :   1.0579 B( 22-C , 23-H ) :   0.9285
B( 22-C , 24-H ) :   0.9207 B( 22-C , 25-C ) :   1.0749 B( 25-C , 26-H ) :   0.9537
B( 25-C , 27-H ) :   0.9592 B( 25-C , 28-C ) :   1.0732 B( 28-C , 29-H ) :   0.9794
B( 28-C , 30-H ) :   0.9722 B( 28-C , 31-H ) :   0.9735

Dispersion correction           -0.015645391
FINAL SINGLE POINT ENERGY     -1339.855402628125

DIPOLE MOMENT
-------------
                                X             Y             Z
Electronic contribution:     -2.85004      10.66167      -0.66580
Nuclear contribution   :      2.73799     -11.14247       1.03713
                        -----------------------------------------
Total Dipole Moment    :     -0.11204      -0.48080       0.37133
                        -----------------------------------------
Magnitude (a.u.)       :      0.61775
Magnitude (Debye)      :      1.57019

Rotational constants in cm-1:     0.021718     0.008899     0.007153
Rotational constants in MHz :   651.096353   266.775984   214.447667

                             ****ORCA TERMINATED NORMALLY****
TOTAL RUN TIME: 0 days 0 hours 0 minutes 22 seconds 233 msec
