                         Program Version 4.2.1 -  RELEASE  -
|  1> ! wB97X-D3 SP def2-SVP
|  2> %pal
|  3> nprocs 24
|  4> end
|  5>
|  6> * xyz 0 1
|  7> S 	 -61.6431 	 8.66165 	 22.9853
|  8> C 	 -60.7884 	 9.98808 	 22.0852
|  9> C 	 -59.4833 	 9.64993 	 21.71
| 10> C 	 -59.2189 	 8.33722 	 22.0674
| 11> C 	 -60.1631 	 7.71761 	 22.8766
| 12> H 	 -58.3375 	 7.77205 	 22.0074
| 13> C 	 -58.6563 	 10.5356 	 20.8828
| 14> H 	 -59.2202 	 10.7949 	 19.9831
| 15> H 	 -57.8402 	 9.85583 	 20.5413
| 16> C 	 -58.0583 	 11.7289 	 21.6149
| 17> H 	 -57.4293 	 12.1936 	 20.9222
| 18> H 	 -58.892 	 12.3326 	 21.9697
| 19> C 	 -57.3116 	 11.293 	 22.7834
| 20> H 	 -56.8053 	 12.1835 	 23.1744
| 21> H 	 -57.877 	 10.832 	 23.6012
| 22> H 	 -56.5852 	 10.469 	 22.4527
| 23> S 	 -60.7907 	 6.19542 	 25.0538
| 24> C 	 -60.436 	 4.50265 	 24.9349
| 25> C 	 -59.7447 	 4.13583 	 23.8322
| 26> C 	 -59.522 	 5.18824 	 22.9016
| 27> C 	 -60.1675 	 6.36147 	 23.3857
| 28> H 	 -59.4324 	 3.13273 	 23.7481
| 29> C 	 -58.766 	 4.93451 	 21.6225
| 30> H 	 -58.0669 	 4.09945 	 21.7173
| 31> H 	 -58.1703 	 5.74144 	 21.2779
| 32> C 	 -59.6078 	 4.62332 	 20.472
| 33> H 	 -60.0138 	 3.65168 	 20.7009
| 34> H 	 -58.9717 	 4.65083 	 19.6005
| 35> C 	 -60.7832 	 5.56047 	 20.0808
| 36> H 	 -61.5656 	 5.41763 	 20.8555
| 37> H 	 -61.0306 	 5.29894 	 19.0599
| 38> H 	 -60.4146 	 6.59794 	 20.0414
| 39> H 	 -61.1878 	 10.9406 	 21.8304
| 40> H 	 -60.7934 	 3.77477 	 25.6666
| 41> *
| 42>
| 43>                          ****END OF INPUT****

CARTESIAN COORDINATES (ANGSTROEM)
---------------------------------
  S    -61.643100    8.661650   22.985300
  C    -60.788400    9.988080   22.085200
  C    -59.483300    9.649930   21.710000
  C    -59.218900    8.337220   22.067400
  C    -60.163100    7.717610   22.876600
  H    -58.337500    7.772050   22.007400
  C    -58.656300   10.535600   20.882800
  H    -59.220200   10.794900   19.983100
  H    -57.840200    9.855830   20.541300
  C    -58.058300   11.728900   21.614900
  H    -57.429300   12.193600   20.922200
  H    -58.892000   12.332600   21.969700
  C    -57.311600   11.293000   22.783400
  H    -56.805300   12.183500   23.174400
  H    -57.877000   10.832000   23.601200
  H    -56.585200   10.469000   22.452700
  S    -60.790700    6.195420   25.053800
  C    -60.436000    4.502650   24.934900
  C    -59.744700    4.135830   23.832200
  C    -59.522000    5.188240   22.901600
  C    -60.167500    6.361470   23.385700
  H    -59.432400    3.132730   23.748100
  C    -58.766000    4.934510   21.622500
  H    -58.066900    4.099450   21.717300
  H    -58.170300    5.741440   21.277900
  C    -59.607800    4.623320   20.472000
  H    -60.013800    3.651680   20.700900
  H    -58.971700    4.650830   19.600500
  C    -60.783200    5.560470   20.080800
  H    -61.565600    5.417630   20.855500
  H    -61.030600    5.298940   19.059900
  H    -60.414600    6.597940   20.041400
  H    -61.187800   10.940600   21.830400
  H    -60.793400    3.774770   25.666600

 Total Charge           Charge          ....    0
 Multiplicity           Mult            ....    1
 Number of Electrons    NEL             ....  134
 Basis Dimension        Dim             ....  322

ORBITAL ENERGIES
----------------

  NO   OCC          E(Eh)            E(eV)
   0   2.0000     -88.968394     -2420.9531
   1   2.0000     -88.968297     -2420.9505
   2   2.0000     -10.331256      -281.1278
   3   2.0000     -10.325644      -280.9750
   4   2.0000     -10.313110      -280.6340
   5   2.0000     -10.312357      -280.6135
   6   2.0000     -10.308818      -280.5172
   7   2.0000     -10.296456      -280.1808
   8   2.0000     -10.288386      -279.9612
   9   2.0000     -10.287525      -279.9378
  10   2.0000     -10.285740      -279.8892
  11   2.0000     -10.285355      -279.8787
  12   2.0000     -10.277608      -279.6679
  13   2.0000     -10.275444      -279.6091
  14   2.0000     -10.274036      -279.5707
  15   2.0000     -10.271795      -279.5097
  16   2.0000      -8.082951      -219.9483
  17   2.0000      -8.081610      -219.9118
  18   2.0000      -6.041345      -164.3934
  19   2.0000      -6.040040      -164.3578
  20   2.0000      -6.037740      -164.2953
  21   2.0000      -6.036409      -164.2590
  22   2.0000      -6.033585      -164.1822
  23   2.0000      -6.032448      -164.1513
  24   2.0000      -1.004675       -27.3386
  25   2.0000      -0.982308       -26.7299
  26   2.0000      -0.927334       -25.2340
  27   2.0000      -0.921753       -25.0822
  28   2.0000      -0.872152       -23.7325
  29   2.0000      -0.849374       -23.1127
  30   2.0000      -0.846889       -23.0450
  31   2.0000      -0.813140       -22.1267
  32   2.0000      -0.790491       -21.5104
  33   2.0000      -0.772433       -21.0190
  34   2.0000      -0.706545       -19.2261
  35   2.0000      -0.703204       -19.1352
  36   2.0000      -0.681726       -18.5507
  37   2.0000      -0.660184       -17.9645
  38   2.0000      -0.638327       -17.3698
  39   2.0000      -0.618907       -16.8413
  40   2.0000      -0.602102       -16.3840
  41   2.0000      -0.585895       -15.9430
  42   2.0000      -0.561919       -15.2906
  43   2.0000      -0.559598       -15.2274
  44   2.0000      -0.551106       -14.9964
  45   2.0000      -0.539823       -14.6893
  46   2.0000      -0.513539       -13.9741
  47   2.0000      -0.508502       -13.8371
  48   2.0000      -0.505456       -13.7541
  49   2.0000      -0.490415       -13.3449
  50   2.0000      -0.488025       -13.2798
  51   2.0000      -0.480679       -13.0799
  52   2.0000      -0.473371       -12.8811
  53   2.0000      -0.464920       -12.6511
  54   2.0000      -0.451174       -12.2771
  55   2.0000      -0.450453       -12.2575
  56   2.0000      -0.440683       -11.9916
  57   2.0000      -0.436347       -11.8736
  58   2.0000      -0.433578       -11.7983
  59   2.0000      -0.428013       -11.6468
  60   2.0000      -0.418339       -11.3836
  61   2.0000      -0.414808       -11.2875
  62   2.0000      -0.405715       -11.0401
  63   2.0000      -0.345974        -9.4144
  64   2.0000      -0.336434        -9.1548
  65   2.0000      -0.334992        -9.1156
  66   2.0000      -0.279748        -7.6123
  67   0.0000       0.018388         0.5004
  68   0.0000       0.069925         1.9028
  69   0.0000       0.097340         2.6487
  70   0.0000       0.107431         2.9233
  71   0.0000       0.139616         3.7991

MULLIKEN ATOMIC CHARGES
-----------------------
   0 S :    0.104504
   1 C :   -0.108612
   2 C :   -0.086017
   3 C :    0.012086
   4 C :   -0.139961
   5 H :   -0.008263
   6 C :    0.036245
   7 H :    0.040737
   8 H :    0.015794
   9 C :    0.004876
  10 H :    0.021967
  11 H :    0.025866
  12 C :   -0.079512
  13 H :    0.037610
  14 H :    0.052318
  15 H :    0.025101
  16 S :    0.108702
  17 C :   -0.081914
  18 C :   -0.027417
  19 C :   -0.034259
  20 C :   -0.163118
  21 H :   -0.000735
  22 C :    0.120195
  23 H :    0.021899
  24 H :   -0.001526
  25 C :   -0.092274
  26 H :    0.013421
  27 H :    0.020837
  28 C :   -0.043078
  29 H :    0.054783
  30 H :    0.031608
  31 H :    0.033550
  32 H :    0.028262
  33 H :    0.056326
Sum of atomic charges:    0.0000000

LOEWDIN ATOMIC CHARGES
----------------------
   0 S :    0.381545
   1 C :   -0.175042
   2 C :   -0.062094
   3 C :   -0.067884
   4 C :   -0.187347
   5 H :    0.021140
   6 C :   -0.035534
   7 H :    0.034313
   8 H :    0.030919
   9 C :   -0.035579
  10 H :    0.020993
  11 H :    0.026327
  12 C :   -0.068061
  13 H :    0.028679
  14 H :    0.030065
  15 H :    0.028823
  16 S :    0.398216
  17 C :   -0.188146
  18 C :   -0.067881
  19 C :   -0.044434
  20 C :   -0.187376
  21 H :    0.026241
  22 C :   -0.033791
  23 H :    0.037579
  24 H :    0.021247
  25 C :   -0.039076
  26 H :    0.017349
  27 H :    0.021838
  28 C :   -0.062851
  29 H :    0.031400
  30 H :    0.025369
  31 H :    0.026133
  32 H :    0.016840
  33 H :    0.030082

  Mayer bond orders larger than 0.100000
B(  0-S ,  1-C ) :   1.1323 B(  0-S ,  4-C ) :   1.1468 B(  1-C ,  2-C ) :   1.5884
B(  1-C ,  4-C ) :   0.1141 B(  1-C , 32-H ) :   0.9687 B(  2-C ,  3-C ) :   1.2477
B(  2-C ,  6-C ) :   1.0080 B(  3-C ,  4-C ) :   1.5805 B(  3-C ,  5-H ) :   0.9933
B(  4-C , 20-C ) :   1.0489 B(  6-C ,  7-H ) :   0.9387 B(  6-C ,  8-H ) :   0.9394
B(  6-C ,  9-C ) :   1.0751 B(  9-C , 10-H ) :   0.9500 B(  9-C , 11-H ) :   0.9478
B(  9-C , 12-C ) :   1.0936 B( 12-C , 13-H ) :   0.9686 B( 12-C , 14-H ) :   0.9652
B( 12-C , 15-H ) :   0.9721 B( 16-S , 17-C ) :   1.1394 B( 16-S , 20-C ) :   1.1454
B( 17-C , 18-C ) :   1.6371 B( 17-C , 20-C ) :   0.1004 B( 17-C , 33-H ) :   0.9608
B( 18-C , 19-C ) :   1.2248 B( 18-C , 21-H ) :   0.9963 B( 19-C , 20-C ) :   1.5759
B( 19-C , 22-C ) :   1.0408 B( 22-C , 23-H ) :   0.9251 B( 22-C , 24-H ) :   0.9263
B( 22-C , 25-C ) :   1.0910 B( 25-C , 26-H ) :   0.9518 B( 25-C , 27-H ) :   0.9548
B( 25-C , 28-C ) :   1.0844 B( 28-C , 29-H ) :   0.9714 B( 28-C , 30-H ) :   0.9738
B( 28-C , 31-H ) :   0.9730

Dispersion correction           -0.015888106
FINAL SINGLE POINT ENERGY     -1339.860599791421

DIPOLE MOMENT
-------------
                                X             Y             Z
Electronic contribution:    -14.05395      -4.87483      16.98075
Nuclear contribution   :     14.54361       4.79523     -17.40493
                        -----------------------------------------
Total Dipole Moment    :      0.48966      -0.07960      -0.42418
                        -----------------------------------------
Magnitude (a.u.)       :      0.65271
Magnitude (Debye)      :      1.65906

Rotational constants in cm-1:     0.020794     0.009033     0.007886
Rotational constants in MHz :   623.385079   270.812550   236.420515

                             ****ORCA TERMINATED NORMALLY****
TOTAL RUN TIME: 0 days 0 hours 0 minutes 23 seconds 112 msec
