                         Program Version 4.2.1 -  RELEASE  -
|  1> ! wB97X-D3 SP def2-SVP
|  2> %pal
|  3> nprocs 24
|  4> end
|  5>
|  6> * xyz 0 1
|  7> S 	 -99.9732 	 4.38672 	 -115.65
|  8> C 	 -101.014 	 4.82621 	 -117.022
|  9> C 	 -102.219 	 4.18696 	 -116.74
| 10> C 	 -102.278 	 3.29258 	 -115.633
| 11> C 	 -101.049 	 3.20142 	 -114.99
| 12> H 	 -103.152 	 2.87133 	 -115.142
| 13> C 	 -103.462 	 4.24805 	 -117.657
| 14> H 	 -104.222 	 3.57216 	 -117.239
| 15> H 	 -103.109 	 3.9667 	 -118.602
| 16> C 	 -104.061 	 5.67238 	 -117.665
| 17> H 	 -104.717 	 5.74402 	 -116.807
| 18> H 	 -103.318 	 6.44646 	 -117.459
| 19> C 	 -104.949 	 5.83297 	 -118.93
| 20> H 	 -104.329 	 5.96425 	 -119.885
| 21> H 	 -105.556 	 4.90127 	 -119.091
| 22> H 	 -105.647 	 6.67322 	 -118.836
| 23> S 	 -100.466 	 3.67899 	 -112.275
| 24> C 	 -100.055 	 2.1881 	 -111.372
| 25> C 	 -100.55 	 1.07326 	 -111.984
| 26> C 	 -100.908 	 1.32846 	 -113.357
| 27> C 	 -100.856 	 2.66347 	 -113.657
| 28> H 	 -100.606 	 0.141981 	 -111.494
| 29> C 	 -101.397 	 0.237216 	 -114.217
| 30> H 	 -102.441 	 0.134948 	 -114.32
| 31> H 	 -101.135 	 -0.775111 	 -113.761
| 32> C 	 -100.78 	 0.173099 	 -115.604
| 33> H 	 -99.715 	 0.41993 	 -115.497
| 34> H 	 -101.347 	 0.942623 	 -116.134
| 35> C 	 -100.724 	 -1.25619 	 -116.255
| 36> H 	 -100.038 	 -1.23747 	 -117.114
| 37> H 	 -101.714 	 -1.55073 	 -116.615
| 38> H 	 -100.217 	 -1.88988 	 -115.539
| 39> H 	 -100.864 	 5.69061 	 -117.633
| 40> H 	 -99.6388 	 2.31258 	 -110.331
| 41> *
| 42>
| 43>                          ****END OF INPUT****

CARTESIAN COORDINATES (ANGSTROEM)
---------------------------------
  S    -99.973200    4.386720  -115.650000
  C    -101.014000    4.826210  -117.022000
  C    -102.219000    4.186960  -116.740000
  C    -102.278000    3.292580  -115.633000
  C    -101.049000    3.201420  -114.990000
  H    -103.152000    2.871330  -115.142000
  C    -103.462000    4.248050  -117.657000
  H    -104.222000    3.572160  -117.239000
  H    -103.109000    3.966700  -118.602000
  C    -104.061000    5.672380  -117.665000
  H    -104.717000    5.744020  -116.807000
  H    -103.318000    6.446460  -117.459000
  C    -104.949000    5.832970  -118.930000
  H    -104.329000    5.964250  -119.885000
  H    -105.556000    4.901270  -119.091000
  H    -105.647000    6.673220  -118.836000
  S    -100.466000    3.678990  -112.275000
  C    -100.055000    2.188100  -111.372000
  C    -100.550000    1.073260  -111.984000
  C    -100.908000    1.328460  -113.357000
  C    -100.856000    2.663470  -113.657000
  H    -100.606000    0.141981  -111.494000
  C    -101.397000    0.237216  -114.217000
  H    -102.441000    0.134948  -114.320000
  H    -101.135000   -0.775111  -113.761000
  C    -100.780000    0.173099  -115.604000
  H    -99.715000    0.419930  -115.497000
  H    -101.347000    0.942623  -116.134000
  C    -100.724000   -1.256190  -116.255000
  H    -100.038000   -1.237470  -117.114000
  H    -101.714000   -1.550730  -116.615000
  H    -100.217000   -1.889880  -115.539000
  H    -100.864000    5.690610  -117.633000
  H    -99.638800    2.312580  -110.331000

 Total Charge           Charge          ....    0
 Multiplicity           Mult            ....    1
 Number of Electrons    NEL             ....  134
 Basis Dimension        Dim             ....  322

ORBITAL ENERGIES
----------------

  NO   OCC          E(Eh)            E(eV)
   0   2.0000     -88.965811     -2420.8828
   1   2.0000     -88.963586     -2420.8222
   2   2.0000     -10.326761      -281.0054
   3   2.0000     -10.323971      -280.9295
   4   2.0000     -10.322761      -280.8966
   5   2.0000     -10.317186      -280.7449
   6   2.0000     -10.303612      -280.3755
   7   2.0000     -10.298919      -280.2478
   8   2.0000     -10.293405      -280.0978
   9   2.0000     -10.293283      -280.0945
  10   2.0000     -10.289069      -279.9798
  11   2.0000     -10.287005      -279.9236
  12   2.0000     -10.286347      -279.9057
  13   2.0000     -10.284719      -279.8614
  14   2.0000     -10.278525      -279.6929
  15   2.0000     -10.276615      -279.6409
  16   2.0000      -8.080110      -219.8710
  17   2.0000      -8.078144      -219.8175
  18   2.0000      -6.038733      -164.3223
  19   2.0000      -6.036605      -164.2644
  20   2.0000      -6.034990      -164.2204
  21   2.0000      -6.032532      -164.1536
  22   2.0000      -6.030463      -164.0972
  23   2.0000      -6.029056      -164.0589
  24   2.0000      -1.008415       -27.4404
  25   2.0000      -0.983474       -26.7617
  26   2.0000      -0.909512       -24.7491
  27   2.0000      -0.908497       -24.7214
  28   2.0000      -0.868875       -23.6433
  29   2.0000      -0.847581       -23.0638
  30   2.0000      -0.842071       -22.9139
  31   2.0000      -0.813971       -22.1493
  32   2.0000      -0.779375       -21.2079
  33   2.0000      -0.766824       -20.8663
  34   2.0000      -0.708889       -19.2899
  35   2.0000      -0.701211       -19.0809
  36   2.0000      -0.681637       -18.5483
  37   2.0000      -0.661971       -18.0131
  38   2.0000      -0.644810       -17.5462
  39   2.0000      -0.615216       -16.7409
  40   2.0000      -0.602050       -16.3826
  41   2.0000      -0.572405       -15.5759
  42   2.0000      -0.569153       -15.4874
  43   2.0000      -0.554818       -15.0974
  44   2.0000      -0.522294       -14.2124
  45   2.0000      -0.520613       -14.1666
  46   2.0000      -0.515376       -14.0241
  47   2.0000      -0.513015       -13.9598
  48   2.0000      -0.506215       -13.7748
  49   2.0000      -0.501261       -13.6400
  50   2.0000      -0.490685       -13.3522
  51   2.0000      -0.477118       -12.9830
  52   2.0000      -0.475694       -12.9443
  53   2.0000      -0.466155       -12.6847
  54   2.0000      -0.461640       -12.5619
  55   2.0000      -0.447506       -12.1772
  56   2.0000      -0.446622       -12.1532
  57   2.0000      -0.434425       -11.8213
  58   2.0000      -0.429349       -11.6832
  59   2.0000      -0.418079       -11.3765
  60   2.0000      -0.415707       -11.3120
  61   2.0000      -0.408674       -11.1206
  62   2.0000      -0.400457       -10.8970
  63   2.0000      -0.340298        -9.2600
  64   2.0000      -0.331030        -9.0078
  65   2.0000      -0.323269        -8.7966
  66   2.0000      -0.297189        -8.0869
  67   0.0000       0.022577         0.6144
  68   0.0000       0.063682         1.7329
  69   0.0000       0.099802         2.7157
  70   0.0000       0.119285         3.2459
  71   0.0000       0.124979         3.4008

MULLIKEN ATOMIC CHARGES
-----------------------
   0 S :    0.095589
   1 C :   -0.099683
   2 C :   -0.124617
   3 C :    0.020563
   4 C :   -0.165808
   5 H :    0.030827
   6 C :    0.077067
   7 H :    0.028164
   8 H :    0.029780
   9 C :   -0.078258
  10 H :    0.020573
  11 H :    0.032676
  12 C :   -0.082430
  13 H :    0.045355
  14 H :    0.038235
  15 H :    0.038834
  16 S :    0.108164
  17 C :   -0.130319
  18 C :    0.020630
  19 C :   -0.034370
  20 C :   -0.142378
  21 H :    0.007543
  22 C :    0.060699
  23 H :    0.026132
  24 H :    0.002047
  25 C :   -0.128824
  26 H :    0.032959
  27 H :    0.051668
  28 C :   -0.019591
  29 H :    0.033743
  30 H :    0.035850
  31 H :    0.028883
  32 H :    0.060212
  33 H :    0.080086
Sum of atomic charges:    0.0000000

LOEWDIN ATOMIC CHARGES
----------------------
   0 S :    0.414693
   1 C :   -0.199341
   2 C :   -0.056550
   3 C :   -0.073742
   4 C :   -0.192467
   5 H :    0.036307
   6 C :   -0.022169
   7 H :    0.031206
   8 H :    0.022964
   9 C :   -0.044048
  10 H :    0.023657
  11 H :    0.021251
  12 C :   -0.074399
  13 H :    0.030802
  14 H :    0.030064
  15 H :    0.023568
  16 S :    0.377575
  17 C :   -0.170626
  18 C :   -0.057788
  19 C :   -0.054259
  20 C :   -0.197217
  21 H :    0.027112
  22 C :   -0.039513
  23 H :    0.024321
  24 H :    0.030465
  25 C :   -0.044894
  26 H :    0.026826
  27 H :    0.024236
  28 C :   -0.061982
  29 H :    0.029069
  30 H :    0.023507
  31 H :    0.023660
  32 H :    0.029973
  33 H :    0.037737

  Mayer bond orders larger than 0.100000
B(  0-S ,  1-C ) :   1.1279 B(  0-S ,  4-C ) :   1.1815 B(  1-C ,  2-C ) :   1.5746
B(  1-C ,  4-C ) :   0.1054 B(  1-C , 32-H ) :   0.9760 B(  2-C ,  3-C ) :   1.2825
B(  2-C ,  6-C ) :   1.0081 B(  3-C ,  4-C ) :   1.5271 B(  3-C ,  5-H ) :   0.9831
B(  4-C , 20-C ) :   1.0507 B(  6-C ,  7-H ) :   0.9458 B(  6-C ,  8-H ) :   0.9551
B(  6-C ,  9-C ) :   1.0443 B(  9-C , 10-H ) :   0.9532 B(  9-C , 11-H ) :   0.9685
B(  9-C , 12-C ) :   1.0667 B( 12-C , 13-H ) :   0.9780 B( 12-C , 14-H ) :   0.9714
B( 12-C , 15-H ) :   0.9766 B( 16-S , 17-C ) :   1.1333 B( 16-S , 20-C ) :   1.1227
B( 17-C , 18-C ) :   1.6232 B( 17-C , 33-H ) :   0.9604 B( 18-C , 19-C ) :   1.2203
B( 18-C , 21-H ) :   0.9974 B( 19-C , 20-C ) :   1.6247 B( 19-C , 22-C ) :   1.0492
B( 22-C , 23-H ) :   0.9297 B( 22-C , 24-H ) :   0.9316 B( 22-C , 25-C ) :   1.0469
B( 25-C , 26-H ) :   0.9626 B( 25-C , 27-H ) :   0.9481 B( 25-C , 28-C ) :   1.0811
B( 28-C , 29-H ) :   0.9765 B( 28-C , 30-H ) :   0.9753 B( 28-C , 31-H ) :   0.9701

Dispersion correction           -0.014396793
FINAL SINGLE POINT ENERGY     -1339.852378768149

DIPOLE MOMENT
-------------
                                X             Y             Z
Electronic contribution:     15.26253       9.22392      19.09765
Nuclear contribution   :    -15.77889      -9.43182     -19.14131
                        -----------------------------------------
Total Dipole Moment    :     -0.51636      -0.20790      -0.04366
                        -----------------------------------------
Magnitude (a.u.)       :      0.55835
Magnitude (Debye)      :      1.41921

Rotational constants in cm-1:     0.019722     0.008191     0.006751
Rotational constants in MHz :   591.252965   245.562380   202.383424

                             ****ORCA TERMINATED NORMALLY****
TOTAL RUN TIME: 0 days 0 hours 0 minutes 21 seconds 716 msec
