                         Program Version 4.2.1 -  RELEASE  -
|  1> ! wB97X-D3 SP def2-SVP
|  2> %pal
|  3> nprocs 24
|  4> end
|  5>
|  6> * xyz 0 1
|  7> S 	 -122.609 	 66.8928 	 -38.5437
|  8> C 	 -122.73 	 67.6504 	 -37.0341
|  9> C 	 -123.73 	 67.0709 	 -36.2403
| 10> C 	 -124.591 	 66.255 	 -37.0567
| 11> C 	 -124.094 	 65.9317 	 -38.3132
| 12> H 	 -125.608 	 65.9025 	 -36.738
| 13> C 	 -124.263 	 67.421 	 -34.9001
| 14> H 	 -125.044 	 66.749 	 -34.5385
| 15> H 	 -124.643 	 68.45 	 -35.0048
| 16> C 	 -123.371 	 67.3859 	 -33.6829
| 17> H 	 -123.914 	 67.2585 	 -32.7881
| 18> H 	 -122.878 	 66.4422 	 -33.6287
| 19> C 	 -122.351 	 68.5161 	 -33.6061
| 20> H 	 -121.754 	 68.4488 	 -34.4853
| 21> H 	 -122.817 	 69.5183 	 -33.6786
| 22> H 	 -121.692 	 68.4446 	 -32.7143
| 23> S 	 -124.943 	 66.398 	 -40.9489
| 24> C 	 -125.594 	 65.1102 	 -41.9138
| 25> C 	 -125.756 	 64.046 	 -41.051
| 26> C 	 -125.308 	 64.1771 	 -39.6719
| 27> C 	 -124.659 	 65.3822 	 -39.4943
| 28> H 	 -126.022 	 63.0867 	 -41.4906
| 29> C 	 -125.51 	 63.0608 	 -38.6419
| 30> H 	 -126.534 	 62.5218 	 -38.6952
| 31> H 	 -125.482 	 63.6236 	 -37.8051
| 32> C 	 -124.358 	 62.1345 	 -38.4712
| 33> H 	 -123.506 	 62.6611 	 -38.0265
| 34> H 	 -124.188 	 61.8124 	 -39.5016
| 35> C 	 -124.518 	 60.9439 	 -37.4704
| 36> H 	 -123.69 	 60.2667 	 -37.6868
| 37> H 	 -125.458 	 60.3581 	 -37.5386
| 38> H 	 -124.307 	 61.3572 	 -36.4348
| 39> H 	 -122.176 	 68.5031 	 -36.7457
| 40> H 	 -126.002 	 65.0864 	 -42.9417
| 41> *
| 42>
| 43>                          ****END OF INPUT****

CARTESIAN COORDINATES (ANGSTROEM)
---------------------------------
  S    -122.609000   66.892800  -38.543700
  C    -122.730000   67.650400  -37.034100
  C    -123.730000   67.070900  -36.240300
  C    -124.591000   66.255000  -37.056700
  C    -124.094000   65.931700  -38.313200
  H    -125.608000   65.902500  -36.738000
  C    -124.263000   67.421000  -34.900100
  H    -125.044000   66.749000  -34.538500
  H    -124.643000   68.450000  -35.004800
  C    -123.371000   67.385900  -33.682900
  H    -123.914000   67.258500  -32.788100
  H    -122.878000   66.442200  -33.628700
  C    -122.351000   68.516100  -33.606100
  H    -121.754000   68.448800  -34.485300
  H    -122.817000   69.518300  -33.678600
  H    -121.692000   68.444600  -32.714300
  S    -124.943000   66.398000  -40.948900
  C    -125.594000   65.110200  -41.913800
  C    -125.756000   64.046000  -41.051000
  C    -125.308000   64.177100  -39.671900
  C    -124.659000   65.382200  -39.494300
  H    -126.022000   63.086700  -41.490600
  C    -125.510000   63.060800  -38.641900
  H    -126.534000   62.521800  -38.695200
  H    -125.482000   63.623600  -37.805100
  C    -124.358000   62.134500  -38.471200
  H    -123.506000   62.661100  -38.026500
  H    -124.188000   61.812400  -39.501600
  C    -124.518000   60.943900  -37.470400
  H    -123.690000   60.266700  -37.686800
  H    -125.458000   60.358100  -37.538600
  H    -124.307000   61.357200  -36.434800
  H    -122.176000   68.503100  -36.745700
  H    -126.002000   65.086400  -42.941700

 Total Charge           Charge          ....    0
 Multiplicity           Mult            ....    1
 Number of Electrons    NEL             ....  134
 Basis Dimension        Dim             ....  322

ORBITAL ENERGIES
----------------

  NO   OCC          E(Eh)            E(eV)
   0   2.0000     -88.965150     -2420.8648
   1   2.0000     -88.963182     -2420.8113
   2   2.0000     -10.329356      -281.0761
   3   2.0000     -10.328431      -281.0509
   4   2.0000     -10.319321      -280.8030
   5   2.0000     -10.315945      -280.7111
   6   2.0000     -10.306127      -280.4440
   7   2.0000     -10.305103      -280.4161
   8   2.0000     -10.304021      -280.3867
   9   2.0000     -10.291264      -280.0395
  10   2.0000     -10.291055      -280.0338
  11   2.0000     -10.285694      -279.8880
  12   2.0000     -10.285651      -279.8868
  13   2.0000     -10.282524      -279.8017
  14   2.0000     -10.278483      -279.6917
  15   2.0000     -10.276898      -279.6486
  16   2.0000      -8.080573      -219.8836
  17   2.0000      -8.077268      -219.7936
  18   2.0000      -6.038935      -164.3278
  19   2.0000      -6.036030      -164.2487
  20   2.0000      -6.034856      -164.2168
  21   2.0000      -6.031786      -164.1332
  22   2.0000      -6.031542      -164.1266
  23   2.0000      -6.027804      -164.0249
  24   2.0000      -1.008590       -27.4451
  25   2.0000      -0.984618       -26.7928
  26   2.0000      -0.920232       -25.0408
  27   2.0000      -0.913174       -24.8487
  28   2.0000      -0.874939       -23.8083
  29   2.0000      -0.854516       -23.2526
  30   2.0000      -0.841383       -22.8952
  31   2.0000      -0.811034       -22.0694
  32   2.0000      -0.785443       -21.3730
  33   2.0000      -0.777802       -21.1651
  34   2.0000      -0.713137       -19.4054
  35   2.0000      -0.705259       -19.1911
  36   2.0000      -0.688331       -18.7304
  37   2.0000      -0.656634       -17.8679
  38   2.0000      -0.644815       -17.5463
  39   2.0000      -0.617303       -16.7977
  40   2.0000      -0.592977       -16.1357
  41   2.0000      -0.573614       -15.6088
  42   2.0000      -0.572424       -15.5765
  43   2.0000      -0.551017       -14.9939
  44   2.0000      -0.545762       -14.8509
  45   2.0000      -0.524623       -14.2757
  46   2.0000      -0.519786       -14.1441
  47   2.0000      -0.516116       -14.0442
  48   2.0000      -0.510227       -13.8840
  49   2.0000      -0.498420       -13.5627
  50   2.0000      -0.491113       -13.3639
  51   2.0000      -0.486297       -13.2328
  52   2.0000      -0.479598       -13.0505
  53   2.0000      -0.464956       -12.6521
  54   2.0000      -0.461468       -12.5572
  55   2.0000      -0.447942       -12.1891
  56   2.0000      -0.439351       -11.9554
  57   2.0000      -0.431699       -11.7471
  58   2.0000      -0.427158       -11.6236
  59   2.0000      -0.421756       -11.4766
  60   2.0000      -0.415559       -11.3079
  61   2.0000      -0.409113       -11.1325
  62   2.0000      -0.406516       -11.0619
  63   2.0000      -0.349875        -9.5206
  64   2.0000      -0.328125        -8.9287
  65   2.0000      -0.321705        -8.7540
  66   2.0000      -0.294930        -8.0255
  67   0.0000       0.021863         0.5949
  68   0.0000       0.065617         1.7855
  69   0.0000       0.108270         2.9462
  70   0.0000       0.115285         3.1371
  71   0.0000       0.123300         3.3552

MULLIKEN ATOMIC CHARGES
-----------------------
   0 S :    0.111673
   1 C :   -0.109568
   2 C :   -0.068992
   3 C :    0.001880
   4 C :   -0.195228
   5 H :    0.044944
   6 C :    0.025041
   7 H :    0.029369
   8 H :    0.043293
   9 C :   -0.030268
  10 H :    0.007176
  11 H :    0.006437
  12 C :   -0.049295
  13 H :    0.013547
  14 H :    0.027925
  15 H :    0.043080
  16 S :    0.107332
  17 C :   -0.096090
  18 C :   -0.055685
  19 C :   -0.059224
  20 C :   -0.126278
  21 H :    0.018018
  22 C :    0.153404
  23 H :    0.047304
  24 H :   -0.040354
  25 C :   -0.101124
  26 H :    0.040370
  27 H :    0.024991
  28 C :   -0.062476
  29 H :    0.038046
  30 H :    0.040470
  31 H :    0.042091
  32 H :    0.051337
  33 H :    0.076855
Sum of atomic charges:    0.0000000

LOEWDIN ATOMIC CHARGES
----------------------
   0 S :    0.425043
   1 C :   -0.202660
   2 C :   -0.068033
   3 C :   -0.053032
   4 C :   -0.197121
   5 H :    0.039756
   6 C :   -0.036129
   7 H :    0.037650
   8 H :    0.038337
   9 C :   -0.043906
  10 H :    0.018195
  11 H :    0.022837
  12 C :   -0.066418
  13 H :    0.017210
  14 H :    0.025374
  15 H :    0.031697
  16 S :    0.393584
  17 C :   -0.199963
  18 C :   -0.080751
  19 C :   -0.043938
  20 C :   -0.197284
  21 H :    0.025237
  22 C :   -0.034936
  23 H :    0.043504
  24 H :    0.010832
  25 C :   -0.042231
  26 H :    0.032393
  27 H :    0.019800
  28 C :   -0.070753
  29 H :    0.029667
  30 H :    0.024558
  31 H :    0.032520
  32 H :    0.021556
  33 H :    0.047406

  Mayer bond orders larger than 0.100000
B(  0-S ,  1-C ) :   1.1781 B(  0-S ,  4-C ) :   1.1335 B(  1-C ,  2-C ) :   1.5517
B(  1-C , 32-H ) :   0.9696 B(  2-C ,  3-C ) :   1.2653 B(  2-C ,  6-C ) :   1.0327
B(  3-C ,  4-C ) :   1.5675 B(  3-C ,  5-H ) :   0.9775 B(  4-C , 20-C ) :   1.0679
B(  6-C ,  7-H ) :   0.9428 B(  6-C ,  8-H ) :   0.9376 B(  6-C ,  9-C ) :   1.0762
B(  9-C , 10-H ) :   0.9540 B(  9-C , 11-H ) :   0.9442 B(  9-C , 12-C ) :   1.0751
B( 12-C , 13-H ) :   0.9741 B( 12-C , 14-H ) :   0.9760 B( 12-C , 15-H ) :   0.9715
B( 16-S , 17-C ) :   1.1386 B( 16-S , 20-C ) :   1.1242 B( 17-C , 18-C ) :   1.6244
B( 17-C , 33-H ) :   0.9629 B( 18-C , 19-C ) :   1.2295 B( 18-C , 21-H ) :   0.9818
B( 19-C , 20-C ) :   1.5969 B( 19-C , 22-C ) :   1.0332 B( 22-C , 23-H ) :   0.9391
B( 22-C , 24-H ) :   0.8973 B( 22-C , 25-C ) :   1.0725 B( 25-C , 26-H ) :   0.9542
B( 25-C , 27-H ) :   0.9625 B( 25-C , 28-C ) :   1.0736 B( 28-C , 29-H ) :   0.9741
B( 28-C , 30-H ) :   0.9754 B( 28-C , 31-H ) :   0.9781

Dispersion correction           -0.013780277
FINAL SINGLE POINT ENERGY     -1339.841697824831

DIPOLE MOMENT
-------------
                                X             Y             Z
Electronic contribution:     -0.00362      10.64596     -24.03059
Nuclear contribution   :     -0.31071     -10.86335      24.53739
                        -----------------------------------------
Total Dipole Moment    :     -0.31433      -0.21739       0.50680
                        -----------------------------------------
Magnitude (a.u.)       :      0.63475
Magnitude (Debye)      :      1.61340

Rotational constants in cm-1:     0.019459     0.008106     0.006300
Rotational constants in MHz :   583.377917   243.005949   188.860098

                             ****ORCA TERMINATED NORMALLY****
TOTAL RUN TIME: 0 days 0 hours 0 minutes 20 seconds 234 msec
