                         Program Version 4.2.1 -  RELEASE  -
|  1> ! wB97X-D3 SP def2-SVP
|  2> %pal
|  3> nprocs 24
|  4> end
|  5>
|  6> * xyz 0 1
|  7> S 	 -74.4257 	 6.88967 	 -111.076
|  8> C 	 -75.7483 	 7.794 	 -110.427
|  9> C 	 -76.737 	 6.92818 	 -109.98
| 10> C 	 -76.3107 	 5.5839 	 -110.07
| 11> C 	 -75.1371 	 5.37418 	 -110.69
| 12> H 	 -77.0106 	 4.7664 	 -109.754
| 13> C 	 -77.983 	 7.41187 	 -109.394
| 14> H 	 -77.7963 	 8.48011 	 -109.142
| 15> H 	 -78.1021 	 7.02974 	 -108.394
| 16> C 	 -79.2471 	 7.24313 	 -110.211
| 17> H 	 -79.1295 	 7.9337 	 -111.073
| 18> H 	 -79.0832 	 6.28418 	 -110.749
| 19> C 	 -80.5991 	 7.45122 	 -109.564
| 20> H 	 -80.7757 	 6.74174 	 -108.688
| 21> H 	 -80.6602 	 8.47261 	 -109.167
| 22> H 	 -81.4188 	 7.30962 	 -110.316
| 23> S 	 -72.7687 	 4.06207 	 -110.935
| 24> C 	 -72.6976 	 2.43855 	 -111.471
| 25> C 	 -73.9494 	 1.87537 	 -111.383
| 26> C 	 -75.0441 	 2.78663 	 -111.128
| 27> C 	 -74.5159 	 4.06831 	 -110.976
| 28> H 	 -74.1667 	 0.885694 	 -111.524
| 29> C 	 -76.4968 	 2.38174 	 -111.073
| 30> H 	 -77.2183 	 3.21668 	 -111.036
| 31> H 	 -76.626 	 1.86066 	 -110.081
| 32> C 	 -76.93 	 1.42427 	 -112.193
| 33> H 	 -76.2837 	 0.513469 	 -112.198
| 34> H 	 -76.8545 	 1.85186 	 -113.209
| 35> C 	 -78.4629 	 1.0167 	 -111.976
| 36> H 	 -78.9533 	 0.909037 	 -112.985
| 37> H 	 -78.9298 	 1.76322 	 -111.367
| 38> H 	 -78.5172 	 0.126348 	 -111.424
| 39> H 	 -75.7024 	 8.84923 	 -110.101
| 40> H 	 -71.8134 	 1.85958 	 -111.657
| 41> *
| 42>
| 43>                          ****END OF INPUT****

CARTESIAN COORDINATES (ANGSTROEM)
---------------------------------
  S    -74.425700    6.889670  -111.076000
  C    -75.748300    7.794000  -110.427000
  C    -76.737000    6.928180  -109.980000
  C    -76.310700    5.583900  -110.070000
  C    -75.137100    5.374180  -110.690000
  H    -77.010600    4.766400  -109.754000
  C    -77.983000    7.411870  -109.394000
  H    -77.796300    8.480110  -109.142000
  H    -78.102100    7.029740  -108.394000
  C    -79.247100    7.243130  -110.211000
  H    -79.129500    7.933700  -111.073000
  H    -79.083200    6.284180  -110.749000
  C    -80.599100    7.451220  -109.564000
  H    -80.775700    6.741740  -108.688000
  H    -80.660200    8.472610  -109.167000
  H    -81.418800    7.309620  -110.316000
  S    -72.768700    4.062070  -110.935000
  C    -72.697600    2.438550  -111.471000
  C    -73.949400    1.875370  -111.383000
  C    -75.044100    2.786630  -111.128000
  C    -74.515900    4.068310  -110.976000
  H    -74.166700    0.885694  -111.524000
  C    -76.496800    2.381740  -111.073000
  H    -77.218300    3.216680  -111.036000
  H    -76.626000    1.860660  -110.081000
  C    -76.930000    1.424270  -112.193000
  H    -76.283700    0.513469  -112.198000
  H    -76.854500    1.851860  -113.209000
  C    -78.462900    1.016700  -111.976000
  H    -78.953300    0.909037  -112.985000
  H    -78.929800    1.763220  -111.367000
  H    -78.517200    0.126348  -111.424000
  H    -75.702400    8.849230  -110.101000
  H    -71.813400    1.859580  -111.657000

 Total Charge           Charge          ....    0
 Multiplicity           Mult            ....    1
 Number of Electrons    NEL             ....  134
 Basis Dimension        Dim             ....  322

ORBITAL ENERGIES
----------------

  NO   OCC          E(Eh)            E(eV)
   0   2.0000     -88.964326     -2420.8424
   1   2.0000     -88.964161     -2420.8379
   2   2.0000     -10.328169      -281.0438
   3   2.0000     -10.325107      -280.9605
   4   2.0000     -10.313993      -280.6580
   5   2.0000     -10.311441      -280.5886
   6   2.0000     -10.306216      -280.4464
   7   2.0000     -10.302914      -280.3566
   8   2.0000     -10.295486      -280.1544
   9   2.0000     -10.294473      -280.1268
  10   2.0000     -10.291085      -280.0347
  11   2.0000     -10.288775      -279.9718
  12   2.0000     -10.288221      -279.9567
  13   2.0000     -10.288112      -279.9538
  14   2.0000     -10.285301      -279.8773
  15   2.0000     -10.280625      -279.7500
  16   2.0000      -8.079934      -219.8662
  17   2.0000      -8.079770      -219.8617
  18   2.0000      -6.038457      -164.3148
  19   2.0000      -6.038241      -164.3089
  20   2.0000      -6.034229      -164.1997
  21   2.0000      -6.034193      -164.1987
  22   2.0000      -6.030734      -164.1046
  23   2.0000      -6.030449      -164.0969
  24   2.0000      -1.014920       -27.6174
  25   2.0000      -0.992028       -26.9944
  26   2.0000      -0.918410       -24.9912
  27   2.0000      -0.909361       -24.7450
  28   2.0000      -0.870593       -23.6900
  29   2.0000      -0.853584       -23.2272
  30   2.0000      -0.845164       -22.9981
  31   2.0000      -0.818431       -22.2707
  32   2.0000      -0.783212       -21.3123
  33   2.0000      -0.772500       -21.0208
  34   2.0000      -0.708824       -19.2881
  35   2.0000      -0.701555       -19.0903
  36   2.0000      -0.694303       -18.8930
  37   2.0000      -0.662513       -18.0279
  38   2.0000      -0.639223       -17.3941
  39   2.0000      -0.626778       -17.0555
  40   2.0000      -0.604785       -16.4570
  41   2.0000      -0.570373       -15.5206
  42   2.0000      -0.562488       -15.3061
  43   2.0000      -0.551325       -15.0023
  44   2.0000      -0.529563       -14.4101
  45   2.0000      -0.527414       -14.3517
  46   2.0000      -0.526021       -14.3138
  47   2.0000      -0.513218       -13.9654
  48   2.0000      -0.502734       -13.6801
  49   2.0000      -0.498622       -13.5682
  50   2.0000      -0.491719       -13.3804
  51   2.0000      -0.490760       -13.3543
  52   2.0000      -0.470814       -12.8115
  53   2.0000      -0.465092       -12.6558
  54   2.0000      -0.459065       -12.4918
  55   2.0000      -0.454976       -12.3805
  56   2.0000      -0.447686       -12.1821
  57   2.0000      -0.442036       -12.0284
  58   2.0000      -0.436165       -11.8687
  59   2.0000      -0.425341       -11.5741
  60   2.0000      -0.424222       -11.5437
  61   2.0000      -0.412379       -11.2214
  62   2.0000      -0.402228       -10.9452
  63   2.0000      -0.355295        -9.6681
  64   2.0000      -0.330847        -9.0028
  65   2.0000      -0.328176        -8.9301
  66   2.0000      -0.289096        -7.8667
  67   0.0000       0.025573         0.6959
  68   0.0000       0.086301         2.3484
  69   0.0000       0.105937         2.8827
  70   0.0000       0.119427         3.2498
  71   0.0000       0.133042         3.6203

MULLIKEN ATOMIC CHARGES
-----------------------
   0 S :    0.112739
   1 C :   -0.129033
   2 C :   -0.128125
   3 C :   -0.017604
   4 C :   -0.097353
   5 H :    0.021551
   6 C :    0.077877
   7 H :    0.004166
   8 H :    0.015002
   9 C :   -0.079747
  10 H :    0.023765
  11 H :    0.021602
  12 C :   -0.047260
  13 H :    0.042095
  14 H :    0.037405
  15 H :    0.049621
  16 S :    0.104461
  17 C :   -0.063198
  18 C :   -0.005214
  19 C :   -0.026323
  20 C :   -0.151329
  21 H :   -0.026612
  22 C :    0.025695
  23 H :    0.037533
  24 H :    0.048488
  25 C :   -0.124645
  26 H :    0.039461
  27 H :    0.045735
  28 C :   -0.032077
  29 H :    0.050093
  30 H :    0.022013
  31 H :    0.026197
  32 H :    0.068733
  33 H :    0.054287
Sum of atomic charges:   -0.0000000

LOEWDIN ATOMIC CHARGES
----------------------
   0 S :    0.424416
   1 C :   -0.212321
   2 C :   -0.066672
   3 C :   -0.077657
   4 C :   -0.203265
   5 H :    0.035800
   6 C :   -0.041966
   7 H :    0.030106
   8 H :    0.026954
   9 C :   -0.054082
  10 H :    0.029270
  11 H :    0.024656
  12 C :   -0.070296
  13 H :    0.031253
  14 H :    0.028191
  15 H :    0.035960
  16 S :    0.419081
  17 C :   -0.193559
  18 C :   -0.058952
  19 C :   -0.053155
  20 C :   -0.189278
  21 H :    0.010560
  22 C :   -0.041054
  23 H :    0.030084
  24 H :    0.043082
  25 C :   -0.041070
  26 H :    0.023628
  27 H :    0.028028
  28 C :   -0.060517
  29 H :    0.036056
  30 H :    0.019576
  31 H :    0.018134
  32 H :    0.038395
  33 H :    0.030612

  Mayer bond orders larger than 0.100000
B(  0-S ,  1-C ) :   1.1443 B(  0-S ,  4-C ) :   1.1595 B(  1-C ,  2-C ) :   1.5896
B(  1-C , 32-H ) :   0.9575 B(  2-C ,  3-C ) :   1.2783 B(  2-C ,  6-C ) :   1.0481
B(  3-C ,  4-C ) :   1.5510 B(  3-C ,  5-H ) :   0.9829 B(  4-C , 20-C ) :   1.0391
B(  6-C ,  7-H ) :   0.9274 B(  6-C ,  8-H ) :   0.9321 B(  6-C ,  9-C ) :   1.0475
B(  9-C , 10-H ) :   0.9445 B(  9-C , 11-H ) :   0.9596 B(  9-C , 12-C ) :   1.0780
B( 12-C , 13-H ) :   0.9739 B( 12-C , 14-H ) :   0.9714 B( 12-C , 15-H ) :   0.9718
B( 16-S , 17-C ) :   1.1502 B( 16-S , 20-C ) :   1.1539 B( 17-C , 18-C ) :   1.5895
B( 17-C , 33-H ) :   0.9728 B( 18-C , 19-C ) :   1.2505 B( 18-C , 21-H ) :   0.9973
B( 19-C , 20-C ) :   1.5886 B( 19-C , 22-C ) :   1.0381 B( 22-C , 23-H ) :   0.9327
B( 22-C , 24-H ) :   0.9302 B( 22-C , 25-C ) :   1.0592 B( 25-C , 26-H ) :   0.9578
B( 25-C , 27-H ) :   0.9654 B( 25-C , 28-C ) :   1.0602 B( 28-C , 29-H ) :   0.9794
B( 28-C , 30-H ) :   0.9765 B( 28-C , 31-H ) :   0.9779

Dispersion correction           -0.013357744
FINAL SINGLE POINT ENERGY     -1339.879384407403

DIPOLE MOMENT
-------------
                                X             Y             Z
Electronic contribution:     32.16036       6.40236      -1.48830
Nuclear contribution   :    -32.78358      -6.75779       1.69757
                        -----------------------------------------
Total Dipole Moment    :     -0.62322      -0.35542       0.20927
                        -----------------------------------------
Magnitude (a.u.)       :      0.74735
Magnitude (Debye)      :      1.89960

Rotational constants in cm-1:     0.016407     0.009207     0.006116
Rotational constants in MHz :   491.856709   276.004711   183.357268

                             ****ORCA TERMINATED NORMALLY****
TOTAL RUN TIME: 0 days 0 hours 0 minutes 20 seconds 267 msec
