                         Program Version 4.2.1 -  RELEASE  -
|  1> ! wB97X-D3 SP def2-SVP
|  2> %pal
|  3> nprocs 24
|  4> end
|  5>
|  6> * xyz 0 1
|  7> S 	 -49.7867 	 -50.3891 	 -79.4246
|  8> C 	 -49.8421 	 -50.4338 	 -81.2318
|  9> C 	 -50.9826 	 -49.9274 	 -81.741
| 10> C 	 -51.7853 	 -49.4281 	 -80.6948
| 11> C 	 -51.4509 	 -49.7672 	 -79.3931
| 12> H 	 -52.6832 	 -48.8401 	 -80.7422
| 13> C 	 -51.3119 	 -49.6544 	 -83.2006
| 14> H 	 -52.3826 	 -49.4829 	 -83.2782
| 15> H 	 -51.071 	 -50.5891 	 -83.7112
| 16> C 	 -50.5358 	 -48.5697 	 -83.8865
| 17> H 	 -50.9066 	 -48.2812 	 -84.8139
| 18> H 	 -50.7053 	 -47.7178 	 -83.2084
| 19> C 	 -48.9916 	 -48.9081 	 -84.0019
| 20> H 	 -48.776 	 -49.771 	 -84.5737
| 21> H 	 -48.5894 	 -48.0986 	 -84.6096
| 22> H 	 -48.4667 	 -48.913 	 -83.0312
| 23> S 	 -51.2645 	 -48.1957 	 -77.1863
| 24> C 	 -52.7006 	 -47.9556 	 -76.287
| 25> C 	 -53.8613 	 -48.5836 	 -76.769
| 26> C 	 -53.5367 	 -49.3496 	 -77.9297
| 27> C 	 -52.152 	 -49.2455 	 -78.239
| 28> H 	 -54.7872 	 -48.44 	 -76.2303
| 29> C 	 -54.5278 	 -50.1723 	 -78.7745
| 30> H 	 -55.0226 	 -50.7888 	 -78.0708
| 31> H 	 -54.0033 	 -50.8926 	 -79.2732
| 32> C 	 -55.4414 	 -49.5197 	 -79.7268
| 33> H 	 -55.0035 	 -48.8715 	 -80.4288
| 34> H 	 -56.2454 	 -48.9233 	 -79.2491
| 35> C 	 -56.4286 	 -50.5497 	 -80.412
| 36> H 	 -55.8204 	 -51.0183 	 -81.1925
| 37> H 	 -57.1766 	 -49.9808 	 -80.9684
| 38> H 	 -56.8174 	 -51.2113 	 -79.664
| 39> H 	 -49.0368 	 -50.8478 	 -81.8588
| 40> H 	 -52.714 	 -47.1721 	 -75.5113
| 41> *
| 42>
| 43>                          ****END OF INPUT****

CARTESIAN COORDINATES (ANGSTROEM)
---------------------------------
  S    -49.786700  -50.389100  -79.424600
  C    -49.842100  -50.433800  -81.231800
  C    -50.982600  -49.927400  -81.741000
  C    -51.785300  -49.428100  -80.694800
  C    -51.450900  -49.767200  -79.393100
  H    -52.683200  -48.840100  -80.742200
  C    -51.311900  -49.654400  -83.200600
  H    -52.382600  -49.482900  -83.278200
  H    -51.071000  -50.589100  -83.711200
  C    -50.535800  -48.569700  -83.886500
  H    -50.906600  -48.281200  -84.813900
  H    -50.705300  -47.717800  -83.208400
  C    -48.991600  -48.908100  -84.001900
  H    -48.776000  -49.771000  -84.573700
  H    -48.589400  -48.098600  -84.609600
  H    -48.466700  -48.913000  -83.031200
  S    -51.264500  -48.195700  -77.186300
  C    -52.700600  -47.955600  -76.287000
  C    -53.861300  -48.583600  -76.769000
  C    -53.536700  -49.349600  -77.929700
  C    -52.152000  -49.245500  -78.239000
  H    -54.787200  -48.440000  -76.230300
  C    -54.527800  -50.172300  -78.774500
  H    -55.022600  -50.788800  -78.070800
  H    -54.003300  -50.892600  -79.273200
  C    -55.441400  -49.519700  -79.726800
  H    -55.003500  -48.871500  -80.428800
  H    -56.245400  -48.923300  -79.249100
  C    -56.428600  -50.549700  -80.412000
  H    -55.820400  -51.018300  -81.192500
  H    -57.176600  -49.980800  -80.968400
  H    -56.817400  -51.211300  -79.664000
  H    -49.036800  -50.847800  -81.858800
  H    -52.714000  -47.172100  -75.511300

 Total Charge           Charge          ....    0
 Multiplicity           Mult            ....    1
 Number of Electrons    NEL             ....  134
 Basis Dimension        Dim             ....  322

ORBITAL ENERGIES
----------------

  NO   OCC          E(Eh)            E(eV)
   0   2.0000     -88.969321     -2420.9783
   1   2.0000     -88.965076     -2420.8628
   2   2.0000     -10.325414      -280.9688
   3   2.0000     -10.324241      -280.9369
   4   2.0000     -10.317048      -280.7412
   5   2.0000     -10.316297      -280.7207
   6   2.0000     -10.308932      -280.5203
   7   2.0000     -10.297791      -280.2172
   8   2.0000     -10.297095      -280.1982
   9   2.0000     -10.290488      -280.0184
  10   2.0000     -10.287451      -279.9358
  11   2.0000     -10.285628      -279.8862
  12   2.0000     -10.281721      -279.7799
  13   2.0000     -10.279823      -279.7282
  14   2.0000     -10.278884      -279.7027
  15   2.0000     -10.278724      -279.6983
  16   2.0000      -8.085075      -220.0061
  17   2.0000      -8.078547      -219.8284
  18   2.0000      -6.043237      -164.4448
  19   2.0000      -6.039487      -164.3428
  20   2.0000      -6.037225      -164.2812
  21   2.0000      -6.036098      -164.2506
  22   2.0000      -6.033430      -164.1780
  23   2.0000      -6.029006      -164.0576
  24   2.0000      -1.006574       -27.3903
  25   2.0000      -0.983179       -26.7537
  26   2.0000      -0.915854       -24.9217
  27   2.0000      -0.914483       -24.8843
  28   2.0000      -0.867239       -23.5988
  29   2.0000      -0.855146       -23.2697
  30   2.0000      -0.841643       -22.9023
  31   2.0000      -0.808648       -22.0044
  32   2.0000      -0.788946       -21.4683
  33   2.0000      -0.777168       -21.1478
  34   2.0000      -0.707823       -19.2608
  35   2.0000      -0.703567       -19.1450
  36   2.0000      -0.695397       -18.9227
  37   2.0000      -0.660910       -17.9843
  38   2.0000      -0.637697       -17.3526
  39   2.0000      -0.616532       -16.7767
  40   2.0000      -0.598587       -16.2884
  41   2.0000      -0.575397       -15.6573
  42   2.0000      -0.569587       -15.4992
  43   2.0000      -0.545882       -14.8542
  44   2.0000      -0.544036       -14.8040
  45   2.0000      -0.532641       -14.4939
  46   2.0000      -0.520108       -14.1528
  47   2.0000      -0.509557       -13.8657
  48   2.0000      -0.498304       -13.5595
  49   2.0000      -0.492962       -13.4142
  50   2.0000      -0.485738       -13.2176
  51   2.0000      -0.483593       -13.1592
  52   2.0000      -0.471927       -12.8418
  53   2.0000      -0.469573       -12.7777
  54   2.0000      -0.461279       -12.5521
  55   2.0000      -0.457113       -12.4387
  56   2.0000      -0.455894       -12.4055
  57   2.0000      -0.443635       -12.0719
  58   2.0000      -0.429248       -11.6804
  59   2.0000      -0.425286       -11.5726
  60   2.0000      -0.420122       -11.4321
  61   2.0000      -0.415294       -11.3007
  62   2.0000      -0.398241       -10.8367
  63   2.0000      -0.344677        -9.3792
  64   2.0000      -0.335959        -9.1419
  65   2.0000      -0.331119        -9.0102
  66   2.0000      -0.286605        -7.7989
  67   0.0000       0.028613         0.7786
  68   0.0000       0.067549         1.8381
  69   0.0000       0.106590         2.9004
  70   0.0000       0.122922         3.3449
  71   0.0000       0.128822         3.5054

MULLIKEN ATOMIC CHARGES
-----------------------
   0 S :    0.088710
   1 C :   -0.146968
   2 C :   -0.052903
   3 C :    0.004986
   4 C :   -0.149589
   5 H :   -0.002855
   6 C :    0.087091
   7 H :    0.022190
   8 H :    0.019810
   9 C :   -0.026618
  10 H :    0.018335
  11 H :    0.024578
  12 C :   -0.074709
  13 H :    0.025004
  14 H :    0.029144
  15 H :    0.055825
  16 S :    0.133497
  17 C :   -0.111466
  18 C :   -0.035776
  19 C :   -0.043522
  20 C :   -0.170870
  21 H :    0.022226
  22 C :    0.157411
  23 H :    0.001702
  24 H :   -0.009012
  25 C :   -0.071416
  26 H :    0.017786
  27 H :    0.019938
  28 C :   -0.057044
  29 H :    0.031716
  30 H :    0.034061
  31 H :    0.040886
  32 H :    0.056949
  33 H :    0.060903
Sum of atomic charges:    0.0000000

LOEWDIN ATOMIC CHARGES
----------------------
   0 S :    0.361098
   1 C :   -0.171953
   2 C :   -0.068593
   3 C :   -0.058086
   4 C :   -0.191728
   5 H :    0.024626
   6 C :   -0.029788
   7 H :    0.029488
   8 H :    0.029064
   9 C :   -0.029373
  10 H :    0.015786
  11 H :    0.028981
  12 C :   -0.066674
  13 H :    0.017248
  14 H :    0.029111
  15 H :    0.031238
  16 S :    0.438617
  17 C :   -0.200015
  18 C :   -0.069018
  19 C :   -0.043922
  20 C :   -0.209849
  21 H :    0.035318
  22 C :   -0.030077
  23 H :    0.030731
  24 H :    0.020817
  25 C :   -0.037571
  26 H :    0.012765
  27 H :    0.024651
  28 C :   -0.054310
  29 H :    0.023206
  30 H :    0.026418
  31 H :    0.023419
  32 H :    0.031676
  33 H :    0.026703

  Mayer bond orders larger than 0.100000
B(  0-S ,  1-C ) :   1.1228 B(  0-S ,  4-C ) :   1.1207 B(  1-C ,  2-C ) :   1.6382
B(  1-C , 32-H ) :   0.9546 B(  2-C ,  3-C ) :   1.2181 B(  2-C ,  6-C ) :   1.0197
B(  3-C ,  4-C ) :   1.5918 B(  3-C ,  5-H ) :   0.9890 B(  4-C , 20-C ) :   1.0616
B(  6-C ,  7-H ) :   0.9392 B(  6-C ,  8-H ) :   0.9330 B(  6-C ,  9-C ) :   1.0740
B(  9-C , 10-H ) :   0.9573 B(  9-C , 11-H ) :   0.9518 B(  9-C , 12-C ) :   1.0766
B( 12-C , 13-H ) :   0.9771 B( 12-C , 14-H ) :   0.9721 B( 12-C , 15-H ) :   0.9703
B( 16-S , 17-C ) :   1.1816 B( 16-S , 20-C ) :   1.1637 B( 17-C , 18-C ) :   1.5838
B( 17-C , 33-H ) :   0.9623 B( 18-C , 19-C ) :   1.2513 B( 18-C , 21-H ) :   0.9994
B( 19-C , 20-C ) :   1.5648 B( 19-C , 22-C ) :   1.0322 B( 22-C , 23-H ) :   0.9174
B( 22-C , 24-H ) :   0.9171 B( 22-C , 25-C ) :   1.0713 B( 25-C , 26-H ) :   0.9551
B( 25-C , 27-H ) :   0.9561 B( 25-C , 28-C ) :   1.0667 B( 28-C , 29-H ) :   0.9792
B( 28-C , 30-H ) :   0.9780 B( 28-C , 31-H ) :   0.9774

Dispersion correction           -0.014446088
FINAL SINGLE POINT ENERGY     -1339.855759373279

DIPOLE MOMENT
-------------
                                X             Y             Z
Electronic contribution:     13.85859       0.90975      22.80228
Nuclear contribution   :    -14.32712      -0.65204     -23.32402
                        -----------------------------------------
Total Dipole Moment    :     -0.46853       0.25771      -0.52174
                        -----------------------------------------
Magnitude (a.u.)       :      0.74709
Magnitude (Debye)      :      1.89896

Rotational constants in cm-1:     0.017712     0.009124     0.006802
Rotational constants in MHz :   530.984798   273.543757   203.923853

                             ****ORCA TERMINATED NORMALLY****
TOTAL RUN TIME: 0 days 0 hours 0 minutes 22 seconds 115 msec
