                         Program Version 4.2.1 -  RELEASE  -
|  1> ! wB97X-D3 SP def2-SVP
|  2> %pal
|  3> nprocs 24
|  4> end
|  5>
|  6> * xyz 0 1
|  7> S 	 -59.7335 	 -4.86378 	 -29.2921
|  8> C 	 -59.7086 	 -3.27183 	 -30.1071
|  9> C 	 -59.8741 	 -2.19311 	 -29.1816
| 10> C 	 -59.7213 	 -2.66504 	 -27.8379
| 11> C 	 -59.6717 	 -4.01559 	 -27.6936
| 12> H 	 -59.8376 	 -2.08744 	 -26.87
| 13> C 	 -60.0691 	 -0.793111 	 -29.5841
| 14> H 	 -60.7822 	 -0.85356 	 -30.3705
| 15> H 	 -59.1355 	 -0.46299 	 -29.9856
| 16> C 	 -60.7127 	 0.260262 	 -28.6553
| 17> H 	 -61.5714 	 -0.161109 	 -28.0833
| 18> H 	 -60.0087 	 0.680583 	 -27.8641
| 19> C 	 -61.3685 	 1.38504 	 -29.4916
| 20> H 	 -61.8659 	 2.11571 	 -28.8396
| 21> H 	 -60.577 	 1.93233 	 -29.9428
| 22> H 	 -62.1567 	 1.0253 	 -30.1879
| 23> S 	 -61.2569 	 -5.80005 	 -26.4364
| 24> C 	 -60.9451 	 -6.17174 	 -24.733
| 25> C 	 -59.8091 	 -5.49673 	 -24.2285
| 26> C 	 -59.1744 	 -4.66974 	 -25.2409
| 27> C 	 -59.9199 	 -4.68692 	 -26.4398
| 28> H 	 -59.5408 	 -5.53782 	 -23.1241
| 29> C 	 -57.9013 	 -3.75959 	 -25.0798
| 30> H 	 -58.3067 	 -2.79536 	 -24.6664
| 31> H 	 -57.468 	 -3.72733 	 -26.1072
| 32> C 	 -56.8348 	 -4.21256 	 -24.0168
| 33> H 	 -56.3457 	 -5.20477 	 -24.2113
| 34> H 	 -57.3215 	 -4.35577 	 -23.1161
| 35> C 	 -55.7856 	 -3.16878 	 -23.7146
| 36> H 	 -54.9513 	 -3.31972 	 -24.3993
| 37> H 	 -55.4653 	 -3.12509 	 -22.6569
| 38> H 	 -56.1712 	 -2.21129 	 -24.059
| 39> H 	 -59.8931 	 -3.15581 	 -31.193
| 40> H 	 -61.567 	 -6.79046 	 -24.1234
| 41> *
| 42>
| 43>                          ****END OF INPUT****

CARTESIAN COORDINATES (ANGSTROEM)
---------------------------------
  S    -59.733500   -4.863780  -29.292100
  C    -59.708600   -3.271830  -30.107100
  C    -59.874100   -2.193110  -29.181600
  C    -59.721300   -2.665040  -27.837900
  C    -59.671700   -4.015590  -27.693600
  H    -59.837600   -2.087440  -26.870000
  C    -60.069100   -0.793111  -29.584100
  H    -60.782200   -0.853560  -30.370500
  H    -59.135500   -0.462990  -29.985600
  C    -60.712700    0.260262  -28.655300
  H    -61.571400   -0.161109  -28.083300
  H    -60.008700    0.680583  -27.864100
  C    -61.368500    1.385040  -29.491600
  H    -61.865900    2.115710  -28.839600
  H    -60.577000    1.932330  -29.942800
  H    -62.156700    1.025300  -30.187900
  S    -61.256900   -5.800050  -26.436400
  C    -60.945100   -6.171740  -24.733000
  C    -59.809100   -5.496730  -24.228500
  C    -59.174400   -4.669740  -25.240900
  C    -59.919900   -4.686920  -26.439800
  H    -59.540800   -5.537820  -23.124100
  C    -57.901300   -3.759590  -25.079800
  H    -58.306700   -2.795360  -24.666400
  H    -57.468000   -3.727330  -26.107200
  C    -56.834800   -4.212560  -24.016800
  H    -56.345700   -5.204770  -24.211300
  H    -57.321500   -4.355770  -23.116100
  C    -55.785600   -3.168780  -23.714600
  H    -54.951300   -3.319720  -24.399300
  H    -55.465300   -3.125090  -22.656900
  H    -56.171200   -2.211290  -24.059000
  H    -59.893100   -3.155810  -31.193000
  H    -61.567000   -6.790460  -24.123400

 Total Charge           Charge          ....    0
 Multiplicity           Mult            ....    1
 Number of Electrons    NEL             ....  134
 Basis Dimension        Dim             ....  322

ORBITAL ENERGIES
----------------

  NO   OCC          E(Eh)            E(eV)
   0   2.0000     -88.967806     -2420.9371
   1   2.0000     -88.967753     -2420.9356
   2   2.0000     -10.326721      -281.0044
   3   2.0000     -10.323902      -280.9277
   4   2.0000     -10.321149      -280.8527
   5   2.0000     -10.319565      -280.8096
   6   2.0000     -10.309725      -280.5419
   7   2.0000     -10.307573      -280.4833
   8   2.0000     -10.306074      -280.4425
   9   2.0000     -10.305973      -280.4398
  10   2.0000     -10.298843      -280.2458
  11   2.0000     -10.296091      -280.1709
  12   2.0000     -10.287511      -279.9374
  13   2.0000     -10.282458      -279.7999
  14   2.0000     -10.282360      -279.7973
  15   2.0000     -10.276148      -279.6282
  16   2.0000      -8.082119      -219.9256
  17   2.0000      -8.080805      -219.8899
  18   2.0000      -6.040580      -164.3725
  19   2.0000      -6.039456      -164.3419
  20   2.0000      -6.036683      -164.2665
  21   2.0000      -6.035746      -164.2410
  22   2.0000      -6.032947      -164.1648
  23   2.0000      -6.031317      -164.1205
  24   2.0000      -0.999192       -27.1894
  25   2.0000      -0.972184       -26.4545
  26   2.0000      -0.913554       -24.8591
  27   2.0000      -0.903258       -24.5789
  28   2.0000      -0.866515       -23.5791
  29   2.0000      -0.851687       -23.1756
  30   2.0000      -0.844255       -22.9734
  31   2.0000      -0.813477       -22.1358
  32   2.0000      -0.777942       -21.1689
  33   2.0000      -0.763088       -20.7647
  34   2.0000      -0.707201       -19.2439
  35   2.0000      -0.698958       -19.0196
  36   2.0000      -0.688230       -18.7277
  37   2.0000      -0.648882       -17.6570
  38   2.0000      -0.639056       -17.3896
  39   2.0000      -0.611155       -16.6304
  40   2.0000      -0.587596       -15.9893
  41   2.0000      -0.578030       -15.7290
  42   2.0000      -0.567996       -15.4560
  43   2.0000      -0.558239       -15.1904
  44   2.0000      -0.529138       -14.3986
  45   2.0000      -0.523048       -14.2329
  46   2.0000      -0.514967       -14.0130
  47   2.0000      -0.507134       -13.7998
  48   2.0000      -0.497231       -13.5303
  49   2.0000      -0.496253       -13.5037
  50   2.0000      -0.488120       -13.2824
  51   2.0000      -0.473173       -12.8757
  52   2.0000      -0.465579       -12.6690
  53   2.0000      -0.462945       -12.5974
  54   2.0000      -0.459700       -12.5091
  55   2.0000      -0.450670       -12.2634
  56   2.0000      -0.444650       -12.0995
  57   2.0000      -0.433672       -11.8008
  58   2.0000      -0.427887       -11.6434
  59   2.0000      -0.424210       -11.5433
  60   2.0000      -0.422866       -11.5068
  61   2.0000      -0.419979       -11.4282
  62   2.0000      -0.415831       -11.3153
  63   2.0000      -0.346217        -9.4211
  64   2.0000      -0.330634        -8.9970
  65   2.0000      -0.324377        -8.8267
  66   2.0000      -0.285423        -7.7668
  67   0.0000       0.026633         0.7247
  68   0.0000       0.059844         1.6284
  69   0.0000       0.105533         2.8717
  70   0.0000       0.126033         3.4295
  71   0.0000       0.130853         3.5607

MULLIKEN ATOMIC CHARGES
-----------------------
   0 S :    0.097357
   1 C :   -0.132338
   2 C :   -0.103666
   3 C :    0.012814
   4 C :   -0.152025
   5 H :    0.042858
   6 C :    0.098005
   7 H :    0.012539
   8 H :    0.044107
   9 C :   -0.121442
  10 H :    0.037465
  11 H :    0.045682
  12 C :   -0.060482
  13 H :    0.031419
  14 H :    0.029623
  15 H :    0.049224
  16 S :    0.116613
  17 C :   -0.092510
  18 C :   -0.064622
  19 C :   -0.043296
  20 C :   -0.174806
  21 H :    0.051192
  22 C :    0.031769
  23 H :    0.050517
  24 H :    0.062901
  25 C :   -0.073760
  26 H :    0.039146
  27 H :    0.002575
  28 C :   -0.037972
  29 H :    0.029345
  30 H :    0.047762
  31 H :    0.013082
  32 H :    0.063155
  33 H :    0.047770
Sum of atomic charges:    0.0000000

LOEWDIN ATOMIC CHARGES
----------------------
   0 S :    0.363140
   1 C :   -0.198741
   2 C :   -0.053386
   3 C :   -0.066381
   4 C :   -0.183851
   5 H :    0.045718
   6 C :   -0.038186
   7 H :    0.032244
   8 H :    0.037065
   9 C :   -0.046435
  10 H :    0.027725
  11 H :    0.029328
  12 C :   -0.065300
  13 H :    0.028199
  14 H :    0.019897
  15 H :    0.031178
  16 S :    0.407845
  17 C :   -0.182791
  18 C :   -0.077622
  19 C :   -0.059437
  20 C :   -0.205109
  21 H :    0.043776
  22 C :   -0.029996
  23 H :    0.038834
  24 H :    0.040260
  25 C :   -0.046852
  26 H :    0.030114
  27 H :    0.010077
  28 C :   -0.066406
  29 H :    0.026589
  30 H :    0.031892
  31 H :    0.022706
  32 H :    0.031808
  33 H :    0.022097

  Mayer bond orders larger than 0.100000
B(  0-S ,  1-C ) :   1.1250 B(  0-S ,  4-C ) :   1.1215 B(  1-C ,  2-C ) :   1.6104
B(  1-C , 32-H ) :   0.9640 B(  2-C ,  3-C ) :   1.2316 B(  2-C ,  6-C ) :   1.0219
B(  3-C ,  4-C ) :   1.5926 B(  3-C ,  5-H ) :   0.9742 B(  4-C , 20-C ) :   1.0631
B(  6-C ,  7-H ) :   0.9366 B(  6-C ,  8-H ) :   0.9294 B(  6-C ,  9-C ) :   1.0620
B(  9-C , 10-H ) :   0.9603 B(  9-C , 11-H ) :   0.9502 B(  9-C , 12-C ) :   1.0871
B( 12-C , 13-H ) :   0.9734 B( 12-C , 14-H ) :   0.9768 B( 12-C , 15-H ) :   0.9731
B( 16-S , 17-C ) :   1.1488 B( 16-S , 20-C ) :   1.1462 B( 17-C , 18-C ) :   1.6128
B( 17-C , 20-C ) :   0.1003 B( 17-C , 33-H ) :   0.9701 B( 18-C , 19-C ) :   1.2414
B( 18-C , 21-H ) :   0.9740 B( 19-C , 20-C ) :   1.5879 B( 19-C , 22-C ) :   1.0274
B( 22-C , 23-H ) :   0.9318 B( 22-C , 24-H ) :   0.9368 B( 22-C , 25-C ) :   1.0752
B( 25-C , 26-H ) :   0.9582 B( 25-C , 27-H ) :   0.9508 B( 25-C , 28-C ) :   1.0807
B( 28-C , 29-H ) :   0.9743 B( 28-C , 30-H ) :   0.9769 B( 28-C , 31-H ) :   0.9708

Dispersion correction           -0.013311344
FINAL SINGLE POINT ENERGY     -1339.858092138836

DIPOLE MOMENT
-------------
                                X             Y             Z
Electronic contribution:    -10.15264     -24.56673      -7.27787
Nuclear contribution   :     10.12566      25.25851       7.55981
                        -----------------------------------------
Total Dipole Moment    :     -0.02698       0.69179       0.28194
                        -----------------------------------------
Magnitude (a.u.)       :      0.74752
Magnitude (Debye)      :      1.90005

Rotational constants in cm-1:     0.015972     0.008032     0.006504
Rotational constants in MHz :   478.823443   240.808125   194.970654

                             ****ORCA TERMINATED NORMALLY****
TOTAL RUN TIME: 0 days 0 hours 0 minutes 20 seconds 781 msec
