                         Program Version 4.2.1 -  RELEASE  -
|  1> ! wB97X-D3 SP def2-SVP
|  2> %pal
|  3> nprocs 24
|  4> end
|  5>
|  6> * xyz 0 1
|  7> S 	 -80.6583 	 -2.11784 	 -56.7831
|  8> C 	 -79.2961 	 -1.11104 	 -56.8988
|  9> C 	 -78.4311 	 -1.59926 	 -57.8571
| 10> C 	 -78.966 	 -2.63519 	 -58.6388
| 11> C 	 -80.2848 	 -2.89382 	 -58.3105
| 12> H 	 -78.6622 	 -3.09491 	 -59.5791
| 13> C 	 -76.9523 	 -1.05376 	 -58.059
| 14> H 	 -76.6776 	 -0.678989 	 -57.0517
| 15> H 	 -76.9014 	 -0.192804 	 -58.689
| 16> C 	 -75.8581 	 -2.06838 	 -58.2542
| 17> H 	 -75.6566 	 -2.58697 	 -57.331
| 18> H 	 -76.1383 	 -2.86501 	 -58.9175
| 19> C 	 -74.503 	 -1.39586 	 -58.6313
| 20> H 	 -73.6942 	 -2.11021 	 -58.6248
| 21> H 	 -74.5147 	 -0.87434 	 -59.6072
| 22> H 	 -74.2057 	 -0.666406 	 -57.882
| 23> S 	 -82.22 	 -4.84828 	 -57.955
| 24> C 	 -82.9672 	 -5.54511 	 -59.3484
| 25> C 	 -82.4681 	 -4.99362 	 -60.5136
| 26> C 	 -81.4892 	 -4.00952 	 -60.2426
| 27> C 	 -81.2516 	 -3.76106 	 -58.9211
| 28> H 	 -82.9209 	 -5.39402 	 -61.4528
| 29> C 	 -80.7113 	 -3.43902 	 -61.3387
| 30> H 	 -79.7076 	 -3.89243 	 -61.4118
| 31> H 	 -80.5554 	 -2.45945 	 -60.9745
| 32> C 	 -81.1594 	 -3.56592 	 -62.8016
| 33> H 	 -81.2566 	 -4.6058 	 -63.1232
| 34> H 	 -80.1969 	 -3.31394 	 -63.3819
| 35> C 	 -82.3003 	 -2.65446 	 -63.2557
| 36> H 	 -82.2151 	 -1.61573 	 -62.9832
| 37> H 	 -83.1939 	 -3.0271 	 -62.8841
| 38> H 	 -82.2744 	 -2.78011 	 -64.3615
| 39> H 	 -78.8912 	 -0.319786 	 -56.2916
| 40> H 	 -83.8877 	 -6.06456 	 -59.2849
| 41> *
| 42>
| 43>                          ****END OF INPUT****

CARTESIAN COORDINATES (ANGSTROEM)
---------------------------------
  S    -80.658300   -2.117840  -56.783100
  C    -79.296100   -1.111040  -56.898800
  C    -78.431100   -1.599260  -57.857100
  C    -78.966000   -2.635190  -58.638800
  C    -80.284800   -2.893820  -58.310500
  H    -78.662200   -3.094910  -59.579100
  C    -76.952300   -1.053760  -58.059000
  H    -76.677600   -0.678989  -57.051700
  H    -76.901400   -0.192804  -58.689000
  C    -75.858100   -2.068380  -58.254200
  H    -75.656600   -2.586970  -57.331000
  H    -76.138300   -2.865010  -58.917500
  C    -74.503000   -1.395860  -58.631300
  H    -73.694200   -2.110210  -58.624800
  H    -74.514700   -0.874340  -59.607200
  H    -74.205700   -0.666406  -57.882000
  S    -82.220000   -4.848280  -57.955000
  C    -82.967200   -5.545110  -59.348400
  C    -82.468100   -4.993620  -60.513600
  C    -81.489200   -4.009520  -60.242600
  C    -81.251600   -3.761060  -58.921100
  H    -82.920900   -5.394020  -61.452800
  C    -80.711300   -3.439020  -61.338700
  H    -79.707600   -3.892430  -61.411800
  H    -80.555400   -2.459450  -60.974500
  C    -81.159400   -3.565920  -62.801600
  H    -81.256600   -4.605800  -63.123200
  H    -80.196900   -3.313940  -63.381900
  C    -82.300300   -2.654460  -63.255700
  H    -82.215100   -1.615730  -62.983200
  H    -83.193900   -3.027100  -62.884100
  H    -82.274400   -2.780110  -64.361500
  H    -78.891200   -0.319786  -56.291600
  H    -83.887700   -6.064560  -59.284900

 Total Charge           Charge          ....    0
 Multiplicity           Mult            ....    1
 Number of Electrons    NEL             ....  134
 Basis Dimension        Dim             ....  322

ORBITAL ENERGIES
----------------

  NO   OCC          E(Eh)            E(eV)
   0   2.0000     -88.966800     -2420.9097
   1   2.0000     -88.962384     -2420.7895
   2   2.0000     -10.327637      -281.0293
   3   2.0000     -10.321239      -280.8552
   4   2.0000     -10.311362      -280.5864
   5   2.0000     -10.310029      -280.5502
   6   2.0000     -10.301986      -280.3313
   7   2.0000     -10.295299      -280.1493
   8   2.0000     -10.294188      -280.1191
   9   2.0000     -10.294071      -280.1159
  10   2.0000     -10.293819      -280.1090
  11   2.0000     -10.292828      -280.0821
  12   2.0000     -10.284487      -279.8551
  13   2.0000     -10.282173      -279.7921
  14   2.0000     -10.281068      -279.7621
  15   2.0000     -10.273577      -279.5582
  16   2.0000      -8.082366      -219.9324
  17   2.0000      -8.077860      -219.8098
  18   2.0000      -6.040756      -164.3773
  19   2.0000      -6.036834      -164.2706
  20   2.0000      -6.036377      -164.2582
  21   2.0000      -6.033113      -164.1693
  22   2.0000      -6.032168      -164.1436
  23   2.0000      -6.028679      -164.0487
  24   2.0000      -1.016468       -27.6595
  25   2.0000      -0.993241       -27.0275
  26   2.0000      -0.914203       -24.8767
  27   2.0000      -0.909848       -24.7582
  28   2.0000      -0.877201       -23.8699
  29   2.0000      -0.855413       -23.2770
  30   2.0000      -0.846128       -23.0243
  31   2.0000      -0.818422       -22.2704
  32   2.0000      -0.787374       -21.4255
  33   2.0000      -0.774985       -21.0884
  34   2.0000      -0.715183       -19.4611
  35   2.0000      -0.705032       -19.1849
  36   2.0000      -0.695356       -18.9216
  37   2.0000      -0.656648       -17.8683
  38   2.0000      -0.644009       -17.5244
  39   2.0000      -0.620438       -16.8830
  40   2.0000      -0.598720       -16.2920
  41   2.0000      -0.570967       -15.5368
  42   2.0000      -0.563699       -15.3390
  43   2.0000      -0.551412       -15.0047
  44   2.0000      -0.537816       -14.6347
  45   2.0000      -0.528823       -14.3900
  46   2.0000      -0.520275       -14.1574
  47   2.0000      -0.516062       -14.0428
  48   2.0000      -0.513319       -13.9681
  49   2.0000      -0.500623       -13.6227
  50   2.0000      -0.497516       -13.5381
  51   2.0000      -0.487591       -13.2680
  52   2.0000      -0.470284       -12.7971
  53   2.0000      -0.466890       -12.7047
  54   2.0000      -0.463543       -12.6136
  55   2.0000      -0.448810       -12.2127
  56   2.0000      -0.443927       -12.0799
  57   2.0000      -0.441647       -12.0178
  58   2.0000      -0.435352       -11.8465
  59   2.0000      -0.419972       -11.4280
  60   2.0000      -0.415601       -11.3091
  61   2.0000      -0.412156       -11.2153
  62   2.0000      -0.406756       -11.0684
  63   2.0000      -0.354507        -9.6466
  64   2.0000      -0.334608        -9.1052
  65   2.0000      -0.327247        -8.9049
  66   2.0000      -0.286422        -7.7939
  67   0.0000       0.021830         0.5940
  68   0.0000       0.073575         2.0021
  69   0.0000       0.110427         3.0049
  70   0.0000       0.123449         3.3592
  71   0.0000       0.138302         3.7634

MULLIKEN ATOMIC CHARGES
-----------------------
   0 S :    0.122139
   1 C :   -0.072610
   2 C :   -0.108947
   3 C :    0.041553
   4 C :   -0.201468
   5 H :    0.012064
   6 C :    0.064106
   7 H :    0.013311
   8 H :    0.038511
   9 C :   -0.070362
  10 H :    0.026456
  11 H :    0.026719
  12 C :   -0.057958
  13 H :    0.029017
  14 H :    0.038952
  15 H :    0.025034
  16 S :    0.097278
  17 C :   -0.084647
  18 C :   -0.072935
  19 C :   -0.024003
  20 C :   -0.110972
  21 H :    0.040403
  22 C :    0.027912
  23 H :    0.049705
  24 H :    0.024067
  25 C :   -0.111251
  26 H :    0.028155
  27 H :    0.026116
  28 C :    0.007561
  29 H :    0.036286
  30 H :    0.015168
  31 H :    0.036801
  32 H :    0.035111
  33 H :    0.052729
Sum of atomic charges:    0.0000000

LOEWDIN ATOMIC CHARGES
----------------------
   0 S :    0.427474
   1 C :   -0.212473
   2 C :   -0.065603
   3 C :   -0.065551
   4 C :   -0.185528
   5 H :    0.034584
   6 C :   -0.031371
   7 H :    0.032358
   8 H :    0.024723
   9 C :   -0.040197
  10 H :    0.026432
  11 H :    0.016815
  12 C :   -0.062615
  13 H :    0.024169
  14 H :    0.026680
  15 H :    0.023938
  16 S :    0.409562
  17 C :   -0.185977
  18 C :   -0.078296
  19 C :   -0.063479
  20 C :   -0.204902
  21 H :    0.042719
  22 C :   -0.043029
  23 H :    0.037807
  24 H :    0.028546
  25 C :   -0.046037
  26 H :    0.024235
  27 H :    0.031886
  28 C :   -0.057240
  29 H :    0.026975
  30 H :    0.013774
  31 H :    0.034597
  32 H :    0.032156
  33 H :    0.022870

  Mayer bond orders larger than 0.100000
B(  0-S ,  1-C ) :   1.1495 B(  0-S ,  4-C ) :   1.1519 B(  1-C ,  2-C ) :   1.6198
B(  1-C ,  4-C ) :   0.1053 B(  1-C , 32-H ) :   0.9658 B(  2-C ,  3-C ) :   1.2442
B(  2-C ,  6-C ) :   0.9896 B(  3-C ,  4-C ) :   1.5519 B(  3-C ,  5-H ) :   0.9882
B(  4-C , 20-C ) :   1.0695 B(  6-C ,  7-H ) :   0.9450 B(  6-C ,  8-H ) :   0.9552
B(  6-C ,  9-C ) :   1.0535 B(  9-C , 10-H ) :   0.9572 B(  9-C , 11-H ) :   0.9584
B(  9-C , 12-C ) :   1.0806 B( 12-C , 13-H ) :   0.9747 B( 12-C , 14-H ) :   0.9780
B( 12-C , 15-H ) :   0.9744 B( 16-S , 17-C ) :   1.1725 B( 16-S , 20-C ) :   1.1252
B( 17-C , 18-C ) :   1.5979 B( 17-C , 33-H ) :   0.9629 B( 18-C , 19-C ) :   1.2412
B( 18-C , 21-H ) :   0.9847 B( 19-C , 20-C ) :   1.5892 B( 19-C , 22-C ) :   1.0529
B( 22-C , 23-H ) :   0.9207 B( 22-C , 24-H ) :   0.9221 B( 22-C , 25-C ) :   1.0849
B( 25-C , 26-H ) :   0.9412 B( 25-C , 27-H ) :   0.9545 B( 25-C , 28-C ) :   1.0756
B( 28-C , 29-H ) :   0.9741 B( 28-C , 30-H ) :   0.9754 B( 28-C , 31-H ) :   0.9734

Dispersion correction           -0.013582894
FINAL SINGLE POINT ENERGY     -1339.855350060803

DIPOLE MOMENT
-------------
                                X             Y             Z
Electronic contribution:    -19.22956      -7.48228      19.88846
Nuclear contribution   :     19.63063       7.57241     -20.41760
                        -----------------------------------------
Total Dipole Moment    :      0.40107       0.09013      -0.52914
                        -----------------------------------------
Magnitude (a.u.)       :      0.67006
Magnitude (Debye)      :      1.70315

Rotational constants in cm-1:     0.018336     0.008096     0.006337
Rotational constants in MHz :   549.702470   242.715404   189.974636

                             ****ORCA TERMINATED NORMALLY****
TOTAL RUN TIME: 0 days 0 hours 0 minutes 21 seconds 235 msec
