                         Program Version 4.2.1 -  RELEASE  -
|  1> ! wB97X-D3 SP def2-SVP
|  2> %pal
|  3> nprocs 24
|  4> end
|  5>
|  6> * xyz 0 1
|  7> S 	 -51.4113 	 18.4906 	 -99.5247
|  8> C 	 -52.8772 	 17.5212 	 -99.9432
|  9> C 	 -53.3258 	 17.844 	 -101.21
| 10> C 	 -52.4356 	 18.7508 	 -101.916
| 11> C 	 -51.4127 	 19.2114 	 -101.091
| 12> H 	 -52.4927 	 18.9754 	 -102.982
| 13> C 	 -54.6602 	 17.3504 	 -101.845
| 14> H 	 -55.3393 	 17.1464 	 -101.012
| 15> H 	 -54.4705 	 16.3571 	 -102.326
| 16> C 	 -55.3496 	 18.3558 	 -102.796
| 17> H 	 -54.6387 	 18.676 	 -103.591
| 18> H 	 -56.2229 	 17.8375 	 -103.225
| 19> C 	 -55.8454 	 19.5555 	 -102.037
| 20> H 	 -56.5624 	 19.4042 	 -101.187
| 21> H 	 -55.0143 	 20.1678 	 -101.667
| 22> H 	 -56.3853 	 20.2232 	 -102.572
| 23> S 	 -50.2275 	 21.5794 	 -100.416
| 24> C 	 -48.9913 	 22.2748 	 -101.467
| 25> C 	 -48.8542 	 21.5932 	 -102.656
| 26> C 	 -49.7904 	 20.515 	 -102.703
| 27> C 	 -50.4448 	 20.2568 	 -101.491
| 28> H 	 -48.3149 	 21.943 	 -103.495
| 29> C 	 -49.8449 	 19.5556 	 -103.923
| 30> H 	 -50.4186 	 18.7149 	 -103.711
| 31> H 	 -48.9116 	 19.1718 	 -104.1
| 32> C 	 -50.3621 	 20.2119 	 -105.21
| 33> H 	 -50.552 	 19.3539 	 -105.873
| 34> H 	 -49.6646 	 20.9176 	 -105.616
| 35> C 	 -51.7249 	 20.9052 	 -105.218
| 36> H 	 -51.6173 	 21.9426 	 -104.808
| 37> H 	 -52.4857 	 20.2807 	 -104.896
| 38> H 	 -52.0886 	 21.1017 	 -106.228
| 39> H 	 -53.3191 	 16.7788 	 -99.2772
| 40> H 	 -48.4132 	 23.1879 	 -101.231
| 41> *
| 42>
| 43>                          ****END OF INPUT****

CARTESIAN COORDINATES (ANGSTROEM)
---------------------------------
  S    -51.411300   18.490600  -99.524700
  C    -52.877200   17.521200  -99.943200
  C    -53.325800   17.844000  -101.210000
  C    -52.435600   18.750800  -101.916000
  C    -51.412700   19.211400  -101.091000
  H    -52.492700   18.975400  -102.982000
  C    -54.660200   17.350400  -101.845000
  H    -55.339300   17.146400  -101.012000
  H    -54.470500   16.357100  -102.326000
  C    -55.349600   18.355800  -102.796000
  H    -54.638700   18.676000  -103.591000
  H    -56.222900   17.837500  -103.225000
  C    -55.845400   19.555500  -102.037000
  H    -56.562400   19.404200  -101.187000
  H    -55.014300   20.167800  -101.667000
  H    -56.385300   20.223200  -102.572000
  S    -50.227500   21.579400  -100.416000
  C    -48.991300   22.274800  -101.467000
  C    -48.854200   21.593200  -102.656000
  C    -49.790400   20.515000  -102.703000
  C    -50.444800   20.256800  -101.491000
  H    -48.314900   21.943000  -103.495000
  C    -49.844900   19.555600  -103.923000
  H    -50.418600   18.714900  -103.711000
  H    -48.911600   19.171800  -104.100000
  C    -50.362100   20.211900  -105.210000
  H    -50.552000   19.353900  -105.873000
  H    -49.664600   20.917600  -105.616000
  C    -51.724900   20.905200  -105.218000
  H    -51.617300   21.942600  -104.808000
  H    -52.485700   20.280700  -104.896000
  H    -52.088600   21.101700  -106.228000
  H    -53.319100   16.778800  -99.277200
  H    -48.413200   23.187900  -101.231000

 Total Charge           Charge          ....    0
 Multiplicity           Mult            ....    1
 Number of Electrons    NEL             ....  134
 Basis Dimension        Dim             ....  322

ORBITAL ENERGIES
----------------

  NO   OCC          E(Eh)            E(eV)
   0   2.0000     -88.968570     -2420.9579
   1   2.0000     -88.965567     -2420.8762
   2   2.0000     -10.332173      -281.1527
   3   2.0000     -10.325005      -280.9577
   4   2.0000     -10.319453      -280.8066
   5   2.0000     -10.317973      -280.7663
   6   2.0000     -10.306878      -280.4644
   7   2.0000     -10.301757      -280.3250
   8   2.0000     -10.298668      -280.2410
   9   2.0000     -10.296263      -280.1756
  10   2.0000     -10.294252      -280.1208
  11   2.0000     -10.292470      -280.0723
  12   2.0000     -10.285042      -279.8702
  13   2.0000     -10.279165      -279.7103
  14   2.0000     -10.274505      -279.5835
  15   2.0000     -10.267353      -279.3889
  16   2.0000      -8.082756      -219.9430
  17   2.0000      -8.080603      -219.8844
  18   2.0000      -6.041323      -164.3928
  19   2.0000      -6.039076      -164.3316
  20   2.0000      -6.037420      -164.2865
  21   2.0000      -6.035072      -164.2227
  22   2.0000      -6.033403      -164.1773
  23   2.0000      -6.031387      -164.1224
  24   2.0000      -1.005028       -27.3482
  25   2.0000      -0.980122       -26.6705
  26   2.0000      -0.911177       -24.7944
  27   2.0000      -0.908680       -24.7264
  28   2.0000      -0.868203       -23.6250
  29   2.0000      -0.848270       -23.0826
  30   2.0000      -0.842112       -22.9150
  31   2.0000      -0.814440       -22.1620
  32   2.0000      -0.787391       -21.4260
  33   2.0000      -0.776537       -21.1307
  34   2.0000      -0.707680       -19.2570
  35   2.0000      -0.694277       -18.8922
  36   2.0000      -0.690016       -18.7763
  37   2.0000      -0.660018       -17.9600
  38   2.0000      -0.634623       -17.2690
  39   2.0000      -0.624168       -16.9845
  40   2.0000      -0.599979       -16.3263
  41   2.0000      -0.566758       -15.4223
  42   2.0000      -0.561024       -15.2662
  43   2.0000      -0.554774       -15.0962
  44   2.0000      -0.540781       -14.7154
  45   2.0000      -0.539443       -14.6790
  46   2.0000      -0.521868       -14.2008
  47   2.0000      -0.510020       -13.8783
  48   2.0000      -0.496429       -13.5085
  49   2.0000      -0.492906       -13.4127
  50   2.0000      -0.488312       -13.2876
  51   2.0000      -0.477412       -12.9910
  52   2.0000      -0.470904       -12.8139
  53   2.0000      -0.467647       -12.7253
  54   2.0000      -0.456900       -12.4329
  55   2.0000      -0.449294       -12.2259
  56   2.0000      -0.447670       -12.1817
  57   2.0000      -0.441466       -12.0129
  58   2.0000      -0.437141       -11.8952
  59   2.0000      -0.429566       -11.6891
  60   2.0000      -0.422781       -11.5045
  61   2.0000      -0.414113       -11.2686
  62   2.0000      -0.397368       -10.8129
  63   2.0000      -0.349183        -9.5018
  64   2.0000      -0.331169        -9.0116
  65   2.0000      -0.329130        -8.9561
  66   2.0000      -0.287953        -7.8356
  67   0.0000       0.030033         0.8172
  68   0.0000       0.073851         2.0096
  69   0.0000       0.108250         2.9456
  70   0.0000       0.119556         3.2533
  71   0.0000       0.123433         3.3588

MULLIKEN ATOMIC CHARGES
-----------------------
   0 S :    0.109319
   1 C :   -0.140434
   2 C :   -0.088852
   3 C :    0.022662
   4 C :   -0.136571
   5 H :    0.001356
   6 C :    0.054895
   7 H :    0.022424
   8 H :    0.050171
   9 C :   -0.071512
  10 H :    0.039608
  11 H :    0.036376
  12 C :   -0.032488
  13 H :    0.027646
  14 H :    0.039671
  15 H :    0.000160
  16 S :    0.108771
  17 C :   -0.102646
  18 C :   -0.000606
  19 C :   -0.072303
  20 C :   -0.141902
  21 H :    0.010796
  22 C :    0.146151
  23 H :   -0.007530
  24 H :    0.008383
  25 C :   -0.104308
  26 H :    0.028781
  27 H :    0.027874
  28 C :   -0.031444
  29 H :    0.048257
  30 H :    0.009828
  31 H :    0.017486
  32 H :    0.053615
  33 H :    0.066369
Sum of atomic charges:   -0.0000000

LOEWDIN ATOMIC CHARGES
----------------------
   0 S :    0.395793
   1 C :   -0.189696
   2 C :   -0.056251
   3 C :   -0.070393
   4 C :   -0.195345
   5 H :    0.027844
   6 C :   -0.033188
   7 H :    0.029432
   8 H :    0.036293
   9 C :   -0.040818
  10 H :    0.027056
  11 H :    0.030488
  12 C :   -0.069136
  13 H :    0.032179
  14 H :    0.031960
  15 H :    0.010099
  16 S :    0.413819
  17 C :   -0.181677
  18 C :   -0.067037
  19 C :   -0.054825
  20 C :   -0.209133
  21 H :    0.028319
  22 C :   -0.018981
  23 H :    0.018680
  24 H :    0.023223
  25 C :   -0.038329
  26 H :    0.029290
  27 H :    0.018588
  28 C :   -0.067099
  29 H :    0.034590
  30 H :    0.010705
  31 H :    0.028569
  32 H :    0.030969
  33 H :    0.034009

  Mayer bond orders larger than 0.100000
B(  0-S ,  1-C ) :   1.1072 B(  0-S ,  4-C ) :   1.1667 B(  1-C ,  2-C ) :   1.6432
B(  1-C , 32-H ) :   0.9707 B(  2-C ,  3-C ) :   1.2279 B(  2-C ,  6-C ) :   0.9972
B(  3-C ,  4-C ) :   1.5647 B(  3-C ,  5-H ) :   0.9842 B(  4-C , 20-C ) :   1.0234
B(  6-C ,  7-H ) :   0.9470 B(  6-C ,  8-H ) :   0.9390 B(  6-C ,  9-C ) :   1.0782
B(  9-C , 10-H ) :   0.9491 B(  9-C , 11-H ) :   0.9522 B(  9-C , 12-C ) :   1.0853
B( 12-C , 13-H ) :   0.9705 B( 12-C , 14-H ) :   0.9692 B( 12-C , 15-H ) :   0.9689
B( 16-S , 17-C ) :   1.1557 B( 16-S , 20-C ) :   1.1536 B( 17-C , 18-C ) :   1.5986
B( 17-C , 33-H ) :   0.9636 B( 18-C , 19-C ) :   1.2527 B( 18-C , 21-H ) :   0.9939
B( 19-C , 20-C ) :   1.5870 B( 19-C , 22-C ) :   1.0373 B( 22-C , 23-H ) :   0.9321
B( 22-C , 24-H ) :   0.9328 B( 22-C , 25-C ) :   1.0715 B( 25-C , 26-H ) :   0.9564
B( 25-C , 27-H ) :   0.9596 B( 25-C , 28-C ) :   1.0930 B( 28-C , 29-H ) :   0.9700
B( 28-C , 30-H ) :   0.9700 B( 28-C , 31-H ) :   0.9652

Dispersion correction           -0.015443163
FINAL SINGLE POINT ENERGY     -1339.865721030853

DIPOLE MOMENT
-------------
                                X             Y             Z
Electronic contribution:     16.02491       1.94801      22.70823
Nuclear contribution   :    -16.33337      -2.03660     -23.39206
                        -----------------------------------------
Total Dipole Moment    :     -0.30846      -0.08860      -0.68383
                        -----------------------------------------
Magnitude (a.u.)       :      0.75539
Magnitude (Debye)      :      1.92006

Rotational constants in cm-1:     0.017633     0.010328     0.007777
Rotational constants in MHz :   528.615963   309.612928   233.141127

                             ****ORCA TERMINATED NORMALLY****
TOTAL RUN TIME: 0 days 0 hours 0 minutes 22 seconds 820 msec
