                         Program Version 4.2.1 -  RELEASE  -
|  1> ! wB97X-D3 SP def2-SVP
|  2> %pal
|  3> nprocs 24
|  4> end
|  5>
|  6> * xyz 0 1
|  7> S 	 -57.883 	 11.3106 	 -94.288
|  8> C 	 -57.4121 	 10.4569 	 -95.7647
|  9> C 	 -58.3457 	 10.6819 	 -96.7694
| 10> C 	 -59.299 	 11.6603 	 -96.4057
| 11> C 	 -59.1732 	 12.1428 	 -95.1334
| 12> H 	 -60.0762 	 12.1353 	 -96.9812
| 13> C 	 -58.33 	 10.1573 	 -98.1573
| 14> H 	 -58.355 	 9.0523 	 -98.1501
| 15> H 	 -57.3178 	 10.3411 	 -98.5154
| 16> C 	 -59.3577 	 10.6243 	 -99.1582
| 17> H 	 -60.3628 	 10.4425 	 -98.7806
| 18> H 	 -59.1829 	 11.6716 	 -99.3713
| 19> C 	 -59.2307 	 9.77738 	 -100.46
| 20> H 	 -60.0432 	 10.0267 	 -101.137
| 21> H 	 -58.2834 	 9.92254 	 -101.031
| 22> H 	 -59.4282 	 8.68731 	 -100.361
| 23> S 	 -61.7654 	 12.6747 	 -94.4128
| 24> C 	 -62.1761 	 14.3143 	 -93.8909
| 25> C 	 -61.0654 	 15.0862 	 -93.9096
| 26> C 	 -59.839 	 14.4413 	 -94.149
| 27> C 	 -60.0435 	 13.0794 	 -94.4721
| 28> H 	 -61.2025 	 16.0929 	 -93.5436
| 29> C 	 -58.4775 	 15.0347 	 -94.1205
| 30> H 	 -57.7594 	 14.2062 	 -93.863
| 31> H 	 -58.4632 	 15.7204 	 -93.3123
| 32> C 	 -57.9532 	 15.8429 	 -95.3765
| 33> H 	 -57.5575 	 15.2008 	 -96.1703
| 34> H 	 -56.9979 	 16.2102 	 -95.129
| 35> C 	 -58.7587 	 16.9505 	 -95.9555
| 36> H 	 -59.1712 	 17.6284 	 -95.2502
| 37> H 	 -59.6453 	 16.3588 	 -96.2453
| 38> H 	 -58.316 	 17.3582 	 -96.878
| 39> H 	 -56.5592 	 9.7155 	 -95.9252
| 40> H 	 -63.1207 	 14.5082 	 -93.427
| 41> *
| 42>
| 43>                          ****END OF INPUT****

CARTESIAN COORDINATES (ANGSTROEM)
---------------------------------
  S    -57.883000   11.310600  -94.288000
  C    -57.412100   10.456900  -95.764700
  C    -58.345700   10.681900  -96.769400
  C    -59.299000   11.660300  -96.405700
  C    -59.173200   12.142800  -95.133400
  H    -60.076200   12.135300  -96.981200
  C    -58.330000   10.157300  -98.157300
  H    -58.355000    9.052300  -98.150100
  H    -57.317800   10.341100  -98.515400
  C    -59.357700   10.624300  -99.158200
  H    -60.362800   10.442500  -98.780600
  H    -59.182900   11.671600  -99.371300
  C    -59.230700    9.777380  -100.460000
  H    -60.043200   10.026700  -101.137000
  H    -58.283400    9.922540  -101.031000
  H    -59.428200    8.687310  -100.361000
  S    -61.765400   12.674700  -94.412800
  C    -62.176100   14.314300  -93.890900
  C    -61.065400   15.086200  -93.909600
  C    -59.839000   14.441300  -94.149000
  C    -60.043500   13.079400  -94.472100
  H    -61.202500   16.092900  -93.543600
  C    -58.477500   15.034700  -94.120500
  H    -57.759400   14.206200  -93.863000
  H    -58.463200   15.720400  -93.312300
  C    -57.953200   15.842900  -95.376500
  H    -57.557500   15.200800  -96.170300
  H    -56.997900   16.210200  -95.129000
  C    -58.758700   16.950500  -95.955500
  H    -59.171200   17.628400  -95.250200
  H    -59.645300   16.358800  -96.245300
  H    -58.316000   17.358200  -96.878000
  H    -56.559200    9.715500  -95.925200
  H    -63.120700   14.508200  -93.427000

 Total Charge           Charge          ....    0
 Multiplicity           Mult            ....    1
 Number of Electrons    NEL             ....  134
 Basis Dimension        Dim             ....  322

ORBITAL ENERGIES
----------------

  NO   OCC          E(Eh)            E(eV)
   0   2.0000     -88.966921     -2420.9130
   1   2.0000     -88.963557     -2420.8214
   2   2.0000     -10.326165      -280.9892
   3   2.0000     -10.323097      -280.9058
   4   2.0000     -10.317574      -280.7555
   5   2.0000     -10.316712      -280.7320
   6   2.0000     -10.304726      -280.4059
   7   2.0000     -10.298072      -280.2248
   8   2.0000     -10.292546      -280.0744
   9   2.0000     -10.292364      -280.0695
  10   2.0000     -10.290296      -280.0132
  11   2.0000     -10.287103      -279.9263
  12   2.0000     -10.286115      -279.8994
  13   2.0000     -10.284461      -279.8544
  14   2.0000     -10.277763      -279.6721
  15   2.0000     -10.272193      -279.5206
  16   2.0000      -8.080720      -219.8876
  17   2.0000      -8.077837      -219.8091
  18   2.0000      -6.039278      -164.3371
  19   2.0000      -6.036225      -164.2540
  20   2.0000      -6.035302      -164.2289
  21   2.0000      -6.032337      -164.1482
  22   2.0000      -6.031542      -164.1266
  23   2.0000      -6.028816      -164.0524
  24   2.0000      -1.006690       -27.3934
  25   2.0000      -0.983929       -26.7741
  26   2.0000      -0.916174       -24.9304
  27   2.0000      -0.907405       -24.6917
  28   2.0000      -0.872992       -23.7553
  29   2.0000      -0.854674       -23.2568
  30   2.0000      -0.846047       -23.0221
  31   2.0000      -0.815696       -22.1962
  32   2.0000      -0.783630       -21.3236
  33   2.0000      -0.770805       -20.9747
  34   2.0000      -0.717197       -19.5159
  35   2.0000      -0.701334       -19.0843
  36   2.0000      -0.687849       -18.7173
  37   2.0000      -0.663949       -18.0670
  38   2.0000      -0.636175       -17.3112
  39   2.0000      -0.618309       -16.8250
  40   2.0000      -0.591702       -16.1010
  41   2.0000      -0.575367       -15.6565
  42   2.0000      -0.566697       -15.4206
  43   2.0000      -0.554457       -15.0875
  44   2.0000      -0.548760       -14.9325
  45   2.0000      -0.522765       -14.2252
  46   2.0000      -0.519593       -14.1389
  47   2.0000      -0.504054       -13.7160
  48   2.0000      -0.501926       -13.6581
  49   2.0000      -0.495601       -13.4860
  50   2.0000      -0.491191       -13.3660
  51   2.0000      -0.475404       -12.9364
  52   2.0000      -0.473462       -12.8836
  53   2.0000      -0.468613       -12.7516
  54   2.0000      -0.456520       -12.4225
  55   2.0000      -0.449193       -12.2232
  56   2.0000      -0.439446       -11.9579
  57   2.0000      -0.435439       -11.8489
  58   2.0000      -0.432731       -11.7752
  59   2.0000      -0.429201       -11.6792
  60   2.0000      -0.427217       -11.6252
  61   2.0000      -0.418837       -11.3971
  62   2.0000      -0.395402       -10.7594
  63   2.0000      -0.337785        -9.1916
  64   2.0000      -0.335956        -9.1418
  65   2.0000      -0.325747        -8.8640
  66   2.0000      -0.294083        -8.0024
  67   0.0000       0.032029         0.8715
  68   0.0000       0.057924         1.5762
  69   0.0000       0.114358         3.1118
  70   0.0000       0.122143         3.3237
  71   0.0000       0.125989         3.4283

MULLIKEN ATOMIC CHARGES
-----------------------
   0 S :    0.112045
   1 C :   -0.153407
   2 C :   -0.042693
   3 C :   -0.003895
   4 C :   -0.146510
   5 H :    0.013223
   6 C :    0.030261
   7 H :    0.026515
   8 H :    0.025768
   9 C :   -0.058309
  10 H :    0.040103
  11 H :    0.039754
  12 C :   -0.068673
  13 H :    0.025594
  14 H :    0.041933
  15 H :    0.035326
  16 S :    0.096302
  17 C :   -0.100958
  18 C :   -0.026273
  19 C :   -0.019864
  20 C :   -0.176735
  21 H :    0.015824
  22 C :    0.091664
  23 H :    0.032034
  24 H :    0.013571
  25 C :   -0.052311
  26 H :    0.016722
  27 H :   -0.001436
  28 C :   -0.031844
  29 H :    0.023103
  30 H :    0.028066
  31 H :    0.046726
  32 H :    0.066807
  33 H :    0.061567
Sum of atomic charges:    0.0000000

LOEWDIN ATOMIC CHARGES
----------------------
   0 S :    0.403786
   1 C :   -0.213096
   2 C :   -0.063482
   3 C :   -0.069499
   4 C :   -0.195212
   5 H :    0.031227
   6 C :   -0.043582
   7 H :    0.034768
   8 H :    0.034663
   9 C :   -0.036868
  10 H :    0.028529
  11 H :    0.027116
  12 C :   -0.072193
  13 H :    0.025268
  14 H :    0.028633
  15 H :    0.029030
  16 S :    0.394036
  17 C :   -0.171883
  18 C :   -0.075440
  19 C :   -0.053290
  20 C :   -0.195203
  21 H :    0.031401
  22 C :   -0.029325
  23 H :    0.037744
  24 H :    0.025923
  25 C :   -0.044594
  26 H :    0.027702
  27 H :    0.013258
  28 C :   -0.068443
  29 H :    0.018361
  30 H :    0.031950
  31 H :    0.035500
  32 H :    0.044884
  33 H :    0.028330

  Mayer bond orders larger than 0.100000
B(  0-S ,  1-C ) :   1.1304 B(  0-S ,  4-C ) :   1.1465 B(  1-C ,  2-C ) :   1.6111
B(  1-C ,  4-C ) :   0.1013 B(  1-C , 32-H ) :   0.9639 B(  2-C ,  3-C ) :   1.2375
B(  2-C ,  6-C ) :   1.0057 B(  3-C ,  4-C ) :   1.5890 B(  3-C ,  5-H ) :   0.9942
B(  4-C , 20-C ) :   1.0170 B(  6-C ,  7-H ) :   0.9302 B(  6-C ,  8-H ) :   0.9327
B(  6-C ,  9-C ) :   1.0995 B(  9-C , 10-H ) :   0.9463 B(  9-C , 11-H ) :   0.9453
B(  9-C , 12-C ) :   1.0851 B( 12-C , 13-H ) :   0.9721 B( 12-C , 14-H ) :   0.9754
B( 12-C , 15-H ) :   0.9728 B( 16-S , 17-C ) :   1.1551 B( 16-S , 20-C ) :   1.1555
B( 17-C , 18-C ) :   1.5929 B( 17-C , 20-C ) :   0.1044 B( 17-C , 33-H ) :   0.9711
B( 18-C , 19-C ) :   1.2592 B( 18-C , 21-H ) :   0.9869 B( 19-C , 20-C ) :   1.5424
B( 19-C , 22-C ) :   1.0540 B( 22-C , 23-H ) :   0.9241 B( 22-C , 24-H ) :   0.9266
B( 22-C , 25-C ) :   1.0661 B( 25-C , 26-H ) :   0.9499 B( 25-C , 27-H ) :   0.9462
B( 25-C , 28-C ) :   1.0829 B( 28-C , 29-H ) :   0.9735 B( 28-C , 30-H ) :   0.9703
B( 28-C , 31-H ) :   0.9679

Dispersion correction           -0.014472735
FINAL SINGLE POINT ENERGY     -1339.868049677109

DIPOLE MOMENT
-------------
                                X             Y             Z
Electronic contribution:     -6.48602      -6.70014      20.98860
Nuclear contribution   :      6.53087       6.92485     -21.41685
                        -----------------------------------------
Total Dipole Moment    :      0.04485       0.22472      -0.42825
                        -----------------------------------------
Magnitude (a.u.)       :      0.48570
Magnitude (Debye)      :      1.23455

Rotational constants in cm-1:     0.017896     0.008007     0.007796
Rotational constants in MHz :   536.497178   240.056813   233.718608

                             ****ORCA TERMINATED NORMALLY****
TOTAL RUN TIME: 0 days 0 hours 0 minutes 20 seconds 638 msec
