                         Program Version 4.2.1 -  RELEASE  -
|  1> ! wB97X-D3 SP def2-SVP
|  2> %pal
|  3> nprocs 24
|  4> end
|  5>
|  6> * xyz 0 1
|  7> S 	 -117.305 	 24.8465 	 -20.3724
|  8> C 	 -116.15 	 25.7446 	 -21.3164
|  9> C 	 -115.692 	 26.9334 	 -20.6933
| 10> C 	 -116.384 	 27.0633 	 -19.4128
| 11> C 	 -117.285 	 26.0824 	 -19.1477
| 12> H 	 -116.076 	 27.7321 	 -18.6537
| 13> C 	 -114.558 	 27.8309 	 -21.2212
| 14> H 	 -114.19 	 28.5 	 -20.4544
| 15> H 	 -115.003 	 28.5188 	 -21.9225
| 16> C 	 -113.434 	 27.0573 	 -21.8871
| 17> H 	 -112.977 	 26.5428 	 -21.0555
| 18> H 	 -113.813 	 26.3661 	 -22.6278
| 19> C 	 -112.283 	 27.9468 	 -22.3692
| 20> H 	 -111.696 	 28.4482 	 -21.5573
| 21> H 	 -111.636 	 27.4503 	 -23.0675
| 22> H 	 -112.658 	 28.8337 	 -22.8597
| 23> S 	 -117.517 	 24.4019 	 -16.8516
| 24> C 	 -118.353 	 24.9896 	 -15.5075
| 25> C 	 -118.799 	 26.2826 	 -15.6935
| 26> C 	 -118.481 	 26.8389 	 -16.9974
| 27> C 	 -117.913 	 25.8918 	 -17.8264
| 28> H 	 -119.295 	 26.7453 	 -14.8524
| 29> C 	 -118.888 	 28.2423 	 -17.4282
| 30> H 	 -117.935 	 28.7064 	 -17.6059
| 31> H 	 -119.39 	 28.7769 	 -16.6394
| 32> C 	 -119.876 	 28.355 	 -18.6545
| 33> H 	 -119.329 	 27.8385 	 -19.3947
| 34> H 	 -120.102 	 29.3476 	 -18.9527
| 35> C 	 -121.166 	 27.5475 	 -18.5102
| 36> H 	 -121.538 	 27.5144 	 -17.5179
| 37> H 	 -121.122 	 26.4412 	 -18.6683
| 38> H 	 -121.944 	 27.9078 	 -19.1631
| 39> H 	 -115.6 	 25.3171 	 -22.136
| 40> H 	 -118.565 	 24.368 	 -14.6836
| 41> *
| 42>
| 43>                          ****END OF INPUT****

CARTESIAN COORDINATES (ANGSTROEM)
---------------------------------
  S    -117.305000   24.846500  -20.372400
  C    -116.150000   25.744600  -21.316400
  C    -115.692000   26.933400  -20.693300
  C    -116.384000   27.063300  -19.412800
  C    -117.285000   26.082400  -19.147700
  H    -116.076000   27.732100  -18.653700
  C    -114.558000   27.830900  -21.221200
  H    -114.190000   28.500000  -20.454400
  H    -115.003000   28.518800  -21.922500
  C    -113.434000   27.057300  -21.887100
  H    -112.977000   26.542800  -21.055500
  H    -113.813000   26.366100  -22.627800
  C    -112.283000   27.946800  -22.369200
  H    -111.696000   28.448200  -21.557300
  H    -111.636000   27.450300  -23.067500
  H    -112.658000   28.833700  -22.859700
  S    -117.517000   24.401900  -16.851600
  C    -118.353000   24.989600  -15.507500
  C    -118.799000   26.282600  -15.693500
  C    -118.481000   26.838900  -16.997400
  C    -117.913000   25.891800  -17.826400
  H    -119.295000   26.745300  -14.852400
  C    -118.888000   28.242300  -17.428200
  H    -117.935000   28.706400  -17.605900
  H    -119.390000   28.776900  -16.639400
  C    -119.876000   28.355000  -18.654500
  H    -119.329000   27.838500  -19.394700
  H    -120.102000   29.347600  -18.952700
  C    -121.166000   27.547500  -18.510200
  H    -121.538000   27.514400  -17.517900
  H    -121.122000   26.441200  -18.668300
  H    -121.944000   27.907800  -19.163100
  H    -115.600000   25.317100  -22.136000
  H    -118.565000   24.368000  -14.683600

 Total Charge           Charge          ....    0
 Multiplicity           Mult            ....    1
 Number of Electrons    NEL             ....  134
 Basis Dimension        Dim             ....  322

ORBITAL ENERGIES
----------------

  NO   OCC          E(Eh)            E(eV)
   0   2.0000     -88.969420     -2420.9810
   1   2.0000     -88.961416     -2420.7632
   2   2.0000     -10.328391      -281.0498
   3   2.0000     -10.326958      -281.0108
   4   2.0000     -10.315102      -280.6882
   5   2.0000     -10.310576      -280.5650
   6   2.0000     -10.310261      -280.5565
   7   2.0000     -10.307362      -280.4776
   8   2.0000     -10.295238      -280.1477
   9   2.0000     -10.293362      -280.0966
  10   2.0000     -10.292934      -280.0850
  11   2.0000     -10.290402      -280.0161
  12   2.0000     -10.287545      -279.9383
  13   2.0000     -10.280613      -279.7497
  14   2.0000     -10.277279      -279.6590
  15   2.0000     -10.266466      -279.3647
  16   2.0000      -8.084209      -219.9825
  17   2.0000      -8.076541      -219.7739
  18   2.0000      -6.042665      -164.4293
  19   2.0000      -6.038711      -164.3217
  20   2.0000      -6.035042      -164.2219
  21   2.0000      -6.034997      -164.2206
  22   2.0000      -6.031010      -164.1121
  23   2.0000      -6.027322      -164.0118
  24   2.0000      -1.004464       -27.3329
  25   2.0000      -0.982261       -26.7287
  26   2.0000      -0.916778       -24.9468
  27   2.0000      -0.905470       -24.6391
  28   2.0000      -0.865877       -23.5617
  29   2.0000      -0.852234       -23.1905
  30   2.0000      -0.843508       -22.9530
  31   2.0000      -0.811420       -22.0799
  32   2.0000      -0.785626       -21.3780
  33   2.0000      -0.773682       -21.0529
  34   2.0000      -0.713117       -19.4049
  35   2.0000      -0.705852       -19.2072
  36   2.0000      -0.686603       -18.6834
  37   2.0000      -0.661088       -17.9891
  38   2.0000      -0.642288       -17.4775
  39   2.0000      -0.617097       -16.7921
  40   2.0000      -0.588279       -16.0079
  41   2.0000      -0.579386       -15.7659
  42   2.0000      -0.563205       -15.3256
  43   2.0000      -0.556530       -15.1440
  44   2.0000      -0.549884       -14.9631
  45   2.0000      -0.528303       -14.3759
  46   2.0000      -0.516647       -14.0587
  47   2.0000      -0.506894       -13.7933
  48   2.0000      -0.499044       -13.5797
  49   2.0000      -0.492520       -13.4022
  50   2.0000      -0.486222       -13.2308
  51   2.0000      -0.481225       -13.0948
  52   2.0000      -0.475969       -12.9518
  53   2.0000      -0.464657       -12.6440
  54   2.0000      -0.457422       -12.4471
  55   2.0000      -0.456320       -12.4171
  56   2.0000      -0.441204       -12.0058
  57   2.0000      -0.437912       -11.9162
  58   2.0000      -0.435436       -11.8488
  59   2.0000      -0.431992       -11.7551
  60   2.0000      -0.420976       -11.4553
  61   2.0000      -0.415518       -11.3068
  62   2.0000      -0.400866       -10.9081
  63   2.0000      -0.346545        -9.4300
  64   2.0000      -0.330822        -9.0021
  65   2.0000      -0.326584        -8.8868
  66   2.0000      -0.293789        -7.9944
  67   0.0000       0.027957         0.7608
  68   0.0000       0.070473         1.9177
  69   0.0000       0.112470         3.0605
  70   0.0000       0.119756         3.2587
  71   0.0000       0.124683         3.3928

MULLIKEN ATOMIC CHARGES
-----------------------
   0 S :    0.118853
   1 C :   -0.123172
   2 C :   -0.106224
   3 C :    0.031035
   4 C :   -0.162071
   5 H :    0.009255
   6 C :    0.087133
   7 H :    0.014073
   8 H :    0.033382
   9 C :   -0.094988
  10 H :    0.038153
  11 H :    0.041910
  12 C :   -0.036709
  13 H :    0.033078
  14 H :    0.037747
  15 H :    0.010350
  16 S :    0.094292
  17 C :   -0.079812
  18 C :   -0.037592
  19 C :   -0.062813
  20 C :   -0.134533
  21 H :    0.016403
  22 C :    0.084436
  23 H :    0.024794
  24 H :    0.015978
  25 C :   -0.026856
  26 H :    0.030528
  27 H :    0.028968
  28 C :   -0.053412
  29 H :    0.005818
  30 H :    0.034126
  31 H :    0.031543
  32 H :    0.048874
  33 H :    0.047457
Sum of atomic charges:    0.0000000

LOEWDIN ATOMIC CHARGES
----------------------
   0 S :    0.417330
   1 C :   -0.204376
   2 C :   -0.048847
   3 C :   -0.054903
   4 C :   -0.203723
   5 H :    0.025753
   6 C :   -0.030064
   7 H :    0.028763
   8 H :    0.031175
   9 C :   -0.040419
  10 H :    0.030781
  11 H :    0.023474
  12 C :   -0.067319
  13 H :    0.032225
  14 H :    0.025862
  15 H :    0.019052
  16 S :    0.395318
  17 C :   -0.192082
  18 C :   -0.077343
  19 C :   -0.049354
  20 C :   -0.182760
  21 H :    0.030168
  22 C :   -0.025026
  23 H :    0.028883
  24 H :    0.024788
  25 C :   -0.028779
  26 H :    0.022147
  27 H :    0.022005
  28 C :   -0.071159
  29 H :    0.015542
  30 H :    0.033719
  31 H :    0.025497
  32 H :    0.021269
  33 H :    0.022404

  Mayer bond orders larger than 0.100000
B(  0-S ,  1-C ) :   1.1499 B(  0-S ,  4-C ) :   1.1439 B(  1-C ,  2-C ) :   1.6117
B(  1-C , 32-H ) :   0.9632 B(  2-C ,  3-C ) :   1.2488 B(  2-C ,  6-C ) :   1.0116
B(  3-C ,  4-C ) :   1.5850 B(  3-C ,  5-H ) :   0.9917 B(  4-C , 20-C ) :   1.0305
B(  6-C ,  7-H ) :   0.9462 B(  6-C ,  8-H ) :   0.9257 B(  6-C ,  9-C ) :   1.0654
B(  9-C , 10-H ) :   0.9611 B(  9-C , 11-H ) :   0.9543 B(  9-C , 12-C ) :   1.0832
B( 12-C , 13-H ) :   0.9730 B( 12-C , 14-H ) :   0.9745 B( 12-C , 15-H ) :   0.9726
B( 16-S , 17-C ) :   1.1753 B( 16-S , 20-C ) :   1.1226 B( 17-C , 18-C ) :   1.6043
B( 17-C , 33-H ) :   0.9705 B( 18-C , 19-C ) :   1.2230 B( 18-C , 21-H ) :   0.9955
B( 19-C , 20-C ) :   1.6084 B( 19-C , 22-C ) :   1.0310 B( 22-C , 23-H ) :   0.9287
B( 22-C , 24-H ) :   0.9413 B( 22-C , 25-C ) :   1.0713 B( 25-C , 26-H ) :   0.9542
B( 25-C , 27-H ) :   0.9619 B( 25-C , 28-C ) :   1.0697 B( 28-C , 29-H ) :   0.9773
B( 28-C , 30-H ) :   0.9705 B( 28-C , 31-H ) :   0.9757

Dispersion correction           -0.014647097
FINAL SINGLE POINT ENERGY     -1339.870389526516

DIPOLE MOMENT
-------------
                                X             Y             Z
Electronic contribution:     -5.18781     -18.95139       9.73489
Nuclear contribution   :      5.53887      19.48183      -9.69836
                        -----------------------------------------
Total Dipole Moment    :      0.35107       0.53044       0.03653
                        -----------------------------------------
Magnitude (a.u.)       :      0.63714
Magnitude (Debye)      :      1.61949

Rotational constants in cm-1:     0.022108     0.007470     0.006752
Rotational constants in MHz :   662.794985   223.957088   202.427230

                             ****ORCA TERMINATED NORMALLY****
TOTAL RUN TIME: 0 days 0 hours 0 minutes 20 seconds 600 msec
