                         Program Version 4.2.1 -  RELEASE  -
|  1> ! wB97X-D3 SP def2-SVP
|  2> %pal
|  3> nprocs 24
|  4> end
|  5>
|  6> * xyz 0 1
|  7> S 	 -132.869 	 62.9464 	 -59.6568
|  8> C 	 -133.264 	 64.7014 	 -59.9142
|  9> C 	 -133.092 	 65.3768 	 -58.7433
| 10> C 	 -132.561 	 64.4984 	 -57.7261
| 11> C 	 -132.329 	 63.195 	 -58.0659
| 12> H 	 -132.247 	 64.8604 	 -56.6971
| 13> C 	 -133.455 	 66.8841 	 -58.5587
| 14> H 	 -133.548 	 67.2351 	 -59.591
| 15> H 	 -132.622 	 67.3461 	 -57.9954
| 16> C 	 -134.702 	 67.1358 	 -57.7513
| 17> H 	 -135.594 	 66.7938 	 -58.2365
| 18> H 	 -134.553 	 66.5181 	 -56.8727
| 19> C 	 -134.909 	 68.5337 	 -57.2457
| 20> H 	 -135.108 	 69.1667 	 -58.0998
| 21> H 	 -135.795 	 68.6882 	 -56.6081
| 22> H 	 -134.126 	 68.9195 	 -56.6365
| 23> S 	 -133.152 	 61.1617 	 -56.339
| 24> C 	 -131.945 	 60.199 	 -55.5057
| 25> C 	 -130.667 	 60.4704 	 -56.0618
| 26> C 	 -130.697 	 61.5515 	 -57.0367
| 27> C 	 -131.958 	 62.0546 	 -57.2286
| 28> H 	 -129.903 	 59.8213 	 -55.7329
| 29> C 	 -129.447 	 61.9892 	 -57.7517
| 30> H 	 -128.766 	 62.4286 	 -57.0292
| 31> H 	 -129.708 	 62.9199 	 -58.27
| 32> C 	 -128.775 	 61.0682 	 -58.8088
| 33> H 	 -129.509 	 60.8988 	 -59.5532
| 34> H 	 -128.459 	 60.0553 	 -58.2794
| 35> C 	 -127.545 	 61.7933 	 -59.4003
| 36> H 	 -126.828 	 62.2575 	 -58.6905
| 37> H 	 -127.695 	 62.6076 	 -60.038
| 38> H 	 -126.974 	 61.043 	 -59.9129
| 39> H 	 -133.739 	 65.114 	 -60.8048
| 40> H 	 -132.014 	 59.4987 	 -54.6697
| 41> *
| 42>
| 43>                          ****END OF INPUT****

CARTESIAN COORDINATES (ANGSTROEM)
---------------------------------
  S    -132.869000   62.946400  -59.656800
  C    -133.264000   64.701400  -59.914200
  C    -133.092000   65.376800  -58.743300
  C    -132.561000   64.498400  -57.726100
  C    -132.329000   63.195000  -58.065900
  H    -132.247000   64.860400  -56.697100
  C    -133.455000   66.884100  -58.558700
  H    -133.548000   67.235100  -59.591000
  H    -132.622000   67.346100  -57.995400
  C    -134.702000   67.135800  -57.751300
  H    -135.594000   66.793800  -58.236500
  H    -134.553000   66.518100  -56.872700
  C    -134.909000   68.533700  -57.245700
  H    -135.108000   69.166700  -58.099800
  H    -135.795000   68.688200  -56.608100
  H    -134.126000   68.919500  -56.636500
  S    -133.152000   61.161700  -56.339000
  C    -131.945000   60.199000  -55.505700
  C    -130.667000   60.470400  -56.061800
  C    -130.697000   61.551500  -57.036700
  C    -131.958000   62.054600  -57.228600
  H    -129.903000   59.821300  -55.732900
  C    -129.447000   61.989200  -57.751700
  H    -128.766000   62.428600  -57.029200
  H    -129.708000   62.919900  -58.270000
  C    -128.775000   61.068200  -58.808800
  H    -129.509000   60.898800  -59.553200
  H    -128.459000   60.055300  -58.279400
  C    -127.545000   61.793300  -59.400300
  H    -126.828000   62.257500  -58.690500
  H    -127.695000   62.607600  -60.038000
  H    -126.974000   61.043000  -59.912900
  H    -133.739000   65.114000  -60.804800
  H    -132.014000   59.498700  -54.669700

 Total Charge           Charge          ....    0
 Multiplicity           Mult            ....    1
 Number of Electrons    NEL             ....  134
 Basis Dimension        Dim             ....  322

ORBITAL ENERGIES
----------------

  NO   OCC          E(Eh)            E(eV)
   0   2.0000     -88.967754     -2420.9357
   1   2.0000     -88.962116     -2420.7822
   2   2.0000     -10.326287      -280.9926
   3   2.0000     -10.324486      -280.9436
   4   2.0000     -10.322313      -280.8844
   5   2.0000     -10.318625      -280.7841
   6   2.0000     -10.304931      -280.4114
   7   2.0000     -10.303659      -280.3768
   8   2.0000     -10.299201      -280.2555
   9   2.0000     -10.298280      -280.2304
  10   2.0000     -10.297173      -280.2003
  11   2.0000     -10.294425      -280.1255
  12   2.0000     -10.284948      -279.8677
  13   2.0000     -10.280330      -279.7420
  14   2.0000     -10.274446      -279.5819
  15   2.0000     -10.273154      -279.5467
  16   2.0000      -8.082266      -219.9296
  17   2.0000      -8.077026      -219.7870
  18   2.0000      -6.040797      -164.3784
  19   2.0000      -6.036761      -164.2686
  20   2.0000      -6.035606      -164.2372
  21   2.0000      -6.033035      -164.1672
  22   2.0000      -6.031439      -164.1238
  23   2.0000      -6.027736      -164.0230
  24   2.0000      -1.008065       -27.4309
  25   2.0000      -0.982623       -26.7385
  26   2.0000      -0.917409       -24.9640
  27   2.0000      -0.903384       -24.5823
  28   2.0000      -0.872822       -23.7507
  29   2.0000      -0.848260       -23.0823
  30   2.0000      -0.840229       -22.8638
  31   2.0000      -0.814316       -22.1587
  32   2.0000      -0.786374       -21.3983
  33   2.0000      -0.773336       -21.0436
  34   2.0000      -0.708197       -19.2710
  35   2.0000      -0.700181       -19.0529
  36   2.0000      -0.693968       -18.8838
  37   2.0000      -0.658999       -17.9323
  38   2.0000      -0.640122       -17.4186
  39   2.0000      -0.616415       -16.7735
  40   2.0000      -0.590052       -16.0561
  41   2.0000      -0.577345       -15.7104
  42   2.0000      -0.566851       -15.4248
  43   2.0000      -0.558403       -15.1949
  44   2.0000      -0.527856       -14.3637
  45   2.0000      -0.526123       -14.3165
  46   2.0000      -0.517623       -14.0852
  47   2.0000      -0.510492       -13.8912
  48   2.0000      -0.507679       -13.8146
  49   2.0000      -0.500191       -13.6109
  50   2.0000      -0.497516       -13.5381
  51   2.0000      -0.472705       -12.8630
  52   2.0000      -0.470514       -12.8033
  53   2.0000      -0.464407       -12.6372
  54   2.0000      -0.459725       -12.5098
  55   2.0000      -0.447586       -12.1794
  56   2.0000      -0.440560       -11.9882
  57   2.0000      -0.435603       -11.8534
  58   2.0000      -0.433964       -11.8087
  59   2.0000      -0.421347       -11.4654
  60   2.0000      -0.419149       -11.4056
  61   2.0000      -0.410798       -11.1784
  62   2.0000      -0.409841       -11.1523
  63   2.0000      -0.333472        -9.0742
  64   2.0000      -0.329240        -8.9591
  65   2.0000      -0.320536        -8.7222
  66   2.0000      -0.317401        -8.6369
  67   0.0000       0.047195         1.2842
  68   0.0000       0.053260         1.4493
  69   0.0000       0.117052         3.1851
  70   0.0000       0.119964         3.2644
  71   0.0000       0.125581         3.4172

MULLIKEN ATOMIC CHARGES
-----------------------
   0 S :    0.094351
   1 C :   -0.139885
   2 C :   -0.089322
   3 C :    0.016038
   4 C :   -0.182589
   5 H :    0.028006
   6 C :    0.084121
   7 H :    0.020440
   8 H :    0.030802
   9 C :   -0.055010
  10 H :    0.023255
  11 H :    0.020234
  12 C :   -0.032835
  13 H :    0.023634
  14 H :    0.031456
  15 H :    0.023778
  16 S :    0.133586
  17 C :   -0.112286
  18 C :   -0.030028
  19 C :   -0.011277
  20 C :   -0.153838
  21 H :    0.007603
  22 C :    0.046725
  23 H :    0.022528
  24 H :    0.015031
  25 C :   -0.056508
  26 H :    0.033556
  27 H :    0.048600
  28 C :   -0.032854
  29 H :    0.022998
  30 H :    0.024053
  31 H :    0.028591
  32 H :    0.052801
  33 H :    0.064249
Sum of atomic charges:    0.0000000

LOEWDIN ATOMIC CHARGES
----------------------
   0 S :    0.397750
   1 C :   -0.179060
   2 C :   -0.063825
   3 C :   -0.072869
   4 C :   -0.212849
   5 H :    0.037437
   6 C :   -0.021614
   7 H :    0.028161
   8 H :    0.035507
   9 C :   -0.044348
  10 H :    0.023253
  11 H :    0.025217
  12 C :   -0.064834
  13 H :    0.023176
  14 H :    0.031718
  15 H :    0.020143
  16 S :    0.417400
  17 C :   -0.190614
  18 C :   -0.065969
  19 C :   -0.051786
  20 C :   -0.215621
  21 H :    0.023942
  22 C :   -0.045845
  23 H :    0.030061
  24 H :    0.030893
  25 C :   -0.029090
  26 H :    0.023139
  27 H :    0.035063
  28 C :   -0.067033
  29 H :    0.029506
  30 H :    0.019372
  31 H :    0.025930
  32 H :    0.030996
  33 H :    0.036694

  Mayer bond orders larger than 0.100000
B(  0-S ,  1-C ) :   1.1249 B(  0-S ,  4-C ) :   1.1563 B(  1-C ,  2-C ) :   1.6403
B(  1-C , 32-H ) :   0.9660 B(  2-C ,  3-C ) :   1.2228 B(  2-C ,  6-C ) :   1.0159
B(  3-C ,  4-C ) :   1.6176 B(  3-C ,  5-H ) :   0.9838 B(  4-C , 20-C ) :   0.9899
B(  6-C ,  7-H ) :   0.9378 B(  6-C ,  8-H ) :   0.9379 B(  6-C ,  9-C ) :   1.0711
B(  9-C , 10-H ) :   0.9517 B(  9-C , 11-H ) :   0.9528 B(  9-C , 12-C ) :   1.0952
B( 12-C , 13-H ) :   0.9726 B( 12-C , 14-H ) :   0.9712 B( 12-C , 15-H ) :   0.9725
B( 16-S , 17-C ) :   1.1569 B( 16-S , 20-C ) :   1.1396 B( 17-C , 18-C ) :   1.6199
B( 17-C , 33-H ) :   0.9655 B( 18-C , 19-C ) :   1.2177 B( 18-C , 21-H ) :   0.9983
B( 19-C , 20-C ) :   1.6138 B( 19-C , 22-C ) :   1.0514 B( 22-C , 23-H ) :   0.9309
B( 22-C , 24-H ) :   0.9221 B( 22-C , 25-C ) :   1.0557 B( 25-C , 26-H ) :   0.9511
B( 25-C , 27-H ) :   0.9591 B( 25-C , 28-C ) :   1.0709 B( 28-C , 29-H ) :   0.9741
B( 28-C , 30-H ) :   0.9757 B( 28-C , 31-H ) :   0.9742

Dispersion correction           -0.013683572
FINAL SINGLE POINT ENERGY     -1339.868025796037

DIPOLE MOMENT
-------------
                                X             Y             Z
Electronic contribution:     -9.69474     -17.02916       1.69462
Nuclear contribution   :      9.94089      17.41607      -1.54025
                        -----------------------------------------
Total Dipole Moment    :      0.24615       0.38691       0.15438
                        -----------------------------------------
Magnitude (a.u.)       :      0.48386
Magnitude (Debye)      :      1.22989

Rotational constants in cm-1:     0.019567     0.007445     0.006298
Rotational constants in MHz :   586.609531   223.191193   188.810813

                             ****ORCA TERMINATED NORMALLY****
TOTAL RUN TIME: 0 days 0 hours 0 minutes 20 seconds 715 msec
