                         Program Version 4.2.1 -  RELEASE  -
|  1> ! wB97X-D3 SP def2-SVP
|  2> %pal
|  3> nprocs 24
|  4> end
|  5>
|  6> * xyz 0 1
|  7> S 	 -114.204 	 60.3317 	 -29.0062
|  8> C 	 -113.501 	 60.4652 	 -27.3372
|  9> C 	 -114.09 	 61.5074 	 -26.6229
| 10> C 	 -115.022 	 62.2031 	 -27.472
| 11> C 	 -115.224 	 61.6956 	 -28.7525
| 12> H 	 -115.718 	 62.9773 	 -27.2027
| 13> C 	 -113.786 	 61.9184 	 -25.2143
| 14> H 	 -114.446 	 62.8035 	 -25.0564
| 15> H 	 -112.741 	 62.2264 	 -25.2744
| 16> C 	 -113.999 	 60.9383 	 -24.0981
| 17> H 	 -114.987 	 60.536 	 -24.0899
| 18> H 	 -113.296 	 60.0812 	 -24.1671
| 19> C 	 -113.735 	 61.5858 	 -22.7596
| 20> H 	 -114.491 	 62.3535 	 -22.31
| 21> H 	 -113.731 	 60.7562 	 -22.0276
| 22> H 	 -112.696 	 61.8392 	 -22.8447
| 23> S 	 -116.555 	 63.97 	 -29.8937
| 24> C 	 -117.931 	 63.6639 	 -30.9087
| 25> C 	 -118.024 	 62.3674 	 -31.2299
| 26> C 	 -117.115 	 61.5235 	 -30.5432
| 27> C 	 -116.243 	 62.1862 	 -29.7235
| 28> H 	 -118.783 	 62.1328 	 -31.9269
| 29> C 	 -117.204 	 60.0061 	 -30.6638
| 30> H 	 -116.885 	 59.4987 	 -29.738
| 31> H 	 -116.503 	 59.7122 	 -31.489
| 32> C 	 -118.632 	 59.4389 	 -30.9615
| 33> H 	 -118.626 	 58.345 	 -31.0778
| 34> H 	 -118.989 	 59.8212 	 -31.97
| 35> C 	 -119.766 	 59.8567 	 -29.8907
| 36> H 	 -119.441 	 59.5652 	 -28.8767
| 37> H 	 -120.765 	 59.4521 	 -30.1275
| 38> H 	 -119.838 	 60.9111 	 -30.0471
| 39> H 	 -112.782 	 59.8392 	 -26.8614
| 40> H 	 -118.468 	 64.4342 	 -31.4809
| 41> *
| 42>
| 43>                          ****END OF INPUT****

CARTESIAN COORDINATES (ANGSTROEM)
---------------------------------
  S    -114.204000   60.331700  -29.006200
  C    -113.501000   60.465200  -27.337200
  C    -114.090000   61.507400  -26.622900
  C    -115.022000   62.203100  -27.472000
  C    -115.224000   61.695600  -28.752500
  H    -115.718000   62.977300  -27.202700
  C    -113.786000   61.918400  -25.214300
  H    -114.446000   62.803500  -25.056400
  H    -112.741000   62.226400  -25.274400
  C    -113.999000   60.938300  -24.098100
  H    -114.987000   60.536000  -24.089900
  H    -113.296000   60.081200  -24.167100
  C    -113.735000   61.585800  -22.759600
  H    -114.491000   62.353500  -22.310000
  H    -113.731000   60.756200  -22.027600
  H    -112.696000   61.839200  -22.844700
  S    -116.555000   63.970000  -29.893700
  C    -117.931000   63.663900  -30.908700
  C    -118.024000   62.367400  -31.229900
  C    -117.115000   61.523500  -30.543200
  C    -116.243000   62.186200  -29.723500
  H    -118.783000   62.132800  -31.926900
  C    -117.204000   60.006100  -30.663800
  H    -116.885000   59.498700  -29.738000
  H    -116.503000   59.712200  -31.489000
  C    -118.632000   59.438900  -30.961500
  H    -118.626000   58.345000  -31.077800
  H    -118.989000   59.821200  -31.970000
  C    -119.766000   59.856700  -29.890700
  H    -119.441000   59.565200  -28.876700
  H    -120.765000   59.452100  -30.127500
  H    -119.838000   60.911100  -30.047100
  H    -112.782000   59.839200  -26.861400
  H    -118.468000   64.434200  -31.480900

 Total Charge           Charge          ....    0
 Multiplicity           Mult            ....    1
 Number of Electrons    NEL             ....  134
 Basis Dimension        Dim             ....  322

ORBITAL ENERGIES
----------------

  NO   OCC          E(Eh)            E(eV)
   0   2.0000     -88.970572     -2421.0123
   1   2.0000     -88.964126     -2420.8369
   2   2.0000     -10.334413      -281.2137
   3   2.0000     -10.332489      -281.1613
   4   2.0000     -10.316670      -280.7309
   5   2.0000     -10.314948      -280.6840
   6   2.0000     -10.303853      -280.3821
   7   2.0000     -10.303722      -280.3785
   8   2.0000     -10.298557      -280.2380
   9   2.0000     -10.296846      -280.1914
  10   2.0000     -10.293380      -280.0971
  11   2.0000     -10.291278      -280.0399
  12   2.0000     -10.287132      -279.9271
  13   2.0000     -10.286397      -279.9071
  14   2.0000     -10.285202      -279.8746
  15   2.0000     -10.279714      -279.7252
  16   2.0000      -8.083963      -219.9758
  17   2.0000      -8.078165      -219.8181
  18   2.0000      -6.042580      -164.4270
  19   2.0000      -6.038608      -164.3189
  20   2.0000      -6.036785      -164.2693
  21   2.0000      -6.034727      -164.2133
  22   2.0000      -6.032893      -164.1634
  23   2.0000      -6.028712      -164.0496
  24   2.0000      -1.004134       -27.3239
  25   2.0000      -0.983433       -26.7606
  26   2.0000      -0.921982       -25.0884
  27   2.0000      -0.898563       -24.4511
  28   2.0000      -0.872201       -23.7338
  29   2.0000      -0.849384       -23.1129
  30   2.0000      -0.838067       -22.8049
  31   2.0000      -0.814636       -22.1674
  32   2.0000      -0.782752       -21.2998
  33   2.0000      -0.774259       -21.0687
  34   2.0000      -0.706804       -19.2331
  35   2.0000      -0.698856       -19.0168
  36   2.0000      -0.690898       -18.8003
  37   2.0000      -0.659177       -17.9371
  38   2.0000      -0.633070       -17.2267
  39   2.0000      -0.614729       -16.7276
  40   2.0000      -0.596297       -16.2261
  41   2.0000      -0.576467       -15.6865
  42   2.0000      -0.574568       -15.6348
  43   2.0000      -0.548276       -14.9193
  44   2.0000      -0.533411       -14.5148
  45   2.0000      -0.527374       -14.3506
  46   2.0000      -0.520010       -14.1502
  47   2.0000      -0.515255       -14.0208
  48   2.0000      -0.502005       -13.6602
  49   2.0000      -0.499744       -13.5987
  50   2.0000      -0.480782       -13.0827
  51   2.0000      -0.478354       -13.0167
  52   2.0000      -0.468472       -12.7478
  53   2.0000      -0.467344       -12.7171
  54   2.0000      -0.458917       -12.4878
  55   2.0000      -0.448061       -12.1924
  56   2.0000      -0.443798       -12.0764
  57   2.0000      -0.435588       -11.8530
  58   2.0000      -0.429127       -11.6771
  59   2.0000      -0.421443       -11.4680
  60   2.0000      -0.420536       -11.4434
  61   2.0000      -0.414265       -11.2727
  62   2.0000      -0.409815       -11.1516
  63   2.0000      -0.353124        -9.6090
  64   2.0000      -0.332673        -9.0525
  65   2.0000      -0.329751        -8.9730
  66   2.0000      -0.291384        -7.9290
  67   0.0000       0.025907         0.7050
  68   0.0000       0.077141         2.0991
  69   0.0000       0.107506         2.9254
  70   0.0000       0.112620         3.0645
  71   0.0000       0.127580         3.4716

MULLIKEN ATOMIC CHARGES
-----------------------
   0 S :    0.108608
   1 C :   -0.113181
   2 C :   -0.083425
   3 C :    0.006017
   4 C :   -0.147251
   5 H :    0.006127
   6 C :    0.066150
   7 H :    0.028492
   8 H :    0.041844
   9 C :   -0.067069
  10 H :    0.025587
  11 H :    0.027682
  12 C :   -0.063245
  13 H :    0.063664
  14 H :    0.026120
  15 H :    0.022694
  16 S :    0.088185
  17 C :   -0.090064
  18 C :   -0.030245
  19 C :   -0.036974
  20 C :   -0.136933
  21 H :    0.007447
  22 C :    0.052303
  23 H :    0.042425
  24 H :    0.058131
  25 C :   -0.130765
  26 H :    0.037885
  27 H :    0.027907
  28 C :   -0.047119
  29 H :    0.045302
  30 H :    0.038656
  31 H :    0.027620
  32 H :    0.031924
  33 H :    0.065501
Sum of atomic charges:    0.0000000

LOEWDIN ATOMIC CHARGES
----------------------
   0 S :    0.405245
   1 C :   -0.183304
   2 C :   -0.056739
   3 C :   -0.072447
   4 C :   -0.198856
   5 H :    0.023623
   6 C :   -0.036607
   7 H :    0.038152
   8 H :    0.038635
   9 C :   -0.041783
  10 H :    0.021175
  11 H :    0.027409
  12 C :   -0.073494
  13 H :    0.040560
  14 H :    0.027417
  15 H :    0.023200
  16 S :    0.376958
  17 C :   -0.182950
  18 C :   -0.074898
  19 C :   -0.060708
  20 C :   -0.168962
  21 H :    0.028084
  22 C :   -0.040101
  23 H :    0.028304
  24 H :    0.042671
  25 C :   -0.045565
  26 H :    0.023441
  27 H :    0.020750
  28 C :   -0.065358
  29 H :    0.027750
  30 H :    0.028190
  31 H :    0.020012
  32 H :    0.022090
  33 H :    0.038105

  Mayer bond orders larger than 0.100000
B(  0-S ,  1-C ) :   1.1229 B(  0-S ,  4-C ) :   1.1503 B(  1-C ,  2-C ) :   1.6096
B(  1-C , 32-H ) :   0.9731 B(  2-C ,  3-C ) :   1.2485 B(  2-C ,  6-C ) :   1.0112
B(  3-C ,  4-C ) :   1.5744 B(  3-C ,  5-H ) :   0.9871 B(  4-C , 20-C ) :   1.0315
B(  6-C ,  7-H ) :   0.9428 B(  6-C ,  8-H ) :   0.9273 B(  6-C ,  9-C ) :   1.0810
B(  9-C , 10-H ) :   0.9542 B(  9-C , 11-H ) :   0.9486 B(  9-C , 12-C ) :   1.0889
B( 12-C , 13-H ) :   0.9717 B( 12-C , 14-H ) :   0.9719 B( 12-C , 15-H ) :   0.9711
B( 16-S , 17-C ) :   1.1439 B( 16-S , 20-C ) :   1.1156 B( 17-C , 18-C ) :   1.6498
B( 17-C , 33-H ) :   0.9543 B( 18-C , 19-C ) :   1.2155 B( 18-C , 21-H ) :   0.9916
B( 19-C , 20-C ) :   1.6284 B( 19-C , 22-C ) :   1.0196 B( 22-C , 23-H ) :   0.9386
B( 22-C , 24-H ) :   0.9336 B( 22-C , 25-C ) :   1.0705 B( 25-C , 26-H ) :   0.9603
B( 25-C , 27-H ) :   0.9518 B( 25-C , 28-C ) :   1.0610 B( 28-C , 29-H ) :   0.9777
B( 28-C , 30-H ) :   0.9758 B( 28-C , 31-H ) :   0.9748

Dispersion correction           -0.013854776
FINAL SINGLE POINT ENERGY     -1339.871903869702

DIPOLE MOMENT
-------------
                                X             Y             Z
Electronic contribution:      6.77527       9.74053     -15.89985
Nuclear contribution   :     -7.00428      -9.97195      16.17339
                        -----------------------------------------
Total Dipole Moment    :     -0.22901      -0.23141       0.27354
                        -----------------------------------------
Magnitude (a.u.)       :      0.42523
Magnitude (Debye)      :      1.08086

Rotational constants in cm-1:     0.021809     0.006903     0.006348
Rotational constants in MHz :   653.813717   206.939130   190.311583

                             ****ORCA TERMINATED NORMALLY****
TOTAL RUN TIME: 0 days 0 hours 0 minutes 21 seconds 214 msec
