                         Program Version 4.2.1 -  RELEASE  -
|  1> ! wB97X-D3 SP def2-SVP
|  2> %pal
|  3> nprocs 24
|  4> end
|  5>
|  6> * xyz 0 1
|  7> S 	 29.9909 	 2.46914 	 -114.21
|  8> C 	 28.5712 	 3.042 	 -115.079
|  9> C 	 27.5083 	 2.21417 	 -114.921
| 10> C 	 27.9198 	 1.02792 	 -114.197
| 11> C 	 29.2162 	 1.07355 	 -113.764
| 12> H 	 27.2345 	 0.193256 	 -114.019
| 13> C 	 26.1586 	 2.34609 	 -115.624
| 14> H 	 25.9749 	 1.30213 	 -115.85
| 15> H 	 26.271 	 2.87434 	 -116.534
| 16> C 	 25.09 	 2.99804 	 -114.813
| 17> H 	 25.0333 	 2.42808 	 -113.86
| 18> H 	 25.3366 	 3.99958 	 -114.514
| 19> C 	 23.652 	 2.96891 	 -115.393
| 20> H 	 23.5009 	 3.74565 	 -116.149
| 21> H 	 23.554 	 2.00193 	 -115.897
| 22> H 	 22.9429 	 3.12973 	 -114.568
| 23> S 	 31.028 	 -0.894153 	 -114.261
| 24> C 	 31.7174 	 -1.77723 	 -112.919
| 25> C 	 31.0198 	 -1.54834 	 -111.764
| 26> C 	 30.1082 	 -0.466232 	 -111.905
| 27> C 	 29.9476 	 -0.0605466 	 -113.187
| 28> H 	 31.2559 	 -2.02433 	 -110.819
| 29> C 	 29.4843 	 0.110083 	 -110.765
| 30> H 	 29.0484 	 -0.701872 	 -110.202
| 31> H 	 28.6962 	 0.81884 	 -110.969
| 32> C 	 30.5388 	 0.908213 	 -109.977
| 33> H 	 30.8555 	 1.78886 	 -110.627
| 34> H 	 31.4076 	 0.314109 	 -109.753
| 35> C 	 30.059 	 1.51343 	 -108.612
| 36> H 	 29.337 	 0.852408 	 -108.137
| 37> H 	 29.4964 	 2.47763 	 -108.77
| 38> H 	 30.7981 	 1.74109 	 -107.841
| 39> H 	 28.6561 	 3.91655 	 -115.698
| 40> H 	 32.4454 	 -2.57181 	 -113.085
| 41> *
| 42>
| 43>                          ****END OF INPUT****

CARTESIAN COORDINATES (ANGSTROEM)
---------------------------------
  S     29.990900    2.469140  -114.210000
  C     28.571200    3.042000  -115.079000
  C     27.508300    2.214170  -114.921000
  C     27.919800    1.027920  -114.197000
  C     29.216200    1.073550  -113.764000
  H     27.234500    0.193256  -114.019000
  C     26.158600    2.346090  -115.624000
  H     25.974900    1.302130  -115.850000
  H     26.271000    2.874340  -116.534000
  C     25.090000    2.998040  -114.813000
  H     25.033300    2.428080  -113.860000
  H     25.336600    3.999580  -114.514000
  C     23.652000    2.968910  -115.393000
  H     23.500900    3.745650  -116.149000
  H     23.554000    2.001930  -115.897000
  H     22.942900    3.129730  -114.568000
  S     31.028000   -0.894153  -114.261000
  C     31.717400   -1.777230  -112.919000
  C     31.019800   -1.548340  -111.764000
  C     30.108200   -0.466232  -111.905000
  C     29.947600   -0.060547  -113.187000
  H     31.255900   -2.024330  -110.819000
  C     29.484300    0.110083  -110.765000
  H     29.048400   -0.701872  -110.202000
  H     28.696200    0.818840  -110.969000
  C     30.538800    0.908213  -109.977000
  H     30.855500    1.788860  -110.627000
  H     31.407600    0.314109  -109.753000
  C     30.059000    1.513430  -108.612000
  H     29.337000    0.852408  -108.137000
  H     29.496400    2.477630  -108.770000
  H     30.798100    1.741090  -107.841000
  H     28.656100    3.916550  -115.698000
  H     32.445400   -2.571810  -113.085000

 Total Charge           Charge          ....    0
 Multiplicity           Mult            ....    1
 Number of Electrons    NEL             ....  134
 Basis Dimension        Dim             ....  322

ORBITAL ENERGIES
----------------

  NO   OCC          E(Eh)            E(eV)
   0   2.0000     -88.962252     -2420.7859
   1   2.0000     -88.959222     -2420.7035
   2   2.0000     -10.318549      -280.7820
   3   2.0000     -10.316523      -280.7269
   4   2.0000     -10.315711      -280.7048
   5   2.0000     -10.309088      -280.5245
   6   2.0000     -10.299057      -280.2516
   7   2.0000     -10.291756      -280.0529
   8   2.0000     -10.290956      -280.0312
   9   2.0000     -10.290231      -280.0114
  10   2.0000     -10.289752      -279.9984
  11   2.0000     -10.287529      -279.9379
  12   2.0000     -10.283095      -279.8172
  13   2.0000     -10.281317      -279.7689
  14   2.0000     -10.280711      -279.7524
  15   2.0000     -10.279306      -279.7141
  16   2.0000      -8.078991      -219.8405
  17   2.0000      -8.074767      -219.7256
  18   2.0000      -6.037242      -164.2817
  19   2.0000      -6.033238      -164.1728
  20   2.0000      -6.033209      -164.1720
  21   2.0000      -6.029867      -164.0810
  22   2.0000      -6.029199      -164.0628
  23   2.0000      -6.025509      -163.9624
  24   2.0000      -1.017127       -27.6774
  25   2.0000      -0.993033       -27.0218
  26   2.0000      -0.917981       -24.9795
  27   2.0000      -0.914876       -24.8950
  28   2.0000      -0.870737       -23.6940
  29   2.0000      -0.847685       -23.0667
  30   2.0000      -0.845749       -23.0140
  31   2.0000      -0.814340       -22.1593
  32   2.0000      -0.785957       -21.3870
  33   2.0000      -0.772358       -21.0169
  34   2.0000      -0.701614       -19.0919
  35   2.0000      -0.698244       -19.0002
  36   2.0000      -0.693655       -18.8753
  37   2.0000      -0.666349       -18.1323
  38   2.0000      -0.646596       -17.5948
  39   2.0000      -0.621417       -16.9096
  40   2.0000      -0.604101       -16.4384
  41   2.0000      -0.570005       -15.5106
  42   2.0000      -0.563433       -15.3318
  43   2.0000      -0.558362       -15.1938
  44   2.0000      -0.532013       -14.4768
  45   2.0000      -0.526571       -14.3287
  46   2.0000      -0.515898       -14.0383
  47   2.0000      -0.514147       -13.9906
  48   2.0000      -0.506700       -13.7880
  49   2.0000      -0.503239       -13.6938
  50   2.0000      -0.491098       -13.3635
  51   2.0000      -0.479275       -13.0417
  52   2.0000      -0.466363       -12.6904
  53   2.0000      -0.463426       -12.6105
  54   2.0000      -0.457203       -12.4411
  55   2.0000      -0.455767       -12.4021
  56   2.0000      -0.446776       -12.1574
  57   2.0000      -0.441400       -12.0111
  58   2.0000      -0.428322       -11.6552
  59   2.0000      -0.423190       -11.5156
  60   2.0000      -0.418507       -11.3882
  61   2.0000      -0.415765       -11.3136
  62   2.0000      -0.412743       -11.2313
  63   2.0000      -0.337384        -9.1807
  64   2.0000      -0.327942        -8.9237
  65   2.0000      -0.322679        -8.7805
  66   2.0000      -0.311510        -8.4766
  67   0.0000       0.049803         1.3552
  68   0.0000       0.066386         1.8065
  69   0.0000       0.119634         3.2554
  70   0.0000       0.123827         3.3695
  71   0.0000       0.130064         3.5392

MULLIKEN ATOMIC CHARGES
-----------------------
   0 S :    0.121751
   1 C :   -0.150607
   2 C :   -0.068254
   3 C :    0.015580
   4 C :   -0.154062
   5 H :    0.015514
   6 C :    0.105903
   7 H :    0.019296
   8 H :    0.011330
   9 C :   -0.085416
  10 H :    0.021482
  11 H :    0.022795
  12 C :   -0.038257
  13 H :    0.032775
  14 H :    0.028690
  15 H :    0.045294
  16 S :    0.101785
  17 C :   -0.097271
  18 C :   -0.016569
  19 C :   -0.036593
  20 C :   -0.166455
  21 H :    0.019043
  22 C :    0.110219
  23 H :    0.020976
  24 H :    0.020037
  25 C :   -0.116605
  26 H :    0.042968
  27 H :    0.028675
  28 C :   -0.054466
  29 H :    0.020456
  30 H :    0.034743
  31 H :    0.039201
  32 H :    0.043376
  33 H :    0.062667
Sum of atomic charges:    0.0000000

LOEWDIN ATOMIC CHARGES
----------------------
   0 S :    0.438657
   1 C :   -0.188944
   2 C :   -0.058842
   3 C :   -0.065792
   4 C :   -0.231312
   5 H :    0.032287
   6 C :   -0.025972
   7 H :    0.032013
   8 H :    0.024082
   9 C :   -0.044349
  10 H :    0.026022
  11 H :    0.020441
  12 C :   -0.063728
  13 H :    0.022934
  14 H :    0.025543
  15 H :    0.031297
  16 S :    0.404952
  17 C :   -0.176555
  18 C :   -0.067642
  19 C :   -0.059146
  20 C :   -0.205575
  21 H :    0.031801
  22 C :   -0.032268
  23 H :    0.031556
  24 H :    0.031240
  25 C :   -0.035760
  26 H :    0.034415
  27 H :    0.018011
  28 C :   -0.078385
  29 H :    0.020662
  30 H :    0.029611
  31 H :    0.026812
  32 H :    0.022562
  33 H :    0.029372

  Mayer bond orders larger than 0.100000
B(  0-S ,  1-C ) :   1.1407 B(  0-S ,  4-C ) :   1.1842 B(  1-C ,  2-C ) :   1.6156
B(  1-C , 32-H ) :   0.9746 B(  2-C ,  3-C ) :   1.2396 B(  2-C ,  6-C ) :   1.0093
B(  3-C ,  4-C ) :   1.5831 B(  3-C ,  5-H ) :   0.9931 B(  4-C , 20-C ) :   0.9741
B(  6-C ,  7-H ) :   0.9338 B(  6-C ,  8-H ) :   0.9409 B(  6-C ,  9-C ) :   1.0747
B(  9-C , 10-H ) :   0.9554 B(  9-C , 11-H ) :   0.9537 B(  9-C , 12-C ) :   1.0773
B( 12-C , 13-H ) :   0.9763 B( 12-C , 14-H ) :   0.9747 B( 12-C , 15-H ) :   0.9764
B( 16-S , 17-C ) :   1.1619 B( 16-S , 20-C ) :   1.1359 B( 17-C , 18-C ) :   1.6128
B( 17-C , 33-H ) :   0.9651 B( 18-C , 19-C ) :   1.2190 B( 18-C , 21-H ) :   0.9883
B( 19-C , 20-C ) :   1.6422 B( 19-C , 22-C ) :   1.0831 B( 22-C , 23-H ) :   0.9158
B( 22-C , 24-H ) :   0.9232 B( 22-C , 25-C ) :   1.0560 B( 25-C , 26-H ) :   0.9548
B( 25-C , 27-H ) :   0.9641 B( 25-C , 28-C ) :   1.0665 B( 28-C , 29-H ) :   0.9749
B( 28-C , 30-H ) :   0.9764 B( 28-C , 31-H ) :   0.9782

Dispersion correction           -0.013817414
FINAL SINGLE POINT ENERGY     -1339.885634894895

DIPOLE MOMENT
-------------
                                X             Y             Z
Electronic contribution:     19.73384      -7.87380     -11.76885
Nuclear contribution   :    -20.09264       7.85803      11.97700
                        -----------------------------------------
Total Dipole Moment    :     -0.35880      -0.01577       0.20815
                        -----------------------------------------
Magnitude (a.u.)       :      0.41511
Magnitude (Debye)      :      1.05512

Rotational constants in cm-1:     0.020022     0.007526     0.006475
Rotational constants in MHz :   600.237620   225.614446   194.121931

                             ****ORCA TERMINATED NORMALLY****
TOTAL RUN TIME: 0 days 0 hours 0 minutes 21 seconds 157 msec
