                         Program Version 4.2.1 -  RELEASE  -
|  1> ! wB97X-D3 SP def2-SVP
|  2> %pal
|  3> nprocs 24
|  4> end
|  5>
|  6> * xyz 0 1
|  7> S 	 -16.8865 	 -27.8166 	 -98.1746
|  8> C 	 -15.8493 	 -28.5218 	 -99.363
|  9> C 	 -16.1684 	 -29.807 	 -99.6382
| 10> C 	 -17.1335 	 -30.3139 	 -98.7158
| 11> C 	 -17.6582 	 -29.398 	 -97.8517
| 12> H 	 -17.4059 	 -31.3675 	 -98.6672
| 13> C 	 -15.46 	 -30.7258 	 -100.545
| 14> H 	 -14.863 	 -31.3854 	 -99.8687
| 15> H 	 -14.6669 	 -30.2174 	 -101.044
| 16> C 	 -16.3152 	 -31.5429 	 -101.584
| 17> H 	 -15.7237 	 -32.3169 	 -102.177
| 18> H 	 -16.9361 	 -32.1701 	 -101.047
| 19> C 	 -17.2597 	 -30.6013 	 -102.389
| 20> H 	 -16.6024 	 -29.9868 	 -103.042
| 21> H 	 -18.0301 	 -31.0414 	 -103.035
| 22> H 	 -17.8178 	 -29.9469 	 -101.748
| 23> S 	 -18.3614 	 -29.6361 	 -95.1649
| 24> C 	 -19.8654 	 -30.252 	 -94.7463
| 25> C 	 -20.5646 	 -30.5631 	 -95.8472
| 26> C 	 -19.9324 	 -30.2313 	 -97.065
| 27> C 	 -18.7229 	 -29.6708 	 -96.9122
| 28> H 	 -21.6257 	 -30.8754 	 -95.6909
| 29> C 	 -20.5617 	 -30.5379 	 -98.4006
| 30> H 	 -20.493 	 -31.6517 	 -98.5864
| 31> H 	 -19.9151 	 -30.0043 	 -99.0422
| 32> C 	 -22.0384 	 -30.1646 	 -98.5586
| 33> H 	 -22.6133 	 -30.6618 	 -97.8183
| 34> H 	 -22.4799 	 -30.6119 	 -99.5109
| 35> C 	 -22.3924 	 -28.6797 	 -98.3353
| 36> H 	 -22.0771 	 -28.1762 	 -97.4131
| 37> H 	 -23.4434 	 -28.4281 	 -98.5602
| 38> H 	 -21.8881 	 -28.1622 	 -99.16
| 39> H 	 -15.1412 	 -28.0668 	 -100.126
| 40> H 	 -20.3277 	 -30.2419 	 -93.7499
| 41> *
| 42>
| 43>                          ****END OF INPUT****

CARTESIAN COORDINATES (ANGSTROEM)
---------------------------------
  S    -16.886500  -27.816600  -98.174600
  C    -15.849300  -28.521800  -99.363000
  C    -16.168400  -29.807000  -99.638200
  C    -17.133500  -30.313900  -98.715800
  C    -17.658200  -29.398000  -97.851700
  H    -17.405900  -31.367500  -98.667200
  C    -15.460000  -30.725800  -100.545000
  H    -14.863000  -31.385400  -99.868700
  H    -14.666900  -30.217400  -101.044000
  C    -16.315200  -31.542900  -101.584000
  H    -15.723700  -32.316900  -102.177000
  H    -16.936100  -32.170100  -101.047000
  C    -17.259700  -30.601300  -102.389000
  H    -16.602400  -29.986800  -103.042000
  H    -18.030100  -31.041400  -103.035000
  H    -17.817800  -29.946900  -101.748000
  S    -18.361400  -29.636100  -95.164900
  C    -19.865400  -30.252000  -94.746300
  C    -20.564600  -30.563100  -95.847200
  C    -19.932400  -30.231300  -97.065000
  C    -18.722900  -29.670800  -96.912200
  H    -21.625700  -30.875400  -95.690900
  C    -20.561700  -30.537900  -98.400600
  H    -20.493000  -31.651700  -98.586400
  H    -19.915100  -30.004300  -99.042200
  C    -22.038400  -30.164600  -98.558600
  H    -22.613300  -30.661800  -97.818300
  H    -22.479900  -30.611900  -99.510900
  C    -22.392400  -28.679700  -98.335300
  H    -22.077100  -28.176200  -97.413100
  H    -23.443400  -28.428100  -98.560200
  H    -21.888100  -28.162200  -99.160000
  H    -15.141200  -28.066800  -100.126000
  H    -20.327700  -30.241900  -93.749900

 Total Charge           Charge          ....    0
 Multiplicity           Mult            ....    1
 Number of Electrons    NEL             ....  134
 Basis Dimension        Dim             ....  322

ORBITAL ENERGIES
----------------

  NO   OCC          E(Eh)            E(eV)
   0   2.0000     -88.968505     -2420.9561
   1   2.0000     -88.957606     -2420.6595
   2   2.0000     -10.330389      -281.1042
   3   2.0000     -10.322106      -280.8788
   4   2.0000     -10.315338      -280.6946
   5   2.0000     -10.310710      -280.5687
   6   2.0000     -10.297063      -280.1973
   7   2.0000     -10.293944      -280.1125
   8   2.0000     -10.293921      -280.1118
   9   2.0000     -10.293673      -280.1051
  10   2.0000     -10.292870      -280.0832
  11   2.0000     -10.290060      -280.0068
  12   2.0000     -10.289608      -279.9945
  13   2.0000     -10.286113      -279.8994
  14   2.0000     -10.280376      -279.7433
  15   2.0000     -10.276846      -279.6472
  16   2.0000      -8.082826      -219.9449
  17   2.0000      -8.073884      -219.7015
  18   2.0000      -6.041510      -164.3978
  19   2.0000      -6.037417      -164.2865
  20   2.0000      -6.033374      -164.1765
  21   2.0000      -6.032291      -164.1470
  22   2.0000      -6.028163      -164.0347
  23   2.0000      -6.024638      -163.9387
  24   2.0000      -1.015814       -27.6417
  25   2.0000      -0.995053       -27.0768
  26   2.0000      -0.913338       -24.8532
  27   2.0000      -0.910129       -24.7659
  28   2.0000      -0.876960       -23.8633
  29   2.0000      -0.848616       -23.0920
  30   2.0000      -0.843797       -22.9609
  31   2.0000      -0.818126       -22.2623
  32   2.0000      -0.784433       -21.3455
  33   2.0000      -0.775704       -21.1080
  34   2.0000      -0.716701       -19.5024
  35   2.0000      -0.703131       -19.1332
  36   2.0000      -0.700440       -19.0600
  37   2.0000      -0.653032       -17.7699
  38   2.0000      -0.636149       -17.3105
  39   2.0000      -0.624059       -16.9815
  40   2.0000      -0.597130       -16.2487
  41   2.0000      -0.569833       -15.5059
  42   2.0000      -0.554090       -15.0776
  43   2.0000      -0.551225       -14.9996
  44   2.0000      -0.538734       -14.6597
  45   2.0000      -0.533534       -14.5182
  46   2.0000      -0.522001       -14.2044
  47   2.0000      -0.512948       -13.9580
  48   2.0000      -0.503282       -13.6950
  49   2.0000      -0.494850       -13.4656
  50   2.0000      -0.491665       -13.3789
  51   2.0000      -0.478863       -13.0305
  52   2.0000      -0.473091       -12.8735
  53   2.0000      -0.459796       -12.5117
  54   2.0000      -0.455465       -12.3938
  55   2.0000      -0.449121       -12.2212
  56   2.0000      -0.443697       -12.0736
  57   2.0000      -0.441708       -12.0195
  58   2.0000      -0.438409       -11.9297
  59   2.0000      -0.426408       -11.6032
  60   2.0000      -0.418724       -11.3941
  61   2.0000      -0.415148       -11.2967
  62   2.0000      -0.404704       -11.0125
  63   2.0000      -0.344375        -9.3709
  64   2.0000      -0.332706        -9.0534
  65   2.0000      -0.327355        -8.9078
  66   2.0000      -0.307339        -8.3631
  67   0.0000       0.035267         0.9597
  68   0.0000       0.071350         1.9415
  69   0.0000       0.118435         3.2228
  70   0.0000       0.124580         3.3900
  71   0.0000       0.127660         3.4738

MULLIKEN ATOMIC CHARGES
-----------------------
   0 S :    0.119089
   1 C :   -0.107586
   2 C :   -0.125656
   3 C :    0.027223
   4 C :   -0.157661
   5 H :    0.020666
   6 C :    0.059830
   7 H :    0.044957
   8 H :    0.000007
   9 C :   -0.045520
  10 H :    0.041671
  11 H :    0.003629
  12 C :   -0.066332
  13 H :    0.029726
  14 H :    0.037052
  15 H :    0.042162
  16 S :    0.095628
  17 C :   -0.078773
  18 C :   -0.070870
  19 C :   -0.045266
  20 C :   -0.168894
  21 H :    0.030979
  22 C :    0.109488
  23 H :    0.047663
  24 H :    0.016158
  25 C :   -0.080998
  26 H :    0.013840
  27 H :    0.036927
  28 C :   -0.066545
  29 H :    0.053673
  30 H :    0.032986
  31 H :    0.021025
  32 H :    0.064736
  33 H :    0.064986
Sum of atomic charges:   -0.0000000

LOEWDIN ATOMIC CHARGES
----------------------
   0 S :    0.398075
   1 C :   -0.210187
   2 C :   -0.079627
   3 C :   -0.048393
   4 C :   -0.188821
   5 H :    0.033571
   6 C :   -0.032252
   7 H :    0.043142
   8 H :    0.020974
   9 C :   -0.038832
  10 H :    0.035450
  11 H :    0.008106
  12 C :   -0.067240
  13 H :    0.026361
  14 H :    0.027439
  15 H :    0.024675
  16 S :    0.411046
  17 C :   -0.199300
  18 C :   -0.090513
  19 C :   -0.057161
  20 C :   -0.193386
  21 H :    0.037433
  22 C :   -0.026280
  23 H :    0.043477
  24 H :    0.021899
  25 C :   -0.046348
  26 H :    0.013067
  27 H :    0.035032
  28 C :   -0.075143
  29 H :    0.030555
  30 H :    0.029208
  31 H :    0.025120
  32 H :    0.048717
  33 H :    0.040135

  Mayer bond orders larger than 0.100000
B(  0-S ,  1-C ) :   1.1301 B(  0-S ,  4-C ) :   1.1219 B(  1-C ,  2-C ) :   1.6519
B(  1-C , 32-H ) :   0.9428 B(  2-C ,  3-C ) :   1.2091 B(  2-C ,  6-C ) :   1.0319
B(  3-C ,  4-C ) :   1.5998 B(  3-C ,  5-H ) :   0.9976 B(  4-C , 20-C ) :   1.0300
B(  6-C ,  7-H ) :   0.9404 B(  6-C ,  8-H ) :   0.9405 B(  6-C ,  9-C ) :   1.0493
B(  9-C , 10-H ) :   0.9592 B(  9-C , 11-H ) :   0.9554 B(  9-C , 12-C ) :   1.0621
B( 12-C , 13-H ) :   0.9798 B( 12-C , 14-H ) :   0.9774 B( 12-C , 15-H ) :   0.9711
B( 16-S , 17-C ) :   1.1714 B( 16-S , 20-C ) :   1.1249 B( 17-C , 18-C ) :   1.6271
B( 17-C , 33-H ) :   0.9582 B( 18-C , 19-C ) :   1.2200 B( 18-C , 21-H ) :   0.9834
B( 19-C , 20-C ) :   1.6329 B( 19-C , 22-C ) :   1.0294 B( 22-C , 23-H ) :   0.9295
B( 22-C , 24-H ) :   0.9324 B( 22-C , 25-C ) :   1.0752 B( 25-C , 26-H ) :   0.9520
B( 25-C , 27-H ) :   0.9539 B( 25-C , 28-C ) :   1.0678 B( 28-C , 29-H ) :   0.9740
B( 28-C , 30-H ) :   0.9733 B( 28-C , 31-H ) :   0.9754

Dispersion correction           -0.015185368
FINAL SINGLE POINT ENERGY     -1339.869087415873

DIPOLE MOMENT
-------------
                                X             Y             Z
Electronic contribution:     10.66496       8.88649      21.84091
Nuclear contribution   :    -10.95923      -9.37112     -22.27147
                        -----------------------------------------
Total Dipole Moment    :     -0.29427      -0.48463      -0.43056
                        -----------------------------------------
Magnitude (a.u.)       :      0.71192
Magnitude (Debye)      :      1.80956

Rotational constants in cm-1:     0.018695     0.009205     0.007483
Rotational constants in MHz :   560.471960   275.953154   224.336478

                             ****ORCA TERMINATED NORMALLY****
TOTAL RUN TIME: 0 days 0 hours 0 minutes 22 seconds 329 msec
