                         Program Version 4.2.1 -  RELEASE  -
|  1> ! wB97X-D3 SP def2-SVP
|  2> %pal
|  3> nprocs 24
|  4> end
|  5>
|  6> * xyz 0 1
|  7> S 	 -117.101 	 35.2421 	 -118.834
|  8> C 	 -115.687 	 35.0976 	 -117.832
|  9> C 	 -115.939 	 35.0248 	 -116.494
| 10> C 	 -117.33 	 35.0047 	 -116.228
| 11> C 	 -118.071 	 35.2195 	 -117.381
| 12> H 	 -117.802 	 34.8873 	 -115.311
| 13> C 	 -114.951 	 34.7695 	 -115.425
| 14> H 	 -114.007 	 34.5703 	 -115.908
| 15> H 	 -115.259 	 33.8073 	 -114.984
| 16> C 	 -114.671 	 35.8479 	 -114.267
| 17> H 	 -114.191 	 36.7943 	 -114.57
| 18> H 	 -115.556 	 36.2445 	 -113.918
| 19> C 	 -113.981 	 35.1874 	 -113.041
| 20> H 	 -114.335 	 34.1794 	 -112.892
| 21> H 	 -112.894 	 35.2127 	 -113.244
| 22> H 	 -114.082 	 35.8141 	 -112.108
| 23> S 	 -120.139 	 34.155 	 -118.796
| 24> C 	 -121.707 	 34.6537 	 -118.519
| 25> C 	 -121.86 	 35.4632 	 -117.33
| 26> C 	 -120.608 	 35.7329 	 -116.743
| 27> C 	 -119.553 	 35.2798 	 -117.534
| 28> H 	 -122.708 	 35.8851 	 -116.874
| 29> C 	 -120.511 	 36.5126 	 -115.417
| 30> H 	 -119.466 	 36.3957 	 -115.121
| 31> H 	 -121.132 	 36.1184 	 -114.651
| 32> C 	 -120.876 	 38.0272 	 -115.506
| 33> H 	 -121.945 	 38.2186 	 -115.722
| 34> H 	 -120.264 	 38.3618 	 -116.351
| 35> C 	 -120.407 	 38.8579 	 -114.307
| 36> H 	 -120.996 	 38.4369 	 -113.395
| 37> H 	 -120.712 	 39.9022 	 -114.387
| 38> H 	 -119.36 	 38.7287 	 -114.172
| 39> H 	 -114.724 	 35.1186 	 -118.262
| 40> H 	 -122.638 	 34.2755 	 -118.982
| 41> *
| 42>
| 43>                          ****END OF INPUT****

CARTESIAN COORDINATES (ANGSTROEM)
---------------------------------
  S    -117.101000   35.242100  -118.834000
  C    -115.687000   35.097600  -117.832000
  C    -115.939000   35.024800  -116.494000
  C    -117.330000   35.004700  -116.228000
  C    -118.071000   35.219500  -117.381000
  H    -117.802000   34.887300  -115.311000
  C    -114.951000   34.769500  -115.425000
  H    -114.007000   34.570300  -115.908000
  H    -115.259000   33.807300  -114.984000
  C    -114.671000   35.847900  -114.267000
  H    -114.191000   36.794300  -114.570000
  H    -115.556000   36.244500  -113.918000
  C    -113.981000   35.187400  -113.041000
  H    -114.335000   34.179400  -112.892000
  H    -112.894000   35.212700  -113.244000
  H    -114.082000   35.814100  -112.108000
  S    -120.139000   34.155000  -118.796000
  C    -121.707000   34.653700  -118.519000
  C    -121.860000   35.463200  -117.330000
  C    -120.608000   35.732900  -116.743000
  C    -119.553000   35.279800  -117.534000
  H    -122.708000   35.885100  -116.874000
  C    -120.511000   36.512600  -115.417000
  H    -119.466000   36.395700  -115.121000
  H    -121.132000   36.118400  -114.651000
  C    -120.876000   38.027200  -115.506000
  H    -121.945000   38.218600  -115.722000
  H    -120.264000   38.361800  -116.351000
  C    -120.407000   38.857900  -114.307000
  H    -120.996000   38.436900  -113.395000
  H    -120.712000   39.902200  -114.387000
  H    -119.360000   38.728700  -114.172000
  H    -114.724000   35.118600  -118.262000
  H    -122.638000   34.275500  -118.982000

 Total Charge           Charge          ....    0
 Multiplicity           Mult            ....    1
 Number of Electrons    NEL             ....  134
 Basis Dimension        Dim             ....  322

ORBITAL ENERGIES
----------------

  NO   OCC          E(Eh)            E(eV)
   0   2.0000     -88.970606     -2421.0133
   1   2.0000     -88.966664     -2420.9060
   2   2.0000     -10.330039      -281.0947
   3   2.0000     -10.327702      -281.0311
   4   2.0000     -10.319691      -280.8131
   5   2.0000     -10.306076      -280.4426
   6   2.0000     -10.303297      -280.3670
   7   2.0000     -10.295749      -280.1616
   8   2.0000     -10.294764      -280.1348
   9   2.0000     -10.293199      -280.0922
  10   2.0000     -10.291270      -280.0397
  11   2.0000     -10.288196      -279.9561
  12   2.0000     -10.287776      -279.9446
  13   2.0000     -10.287167      -279.9280
  14   2.0000     -10.284957      -279.8679
  15   2.0000     -10.283578      -279.8304
  16   2.0000      -8.085907      -220.0287
  17   2.0000      -8.081848      -219.9183
  18   2.0000      -6.044185      -164.4706
  19   2.0000      -6.040358      -164.3665
  20   2.0000      -6.040233      -164.3631
  21   2.0000      -6.036844      -164.2709
  22   2.0000      -6.036445      -164.2600
  23   2.0000      -6.032563      -164.1544
  24   2.0000      -1.008404       -27.4401
  25   2.0000      -0.987189       -26.8628
  26   2.0000      -0.908998       -24.7351
  27   2.0000      -0.906030       -24.6543
  28   2.0000      -0.863604       -23.4999
  29   2.0000      -0.858398       -23.3582
  30   2.0000      -0.849844       -23.1254
  31   2.0000      -0.808647       -22.0044
  32   2.0000      -0.783671       -21.3248
  33   2.0000      -0.767461       -20.8837
  34   2.0000      -0.710325       -19.3289
  35   2.0000      -0.695759       -18.9326
  36   2.0000      -0.689631       -18.7658
  37   2.0000      -0.667420       -18.1614
  38   2.0000      -0.647785       -17.6271
  39   2.0000      -0.622467       -16.9382
  40   2.0000      -0.595266       -16.1980
  41   2.0000      -0.571576       -15.5534
  42   2.0000      -0.565127       -15.3779
  43   2.0000      -0.550944       -14.9920
  44   2.0000      -0.524773       -14.2798
  45   2.0000      -0.521791       -14.1986
  46   2.0000      -0.518480       -14.1086
  47   2.0000      -0.511437       -13.9169
  48   2.0000      -0.503245       -13.6940
  49   2.0000      -0.493530       -13.4296
  50   2.0000      -0.491141       -13.3646
  51   2.0000      -0.481711       -13.1080
  52   2.0000      -0.471293       -12.8245
  53   2.0000      -0.464449       -12.6383
  54   2.0000      -0.457540       -12.4503
  55   2.0000      -0.455793       -12.4028
  56   2.0000      -0.449563       -12.2332
  57   2.0000      -0.445518       -12.1232
  58   2.0000      -0.433290       -11.7904
  59   2.0000      -0.428674       -11.6648
  60   2.0000      -0.425265       -11.5721
  61   2.0000      -0.414276       -11.2730
  62   2.0000      -0.409633       -11.1467
  63   2.0000      -0.346178        -9.4200
  64   2.0000      -0.336043        -9.1442
  65   2.0000      -0.330441        -8.9917
  66   2.0000      -0.283696        -7.7198
  67   0.0000       0.027871         0.7584
  68   0.0000       0.070440         1.9168
  69   0.0000       0.099417         2.7053
  70   0.0000       0.119232         3.2445
  71   0.0000       0.125983         3.4282

MULLIKEN ATOMIC CHARGES
-----------------------
   0 S :    0.108957
   1 C :   -0.110221
   2 C :   -0.054527
   3 C :    0.041540
   4 C :   -0.155535
   5 H :   -0.007310
   6 C :    0.054667
   7 H :    0.010875
   8 H :    0.035400
   9 C :   -0.032917
  10 H :    0.029496
  11 H :   -0.002396
  12 C :   -0.081179
  13 H :    0.037433
  14 H :    0.038246
  15 H :    0.042980
  16 S :    0.124195
  17 C :   -0.078393
  18 C :   -0.029758
  19 C :   -0.052830
  20 C :   -0.152641
  21 H :   -0.005741
  22 C :    0.093343
  23 H :    0.002835
  24 H :    0.021381
  25 C :   -0.104222
  26 H :    0.037687
  27 H :    0.035006
  28 C :   -0.052910
  29 H :    0.029265
  30 H :    0.044978
  31 H :    0.036184
  32 H :    0.026989
  33 H :    0.069122
Sum of atomic charges:    0.0000000

LOEWDIN ATOMIC CHARGES
----------------------
   0 S :    0.407547
   1 C :   -0.192110
   2 C :   -0.065597
   3 C :   -0.057935
   4 C :   -0.187760
   5 H :    0.019535
   6 C :   -0.028929
   7 H :    0.027120
   8 H :    0.037963
   9 C :   -0.037544
  10 H :    0.029389
  11 H :    0.007702
  12 C :   -0.068095
  13 H :    0.022235
  14 H :    0.027700
  15 H :    0.033087
  16 S :    0.438791
  17 C :   -0.217844
  18 C :   -0.067245
  19 C :   -0.052753
  20 C :   -0.194691
  21 H :    0.021354
  22 C :   -0.025424
  23 H :    0.027378
  24 H :    0.024675
  25 C :   -0.044510
  26 H :    0.023665
  27 H :    0.026248
  28 C :   -0.065182
  29 H :    0.030391
  30 H :    0.028548
  31 H :    0.020568
  32 H :    0.016341
  33 H :    0.035382

  Mayer bond orders larger than 0.100000
B(  0-S ,  1-C ) :   1.1281 B(  0-S ,  4-C ) :   1.1640 B(  1-C ,  2-C ) :   1.6237
B(  1-C , 32-H ) :   0.9700 B(  2-C ,  3-C ) :   1.2173 B(  2-C ,  6-C ) :   1.0366
B(  3-C ,  4-C ) :   1.5776 B(  3-C ,  5-H ) :   1.0002 B(  4-C , 20-C ) :   1.0057
B(  6-C ,  7-H ) :   0.9392 B(  6-C ,  8-H ) :   0.9413 B(  6-C ,  9-C ) :   1.0393
B(  9-C , 10-H ) :   0.9555 B(  9-C , 11-H ) :   0.9604 B(  9-C , 12-C ) :   1.0705
B( 12-C , 13-H ) :   0.9776 B( 12-C , 14-H ) :   0.9805 B( 12-C , 15-H ) :   0.9757
B( 16-S , 17-C ) :   1.1992 B( 16-S , 20-C ) :   1.1518 B( 17-C , 18-C ) :   1.5279
B( 17-C , 20-C ) :   0.1086 B( 17-C , 33-H ) :   0.9629 B( 18-C , 19-C ) :   1.2951
B( 18-C , 21-H ) :   0.9952 B( 19-C , 20-C ) :   1.5789 B( 19-C , 22-C ) :   1.0422
B( 22-C , 23-H ) :   0.9320 B( 22-C , 24-H ) :   0.9323 B( 22-C , 25-C ) :   1.0588
B( 25-C , 26-H ) :   0.9567 B( 25-C , 27-H ) :   0.9555 B( 25-C , 28-C ) :   1.0886
B( 28-C , 29-H ) :   0.9731 B( 28-C , 30-H ) :   0.9738 B( 28-C , 31-H ) :   0.9753

Dispersion correction           -0.013350612
FINAL SINGLE POINT ENERGY     -1339.862179950773

DIPOLE MOMENT
-------------
                                X             Y             Z
Electronic contribution:     -7.72862     -12.56897     -28.23553
Nuclear contribution   :      7.73813      12.67433      28.85326
                        -----------------------------------------
Total Dipole Moment    :      0.00951       0.10535       0.61773
                        -----------------------------------------
Magnitude (a.u.)       :      0.62672
Magnitude (Debye)      :      1.59299

Rotational constants in cm-1:     0.016366     0.008807     0.006306
Rotational constants in MHz :   490.641638   264.022487   189.055819

                             ****ORCA TERMINATED NORMALLY****
TOTAL RUN TIME: 0 days 0 hours 0 minutes 21 seconds 153 msec
