                         Program Version 4.2.1 -  RELEASE  -
|  1> ! wB97X-D3 SP def2-SVP
|  2> %pal
|  3> nprocs 24
|  4> end
|  5>
|  6> * xyz 0 1
|  7> S 	 -123.143 	 35.905 	 -108.323
|  8> C 	 -121.563 	 35.8449 	 -109.129
|  9> C 	 -121.438 	 34.8087 	 -110.052
| 10> C 	 -122.635 	 34.0644 	 -110.118
| 11> C 	 -123.656 	 34.5099 	 -109.302
| 12> H 	 -122.836 	 33.1683 	 -110.675
| 13> C 	 -120.296 	 34.6216 	 -111.011
| 14> H 	 -120.445 	 33.7658 	 -111.683
| 15> H 	 -119.335 	 34.5527 	 -110.451
| 16> C 	 -120.076 	 35.9115 	 -111.854
| 17> H 	 -119.729 	 36.6854 	 -111.17
| 18> H 	 -119.161 	 35.9999 	 -112.448
| 19> C 	 -121.151 	 36.317 	 -112.794
| 20> H 	 -120.759 	 36.9426 	 -113.534
| 21> H 	 -121.482 	 35.4479 	 -113.366
| 22> H 	 -121.951 	 36.8431 	 -112.28
| 23> S 	 -124.854 	 32.8737 	 -107.546
| 24> C 	 -126.433 	 32.2215 	 -107.859
| 25> C 	 -127.042 	 32.7727 	 -108.985
| 26> C 	 -126.11 	 33.6004 	 -109.729
| 27> C 	 -124.909 	 33.8374 	 -109.018
| 28> H 	 -128.127 	 32.6401 	 -109.289
| 29> C 	 -126.446 	 34.2839 	 -110.983
| 30> H 	 -126.326 	 35.3574 	 -110.772
| 31> H 	 -127.564 	 34.1905 	 -111.07
| 32> C 	 -125.708 	 33.6683 	 -112.206
| 33> H 	 -125.836 	 32.5959 	 -112.363
| 34> H 	 -124.65 	 33.7986 	 -112.029
| 35> C 	 -126.055 	 34.3207 	 -113.566
| 36> H 	 -127.112 	 34.5459 	 -113.498
| 37> H 	 -125.898 	 33.5974 	 -114.435
| 38> H 	 -125.452 	 35.1753 	 -113.769
| 39> H 	 -120.743 	 36.4586 	 -108.831
| 40> H 	 -126.782 	 31.4386 	 -107.214
| 41> *
| 42>
| 43>                          ****END OF INPUT****

CARTESIAN COORDINATES (ANGSTROEM)
---------------------------------
  S    -123.143000   35.905000  -108.323000
  C    -121.563000   35.844900  -109.129000
  C    -121.438000   34.808700  -110.052000
  C    -122.635000   34.064400  -110.118000
  C    -123.656000   34.509900  -109.302000
  H    -122.836000   33.168300  -110.675000
  C    -120.296000   34.621600  -111.011000
  H    -120.445000   33.765800  -111.683000
  H    -119.335000   34.552700  -110.451000
  C    -120.076000   35.911500  -111.854000
  H    -119.729000   36.685400  -111.170000
  H    -119.161000   35.999900  -112.448000
  C    -121.151000   36.317000  -112.794000
  H    -120.759000   36.942600  -113.534000
  H    -121.482000   35.447900  -113.366000
  H    -121.951000   36.843100  -112.280000
  S    -124.854000   32.873700  -107.546000
  C    -126.433000   32.221500  -107.859000
  C    -127.042000   32.772700  -108.985000
  C    -126.110000   33.600400  -109.729000
  C    -124.909000   33.837400  -109.018000
  H    -128.127000   32.640100  -109.289000
  C    -126.446000   34.283900  -110.983000
  H    -126.326000   35.357400  -110.772000
  H    -127.564000   34.190500  -111.070000
  C    -125.708000   33.668300  -112.206000
  H    -125.836000   32.595900  -112.363000
  H    -124.650000   33.798600  -112.029000
  C    -126.055000   34.320700  -113.566000
  H    -127.112000   34.545900  -113.498000
  H    -125.898000   33.597400  -114.435000
  H    -125.452000   35.175300  -113.769000
  H    -120.743000   36.458600  -108.831000
  H    -126.782000   31.438600  -107.214000

 Total Charge           Charge          ....    0
 Multiplicity           Mult            ....    1
 Number of Electrons    NEL             ....  134
 Basis Dimension        Dim             ....  322

ORBITAL ENERGIES
----------------

  NO   OCC          E(Eh)            E(eV)
   0   2.0000     -88.968307     -2420.9507
   1   2.0000     -88.962054     -2420.7806
   2   2.0000     -10.327680      -281.0304
   3   2.0000     -10.322583      -280.8918
   4   2.0000     -10.317910      -280.7646
   5   2.0000     -10.314960      -280.6843
   6   2.0000     -10.304748      -280.4064
   7   2.0000     -10.303037      -280.3599
   8   2.0000     -10.301773      -280.3255
   9   2.0000     -10.299028      -280.2508
  10   2.0000     -10.293347      -280.0962
  11   2.0000     -10.291520      -280.0465
  12   2.0000     -10.285279      -279.8767
  13   2.0000     -10.281748      -279.7806
  14   2.0000     -10.276710      -279.6435
  15   2.0000     -10.266616      -279.3688
  16   2.0000      -8.082106      -219.9253
  17   2.0000      -8.077172      -219.7910
  18   2.0000      -6.040543      -164.3715
  19   2.0000      -6.036803      -164.2698
  20   2.0000      -6.035537      -164.2353
  21   2.0000      -6.032948      -164.1648
  22   2.0000      -6.031518      -164.1259
  23   2.0000      -6.028165      -164.0347
  24   2.0000      -1.002237       -27.2723
  25   2.0000      -0.979247       -26.6467
  26   2.0000      -0.913894       -24.8683
  27   2.0000      -0.907479       -24.6938
  28   2.0000      -0.866621       -23.5820
  29   2.0000      -0.850336       -23.1388
  30   2.0000      -0.849603       -23.1189
  31   2.0000      -0.812415       -22.1069
  32   2.0000      -0.783465       -21.3192
  33   2.0000      -0.765728       -20.8365
  34   2.0000      -0.707104       -19.2413
  35   2.0000      -0.701867       -19.0988
  36   2.0000      -0.689382       -18.7590
  37   2.0000      -0.661928       -18.0120
  38   2.0000      -0.644068       -17.5260
  39   2.0000      -0.609468       -16.5845
  40   2.0000      -0.591573       -16.0975
  41   2.0000      -0.569921       -15.5083
  42   2.0000      -0.561588       -15.2816
  43   2.0000      -0.557202       -15.1623
  44   2.0000      -0.539404       -14.6779
  45   2.0000      -0.525604       -14.3024
  46   2.0000      -0.515865       -14.0374
  47   2.0000      -0.513614       -13.9761
  48   2.0000      -0.508594       -13.8395
  49   2.0000      -0.493090       -13.4177
  50   2.0000      -0.488744       -13.2994
  51   2.0000      -0.480607       -13.0780
  52   2.0000      -0.469666       -12.7803
  53   2.0000      -0.462870       -12.5953
  54   2.0000      -0.457893       -12.4599
  55   2.0000      -0.444420       -12.0933
  56   2.0000      -0.438942       -11.9442
  57   2.0000      -0.437044       -11.8926
  58   2.0000      -0.432682       -11.7739
  59   2.0000      -0.430809       -11.7229
  60   2.0000      -0.421260       -11.4631
  61   2.0000      -0.412890       -11.2353
  62   2.0000      -0.402293       -10.9469
  63   2.0000      -0.341059        -9.2807
  64   2.0000      -0.326540        -8.8856
  65   2.0000      -0.319965        -8.7067
  66   2.0000      -0.297867        -8.1054
  67   0.0000       0.036860         1.0030
  68   0.0000       0.051209         1.3935
  69   0.0000       0.112719         3.0672
  70   0.0000       0.116031         3.1574
  71   0.0000       0.125835         3.4242

MULLIKEN ATOMIC CHARGES
-----------------------
   0 S :    0.112284
   1 C :   -0.122112
   2 C :   -0.061554
   3 C :    0.057012
   4 C :   -0.186646
   5 H :    0.016248
   6 C :    0.091243
   7 H :    0.030882
   8 H :    0.038279
   9 C :   -0.114490
  10 H :    0.007933
  11 H :    0.011292
  12 C :    0.003431
  13 H :    0.012627
  14 H :    0.020981
  15 H :    0.045115
  16 S :    0.111098
  17 C :   -0.096578
  18 C :   -0.035346
  19 C :   -0.057026
  20 C :   -0.181302
  21 H :    0.047538
  22 C :    0.054085
  23 H :    0.049335
  24 H :    0.013355
  25 C :   -0.080569
  26 H :    0.032736
  27 H :    0.021815
  28 C :   -0.040826
  29 H :    0.027500
  30 H :    0.037120
  31 H :    0.034634
  32 H :    0.041018
  33 H :    0.058891
Sum of atomic charges:   -0.0000000

LOEWDIN ATOMIC CHARGES
----------------------
   0 S :    0.389349
   1 C :   -0.181747
   2 C :   -0.063810
   3 C :   -0.055199
   4 C :   -0.196637
   5 H :    0.030791
   6 C :   -0.026780
   7 H :    0.029867
   8 H :    0.041290
   9 C :   -0.055219
  10 H :    0.020490
  11 H :    0.024318
  12 C :   -0.061235
  13 H :    0.020424
  14 H :    0.027540
  15 H :    0.028570
  16 S :    0.415488
  17 C :   -0.183656
  18 C :   -0.081389
  19 C :   -0.050826
  20 C :   -0.211078
  21 H :    0.044414
  22 C :   -0.039725
  23 H :    0.041331
  24 H :    0.030650
  25 C :   -0.040076
  26 H :    0.028153
  27 H :    0.020843
  28 C :   -0.065127
  29 H :    0.022417
  30 H :    0.032553
  31 H :    0.020523
  32 H :    0.019985
  33 H :    0.023510

  Mayer bond orders larger than 0.100000
B(  0-S ,  1-C ) :   1.1450 B(  0-S ,  4-C ) :   1.1427 B(  1-C ,  2-C ) :   1.5955
B(  1-C ,  4-C ) :   0.1049 B(  1-C , 32-H ) :   0.9686 B(  2-C ,  3-C ) :   1.2384
B(  2-C ,  6-C ) :   1.0283 B(  3-C ,  4-C ) :   1.5941 B(  3-C ,  5-H ) :   0.9854
B(  4-C , 20-C ) :   1.0162 B(  6-C ,  7-H ) :   0.9515 B(  6-C ,  8-H ) :   0.9281
B(  6-C ,  9-C ) :   1.0727 B(  9-C , 10-H ) :   0.9456 B(  9-C , 11-H ) :   0.9560
B(  9-C , 12-C ) :   1.0819 B( 12-C , 13-H ) :   0.9708 B( 12-C , 14-H ) :   0.9695
B( 12-C , 15-H ) :   0.9737 B( 16-S , 17-C ) :   1.1825 B( 16-S , 20-C ) :   1.1487
B( 17-C , 18-C ) :   1.5728 B( 17-C , 20-C ) :   0.1033 B( 17-C , 33-H ) :   0.9711
B( 18-C , 19-C ) :   1.2595 B( 18-C , 21-H ) :   0.9764 B( 19-C , 20-C ) :   1.5840
B( 19-C , 22-C ) :   1.0514 B( 22-C , 23-H ) :   0.9383 B( 22-C , 24-H ) :   0.9288
B( 22-C , 25-C ) :   1.0444 B( 25-C , 26-H ) :   0.9600 B( 25-C , 27-H ) :   0.9557
B( 25-C , 28-C ) :   1.0774 B( 28-C , 29-H ) :   0.9751 B( 28-C , 30-H ) :   0.9782
B( 28-C , 31-H ) :   0.9781

Dispersion correction           -0.015000468
FINAL SINGLE POINT ENERGY     -1339.868935723508

DIPOLE MOMENT
-------------
                                X             Y             Z
Electronic contribution:     -4.64564      -4.28115      28.31286
Nuclear contribution   :      4.78982       4.19129     -28.82336
                        -----------------------------------------
Total Dipole Moment    :      0.14418      -0.08986      -0.51050
                        -----------------------------------------
Magnitude (a.u.)       :      0.53803
Magnitude (Debye)      :      1.36755

Rotational constants in cm-1:     0.018477     0.009762     0.007185
Rotational constants in MHz :   553.922410   292.664109   215.415525

                             ****ORCA TERMINATED NORMALLY****
TOTAL RUN TIME: 0 days 0 hours 0 minutes 22 seconds 272 msec
