                         Program Version 4.2.1 -  RELEASE  -
|  1> ! wB97X-D3 SP def2-SVP
|  2> %pal
|  3> nprocs 24
|  4> end
|  5>
|  6> * xyz 0 1
|  7> S 	 -61.1617 	 14.3571 	 -92.0717
|  8> C 	 -61.561 	 15.9445 	 -92.8589
|  9> C 	 -62.9217 	 16.0713 	 -92.7774
| 10> C 	 -63.5283 	 15.1177 	 -91.9011
| 11> C 	 -62.7299 	 14.0718 	 -91.4711
| 12> H 	 -64.5189 	 15.0122 	 -91.4946
| 13> C 	 -63.6868 	 17.2034 	 -93.4088
| 14> H 	 -63.1243 	 18.1374 	 -93.2745
| 15> H 	 -64.4966 	 17.3817 	 -92.6733
| 16> C 	 -64.3832 	 16.9616 	 -94.8592
| 17> H 	 -64.6154 	 17.882 	 -95.384
| 18> H 	 -63.6448 	 16.5365 	 -95.5622
| 19> C 	 -65.5562 	 16.0139 	 -94.8003
| 20> H 	 -65.8338 	 16.0495 	 -95.7909
| 21> H 	 -65.2959 	 14.9756 	 -94.6052
| 22> H 	 -66.3908 	 16.5255 	 -94.2213
| 23> S 	 -64.2867 	 11.8085 	 -91.0604
| 24> C 	 -64.2247 	 10.928 	 -89.6229
| 25> C 	 -63.3845 	 11.5408 	 -88.7595
| 26> C 	 -62.7466 	 12.7116 	 -89.2599
| 27> C 	 -63.073 	 12.9417 	 -90.5836
| 28> H 	 -63.3914 	 11.2591 	 -87.7289
| 29> C 	 -61.7889 	 13.4294 	 -88.3648
| 30> H 	 -60.8942 	 13.7031 	 -89.0164
| 31> H 	 -61.4909 	 12.7913 	 -87.5509
| 32> C 	 -62.5142 	 14.7379 	 -87.8766
| 33> H 	 -63.631 	 14.6886 	 -87.5623
| 34> H 	 -62.5706 	 15.4733 	 -88.711
| 35> C 	 -61.7165 	 15.5742 	 -86.8095
| 36> H 	 -60.695 	 15.5724 	 -87.0947
| 37> H 	 -61.7878 	 15.0823 	 -85.7909
| 38> H 	 -62.0798 	 16.6111 	 -86.7736
| 39> H 	 -60.921 	 16.5368 	 -93.4703
| 40> H 	 -64.8805 	 10.0463 	 -89.4025
| 41> *
| 42>
| 43>                          ****END OF INPUT****

CARTESIAN COORDINATES (ANGSTROEM)
---------------------------------
  S    -61.161700   14.357100  -92.071700
  C    -61.561000   15.944500  -92.858900
  C    -62.921700   16.071300  -92.777400
  C    -63.528300   15.117700  -91.901100
  C    -62.729900   14.071800  -91.471100
  H    -64.518900   15.012200  -91.494600
  C    -63.686800   17.203400  -93.408800
  H    -63.124300   18.137400  -93.274500
  H    -64.496600   17.381700  -92.673300
  C    -64.383200   16.961600  -94.859200
  H    -64.615400   17.882000  -95.384000
  H    -63.644800   16.536500  -95.562200
  C    -65.556200   16.013900  -94.800300
  H    -65.833800   16.049500  -95.790900
  H    -65.295900   14.975600  -94.605200
  H    -66.390800   16.525500  -94.221300
  S    -64.286700   11.808500  -91.060400
  C    -64.224700   10.928000  -89.622900
  C    -63.384500   11.540800  -88.759500
  C    -62.746600   12.711600  -89.259900
  C    -63.073000   12.941700  -90.583600
  H    -63.391400   11.259100  -87.728900
  C    -61.788900   13.429400  -88.364800
  H    -60.894200   13.703100  -89.016400
  H    -61.490900   12.791300  -87.550900
  C    -62.514200   14.737900  -87.876600
  H    -63.631000   14.688600  -87.562300
  H    -62.570600   15.473300  -88.711000
  C    -61.716500   15.574200  -86.809500
  H    -60.695000   15.572400  -87.094700
  H    -61.787800   15.082300  -85.790900
  H    -62.079800   16.611100  -86.773600
  H    -60.921000   16.536800  -93.470300
  H    -64.880500   10.046300  -89.402500

 Total Charge           Charge          ....    0
 Multiplicity           Mult            ....    1
 Number of Electrons    NEL             ....  134
 Basis Dimension        Dim             ....  322

ORBITAL ENERGIES
----------------

  NO   OCC          E(Eh)            E(eV)
   0   2.0000     -88.963777     -2420.8274
   1   2.0000     -88.961601     -2420.7682
   2   2.0000     -10.328301      -281.0474
   3   2.0000     -10.325743      -280.9777
   4   2.0000     -10.316281      -280.7203
   5   2.0000     -10.315366      -280.6954
   6   2.0000     -10.303207      -280.3645
   7   2.0000     -10.301059      -280.3061
   8   2.0000     -10.297872      -280.2193
   9   2.0000     -10.295096      -280.1438
  10   2.0000     -10.295070      -280.1431
  11   2.0000     -10.293396      -280.0975
  12   2.0000     -10.290129      -280.0086
  13   2.0000     -10.285050      -279.8704
  14   2.0000     -10.277616      -279.6681
  15   2.0000     -10.274363      -279.5796
  16   2.0000      -8.080187      -219.8731
  17   2.0000      -8.076092      -219.7616
  18   2.0000      -6.038506      -164.3161
  19   2.0000      -6.034594      -164.2097
  20   2.0000      -6.034365      -164.2034
  21   2.0000      -6.031117      -164.1150
  22   2.0000      -6.030458      -164.0971
  23   2.0000      -6.027010      -164.0033
  24   2.0000      -1.015231       -27.6258
  25   2.0000      -0.990913       -26.9641
  26   2.0000      -0.907044       -24.6819
  27   2.0000      -0.903440       -24.5839
  28   2.0000      -0.873449       -23.7678
  29   2.0000      -0.847915       -23.0729
  30   2.0000      -0.844212       -22.9722
  31   2.0000      -0.816469       -22.2173
  32   2.0000      -0.781425       -21.2637
  33   2.0000      -0.771441       -20.9920
  34   2.0000      -0.703060       -19.1312
  35   2.0000      -0.701144       -19.0791
  36   2.0000      -0.686416       -18.6783
  37   2.0000      -0.664361       -18.0782
  38   2.0000      -0.641930       -17.4678
  39   2.0000      -0.610416       -16.6103
  40   2.0000      -0.594308       -16.1720
  41   2.0000      -0.572267       -15.5722
  42   2.0000      -0.552390       -15.0313
  43   2.0000      -0.549535       -14.9536
  44   2.0000      -0.544863       -14.8265
  45   2.0000      -0.524807       -14.2807
  46   2.0000      -0.518994       -14.1225
  47   2.0000      -0.513812       -13.9815
  48   2.0000      -0.504990       -13.7415
  49   2.0000      -0.502623       -13.6771
  50   2.0000      -0.493722       -13.4349
  51   2.0000      -0.481574       -13.1043
  52   2.0000      -0.472652       -12.8615
  53   2.0000      -0.461935       -12.5699
  54   2.0000      -0.459638       -12.5074
  55   2.0000      -0.440927       -11.9982
  56   2.0000      -0.436877       -11.8880
  57   2.0000      -0.435545       -11.8518
  58   2.0000      -0.428955       -11.6725
  59   2.0000      -0.423984       -11.5372
  60   2.0000      -0.415065       -11.2945
  61   2.0000      -0.408862       -11.1257
  62   2.0000      -0.403637       -10.9835
  63   2.0000      -0.339147        -9.2287
  64   2.0000      -0.328980        -8.9520
  65   2.0000      -0.326384        -8.8814
  66   2.0000      -0.306148        -8.3307
  67   0.0000       0.038381         1.0444
  68   0.0000       0.066594         1.8121
  69   0.0000       0.117561         3.1990
  70   0.0000       0.124504         3.3879
  71   0.0000       0.134231         3.6526

MULLIKEN ATOMIC CHARGES
-----------------------
   0 S :    0.086836
   1 C :   -0.106388
   2 C :   -0.072852
   3 C :    0.039314
   4 C :   -0.172281
   5 H :    0.000696
   6 C :    0.040300
   7 H :    0.028422
   8 H :    0.018797
   9 C :   -0.080909
  10 H :    0.028506
  11 H :    0.024764
  12 C :   -0.020288
  13 H :    0.008878
  14 H :    0.054635
  15 H :    0.042634
  16 S :    0.116275
  17 C :   -0.100714
  18 C :   -0.029086
  19 C :   -0.038107
  20 C :   -0.169507
  21 H :    0.010464
  22 C :    0.103742
  23 H :    0.046731
  24 H :    0.025371
  25 C :   -0.160805
  26 H :    0.047848
  27 H :    0.042402
  28 C :   -0.038514
  29 H :    0.022479
  30 H :    0.038009
  31 H :    0.040813
  32 H :    0.043143
  33 H :    0.078398
Sum of atomic charges:    0.0000000

LOEWDIN ATOMIC CHARGES
----------------------
   0 S :    0.398353
   1 C :   -0.172113
   2 C :   -0.065589
   3 C :   -0.074947
   4 C :   -0.206484
   5 H :    0.028148
   6 C :   -0.042937
   7 H :    0.031225
   8 H :    0.031586
   9 C :   -0.036738
  10 H :    0.023832
  11 H :    0.024641
  12 C :   -0.064743
  13 H :    0.019002
  14 H :    0.032297
  15 H :    0.035365
  16 S :    0.444901
  17 C :   -0.206406
  18 C :   -0.081168
  19 C :   -0.048766
  20 C :   -0.219840
  21 H :    0.027383
  22 C :   -0.029192
  23 H :    0.042181
  24 H :    0.027362
  25 C :   -0.052750
  26 H :    0.032752
  27 H :    0.029055
  28 C :   -0.070611
  29 H :    0.017806
  30 H :    0.026570
  31 H :    0.028274
  32 H :    0.026756
  33 H :    0.044797

  Mayer bond orders larger than 0.100000
B(  0-S ,  1-C ) :   1.1237 B(  0-S ,  4-C ) :   1.1672 B(  1-C ,  2-C ) :   1.6104
B(  1-C ,  4-C ) :   0.1006 B(  1-C , 32-H ) :   0.9782 B(  2-C ,  3-C ) :   1.2118
B(  2-C ,  6-C ) :   1.0166 B(  3-C ,  4-C ) :   1.5976 B(  3-C ,  5-H ) :   0.9963
B(  4-C , 20-C ) :   0.9925 B(  6-C ,  7-H ) :   0.9493 B(  6-C ,  8-H ) :   0.9478
B(  6-C ,  9-C ) :   1.0324 B(  9-C , 10-H ) :   0.9612 B(  9-C , 11-H ) :   0.9594
B(  9-C , 12-C ) :   1.0825 B( 12-C , 13-H ) :   0.9662 B( 12-C , 14-H ) :   0.9720
B( 12-C , 15-H ) :   0.9724 B( 16-S , 17-C ) :   1.1860 B( 16-S , 20-C ) :   1.1563
B( 17-C , 18-C ) :   1.5750 B( 17-C , 33-H ) :   0.9606 B( 18-C , 19-C ) :   1.2825
B( 18-C , 21-H ) :   0.9910 B( 19-C , 20-C ) :   1.5638 B( 19-C , 22-C ) :   1.0500
B( 22-C , 23-H ) :   0.9245 B( 22-C , 24-H ) :   0.9426 B( 22-C , 25-C ) :   1.0332
B( 25-C , 26-H ) :   0.9629 B( 25-C , 27-H ) :   0.9578 B( 25-C , 28-C ) :   1.0753
B( 28-C , 29-H ) :   0.9710 B( 28-C , 30-H ) :   0.9779 B( 28-C , 31-H ) :   0.9770

Dispersion correction           -0.014703949
FINAL SINGLE POINT ENERGY     -1339.858057637638

DIPOLE MOMENT
-------------
                                X             Y             Z
Electronic contribution:      4.87965     -17.19976      -3.49424
Nuclear contribution   :     -5.19024      17.53503       3.59750
                        -----------------------------------------
Total Dipole Moment    :     -0.31059       0.33527       0.10327
                        -----------------------------------------
Magnitude (a.u.)       :      0.46855
Magnitude (Debye)      :      1.19096

Rotational constants in cm-1:     0.018671     0.008690     0.007102
Rotational constants in MHz :   559.734839   260.529269   212.924792

                             ****ORCA TERMINATED NORMALLY****
TOTAL RUN TIME: 0 days 0 hours 0 minutes 21 seconds 476 msec
