                         Program Version 4.2.1 -  RELEASE  -
|  1> ! wB97X-D3 SP def2-SVP
|  2> %pal
|  3> nprocs 24
|  4> end
|  5>
|  6> * xyz 0 1
|  7> S 	 -50.1906 	 23.1383 	 -92.1008
|  8> C 	 -48.626 	 23.7909 	 -91.6898
|  9> C 	 -47.6395 	 22.9227 	 -92.1322
| 10> C 	 -48.1538 	 21.85 	 -92.921
| 11> C 	 -49.5441 	 21.818 	 -93.069
| 12> H 	 -47.507 	 21.1094 	 -93.4058
| 13> C 	 -46.1518 	 23.0404 	 -91.8504
| 14> H 	 -45.7673 	 24.091 	 -91.7712
| 15> H 	 -45.6063 	 22.7261 	 -92.7695
| 16> C 	 -45.7362 	 22.1189 	 -90.6111
| 17> H 	 -46.0904 	 21.1751 	 -90.8426
| 18> H 	 -44.6363 	 22.0071 	 -90.6334
| 19> C 	 -46.2741 	 22.6362 	 -89.2654
| 20> H 	 -47.3936 	 22.3596 	 -89.2501
| 21> H 	 -45.7565 	 22.0981 	 -88.4853
| 22> H 	 -46.1841 	 23.7602 	 -89.2103
| 23> S 	 -51.7243 	 21.587 	 -94.5433
| 24> C 	 -51.9989 	 20.1179 	 -95.492
| 25> C 	 -51.0761 	 19.1816 	 -95.172
| 26> C 	 -50.1419 	 19.513 	 -94.1366
| 27> C 	 -50.3277 	 20.8181 	 -93.8133
| 28> H 	 -51.1474 	 18.2472 	 -95.7381
| 29> C 	 -49.1733 	 18.5238 	 -93.6089
| 30> H 	 -48.3262 	 19.0891 	 -93.3436
| 31> H 	 -48.8628 	 17.7754 	 -94.316
| 32> C 	 -49.6754 	 17.7509 	 -92.3244
| 33> H 	 -50.1086 	 18.4702 	 -91.7291
| 34> H 	 -48.8287 	 17.4487 	 -91.6592
| 35> C 	 -50.6256 	 16.5691 	 -92.697
| 36> H 	 -51.1807 	 16.3498 	 -91.7646
| 37> H 	 -49.8758 	 15.7665 	 -93.0387
| 38> H 	 -51.3872 	 16.7268 	 -93.4756
| 39> H 	 -48.3917 	 24.5796 	 -90.9832
| 40> H 	 -52.6482 	 20.0244 	 -96.3635
| 41> *
| 42>
| 43>                          ****END OF INPUT****

CARTESIAN COORDINATES (ANGSTROEM)
---------------------------------
  S    -50.190600   23.138300  -92.100800
  C    -48.626000   23.790900  -91.689800
  C    -47.639500   22.922700  -92.132200
  C    -48.153800   21.850000  -92.921000
  C    -49.544100   21.818000  -93.069000
  H    -47.507000   21.109400  -93.405800
  C    -46.151800   23.040400  -91.850400
  H    -45.767300   24.091000  -91.771200
  H    -45.606300   22.726100  -92.769500
  C    -45.736200   22.118900  -90.611100
  H    -46.090400   21.175100  -90.842600
  H    -44.636300   22.007100  -90.633400
  C    -46.274100   22.636200  -89.265400
  H    -47.393600   22.359600  -89.250100
  H    -45.756500   22.098100  -88.485300
  H    -46.184100   23.760200  -89.210300
  S    -51.724300   21.587000  -94.543300
  C    -51.998900   20.117900  -95.492000
  C    -51.076100   19.181600  -95.172000
  C    -50.141900   19.513000  -94.136600
  C    -50.327700   20.818100  -93.813300
  H    -51.147400   18.247200  -95.738100
  C    -49.173300   18.523800  -93.608900
  H    -48.326200   19.089100  -93.343600
  H    -48.862800   17.775400  -94.316000
  C    -49.675400   17.750900  -92.324400
  H    -50.108600   18.470200  -91.729100
  H    -48.828700   17.448700  -91.659200
  C    -50.625600   16.569100  -92.697000
  H    -51.180700   16.349800  -91.764600
  H    -49.875800   15.766500  -93.038700
  H    -51.387200   16.726800  -93.475600
  H    -48.391700   24.579600  -90.983200
  H    -52.648200   20.024400  -96.363500

 Total Charge           Charge          ....    0
 Multiplicity           Mult            ....    1
 Number of Electrons    NEL             ....  134
 Basis Dimension        Dim             ....  322

ORBITAL ENERGIES
----------------

  NO   OCC          E(Eh)            E(eV)
   0   2.0000     -88.967968     -2420.9415
   1   2.0000     -88.963656     -2420.8242
   2   2.0000     -10.334687      -281.2211
   3   2.0000     -10.330536      -281.1082
   4   2.0000     -10.314873      -280.6820
   5   2.0000     -10.313975      -280.6575
   6   2.0000     -10.303961      -280.3850
   7   2.0000     -10.300702      -280.2963
   8   2.0000     -10.299491      -280.2634
   9   2.0000     -10.294590      -280.1300
  10   2.0000     -10.292229      -280.0658
  11   2.0000     -10.289623      -279.9949
  12   2.0000     -10.288842      -279.9736
  13   2.0000     -10.287999      -279.9507
  14   2.0000     -10.287282      -279.9312
  15   2.0000     -10.286997      -279.9234
  16   2.0000      -8.082184      -219.9274
  17   2.0000      -8.078553      -219.8286
  18   2.0000      -6.040834      -164.3794
  19   2.0000      -6.037125      -164.2785
  20   2.0000      -6.036649      -164.2656
  21   2.0000      -6.033164      -164.1707
  22   2.0000      -6.032932      -164.1644
  23   2.0000      -6.029074      -164.0594
  24   2.0000      -1.009904       -27.4809
  25   2.0000      -0.985759       -26.8239
  26   2.0000      -0.909743       -24.7554
  27   2.0000      -0.904297       -24.6072
  28   2.0000      -0.869207       -23.6523
  29   2.0000      -0.850510       -23.1435
  30   2.0000      -0.841350       -22.8943
  31   2.0000      -0.814198       -22.1554
  32   2.0000      -0.781570       -21.2676
  33   2.0000      -0.772498       -21.0207
  34   2.0000      -0.711619       -19.3641
  35   2.0000      -0.699875       -19.0446
  36   2.0000      -0.693679       -18.8760
  37   2.0000      -0.664838       -18.0912
  38   2.0000      -0.634793       -17.2736
  39   2.0000      -0.621047       -16.8996
  40   2.0000      -0.597781       -16.2664
  41   2.0000      -0.569489       -15.4966
  42   2.0000      -0.555938       -15.1278
  43   2.0000      -0.545559       -14.8454
  44   2.0000      -0.541131       -14.7249
  45   2.0000      -0.533454       -14.5160
  46   2.0000      -0.519631       -14.1399
  47   2.0000      -0.509481       -13.8637
  48   2.0000      -0.502193       -13.6654
  49   2.0000      -0.492372       -13.3981
  50   2.0000      -0.490622       -13.3505
  51   2.0000      -0.484838       -13.1931
  52   2.0000      -0.474131       -12.9018
  53   2.0000      -0.466298       -12.6886
  54   2.0000      -0.460213       -12.5230
  55   2.0000      -0.442890       -12.0516
  56   2.0000      -0.436998       -11.8913
  57   2.0000      -0.436250       -11.8710
  58   2.0000      -0.429488       -11.6870
  59   2.0000      -0.425873       -11.5886
  60   2.0000      -0.421509       -11.4698
  61   2.0000      -0.420092       -11.4313
  62   2.0000      -0.410616       -11.1734
  63   2.0000      -0.357510        -9.7283
  64   2.0000      -0.333166        -9.0659
  65   2.0000      -0.327410        -8.9093
  66   2.0000      -0.287997        -7.8368
  67   0.0000       0.023452         0.6381
  68   0.0000       0.077144         2.0992
  69   0.0000       0.101943         2.7740
  70   0.0000       0.116977         3.1831
  71   0.0000       0.132140         3.5957

MULLIKEN ATOMIC CHARGES
-----------------------
   0 S :    0.105293
   1 C :   -0.103010
   2 C :   -0.100066
   3 C :   -0.006084
   4 C :   -0.111479
   5 H :    0.022328
   6 C :   -0.000458
   7 H :    0.036016
   8 H :    0.029170
   9 C :   -0.042947
  10 H :    0.006457
  11 H :    0.030604
  12 C :   -0.074062
  13 H :    0.056718
  14 H :    0.043238
  15 H :    0.043026
  16 S :    0.089869
  17 C :   -0.080516
  18 C :   -0.062285
  19 C :   -0.041250
  20 C :   -0.143722
  21 H :    0.022995
  22 C :    0.120356
  23 H :   -0.012368
  24 H :    0.015342
  25 C :   -0.055105
  26 H :    0.008026
  27 H :    0.034490
  28 C :   -0.082711
  29 H :    0.047112
  30 H :    0.048321
  31 H :    0.046783
  32 H :    0.051024
  33 H :    0.058896
Sum of atomic charges:   -0.0000000

LOEWDIN ATOMIC CHARGES
----------------------
   0 S :    0.402958
   1 C :   -0.204881
   2 C :   -0.067703
   3 C :   -0.074639
   4 C :   -0.194084
   5 H :    0.029542
   6 C :   -0.039323
   7 H :    0.031315
   8 H :    0.032474
   9 C :   -0.034109
  10 H :    0.011371
  11 H :    0.023335
  12 C :   -0.071423
  13 H :    0.038977
  14 H :    0.025990
  15 H :    0.029239
  16 S :    0.389958
  17 C :   -0.182358
  18 C :   -0.069642
  19 C :   -0.057273
  20 C :   -0.177167
  21 H :    0.033066
  22 C :   -0.024098
  23 H :    0.022094
  24 H :    0.027951
  25 C :   -0.032344
  26 H :    0.010400
  27 H :    0.031080
  28 C :   -0.073580
  29 H :    0.032496
  30 H :    0.036472
  31 H :    0.026494
  32 H :    0.033243
  33 H :    0.034172

  Mayer bond orders larger than 0.100000
B(  0-S ,  1-C ) :   1.1307 B(  0-S ,  4-C ) :   1.1536 B(  1-C ,  2-C ) :   1.5989
B(  1-C ,  4-C ) :   0.1003 B(  1-C , 32-H ) :   0.9669 B(  2-C ,  3-C ) :   1.2732
B(  2-C ,  6-C ) :   1.0228 B(  3-C ,  4-C ) :   1.5557 B(  3-C ,  5-H ) :   0.9825
B(  4-C , 20-C ) :   1.0334 B(  6-C ,  7-H ) :   0.9527 B(  6-C ,  8-H ) :   0.9441
B(  6-C ,  9-C ) :   1.0568 B(  9-C , 10-H ) :   0.9559 B(  9-C , 11-H ) :   0.9594
B(  9-C , 12-C ) :   1.0663 B( 12-C , 13-H ) :   0.9726 B( 12-C , 14-H ) :   0.9735
B( 12-C , 15-H ) :   0.9775 B( 16-S , 17-C ) :   1.1177 B( 16-S , 20-C ) :   1.1364
B( 17-C , 18-C ) :   1.6753 B( 17-C , 33-H ) :   0.9634 B( 18-C , 19-C ) :   1.1843
B( 18-C , 21-H ) :   0.9813 B( 19-C , 20-C ) :   1.6308 B( 19-C , 22-C ) :   1.0617
B( 22-C , 23-H ) :   0.9139 B( 22-C , 24-H ) :   0.9335 B( 22-C , 25-C ) :   1.0672
B( 25-C , 26-H ) :   0.9571 B( 25-C , 27-H ) :   0.9581 B( 25-C , 28-C ) :   1.0574
B( 28-C , 29-H ) :   0.9747 B( 28-C , 30-H ) :   0.9771 B( 28-C , 31-H ) :   0.9772

Dispersion correction           -0.014667581
FINAL SINGLE POINT ENERGY     -1339.867893825241

DIPOLE MOMENT
-------------
                                X             Y             Z
Electronic contribution:    -17.99304      15.08197     -12.01132
Nuclear contribution   :     18.56506     -15.60431      12.05792
                        -----------------------------------------
Total Dipole Moment    :      0.57202      -0.52234       0.04661
                        -----------------------------------------
Magnitude (a.u.)       :      0.77602
Magnitude (Debye)      :      1.97249

Rotational constants in cm-1:     0.019914     0.008737     0.006775
Rotational constants in MHz :   597.006176   261.925421   203.096411

                             ****ORCA TERMINATED NORMALLY****
TOTAL RUN TIME: 0 days 0 hours 0 minutes 22 seconds 9 msec
