                         Program Version 4.2.1 -  RELEASE  -
|  1> ! wB97X-D3 SP def2-SVP
|  2> %pal
|  3> nprocs 24
|  4> end
|  5>
|  6> * xyz 0 1
|  7> S 	 -122.633 	 58.4999 	 -38.2664
|  8> C 	 -121.766 	 57.0055 	 -38.0821
|  9> C 	 -121.305 	 56.7832 	 -36.79
| 10> C 	 -121.757 	 57.8153 	 -35.8683
| 11> C 	 -122.487 	 58.7805 	 -36.568
| 12> H 	 -121.428 	 57.9535 	 -34.8236
| 13> C 	 -120.601 	 55.5337 	 -36.2376
| 14> H 	 -119.983 	 55.7819 	 -35.3875
| 15> H 	 -120.013 	 55.169 	 -37.0353
| 16> C 	 -121.483 	 54.366 	 -35.807
| 17> H 	 -122.069 	 53.9699 	 -36.6963
| 18> H 	 -120.819 	 53.5855 	 -35.4167
| 19> C 	 -122.441 	 54.7028 	 -34.6507
| 20> H 	 -123.017 	 53.8127 	 -34.5374
| 21> H 	 -121.861 	 54.9523 	 -33.7144
| 22> H 	 -123.032 	 55.6221 	 -34.8127
| 23> S 	 -123.513 	 61.2714 	 -36.9812
| 24> C 	 -124.475 	 61.9486 	 -35.7167
| 25> C 	 -124.466 	 61.2708 	 -34.4983
| 26> C 	 -123.741 	 60.0737 	 -34.6621
| 27> C 	 -123.186 	 59.9261 	 -35.9366
| 28> H 	 -124.906 	 61.7048 	 -33.666
| 29> C 	 -123.653 	 59.0485 	 -33.5169
| 30> H 	 -123.617 	 58.0842 	 -33.9799
| 31> H 	 -124.578 	 59.0813 	 -32.9697
| 32> C 	 -122.567 	 59.3264 	 -32.4524
| 33> H 	 -122.8 	 60.2127 	 -31.9814
| 34> H 	 -121.626 	 59.4449 	 -33.078
| 35> C 	 -122.539 	 58.2137 	 -31.3505
| 36> H 	 -121.724 	 58.4122 	 -30.7021
| 37> H 	 -122.339 	 57.2875 	 -31.8646
| 38> H 	 -123.457 	 58.2648 	 -30.7784
| 39> H 	 -121.568 	 56.3912 	 -38.9653
| 40> H 	 -124.912 	 62.9372 	 -35.7007
| 41> *
| 42>
| 43>                          ****END OF INPUT****

CARTESIAN COORDINATES (ANGSTROEM)
---------------------------------
  S    -122.633000   58.499900  -38.266400
  C    -121.766000   57.005500  -38.082100
  C    -121.305000   56.783200  -36.790000
  C    -121.757000   57.815300  -35.868300
  C    -122.487000   58.780500  -36.568000
  H    -121.428000   57.953500  -34.823600
  C    -120.601000   55.533700  -36.237600
  H    -119.983000   55.781900  -35.387500
  H    -120.013000   55.169000  -37.035300
  C    -121.483000   54.366000  -35.807000
  H    -122.069000   53.969900  -36.696300
  H    -120.819000   53.585500  -35.416700
  C    -122.441000   54.702800  -34.650700
  H    -123.017000   53.812700  -34.537400
  H    -121.861000   54.952300  -33.714400
  H    -123.032000   55.622100  -34.812700
  S    -123.513000   61.271400  -36.981200
  C    -124.475000   61.948600  -35.716700
  C    -124.466000   61.270800  -34.498300
  C    -123.741000   60.073700  -34.662100
  C    -123.186000   59.926100  -35.936600
  H    -124.906000   61.704800  -33.666000
  C    -123.653000   59.048500  -33.516900
  H    -123.617000   58.084200  -33.979900
  H    -124.578000   59.081300  -32.969700
  C    -122.567000   59.326400  -32.452400
  H    -122.800000   60.212700  -31.981400
  H    -121.626000   59.444900  -33.078000
  C    -122.539000   58.213700  -31.350500
  H    -121.724000   58.412200  -30.702100
  H    -122.339000   57.287500  -31.864600
  H    -123.457000   58.264800  -30.778400
  H    -121.568000   56.391200  -38.965300
  H    -124.912000   62.937200  -35.700700

 Total Charge           Charge          ....    0
 Multiplicity           Mult            ....    1
 Number of Electrons    NEL             ....  134
 Basis Dimension        Dim             ....  322

ORBITAL ENERGIES
----------------

  NO   OCC          E(Eh)            E(eV)
   0   2.0000     -88.970626     -2421.0138
   1   2.0000     -88.969650     -2420.9873
   2   2.0000     -10.330497      -281.1071
   3   2.0000     -10.324929      -280.9556
   4   2.0000     -10.314405      -280.6692
   5   2.0000     -10.313301      -280.6392
   6   2.0000     -10.305424      -280.4248
   7   2.0000     -10.302203      -280.3372
   8   2.0000     -10.296986      -280.1952
   9   2.0000     -10.290188      -280.0103
  10   2.0000     -10.288735      -279.9707
  11   2.0000     -10.287486      -279.9367
  12   2.0000     -10.286845      -279.9193
  13   2.0000     -10.285188      -279.8742
  14   2.0000     -10.278763      -279.6994
  15   2.0000     -10.277678      -279.6698
  16   2.0000      -8.085870      -220.0277
  17   2.0000      -8.084984      -220.0036
  18   2.0000      -6.044178      -164.4704
  19   2.0000      -6.043424      -164.4499
  20   2.0000      -6.040454      -164.3691
  21   2.0000      -6.039543      -164.3443
  22   2.0000      -6.036695      -164.2668
  23   2.0000      -6.035659      -164.2386
  24   2.0000      -1.009550       -27.4713
  25   2.0000      -0.985257       -26.8102
  26   2.0000      -0.911859       -24.8129
  27   2.0000      -0.908046       -24.7092
  28   2.0000      -0.866437       -23.5770
  29   2.0000      -0.855307       -23.2741
  30   2.0000      -0.845346       -23.0030
  31   2.0000      -0.811659       -22.0864
  32   2.0000      -0.785873       -21.3847
  33   2.0000      -0.771882       -21.0040
  34   2.0000      -0.703241       -19.1362
  35   2.0000      -0.694793       -18.9063
  36   2.0000      -0.688915       -18.7463
  37   2.0000      -0.668192       -18.1824
  38   2.0000      -0.639113       -17.3912
  39   2.0000      -0.614150       -16.7119
  40   2.0000      -0.591005       -16.0821
  41   2.0000      -0.574144       -15.6232
  42   2.0000      -0.573468       -15.6049
  43   2.0000      -0.549860       -14.9625
  44   2.0000      -0.547259       -14.8917
  45   2.0000      -0.523419       -14.2430
  46   2.0000      -0.516554       -14.0562
  47   2.0000      -0.511739       -13.9251
  48   2.0000      -0.503750       -13.7077
  49   2.0000      -0.490651       -13.3513
  50   2.0000      -0.487597       -13.2682
  51   2.0000      -0.482707       -13.1351
  52   2.0000      -0.469617       -12.7789
  53   2.0000      -0.467551       -12.7227
  54   2.0000      -0.465212       -12.6591
  55   2.0000      -0.457051       -12.4370
  56   2.0000      -0.446155       -12.1405
  57   2.0000      -0.436092       -11.8667
  58   2.0000      -0.435024       -11.8376
  59   2.0000      -0.425843       -11.5878
  60   2.0000      -0.421302       -11.4642
  61   2.0000      -0.416934       -11.3453
  62   2.0000      -0.412472       -11.2239
  63   2.0000      -0.353633        -9.6228
  64   2.0000      -0.337430        -9.1819
  65   2.0000      -0.331500        -9.0206
  66   2.0000      -0.280847        -7.6422
  67   0.0000       0.025304         0.6886
  68   0.0000       0.078573         2.1381
  69   0.0000       0.096357         2.6220
  70   0.0000       0.116949         3.1823
  71   0.0000       0.125728         3.4212

MULLIKEN ATOMIC CHARGES
-----------------------
   0 S :    0.114824
   1 C :   -0.142999
   2 C :   -0.068877
   3 C :   -0.048803
   4 C :   -0.100131
   5 H :    0.027549
   6 C :    0.100326
   7 H :    0.018484
   8 H :    0.012953
   9 C :   -0.092852
  10 H :    0.038176
  11 H :    0.035900
  12 C :   -0.075909
  13 H :    0.038377
  14 H :    0.027544
  15 H :    0.056478
  16 S :    0.115453
  17 C :   -0.080530
  18 C :   -0.021348
  19 C :   -0.056321
  20 C :   -0.138431
  21 H :   -0.004969
  22 C :    0.068089
  23 H :    0.017705
  24 H :    0.003621
  25 C :   -0.079302
  26 H :    0.007630
  27 H :    0.037261
  28 C :   -0.003443
  29 H :    0.029503
  30 H :    0.027967
  31 H :    0.036874
  32 H :    0.052967
  33 H :    0.046234
Sum of atomic charges:   -0.0000000

LOEWDIN ATOMIC CHARGES
----------------------
   0 S :    0.416124
   1 C :   -0.208904
   2 C :   -0.054057
   3 C :   -0.077184
   4 C :   -0.191277
   5 H :    0.037106
   6 C :   -0.030572
   7 H :    0.028158
   8 H :    0.025178
   9 C :   -0.040357
  10 H :    0.028734
  11 H :    0.027025
  12 C :   -0.071546
  13 H :    0.024556
  14 H :    0.025719
  15 H :    0.026451
  16 S :    0.420499
  17 C :   -0.188226
  18 C :   -0.059425
  19 C :   -0.051970
  20 C :   -0.204051
  21 H :    0.023417
  22 C :   -0.030964
  23 H :    0.022866
  24 H :    0.023971
  25 C :   -0.032130
  26 H :    0.010542
  27 H :    0.025813
  28 C :   -0.053065
  29 H :    0.023043
  30 H :    0.023683
  31 H :    0.027899
  32 H :    0.028141
  33 H :    0.024804

  Mayer bond orders larger than 0.100000
B(  0-S ,  1-C ) :   1.1291 B(  0-S ,  4-C ) :   1.1666 B(  1-C ,  2-C ) :   1.6173
B(  1-C , 32-H ) :   0.9676 B(  2-C ,  3-C ) :   1.2193 B(  2-C ,  6-C ) :   1.0321
B(  3-C ,  4-C ) :   1.5624 B(  3-C ,  5-H ) :   0.9869 B(  4-C , 20-C ) :   1.0504
B(  6-C ,  7-H ) :   0.9389 B(  6-C ,  8-H ) :   0.9320 B(  6-C ,  9-C ) :   1.0832
B(  9-C , 10-H ) :   0.9537 B(  9-C , 11-H ) :   0.9524 B(  9-C , 12-C ) :   1.0770
B( 12-C , 13-H ) :   0.9718 B( 12-C , 14-H ) :   0.9720 B( 12-C , 15-H ) :   0.9724
B( 16-S , 17-C ) :   1.1653 B( 16-S , 20-C ) :   1.1381 B( 17-C , 18-C ) :   1.6098
B( 17-C , 33-H ) :   0.9606 B( 18-C , 19-C ) :   1.2510 B( 18-C , 21-H ) :   1.0028
B( 19-C , 20-C ) :   1.5828 B( 19-C , 22-C ) :   1.0364 B( 22-C , 23-H ) :   0.9334
B( 22-C , 24-H ) :   0.9288 B( 22-C , 25-C ) :   1.0572 B( 25-C , 26-H ) :   0.9521
B( 25-C , 27-H ) :   0.9555 B( 25-C , 28-C ) :   1.0764 B( 28-C , 29-H ) :   0.9741
B( 28-C , 30-H ) :   0.9773 B( 28-C , 31-H ) :   0.9731

Dispersion correction           -0.015359381
FINAL SINGLE POINT ENERGY     -1339.879612644694

DIPOLE MOMENT
-------------
                                X             Y             Z
Electronic contribution:     -4.70107      20.10379     -24.70733
Nuclear contribution   :      4.77540     -20.35473      25.27378
                        -----------------------------------------
Total Dipole Moment    :      0.07433      -0.25094       0.56645
                        -----------------------------------------
Magnitude (a.u.)       :      0.62399
Magnitude (Debye)      :      1.58605

Rotational constants in cm-1:     0.016747     0.011041     0.007047
Rotational constants in MHz :   502.062148   330.996542   211.262488

                             ****ORCA TERMINATED NORMALLY****
TOTAL RUN TIME: 0 days 0 hours 0 minutes 22 seconds 811 msec
