                         Program Version 4.2.1 -  RELEASE  -
|  1> ! wB97X-D3 SP def2-SVP
|  2> %pal
|  3> nprocs 24
|  4> end
|  5>
|  6> * xyz 0 1
|  7> S 	 -62.4462 	 3.56386 	 -16.2859
|  8> C 	 -63.7033 	 3.22826 	 -15.217
|  9> C 	 -63.4463 	 2.11895 	 -14.3719
| 10> C 	 -62.138 	 1.59171 	 -14.7049
| 11> C 	 -61.6034 	 2.10635 	 -15.846
| 12> H 	 -61.6028 	 0.783824 	 -14.1634
| 13> C 	 -64.3528 	 1.55108 	 -13.2515
| 14> H 	 -63.9072 	 0.52566 	 -13.1603
| 15> H 	 -65.3943 	 1.49685 	 -13.5416
| 16> C 	 -64.374 	 2.32413 	 -11.8979
| 17> H 	 -64.9738 	 3.23561 	 -11.9631
| 18> H 	 -64.8746 	 1.63788 	 -11.1213
| 19> C 	 -62.9254 	 2.75654 	 -11.4721
| 20> H 	 -62.4794 	 3.5089 	 -12.1478
| 21> H 	 -62.7961 	 3.19418 	 -10.5035
| 22> H 	 -62.1498 	 1.97439 	 -11.4986
| 23> S 	 -59.4759 	 3.1785 	 -17.3607
| 24> C 	 -58.2057 	 2.10712 	 -17.9717
| 25> C 	 -58.2391 	 0.865215 	 -17.3006
| 26> C 	 -59.5015 	 0.689175 	 -16.5254
| 27> C 	 -60.29 	 1.84361 	 -16.4953
| 28> H 	 -57.464 	 0.135478 	 -17.5627
| 29> C 	 -59.969 	 -0.677495 	 -16.0414
| 30> H 	 -59.5837 	 -1.33074 	 -16.7586
| 31> H 	 -61.0913 	 -0.739758 	 -16.106
| 32> C 	 -59.4358 	 -1.27497 	 -14.7061
| 33> H 	 -59.8626 	 -2.30861 	 -14.6545
| 34> H 	 -59.9609 	 -0.772764 	 -13.9452
| 35> C 	 -57.9914 	 -1.16855 	 -14.2954
| 36> H 	 -57.6977 	 -0.143114 	 -14.0264
| 37> H 	 -57.4378 	 -1.54912 	 -15.1392
| 38> H 	 -57.836 	 -1.61928 	 -13.3814
| 39> H 	 -64.5427 	 3.88037 	 -15.0469
| 40> H 	 -57.549 	 2.31451 	 -18.7795
| 41> *
| 42>
| 43>                          ****END OF INPUT****

CARTESIAN COORDINATES (ANGSTROEM)
---------------------------------
  S    -62.446200    3.563860  -16.285900
  C    -63.703300    3.228260  -15.217000
  C    -63.446300    2.118950  -14.371900
  C    -62.138000    1.591710  -14.704900
  C    -61.603400    2.106350  -15.846000
  H    -61.602800    0.783824  -14.163400
  C    -64.352800    1.551080  -13.251500
  H    -63.907200    0.525660  -13.160300
  H    -65.394300    1.496850  -13.541600
  C    -64.374000    2.324130  -11.897900
  H    -64.973800    3.235610  -11.963100
  H    -64.874600    1.637880  -11.121300
  C    -62.925400    2.756540  -11.472100
  H    -62.479400    3.508900  -12.147800
  H    -62.796100    3.194180  -10.503500
  H    -62.149800    1.974390  -11.498600
  S    -59.475900    3.178500  -17.360700
  C    -58.205700    2.107120  -17.971700
  C    -58.239100    0.865215  -17.300600
  C    -59.501500    0.689175  -16.525400
  C    -60.290000    1.843610  -16.495300
  H    -57.464000    0.135478  -17.562700
  C    -59.969000   -0.677495  -16.041400
  H    -59.583700   -1.330740  -16.758600
  H    -61.091300   -0.739758  -16.106000
  C    -59.435800   -1.274970  -14.706100
  H    -59.862600   -2.308610  -14.654500
  H    -59.960900   -0.772764  -13.945200
  C    -57.991400   -1.168550  -14.295400
  H    -57.697700   -0.143114  -14.026400
  H    -57.437800   -1.549120  -15.139200
  H    -57.836000   -1.619280  -13.381400
  H    -64.542700    3.880370  -15.046900
  H    -57.549000    2.314510  -18.779500

 Total Charge           Charge          ....    0
 Multiplicity           Mult            ....    1
 Number of Electrons    NEL             ....  134
 Basis Dimension        Dim             ....  322

ORBITAL ENERGIES
----------------

  NO   OCC          E(Eh)            E(eV)
   0   2.0000     -88.966775     -2420.9090
   1   2.0000     -88.964139     -2420.8373
   2   2.0000     -10.333648      -281.1929
   3   2.0000     -10.329207      -281.0720
   4   2.0000     -10.322017      -280.8764
   5   2.0000     -10.313412      -280.6422
   6   2.0000     -10.311856      -280.5999
   7   2.0000     -10.308429      -280.5066
   8   2.0000     -10.306160      -280.4449
   9   2.0000     -10.302020      -280.3322
  10   2.0000     -10.301860      -280.3279
  11   2.0000     -10.299074      -280.2520
  12   2.0000     -10.292250      -280.0664
  13   2.0000     -10.284282      -279.8495
  14   2.0000     -10.276604      -279.6406
  15   2.0000     -10.272614      -279.5320
  16   2.0000      -8.082986      -219.9492
  17   2.0000      -8.078044      -219.8148
  18   2.0000      -6.041338      -164.3932
  19   2.0000      -6.037354      -164.2847
  20   2.0000      -6.036804      -164.2698
  21   2.0000      -6.033750      -164.1867
  22   2.0000      -6.032750      -164.1595
  23   2.0000      -6.028515      -164.0442
  24   2.0000      -1.008315       -27.4376
  25   2.0000      -0.976150       -26.5624
  26   2.0000      -0.908465       -24.7206
  27   2.0000      -0.903241       -24.5784
  28   2.0000      -0.865148       -23.5419
  29   2.0000      -0.850550       -23.1446
  30   2.0000      -0.842931       -22.9373
  31   2.0000      -0.812510       -22.1095
  32   2.0000      -0.786027       -21.3889
  33   2.0000      -0.775375       -21.0990
  34   2.0000      -0.705400       -19.1949
  35   2.0000      -0.703959       -19.1557
  36   2.0000      -0.687168       -18.6988
  37   2.0000      -0.663294       -18.0492
  38   2.0000      -0.639347       -17.3975
  39   2.0000      -0.614451       -16.7201
  40   2.0000      -0.584017       -15.8919
  41   2.0000      -0.567741       -15.4490
  42   2.0000      -0.563030       -15.3208
  43   2.0000      -0.548879       -14.9357
  44   2.0000      -0.539728       -14.6868
  45   2.0000      -0.536333       -14.5944
  46   2.0000      -0.521184       -14.1821
  47   2.0000      -0.509259       -13.8577
  48   2.0000      -0.502336       -13.6692
  49   2.0000      -0.496660       -13.5148
  50   2.0000      -0.487201       -13.2574
  51   2.0000      -0.480553       -13.0765
  52   2.0000      -0.472533       -12.8583
  53   2.0000      -0.465292       -12.6612
  54   2.0000      -0.454977       -12.3805
  55   2.0000      -0.447063       -12.1652
  56   2.0000      -0.443246       -12.0613
  57   2.0000      -0.436916       -11.8891
  58   2.0000      -0.434892       -11.8340
  59   2.0000      -0.430484       -11.7141
  60   2.0000      -0.418926       -11.3996
  61   2.0000      -0.412264       -11.2183
  62   2.0000      -0.406505       -11.0616
  63   2.0000      -0.357579        -9.7302
  64   2.0000      -0.331072        -9.0089
  65   2.0000      -0.323147        -8.7933
  66   2.0000      -0.284535        -7.7426
  67   0.0000       0.020451         0.5565
  68   0.0000       0.078902         2.1470
  69   0.0000       0.092345         2.5128
  70   0.0000       0.112730         3.0675
  71   0.0000       0.129066         3.5121

MULLIKEN ATOMIC CHARGES
-----------------------
   0 S :    0.111452
   1 C :   -0.093426
   2 C :   -0.128863
   3 C :   -0.005547
   4 C :   -0.118755
   5 H :    0.018364
   6 C :    0.066544
   7 H :    0.037578
   8 H :    0.037103
   9 C :   -0.079110
  10 H :    0.037822
  11 H :    0.050652
  12 C :   -0.069920
  13 H :    0.042677
  14 H :    0.026842
  15 H :    0.020001
  16 S :    0.079285
  17 C :   -0.094223
  18 C :   -0.033464
  19 C :   -0.070432
  20 C :   -0.109470
  21 H :    0.034224
  22 C :    0.044101
  23 H :    0.006964
  24 H :    0.047778
  25 C :   -0.079259
  26 H :    0.033204
  27 H :   -0.001252
  28 C :    0.007076
  29 H :    0.033308
  30 H :    0.029982
  31 H :    0.017678
  32 H :    0.044404
  33 H :    0.056681
Sum of atomic charges:    0.0000000

LOEWDIN ATOMIC CHARGES
----------------------
   0 S :    0.437838
   1 C :   -0.212198
   2 C :   -0.064794
   3 C :   -0.065811
   4 C :   -0.196227
   5 H :    0.034759
   6 C :   -0.033578
   7 H :    0.037606
   8 H :    0.032651
   9 C :   -0.040480
  10 H :    0.024622
  11 H :    0.035110
  12 C :   -0.079619
  13 H :    0.031785
  14 H :    0.020881
  15 H :    0.022896
  16 S :    0.364737
  17 C :   -0.172493
  18 C :   -0.068673
  19 C :   -0.058433
  20 C :   -0.182694
  21 H :    0.034439
  22 C :   -0.035631
  23 H :    0.021441
  24 H :    0.042476
  25 C :   -0.042479
  26 H :    0.030192
  27 H :    0.008410
  28 C :   -0.056232
  29 H :    0.033781
  30 H :    0.023219
  31 H :    0.021185
  32 H :    0.025468
  33 H :    0.025847

  Mayer bond orders larger than 0.100000
B(  0-S ,  1-C ) :   1.1769 B(  0-S ,  4-C ) :   1.1504 B(  1-C ,  2-C ) :   1.5749
B(  1-C , 32-H ) :   0.9697 B(  2-C ,  3-C ) :   1.2574 B(  2-C ,  6-C ) :   1.0095
B(  3-C ,  4-C ) :   1.5696 B(  3-C ,  5-H ) :   0.9794 B(  4-C , 20-C ) :   1.0566
B(  6-C ,  7-H ) :   0.9424 B(  6-C ,  8-H ) :   0.9464 B(  6-C ,  9-C ) :   1.0643
B(  9-C , 10-H ) :   0.9572 B(  9-C , 11-H ) :   0.9585 B(  9-C , 12-C ) :   1.0657
B( 12-C , 13-H ) :   0.9680 B( 12-C , 14-H ) :   0.9773 B( 12-C , 15-H ) :   0.9789
B( 16-S , 17-C ) :   1.1360 B( 16-S , 20-C ) :   1.1065 B( 17-C , 18-C ) :   1.6468
B( 17-C , 33-H ) :   0.9722 B( 18-C , 19-C ) :   1.1956 B( 18-C , 21-H ) :   0.9820
B( 19-C , 20-C ) :   1.6350 B( 19-C , 22-C ) :   1.0355 B( 22-C , 23-H ) :   0.9287
B( 22-C , 24-H ) :   0.9412 B( 22-C , 25-C ) :   1.0643 B( 25-C , 26-H ) :   0.9516
B( 25-C , 27-H ) :   0.9472 B( 25-C , 28-C ) :   1.0918 B( 28-C , 29-H ) :   0.9643
B( 28-C , 30-H ) :   0.9782 B( 28-C , 31-H ) :   0.9648

Dispersion correction           -0.014827319
FINAL SINGLE POINT ENERGY     -1339.858402582309

DIPOLE MOMENT
-------------
                                X             Y             Z
Electronic contribution:      1.15651      16.44918     -21.99430
Nuclear contribution   :     -1.20249     -16.91975      22.40309
                        -----------------------------------------
Total Dipole Moment    :     -0.04598      -0.47057       0.40880
                        -----------------------------------------
Magnitude (a.u.)       :      0.62503
Magnitude (Debye)      :      1.58870

Rotational constants in cm-1:     0.018681     0.009193     0.006809
Rotational constants in MHz :   560.045889   275.584674   204.129990

                             ****ORCA TERMINATED NORMALLY****
TOTAL RUN TIME: 0 days 0 hours 0 minutes 21 seconds 745 msec
