                         Program Version 4.2.1 -  RELEASE  -
|  1> ! wB97X-D3 SP def2-SVP
|  2> %pal
|  3> nprocs 24
|  4> end
|  5>
|  6> * xyz 0 1
|  7> S 	 -127.946 	 13.2239 	 -10.3612
|  8> C 	 -126.3 	 13.543 	 -10.0019
|  9> C 	 -125.428 	 12.7524 	 -10.7249
| 10> C 	 -126.141 	 11.8198 	 -11.5413
| 11> C 	 -127.531 	 11.7867 	 -11.314
| 12> H 	 -125.706 	 11.0916 	 -12.1786
| 13> C 	 -123.947 	 12.8849 	 -10.5355
| 14> H 	 -123.814 	 13.9513 	 -10.5542
| 15> H 	 -123.439 	 12.4109 	 -11.3628
| 16> C 	 -123.405 	 12.3291 	 -9.22126
| 17> H 	 -123.675 	 12.9669 	 -8.40303
| 18> H 	 -123.976 	 11.3695 	 -9.06542
| 19> C 	 -121.926 	 11.9592 	 -9.2987
| 20> H 	 -121.439 	 12.8755 	 -9.23038
| 21> H 	 -121.599 	 11.3899 	 -8.44548
| 22> H 	 -121.628 	 11.4629 	 -10.1755
| 23> S 	 -129.543 	 11.9217 	 -13.1034
| 24> C 	 -130.301 	 10.462 	 -13.713
| 25> C 	 -129.72 	 9.34002 	 -13.1954
| 26> C 	 -128.761 	 9.6621 	 -12.1719
| 27> C 	 -128.541 	 10.9799 	 -12.0131
| 28> H 	 -129.981 	 8.30136 	 -13.5132
| 29> C 	 -127.884 	 8.55185 	 -11.672
| 30> H 	 -126.872 	 8.62322 	 -12.1411
| 31> H 	 -128.244 	 7.57282 	 -11.9275
| 32> C 	 -127.724 	 8.50822 	 -10.1379
| 33> H 	 -128.711 	 8.56731 	 -9.63277
| 34> H 	 -127.131 	 9.37856 	 -9.85668
| 35> C 	 -126.952 	 7.29016 	 -9.56778
| 36> H 	 -127.454 	 6.37146 	 -9.72779
| 37> H 	 -126.799 	 7.25533 	 -8.51349
| 38> H 	 -126.02 	 7.14437 	 -10.1026
| 39> H 	 -125.977 	 14.1884 	 -9.27162
| 40> H 	 -130.945 	 10.4692 	 -14.6024
| 41> *
| 42>
| 43>                          ****END OF INPUT****

CARTESIAN COORDINATES (ANGSTROEM)
---------------------------------
  S    -127.946000   13.223900  -10.361200
  C    -126.300000   13.543000  -10.001900
  C    -125.428000   12.752400  -10.724900
  C    -126.141000   11.819800  -11.541300
  C    -127.531000   11.786700  -11.314000
  H    -125.706000   11.091600  -12.178600
  C    -123.947000   12.884900  -10.535500
  H    -123.814000   13.951300  -10.554200
  H    -123.439000   12.410900  -11.362800
  C    -123.405000   12.329100   -9.221260
  H    -123.675000   12.966900   -8.403030
  H    -123.976000   11.369500   -9.065420
  C    -121.926000   11.959200   -9.298700
  H    -121.439000   12.875500   -9.230380
  H    -121.599000   11.389900   -8.445480
  H    -121.628000   11.462900  -10.175500
  S    -129.543000   11.921700  -13.103400
  C    -130.301000   10.462000  -13.713000
  C    -129.720000    9.340020  -13.195400
  C    -128.761000    9.662100  -12.171900
  C    -128.541000   10.979900  -12.013100
  H    -129.981000    8.301360  -13.513200
  C    -127.884000    8.551850  -11.672000
  H    -126.872000    8.623220  -12.141100
  H    -128.244000    7.572820  -11.927500
  C    -127.724000    8.508220  -10.137900
  H    -128.711000    8.567310   -9.632770
  H    -127.131000    9.378560   -9.856680
  C    -126.952000    7.290160   -9.567780
  H    -127.454000    6.371460   -9.727790
  H    -126.799000    7.255330   -8.513490
  H    -126.020000    7.144370  -10.102600
  H    -125.977000   14.188400   -9.271620
  H    -130.945000   10.469200  -14.602400

 Total Charge           Charge          ....    0
 Multiplicity           Mult            ....    1
 Number of Electrons    NEL             ....  134
 Basis Dimension        Dim             ....  322

ORBITAL ENERGIES
----------------

  NO   OCC          E(Eh)            E(eV)
   0   2.0000     -88.965627     -2420.8778
   1   2.0000     -88.961878     -2420.7758
   2   2.0000     -10.333763      -281.1960
   3   2.0000     -10.324617      -280.9471
   4   2.0000     -10.317678      -280.7583
   5   2.0000     -10.304362      -280.3960
   6   2.0000     -10.299371      -280.2601
   7   2.0000     -10.298157      -280.2271
   8   2.0000     -10.296965      -280.1947
   9   2.0000     -10.296636      -280.1857
  10   2.0000     -10.290696      -280.0241
  11   2.0000     -10.287187      -279.9286
  12   2.0000     -10.286914      -279.9212
  13   2.0000     -10.282400      -279.7983
  14   2.0000     -10.269062      -279.4354
  15   2.0000     -10.268656      -279.4243
  16   2.0000      -8.080513      -219.8819
  17   2.0000      -8.077014      -219.7867
  18   2.0000      -6.038900      -164.3268
  19   2.0000      -6.035619      -164.2375
  20   2.0000      -6.034974      -164.2200
  21   2.0000      -6.031471      -164.1247
  22   2.0000      -6.031422      -164.1233
  23   2.0000      -6.027616      -164.0198
  24   2.0000      -1.008793       -27.4506
  25   2.0000      -0.987339       -26.8669
  26   2.0000      -0.917016       -24.9533
  27   2.0000      -0.904946       -24.6248
  28   2.0000      -0.871582       -23.7170
  29   2.0000      -0.851809       -23.1789
  30   2.0000      -0.847687       -23.0667
  31   2.0000      -0.818787       -22.2803
  32   2.0000      -0.783228       -21.3127
  33   2.0000      -0.773612       -21.0511
  34   2.0000      -0.708262       -19.2728
  35   2.0000      -0.705156       -19.1883
  36   2.0000      -0.689998       -18.7758
  37   2.0000      -0.665230       -18.1018
  38   2.0000      -0.646852       -17.6017
  39   2.0000      -0.615396       -16.7458
  40   2.0000      -0.596132       -16.2216
  41   2.0000      -0.578032       -15.7290
  42   2.0000      -0.566069       -15.4035
  43   2.0000      -0.561356       -15.2753
  44   2.0000      -0.527509       -14.3543
  45   2.0000      -0.522706       -14.2236
  46   2.0000      -0.518797       -14.1172
  47   2.0000      -0.515000       -14.0139
  48   2.0000      -0.506316       -13.7776
  49   2.0000      -0.501500       -13.6465
  50   2.0000      -0.491022       -13.3614
  51   2.0000      -0.488072       -13.2811
  52   2.0000      -0.475843       -12.9483
  53   2.0000      -0.467454       -12.7201
  54   2.0000      -0.458315       -12.4714
  55   2.0000      -0.448958       -12.2168
  56   2.0000      -0.447755       -12.1840
  57   2.0000      -0.438631       -11.9358
  58   2.0000      -0.432159       -11.7596
  59   2.0000      -0.426939       -11.6176
  60   2.0000      -0.420133       -11.4324
  61   2.0000      -0.411621       -11.2008
  62   2.0000      -0.407873       -11.0988
  63   2.0000      -0.345213        -9.3937
  64   2.0000      -0.328897        -8.9497
  65   2.0000      -0.327675        -8.9165
  66   2.0000      -0.296602        -8.0709
  67   0.0000       0.033888         0.9221
  68   0.0000       0.059067         1.6073
  69   0.0000       0.107650         2.9293
  70   0.0000       0.124617         3.3910
  71   0.0000       0.131839         3.5875

MULLIKEN ATOMIC CHARGES
-----------------------
   0 S :    0.117737
   1 C :   -0.086179
   2 C :   -0.106294
   3 C :    0.060017
   4 C :   -0.172777
   5 H :   -0.002760
   6 C :    0.097232
   7 H :    0.027612
   8 H :    0.011274
   9 C :   -0.096364
  10 H :    0.024642
  11 H :    0.034351
  12 C :    0.007945
  13 H :    0.012321
  14 H :    0.030252
  15 H :    0.023073
  16 S :    0.094863
  17 C :   -0.090936
  18 C :   -0.047178
  19 C :   -0.026695
  20 C :   -0.142721
  21 H :    0.038011
  22 C :    0.057816
  23 H :    0.039766
  24 H :    0.001642
  25 C :   -0.107949
  26 H :    0.038170
  27 H :    0.044662
  28 C :   -0.017203
  29 H :    0.006224
  30 H :    0.030385
  31 H :    0.016642
  32 H :    0.015453
  33 H :    0.066965
Sum of atomic charges:    0.0000000

LOEWDIN ATOMIC CHARGES
----------------------
   0 S :    0.415153
   1 C :   -0.192800
   2 C :   -0.061629
   3 C :   -0.054001
   4 C :   -0.192481
   5 H :    0.023394
   6 C :   -0.029863
   7 H :    0.030984
   8 H :    0.027564
   9 C :   -0.037742
  10 H :    0.019532
  11 H :    0.027549
  12 C :   -0.053991
  13 H :    0.019201
  14 H :    0.027950
  15 H :    0.019815
  16 S :    0.399270
  17 C :   -0.182467
  18 C :   -0.071327
  19 C :   -0.062306
  20 C :   -0.192946
  21 H :    0.040553
  22 C :   -0.029734
  23 H :    0.035646
  24 H :    0.021823
  25 C :   -0.041129
  26 H :    0.028203
  27 H :    0.024160
  28 C :   -0.067063
  29 H :    0.016375
  30 H :    0.025254
  31 H :    0.022952
  32 H :    0.010638
  33 H :    0.033466

  Mayer bond orders larger than 0.100000
B(  0-S ,  1-C ) :   1.1560 B(  0-S ,  4-C ) :   1.1597 B(  1-C ,  2-C ) :   1.5804
B(  1-C ,  4-C ) :   0.1076 B(  1-C , 32-H ) :   0.9793 B(  2-C ,  3-C ) :   1.2617
B(  2-C ,  6-C ) :   1.0279 B(  3-C ,  4-C ) :   1.5440 B(  3-C ,  5-H ) :   0.9985
B(  4-C , 20-C ) :   1.0158 B(  6-C ,  7-H ) :   0.9317 B(  6-C ,  8-H ) :   0.9399
B(  6-C ,  9-C ) :   1.0586 B(  9-C , 10-H ) :   0.9539 B(  9-C , 11-H ) :   0.9617
B(  9-C , 12-C ) :   1.0844 B( 12-C , 13-H ) :   0.9722 B( 12-C , 14-H ) :   0.9729
B( 12-C , 15-H ) :   0.9755 B( 16-S , 17-C ) :   1.1485 B( 16-S , 20-C ) :   1.1332
B( 17-C , 18-C ) :   1.6289 B( 17-C , 33-H ) :   0.9626 B( 18-C , 19-C ) :   1.2228
B( 18-C , 21-H ) :   0.9841 B( 19-C , 20-C ) :   1.6522 B( 19-C , 22-C ) :   1.0539
B( 22-C , 23-H ) :   0.9326 B( 22-C , 24-H ) :   0.9371 B( 22-C , 25-C ) :   1.0539
B( 25-C , 26-H ) :   0.9601 B( 25-C , 27-H ) :   0.9540 B( 25-C , 28-C ) :   1.0867
B( 28-C , 29-H ) :   0.9712 B( 28-C , 30-H ) :   0.9744 B( 28-C , 31-H ) :   0.9710

Dispersion correction           -0.014128370
FINAL SINGLE POINT ENERGY     -1339.874618232978

DIPOLE MOMENT
-------------
                                X             Y             Z
Electronic contribution:    -23.87542      15.71186     -12.21827
Nuclear contribution   :     24.50550     -16.12438      12.18396
                        -----------------------------------------
Total Dipole Moment    :      0.63008      -0.41252      -0.03431
                        -----------------------------------------
Magnitude (a.u.)       :      0.75389
Magnitude (Debye)      :      1.91624

Rotational constants in cm-1:     0.018685     0.008694     0.006650
Rotational constants in MHz :   560.174461   260.646230   199.369238

                             ****ORCA TERMINATED NORMALLY****
TOTAL RUN TIME: 0 days 0 hours 0 minutes 21 seconds 737 msec
