                         Program Version 4.2.1 -  RELEASE  -
|  1> ! wB97X-D3 SP def2-SVP
|  2> %pal
|  3> nprocs 24
|  4> end
|  5>
|  6> * xyz 0 1
|  7> S 	 -101.007 	 2.43444 	 -123.4
|  8> C 	 -101.979 	 2.68475 	 -121.966
|  9> C 	 -101.532 	 1.89892 	 -120.924
| 10> C 	 -100.498 	 1.04166 	 -121.429
| 11> C 	 -100.141 	 1.15899 	 -122.759
| 12> H 	 -100.01 	 0.219688 	 -120.898
| 13> C 	 -102.071 	 1.88644 	 -119.495
| 14> H 	 -101.792 	 2.83644 	 -119.123
| 15> H 	 -101.509 	 1.0555 	 -119.094
| 16> C 	 -103.609 	 1.69367 	 -119.508
| 17> H 	 -104.175 	 2.4825 	 -120.023
| 18> H 	 -103.801 	 0.72442 	 -120.056
| 19> C 	 -104.266 	 1.47294 	 -118.068
| 20> H 	 -103.671 	 0.720328 	 -117.49
| 21> H 	 -104.345 	 2.41963 	 -117.523
| 22> H 	 -105.33 	 1.09839 	 -118.193
| 23> S 	 -99.737 	 0.0118187 	 -125.289
| 24> C 	 -98.2842 	 -0.91507 	 -125.497
| 25> C 	 -97.3571 	 -0.758569 	 -124.465
| 26> C 	 -97.9038 	 0.0178607 	 -123.394
| 27> C 	 -99.2784 	 0.28288 	 -123.578
| 28> H 	 -96.3097 	 -1.17296 	 -124.611
| 29> C 	 -96.9997 	 0.526406 	 -122.214
| 30> H 	 -95.9544 	 0.295075 	 -122.491
| 31> H 	 -97.2832 	 0.0130886 	 -121.291
| 32> C 	 -97.049 	 1.99789 	 -121.827
| 33> H 	 -96.5798 	 2.17876 	 -120.86
| 34> H 	 -98.0959 	 2.22917 	 -121.792
| 35> C 	 -96.4718 	 2.98602 	 -122.869
| 36> H 	 -95.4085 	 2.82463 	 -123.092
| 37> H 	 -96.4915 	 4.08639 	 -122.624
| 38> H 	 -96.9684 	 2.85234 	 -123.784
| 39> H 	 -102.871 	 3.26584 	 -121.87
| 40> H 	 -97.9632 	 -1.49731 	 -126.413
| 41> *
| 42>
| 43>                          ****END OF INPUT****

CARTESIAN COORDINATES (ANGSTROEM)
---------------------------------
  S    -101.007000    2.434440  -123.400000
  C    -101.979000    2.684750  -121.966000
  C    -101.532000    1.898920  -120.924000
  C    -100.498000    1.041660  -121.429000
  C    -100.141000    1.158990  -122.759000
  H    -100.010000    0.219688  -120.898000
  C    -102.071000    1.886440  -119.495000
  H    -101.792000    2.836440  -119.123000
  H    -101.509000    1.055500  -119.094000
  C    -103.609000    1.693670  -119.508000
  H    -104.175000    2.482500  -120.023000
  H    -103.801000    0.724420  -120.056000
  C    -104.266000    1.472940  -118.068000
  H    -103.671000    0.720328  -117.490000
  H    -104.345000    2.419630  -117.523000
  H    -105.330000    1.098390  -118.193000
  S    -99.737000    0.011819  -125.289000
  C    -98.284200   -0.915070  -125.497000
  C    -97.357100   -0.758569  -124.465000
  C    -97.903800    0.017861  -123.394000
  C    -99.278400    0.282880  -123.578000
  H    -96.309700   -1.172960  -124.611000
  C    -96.999700    0.526406  -122.214000
  H    -95.954400    0.295075  -122.491000
  H    -97.283200    0.013089  -121.291000
  C    -97.049000    1.997890  -121.827000
  H    -96.579800    2.178760  -120.860000
  H    -98.095900    2.229170  -121.792000
  C    -96.471800    2.986020  -122.869000
  H    -95.408500    2.824630  -123.092000
  H    -96.491500    4.086390  -122.624000
  H    -96.968400    2.852340  -123.784000
  H    -102.871000    3.265840  -121.870000
  H    -97.963200   -1.497310  -126.413000

 Total Charge           Charge          ....    0
 Multiplicity           Mult            ....    1
 Number of Electrons    NEL             ....  134
 Basis Dimension        Dim             ....  322

ORBITAL ENERGIES
----------------

  NO   OCC          E(Eh)            E(eV)
   0   2.0000     -88.973763     -2421.0992
   1   2.0000     -88.963891     -2420.8306
   2   2.0000     -10.335002      -281.2297
   3   2.0000     -10.325586      -280.9735
   4   2.0000     -10.323461      -280.9157
   5   2.0000     -10.315607      -280.7019
   6   2.0000     -10.307687      -280.4864
   7   2.0000     -10.303393      -280.3696
   8   2.0000     -10.300479      -280.2903
   9   2.0000     -10.300177      -280.2821
  10   2.0000     -10.297847      -280.2187
  11   2.0000     -10.295250      -280.1480
  12   2.0000     -10.290796      -280.0268
  13   2.0000     -10.289927      -280.0031
  14   2.0000     -10.278159      -279.6829
  15   2.0000     -10.269504      -279.4474
  16   2.0000      -8.087728      -220.0783
  17   2.0000      -8.079929      -219.8660
  18   2.0000      -6.046217      -164.5259
  19   2.0000      -6.042614      -164.4279
  20   2.0000      -6.038377      -164.3126
  21   2.0000      -6.038260      -164.3094
  22   2.0000      -6.034051      -164.1949
  23   2.0000      -6.030863      -164.1081
  24   2.0000      -1.012056       -27.5394
  25   2.0000      -0.985936       -26.8287
  26   2.0000      -0.911698       -24.8086
  27   2.0000      -0.904001       -24.5991
  28   2.0000      -0.863096       -23.4860
  29   2.0000      -0.846825       -23.0433
  30   2.0000      -0.840645       -22.8751
  31   2.0000      -0.809817       -22.0362
  32   2.0000      -0.784443       -21.3458
  33   2.0000      -0.774448       -21.0738
  34   2.0000      -0.709014       -19.2932
  35   2.0000      -0.700458       -19.0604
  36   2.0000      -0.680732       -18.5236
  37   2.0000      -0.655376       -17.8337
  38   2.0000      -0.637506       -17.3474
  39   2.0000      -0.614736       -16.7278
  40   2.0000      -0.588547       -16.0152
  41   2.0000      -0.569824       -15.5057
  42   2.0000      -0.564397       -15.3580
  43   2.0000      -0.548716       -14.9313
  44   2.0000      -0.546248       -14.8642
  45   2.0000      -0.517740       -14.0884
  46   2.0000      -0.513571       -13.9750
  47   2.0000      -0.507373       -13.8063
  48   2.0000      -0.505664       -13.7598
  49   2.0000      -0.498595       -13.5675
  50   2.0000      -0.481734       -13.1087
  51   2.0000      -0.477451       -12.9921
  52   2.0000      -0.470350       -12.7989
  53   2.0000      -0.465780       -12.6745
  54   2.0000      -0.460243       -12.5239
  55   2.0000      -0.449951       -12.2438
  56   2.0000      -0.441082       -12.0025
  57   2.0000      -0.439153       -11.9500
  58   2.0000      -0.431976       -11.7547
  59   2.0000      -0.424642       -11.5551
  60   2.0000      -0.421187       -11.4611
  61   2.0000      -0.414276       -11.2730
  62   2.0000      -0.408979       -11.1289
  63   2.0000      -0.345720        -9.4075
  64   2.0000      -0.334649        -9.1063
  65   2.0000      -0.329543        -8.9673
  66   2.0000      -0.288978        -7.8635
  67   0.0000       0.021177         0.5762
  68   0.0000       0.067809         1.8452
  69   0.0000       0.101661         2.7663
  70   0.0000       0.129890         3.5345
  71   0.0000       0.137515         3.7420

MULLIKEN ATOMIC CHARGES
-----------------------
   0 S :    0.112998
   1 C :   -0.131681
   2 C :   -0.108232
   3 C :   -0.007910
   4 C :   -0.174191
   5 H :    0.003925
   6 C :    0.158913
   7 H :    0.036054
   8 H :    0.022854
   9 C :   -0.144469
  10 H :    0.042628
  11 H :    0.048149
  12 C :   -0.078450
  13 H :    0.042563
  14 H :    0.039133
  15 H :    0.047001
  16 S :    0.116857
  17 C :   -0.109442
  18 C :   -0.058050
  19 C :   -0.054571
  20 C :   -0.129453
  21 H :    0.049658
  22 C :    0.068683
  23 H :    0.021819
  24 H :    0.043004
  25 C :   -0.059569
  26 H :    0.030170
  27 H :    0.046143
  28 C :   -0.066292
  29 H :    0.015926
  30 H :    0.040859
  31 H :    0.023580
  32 H :    0.035059
  33 H :    0.076336
Sum of atomic charges:    0.0000000

LOEWDIN ATOMIC CHARGES
----------------------
   0 S :    0.435877
   1 C :   -0.203590
   2 C :   -0.057953
   3 C :   -0.083090
   4 C :   -0.226354
   5 H :    0.026261
   6 C :   -0.020174
   7 H :    0.030716
   8 H :    0.033151
   9 C :   -0.043413
  10 H :    0.023996
  11 H :    0.033751
  12 C :   -0.076175
  13 H :    0.028277
  14 H :    0.022529
  15 H :    0.033356
  16 S :    0.402919
  17 C :   -0.196139
  18 C :   -0.084780
  19 C :   -0.044912
  20 C :   -0.193177
  21 H :    0.046636
  22 C :   -0.026634
  23 H :    0.029198
  24 H :    0.036472
  25 C :   -0.041841
  26 H :    0.025558
  27 H :    0.025797
  28 C :   -0.071557
  29 H :    0.018986
  30 H :    0.032792
  31 H :    0.017304
  32 H :    0.022569
  33 H :    0.043643

  Mayer bond orders larger than 0.100000
B(  0-S ,  1-C ) :   1.1462 B(  0-S ,  4-C ) :   1.1693 B(  1-C ,  2-C ) :   1.5841
B(  1-C , 32-H ) :   0.9745 B(  2-C ,  3-C ) :   1.2707 B(  2-C ,  6-C ) :   0.9936
B(  3-C ,  4-C ) :   1.5619 B(  3-C ,  5-H ) :   0.9917 B(  4-C , 20-C ) :   1.0440
B(  6-C ,  7-H ) :   0.9312 B(  6-C ,  8-H ) :   0.9408 B(  6-C ,  9-C ) :   1.0634
B(  9-C , 10-H ) :   0.9571 B(  9-C , 11-H ) :   0.9619 B(  9-C , 12-C ) :   1.0748
B( 12-C , 13-H ) :   0.9765 B( 12-C , 14-H ) :   0.9773 B( 12-C , 15-H ) :   0.9767
B( 16-S , 17-C ) :   1.1666 B( 16-S , 20-C ) :   1.1249 B( 17-C , 18-C ) :   1.6129
B( 17-C , 33-H ) :   0.9554 B( 18-C , 19-C ) :   1.2572 B( 18-C , 21-H ) :   0.9779
B( 19-C , 20-C ) :   1.5685 B( 19-C , 22-C ) :   1.0145 B( 22-C , 23-H ) :   0.9467
B( 22-C , 24-H ) :   0.9353 B( 22-C , 25-C ) :   1.0687 B( 25-C , 26-H ) :   0.9538
B( 25-C , 27-H ) :   0.9516 B( 25-C , 28-C ) :   1.0725 B( 28-C , 29-H ) :   0.9750
B( 28-C , 30-H ) :   0.9767 B( 28-C , 31-H ) :   0.9767

Dispersion correction           -0.014772421
FINAL SINGLE POINT ENERGY     -1339.863724405009

DIPOLE MOMENT
-------------
                                X             Y             Z
Electronic contribution:     -0.64130      -5.01368     -22.67998
Nuclear contribution   :      0.81277       4.94505      23.09099
                        -----------------------------------------
Total Dipole Moment    :      0.17147      -0.06862       0.41101
                        -----------------------------------------
Magnitude (a.u.)       :      0.45060
Magnitude (Debye)      :      1.14532

Rotational constants in cm-1:     0.022889     0.007526     0.006739
Rotational constants in MHz :   686.201408   225.625993   202.021672

                             ****ORCA TERMINATED NORMALLY****
TOTAL RUN TIME: 0 days 0 hours 0 minutes 21 seconds 655 msec
