                         Program Version 4.2.1 -  RELEASE  -
|  1> ! wB97X-D3 SP def2-SVP
|  2> %pal
|  3> nprocs 24
|  4> end
|  5>
|  6> * xyz 0 1
|  7> S 	 -49.4589 	 13.8898 	 -108.658
|  8> C 	 -50.7705 	 12.8203 	 -109.119
|  9> C 	 -51.3281 	 12.2019 	 -108.008
| 10> C 	 -50.6279 	 12.4009 	 -106.844
| 11> C 	 -49.6618 	 13.4 	 -106.958
| 12> H 	 -50.877 	 12.0171 	 -105.887
| 13> C 	 -52.4828 	 11.2652 	 -108.044
| 14> H 	 -53.0052 	 11.3968 	 -108.993
| 15> H 	 -53.1434 	 11.5002 	 -107.252
| 16> C 	 -52.1571 	 9.80372 	 -107.804
| 17> H 	 -51.7391 	 9.71655 	 -106.76
| 18> H 	 -53.1599 	 9.32683 	 -107.849
| 19> C 	 -51.0556 	 9.19405 	 -108.744
| 20> H 	 -51.0218 	 8.09851 	 -108.699
| 21> H 	 -51.3775 	 9.61138 	 -109.734
| 22> H 	 -50.0886 	 9.53745 	 -108.511
| 23> S 	 -47.507 	 13.3314 	 -105.378
| 24> C 	 -47.2774 	 14.6639 	 -104.241
| 25> C 	 -48.3415 	 15.4989 	 -104.215
| 26> C 	 -49.2898 	 15.2183 	 -105.241
| 27> C 	 -48.9283 	 14.0821 	 -105.974
| 28> H 	 -48.4681 	 16.3738 	 -103.516
| 29> C 	 -50.4906 	 16.0834 	 -105.627
| 30> H 	 -50.9094 	 15.8737 	 -106.606
| 31> H 	 -49.9716 	 16.9843 	 -105.737
| 32> C 	 -51.6307 	 16.2703 	 -104.636
| 33> H 	 -52.2659 	 16.9976 	 -105.084
| 34> H 	 -51.1988 	 16.6872 	 -103.686
| 35> C 	 -52.327 	 14.8572 	 -104.341
| 36> H 	 -53.384 	 15.009 	 -103.94
| 37> H 	 -51.7156 	 14.2607 	 -103.536
| 38> H 	 -52.4306 	 14.2428 	 -105.255
| 39> H 	 -50.9809 	 12.4064 	 -110.157
| 40> H 	 -46.4208 	 14.8054 	 -103.628
| 41> *
| 42>
| 43>                          ****END OF INPUT****

CARTESIAN COORDINATES (ANGSTROEM)
---------------------------------
  S    -49.458900   13.889800  -108.658000
  C    -50.770500   12.820300  -109.119000
  C    -51.328100   12.201900  -108.008000
  C    -50.627900   12.400900  -106.844000
  C    -49.661800   13.400000  -106.958000
  H    -50.877000   12.017100  -105.887000
  C    -52.482800   11.265200  -108.044000
  H    -53.005200   11.396800  -108.993000
  H    -53.143400   11.500200  -107.252000
  C    -52.157100    9.803720  -107.804000
  H    -51.739100    9.716550  -106.760000
  H    -53.159900    9.326830  -107.849000
  C    -51.055600    9.194050  -108.744000
  H    -51.021800    8.098510  -108.699000
  H    -51.377500    9.611380  -109.734000
  H    -50.088600    9.537450  -108.511000
  S    -47.507000   13.331400  -105.378000
  C    -47.277400   14.663900  -104.241000
  C    -48.341500   15.498900  -104.215000
  C    -49.289800   15.218300  -105.241000
  C    -48.928300   14.082100  -105.974000
  H    -48.468100   16.373800  -103.516000
  C    -50.490600   16.083400  -105.627000
  H    -50.909400   15.873700  -106.606000
  H    -49.971600   16.984300  -105.737000
  C    -51.630700   16.270300  -104.636000
  H    -52.265900   16.997600  -105.084000
  H    -51.198800   16.687200  -103.686000
  C    -52.327000   14.857200  -104.341000
  H    -53.384000   15.009000  -103.940000
  H    -51.715600   14.260700  -103.536000
  H    -52.430600   14.242800  -105.255000
  H    -50.980900   12.406400  -110.157000
  H    -46.420800   14.805400  -103.628000

 Total Charge           Charge          ....    0
 Multiplicity           Mult            ....    1
 Number of Electrons    NEL             ....  134
 Basis Dimension        Dim             ....  322

ORBITAL ENERGIES
----------------

  NO   OCC          E(Eh)            E(eV)
   0   2.0000     -88.966590     -2420.9040
   1   2.0000     -88.964590     -2420.8496
   2   2.0000     -10.325583      -280.9734
   3   2.0000     -10.315328      -280.6943
   4   2.0000     -10.314529      -280.6726
   5   2.0000     -10.314442      -280.6702
   6   2.0000     -10.302412      -280.3429
   7   2.0000     -10.296970      -280.1948
   8   2.0000     -10.293380      -280.0971
   9   2.0000     -10.291899      -280.0568
  10   2.0000     -10.291833      -280.0550
  11   2.0000     -10.291763      -280.0531
  12   2.0000     -10.288799      -279.9725
  13   2.0000     -10.283462      -279.8272
  14   2.0000     -10.282828      -279.8100
  15   2.0000     -10.278799      -279.7003
  16   2.0000      -8.080465      -219.8806
  17   2.0000      -8.079850      -219.8639
  18   2.0000      -6.038877      -164.3262
  19   2.0000      -6.038242      -164.3089
  20   2.0000      -6.035005      -164.2208
  21   2.0000      -6.034372      -164.2036
  22   2.0000      -6.031469      -164.1246
  23   2.0000      -6.030607      -164.1011
  24   2.0000      -1.010781       -27.5048
  25   2.0000      -0.986227       -26.8366
  26   2.0000      -0.915739       -24.9185
  27   2.0000      -0.905650       -24.6440
  28   2.0000      -0.872560       -23.7436
  29   2.0000      -0.847563       -23.0634
  30   2.0000      -0.840272       -22.8649
  31   2.0000      -0.811843       -22.0914
  32   2.0000      -0.784762       -21.3545
  33   2.0000      -0.769640       -20.9430
  34   2.0000      -0.712572       -19.3901
  35   2.0000      -0.695616       -18.9287
  36   2.0000      -0.687799       -18.7160
  37   2.0000      -0.658018       -17.9056
  38   2.0000      -0.636571       -17.3220
  39   2.0000      -0.622919       -16.9505
  40   2.0000      -0.598862       -16.2959
  41   2.0000      -0.565691       -15.3932
  42   2.0000      -0.554463       -15.0877
  43   2.0000      -0.548606       -14.9283
  44   2.0000      -0.541590       -14.7374
  45   2.0000      -0.537463       -14.6251
  46   2.0000      -0.515607       -14.0304
  47   2.0000      -0.511498       -13.9186
  48   2.0000      -0.501908       -13.6576
  49   2.0000      -0.491632       -13.3780
  50   2.0000      -0.483132       -13.1467
  51   2.0000      -0.475534       -12.9399
  52   2.0000      -0.472036       -12.8447
  53   2.0000      -0.466429       -12.6922
  54   2.0000      -0.459537       -12.5046
  55   2.0000      -0.448062       -12.1924
  56   2.0000      -0.446786       -12.1577
  57   2.0000      -0.436749       -11.8845
  58   2.0000      -0.429019       -11.6742
  59   2.0000      -0.423588       -11.5264
  60   2.0000      -0.420831       -11.4514
  61   2.0000      -0.415888       -11.3169
  62   2.0000      -0.408824       -11.1247
  63   2.0000      -0.339707        -9.2439
  64   2.0000      -0.335876        -9.1396
  65   2.0000      -0.315868        -8.5952
  66   2.0000      -0.299579        -8.1520
  67   0.0000       0.042361         1.1527
  68   0.0000       0.050479         1.3736
  69   0.0000       0.114537         3.1167
  70   0.0000       0.118534         3.2255
  71   0.0000       0.128523         3.4973

MULLIKEN ATOMIC CHARGES
-----------------------
   0 S :    0.115808
   1 C :   -0.139989
   2 C :   -0.112501
   3 C :    0.081903
   4 C :   -0.207925
   5 H :   -0.000064
   6 C :    0.095797
   7 H :    0.016836
   8 H :    0.018192
   9 C :   -0.120588
  10 H :    0.031768
  11 H :    0.042680
  12 C :   -0.034238
  13 H :    0.043976
  14 H :    0.023394
  15 H :    0.036593
  16 S :    0.120433
  17 C :   -0.077281
  18 C :   -0.045848
  19 C :   -0.011191
  20 C :   -0.193779
  21 H :    0.036669
  22 C :    0.074708
  23 H :    0.028991
  24 H :    0.014853
  25 C :   -0.049658
  26 H :    0.031653
  27 H :    0.032051
  28 C :   -0.121214
  29 H :    0.045448
  30 H :    0.060047
  31 H :    0.045758
  32 H :    0.072080
  33 H :    0.044640
Sum of atomic charges:    0.0000000

LOEWDIN ATOMIC CHARGES
----------------------
   0 S :    0.401269
   1 C :   -0.217410
   2 C :   -0.071344
   3 C :   -0.050889
   4 C :   -0.182449
   5 H :    0.027691
   6 C :   -0.033747
   7 H :    0.027329
   8 H :    0.030407
   9 C :   -0.042668
  10 H :    0.023323
  11 H :    0.028952
  12 C :   -0.062980
  13 H :    0.029355
  14 H :    0.026280
  15 H :    0.020835
  16 S :    0.417898
  17 C :   -0.174370
  18 C :   -0.076566
  19 C :   -0.045863
  20 C :   -0.231475
  21 H :    0.041665
  22 C :   -0.031518
  23 H :    0.029316
  24 H :    0.027103
  25 C :   -0.035463
  26 H :    0.021992
  27 H :    0.025862
  28 C :   -0.083289
  29 H :    0.030002
  30 H :    0.039552
  31 H :    0.024287
  32 H :    0.042887
  33 H :    0.024025

  Mayer bond orders larger than 0.100000
B(  0-S ,  1-C ) :   1.1416 B(  0-S ,  4-C ) :   1.1611 B(  1-C ,  2-C ) :   1.5865
B(  1-C ,  4-C ) :   0.1171 B(  1-C , 32-H ) :   0.9529 B(  2-C ,  3-C ) :   1.2651
B(  2-C ,  6-C ) :   1.0395 B(  3-C ,  4-C ) :   1.5569 B(  3-C ,  5-H ) :   0.9988
B(  4-C , 20-C ) :   1.0239 B(  6-C ,  7-H ) :   0.9345 B(  6-C ,  8-H ) :   0.9278
B(  6-C ,  9-C ) :   1.0814 B(  9-C , 10-H ) :   0.9528 B(  9-C , 11-H ) :   0.9581
B(  9-C , 12-C ) :   1.0587 B( 12-C , 13-H ) :   0.9761 B( 12-C , 14-H ) :   0.9795
B( 12-C , 15-H ) :   0.9729 B( 16-S , 17-C ) :   1.1464 B( 16-S , 20-C ) :   1.1537
B( 17-C , 18-C ) :   1.6164 B( 17-C , 33-H ) :   0.9724 B( 18-C , 19-C ) :   1.2543
B( 18-C , 21-H ) :   0.9769 B( 19-C , 20-C ) :   1.5822 B( 19-C , 22-C ) :   1.0162
B( 22-C , 23-H ) :   0.9357 B( 22-C , 24-H ) :   0.9283 B( 22-C , 25-C ) :   1.0872
B( 25-C , 26-H ) :   0.9564 B( 25-C , 27-H ) :   0.9579 B( 25-C , 28-C ) :   1.0502
B( 28-C , 29-H ) :   0.9757 B( 28-C , 30-H ) :   0.9735 B( 28-C , 31-H ) :   0.9759

Dispersion correction           -0.016184247
FINAL SINGLE POINT ENERGY     -1339.866672567361

DIPOLE MOMENT
-------------
                                X             Y             Z
Electronic contribution:     20.36197       6.62664      -2.90526
Nuclear contribution   :    -20.77120      -6.57997       3.17912
                        -----------------------------------------
Total Dipole Moment    :     -0.40923       0.04667       0.27386
                        -----------------------------------------
Magnitude (a.u.)       :      0.49462
Magnitude (Debye)      :      1.25721

Rotational constants in cm-1:     0.020284     0.009062     0.007928
Rotational constants in MHz :   608.093487   271.665663   237.688321

                             ****ORCA TERMINATED NORMALLY****
TOTAL RUN TIME: 0 days 0 hours 0 minutes 21 seconds 564 msec
