                         Program Version 4.2.1 -  RELEASE  -
|  1> ! wB97X-D3 SP def2-SVP
|  2> %pal
|  3> nprocs 24
|  4> end
|  5>
|  6> * xyz 0 1
|  7> S 	 -78.6906 	 -15.8759 	 -52.3226
|  8> C 	 -80.041 	 -16.9788 	 -52.3607
|  9> C 	 -81.1363 	 -16.3263 	 -51.8068
| 10> C 	 -80.8386 	 -15.0005 	 -51.395
| 11> C 	 -79.5907 	 -14.5408 	 -51.581
| 12> H 	 -81.4734 	 -14.2564 	 -50.9654
| 13> C 	 -82.4721 	 -17.0336 	 -51.3786
| 14> H 	 -82.7612 	 -16.4379 	 -50.5083
| 15> H 	 -82.1915 	 -18.0315 	 -51.041
| 16> C 	 -83.6539 	 -17.0264 	 -52.2554
| 17> H 	 -84.4471 	 -17.4732 	 -51.6474
| 18> H 	 -83.8277 	 -16.0005 	 -52.5341
| 19> C 	 -83.6096 	 -17.8751 	 -53.5166
| 20> H 	 -84.5678 	 -17.9499 	 -53.9577
| 21> H 	 -82.7609 	 -17.5016 	 -54.1035
| 22> H 	 -83.2418 	 -18.9693 	 -53.3258
| 23> S 	 -78.5652 	 -12.3959 	 -52.9542
| 24> C 	 -77.9197 	 -11.1059 	 -52.0527
| 25> C 	 -78.5109 	 -11.0125 	 -50.823
| 26> C 	 -79.1854 	 -12.2231 	 -50.4483
| 27> C 	 -79.1085 	 -13.1855 	 -51.4703
| 28> H 	 -78.3494 	 -10.1483 	 -50.2119
| 29> C 	 -79.804 	 -12.4419 	 -49.0262
| 30> H 	 -80.8482 	 -12.7466 	 -49.2168
| 31> H 	 -79.7048 	 -11.4221 	 -48.6888
| 32> C 	 -79.0904 	 -13.3894 	 -48.043
| 33> H 	 -78.0732 	 -13.0977 	 -47.8261
| 34> H 	 -79.0796 	 -14.3056 	 -48.6129
| 35> C 	 -79.8345 	 -13.5004 	 -46.6889
| 36> H 	 -79.3841 	 -14.3639 	 -46.2088
| 37> H 	 -80.8674 	 -13.7304 	 -46.8528
| 38> H 	 -79.7735 	 -12.5435 	 -46.1367
| 39> H 	 -80.0956 	 -17.9931 	 -52.7908
| 40> H 	 -77.2437 	 -10.4297 	 -52.4446
| 41> *
| 42>
| 43>                          ****END OF INPUT****

CARTESIAN COORDINATES (ANGSTROEM)
---------------------------------
  S    -78.690600  -15.875900  -52.322600
  C    -80.041000  -16.978800  -52.360700
  C    -81.136300  -16.326300  -51.806800
  C    -80.838600  -15.000500  -51.395000
  C    -79.590700  -14.540800  -51.581000
  H    -81.473400  -14.256400  -50.965400
  C    -82.472100  -17.033600  -51.378600
  H    -82.761200  -16.437900  -50.508300
  H    -82.191500  -18.031500  -51.041000
  C    -83.653900  -17.026400  -52.255400
  H    -84.447100  -17.473200  -51.647400
  H    -83.827700  -16.000500  -52.534100
  C    -83.609600  -17.875100  -53.516600
  H    -84.567800  -17.949900  -53.957700
  H    -82.760900  -17.501600  -54.103500
  H    -83.241800  -18.969300  -53.325800
  S    -78.565200  -12.395900  -52.954200
  C    -77.919700  -11.105900  -52.052700
  C    -78.510900  -11.012500  -50.823000
  C    -79.185400  -12.223100  -50.448300
  C    -79.108500  -13.185500  -51.470300
  H    -78.349400  -10.148300  -50.211900
  C    -79.804000  -12.441900  -49.026200
  H    -80.848200  -12.746600  -49.216800
  H    -79.704800  -11.422100  -48.688800
  C    -79.090400  -13.389400  -48.043000
  H    -78.073200  -13.097700  -47.826100
  H    -79.079600  -14.305600  -48.612900
  C    -79.834500  -13.500400  -46.688900
  H    -79.384100  -14.363900  -46.208800
  H    -80.867400  -13.730400  -46.852800
  H    -79.773500  -12.543500  -46.136700
  H    -80.095600  -17.993100  -52.790800
  H    -77.243700  -10.429700  -52.444600

 Total Charge           Charge          ....    0
 Multiplicity           Mult            ....    1
 Number of Electrons    NEL             ....  134
 Basis Dimension        Dim             ....  322

ORBITAL ENERGIES
----------------

  NO   OCC          E(Eh)            E(eV)
   0   2.0000     -88.963114     -2420.8094
   1   2.0000     -88.961564     -2420.7672
   2   2.0000     -10.325968      -280.9839
   3   2.0000     -10.325531      -280.9720
   4   2.0000     -10.320797      -280.8432
   5   2.0000     -10.308935      -280.5204
   6   2.0000     -10.307387      -280.4783
   7   2.0000     -10.303364      -280.3688
   8   2.0000     -10.295495      -280.1547
   9   2.0000     -10.291952      -280.0583
  10   2.0000     -10.291412      -280.0436
  11   2.0000     -10.288604      -279.9672
  12   2.0000     -10.283468      -279.8274
  13   2.0000     -10.280697      -279.7520
  14   2.0000     -10.280130      -279.7366
  15   2.0000     -10.278428      -279.6903
  16   2.0000      -8.077610      -219.8029
  17   2.0000      -8.077374      -219.7965
  18   2.0000      -6.036155      -164.2521
  19   2.0000      -6.035725      -164.2404
  20   2.0000      -6.031981      -164.1386
  21   2.0000      -6.031968      -164.1382
  22   2.0000      -6.028469      -164.0430
  23   2.0000      -6.027977      -164.0296
  24   2.0000      -1.010140       -27.4873
  25   2.0000      -0.988726       -26.9046
  26   2.0000      -0.916761       -24.9463
  27   2.0000      -0.905903       -24.6509
  28   2.0000      -0.875256       -23.8169
  29   2.0000      -0.851372       -23.1670
  30   2.0000      -0.843770       -22.9602
  31   2.0000      -0.816424       -22.2160
  32   2.0000      -0.784548       -21.3486
  33   2.0000      -0.775238       -21.0953
  34   2.0000      -0.710348       -19.3295
  35   2.0000      -0.693561       -18.8728
  36   2.0000      -0.691205       -18.8086
  37   2.0000      -0.663114       -18.0443
  38   2.0000      -0.645313       -17.5599
  39   2.0000      -0.619028       -16.8446
  40   2.0000      -0.594198       -16.1690
  41   2.0000      -0.576868       -15.6974
  42   2.0000      -0.569932       -15.5086
  43   2.0000      -0.554490       -15.0884
  44   2.0000      -0.543779       -14.7970
  45   2.0000      -0.526666       -14.3313
  46   2.0000      -0.525340       -14.2952
  47   2.0000      -0.511532       -13.9195
  48   2.0000      -0.508576       -13.8391
  49   2.0000      -0.499381       -13.5888
  50   2.0000      -0.492007       -13.3882
  51   2.0000      -0.484557       -13.1855
  52   2.0000      -0.476869       -12.9763
  53   2.0000      -0.469562       -12.7774
  54   2.0000      -0.458910       -12.4876
  55   2.0000      -0.446819       -12.1586
  56   2.0000      -0.442658       -12.0453
  57   2.0000      -0.439132       -11.9494
  58   2.0000      -0.428609       -11.6630
  59   2.0000      -0.423464       -11.5231
  60   2.0000      -0.419881       -11.4256
  61   2.0000      -0.410879       -11.1806
  62   2.0000      -0.398370       -10.8402
  63   2.0000      -0.345859        -9.4113
  64   2.0000      -0.330582        -8.9956
  65   2.0000      -0.323608        -8.8058
  66   2.0000      -0.296699        -8.0736
  67   0.0000       0.022649         0.6163
  68   0.0000       0.068622         1.8673
  69   0.0000       0.102981         2.8023
  70   0.0000       0.116003         3.1566
  71   0.0000       0.141915         3.8617

MULLIKEN ATOMIC CHARGES
-----------------------
   0 S :    0.102759
   1 C :   -0.127109
   2 C :   -0.089149
   3 C :    0.040845
   4 C :   -0.170134
   5 H :   -0.006448
   6 C :    0.052057
   7 H :    0.023376
   8 H :    0.023263
   9 C :   -0.031910
  10 H :    0.029991
  11 H :    0.025683
  12 C :   -0.070992
  13 H :    0.043218
  14 H :    0.035994
  15 H :    0.020504
  16 S :    0.113788
  17 C :   -0.058104
  18 C :   -0.036848
  19 C :   -0.044251
  20 C :   -0.167938
  21 H :    0.013424
  22 C :    0.065248
  23 H :    0.035006
  24 H :    0.008584
  25 C :   -0.062811
  26 H :    0.028896
  27 H :    0.034099
  28 C :   -0.031309
  29 H :    0.040720
  30 H :    0.019303
  31 H :    0.042815
  32 H :    0.067498
  33 H :    0.029933
Sum of atomic charges:   -0.0000000

LOEWDIN ATOMIC CHARGES
----------------------
   0 S :    0.399120
   1 C :   -0.198354
   2 C :   -0.073667
   3 C :   -0.064904
   4 C :   -0.198851
   5 H :    0.026743
   6 C :   -0.027502
   7 H :    0.035271
   8 H :    0.027855
   9 C :   -0.045407
  10 H :    0.028920
  11 H :    0.025657
  12 C :   -0.071220
  13 H :    0.022198
  14 H :    0.026308
  15 H :    0.028319
  16 S :    0.417862
  17 C :   -0.178185
  18 C :   -0.074029
  19 C :   -0.049664
  20 C :   -0.198641
  21 H :    0.028725
  22 C :   -0.029899
  23 H :    0.030921
  24 H :    0.024821
  25 C :   -0.035664
  26 H :    0.024207
  27 H :    0.024376
  28 C :   -0.060561
  29 H :    0.030655
  30 H :    0.019152
  31 H :    0.030156
  32 H :    0.041229
  33 H :    0.014053

  Mayer bond orders larger than 0.100000
B(  0-S ,  1-C ) :   1.1533 B(  0-S ,  4-C ) :   1.1285 B(  1-C ,  2-C ) :   1.5890
B(  1-C , 32-H ) :   0.9677 B(  2-C ,  3-C ) :   1.2481 B(  2-C ,  6-C ) :   0.9920
B(  3-C ,  4-C ) :   1.5966 B(  3-C ,  5-H ) :   0.9921 B(  4-C , 20-C ) :   1.0633
B(  6-C ,  7-H ) :   0.9413 B(  6-C ,  8-H ) :   0.9458 B(  6-C ,  9-C ) :   1.0922
B(  9-C , 10-H ) :   0.9484 B(  9-C , 11-H ) :   0.9475 B(  9-C , 12-C ) :   1.0850
B( 12-C , 13-H ) :   0.9745 B( 12-C , 14-H ) :   0.9732 B( 12-C , 15-H ) :   0.9723
B( 16-S , 17-C ) :   1.1681 B( 16-S , 20-C ) :   1.1504 B( 17-C , 18-C ) :   1.5910
B( 17-C , 20-C ) :   0.1009 B( 17-C , 33-H ) :   0.9789 B( 18-C , 19-C ) :   1.2511
B( 18-C , 21-H ) :   0.9940 B( 19-C , 20-C ) :   1.5666 B( 19-C , 22-C ) :   1.0232
B( 22-C , 23-H ) :   0.9315 B( 22-C , 24-H ) :   0.9330 B( 22-C , 25-C ) :   1.0715
B( 25-C , 26-H ) :   0.9548 B( 25-C , 27-H ) :   0.9560 B( 25-C , 28-C ) :   1.0810
B( 28-C , 29-H ) :   0.9739 B( 28-C , 30-H ) :   0.9747 B( 28-C , 31-H ) :   0.9760

Dispersion correction           -0.014037152
FINAL SINGLE POINT ENERGY     -1339.852947456386

DIPOLE MOMENT
-------------
                                X             Y             Z
Electronic contribution:     17.96207       8.32511     -15.28697
Nuclear contribution   :    -18.39026      -8.25950      15.73479
                        -----------------------------------------
Total Dipole Moment    :     -0.42819       0.06562       0.44781
                        -----------------------------------------
Magnitude (a.u.)       :      0.62305
Magnitude (Debye)      :      1.58366

Rotational constants in cm-1:     0.018090     0.008326     0.006688
Rotational constants in MHz :   542.319244   249.592576   200.514416

                             ****ORCA TERMINATED NORMALLY****
TOTAL RUN TIME: 0 days 0 hours 0 minutes 20 seconds 206 msec
