                         Program Version 4.2.1 -  RELEASE  -
|  1> ! wB97X-D3 SP def2-SVP
|  2> %pal
|  3> nprocs 24
|  4> end
|  5>
|  6> * xyz 0 1
|  7> S 	 -60.0906 	 13.6139 	 -97.475
|  8> C 	 -60.0986 	 15.251 	 -97.0465
|  9> C 	 -59.029 	 15.9468 	 -97.6315
| 10> C 	 -58.3061 	 15.1472 	 -98.6067
| 11> C 	 -58.7132 	 13.794 	 -98.6428
| 12> H 	 -57.4737 	 15.6008 	 -99.2148
| 13> C 	 -58.7732 	 17.3894 	 -97.3967
| 14> H 	 -59.4548 	 17.771 	 -96.7693
| 15> H 	 -58.8364 	 17.9339 	 -98.3159
| 16> C 	 -57.4374 	 17.8044 	 -96.8063
| 17> H 	 -56.6684 	 17.35 	 -97.4264
| 18> H 	 -57.2042 	 18.8125 	 -96.9549
| 19> C 	 -57.1499 	 17.2802 	 -95.3528
| 20> H 	 -57.7236 	 16.3558 	 -95.2951
| 21> H 	 -56.1191 	 17.0656 	 -95.2615
| 22> H 	 -57.4501 	 18.0291 	 -94.6323
| 23> S 	 -57.739 	 11.1885 	 -98.7565
| 24> C 	 -56.9263 	 10.5902 	 -100.168
| 25> C 	 -57.0014 	 11.5056 	 -101.175
| 26> C 	 -57.6229 	 12.7359 	 -100.804
| 27> C 	 -58.141 	 12.7612 	 -99.4842
| 28> H 	 -56.6298 	 11.2455 	 -102.078
| 29> C 	 -57.8975 	 13.8359 	 -101.831
| 30> H 	 -57.4355 	 13.467 	 -102.71
| 31> H 	 -57.3652 	 14.7574 	 -101.692
| 32> C 	 -59.3575 	 13.9724 	 -102.227
| 33> H 	 -59.9103 	 13.9611 	 -101.337
| 34> H 	 -59.6834 	 13.0128 	 -102.783
| 35> C 	 -59.7139 	 15.3537 	 -102.863
| 36> H 	 -59.0732 	 16.1638 	 -102.59
| 37> H 	 -60.7467 	 15.5399 	 -102.735
| 38> H 	 -59.6469 	 15.2724 	 -103.964
| 39> H 	 -60.7284 	 15.7564 	 -96.3388
| 40> H 	 -56.4239 	 9.55849 	 -100.203
| 41> *
| 42>
| 43>                          ****END OF INPUT****

CARTESIAN COORDINATES (ANGSTROEM)
---------------------------------
  S    -60.090600   13.613900  -97.475000
  C    -60.098600   15.251000  -97.046500
  C    -59.029000   15.946800  -97.631500
  C    -58.306100   15.147200  -98.606700
  C    -58.713200   13.794000  -98.642800
  H    -57.473700   15.600800  -99.214800
  C    -58.773200   17.389400  -97.396700
  H    -59.454800   17.771000  -96.769300
  H    -58.836400   17.933900  -98.315900
  C    -57.437400   17.804400  -96.806300
  H    -56.668400   17.350000  -97.426400
  H    -57.204200   18.812500  -96.954900
  C    -57.149900   17.280200  -95.352800
  H    -57.723600   16.355800  -95.295100
  H    -56.119100   17.065600  -95.261500
  H    -57.450100   18.029100  -94.632300
  S    -57.739000   11.188500  -98.756500
  C    -56.926300   10.590200  -100.168000
  C    -57.001400   11.505600  -101.175000
  C    -57.622900   12.735900  -100.804000
  C    -58.141000   12.761200  -99.484200
  H    -56.629800   11.245500  -102.078000
  C    -57.897500   13.835900  -101.831000
  H    -57.435500   13.467000  -102.710000
  H    -57.365200   14.757400  -101.692000
  C    -59.357500   13.972400  -102.227000
  H    -59.910300   13.961100  -101.337000
  H    -59.683400   13.012800  -102.783000
  C    -59.713900   15.353700  -102.863000
  H    -59.073200   16.163800  -102.590000
  H    -60.746700   15.539900  -102.735000
  H    -59.646900   15.272400  -103.964000
  H    -60.728400   15.756400  -96.338800
  H    -56.423900    9.558490  -100.203000

 Total Charge           Charge          ....    0
 Multiplicity           Mult            ....    1
 Number of Electrons    NEL             ....  134
 Basis Dimension        Dim             ....  322

ORBITAL ENERGIES
----------------

  NO   OCC          E(Eh)            E(eV)
   0   2.0000     -88.972297     -2421.0593
   1   2.0000     -88.962786     -2420.8005
   2   2.0000     -10.342413      -281.4314
   3   2.0000     -10.333839      -281.1981
   4   2.0000     -10.322850      -280.8990
   5   2.0000     -10.315665      -280.7035
   6   2.0000     -10.308475      -280.5079
   7   2.0000     -10.306992      -280.4675
   8   2.0000     -10.302514      -280.3457
   9   2.0000     -10.287424      -279.9350
  10   2.0000     -10.282733      -279.8074
  11   2.0000     -10.282417      -279.7988
  12   2.0000     -10.277292      -279.6593
  13   2.0000     -10.277000      -279.6514
  14   2.0000     -10.273609      -279.5591
  15   2.0000     -10.270664      -279.4790
  16   2.0000      -8.086557      -220.0464
  17   2.0000      -8.077614      -219.8030
  18   2.0000      -6.045175      -164.4976
  19   2.0000      -6.040997      -164.3839
  20   2.0000      -6.037333      -164.2842
  21   2.0000      -6.036077      -164.2500
  22   2.0000      -6.031933      -164.1372
  23   2.0000      -6.028583      -164.0461
  24   2.0000      -1.002544       -27.2806
  25   2.0000      -0.984424       -26.7875
  26   2.0000      -0.916052       -24.9270
  27   2.0000      -0.906810       -24.6756
  28   2.0000      -0.873789       -23.7770
  29   2.0000      -0.847491       -23.0614
  30   2.0000      -0.843015       -22.9396
  31   2.0000      -0.816545       -22.2193
  32   2.0000      -0.785127       -21.3644
  33   2.0000      -0.773507       -21.0482
  34   2.0000      -0.715102       -19.4589
  35   2.0000      -0.699465       -19.0334
  36   2.0000      -0.691424       -18.8146
  37   2.0000      -0.663218       -18.0471
  38   2.0000      -0.635672       -17.2975
  39   2.0000      -0.625830       -17.0297
  40   2.0000      -0.597065       -16.2470
  41   2.0000      -0.575100       -15.6493
  42   2.0000      -0.560186       -15.2434
  43   2.0000      -0.554569       -15.0906
  44   2.0000      -0.541690       -14.7401
  45   2.0000      -0.527480       -14.3534
  46   2.0000      -0.517277       -14.0758
  47   2.0000      -0.512961       -13.9584
  48   2.0000      -0.509743       -13.8708
  49   2.0000      -0.501041       -13.6340
  50   2.0000      -0.491428       -13.3724
  51   2.0000      -0.481903       -13.1133
  52   2.0000      -0.469067       -12.7640
  53   2.0000      -0.468317       -12.7435
  54   2.0000      -0.460182       -12.5222
  55   2.0000      -0.450505       -12.2589
  56   2.0000      -0.444703       -12.1010
  57   2.0000      -0.435590       -11.8530
  58   2.0000      -0.430793       -11.7225
  59   2.0000      -0.423082       -11.5126
  60   2.0000      -0.419480       -11.4146
  61   2.0000      -0.411950       -11.2097
  62   2.0000      -0.399908       -10.8821
  63   2.0000      -0.357456        -9.7269
  64   2.0000      -0.332050        -9.0355
  65   2.0000      -0.327269        -8.9054
  66   2.0000      -0.286772        -7.8035
  67   0.0000       0.021432         0.5832
  68   0.0000       0.068035         1.8513
  69   0.0000       0.113599         3.0912
  70   0.0000       0.119075         3.2402
  71   0.0000       0.130027         3.5382

MULLIKEN ATOMIC CHARGES
-----------------------
   0 S :    0.126063
   1 C :   -0.091312
   2 C :   -0.143681
   3 C :    0.012598
   4 C :   -0.135489
   5 H :    0.040027
   6 C :    0.147021
   7 H :   -0.024805
   8 H :    0.022806
   9 C :   -0.087218
  10 H :    0.005391
  11 H :    0.010679
  12 C :   -0.029899
  13 H :    0.036062
  14 H :    0.027728
  15 H :    0.036079
  16 S :    0.090061
  17 C :   -0.120262
  18 C :    0.015312
  19 C :   -0.055333
  20 C :   -0.145872
  21 H :   -0.025961
  22 C :    0.095254
  23 H :   -0.007250
  24 H :    0.020779
  25 C :   -0.081063
  26 H :    0.025130
  27 H :    0.040978
  28 C :   -0.024785
  29 H :    0.031875
  30 H :    0.027766
  31 H :    0.023240
  32 H :    0.046340
  33 H :    0.091740
Sum of atomic charges:   -0.0000000

LOEWDIN ATOMIC CHARGES
----------------------
   0 S :    0.413817
   1 C :   -0.211915
   2 C :   -0.065958
   3 C :   -0.056959
   4 C :   -0.185484
   5 H :    0.041202
   6 C :   -0.026523
   7 H :    0.011296
   8 H :    0.034990
   9 C :   -0.037545
  10 H :    0.018713
  11 H :    0.014459
  12 C :   -0.057417
  13 H :    0.028921
  14 H :    0.021952
  15 H :    0.023531
  16 S :    0.400663
  17 C :   -0.194661
  18 C :   -0.068053
  19 C :   -0.049109
  20 C :   -0.190860
  21 H :    0.014583
  22 C :   -0.035509
  23 H :    0.024560
  24 H :    0.024162
  25 C :   -0.039016
  26 H :    0.014594
  27 H :    0.036511
  28 C :   -0.060141
  29 H :    0.022881
  30 H :    0.023618
  31 H :    0.026924
  32 H :    0.030656
  33 H :    0.051119

  Mayer bond orders larger than 0.100000
B(  0-S ,  1-C ) :   1.1537 B(  0-S ,  4-C ) :   1.1320 B(  1-C ,  2-C ) :   1.5795
B(  1-C , 32-H ) :   0.9643 B(  2-C ,  3-C ) :   1.2550 B(  2-C ,  6-C ) :   1.0527
B(  3-C ,  4-C ) :   1.5419 B(  3-C ,  5-H ) :   0.9813 B(  4-C , 20-C ) :   1.0886
B(  6-C ,  7-H ) :   0.9298 B(  6-C ,  8-H ) :   0.9280 B(  6-C ,  9-C ) :   1.0762
B(  9-C , 10-H ) :   0.9576 B(  9-C , 11-H ) :   0.9558 B(  9-C , 12-C ) :   1.0604
B( 12-C , 13-H ) :   0.9788 B( 12-C , 14-H ) :   0.9784 B( 12-C , 15-H ) :   0.9786
B( 16-S , 17-C ) :   1.1720 B( 16-S , 20-C ) :   1.1392 B( 17-C , 18-C ) :   1.5797
B( 17-C , 20-C ) :   0.1016 B( 17-C , 33-H ) :   0.9548 B( 18-C , 19-C ) :   1.2685
B( 18-C , 21-H ) :   1.0099 B( 19-C , 20-C ) :   1.5420 B( 19-C , 22-C ) :   1.0417
B( 22-C , 23-H ) :   0.9243 B( 22-C , 24-H ) :   0.9348 B( 22-C , 25-C ) :   1.0547
B( 25-C , 26-H ) :   0.9688 B( 25-C , 27-H ) :   0.9531 B( 25-C , 28-C ) :   1.0641
B( 28-C , 29-H ) :   0.9780 B( 28-C , 30-H ) :   0.9762 B( 28-C , 31-H ) :   0.9759

Dispersion correction           -0.014506245
FINAL SINGLE POINT ENERGY     -1339.852222074232

DIPOLE MOMENT
-------------
                                X             Y             Z
Electronic contribution:     -3.16242     -22.87036       7.44612
Nuclear contribution   :      3.37829      23.36440      -7.82961
                        -----------------------------------------
Total Dipole Moment    :      0.21587       0.49404      -0.38349
                        -----------------------------------------
Magnitude (a.u.)       :      0.66162
Magnitude (Debye)      :      1.68169

Rotational constants in cm-1:     0.017927     0.008745     0.007321
Rotational constants in MHz :   537.446308   262.173808   219.465062

                             ****ORCA TERMINATED NORMALLY****
TOTAL RUN TIME: 0 days 0 hours 0 minutes 21 seconds 684 msec
