                         Program Version 4.2.1 -  RELEASE  -
|  1> ! wB97X-D3 SP def2-SVP
|  2> %pal
|  3> nprocs 24
|  4> end
|  5>
|  6> * xyz 0 1
|  7> S 	 -40.0648 	 18.8807 	 28.1739
|  8> C 	 -38.348 	 18.6253 	 28.5702
|  9> C 	 -37.8903 	 19.6535 	 29.3859
| 10> C 	 -38.899 	 20.6158 	 29.7951
| 11> C 	 -40.1089 	 20.3401 	 29.2041
| 12> H 	 -38.8268 	 21.4485 	 30.508
| 13> C 	 -36.4791 	 19.8757 	 29.6712
| 14> H 	 -36.2692 	 20.8747 	 29.366
| 15> H 	 -35.8781 	 19.2766 	 28.947
| 16> C 	 -36.117 	 19.8223 	 31.1711
| 17> H 	 -35.2806 	 20.4511 	 31.4277
| 18> H 	 -36.9425 	 20.2552 	 31.7169
| 19> C 	 -36.087 	 18.3546 	 31.6157
| 20> H 	 -35.3753 	 17.7897 	 31.044
| 21> H 	 -35.6983 	 18.4006 	 32.6624
| 22> H 	 -37.0658 	 17.8407 	 31.5787
| 23> S 	 -42.694 	 20.6299 	 29.8632
| 24> C 	 -43.464 	 22.2227 	 29.8292
| 25> C 	 -42.5467 	 23.1427 	 29.3744
| 26> C 	 -41.267 	 22.6261 	 29.0871
| 27> C 	 -41.2368 	 21.275 	 29.2726
| 28> H 	 -42.9185 	 24.1486 	 29.1539
| 29> C 	 -40.2321 	 23.5514 	 28.4729
| 30> H 	 -40.5973 	 23.8289 	 27.4327
| 31> H 	 -39.3649 	 22.9815 	 28.2222
| 32> C 	 -39.9071 	 24.8893 	 29.21
| 33> H 	 -40.9129 	 25.4609 	 29.0565
| 34> H 	 -39.117 	 25.5002 	 28.693
| 35> C 	 -39.5399 	 24.792 	 30.6899
| 36> H 	 -40.4003 	 24.4681 	 31.3094
| 37> H 	 -39.0133 	 25.6365 	 31.0973
| 38> H 	 -38.7931 	 23.9095 	 30.6976
| 39> H 	 -37.828 	 17.7782 	 28.2824
| 40> H 	 -44.5467 	 22.408 	 29.9574
| 41> *
| 42>
| 43>                          ****END OF INPUT****

CARTESIAN COORDINATES (ANGSTROEM)
---------------------------------
  S    -40.064800   18.880700   28.173900
  C    -38.348000   18.625300   28.570200
  C    -37.890300   19.653500   29.385900
  C    -38.899000   20.615800   29.795100
  C    -40.108900   20.340100   29.204100
  H    -38.826800   21.448500   30.508000
  C    -36.479100   19.875700   29.671200
  H    -36.269200   20.874700   29.366000
  H    -35.878100   19.276600   28.947000
  C    -36.117000   19.822300   31.171100
  H    -35.280600   20.451100   31.427700
  H    -36.942500   20.255200   31.716900
  C    -36.087000   18.354600   31.615700
  H    -35.375300   17.789700   31.044000
  H    -35.698300   18.400600   32.662400
  H    -37.065800   17.840700   31.578700
  S    -42.694000   20.629900   29.863200
  C    -43.464000   22.222700   29.829200
  C    -42.546700   23.142700   29.374400
  C    -41.267000   22.626100   29.087100
  C    -41.236800   21.275000   29.272600
  H    -42.918500   24.148600   29.153900
  C    -40.232100   23.551400   28.472900
  H    -40.597300   23.828900   27.432700
  H    -39.364900   22.981500   28.222200
  C    -39.907100   24.889300   29.210000
  H    -40.912900   25.460900   29.056500
  H    -39.117000   25.500200   28.693000
  C    -39.539900   24.792000   30.689900
  H    -40.400300   24.468100   31.309400
  H    -39.013300   25.636500   31.097300
  H    -38.793100   23.909500   30.697600
  H    -37.828000   17.778200   28.282400
  H    -44.546700   22.408000   29.957400

 Total Charge           Charge          ....    0
 Multiplicity           Mult            ....    1
 Number of Electrons    NEL             ....  134
 Basis Dimension        Dim             ....  322

ORBITAL ENERGIES
----------------

  NO   OCC          E(Eh)            E(eV)
   0   2.0000     -88.964709     -2420.8528
   1   2.0000     -88.963804     -2420.8282
   2   2.0000     -10.330464      -281.1062
   3   2.0000     -10.322748      -280.8962
   4   2.0000     -10.319587      -280.8103
   5   2.0000     -10.312755      -280.6243
   6   2.0000     -10.301949      -280.3303
   7   2.0000     -10.301583      -280.3203
   8   2.0000     -10.301274      -280.3119
   9   2.0000     -10.297120      -280.1989
  10   2.0000     -10.296223      -280.1745
  11   2.0000     -10.292762      -280.0803
  12   2.0000     -10.286448      -279.9085
  13   2.0000     -10.284889      -279.8661
  14   2.0000     -10.284393      -279.8526
  15   2.0000     -10.276969      -279.6506
  16   2.0000      -8.079500      -219.8544
  17   2.0000      -8.078518      -219.8277
  18   2.0000      -6.037912      -164.2999
  19   2.0000      -6.037161      -164.2795
  20   2.0000      -6.033843      -164.1892
  21   2.0000      -6.033242      -164.1729
  22   2.0000      -6.030315      -164.0932
  23   2.0000      -6.029106      -164.0603
  24   2.0000      -1.011286       -27.5185
  25   2.0000      -0.982528       -26.7360
  26   2.0000      -0.915314       -24.9070
  27   2.0000      -0.905373       -24.6365
  28   2.0000      -0.870443       -23.6860
  29   2.0000      -0.850398       -23.1405
  30   2.0000      -0.843827       -22.9617
  31   2.0000      -0.817178       -22.2365
  32   2.0000      -0.781095       -21.2547
  33   2.0000      -0.771669       -20.9982
  34   2.0000      -0.709501       -19.3065
  35   2.0000      -0.697552       -18.9814
  36   2.0000      -0.691057       -18.8046
  37   2.0000      -0.659970       -17.9587
  38   2.0000      -0.643796       -17.5186
  39   2.0000      -0.619048       -16.8452
  40   2.0000      -0.595368       -16.2008
  41   2.0000      -0.569462       -15.4959
  42   2.0000      -0.552336       -15.0298
  43   2.0000      -0.547986       -14.9115
  44   2.0000      -0.542828       -14.7711
  45   2.0000      -0.534881       -14.5549
  46   2.0000      -0.524687       -14.2775
  47   2.0000      -0.513651       -13.9771
  48   2.0000      -0.504520       -13.7287
  49   2.0000      -0.496265       -13.5041
  50   2.0000      -0.489033       -13.3073
  51   2.0000      -0.482282       -13.1236
  52   2.0000      -0.465541       -12.6680
  53   2.0000      -0.464288       -12.6339
  54   2.0000      -0.458884       -12.4869
  55   2.0000      -0.451594       -12.2885
  56   2.0000      -0.443257       -12.0616
  57   2.0000      -0.440028       -11.9738
  58   2.0000      -0.430671       -11.7192
  59   2.0000      -0.423467       -11.5231
  60   2.0000      -0.420353       -11.4384
  61   2.0000      -0.414235       -11.2719
  62   2.0000      -0.402955       -10.9650
  63   2.0000      -0.345751        -9.4084
  64   2.0000      -0.330229        -8.9860
  65   2.0000      -0.324742        -8.8367
  66   2.0000      -0.299386        -8.1467
  67   0.0000       0.032908         0.8955
  68   0.0000       0.072225         1.9653
  69   0.0000       0.109225         2.9722
  70   0.0000       0.115310         3.1377
  71   0.0000       0.120264         3.2726

MULLIKEN ATOMIC CHARGES
-----------------------
   0 S :    0.093389
   1 C :   -0.101092
   2 C :   -0.086197
   3 C :    0.015577
   4 C :   -0.130795
   5 H :    0.033010
   6 C :    0.064228
   7 H :    0.016263
   8 H :    0.022789
   9 C :   -0.057890
  10 H :    0.028196
  11 H :    0.022246
  12 C :   -0.059316
  13 H :    0.021777
  14 H :    0.036134
  15 H :    0.054017
  16 S :    0.109123
  17 C :   -0.111021
  18 C :   -0.052234
  19 C :   -0.009985
  20 C :   -0.176313
  21 H :    0.026500
  22 C :    0.053736
  23 H :    0.047711
  24 H :    0.014456
  25 C :   -0.117183
  26 H :    0.035204
  27 H :    0.045538
  28 C :   -0.058577
  29 H :    0.053630
  30 H :    0.043416
  31 H :    0.026801
  32 H :    0.026377
  33 H :    0.070487
Sum of atomic charges:    0.0000000

LOEWDIN ATOMIC CHARGES
----------------------
   0 S :    0.368871
   1 C :   -0.179356
   2 C :   -0.056145
   3 C :   -0.060583
   4 C :   -0.179706
   5 H :    0.037051
   6 C :   -0.037832
   7 H :    0.028852
   8 H :    0.032178
   9 C :   -0.037328
  10 H :    0.022224
  11 H :    0.024975
  12 C :   -0.065737
  13 H :    0.016711
  14 H :    0.030492
  15 H :    0.032927
  16 S :    0.420907
  17 C :   -0.186563
  18 C :   -0.070803
  19 C :   -0.066598
  20 C :   -0.209869
  21 H :    0.033690
  22 C :   -0.035679
  23 H :    0.044733
  24 H :    0.020914
  25 C :   -0.051710
  26 H :    0.026068
  27 H :    0.032020
  28 C :   -0.075078
  29 H :    0.032332
  30 H :    0.025557
  31 H :    0.030581
  32 H :    0.014597
  33 H :    0.037309

  Mayer bond orders larger than 0.100000
B(  0-S ,  1-C ) :   1.1063 B(  0-S ,  4-C ) :   1.1411 B(  1-C ,  2-C ) :   1.6224
B(  1-C , 32-H ) :   0.9824 B(  2-C ,  3-C ) :   1.1866 B(  2-C ,  6-C ) :   1.0402
B(  3-C ,  4-C ) :   1.6132 B(  3-C ,  5-H ) :   0.9882 B(  4-C , 20-C ) :   0.9950
B(  6-C ,  7-H ) :   0.9288 B(  6-C ,  8-H ) :   0.9490 B(  6-C ,  9-C ) :   1.0611
B(  9-C , 10-H ) :   0.9585 B(  9-C , 11-H ) :   0.9555 B(  9-C , 12-C ) :   1.0647
B( 12-C , 13-H ) :   0.9792 B( 12-C , 14-H ) :   0.9736 B( 12-C , 15-H ) :   0.9753
B( 16-S , 17-C ) :   1.1462 B( 16-S , 20-C ) :   1.1671 B( 17-C , 18-C ) :   1.6190
B( 17-C , 33-H ) :   0.9651 B( 18-C , 19-C ) :   1.2278 B( 18-C , 21-H ) :   0.9862
B( 19-C , 20-C ) :   1.6017 B( 19-C , 22-C ) :   1.0384 B( 22-C , 23-H ) :   0.9411
B( 22-C , 24-H ) :   0.9322 B( 22-C , 25-C ) :   1.0557 B( 25-C , 26-H ) :   0.9530
B( 25-C , 27-H ) :   0.9574 B( 25-C , 28-C ) :   1.0695 B( 28-C , 29-H ) :   0.9699
B( 28-C , 30-H ) :   0.9736 B( 28-C , 31-H ) :   0.9717

Dispersion correction           -0.015146324
FINAL SINGLE POINT ENERGY     -1339.875206935392

DIPOLE MOMENT
-------------
                                X             Y             Z
Electronic contribution:    -21.15277     -12.77880      -8.99875
Nuclear contribution   :     21.57561      13.34915       9.04370
                        -----------------------------------------
Total Dipole Moment    :      0.42284       0.57035       0.04495
                        -----------------------------------------
Magnitude (a.u.)       :      0.71142
Magnitude (Debye)      :      1.80828

Rotational constants in cm-1:     0.018768     0.009163     0.007166
Rotational constants in MHz :   562.653846   274.706499   214.828659

                             ****ORCA TERMINATED NORMALLY****
TOTAL RUN TIME: 0 days 0 hours 0 minutes 22 seconds 193 msec
