                         Program Version 4.2.1 -  RELEASE  -
|  1> ! wB97X-D3 SP def2-SVP
|  2> %pal
|  3> nprocs 24
|  4> end
|  5>
|  6> * xyz 0 1
|  7> S 	 -124.354 	 63.2926 	 -51.0455
|  8> C 	 -124.114 	 64.6376 	 -49.9277
|  9> C 	 -125.063 	 65.6331 	 -50.0872
| 10> C 	 -126.131 	 65.104 	 -50.764
| 11> C 	 -125.883 	 63.9058 	 -51.4137
| 12> H 	 -127.115 	 65.6088 	 -50.847
| 13> C 	 -125.226 	 67.078 	 -49.48
| 14> H 	 -124.388 	 67.1357 	 -48.7317
| 15> H 	 -126.163 	 67.2537 	 -49.0332
| 16> C 	 -125.077 	 68.2268 	 -50.5242
| 17> H 	 -125.905 	 68.3042 	 -51.2868
| 18> H 	 -125.074 	 69.0797 	 -49.9389
| 19> C 	 -123.629 	 68.1526 	 -51.2588
| 20> H 	 -123.217 	 69.0333 	 -51.6711
| 21> H 	 -122.791 	 67.8726 	 -50.642
| 22> H 	 -123.735 	 67.2866 	 -52.0738
| 23> S 	 -126.198 	 63.1628 	 -53.9407
| 24> C 	 -127.548 	 62.2061 	 -54.4413
| 25> C 	 -128.569 	 62.1851 	 -53.4771
| 26> C 	 -128.105 	 62.8364 	 -52.2614
| 27> C 	 -126.767 	 63.2482 	 -52.3266
| 28> H 	 -129.532 	 61.6725 	 -53.6544
| 29> C 	 -129.076 	 63.1213 	 -51.1047
| 30> H 	 -129.681 	 63.9169 	 -51.443
| 31> H 	 -128.576 	 63.7053 	 -50.2821
| 32> C 	 -129.737 	 61.8285 	 -50.5562
| 33> H 	 -129.017 	 60.9214 	 -50.5121
| 34> H 	 -130.569 	 61.6564 	 -51.2798
| 35> C 	 -130.318 	 62.1313 	 -49.1575
| 36> H 	 -129.828 	 61.5047 	 -48.4597
| 37> H 	 -131.379 	 61.961 	 -49.0666
| 38> H 	 -130.215 	 63.1881 	 -48.8598
| 39> H 	 -123.165 	 64.7483 	 -49.4229
| 40> H 	 -127.677 	 61.8735 	 -55.4354
| 41> *
| 42>
| 43>                          ****END OF INPUT****

CARTESIAN COORDINATES (ANGSTROEM)
---------------------------------
  S    -124.354000   63.292600  -51.045500
  C    -124.114000   64.637600  -49.927700
  C    -125.063000   65.633100  -50.087200
  C    -126.131000   65.104000  -50.764000
  C    -125.883000   63.905800  -51.413700
  H    -127.115000   65.608800  -50.847000
  C    -125.226000   67.078000  -49.480000
  H    -124.388000   67.135700  -48.731700
  H    -126.163000   67.253700  -49.033200
  C    -125.077000   68.226800  -50.524200
  H    -125.905000   68.304200  -51.286800
  H    -125.074000   69.079700  -49.938900
  C    -123.629000   68.152600  -51.258800
  H    -123.217000   69.033300  -51.671100
  H    -122.791000   67.872600  -50.642000
  H    -123.735000   67.286600  -52.073800
  S    -126.198000   63.162800  -53.940700
  C    -127.548000   62.206100  -54.441300
  C    -128.569000   62.185100  -53.477100
  C    -128.105000   62.836400  -52.261400
  C    -126.767000   63.248200  -52.326600
  H    -129.532000   61.672500  -53.654400
  C    -129.076000   63.121300  -51.104700
  H    -129.681000   63.916900  -51.443000
  H    -128.576000   63.705300  -50.282100
  C    -129.737000   61.828500  -50.556200
  H    -129.017000   60.921400  -50.512100
  H    -130.569000   61.656400  -51.279800
  C    -130.318000   62.131300  -49.157500
  H    -129.828000   61.504700  -48.459700
  H    -131.379000   61.961000  -49.066600
  H    -130.215000   63.188100  -48.859800
  H    -123.165000   64.748300  -49.422900
  H    -127.677000   61.873500  -55.435400

 Total Charge           Charge          ....    0
 Multiplicity           Mult            ....    1
 Number of Electrons    NEL             ....  134
 Basis Dimension        Dim             ....  322

ORBITAL ENERGIES
----------------

  NO   OCC          E(Eh)            E(eV)
   0   2.0000     -88.968397     -2420.9532
   1   2.0000     -88.960772     -2420.7457
   2   2.0000     -10.318153      -280.7712
   3   2.0000     -10.316845      -280.7356
   4   2.0000     -10.313955      -280.6570
   5   2.0000     -10.311106      -280.5795
   6   2.0000     -10.303118      -280.3621
   7   2.0000     -10.303019      -280.3594
   8   2.0000     -10.299412      -280.2613
   9   2.0000     -10.298262      -280.2299
  10   2.0000     -10.296769      -280.1893
  11   2.0000     -10.296357      -280.1781
  12   2.0000     -10.289621      -279.9948
  13   2.0000     -10.285793      -279.8907
  14   2.0000     -10.284297      -279.8499
  15   2.0000     -10.271962      -279.5143
  16   2.0000      -8.084000      -219.9768
  17   2.0000      -8.076675      -219.7775
  18   2.0000      -6.042172      -164.4159
  19   2.0000      -6.038492      -164.3157
  20   2.0000      -6.035064      -164.2225
  21   2.0000      -6.034944      -164.2192
  22   2.0000      -6.031068      -164.1137
  23   2.0000      -6.027453      -164.0153
  24   2.0000      -1.014957       -27.6184
  25   2.0000      -0.986363       -26.8403
  26   2.0000      -0.906114       -24.6566
  27   2.0000      -0.902296       -24.5527
  28   2.0000      -0.866282       -23.5727
  29   2.0000      -0.848494       -23.0887
  30   2.0000      -0.842890       -22.9362
  31   2.0000      -0.803450       -21.8630
  32   2.0000      -0.783009       -21.3068
  33   2.0000      -0.769973       -20.9520
  34   2.0000      -0.707145       -19.2424
  35   2.0000      -0.699184       -19.0258
  36   2.0000      -0.694774       -18.9058
  37   2.0000      -0.655971       -17.8499
  38   2.0000      -0.638601       -17.3772
  39   2.0000      -0.621462       -16.9108
  40   2.0000      -0.593320       -16.1450
  41   2.0000      -0.565933       -15.3998
  42   2.0000      -0.558057       -15.1855
  43   2.0000      -0.547908       -14.9093
  44   2.0000      -0.542640       -14.7660
  45   2.0000      -0.527551       -14.3554
  46   2.0000      -0.519025       -14.1234
  47   2.0000      -0.503016       -13.6878
  48   2.0000      -0.493909       -13.4400
  49   2.0000      -0.489650       -13.3241
  50   2.0000      -0.485139       -13.2013
  51   2.0000      -0.480846       -13.0845
  52   2.0000      -0.466863       -12.7040
  53   2.0000      -0.462552       -12.5867
  54   2.0000      -0.456010       -12.4087
  55   2.0000      -0.447474       -12.1764
  56   2.0000      -0.443266       -12.0619
  57   2.0000      -0.437623       -11.9083
  58   2.0000      -0.435108       -11.8399
  59   2.0000      -0.427570       -11.6348
  60   2.0000      -0.419995       -11.4286
  61   2.0000      -0.415050       -11.2941
  62   2.0000      -0.403536       -10.9808
  63   2.0000      -0.338149        -9.2015
  64   2.0000      -0.337752        -9.1907
  65   2.0000      -0.321456        -8.7473
  66   2.0000      -0.288972        -7.8633
  67   0.0000       0.036506         0.9934
  68   0.0000       0.068077         1.8525
  69   0.0000       0.111697         3.0394
  70   0.0000       0.119218         3.2441
  71   0.0000       0.125861         3.4249

MULLIKEN ATOMIC CHARGES
-----------------------
   0 S :    0.135513
   1 C :   -0.139077
   2 C :   -0.060800
   3 C :    0.013314
   4 C :   -0.158064
   5 H :    0.016154
   6 C :    0.060850
   7 H :    0.033149
   8 H :    0.028304
   9 C :   -0.057727
  10 H :    0.052686
  11 H :    0.021253
  12 C :   -0.096370
  13 H :    0.028416
  14 H :    0.019855
  15 H :    0.061888
  16 S :    0.109471
  17 C :   -0.080841
  18 C :   -0.054160
  19 C :   -0.039776
  20 C :   -0.166485
  21 H :    0.037502
  22 C :    0.041355
  23 H :    0.031684
  24 H :    0.018713
  25 C :   -0.114902
  26 H :    0.066917
  27 H :    0.041443
  28 C :   -0.022631
  29 H :    0.030407
  30 H :    0.024379
  31 H :    0.029987
  32 H :    0.044148
  33 H :    0.043443
Sum of atomic charges:   -0.0000000

LOEWDIN ATOMIC CHARGES
----------------------
   0 S :    0.440474
   1 C :   -0.194231
   2 C :   -0.063754
   3 C :   -0.066708
   4 C :   -0.225044
   5 H :    0.032339
   6 C :   -0.016384
   7 H :    0.034989
   8 H :    0.024734
   9 C :   -0.030666
  10 H :    0.032391
  11 H :    0.013708
  12 C :   -0.079138
  13 H :    0.016962
  14 H :    0.020012
  15 H :    0.043690
  16 S :    0.428897
  17 C :   -0.190506
  18 C :   -0.073510
  19 C :   -0.054027
  20 C :   -0.218611
  21 H :    0.037897
  22 C :   -0.040431
  23 H :    0.028372
  24 H :    0.028924
  25 C :   -0.045386
  26 H :    0.041438
  27 H :    0.027158
  28 C :   -0.065967
  29 H :    0.023641
  30 H :    0.023595
  31 H :    0.026874
  32 H :    0.020133
  33 H :    0.018136

  Mayer bond orders larger than 0.100000
B(  0-S ,  1-C ) :   1.1555 B(  0-S ,  4-C ) :   1.1793 B(  1-C ,  2-C ) :   1.5837
B(  1-C ,  4-C ) :   0.1129 B(  1-C , 32-H ) :   0.9658 B(  2-C ,  3-C ) :   1.2750
B(  2-C ,  6-C ) :   1.0074 B(  3-C ,  4-C ) :   1.5421 B(  3-C ,  5-H ) :   0.9885
B(  4-C , 20-C ) :   1.0229 B(  6-C ,  7-H ) :   0.9459 B(  6-C ,  8-H ) :   0.9493
B(  6-C ,  9-C ) :   1.0712 B(  9-C , 10-H ) :   0.9600 B(  9-C , 11-H ) :   0.9596
B(  9-C , 12-C ) :   1.0521 B( 12-C , 13-H ) :   0.9803 B( 12-C , 14-H ) :   0.9782
B( 12-C , 15-H ) :   0.9756 B( 16-S , 17-C ) :   1.1693 B( 16-S , 20-C ) :   1.1632
B( 17-C , 18-C ) :   1.5887 B( 17-C , 20-C ) :   0.1036 B( 17-C , 33-H ) :   0.9736
B( 18-C , 19-C ) :   1.2363 B( 18-C , 21-H ) :   0.9886 B( 19-C , 20-C ) :   1.5915
B( 19-C , 22-C ) :   1.0387 B( 22-C , 23-H ) :   0.9344 B( 22-C , 24-H ) :   0.9383
B( 22-C , 25-C ) :   1.0362 B( 25-C , 26-H ) :   0.9698 B( 25-C , 27-H ) :   0.9572
B( 25-C , 28-C ) :   1.0633 B( 28-C , 29-H ) :   0.9790 B( 28-C , 30-H ) :   0.9747
B( 28-C , 31-H ) :   0.9784

Dispersion correction           -0.014283130
FINAL SINGLE POINT ENERGY     -1339.839244495268

DIPOLE MOMENT
-------------
                                X             Y             Z
Electronic contribution:     11.09690     -12.24651     -13.14005
Nuclear contribution   :    -11.51863      12.72108      13.43006
                        -----------------------------------------
Total Dipole Moment    :     -0.42173       0.47456       0.29001
                        -----------------------------------------
Magnitude (a.u.)       :      0.69798
Magnitude (Debye)      :      1.77412

Rotational constants in cm-1:     0.018456     0.008491     0.007091
Rotational constants in MHz :   553.290955   254.565404   212.580382

                             ****ORCA TERMINATED NORMALLY****
TOTAL RUN TIME: 0 days 0 hours 0 minutes 21 seconds 450 msec
