                         Program Version 4.2.1 -  RELEASE  -
|  1> ! wB97X-D3 SP def2-SVP
|  2> %pal
|  3> nprocs 24
|  4> end
|  5>
|  6> * xyz 0 1
|  7> S 	 -126.258 	 57.351 	 -60.1021
|  8> C 	 -126.295 	 57.8995 	 -61.7082
|  9> C 	 -127.605 	 57.7896 	 -62.2514
| 10> C 	 -128.632 	 57.3933 	 -61.2627
| 11> C 	 -127.97 	 57.0108 	 -60.0915
| 12> H 	 -129.732 	 57.2564 	 -61.238
| 13> C 	 -127.963 	 58.1659 	 -63.7028
| 14> H 	 -128.578 	 57.3436 	 -64.2217
| 15> H 	 -127.122 	 58.326 	 -64.4049
| 16> C 	 -128.863 	 59.4392 	 -63.7073
| 17> H 	 -129.651 	 59.3151 	 -62.9571
| 18> H 	 -128.249 	 60.2596 	 -63.2983
| 19> C 	 -129.356 	 59.7815 	 -65.1299
| 20> H 	 -130.074 	 60.6101 	 -65.0172
| 21> H 	 -128.671 	 60.1652 	 -65.8446
| 22> H 	 -129.89 	 58.8921 	 -65.5121
| 23> S 	 -128.19 	 57.0695 	 -57.3481
| 24> C 	 -129.402 	 56.1448 	 -56.5037
| 25> C 	 -129.976 	 55.2526 	 -57.3708
| 26> C 	 -129.69 	 55.5224 	 -58.7668
| 27> C 	 -128.712 	 56.5158 	 -58.9101
| 28> H 	 -130.662 	 54.4768 	 -56.9394
| 29> C 	 -130.226 	 54.6224 	 -59.8828
| 30> H 	 -130.684 	 55.343 	 -60.5378
| 31> H 	 -131.039 	 53.9389 	 -59.6382
| 32> C 	 -129.129 	 53.6683 	 -60.5487
| 33> H 	 -128.786 	 52.9116 	 -59.905
| 34> H 	 -128.272 	 54.25 	 -60.8698
| 35> C 	 -129.481 	 52.9693 	 -61.8496
| 36> H 	 -128.88 	 52.0673 	 -62.133
| 37> H 	 -129.37 	 53.6214 	 -62.7351
| 38> H 	 -130.511 	 52.716 	 -61.8026
| 39> H 	 -125.529 	 58.3781 	 -62.2543
| 40> H 	 -129.416 	 56.0484 	 -55.4422
| 41> *
| 42>
| 43>                          ****END OF INPUT****

CARTESIAN COORDINATES (ANGSTROEM)
---------------------------------
  S    -126.258000   57.351000  -60.102100
  C    -126.295000   57.899500  -61.708200
  C    -127.605000   57.789600  -62.251400
  C    -128.632000   57.393300  -61.262700
  C    -127.970000   57.010800  -60.091500
  H    -129.732000   57.256400  -61.238000
  C    -127.963000   58.165900  -63.702800
  H    -128.578000   57.343600  -64.221700
  H    -127.122000   58.326000  -64.404900
  C    -128.863000   59.439200  -63.707300
  H    -129.651000   59.315100  -62.957100
  H    -128.249000   60.259600  -63.298300
  C    -129.356000   59.781500  -65.129900
  H    -130.074000   60.610100  -65.017200
  H    -128.671000   60.165200  -65.844600
  H    -129.890000   58.892100  -65.512100
  S    -128.190000   57.069500  -57.348100
  C    -129.402000   56.144800  -56.503700
  C    -129.976000   55.252600  -57.370800
  C    -129.690000   55.522400  -58.766800
  C    -128.712000   56.515800  -58.910100
  H    -130.662000   54.476800  -56.939400
  C    -130.226000   54.622400  -59.882800
  H    -130.684000   55.343000  -60.537800
  H    -131.039000   53.938900  -59.638200
  C    -129.129000   53.668300  -60.548700
  H    -128.786000   52.911600  -59.905000
  H    -128.272000   54.250000  -60.869800
  C    -129.481000   52.969300  -61.849600
  H    -128.880000   52.067300  -62.133000
  H    -129.370000   53.621400  -62.735100
  H    -130.511000   52.716000  -61.802600
  H    -125.529000   58.378100  -62.254300
  H    -129.416000   56.048400  -55.442200

 Total Charge           Charge          ....    0
 Multiplicity           Mult            ....    1
 Number of Electrons    NEL             ....  134
 Basis Dimension        Dim             ....  322

ORBITAL ENERGIES
----------------

  NO   OCC          E(Eh)            E(eV)
   0   2.0000     -88.972696     -2421.0701
   1   2.0000     -88.963628     -2420.8234
   2   2.0000     -10.333742      -281.1954
   3   2.0000     -10.331250      -281.1276
   4   2.0000     -10.315468      -280.6982
   5   2.0000     -10.313552      -280.6460
   6   2.0000     -10.313317      -280.6396
   7   2.0000     -10.310774      -280.5704
   8   2.0000     -10.305969      -280.4397
   9   2.0000     -10.300019      -280.2778
  10   2.0000     -10.299344      -280.2594
  11   2.0000     -10.298366      -280.2328
  12   2.0000     -10.288156      -279.9550
  13   2.0000     -10.279324      -279.7146
  14   2.0000     -10.279285      -279.7136
  15   2.0000     -10.273392      -279.5532
  16   2.0000      -8.087839      -220.0813
  17   2.0000      -8.078894      -219.8379
  18   2.0000      -6.046339      -164.5293
  19   2.0000      -6.042238      -164.4176
  20   2.0000      -6.038638      -164.3197
  21   2.0000      -6.037389      -164.2857
  22   2.0000      -6.033304      -164.1745
  23   2.0000      -6.029665      -164.0755
  24   2.0000      -1.007877       -27.4257
  25   2.0000      -0.985151       -26.8073
  26   2.0000      -0.904241       -24.6057
  27   2.0000      -0.901351       -24.5270
  28   2.0000      -0.870873       -23.6977
  29   2.0000      -0.851860       -23.1803
  30   2.0000      -0.844483       -22.9795
  31   2.0000      -0.815646       -22.1949
  32   2.0000      -0.777717       -21.1628
  33   2.0000      -0.768232       -20.9047
  34   2.0000      -0.704695       -19.1757
  35   2.0000      -0.695937       -18.9374
  36   2.0000      -0.691638       -18.8204
  37   2.0000      -0.662431       -18.0257
  38   2.0000      -0.644669       -17.5423
  39   2.0000      -0.613730       -16.7004
  40   2.0000      -0.592969       -16.1355
  41   2.0000      -0.567657       -15.4467
  42   2.0000      -0.563113       -15.3231
  43   2.0000      -0.556085       -15.1318
  44   2.0000      -0.525309       -14.2944
  45   2.0000      -0.519029       -14.1235
  46   2.0000      -0.511991       -13.9320
  47   2.0000      -0.510670       -13.8960
  48   2.0000      -0.506969       -13.7953
  49   2.0000      -0.504421       -13.7260
  50   2.0000      -0.492946       -13.4138
  51   2.0000      -0.485185       -13.2026
  52   2.0000      -0.476342       -12.9619
  53   2.0000      -0.465505       -12.6670
  54   2.0000      -0.460472       -12.5301
  55   2.0000      -0.447520       -12.1776
  56   2.0000      -0.440711       -11.9924
  57   2.0000      -0.433302       -11.7907
  58   2.0000      -0.427444       -11.6314
  59   2.0000      -0.424729       -11.5575
  60   2.0000      -0.421887       -11.4801
  61   2.0000      -0.410521       -11.1708
  62   2.0000      -0.408445       -11.1143
  63   2.0000      -0.354233        -9.6392
  64   2.0000      -0.330365        -8.9897
  65   2.0000      -0.324839        -8.8393
  66   2.0000      -0.290542        -7.9061
  67   0.0000       0.025338         0.6895
  68   0.0000       0.075719         2.0604
  69   0.0000       0.109142         2.9699
  70   0.0000       0.115495         3.1428
  71   0.0000       0.131254         3.5716

MULLIKEN ATOMIC CHARGES
-----------------------
   0 S :    0.134611
   1 C :   -0.092146
   2 C :   -0.075974
   3 C :   -0.004844
   4 C :   -0.137404
   5 H :    0.043864
   6 C :    0.016851
   7 H :    0.038157
   8 H :    0.026732
   9 C :   -0.105126
  10 H :    0.034439
  11 H :    0.028751
  12 C :   -0.030430
  13 H :    0.031577
  14 H :    0.033720
  15 H :    0.033333
  16 S :    0.094132
  17 C :   -0.084465
  18 C :   -0.055776
  19 C :   -0.044208
  20 C :   -0.161957
  21 H :    0.040604
  22 C :    0.077561
  23 H :    0.015042
  24 H :    0.021127
  25 C :   -0.053309
  26 H :    0.025697
  27 H :    0.039077
  28 C :   -0.063305
  29 H :    0.042052
  30 H :    0.026891
  31 H :    0.011691
  32 H :    0.038548
  33 H :    0.054486
Sum of atomic charges:   -0.0000000

LOEWDIN ATOMIC CHARGES
----------------------
   0 S :    0.433277
   1 C :   -0.219393
   2 C :   -0.050764
   3 C :   -0.067672
   4 C :   -0.195313
   5 H :    0.042945
   6 C :   -0.043559
   7 H :    0.033960
   8 H :    0.028142
   9 C :   -0.043698
  10 H :    0.023709
  11 H :    0.024935
  12 C :   -0.068030
  13 H :    0.030587
  14 H :    0.021760
  15 H :    0.027679
  16 S :    0.410312
  17 C :   -0.189540
  18 C :   -0.072999
  19 C :   -0.058756
  20 C :   -0.199006
  21 H :    0.040870
  22 C :   -0.029169
  23 H :    0.026351
  24 H :    0.030299
  25 C :   -0.036843
  26 H :    0.020182
  27 H :    0.027556
  28 C :   -0.070009
  29 H :    0.033519
  30 H :    0.024496
  31 H :    0.013501
  32 H :    0.025076
  33 H :    0.025594

  Mayer bond orders larger than 0.100000
B(  0-S ,  1-C ) :   1.1383 B(  0-S ,  4-C ) :   1.1597 B(  1-C ,  2-C ) :   1.6023
B(  1-C , 32-H ) :   0.9733 B(  2-C ,  3-C ) :   1.2087 B(  2-C ,  6-C ) :   1.0308
B(  3-C ,  4-C ) :   1.5719 B(  3-C ,  5-H ) :   0.9828 B(  4-C , 20-C ) :   1.0525
B(  6-C ,  7-H ) :   0.9448 B(  6-C ,  8-H ) :   0.9508 B(  6-C ,  9-C ) :   1.0454
B(  9-C , 10-H ) :   0.9611 B(  9-C , 11-H ) :   0.9541 B(  9-C , 12-C ) :   1.0741
B( 12-C , 13-H ) :   0.9725 B( 12-C , 14-H ) :   0.9760 B( 12-C , 15-H ) :   0.9742
B( 16-S , 17-C ) :   1.1550 B( 16-S , 20-C ) :   1.1517 B( 17-C , 18-C ) :   1.6151
B( 17-C , 33-H ) :   0.9687 B( 18-C , 19-C ) :   1.2519 B( 18-C , 21-H ) :   0.9805
B( 19-C , 20-C ) :   1.5675 B( 19-C , 22-C ) :   1.0375 B( 22-C , 23-H ) :   0.9352
B( 22-C , 24-H ) :   0.9374 B( 22-C , 25-C ) :   1.0462 B( 25-C , 26-H ) :   0.9609
B( 25-C , 27-H ) :   0.9619 B( 25-C , 28-C ) :   1.0758 B( 28-C , 29-H ) :   0.9740
B( 28-C , 30-H ) :   0.9784 B( 28-C , 31-H ) :   0.9740

Dispersion correction           -0.014327144
FINAL SINGLE POINT ENERGY     -1339.864794582603

DIPOLE MOMENT
-------------
                                X             Y             Z
Electronic contribution:     12.36025       4.81054      26.02451
Nuclear contribution   :    -12.64761      -4.99090     -26.38315
                        -----------------------------------------
Total Dipole Moment    :     -0.28736      -0.18036      -0.35864
                        -----------------------------------------
Magnitude (a.u.)       :      0.49369
Magnitude (Debye)      :      1.25486

Rotational constants in cm-1:     0.018132     0.008472     0.007040
Rotational constants in MHz :   543.583009   253.982242   211.061646

                             ****ORCA TERMINATED NORMALLY****
TOTAL RUN TIME: 0 days 0 hours 0 minutes 20 seconds 448 msec
