                         Program Version 4.2.1 -  RELEASE  -
|  1> ! wB97X-D3 SP def2-SVP
|  2> %pal
|  3> nprocs 24
|  4> end
|  5>
|  6> * xyz 0 1
|  7> S 	 -106.896 	 53.9175 	 -108.79
|  8> C 	 -106.477 	 54.564 	 -110.312
|  9> C 	 -107.584 	 55.2344 	 -110.898
| 10> C 	 -108.631 	 55.4371 	 -109.982
| 11> C 	 -108.442 	 54.7631 	 -108.782
| 12> H 	 -109.444 	 56.0758 	 -110.183
| 13> C 	 -107.465 	 55.923 	 -112.279
| 14> H 	 -108.404 	 56.3286 	 -112.484
| 15> H 	 -107.157 	 55.1265 	 -112.995
| 16> C 	 -106.534 	 57.1096 	 -112.409
| 17> H 	 -105.605 	 57.0009 	 -111.867
| 18> H 	 -106.38 	 57.2837 	 -113.484
| 19> C 	 -107.17 	 58.358 	 -111.681
| 20> H 	 -106.41 	 59.1738 	 -111.538
| 21> H 	 -107.962 	 58.73 	 -112.264
| 22> H 	 -107.492 	 58.0775 	 -110.735
| 23> S 	 -108.539 	 55.1885 	 -105.996
| 24> C 	 -110.118 	 55.4582 	 -105.313
| 25> C 	 -111.204 	 55.0571 	 -106.095
| 26> C 	 -110.661 	 54.6513 	 -107.384
| 27> C 	 -109.311 	 54.8062 	 -107.551
| 28> H 	 -112.303 	 54.9858 	 -105.826
| 29> C 	 -111.583 	 54.3684 	 -108.563
| 30> H 	 -112.274 	 53.546 	 -108.328
| 31> H 	 -110.893 	 53.9485 	 -109.322
| 32> C 	 -112.386 	 55.6234 	 -109.138
| 33> H 	 -111.67 	 56.3808 	 -109.564
| 34> H 	 -112.925 	 56.0026 	 -108.247
| 35> C 	 -113.376 	 55.144 	 -110.226
| 36> H 	 -114.082 	 54.2439 	 -110.078
| 37> H 	 -112.717 	 54.7863 	 -111.02
| 38> H 	 -113.942 	 55.9414 	 -110.702
| 39> H 	 -105.527 	 54.3668 	 -110.791
| 40> H 	 -110.116 	 55.9018 	 -104.309
| 41> *
| 42>
| 43>                          ****END OF INPUT****

CARTESIAN COORDINATES (ANGSTROEM)
---------------------------------
  S    -106.896000   53.917500  -108.790000
  C    -106.477000   54.564000  -110.312000
  C    -107.584000   55.234400  -110.898000
  C    -108.631000   55.437100  -109.982000
  C    -108.442000   54.763100  -108.782000
  H    -109.444000   56.075800  -110.183000
  C    -107.465000   55.923000  -112.279000
  H    -108.404000   56.328600  -112.484000
  H    -107.157000   55.126500  -112.995000
  C    -106.534000   57.109600  -112.409000
  H    -105.605000   57.000900  -111.867000
  H    -106.380000   57.283700  -113.484000
  C    -107.170000   58.358000  -111.681000
  H    -106.410000   59.173800  -111.538000
  H    -107.962000   58.730000  -112.264000
  H    -107.492000   58.077500  -110.735000
  S    -108.539000   55.188500  -105.996000
  C    -110.118000   55.458200  -105.313000
  C    -111.204000   55.057100  -106.095000
  C    -110.661000   54.651300  -107.384000
  C    -109.311000   54.806200  -107.551000
  H    -112.303000   54.985800  -105.826000
  C    -111.583000   54.368400  -108.563000
  H    -112.274000   53.546000  -108.328000
  H    -110.893000   53.948500  -109.322000
  C    -112.386000   55.623400  -109.138000
  H    -111.670000   56.380800  -109.564000
  H    -112.925000   56.002600  -108.247000
  C    -113.376000   55.144000  -110.226000
  H    -114.082000   54.243900  -110.078000
  H    -112.717000   54.786300  -111.020000
  H    -113.942000   55.941400  -110.702000
  H    -105.527000   54.366800  -110.791000
  H    -110.116000   55.901800  -104.309000

 Total Charge           Charge          ....    0
 Multiplicity           Mult            ....    1
 Number of Electrons    NEL             ....  134
 Basis Dimension        Dim             ....  322

ORBITAL ENERGIES
----------------

  NO   OCC          E(Eh)            E(eV)
   0   2.0000     -88.969742     -2420.9898
   1   2.0000     -88.964724     -2420.8532
   2   2.0000     -10.335026      -281.2304
   3   2.0000     -10.328387      -281.0497
   4   2.0000     -10.324815      -280.9525
   5   2.0000     -10.314335      -280.6673
   6   2.0000     -10.307259      -280.4748
   7   2.0000     -10.303107      -280.3618
   8   2.0000     -10.302518      -280.3458
   9   2.0000     -10.301683      -280.3230
  10   2.0000     -10.294086      -280.1163
  11   2.0000     -10.292311      -280.0680
  12   2.0000     -10.289445      -279.9900
  13   2.0000     -10.285814      -279.8912
  14   2.0000     -10.285486      -279.8823
  15   2.0000     -10.271042      -279.4893
  16   2.0000      -8.084783      -219.9981
  17   2.0000      -8.079665      -219.8589
  18   2.0000      -6.043074      -164.4404
  19   2.0000      -6.039123      -164.3329
  20   2.0000      -6.038105      -164.3052
  21   2.0000      -6.035900      -164.2452
  22   2.0000      -6.034351      -164.2030
  23   2.0000      -6.030282      -164.0923
  24   2.0000      -1.004835       -27.3429
  25   2.0000      -0.984692       -26.7948
  26   2.0000      -0.911529       -24.8040
  27   2.0000      -0.899633       -24.4802
  28   2.0000      -0.861611       -23.4456
  29   2.0000      -0.851760       -23.1776
  30   2.0000      -0.846617       -23.0376
  31   2.0000      -0.811493       -22.0818
  32   2.0000      -0.779514       -21.2117
  33   2.0000      -0.765685       -20.8354
  34   2.0000      -0.702033       -19.1033
  35   2.0000      -0.699099       -19.0235
  36   2.0000      -0.688752       -18.7419
  37   2.0000      -0.663886       -18.0653
  38   2.0000      -0.644559       -17.5393
  39   2.0000      -0.615692       -16.7538
  40   2.0000      -0.592775       -16.1302
  41   2.0000      -0.574576       -15.6350
  42   2.0000      -0.560207       -15.2440
  43   2.0000      -0.551234       -14.9998
  44   2.0000      -0.539086       -14.6693
  45   2.0000      -0.519313       -14.1312
  46   2.0000      -0.515914       -14.0387
  47   2.0000      -0.510659       -13.8957
  48   2.0000      -0.504820       -13.7369
  49   2.0000      -0.495003       -13.4697
  50   2.0000      -0.486747       -13.2451
  51   2.0000      -0.475109       -12.9284
  52   2.0000      -0.470824       -12.8118
  53   2.0000      -0.465456       -12.6657
  54   2.0000      -0.460317       -12.5259
  55   2.0000      -0.447999       -12.1907
  56   2.0000      -0.443516       -12.0687
  57   2.0000      -0.437944       -11.9170
  58   2.0000      -0.433883       -11.8066
  59   2.0000      -0.423185       -11.5154
  60   2.0000      -0.419564       -11.4169
  61   2.0000      -0.415870       -11.3164
  62   2.0000      -0.415082       -11.2950
  63   2.0000      -0.348405        -9.4806
  64   2.0000      -0.333434        -9.0732
  65   2.0000      -0.330020        -8.9803
  66   2.0000      -0.289485        -7.8773
  67   0.0000       0.028799         0.7837
  68   0.0000       0.063080         1.7165
  69   0.0000       0.106214         2.8902
  70   0.0000       0.122446         3.3319
  71   0.0000       0.126992         3.4556

MULLIKEN ATOMIC CHARGES
-----------------------
   0 S :    0.124441
   1 C :   -0.130678
   2 C :   -0.111331
   3 C :    0.050164
   4 C :   -0.145959
   5 H :   -0.015798
   6 C :    0.083364
   7 H :   -0.003808
   8 H :    0.042932
   9 C :   -0.060427
  10 H :    0.027671
  11 H :    0.037585
  12 C :   -0.059553
  13 H :    0.038029
  14 H :    0.022101
  15 H :    0.026667
  16 S :    0.100553
  17 C :   -0.110884
  18 C :   -0.019536
  19 C :   -0.050212
  20 C :   -0.143774
  21 H :    0.055152
  22 C :    0.000988
  23 H :    0.029732
  24 H :    0.034857
  25 C :   -0.069314
  26 H :    0.049209
  27 H :    0.035482
  28 C :   -0.069816
  29 H :    0.048524
  30 H :    0.021810
  31 H :    0.037517
  32 H :    0.055235
  33 H :    0.069075
Sum of atomic charges:   -0.0000000

LOEWDIN ATOMIC CHARGES
----------------------
   0 S :    0.427492
   1 C :   -0.211059
   2 C :   -0.063213
   3 C :   -0.061680
   4 C :   -0.189174
   5 H :    0.023217
   6 C :   -0.029577
   7 H :    0.018259
   8 H :    0.037471
   9 C :   -0.035191
  10 H :    0.020778
  11 H :    0.026793
  12 C :   -0.056590
  13 H :    0.031765
  14 H :    0.014864
  15 H :    0.015679
  16 S :    0.390214
  17 C :   -0.174490
  18 C :   -0.078087
  19 C :   -0.057708
  20 C :   -0.195612
  21 H :    0.048964
  22 C :   -0.039727
  23 H :    0.030397
  24 H :    0.030105
  25 C :   -0.035557
  26 H :    0.030986
  27 H :    0.022811
  28 C :   -0.083091
  29 H :    0.036541
  30 H :    0.025886
  31 H :    0.024358
  32 H :    0.027131
  33 H :    0.027046

  Mayer bond orders larger than 0.100000
B(  0-S ,  1-C ) :   1.1735 B(  0-S ,  4-C ) :   1.1750 B(  1-C ,  2-C ) :   1.5406
B(  1-C ,  4-C ) :   0.1072 B(  1-C , 32-H ) :   0.9721 B(  2-C ,  3-C ) :   1.2911
B(  2-C ,  6-C ) :   1.0306 B(  3-C ,  4-C ) :   1.5272 B(  3-C ,  5-H ) :   0.9989
B(  4-C , 20-C ) :   1.0147 B(  6-C ,  7-H ) :   0.9392 B(  6-C ,  8-H ) :   0.9366
B(  6-C ,  9-C ) :   1.0701 B(  9-C , 10-H ) :   0.9610 B(  9-C , 11-H ) :   0.9563
B(  9-C , 12-C ) :   1.0641 B( 12-C , 13-H ) :   0.9769 B( 12-C , 14-H ) :   0.9774
B( 12-C , 15-H ) :   0.9800 B( 16-S , 17-C ) :   1.1745 B( 16-S , 20-C ) :   1.1104
B( 17-C , 18-C ) :   1.5965 B( 17-C , 33-H ) :   0.9649 B( 18-C , 19-C ) :   1.2059
B( 18-C , 21-H ) :   0.9836 B( 19-C , 20-C ) :   1.6460 B( 19-C , 22-C ) :   1.0587
B( 22-C , 23-H ) :   0.9364 B( 22-C , 24-H ) :   0.9356 B( 22-C , 25-C ) :   1.0441
B( 25-C , 26-H ) :   0.9527 B( 25-C , 27-H ) :   0.9582 B( 25-C , 28-C ) :   1.0656
B( 28-C , 29-H ) :   0.9759 B( 28-C , 30-H ) :   0.9727 B( 28-C , 31-H ) :   0.9747

Dispersion correction           -0.014585281
FINAL SINGLE POINT ENERGY     -1339.869646203020

DIPOLE MOMENT
-------------
                                X             Y             Z
Electronic contribution:     12.86304     -12.02229      21.82426
Nuclear contribution   :    -13.19098      12.28846     -22.21490
                        -----------------------------------------
Total Dipole Moment    :     -0.32794       0.26617      -0.39065
                        -----------------------------------------
Magnitude (a.u.)       :      0.57533
Magnitude (Debye)      :      1.46236

Rotational constants in cm-1:     0.016814     0.009269     0.007105
Rotational constants in MHz :   504.058357   277.888639   212.989414

                             ****ORCA TERMINATED NORMALLY****
TOTAL RUN TIME: 0 days 0 hours 0 minutes 21 seconds 748 msec
