                         Program Version 4.2.1 -  RELEASE  -
|  1> ! wB97X-D3 SP def2-SVP
|  2> %pal
|  3> nprocs 24
|  4> end
|  5>
|  6> * xyz 0 1
|  7> S 	 -116.656 	 57.5095 	 -38.7479
|  8> C 	 -118.004 	 57.178 	 -39.797
|  9> C 	 -119.224 	 57.4222 	 -39.2124
| 10> C 	 -119.037 	 57.7363 	 -37.8283
| 11> C 	 -117.772 	 57.9001 	 -37.3846
| 12> H 	 -119.815 	 57.8714 	 -37.1588
| 13> C 	 -120.572 	 57.2947 	 -39.8717
| 14> H 	 -121.43 	 57.3953 	 -39.1882
| 15> H 	 -120.523 	 56.2878 	 -40.376
| 16> C 	 -120.933 	 58.3273 	 -40.9444
| 17> H 	 -122.001 	 58.2771 	 -41.1142
| 18> H 	 -120.682 	 59.3092 	 -40.6268
| 19> C 	 -120.203 	 58.047 	 -42.192
| 20> H 	 -120.603 	 57.0344 	 -42.5084
| 21> H 	 -120.36 	 58.7838 	 -42.9717
| 22> H 	 -119.127 	 57.9859 	 -42.1636
| 23> S 	 -118.373 	 59.5996 	 -35.3276
| 24> C 	 -117.283 	 59.5866 	 -33.9002
| 25> C 	 -116.445 	 58.4619 	 -34.0059
| 26> C 	 -116.512 	 57.7089 	 -35.2162
| 27> C 	 -117.461 	 58.2576 	 -36.0087
| 28> H 	 -115.756 	 58.1584 	 -33.2418
| 29> C 	 -115.555 	 56.5502 	 -35.535
| 30> H 	 -115.836 	 56.2821 	 -36.4701
| 31> H 	 -115.688 	 55.7415 	 -34.7798
| 32> C 	 -114.06 	 56.9487 	 -35.787
| 33> H 	 -113.791 	 57.5258 	 -34.8557
| 34> H 	 -114.024 	 57.6062 	 -36.6072
| 35> C 	 -113.199 	 55.6902 	 -35.9104
| 36> H 	 -112.107 	 55.9108 	 -35.9673
| 37> H 	 -113.539 	 55.1601 	 -36.794
| 38> H 	 -113.351 	 55.0608 	 -35.0832
| 39> H 	 -117.876 	 56.8252 	 -40.8649
| 40> H 	 -117.36 	 60.2943 	 -33.0204
| 41> *
| 42>
| 43>                          ****END OF INPUT****

CARTESIAN COORDINATES (ANGSTROEM)
---------------------------------
  S    -116.656000   57.509500  -38.747900
  C    -118.004000   57.178000  -39.797000
  C    -119.224000   57.422200  -39.212400
  C    -119.037000   57.736300  -37.828300
  C    -117.772000   57.900100  -37.384600
  H    -119.815000   57.871400  -37.158800
  C    -120.572000   57.294700  -39.871700
  H    -121.430000   57.395300  -39.188200
  H    -120.523000   56.287800  -40.376000
  C    -120.933000   58.327300  -40.944400
  H    -122.001000   58.277100  -41.114200
  H    -120.682000   59.309200  -40.626800
  C    -120.203000   58.047000  -42.192000
  H    -120.603000   57.034400  -42.508400
  H    -120.360000   58.783800  -42.971700
  H    -119.127000   57.985900  -42.163600
  S    -118.373000   59.599600  -35.327600
  C    -117.283000   59.586600  -33.900200
  C    -116.445000   58.461900  -34.005900
  C    -116.512000   57.708900  -35.216200
  C    -117.461000   58.257600  -36.008700
  H    -115.756000   58.158400  -33.241800
  C    -115.555000   56.550200  -35.535000
  H    -115.836000   56.282100  -36.470100
  H    -115.688000   55.741500  -34.779800
  C    -114.060000   56.948700  -35.787000
  H    -113.791000   57.525800  -34.855700
  H    -114.024000   57.606200  -36.607200
  C    -113.199000   55.690200  -35.910400
  H    -112.107000   55.910800  -35.967300
  H    -113.539000   55.160100  -36.794000
  H    -113.351000   55.060800  -35.083200
  H    -117.876000   56.825200  -40.864900
  H    -117.360000   60.294300  -33.020400

 Total Charge           Charge          ....    0
 Multiplicity           Mult            ....    1
 Number of Electrons    NEL             ....  134
 Basis Dimension        Dim             ....  322

ORBITAL ENERGIES
----------------

  NO   OCC          E(Eh)            E(eV)
   0   2.0000     -88.968883     -2420.9664
   1   2.0000     -88.968454     -2420.9547
   2   2.0000     -10.329069      -281.0682
   3   2.0000     -10.326094      -280.9873
   4   2.0000     -10.324281      -280.9380
   5   2.0000     -10.318315      -280.7756
   6   2.0000     -10.300279      -280.2848
   7   2.0000     -10.298084      -280.2251
   8   2.0000     -10.295792      -280.1627
   9   2.0000     -10.295721      -280.1608
  10   2.0000     -10.288087      -279.9531
  11   2.0000     -10.287022      -279.9241
  12   2.0000     -10.283065      -279.8164
  13   2.0000     -10.278991      -279.7056
  14   2.0000     -10.276462      -279.6368
  15   2.0000     -10.274971      -279.5962
  16   2.0000      -8.082377      -219.9327
  17   2.0000      -8.082227      -219.9286
  18   2.0000      -6.041133      -164.3876
  19   2.0000      -6.040876      -164.3806
  20   2.0000      -6.037097      -164.2778
  21   2.0000      -6.037020      -164.2757
  22   2.0000      -6.032929      -164.1643
  23   2.0000      -6.032738      -164.1592
  24   2.0000      -1.006111       -27.3777
  25   2.0000      -0.982147       -26.7256
  26   2.0000      -0.919909       -25.0320
  27   2.0000      -0.908710       -24.7273
  28   2.0000      -0.870496       -23.6874
  29   2.0000      -0.855032       -23.2666
  30   2.0000      -0.848119       -23.0785
  31   2.0000      -0.809348       -22.0235
  32   2.0000      -0.782949       -21.3051
  33   2.0000      -0.774328       -21.0705
  34   2.0000      -0.704227       -19.1630
  35   2.0000      -0.699777       -19.0419
  36   2.0000      -0.691621       -18.8200
  37   2.0000      -0.669014       -18.2048
  38   2.0000      -0.639998       -17.4152
  39   2.0000      -0.614474       -16.7207
  40   2.0000      -0.594707       -16.1828
  41   2.0000      -0.574539       -15.6340
  42   2.0000      -0.572875       -15.5887
  43   2.0000      -0.558038       -15.1850
  44   2.0000      -0.537747       -14.6329
  45   2.0000      -0.522425       -14.2159
  46   2.0000      -0.521821       -14.1995
  47   2.0000      -0.514900       -14.0112
  48   2.0000      -0.508416       -13.8347
  49   2.0000      -0.491338       -13.3700
  50   2.0000      -0.488524       -13.2934
  51   2.0000      -0.480062       -13.0632
  52   2.0000      -0.473364       -12.8809
  53   2.0000      -0.465347       -12.6627
  54   2.0000      -0.453838       -12.3495
  55   2.0000      -0.449992       -12.2449
  56   2.0000      -0.448139       -12.1945
  57   2.0000      -0.440897       -11.9974
  58   2.0000      -0.432122       -11.7586
  59   2.0000      -0.426616       -11.6088
  60   2.0000      -0.421027       -11.4567
  61   2.0000      -0.414877       -11.2894
  62   2.0000      -0.410162       -11.1611
  63   2.0000      -0.351651        -9.5689
  64   2.0000      -0.333657        -9.0793
  65   2.0000      -0.327777        -8.9193
  66   2.0000      -0.291390        -7.9291
  67   0.0000       0.028435         0.7738
  68   0.0000       0.070974         1.9313
  69   0.0000       0.100603         2.7376
  70   0.0000       0.108233         2.9452
  71   0.0000       0.131906         3.5893

MULLIKEN ATOMIC CHARGES
-----------------------
   0 S :    0.100505
   1 C :   -0.163992
   2 C :   -0.045333
   3 C :    0.011860
   4 C :   -0.117206
   5 H :   -0.019649
   6 C :    0.030105
   7 H :    0.028200
   8 H :    0.038640
   9 C :   -0.009072
  10 H :    0.030079
  11 H :    0.019340
  12 C :   -0.072716
  13 H :    0.022986
  14 H :    0.029256
  15 H :    0.024161
  16 S :    0.106559
  17 C :   -0.118767
  18 C :   -0.020675
  19 C :   -0.053698
  20 C :   -0.168423
  21 H :    0.009308
  22 C :    0.106128
  23 H :   -0.022165
  24 H :    0.044076
  25 C :   -0.080966
  26 H :    0.026534
  27 H :    0.024365
  28 C :   -0.012072
  29 H :    0.045692
  30 H :    0.029546
  31 H :    0.016484
  32 H :    0.076311
  33 H :    0.084601
Sum of atomic charges:    0.0000000

LOEWDIN ATOMIC CHARGES
----------------------
   0 S :    0.385959
   1 C :   -0.205970
   2 C :   -0.065260
   3 C :   -0.058332
   4 C :   -0.173448
   5 H :    0.014517
   6 C :   -0.032097
   7 H :    0.033521
   8 H :    0.038617
   9 C :   -0.036005
  10 H :    0.026629
  11 H :    0.020188
  12 C :   -0.069017
  13 H :    0.028103
  14 H :    0.024317
  15 H :    0.019100
  16 S :    0.387336
  17 C :   -0.186827
  18 C :   -0.060672
  19 C :   -0.059133
  20 C :   -0.183392
  21 H :    0.024393
  22 C :   -0.021540
  23 H :    0.000120
  24 H :    0.038086
  25 C :   -0.029266
  26 H :    0.022671
  27 H :    0.015624
  28 C :   -0.060147
  29 H :    0.033062
  30 H :    0.026873
  31 H :    0.018044
  32 H :    0.039251
  33 H :    0.044694

  Mayer bond orders larger than 0.100000
B(  0-S ,  1-C ) :   1.1366 B(  0-S ,  4-C ) :   1.1029 B(  1-C ,  2-C ) :   1.6209
B(  1-C , 32-H ) :   0.9466 B(  2-C ,  3-C ) :   1.2318 B(  2-C ,  6-C ) :   1.0192
B(  3-C ,  4-C ) :   1.5959 B(  3-C ,  5-H ) :   1.0056 B(  4-C , 20-C ) :   1.0490
B(  6-C ,  7-H ) :   0.9447 B(  6-C ,  8-H ) :   0.9399 B(  6-C ,  9-C ) :   1.0684
B(  9-C , 10-H ) :   0.9552 B(  9-C , 11-H ) :   0.9471 B(  9-C , 12-C ) :   1.0869
B( 12-C , 13-H ) :   0.9736 B( 12-C , 14-H ) :   0.9685 B( 12-C , 15-H ) :   0.9711
B( 16-S , 17-C ) :   1.1217 B( 16-S , 20-C ) :   1.1377 B( 17-C , 18-C ) :   1.6136
B( 17-C , 33-H ) :   0.9637 B( 18-C , 19-C ) :   1.2220 B( 18-C , 21-H ) :   0.9839
B( 19-C , 20-C ) :   1.6154 B( 19-C , 22-C ) :   1.0401 B( 22-C , 23-H ) :   0.9118
B( 22-C , 24-H ) :   0.9358 B( 22-C , 25-C ) :   1.0546 B( 25-C , 26-H ) :   0.9616
B( 25-C , 27-H ) :   0.9563 B( 25-C , 28-C ) :   1.0791 B( 28-C , 29-H ) :   0.9731
B( 28-C , 30-H ) :   0.9734 B( 28-C , 31-H ) :   0.9730

Dispersion correction           -0.014111436
FINAL SINGLE POINT ENERGY     -1339.866304794319

DIPOLE MOMENT
-------------
                                X             Y             Z
Electronic contribution:     -2.17820       9.14673      10.79187
Nuclear contribution   :      2.06485      -9.34596     -10.80670
                        -----------------------------------------
Total Dipole Moment    :     -0.11335      -0.19923      -0.01483
                        -----------------------------------------
Magnitude (a.u.)       :      0.22969
Magnitude (Debye)      :      0.58384

Rotational constants in cm-1:     0.021871     0.007963     0.006136
Rotational constants in MHz :   655.661219   238.714611   183.946264

                             ****ORCA TERMINATED NORMALLY****
TOTAL RUN TIME: 0 days 0 hours 0 minutes 22 seconds 323 msec
