                         Program Version 4.2.1 -  RELEASE  -
|  1> ! wB97X-D3 SP def2-SVP
|  2> %pal
|  3> nprocs 24
|  4> end
|  5>
|  6> * xyz 0 1
|  7> S 	 -51.8721 	 16.0424 	 27.8489
|  8> C 	 -51.2945 	 16.8224 	 26.3223
|  9> C 	 -50.6487 	 18.0039 	 26.618
| 10> C 	 -50.6403 	 18.3046 	 28.0116
| 11> C 	 -51.272 	 17.3602 	 28.8499
| 12> H 	 -50.1709 	 19.1976 	 28.4152
| 13> C 	 -49.9745 	 18.8476 	 25.5909
| 14> H 	 -50.1797 	 19.9546 	 25.635
| 15> H 	 -50.4623 	 18.6239 	 24.6587
| 16> C 	 -48.5076 	 18.7844 	 25.3251
| 17> H 	 -48.273 	 17.7309 	 25.2618
| 18> H 	 -48.3195 	 19.2783 	 24.3823
| 19> C 	 -47.6544 	 19.4388 	 26.4277
| 20> H 	 -47.4635 	 18.8064 	 27.2928
| 21> H 	 -46.7162 	 19.7043 	 26.0459
| 22> H 	 -48.0377 	 20.3963 	 26.7277
| 23> S 	 -52.1015 	 18.212 	 31.3498
| 24> C 	 -51.5093 	 17.3832 	 32.7491
| 25> C 	 -50.6895 	 16.3073 	 32.4079
| 26> C 	 -50.4649 	 16.2386 	 31.0081
| 27> C 	 -51.2072 	 17.2101 	 30.2852
| 28> H 	 -50.2414 	 15.6472 	 33.201
| 29> C 	 -49.5864 	 15.1224 	 30.4619
| 30> H 	 -49.9308 	 14.8406 	 29.4964
| 31> H 	 -49.73 	 14.2842 	 31.2074
| 32> C 	 -48.0756 	 15.446 	 30.2748
| 33> H 	 -47.564 	 15.665 	 31.2182
| 34> H 	 -47.9456 	 16.2822 	 29.6368
| 35> C 	 -47.3619 	 14.2423 	 29.6218
| 36> H 	 -46.3088 	 14.4987 	 29.4444
| 37> H 	 -47.8336 	 13.9775 	 28.5792
| 38> H 	 -47.2406 	 13.2876 	 30.2358
| 39> H 	 -51.5908 	 16.3852 	 25.3692
| 40> H 	 -51.8292 	 17.6548 	 33.7637
| 41> *
| 42>
| 43>                          ****END OF INPUT****

CARTESIAN COORDINATES (ANGSTROEM)
---------------------------------
  S    -51.872100   16.042400   27.848900
  C    -51.294500   16.822400   26.322300
  C    -50.648700   18.003900   26.618000
  C    -50.640300   18.304600   28.011600
  C    -51.272000   17.360200   28.849900
  H    -50.170900   19.197600   28.415200
  C    -49.974500   18.847600   25.590900
  H    -50.179700   19.954600   25.635000
  H    -50.462300   18.623900   24.658700
  C    -48.507600   18.784400   25.325100
  H    -48.273000   17.730900   25.261800
  H    -48.319500   19.278300   24.382300
  C    -47.654400   19.438800   26.427700
  H    -47.463500   18.806400   27.292800
  H    -46.716200   19.704300   26.045900
  H    -48.037700   20.396300   26.727700
  S    -52.101500   18.212000   31.349800
  C    -51.509300   17.383200   32.749100
  C    -50.689500   16.307300   32.407900
  C    -50.464900   16.238600   31.008100
  C    -51.207200   17.210100   30.285200
  H    -50.241400   15.647200   33.201000
  C    -49.586400   15.122400   30.461900
  H    -49.930800   14.840600   29.496400
  H    -49.730000   14.284200   31.207400
  C    -48.075600   15.446000   30.274800
  H    -47.564000   15.665000   31.218200
  H    -47.945600   16.282200   29.636800
  C    -47.361900   14.242300   29.621800
  H    -46.308800   14.498700   29.444400
  H    -47.833600   13.977500   28.579200
  H    -47.240600   13.287600   30.235800
  H    -51.590800   16.385200   25.369200
  H    -51.829200   17.654800   33.763700

 Total Charge           Charge          ....    0
 Multiplicity           Mult            ....    1
 Number of Electrons    NEL             ....  134
 Basis Dimension        Dim             ....  322

ORBITAL ENERGIES
----------------

  NO   OCC          E(Eh)            E(eV)
   0   2.0000     -88.968413     -2420.9536
   1   2.0000     -88.965865     -2420.8843
   2   2.0000     -10.333716      -281.1947
   3   2.0000     -10.324706      -280.9495
   4   2.0000     -10.323132      -280.9067
   5   2.0000     -10.318386      -280.7776
   6   2.0000     -10.304702      -280.4052
   7   2.0000     -10.303115      -280.3620
   8   2.0000     -10.298373      -280.2330
   9   2.0000     -10.297531      -280.2101
  10   2.0000     -10.289385      -279.9884
  11   2.0000     -10.288444      -279.9628
  12   2.0000     -10.287316      -279.9321
  13   2.0000     -10.284631      -279.8590
  14   2.0000     -10.283429      -279.8263
  15   2.0000     -10.270127      -279.4644
  16   2.0000      -8.083839      -219.9724
  17   2.0000      -8.079312      -219.8493
  18   2.0000      -6.042186      -164.4162
  19   2.0000      -6.038054      -164.3038
  20   2.0000      -6.037873      -164.2989
  21   2.0000      -6.034942      -164.2191
  22   2.0000      -6.033845      -164.1893
  23   2.0000      -6.030224      -164.0907
  24   2.0000      -1.005545       -27.3623
  25   2.0000      -0.981679       -26.7129
  26   2.0000      -0.918137       -24.9838
  27   2.0000      -0.902986       -24.5715
  28   2.0000      -0.870361       -23.6837
  29   2.0000      -0.850102       -23.1324
  30   2.0000      -0.840805       -22.8795
  31   2.0000      -0.812540       -22.1103
  32   2.0000      -0.786128       -21.3916
  33   2.0000      -0.766333       -20.8530
  34   2.0000      -0.705189       -19.1892
  35   2.0000      -0.700339       -19.0572
  36   2.0000      -0.689271       -18.7560
  37   2.0000      -0.660194       -17.9648
  38   2.0000      -0.641171       -17.4471
  39   2.0000      -0.618470       -16.8294
  40   2.0000      -0.596777       -16.2391
  41   2.0000      -0.578394       -15.7389
  42   2.0000      -0.559802       -15.2330
  43   2.0000      -0.549567       -14.9545
  44   2.0000      -0.542963       -14.7748
  45   2.0000      -0.514680       -14.0052
  46   2.0000      -0.512585       -13.9482
  47   2.0000      -0.509811       -13.8727
  48   2.0000      -0.506335       -13.7781
  49   2.0000      -0.495597       -13.4859
  50   2.0000      -0.488666       -13.2973
  51   2.0000      -0.486380       -13.2351
  52   2.0000      -0.466905       -12.7051
  53   2.0000      -0.461315       -12.5530
  54   2.0000      -0.458893       -12.4871
  55   2.0000      -0.446136       -12.1400
  56   2.0000      -0.442852       -12.0506
  57   2.0000      -0.431407       -11.7392
  58   2.0000      -0.430371       -11.7110
  59   2.0000      -0.423735       -11.5304
  60   2.0000      -0.420982       -11.4555
  61   2.0000      -0.419016       -11.4020
  62   2.0000      -0.413559       -11.2535
  63   2.0000      -0.337471        -9.1831
  64   2.0000      -0.332167        -9.0387
  65   2.0000      -0.329104        -8.9554
  66   2.0000      -0.297594        -8.0979
  67   0.0000       0.032546         0.8856
  68   0.0000       0.059175         1.6102
  69   0.0000       0.112898         3.0721
  70   0.0000       0.117521         3.1979
  71   0.0000       0.124460         3.3867

MULLIKEN ATOMIC CHARGES
-----------------------
   0 S :    0.091007
   1 C :   -0.145630
   2 C :   -0.047815
   3 C :    0.051972
   4 C :   -0.162877
   5 H :    0.013435
   6 C :    0.033457
   7 H :    0.024778
   8 H :    0.005504
   9 C :   -0.034543
  10 H :    0.019745
  11 H :    0.028696
  12 C :   -0.023913
  13 H :    0.041495
  14 H :    0.010675
  15 H :    0.010559
  16 S :    0.130611
  17 C :   -0.114308
  18 C :   -0.050333
  19 C :   -0.027058
  20 C :   -0.167167
  21 H :    0.042702
  22 C :    0.077433
  23 H :    0.000913
  24 H :    0.033173
  25 C :   -0.032339
  26 H :    0.025929
  27 H :    0.027316
  28 C :   -0.112901
  29 H :    0.031969
  30 H :    0.048932
  31 H :    0.042947
  32 H :    0.061381
  33 H :    0.064255
Sum of atomic charges:   -0.0000000

LOEWDIN ATOMIC CHARGES
----------------------
   0 S :    0.390397
   1 C :   -0.173353
   2 C :   -0.066398
   3 C :   -0.055256
   4 C :   -0.191286
   5 H :    0.032117
   6 C :   -0.043215
   7 H :    0.033702
   8 H :    0.028285
   9 C :   -0.032428
  10 H :    0.023088
  11 H :    0.027170
  12 C :   -0.063662
  13 H :    0.028166
  14 H :    0.019758
  15 H :    0.019726
  16 S :    0.442221
  17 C :   -0.197845
  18 C :   -0.078943
  19 C :   -0.052944
  20 C :   -0.232274
  21 H :    0.042897
  22 C :   -0.030029
  23 H :    0.012925
  24 H :    0.037669
  25 C :   -0.033647
  26 H :    0.023811
  27 H :    0.022084
  28 C :   -0.083020
  29 H :    0.023731
  30 H :    0.034997
  31 H :    0.029791
  32 H :    0.030459
  33 H :    0.031307

  Mayer bond orders larger than 0.100000
B(  0-S ,  1-C ) :   1.1364 B(  0-S ,  4-C ) :   1.1569 B(  1-C ,  2-C ) :   1.5837
B(  1-C ,  4-C ) :   0.1036 B(  1-C , 32-H ) :   0.9723 B(  2-C ,  3-C ) :   1.2555
B(  2-C ,  6-C ) :   1.0287 B(  3-C ,  4-C ) :   1.5623 B(  3-C ,  5-H ) :   0.9926
B(  4-C , 20-C ) :   1.0210 B(  6-C ,  7-H ) :   0.9380 B(  6-C ,  8-H ) :   0.9310
B(  6-C ,  9-C ) :   1.0906 B(  9-C , 10-H ) :   0.9485 B(  9-C , 11-H ) :   0.9508
B(  9-C , 12-C ) :   1.0874 B( 12-C , 13-H ) :   0.9741 B( 12-C , 14-H ) :   0.9694
B( 12-C , 15-H ) :   0.9712 B( 16-S , 17-C ) :   1.1853 B( 16-S , 20-C ) :   1.1663
B( 17-C , 18-C ) :   1.5627 B( 17-C , 20-C ) :   0.1032 B( 17-C , 33-H ) :   0.9667
B( 18-C , 19-C ) :   1.2898 B( 18-C , 21-H ) :   0.9810 B( 19-C , 20-C ) :   1.5361
B( 19-C , 22-C ) :   1.0413 B( 22-C , 23-H ) :   0.9224 B( 22-C , 24-H ) :   0.9400
B( 22-C , 25-C ) :   1.0689 B( 25-C , 26-H ) :   0.9527 B( 25-C , 27-H ) :   0.9529
B( 25-C , 28-C ) :   1.0836 B( 28-C , 29-H ) :   0.9736 B( 28-C , 30-H ) :   0.9715
B( 28-C , 31-H ) :   0.9749

Dispersion correction           -0.014676762
FINAL SINGLE POINT ENERGY     -1339.884454510098

DIPOLE MOMENT
-------------
                                X             Y             Z
Electronic contribution:    -24.80020       1.67086      10.73848
Nuclear contribution   :     25.32796      -1.58841     -10.91388
                        -----------------------------------------
Total Dipole Moment    :      0.52776       0.08245      -0.17540
                        -----------------------------------------
Magnitude (a.u.)       :      0.56222
Magnitude (Debye)      :      1.42905

Rotational constants in cm-1:     0.017136     0.009210     0.007820
Rotational constants in MHz :   513.733153   276.110408   234.425810

                             ****ORCA TERMINATED NORMALLY****
TOTAL RUN TIME: 0 days 0 hours 0 minutes 22 seconds 1 msec
