                         Program Version 4.2.1 -  RELEASE  -
|  1> ! wB97X-D3 SP def2-SVP
|  2> %pal
|  3> nprocs 24
|  4> end
|  5>
|  6> * xyz 0 1
|  7> S 	 -45.8245 	 -4.07548 	 21.0153
|  8> C 	 -45.1762 	 -2.87007 	 19.9688
|  9> C 	 -45.0155 	 -3.33401 	 18.6512
| 10> C 	 -45.176 	 -4.79039 	 18.5869
| 11> C 	 -45.544 	 -5.34503 	 19.7811
| 12> H 	 -45.1208 	 -5.3723 	 17.7053
| 13> C 	 -44.6257 	 -2.48697 	 17.4458
| 14> H 	 -44.1796 	 -3.14815 	 16.7605
| 15> H 	 -43.9547 	 -1.74549 	 17.782
| 16> C 	 -45.8187 	 -1.76412 	 16.7913
| 17> H 	 -46.483 	 -1.22137 	 17.5158
| 18> H 	 -45.3949 	 -1.05809 	 16.1209
| 19> C 	 -46.6285 	 -2.74604 	 16.0009
| 20> H 	 -46.2328 	 -3.68158 	 15.4998
| 21> H 	 -47.33 	 -3.16712 	 16.719
| 22> H 	 -47.3506 	 -2.32516 	 15.3173
| 23> S 	 -47.3694 	 -7.08354 	 20.886
| 24> C 	 -47.2034 	 -8.83107 	 20.7866
| 25> C 	 -45.9585 	 -9.10111 	 20.2325
| 26> C 	 -45.1802 	 -7.95069 	 19.8677
| 27> C 	 -45.8563 	 -6.73952 	 20.1405
| 28> H 	 -45.6275 	 -10.1265 	 19.9971
| 29> C 	 -43.8358 	 -8.00406 	 19.0962
| 30> H 	 -43.7983 	 -7.04663 	 18.4397
| 31> H 	 -43.8958 	 -8.82365 	 18.3909
| 32> C 	 -42.6586 	 -8.18972 	 19.9417
| 33> H 	 -42.5863 	 -9.25765 	 20.2454
| 34> H 	 -42.7388 	 -7.68336 	 20.8952
| 35> C 	 -41.296 	 -7.90175 	 19.2985
| 36> H 	 -41.0601 	 -8.57606 	 18.5491
| 37> H 	 -40.5963 	 -7.97043 	 20.0732
| 38> H 	 -41.3243 	 -6.88303 	 18.9268
| 39> H 	 -45.035 	 -1.85894 	 20.2928
| 40> H 	 -48.0278 	 -9.5396 	 20.6806
| 41> *
| 42>
| 43>                          ****END OF INPUT****

CARTESIAN COORDINATES (ANGSTROEM)
---------------------------------
  S    -45.824500   -4.075480   21.015300
  C    -45.176200   -2.870070   19.968800
  C    -45.015500   -3.334010   18.651200
  C    -45.176000   -4.790390   18.586900
  C    -45.544000   -5.345030   19.781100
  H    -45.120800   -5.372300   17.705300
  C    -44.625700   -2.486970   17.445800
  H    -44.179600   -3.148150   16.760500
  H    -43.954700   -1.745490   17.782000
  C    -45.818700   -1.764120   16.791300
  H    -46.483000   -1.221370   17.515800
  H    -45.394900   -1.058090   16.120900
  C    -46.628500   -2.746040   16.000900
  H    -46.232800   -3.681580   15.499800
  H    -47.330000   -3.167120   16.719000
  H    -47.350600   -2.325160   15.317300
  S    -47.369400   -7.083540   20.886000
  C    -47.203400   -8.831070   20.786600
  C    -45.958500   -9.101110   20.232500
  C    -45.180200   -7.950690   19.867700
  C    -45.856300   -6.739520   20.140500
  H    -45.627500  -10.126500   19.997100
  C    -43.835800   -8.004060   19.096200
  H    -43.798300   -7.046630   18.439700
  H    -43.895800   -8.823650   18.390900
  C    -42.658600   -8.189720   19.941700
  H    -42.586300   -9.257650   20.245400
  H    -42.738800   -7.683360   20.895200
  C    -41.296000   -7.901750   19.298500
  H    -41.060100   -8.576060   18.549100
  H    -40.596300   -7.970430   20.073200
  H    -41.324300   -6.883030   18.926800
  H    -45.035000   -1.858940   20.292800
  H    -48.027800   -9.539600   20.680600

 Total Charge           Charge          ....    0
 Multiplicity           Mult            ....    1
 Number of Electrons    NEL             ....  134
 Basis Dimension        Dim             ....  322

ORBITAL ENERGIES
----------------

  NO   OCC          E(Eh)            E(eV)
   0   2.0000     -88.965368     -2420.8707
   1   2.0000     -88.965169     -2420.8653
   2   2.0000     -10.335223      -281.2357
   3   2.0000     -10.330595      -281.1098
   4   2.0000     -10.318283      -280.7748
   5   2.0000     -10.314414      -280.6695
   6   2.0000     -10.307108      -280.4707
   7   2.0000     -10.306411      -280.4517
   8   2.0000     -10.300014      -280.2776
   9   2.0000     -10.297589      -280.2117
  10   2.0000     -10.293355      -280.0964
  11   2.0000     -10.288164      -279.9552
  12   2.0000     -10.287339      -279.9327
  13   2.0000     -10.276451      -279.6365
  14   2.0000     -10.274525      -279.5841
  15   2.0000     -10.264436      -279.3095
  16   2.0000      -8.080208      -219.8736
  17   2.0000      -8.080152      -219.8721
  18   2.0000      -6.038757      -164.3229
  19   2.0000      -6.038698      -164.3213
  20   2.0000      -6.034697      -164.2125
  21   2.0000      -6.034471      -164.2063
  22   2.0000      -6.031126      -164.1153
  23   2.0000      -6.030775      -164.1057
  24   2.0000      -1.004868       -27.3438
  25   2.0000      -0.981833       -26.7170
  26   2.0000      -0.916422       -24.9371
  27   2.0000      -0.912899       -24.8412
  28   2.0000      -0.869241       -23.6532
  29   2.0000      -0.851576       -23.1726
  30   2.0000      -0.844535       -22.9810
  31   2.0000      -0.818456       -22.2713
  32   2.0000      -0.784033       -21.3346
  33   2.0000      -0.772239       -21.0137
  34   2.0000      -0.705112       -19.1871
  35   2.0000      -0.700107       -19.0509
  36   2.0000      -0.689936       -18.7741
  37   2.0000      -0.660848       -17.9826
  38   2.0000      -0.645240       -17.5579
  39   2.0000      -0.618534       -16.8312
  40   2.0000      -0.592369       -16.1192
  41   2.0000      -0.573736       -15.6121
  42   2.0000      -0.566545       -15.4165
  43   2.0000      -0.555732       -15.1222
  44   2.0000      -0.541924       -14.7465
  45   2.0000      -0.529476       -14.4078
  46   2.0000      -0.519189       -14.1278
  47   2.0000      -0.516104       -14.0439
  48   2.0000      -0.507055       -13.7977
  49   2.0000      -0.498139       -13.5551
  50   2.0000      -0.489719       -13.3259
  51   2.0000      -0.482784       -13.1372
  52   2.0000      -0.474190       -12.9034
  53   2.0000      -0.464961       -12.6522
  54   2.0000      -0.454222       -12.3600
  55   2.0000      -0.448502       -12.2044
  56   2.0000      -0.445675       -12.1274
  57   2.0000      -0.441861       -12.0237
  58   2.0000      -0.433426       -11.7941
  59   2.0000      -0.427972       -11.6457
  60   2.0000      -0.411980       -11.2105
  61   2.0000      -0.409560       -11.1447
  62   2.0000      -0.404194       -10.9987
  63   2.0000      -0.354466        -9.6455
  64   2.0000      -0.331984        -9.0337
  65   2.0000      -0.325863        -8.8672
  66   2.0000      -0.287919        -7.8347
  67   0.0000       0.028530         0.7763
  68   0.0000       0.059194         1.6108
  69   0.0000       0.105238         2.8637
  70   0.0000       0.117173         3.1884
  71   0.0000       0.137524         3.7422

MULLIKEN ATOMIC CHARGES
-----------------------
   0 S :    0.104798
   1 C :   -0.110566
   2 C :   -0.123950
   3 C :    0.045312
   4 C :   -0.143316
   5 H :    0.010406
   6 C :    0.113660
   7 H :    0.011053
   8 H :    0.017074
   9 C :   -0.035169
  10 H :    0.042506
  11 H :    0.024024
  12 C :   -0.090639
  13 H :    0.040526
  14 H :    0.026896
  15 H :    0.025072
  16 S :    0.099504
  17 C :   -0.096368
  18 C :   -0.051245
  19 C :   -0.060082
  20 C :   -0.145516
  21 H :    0.028752
  22 C :    0.072489
  23 H :    0.023537
  24 H :    0.016165
  25 C :   -0.099771
  26 H :    0.018608
  27 H :    0.031414
  28 C :    0.018255
  29 H :    0.016723
  30 H :    0.019400
  31 H :    0.027752
  32 H :    0.043168
  33 H :    0.079529
Sum of atomic charges:    0.0000000

LOEWDIN ATOMIC CHARGES
----------------------
   0 S :    0.395975
   1 C :   -0.201266
   2 C :   -0.054693
   3 C :   -0.060305
   4 C :   -0.173897
   5 H :    0.025698
   6 C :   -0.018228
   7 H :    0.024151
   8 H :    0.027059
   9 C :   -0.033287
  10 H :    0.034810
  11 H :    0.017034
  12 C :   -0.086223
  13 H :    0.031510
  14 H :    0.030095
  15 H :    0.023660
  16 S :    0.418382
  17 C :   -0.204966
  18 C :   -0.067473
  19 C :   -0.060627
  20 C :   -0.208042
  21 H :    0.033619
  22 C :   -0.037114
  23 H :    0.036318
  24 H :    0.026928
  25 C :   -0.048349
  26 H :    0.026020
  27 H :    0.024637
  28 C :   -0.046447
  29 H :    0.014382
  30 H :    0.022064
  31 H :    0.025006
  32 H :    0.023042
  33 H :    0.040528

  Mayer bond orders larger than 0.100000
B(  0-S ,  1-C ) :   1.1453 B(  0-S ,  4-C ) :   1.1371 B(  1-C ,  2-C ) :   1.6125
B(  1-C , 32-H ) :   0.9723 B(  2-C ,  3-C ) :   1.2139 B(  2-C ,  6-C ) :   1.0243
B(  3-C ,  4-C ) :   1.6082 B(  3-C ,  5-H ) :   0.9894 B(  4-C , 20-C ) :   1.0182
B(  6-C ,  7-H ) :   0.9425 B(  6-C ,  8-H ) :   0.9361 B(  6-C ,  9-C ) :   1.0736
B(  9-C , 10-H ) :   0.9556 B(  9-C , 11-H ) :   0.9591 B(  9-C , 12-C ) :   1.0635
B( 12-C , 13-H ) :   0.9780 B( 12-C , 14-H ) :   0.9711 B( 12-C , 15-H ) :   0.9711
B( 16-S , 17-C ) :   1.1538 B( 16-S , 20-C ) :   1.1712 B( 17-C , 18-C ) :   1.5836
B( 17-C , 20-C ) :   0.1046 B( 17-C , 33-H ) :   0.9619 B( 18-C , 19-C ) :   1.2868
B( 18-C , 21-H ) :   0.9795 B( 19-C , 20-C ) :   1.5572 B( 19-C , 22-C ) :   1.0316
B( 22-C , 23-H ) :   0.9385 B( 22-C , 24-H ) :   0.9278 B( 22-C , 25-C ) :   1.0703
B( 25-C , 26-H ) :   0.9454 B( 25-C , 27-H ) :   0.9585 B( 25-C , 28-C ) :   1.0910
B( 28-C , 29-H ) :   0.9740 B( 28-C , 30-H ) :   0.9722 B( 28-C , 31-H ) :   0.9748

Dispersion correction           -0.014113903
FINAL SINGLE POINT ENERGY     -1339.864566852795

DIPOLE MOMENT
-------------
                                X             Y             Z
Electronic contribution:    -14.76587      -2.39580      18.83171
Nuclear contribution   :     15.01569       2.39059     -19.51695
                        -----------------------------------------
Total Dipole Moment    :      0.24983      -0.00521      -0.68524
                        -----------------------------------------
Magnitude (a.u.)       :      0.72938
Magnitude (Debye)      :      1.85394

Rotational constants in cm-1:     0.017578     0.008653     0.007166
Rotational constants in MHz :   526.987837   259.417662   214.824238

                             ****ORCA TERMINATED NORMALLY****
TOTAL RUN TIME: 0 days 0 hours 0 minutes 21 seconds 522 msec
