                         Program Version 4.2.1 -  RELEASE  -
|  1> ! wB97X-D3 SP def2-SVP
|  2> %pal
|  3> nprocs 24
|  4> end
|  5>
|  6> * xyz 0 1
|  7> S 	 -38.434 	 -2.46418 	 -6.21922
|  8> C 	 -37.4659 	 -2.47466 	 -4.72672
|  9> C 	 -36.1441 	 -2.04407 	 -4.99426
| 10> C 	 -36.0624 	 -1.51681 	 -6.30523
| 11> C 	 -37.1426 	 -1.69399 	 -7.1025
| 12> H 	 -35.184 	 -1.04527 	 -6.78866
| 13> C 	 -34.8696 	 -2.06023 	 -4.18546
| 14> H 	 -35.2101 	 -1.97761 	 -3.18366
| 15> H 	 -34.1121 	 -1.29831 	 -4.34557
| 16> C 	 -34.1906 	 -3.44934 	 -4.31121
| 17> H 	 -34.704 	 -4.11518 	 -3.71724
| 18> H 	 -34.0365 	 -3.79644 	 -5.32216
| 19> C 	 -32.8474 	 -3.46421 	 -3.66928
| 20> H 	 -32.307 	 -4.512 	 -3.62057
| 21> H 	 -32.1302 	 -2.72405 	 -4.04218
| 22> H 	 -33.0705 	 -3.02671 	 -2.69131
| 23> S 	 -36.3777 	 0.0977357 	 -9.0825
| 24> C 	 -36.9423 	 -0.0771203 	 -10.7191
| 25> C 	 -37.8565 	 -1.21358 	 -10.7634
| 26> C 	 -37.9914 	 -1.90489 	 -9.52804
| 27> C 	 -37.2032 	 -1.34509 	 -8.51886
| 28> H 	 -38.3117 	 -1.41798 	 -11.7552
| 29> C 	 -38.8504 	 -3.13137 	 -9.46402
| 30> H 	 -39.8599 	 -2.78278 	 -9.24436
| 31> H 	 -38.567 	 -3.76715 	 -8.6265
| 32> C 	 -38.7457 	 -4.0453 	 -10.7155
| 33> H 	 -37.787 	 -4.5176 	 -10.9248
| 34> H 	 -38.9969 	 -3.57193 	 -11.6874
| 35> C 	 -39.8131 	 -5.17599 	 -10.4945
| 36> H 	 -40.8888 	 -4.86745 	 -10.335
| 37> H 	 -39.4538 	 -5.90905 	 -9.71501
| 38> H 	 -39.8143 	 -5.69242 	 -11.4534
| 39> H 	 -37.6821 	 -2.91223 	 -3.74617
| 40> H 	 -36.8082 	 0.647508 	 -11.4996
| 41> *
| 42>
| 43>                          ****END OF INPUT****

CARTESIAN COORDINATES (ANGSTROEM)
---------------------------------
  S    -38.434000   -2.464180   -6.219220
  C    -37.465900   -2.474660   -4.726720
  C    -36.144100   -2.044070   -4.994260
  C    -36.062400   -1.516810   -6.305230
  C    -37.142600   -1.693990   -7.102500
  H    -35.184000   -1.045270   -6.788660
  C    -34.869600   -2.060230   -4.185460
  H    -35.210100   -1.977610   -3.183660
  H    -34.112100   -1.298310   -4.345570
  C    -34.190600   -3.449340   -4.311210
  H    -34.704000   -4.115180   -3.717240
  H    -34.036500   -3.796440   -5.322160
  C    -32.847400   -3.464210   -3.669280
  H    -32.307000   -4.512000   -3.620570
  H    -32.130200   -2.724050   -4.042180
  H    -33.070500   -3.026710   -2.691310
  S    -36.377700    0.097736   -9.082500
  C    -36.942300   -0.077120  -10.719100
  C    -37.856500   -1.213580  -10.763400
  C    -37.991400   -1.904890   -9.528040
  C    -37.203200   -1.345090   -8.518860
  H    -38.311700   -1.417980  -11.755200
  C    -38.850400   -3.131370   -9.464020
  H    -39.859900   -2.782780   -9.244360
  H    -38.567000   -3.767150   -8.626500
  C    -38.745700   -4.045300  -10.715500
  H    -37.787000   -4.517600  -10.924800
  H    -38.996900   -3.571930  -11.687400
  C    -39.813100   -5.175990  -10.494500
  H    -40.888800   -4.867450  -10.335000
  H    -39.453800   -5.909050   -9.715010
  H    -39.814300   -5.692420  -11.453400
  H    -37.682100   -2.912230   -3.746170
  H    -36.808200    0.647508  -11.499600

 Total Charge           Charge          ....    0
 Multiplicity           Mult            ....    1
 Number of Electrons    NEL             ....  134
 Basis Dimension        Dim             ....  322

ORBITAL ENERGIES
----------------

  NO   OCC          E(Eh)            E(eV)
   0   2.0000     -88.971967     -2421.0503
   1   2.0000     -88.969565     -2420.9850
   2   2.0000     -10.328433      -281.0510
   3   2.0000     -10.326140      -280.9886
   4   2.0000     -10.322807      -280.8979
   5   2.0000     -10.321269      -280.8560
   6   2.0000     -10.305260      -280.4204
   7   2.0000     -10.302422      -280.3431
   8   2.0000     -10.301920      -280.3295
   9   2.0000     -10.293533      -280.1013
  10   2.0000     -10.293315      -280.0953
  11   2.0000     -10.292548      -280.0745
  12   2.0000     -10.285371      -279.8792
  13   2.0000     -10.284979      -279.8685
  14   2.0000     -10.282075      -279.7895
  15   2.0000     -10.276293      -279.6322
  16   2.0000      -8.085400      -220.0149
  17   2.0000      -8.083698      -219.9686
  18   2.0000      -6.044163      -164.4700
  19   2.0000      -6.042167      -164.4157
  20   2.0000      -6.040086      -164.3591
  21   2.0000      -6.038125      -164.3057
  22   2.0000      -6.035968      -164.2470
  23   2.0000      -6.034728      -164.2133
  24   2.0000      -1.005803       -27.3693
  25   2.0000      -0.980748       -26.6875
  26   2.0000      -0.920790       -25.0560
  27   2.0000      -0.908329       -24.7169
  28   2.0000      -0.867821       -23.6146
  29   2.0000      -0.853224       -23.2174
  30   2.0000      -0.846552       -23.0359
  31   2.0000      -0.806489       -21.9457
  32   2.0000      -0.778530       -21.1849
  33   2.0000      -0.768946       -20.9241
  34   2.0000      -0.704508       -19.1706
  35   2.0000      -0.698025       -18.9942
  36   2.0000      -0.696960       -18.9652
  37   2.0000      -0.664744       -18.0886
  38   2.0000      -0.629184       -17.1210
  39   2.0000      -0.619565       -16.8592
  40   2.0000      -0.597790       -16.2667
  41   2.0000      -0.577466       -15.7136
  42   2.0000      -0.565680       -15.3929
  43   2.0000      -0.560648       -15.2560
  44   2.0000      -0.531883       -14.4733
  45   2.0000      -0.524970       -14.2851
  46   2.0000      -0.521753       -14.1976
  47   2.0000      -0.514619       -14.0035
  48   2.0000      -0.503863       -13.7108
  49   2.0000      -0.494400       -13.4533
  50   2.0000      -0.488061       -13.2808
  51   2.0000      -0.477728       -12.9996
  52   2.0000      -0.466353       -12.6901
  53   2.0000      -0.461925       -12.5696
  54   2.0000      -0.454402       -12.3649
  55   2.0000      -0.448289       -12.1986
  56   2.0000      -0.443485       -12.0679
  57   2.0000      -0.437548       -11.9063
  58   2.0000      -0.430459       -11.7134
  59   2.0000      -0.430068       -11.7027
  60   2.0000      -0.421028       -11.4568
  61   2.0000      -0.416013       -11.3203
  62   2.0000      -0.406359       -11.0576
  63   2.0000      -0.354126        -9.6363
  64   2.0000      -0.330829        -9.0023
  65   2.0000      -0.330348        -8.9892
  66   2.0000      -0.280918        -7.6442
  67   0.0000       0.022325         0.6075
  68   0.0000       0.075113         2.0439
  69   0.0000       0.108038         2.9399
  70   0.0000       0.116267         3.1638
  71   0.0000       0.128181         3.4880

MULLIKEN ATOMIC CHARGES
-----------------------
   0 S :    0.107659
   1 C :   -0.116554
   2 C :   -0.084355
   3 C :   -0.032015
   4 C :   -0.104068
   5 H :    0.019560
   6 C :    0.071899
   7 H :    0.009329
   8 H :    0.032673
   9 C :   -0.020551
  10 H :    0.010550
  11 H :    0.034824
  12 C :   -0.087752
  13 H :    0.060376
  14 H :    0.024681
  15 H :    0.011229
  16 S :    0.108485
  17 C :   -0.107112
  18 C :   -0.072380
  19 C :   -0.042741
  20 C :   -0.124570
  21 H :    0.037014
  22 C :    0.070394
  23 H :    0.043646
  24 H :    0.028334
  25 C :   -0.097382
  26 H :    0.041577
  27 H :    0.032889
  28 C :   -0.087155
  29 H :    0.047683
  30 H :    0.047670
  31 H :    0.026289
  32 H :    0.047833
  33 H :    0.062041
Sum of atomic charges:    0.0000000

LOEWDIN ATOMIC CHARGES
----------------------
   0 S :    0.411029
   1 C :   -0.206170
   2 C :   -0.049957
   3 C :   -0.079059
   4 C :   -0.188667
   5 H :    0.030652
   6 C :   -0.022577
   7 H :    0.026920
   8 H :    0.032069
   9 C :   -0.031814
  10 H :    0.016628
  11 H :    0.023380
  12 C :   -0.077702
  13 H :    0.040841
  14 H :    0.018431
  15 H :    0.021464
  16 S :    0.422636
  17 C :   -0.199120
  18 C :   -0.070223
  19 C :   -0.066752
  20 C :   -0.195515
  21 H :    0.035156
  22 C :   -0.038239
  23 H :    0.037261
  24 H :    0.024530
  25 C :   -0.035718
  26 H :    0.029616
  27 H :    0.022200
  28 C :   -0.075370
  29 H :    0.030978
  30 H :    0.030384
  31 H :    0.022798
  32 H :    0.032173
  33 H :    0.027733

  Mayer bond orders larger than 0.100000
B(  0-S ,  1-C ) :   1.1228 B(  0-S ,  4-C ) :   1.1287 B(  1-C ,  2-C ) :   1.6060
B(  1-C , 32-H ) :   0.9636 B(  2-C ,  3-C ) :   1.2437 B(  2-C ,  6-C ) :   1.0304
B(  3-C ,  4-C ) :   1.5728 B(  3-C ,  5-H ) :   0.9880 B(  4-C , 20-C ) :   1.0671
B(  6-C ,  7-H ) :   0.9196 B(  6-C ,  8-H ) :   0.9565 B(  6-C ,  9-C ) :   1.0632
B(  9-C , 10-H ) :   0.9512 B(  9-C , 11-H ) :   0.9607 B(  9-C , 12-C ) :   1.0817
B( 12-C , 13-H ) :   0.9709 B( 12-C , 14-H ) :   0.9729 B( 12-C , 15-H ) :   0.9666
B( 16-S , 17-C ) :   1.1763 B( 16-S , 20-C ) :   1.1493 B( 17-C , 18-C ) :   1.5522
B( 17-C , 20-C ) :   0.1100 B( 17-C , 33-H ) :   0.9721 B( 18-C , 19-C ) :   1.2769
B( 18-C , 21-H ) :   0.9851 B( 19-C , 20-C ) :   1.5396 B( 19-C , 22-C ) :   1.0336
B( 22-C , 23-H ) :   0.9305 B( 22-C , 24-H ) :   0.9336 B( 22-C , 25-C ) :   1.0605
B( 25-C , 26-H ) :   0.9579 B( 25-C , 27-H ) :   0.9555 B( 25-C , 28-C ) :   1.0772
B( 28-C , 29-H ) :   0.9765 B( 28-C , 30-H ) :   0.9750 B( 28-C , 31-H ) :   0.9751

Dispersion correction           -0.013335066
FINAL SINGLE POINT ENERGY     -1339.857180006749

DIPOLE MOMENT
-------------
                                X             Y             Z
Electronic contribution:     -6.27905      17.28261      -3.16430
Nuclear contribution   :      6.41815     -17.57796       3.06392
                        -----------------------------------------
Total Dipole Moment    :      0.13909      -0.29534      -0.10039
                        -----------------------------------------
Magnitude (a.u.)       :      0.34154
Magnitude (Debye)      :      0.86814

Rotational constants in cm-1:     0.019368     0.007592     0.006410
Rotational constants in MHz :   580.641053   227.615115   192.154594

                             ****ORCA TERMINATED NORMALLY****
TOTAL RUN TIME: 0 days 0 hours 0 minutes 20 seconds 895 msec
