                         Program Version 4.2.1 -  RELEASE  -
|  1> ! wB97X-D3 SP def2-SVP
|  2> %pal
|  3> nprocs 24
|  4> end
|  5>
|  6> * xyz 0 1
|  7> S 	 -142.835 	 8.65339 	 3.46766
|  8> C 	 -142.419 	 8.16586 	 1.767
|  9> C 	 -142.572 	 6.78333 	 1.61422
| 10> C 	 -143.06 	 6.19044 	 2.84075
| 11> C 	 -143.156 	 7.03484 	 3.92246
| 12> H 	 -143.182 	 5.15464 	 3.11695
| 13> C 	 -142.011 	 5.99723 	 0.473855
| 14> H 	 -141.729 	 6.73578 	 -0.330657
| 15> H 	 -142.814 	 5.46036 	 0.011175
| 16> C 	 -140.813 	 5.03496 	 0.879497
| 17> H 	 -140.037 	 5.57812 	 1.4233
| 18> H 	 -141.155 	 4.28501 	 1.62507
| 19> C 	 -140.209 	 4.45491 	 -0.37241
| 20> H 	 -140.996 	 3.92647 	 -0.961944
| 21> H 	 -139.707 	 5.26965 	 -0.973364
| 22> H 	 -139.416 	 3.6626 	 -0.187362
| 23> S 	 -145.288 	 6.43093 	 5.62565
| 24> C 	 -145.071 	 6.6175 	 7.32217
| 25> C 	 -143.696 	 6.87989 	 7.63209
| 26> C 	 -142.83 	 6.90895 	 6.51553
| 27> C 	 -143.534 	 6.75992 	 5.29593
| 28> H 	 -143.387 	 7.01386 	 8.64864
| 29> C 	 -141.401 	 7.16113 	 6.61067
| 30> H 	 -141.23 	 7.62417 	 7.64192
| 31> H 	 -141.126 	 7.93193 	 5.88993
| 32> C 	 -140.427 	 5.96248 	 6.47902
| 33> H 	 -140.665 	 5.34775 	 5.59784
| 34> H 	 -140.595 	 5.36184 	 7.32116
| 35> C 	 -138.951 	 6.46506 	 6.52621
| 36> H 	 -138.159 	 5.77602 	 6.44046
| 37> H 	 -138.862 	 6.9362 	 7.54481
| 38> H 	 -138.707 	 7.23631 	 5.82323
| 39> H 	 -142.058 	 8.82919 	 1.07629
| 40> H 	 -145.776 	 6.56079 	 8.14053
| 41> *
| 42>
| 43>                          ****END OF INPUT****

CARTESIAN COORDINATES (ANGSTROEM)
---------------------------------
  S    -142.835000    8.653390    3.467660
  C    -142.419000    8.165860    1.767000
  C    -142.572000    6.783330    1.614220
  C    -143.060000    6.190440    2.840750
  C    -143.156000    7.034840    3.922460
  H    -143.182000    5.154640    3.116950
  C    -142.011000    5.997230    0.473855
  H    -141.729000    6.735780   -0.330657
  H    -142.814000    5.460360    0.011175
  C    -140.813000    5.034960    0.879497
  H    -140.037000    5.578120    1.423300
  H    -141.155000    4.285010    1.625070
  C    -140.209000    4.454910   -0.372410
  H    -140.996000    3.926470   -0.961944
  H    -139.707000    5.269650   -0.973364
  H    -139.416000    3.662600   -0.187362
  S    -145.288000    6.430930    5.625650
  C    -145.071000    6.617500    7.322170
  C    -143.696000    6.879890    7.632090
  C    -142.830000    6.908950    6.515530
  C    -143.534000    6.759920    5.295930
  H    -143.387000    7.013860    8.648640
  C    -141.401000    7.161130    6.610670
  H    -141.230000    7.624170    7.641920
  H    -141.126000    7.931930    5.889930
  C    -140.427000    5.962480    6.479020
  H    -140.665000    5.347750    5.597840
  H    -140.595000    5.361840    7.321160
  C    -138.951000    6.465060    6.526210
  H    -138.159000    5.776020    6.440460
  H    -138.862000    6.936200    7.544810
  H    -138.707000    7.236310    5.823230
  H    -142.058000    8.829190    1.076290
  H    -145.776000    6.560790    8.140530

 Total Charge           Charge          ....    0
 Multiplicity           Mult            ....    1
 Number of Electrons    NEL             ....  134
 Basis Dimension        Dim             ....  322

ORBITAL ENERGIES
----------------

  NO   OCC          E(Eh)            E(eV)
   0   2.0000     -88.970761     -2421.0175
   1   2.0000     -88.962756     -2420.7997
   2   2.0000     -10.329558      -281.0816
   3   2.0000     -10.325627      -280.9746
   4   2.0000     -10.322102      -280.8787
   5   2.0000     -10.314493      -280.6716
   6   2.0000     -10.307073      -280.4697
   7   2.0000     -10.304328      -280.3950
   8   2.0000     -10.298084      -280.2251
   9   2.0000     -10.294600      -280.1303
  10   2.0000     -10.294387      -280.1245
  11   2.0000     -10.292694      -280.0784
  12   2.0000     -10.291124      -280.0357
  13   2.0000     -10.289714      -279.9973
  14   2.0000     -10.285981      -279.8958
  15   2.0000     -10.276327      -279.6331
  16   2.0000      -8.084445      -219.9889
  17   2.0000      -8.077117      -219.7895
  18   2.0000      -6.042888      -164.4353
  19   2.0000      -6.038920      -164.3274
  20   2.0000      -6.035641      -164.2381
  21   2.0000      -6.035499      -164.2343
  22   2.0000      -6.031592      -164.1280
  23   2.0000      -6.027951      -164.0289
  24   2.0000      -1.002096       -27.2684
  25   2.0000      -0.977813       -26.6077
  26   2.0000      -0.911094       -24.7921
  27   2.0000      -0.910054       -24.7638
  28   2.0000      -0.867463       -23.6049
  29   2.0000      -0.853335       -23.2204
  30   2.0000      -0.841926       -22.9100
  31   2.0000      -0.810436       -22.0531
  32   2.0000      -0.781537       -21.2667
  33   2.0000      -0.767228       -20.8773
  34   2.0000      -0.712550       -19.3895
  35   2.0000      -0.702046       -19.1036
  36   2.0000      -0.692894       -18.8546
  37   2.0000      -0.666775       -18.1439
  38   2.0000      -0.645753       -17.5718
  39   2.0000      -0.612269       -16.6607
  40   2.0000      -0.593293       -16.1443
  41   2.0000      -0.569881       -15.5073
  42   2.0000      -0.564144       -15.3512
  43   2.0000      -0.557392       -15.1674
  44   2.0000      -0.526273       -14.3206
  45   2.0000      -0.519560       -14.1380
  46   2.0000      -0.515578       -14.0296
  47   2.0000      -0.512036       -13.9332
  48   2.0000      -0.510079       -13.8800
  49   2.0000      -0.503220       -13.6933
  50   2.0000      -0.493704       -13.4344
  51   2.0000      -0.470943       -12.8150
  52   2.0000      -0.467883       -12.7317
  53   2.0000      -0.461853       -12.5677
  54   2.0000      -0.456338       -12.4176
  55   2.0000      -0.449744       -12.2381
  56   2.0000      -0.441042       -12.0014
  57   2.0000      -0.436970       -11.8906
  58   2.0000      -0.433469       -11.7953
  59   2.0000      -0.430311       -11.7094
  60   2.0000      -0.425552       -11.5799
  61   2.0000      -0.416799       -11.3417
  62   2.0000      -0.414496       -11.2790
  63   2.0000      -0.333190        -9.0666
  64   2.0000      -0.328791        -8.9469
  65   2.0000      -0.327220        -8.9041
  66   2.0000      -0.298136        -8.1127
  67   0.0000       0.031426         0.8551
  68   0.0000       0.055018         1.4971
  69   0.0000       0.107277         2.9191
  70   0.0000       0.118199         3.2164
  71   0.0000       0.125520         3.4156

MULLIKEN ATOMIC CHARGES
-----------------------
   0 S :    0.104190
   1 C :   -0.102980
   2 C :   -0.061470
   3 C :    0.035924
   4 C :   -0.171997
   5 H :    0.005701
   6 C :    0.055601
   7 H :    0.021960
   8 H :    0.028301
   9 C :   -0.069230
  10 H :    0.034784
  11 H :    0.039455
  12 C :   -0.082307
  13 H :    0.037590
  14 H :    0.046354
  15 H :    0.043780
  16 S :    0.130208
  17 C :   -0.084805
  18 C :   -0.055048
  19 C :    0.010946
  20 C :   -0.180031
  21 H :    0.009056
  22 C :    0.015342
  23 H :    0.022453
  24 H :    0.026956
  25 C :   -0.026396
  26 H :    0.035274
  27 H :    0.015686
  28 C :   -0.036915
  29 H :    0.026024
  30 H :    0.023876
  31 H :    0.027161
  32 H :    0.016934
  33 H :    0.057622
Sum of atomic charges:   -0.0000000

LOEWDIN ATOMIC CHARGES
----------------------
   0 S :    0.398334
   1 C :   -0.164862
   2 C :   -0.055940
   3 C :   -0.067959
   4 C :   -0.208378
   5 H :    0.029277
   6 C :   -0.032419
   7 H :    0.035093
   8 H :    0.028831
   9 C :   -0.041192
  10 H :    0.026778
  11 H :    0.028064
  12 C :   -0.077424
  13 H :    0.027507
  14 H :    0.032650
  15 H :    0.031464
  16 S :    0.413626
  17 C :   -0.197061
  18 C :   -0.072239
  19 C :   -0.051735
  20 C :   -0.195529
  21 H :    0.025445
  22 C :   -0.039364
  23 H :    0.036462
  24 H :    0.027634
  25 C :   -0.027484
  26 H :    0.024750
  27 H :    0.017468
  28 C :   -0.063909
  29 H :    0.018438
  30 H :    0.031519
  31 H :    0.022087
  32 H :    0.007469
  33 H :    0.032598

  Mayer bond orders larger than 0.100000
B(  0-S ,  1-C ) :   1.1273 B(  0-S ,  4-C ) :   1.1493 B(  1-C ,  2-C ) :   1.6114
B(  1-C , 32-H ) :   0.9836 B(  2-C ,  3-C ) :   1.1967 B(  2-C ,  6-C ) :   1.0432
B(  3-C ,  4-C ) :   1.6073 B(  3-C ,  5-H ) :   0.9918 B(  4-C , 20-C ) :   1.0343
B(  6-C ,  7-H ) :   0.9451 B(  6-C ,  8-H ) :   0.9285 B(  6-C ,  9-C ) :   1.0420
B(  9-C , 10-H ) :   0.9580 B(  9-C , 11-H ) :   0.9524 B(  9-C , 12-C ) :   1.0845
B( 12-C , 13-H ) :   0.9732 B( 12-C , 14-H ) :   0.9737 B( 12-C , 15-H ) :   0.9728
B( 16-S , 17-C ) :   1.1838 B( 16-S , 20-C ) :   1.1387 B( 17-C , 18-C ) :   1.5600
B( 17-C , 20-C ) :   0.1129 B( 17-C , 33-H ) :   0.9657 B( 18-C , 19-C ) :   1.2899
B( 18-C , 21-H ) :   0.9889 B( 19-C , 20-C ) :   1.5267 B( 19-C , 22-C ) :   1.0614
B( 22-C , 23-H ) :   0.9304 B( 22-C , 24-H ) :   0.9233 B( 22-C , 25-C ) :   1.0573
B( 25-C , 26-H ) :   0.9594 B( 25-C , 27-H ) :   0.9537 B( 25-C , 28-C ) :   1.0697
B( 28-C , 29-H ) :   0.9769 B( 28-C , 30-H ) :   0.9731 B( 28-C , 31-H ) :   0.9788

Dispersion correction           -0.014197264
FINAL SINGLE POINT ENERGY     -1339.875393830936

DIPOLE MOMENT
-------------
                                X             Y             Z
Electronic contribution:    -24.50268      11.03881       7.22313
Nuclear contribution   :     25.01243     -11.31289      -7.21778
                        -----------------------------------------
Total Dipole Moment    :      0.50975      -0.27408       0.00535
                        -----------------------------------------
Magnitude (a.u.)       :      0.57879
Magnitude (Debye)      :      1.47115

Rotational constants in cm-1:     0.017841     0.008543     0.007049
Rotational constants in MHz :   534.864404   256.105596   211.320164

                             ****ORCA TERMINATED NORMALLY****
TOTAL RUN TIME: 0 days 0 hours 0 minutes 20 seconds 284 msec
