                         Program Version 4.2.1 -  RELEASE  -
|  1> ! wB97X-D3 SP def2-SVP
|  2> %pal
|  3> nprocs 24
|  4> end
|  5>
|  6> * xyz 0 1
|  7> S 	 34.5548 	 -28.6698 	 -129.958
|  8> C 	 35.9784 	 -29.2443 	 -130.87
|  9> C 	 35.9456 	 -30.6272 	 -130.792
| 10> C 	 34.8891 	 -31.1364 	 -129.955
| 11> C 	 34.15 	 -30.1776 	 -129.235
| 12> H 	 34.7755 	 -32.1461 	 -129.747
| 13> C 	 37.0564 	 -31.5764 	 -131.349
| 14> H 	 37.743 	 -31.0712 	 -132.037
| 15> H 	 36.622 	 -32.3932 	 -131.967
| 16> C 	 37.9233 	 -32.2614 	 -130.347
| 17> H 	 37.4383 	 -33.0597 	 -129.868
| 18> H 	 38.7201 	 -32.8835 	 -130.815
| 19> C 	 38.5464 	 -31.3693 	 -129.252
| 20> H 	 37.8965 	 -31.1088 	 -128.399
| 21> H 	 39.251 	 -32.013 	 -128.746
| 22> H 	 39.1442 	 -30.5806 	 -129.629
| 23> S 	 31.71 	 -29.2915 	 -128.234
| 24> C 	 31.0938 	 -30.1408 	 -126.847
| 25> C 	 31.8591 	 -31.1902 	 -126.491
| 26> C 	 32.9461 	 -31.4382 	 -127.351
| 27> C 	 33.0885 	 -30.4234 	 -128.297
| 28> H 	 31.6731 	 -31.815 	 -125.642
| 29> C 	 33.8859 	 -32.5566 	 -126.925
| 30> H 	 34.1744 	 -32.6172 	 -125.866
| 31> H 	 34.8329 	 -32.3494 	 -127.459
| 32> C 	 33.4522 	 -33.9421 	 -127.383
| 33> H 	 34.4006 	 -34.4976 	 -127.34
| 34> H 	 33.1358 	 -33.9933 	 -128.43
| 35> C 	 32.3523 	 -34.6299 	 -126.493
| 36> H 	 32.5787 	 -34.8018 	 -125.463
| 37> H 	 32.0039 	 -35.638 	 -126.917
| 38> H 	 31.4356 	 -34 	 -126.478
| 39> H 	 36.6871 	 -28.6986 	 -131.517
| 40> H 	 30.2605 	 -29.9298 	 -126.254
| 41> *
| 42>
| 43>                          ****END OF INPUT****

CARTESIAN COORDINATES (ANGSTROEM)
---------------------------------
  S     34.554800  -28.669800  -129.958000
  C     35.978400  -29.244300  -130.870000
  C     35.945600  -30.627200  -130.792000
  C     34.889100  -31.136400  -129.955000
  C     34.150000  -30.177600  -129.235000
  H     34.775500  -32.146100  -129.747000
  C     37.056400  -31.576400  -131.349000
  H     37.743000  -31.071200  -132.037000
  H     36.622000  -32.393200  -131.967000
  C     37.923300  -32.261400  -130.347000
  H     37.438300  -33.059700  -129.868000
  H     38.720100  -32.883500  -130.815000
  C     38.546400  -31.369300  -129.252000
  H     37.896500  -31.108800  -128.399000
  H     39.251000  -32.013000  -128.746000
  H     39.144200  -30.580600  -129.629000
  S     31.710000  -29.291500  -128.234000
  C     31.093800  -30.140800  -126.847000
  C     31.859100  -31.190200  -126.491000
  C     32.946100  -31.438200  -127.351000
  C     33.088500  -30.423400  -128.297000
  H     31.673100  -31.815000  -125.642000
  C     33.885900  -32.556600  -126.925000
  H     34.174400  -32.617200  -125.866000
  H     34.832900  -32.349400  -127.459000
  C     33.452200  -33.942100  -127.383000
  H     34.400600  -34.497600  -127.340000
  H     33.135800  -33.993300  -128.430000
  C     32.352300  -34.629900  -126.493000
  H     32.578700  -34.801800  -125.463000
  H     32.003900  -35.638000  -126.917000
  H     31.435600  -34.000000  -126.478000
  H     36.687100  -28.698600  -131.517000
  H     30.260500  -29.929800  -126.254000

 Total Charge           Charge          ....    0
 Multiplicity           Mult            ....    1
 Number of Electrons    NEL             ....  134
 Basis Dimension        Dim             ....  322

ORBITAL ENERGIES
----------------

  NO   OCC          E(Eh)            E(eV)
   0   2.0000     -88.971391     -2421.0346
   1   2.0000     -88.965244     -2420.8674
   2   2.0000     -10.335377      -281.2399
   3   2.0000     -10.333441      -281.1872
   4   2.0000     -10.321317      -280.8573
   5   2.0000     -10.311200      -280.5820
   6   2.0000     -10.306303      -280.4488
   7   2.0000     -10.303660      -280.3768
   8   2.0000     -10.296929      -280.1937
   9   2.0000     -10.295199      -280.1466
  10   2.0000     -10.293877      -280.1106
  11   2.0000     -10.290317      -280.0138
  12   2.0000     -10.287443      -279.9356
  13   2.0000     -10.285483      -279.8822
  14   2.0000     -10.282056      -279.7890
  15   2.0000     -10.270742      -279.4811
  16   2.0000      -8.085683      -220.0226
  17   2.0000      -8.079724      -219.8605
  18   2.0000      -6.044281      -164.4733
  19   2.0000      -6.040374      -164.3669
  20   2.0000      -6.038410      -164.3135
  21   2.0000      -6.036252      -164.2548
  22   2.0000      -6.034163      -164.1979
  23   2.0000      -6.030370      -164.0947
  24   2.0000      -1.009787       -27.4777
  25   2.0000      -0.986236       -26.8368
  26   2.0000      -0.912571       -24.8323
  27   2.0000      -0.910640       -24.7798
  28   2.0000      -0.874479       -23.7958
  29   2.0000      -0.849665       -23.1206
  30   2.0000      -0.837722       -22.7956
  31   2.0000      -0.814584       -22.1660
  32   2.0000      -0.788738       -21.4627
  33   2.0000      -0.781130       -21.2556
  34   2.0000      -0.717038       -19.5116
  35   2.0000      -0.698314       -19.0021
  36   2.0000      -0.693346       -18.8669
  37   2.0000      -0.665171       -18.1002
  38   2.0000      -0.637761       -17.3544
  39   2.0000      -0.622495       -16.9389
  40   2.0000      -0.604663       -16.4537
  41   2.0000      -0.568450       -15.4683
  42   2.0000      -0.553187       -15.0530
  43   2.0000      -0.546865       -14.8810
  44   2.0000      -0.542448       -14.7608
  45   2.0000      -0.536875       -14.6091
  46   2.0000      -0.520392       -14.1606
  47   2.0000      -0.514865       -14.0102
  48   2.0000      -0.507191       -13.8014
  49   2.0000      -0.500775       -13.6268
  50   2.0000      -0.493182       -13.4202
  51   2.0000      -0.480856       -13.0847
  52   2.0000      -0.474864       -12.9217
  53   2.0000      -0.467296       -12.7158
  54   2.0000      -0.462241       -12.5782
  55   2.0000      -0.447652       -12.1812
  56   2.0000      -0.441611       -12.0168
  57   2.0000      -0.438790       -11.9401
  58   2.0000      -0.432972       -11.7818
  59   2.0000      -0.427701       -11.6383
  60   2.0000      -0.412355       -11.2207
  61   2.0000      -0.408929       -11.1275
  62   2.0000      -0.404895       -11.0178
  63   2.0000      -0.360479        -9.8091
  64   2.0000      -0.338045        -9.1987
  65   2.0000      -0.326296        -8.8790
  66   2.0000      -0.286310        -7.7909
  67   0.0000       0.016812         0.4575
  68   0.0000       0.080326         2.1858
  69   0.0000       0.103176         2.8076
  70   0.0000       0.119522         3.2524
  71   0.0000       0.125203         3.4070

MULLIKEN ATOMIC CHARGES
-----------------------
   0 S :    0.091023
   1 C :   -0.121252
   2 C :   -0.079255
   3 C :    0.039538
   4 C :   -0.126575
   5 H :   -0.025849
   6 C :    0.072453
   7 H :    0.016884
   8 H :    0.034127
   9 C :   -0.080049
  10 H :    0.000816
  11 H :    0.023789
  12 C :   -0.029548
  13 H :    0.046282
  14 H :    0.010395
  15 H :    0.024965
  16 S :    0.117303
  17 C :   -0.038581
  18 C :   -0.031822
  19 C :   -0.023669
  20 C :   -0.140195
  21 H :    0.010206
  22 C :    0.024216
  23 H :    0.042291
  24 H :    0.018555
  25 C :   -0.067876
  26 H :    0.031755
  27 H :    0.040055
  28 C :   -0.076917
  29 H :    0.026924
  30 H :    0.044172
  31 H :    0.034321
  32 H :    0.062810
  33 H :    0.028708
Sum of atomic charges:    0.0000000

LOEWDIN ATOMIC CHARGES
----------------------
   0 S :    0.402483
   1 C :   -0.193706
   2 C :   -0.060156
   3 C :   -0.065048
   4 C :   -0.194653
   5 H :    0.012086
   6 C :   -0.035197
   7 H :    0.027024
   8 H :    0.036858
   9 C :   -0.049408
  10 H :    0.013282
  11 H :    0.031255
  12 C :   -0.066248
  13 H :    0.032597
  14 H :    0.025615
  15 H :    0.018637
  16 S :    0.398678
  17 C :   -0.174751
  18 C :   -0.067350
  19 C :   -0.050864
  20 C :   -0.181950
  21 H :    0.028205
  22 C :   -0.034592
  23 H :    0.036351
  24 H :    0.030858
  25 C :   -0.040214
  26 H :    0.026809
  27 H :    0.027334
  28 C :   -0.077541
  29 H :    0.017411
  30 H :    0.035772
  31 H :    0.026459
  32 H :    0.041764
  33 H :    0.022198

  Mayer bond orders larger than 0.100000
B(  0-S ,  1-C ) :   1.1254 B(  0-S ,  4-C ) :   1.1530 B(  1-C ,  2-C ) :   1.5942
B(  1-C ,  4-C ) :   0.1005 B(  1-C , 32-H ) :   0.9676 B(  2-C ,  3-C ) :   1.2608
B(  2-C ,  6-C ) :   1.0201 B(  3-C ,  4-C ) :   1.5107 B(  3-C ,  5-H ) :   1.0028
B(  4-C , 20-C ) :   1.1080 B(  6-C ,  7-H ) :   0.9474 B(  6-C ,  8-H ) :   0.9389
B(  6-C ,  9-C ) :   1.0829 B(  9-C , 10-H ) :   0.9470 B(  9-C , 11-H ) :   0.9515
B(  9-C , 12-C ) :   1.0823 B( 12-C , 13-H ) :   0.9708 B( 12-C , 14-H ) :   0.9680
B( 12-C , 15-H ) :   0.9784 B( 16-S , 17-C ) :   1.1352 B( 16-S , 20-C ) :   1.1245
B( 17-C , 18-C ) :   1.6271 B( 17-C , 33-H ) :   0.9667 B( 18-C , 19-C ) :   1.2524
B( 18-C , 21-H ) :   0.9850 B( 19-C , 20-C ) :   1.5862 B( 19-C , 22-C ) :   1.0357
B( 22-C , 23-H ) :   0.9459 B( 22-C , 24-H ) :   0.9286 B( 22-C , 25-C ) :   1.0722
B( 25-C , 26-H ) :   0.9579 B( 25-C , 27-H ) :   0.9530 B( 25-C , 28-C ) :   1.0687
B( 28-C , 29-H ) :   0.9775 B( 28-C , 30-H ) :   0.9739 B( 28-C , 31-H ) :   0.9715

Dispersion correction           -0.014908019
FINAL SINGLE POINT ENERGY     -1339.863203620820

DIPOLE MOMENT
-------------
                                X             Y             Z
Electronic contribution:    -15.75143      24.94430      -4.79308
Nuclear contribution   :     16.08531     -25.67961       5.06179
                        -----------------------------------------
Total Dipole Moment    :      0.33389      -0.73531       0.26871
                        -----------------------------------------
Magnitude (a.u.)       :      0.85110
Magnitude (Debye)      :      2.16332

Rotational constants in cm-1:     0.018043     0.009771     0.006819
Rotational constants in MHz :   540.911925   292.916501   204.417176

                             ****ORCA TERMINATED NORMALLY****
TOTAL RUN TIME: 0 days 0 hours 0 minutes 22 seconds 165 msec
