                         Program Version 4.2.1 -  RELEASE  -
|  1> ! wB97X-D3 SP def2-SVP
|  2> %pal
|  3> nprocs 24
|  4> end
|  5>
|  6> * xyz 0 1
|  7> S 	 -51.2716 	 -48.8304 	 -76.8798
|  8> C 	 -50.6517 	 -47.4624 	 -76.0356
|  9> C 	 -49.5034 	 -46.9307 	 -76.5771
| 10> C 	 -49.0761 	 -47.7603 	 -77.6325
| 11> C 	 -49.8799 	 -48.8577 	 -77.9323
| 12> H 	 -48.0782 	 -47.6994 	 -78.1072
| 13> C 	 -48.6657 	 -45.784 	 -76.1312
| 14> H 	 -47.6962 	 -45.8848 	 -76.6672
| 15> H 	 -48.3853 	 -46.1499 	 -75.1122
| 16> C 	 -49.2788 	 -44.3517 	 -76.1084
| 17> H 	 -48.4058 	 -43.6541 	 -76.205
| 18> H 	 -49.756 	 -44.127 	 -77.0974
| 19> C 	 -50.3492 	 -44.0037 	 -75.0519
| 20> H 	 -51.1699 	 -44.7932 	 -75.0712
| 21> H 	 -50.0857 	 -43.9101 	 -74.0156
| 22> H 	 -50.6911 	 -43.0623 	 -75.4129
| 23> S 	 -49.3742 	 -51.6118 	 -78.0576
| 24> C 	 -48.8753 	 -52.2877 	 -79.5814
| 25> C 	 -49.0182 	 -51.3862 	 -80.588
| 26> C 	 -49.3319 	 -50.073 	 -80.1402
| 27> C 	 -49.5646 	 -49.9997 	 -78.7873
| 28> H 	 -48.8849 	 -51.5544 	 -81.6421
| 29> C 	 -49.5011 	 -48.9449 	 -81.125
| 30> H 	 -48.7097 	 -48.9569 	 -81.9219
| 31> H 	 -49.4634 	 -48.0155 	 -80.5454
| 32> C 	 -50.7838 	 -48.833 	 -81.8139
| 33> H 	 -51.6078 	 -48.8455 	 -81.0382
| 34> H 	 -50.9826 	 -49.7032 	 -82.4346
| 35> C 	 -50.8608 	 -47.6554 	 -82.8021
| 36> H 	 -50.2101 	 -47.5491 	 -83.6964
| 37> H 	 -50.8995 	 -46.7401 	 -82.28
| 38> H 	 -51.8138 	 -47.6122 	 -83.2575
| 39> H 	 -51.2553 	 -47.101 	 -75.2313
| 40> H 	 -48.6867 	 -53.3436 	 -79.7557
| 41> *
| 42>
| 43>                          ****END OF INPUT****

CARTESIAN COORDINATES (ANGSTROEM)
---------------------------------
  S    -51.271600  -48.830400  -76.879800
  C    -50.651700  -47.462400  -76.035600
  C    -49.503400  -46.930700  -76.577100
  C    -49.076100  -47.760300  -77.632500
  C    -49.879900  -48.857700  -77.932300
  H    -48.078200  -47.699400  -78.107200
  C    -48.665700  -45.784000  -76.131200
  H    -47.696200  -45.884800  -76.667200
  H    -48.385300  -46.149900  -75.112200
  C    -49.278800  -44.351700  -76.108400
  H    -48.405800  -43.654100  -76.205000
  H    -49.756000  -44.127000  -77.097400
  C    -50.349200  -44.003700  -75.051900
  H    -51.169900  -44.793200  -75.071200
  H    -50.085700  -43.910100  -74.015600
  H    -50.691100  -43.062300  -75.412900
  S    -49.374200  -51.611800  -78.057600
  C    -48.875300  -52.287700  -79.581400
  C    -49.018200  -51.386200  -80.588000
  C    -49.331900  -50.073000  -80.140200
  C    -49.564600  -49.999700  -78.787300
  H    -48.884900  -51.554400  -81.642100
  C    -49.501100  -48.944900  -81.125000
  H    -48.709700  -48.956900  -81.921900
  H    -49.463400  -48.015500  -80.545400
  C    -50.783800  -48.833000  -81.813900
  H    -51.607800  -48.845500  -81.038200
  H    -50.982600  -49.703200  -82.434600
  C    -50.860800  -47.655400  -82.802100
  H    -50.210100  -47.549100  -83.696400
  H    -50.899500  -46.740100  -82.280000
  H    -51.813800  -47.612200  -83.257500
  H    -51.255300  -47.101000  -75.231300
  H    -48.686700  -53.343600  -79.755700

 Total Charge           Charge          ....    0
 Multiplicity           Mult            ....    1
 Number of Electrons    NEL             ....  134
 Basis Dimension        Dim             ....  322

ORBITAL ENERGIES
----------------

  NO   OCC          E(Eh)            E(eV)
   0   2.0000     -88.964963     -2420.8597
   1   2.0000     -88.963040     -2420.8074
   2   2.0000     -10.326459      -280.9972
   3   2.0000     -10.325704      -280.9767
   4   2.0000     -10.315636      -280.7027
   5   2.0000     -10.310081      -280.5516
   6   2.0000     -10.300063      -280.2790
   7   2.0000     -10.298164      -280.2273
   8   2.0000     -10.297804      -280.2175
   9   2.0000     -10.296841      -280.1913
  10   2.0000     -10.292680      -280.0781
  11   2.0000     -10.287925      -279.9487
  12   2.0000     -10.285450      -279.8813
  13   2.0000     -10.284755      -279.8624
  14   2.0000     -10.283753      -279.8351
  15   2.0000     -10.270709      -279.4802
  16   2.0000      -8.080430      -219.8797
  17   2.0000      -8.077705      -219.8055
  18   2.0000      -6.038752      -164.3228
  19   2.0000      -6.036325      -164.2568
  20   2.0000      -6.034724      -164.2132
  21   2.0000      -6.032239      -164.1456
  22   2.0000      -6.031473      -164.1247
  23   2.0000      -6.028330      -164.0392
  24   2.0000      -1.008143       -27.4330
  25   2.0000      -0.988291       -26.8928
  26   2.0000      -0.915983       -24.9252
  27   2.0000      -0.909320       -24.7439
  28   2.0000      -0.867913       -23.6171
  29   2.0000      -0.854828       -23.2611
  30   2.0000      -0.848467       -23.0880
  31   2.0000      -0.811864       -22.0920
  32   2.0000      -0.787302       -21.4236
  33   2.0000      -0.777296       -21.1513
  34   2.0000      -0.706724       -19.2309
  35   2.0000      -0.701716       -19.0947
  36   2.0000      -0.690729       -18.7957
  37   2.0000      -0.662488       -18.0272
  38   2.0000      -0.646048       -17.5798
  39   2.0000      -0.614466       -16.7205
  40   2.0000      -0.600268       -16.3341
  41   2.0000      -0.569736       -15.5033
  42   2.0000      -0.567319       -15.4375
  43   2.0000      -0.543960       -14.8019
  44   2.0000      -0.529683       -14.4134
  45   2.0000      -0.527888       -14.3646
  46   2.0000      -0.517009       -14.0685
  47   2.0000      -0.513389       -13.9700
  48   2.0000      -0.509714       -13.8700
  49   2.0000      -0.493803       -13.4371
  50   2.0000      -0.485267       -13.2048
  51   2.0000      -0.481539       -13.1033
  52   2.0000      -0.478979       -13.0337
  53   2.0000      -0.464301       -12.6343
  54   2.0000      -0.460444       -12.5293
  55   2.0000      -0.453386       -12.3373
  56   2.0000      -0.443193       -12.0599
  57   2.0000      -0.436954       -11.8901
  58   2.0000      -0.430642       -11.7184
  59   2.0000      -0.425801       -11.5866
  60   2.0000      -0.420406       -11.4398
  61   2.0000      -0.410405       -11.1677
  62   2.0000      -0.405420       -11.0320
  63   2.0000      -0.343253        -9.3404
  64   2.0000      -0.330409        -8.9909
  65   2.0000      -0.328317        -8.9339
  66   2.0000      -0.295822        -8.0497
  67   0.0000       0.034655         0.9430
  68   0.0000       0.065447         1.7809
  69   0.0000       0.120206         3.2710
  70   0.0000       0.126318         3.4373
  71   0.0000       0.131054         3.5662

MULLIKEN ATOMIC CHARGES
-----------------------
   0 S :    0.115704
   1 C :   -0.151342
   2 C :   -0.053599
   3 C :    0.019822
   4 C :   -0.195401
   5 H :    0.025317
   6 C :    0.051593
   7 H :    0.023252
   8 H :    0.043263
   9 C :   -0.082485
  10 H :    0.034115
  11 H :    0.032245
  12 C :   -0.034302
  13 H :    0.037278
  14 H :    0.036188
  15 H :    0.032897
  16 S :    0.105301
  17 C :   -0.083042
  18 C :   -0.009912
  19 C :   -0.034121
  20 C :   -0.157429
  21 H :    0.009621
  22 C :    0.074525
  23 H :    0.025263
  24 H :    0.016323
  25 C :   -0.078580
  26 H :    0.035464
  27 H :    0.014135
  28 C :   -0.020968
  29 H :    0.038998
  30 H :    0.013496
  31 H :    0.009794
  32 H :    0.045125
  33 H :    0.061464
Sum of atomic charges:   -0.0000000

LOEWDIN ATOMIC CHARGES
----------------------
   0 S :    0.421198
   1 C :   -0.199548
   2 C :   -0.069963
   3 C :   -0.062806
   4 C :   -0.206908
   5 H :    0.035727
   6 C :   -0.042746
   7 H :    0.035903
   8 H :    0.042681
   9 C :   -0.046946
  10 H :    0.030550
  11 H :    0.031345
  12 C :   -0.063413
  13 H :    0.033197
  14 H :    0.021335
  15 H :    0.027699
  16 S :    0.395532
  17 C :   -0.183432
  18 C :   -0.068965
  19 C :   -0.054712
  20 C :   -0.194238
  21 H :    0.029272
  22 C :   -0.040275
  23 H :    0.033131
  24 H :    0.032249
  25 C :   -0.041942
  26 H :    0.033377
  27 H :    0.017368
  28 C :   -0.070399
  29 H :    0.032605
  30 H :    0.019439
  31 H :    0.024651
  32 H :    0.016215
  33 H :    0.032821

  Mayer bond orders larger than 0.100000
B(  0-S ,  1-C ) :   1.1637 B(  0-S ,  4-C ) :   1.1620 B(  1-C ,  2-C ) :   1.5638
B(  1-C ,  4-C ) :   0.1014 B(  1-C , 32-H ) :   0.9718 B(  2-C ,  3-C ) :   1.2804
B(  2-C ,  6-C ) :   1.0075 B(  3-C ,  4-C ) :   1.5663 B(  3-C ,  5-H ) :   0.9807
B(  4-C , 20-C ) :   1.0252 B(  6-C ,  7-H ) :   0.9403 B(  6-C ,  8-H ) :   0.9384
B(  6-C ,  9-C ) :   1.0520 B(  9-C , 10-H ) :   0.9564 B(  9-C , 11-H ) :   0.9602
B(  9-C , 12-C ) :   1.0624 B( 12-C , 13-H ) :   0.9714 B( 12-C , 14-H ) :   0.9780
B( 12-C , 15-H ) :   0.9732 B( 16-S , 17-C ) :   1.1537 B( 16-S , 20-C ) :   1.1263
B( 17-C , 18-C ) :   1.6006 B( 17-C , 33-H ) :   0.9652 B( 18-C , 19-C ) :   1.2493
B( 18-C , 21-H ) :   0.9900 B( 19-C , 20-C ) :   1.6148 B( 19-C , 22-C ) :   1.0546
B( 22-C , 23-H ) :   0.9290 B( 22-C , 24-H ) :   0.9214 B( 22-C , 25-C ) :   1.0850
B( 25-C , 26-H ) :   0.9475 B( 25-C , 27-H ) :   0.9507 B( 25-C , 28-C ) :   1.0828
B( 28-C , 29-H ) :   0.9735 B( 28-C , 30-H ) :   0.9712 B( 28-C , 31-H ) :   0.9659

Dispersion correction           -0.013893271
FINAL SINGLE POINT ENERGY     -1339.874719457506

DIPOLE MOMENT
-------------
                                X             Y             Z
Electronic contribution:     -0.29162     -24.40167       8.86142
Nuclear contribution   :      0.45005      24.89642      -9.09951
                        -----------------------------------------
Total Dipole Moment    :      0.15843       0.49475      -0.23809
                        -----------------------------------------
Magnitude (a.u.)       :      0.57146
Magnitude (Debye)      :      1.45253

Rotational constants in cm-1:     0.019614     0.007908     0.006407
Rotational constants in MHz :   588.013497   237.080251   192.073101

                             ****ORCA TERMINATED NORMALLY****
TOTAL RUN TIME: 0 days 0 hours 0 minutes 21 seconds 313 msec
