                         Program Version 4.2.1 -  RELEASE  -
|  1> ! wB97X-D3 SP def2-SVP
|  2> %pal
|  3> nprocs 24
|  4> end
|  5>
|  6> * xyz 0 1
|  7> S 	 25.7844 	 -1.43306 	 -112.355
|  8> C 	 24.9328 	 -1.66376 	 -113.85
|  9> C 	 23.8853 	 -0.770945 	 -114.007
| 10> C 	 23.9265 	 0.201266 	 -112.957
| 11> C 	 24.8423 	 0.0270549 	 -111.949
| 12> H 	 23.3454 	 1.12751 	 -112.954
| 13> C 	 22.8638 	 -0.922868 	 -115.079
| 14> H 	 22.9158 	 -1.96458 	 -115.469
| 15> H 	 23.2284 	 -0.308724 	 -115.96
| 16> C 	 21.4807 	 -0.519717 	 -114.692
| 17> H 	 21.2952 	 -0.742826 	 -113.665
| 18> H 	 21.3776 	 0.572961 	 -114.794
| 19> C 	 20.3701 	 -1.17825 	 -115.502
| 20> H 	 19.4326 	 -0.605166 	 -115.317
| 21> H 	 20.5557 	 -1.21531 	 -116.548
| 22> H 	 20.1584 	 -2.11012 	 -115.093
| 23> S 	 24.4542 	 0.0730861 	 -109.202
| 24> C 	 24.8229 	 1.49886 	 -108.427
| 25> C 	 25.2762 	 2.50238 	 -109.205
| 26> C 	 25.3325 	 2.07905 	 -110.551
| 27> C 	 25.0374 	 0.772819 	 -110.726
| 28> H 	 25.3357 	 3.55358 	 -108.782
| 29> C 	 25.5281 	 3.17743 	 -111.605
| 30> H 	 25.6686 	 2.71717 	 -112.545
| 31> H 	 26.4202 	 3.84862 	 -111.393
| 32> C 	 24.3202 	 4.05412 	 -111.86
| 33> H 	 23.522 	 3.52566 	 -112.41
| 34> H 	 24.7024 	 4.85731 	 -112.515
| 35> C 	 23.6815 	 4.70166 	 -110.624
| 36> H 	 24.4613 	 5.00267 	 -109.92
| 37> H 	 23.0324 	 3.98517 	 -110.142
| 38> H 	 22.9307 	 5.55802 	 -110.806
| 39> H 	 25.1573 	 -2.42783 	 -114.549
| 40> H 	 24.6519 	 1.61249 	 -107.358
| 41> *
| 42>
| 43>                          ****END OF INPUT****

CARTESIAN COORDINATES (ANGSTROEM)
---------------------------------
  S     25.784400   -1.433060  -112.355000
  C     24.932800   -1.663760  -113.850000
  C     23.885300   -0.770945  -114.007000
  C     23.926500    0.201266  -112.957000
  C     24.842300    0.027055  -111.949000
  H     23.345400    1.127510  -112.954000
  C     22.863800   -0.922868  -115.079000
  H     22.915800   -1.964580  -115.469000
  H     23.228400   -0.308724  -115.960000
  C     21.480700   -0.519717  -114.692000
  H     21.295200   -0.742826  -113.665000
  H     21.377600    0.572961  -114.794000
  C     20.370100   -1.178250  -115.502000
  H     19.432600   -0.605166  -115.317000
  H     20.555700   -1.215310  -116.548000
  H     20.158400   -2.110120  -115.093000
  S     24.454200    0.073086  -109.202000
  C     24.822900    1.498860  -108.427000
  C     25.276200    2.502380  -109.205000
  C     25.332500    2.079050  -110.551000
  C     25.037400    0.772819  -110.726000
  H     25.335700    3.553580  -108.782000
  C     25.528100    3.177430  -111.605000
  H     25.668600    2.717170  -112.545000
  H     26.420200    3.848620  -111.393000
  C     24.320200    4.054120  -111.860000
  H     23.522000    3.525660  -112.410000
  H     24.702400    4.857310  -112.515000
  C     23.681500    4.701660  -110.624000
  H     24.461300    5.002670  -109.920000
  H     23.032400    3.985170  -110.142000
  H     22.930700    5.558020  -110.806000
  H     25.157300   -2.427830  -114.549000
  H     24.651900    1.612490  -107.358000

 Total Charge           Charge          ....    0
 Multiplicity           Mult            ....    1
 Number of Electrons    NEL             ....  134
 Basis Dimension        Dim             ....  322

ORBITAL ENERGIES
----------------

  NO   OCC          E(Eh)            E(eV)
   0   2.0000     -88.963599     -2420.8226
   1   2.0000     -88.960367     -2420.7347
   2   2.0000     -10.326674      -281.0031
   3   2.0000     -10.321200      -280.8541
   4   2.0000     -10.309034      -280.5231
   5   2.0000     -10.307761      -280.4884
   6   2.0000     -10.299069      -280.2519
   7   2.0000     -10.298250      -280.2296
   8   2.0000     -10.294611      -280.1306
   9   2.0000     -10.294353      -280.1236
  10   2.0000     -10.291883      -280.0564
  11   2.0000     -10.289401      -279.9888
  12   2.0000     -10.288099      -279.9534
  13   2.0000     -10.281622      -279.7772
  14   2.0000     -10.281014      -279.7606
  15   2.0000     -10.272254      -279.5222
  16   2.0000      -8.080160      -219.8723
  17   2.0000      -8.075000      -219.7319
  18   2.0000      -6.038481      -164.3154
  19   2.0000      -6.034553      -164.2085
  20   2.0000      -6.033480      -164.1793
  21   2.0000      -6.030851      -164.1078
  22   2.0000      -6.029467      -164.0701
  23   2.0000      -6.025858      -163.9719
  24   2.0000      -1.014409       -27.6035
  25   2.0000      -0.988517       -26.8989
  26   2.0000      -0.918354       -24.9897
  27   2.0000      -0.914010       -24.8715
  28   2.0000      -0.874394       -23.7935
  29   2.0000      -0.850396       -23.1405
  30   2.0000      -0.845342       -23.0029
  31   2.0000      -0.816914       -22.2294
  32   2.0000      -0.789843       -21.4927
  33   2.0000      -0.774291       -21.0695
  34   2.0000      -0.713491       -19.4151
  35   2.0000      -0.694672       -18.9030
  36   2.0000      -0.684816       -18.6348
  37   2.0000      -0.658677       -17.9235
  38   2.0000      -0.645137       -17.5551
  39   2.0000      -0.617235       -16.7958
  40   2.0000      -0.596374       -16.2282
  41   2.0000      -0.576826       -15.6962
  42   2.0000      -0.566928       -15.4269
  43   2.0000      -0.562083       -15.2951
  44   2.0000      -0.536661       -14.6033
  45   2.0000      -0.532460       -14.4890
  46   2.0000      -0.513704       -13.9786
  47   2.0000      -0.511032       -13.9059
  48   2.0000      -0.509212       -13.8564
  49   2.0000      -0.501106       -13.6358
  50   2.0000      -0.484243       -13.1769
  51   2.0000      -0.479910       -13.0590
  52   2.0000      -0.475741       -12.9456
  53   2.0000      -0.472032       -12.8447
  54   2.0000      -0.456097       -12.4110
  55   2.0000      -0.446853       -12.1595
  56   2.0000      -0.445553       -12.1241
  57   2.0000      -0.438665       -11.9367
  58   2.0000      -0.436413       -11.8754
  59   2.0000      -0.421063       -11.4577
  60   2.0000      -0.420316       -11.4374
  61   2.0000      -0.412918       -11.2361
  62   2.0000      -0.410468       -11.1694
  63   2.0000      -0.338903        -9.2220
  64   2.0000      -0.334743        -9.1088
  65   2.0000      -0.323995        -8.8164
  66   2.0000      -0.299758        -8.1568
  67   0.0000       0.043660         1.1880
  68   0.0000       0.063045         1.7155
  69   0.0000       0.115166         3.1338
  70   0.0000       0.124932         3.3996
  71   0.0000       0.131702         3.5838

MULLIKEN ATOMIC CHARGES
-----------------------
   0 S :    0.103544
   1 C :   -0.111112
   2 C :   -0.103385
   3 C :    0.037870
   4 C :   -0.180930
   5 H :    0.004198
   6 C :    0.070009
   7 H :    0.022338
   8 H :    0.044870
   9 C :   -0.089271
  10 H :    0.029005
  11 H :    0.031345
  12 C :   -0.015384
  13 H :    0.027420
  14 H :    0.030262
  15 H :    0.020114
  16 S :    0.124681
  17 C :   -0.090860
  18 C :   -0.054568
  19 C :   -0.027016
  20 C :   -0.161182
  21 H :    0.042430
  22 C :    0.083692
  23 H :    0.014055
  24 H :    0.043014
  25 C :   -0.086655
  26 H :    0.032480
  27 H :    0.037131
  28 C :   -0.074111
  29 H :    0.027439
  30 H :    0.037096
  31 H :    0.043568
  32 H :    0.034481
  33 H :    0.053431
Sum of atomic charges:    0.0000000

LOEWDIN ATOMIC CHARGES
----------------------
   0 S :    0.393311
   1 C :   -0.189578
   2 C :   -0.069363
   3 C :   -0.062748
   4 C :   -0.190591
   5 H :    0.029158
   6 C :   -0.040114
   7 H :    0.032969
   8 H :    0.041464
   9 C :   -0.044180
  10 H :    0.023382
  11 H :    0.025988
  12 C :   -0.054430
  13 H :    0.033197
  14 H :    0.020209
  15 H :    0.017447
  16 S :    0.431267
  17 C :   -0.201186
  18 C :   -0.087174
  19 C :   -0.048819
  20 C :   -0.203963
  21 H :    0.045488
  22 C :   -0.028615
  23 H :    0.025971
  24 H :    0.040039
  25 C :   -0.041351
  26 H :    0.022704
  27 H :    0.029220
  28 C :   -0.076574
  29 H :    0.018935
  30 H :    0.024016
  31 H :    0.035113
  32 H :    0.020479
  33 H :    0.028327

  Mayer bond orders larger than 0.100000
B(  0-S ,  1-C ) :   1.1538 B(  0-S ,  4-C ) :   1.1367 B(  1-C ,  2-C ) :   1.6068
B(  1-C ,  4-C ) :   0.1007 B(  1-C , 32-H ) :   0.9714 B(  2-C ,  3-C ) :   1.2383
B(  2-C ,  6-C ) :   1.0266 B(  3-C ,  4-C ) :   1.5961 B(  3-C ,  5-H ) :   0.9912
B(  4-C , 20-C ) :   1.0225 B(  6-C ,  7-H ) :   0.9471 B(  6-C ,  8-H ) :   0.9176
B(  6-C ,  9-C ) :   1.0685 B(  9-C , 10-H ) :   0.9635 B(  9-C , 11-H ) :   0.9447
B(  9-C , 12-C ) :   1.0948 B( 12-C , 13-H ) :   0.9718 B( 12-C , 14-H ) :   0.9753
B( 12-C , 15-H ) :   0.9747 B( 16-S , 17-C ) :   1.1870 B( 16-S , 20-C ) :   1.1292
B( 17-C , 18-C ) :   1.6257 B( 17-C , 33-H ) :   0.9579 B( 18-C , 19-C ) :   1.2243
B( 18-C , 21-H ) :   0.9777 B( 19-C , 20-C ) :   1.6455 B( 19-C , 22-C ) :   1.0433
B( 22-C , 23-H ) :   0.9219 B( 22-C , 24-H ) :   0.9374 B( 22-C , 25-C ) :   1.0857
B( 25-C , 26-H ) :   0.9507 B( 25-C , 27-H ) :   0.9533 B( 25-C , 28-C ) :   1.0878
B( 28-C , 29-H ) :   0.9703 B( 28-C , 30-H ) :   0.9657 B( 28-C , 31-H ) :   0.9699

Dispersion correction           -0.014668177
FINAL SINGLE POINT ENERGY     -1339.876445115063

DIPOLE MOMENT
-------------
                                X             Y             Z
Electronic contribution:     16.63026     -14.72643      14.95539
Nuclear contribution   :    -17.14976      15.19188     -15.26291
                        -----------------------------------------
Total Dipole Moment    :     -0.51950       0.46545      -0.30752
                        -----------------------------------------
Magnitude (a.u.)       :      0.76229
Magnitude (Debye)      :      1.93760

Rotational constants in cm-1:     0.018814     0.008459     0.007058
Rotational constants in MHz :   564.040865   253.592056   211.602255

                             ****ORCA TERMINATED NORMALLY****
TOTAL RUN TIME: 0 days 0 hours 0 minutes 22 seconds 148 msec
