                         Program Version 4.2.1 -  RELEASE  -
|  1> ! wB97X-D3 SP def2-SVP
|  2> %pal
|  3> nprocs 24
|  4> end
|  5>
|  6> * xyz 0 1
|  7> S 	 -110.764 	 35.992 	 -17.5912
|  8> C 	 -110.652 	 36.168 	 -15.8347
|  9> C 	 -109.549 	 35.4061 	 -15.3973
| 10> C 	 -109.119 	 34.4493 	 -16.3726
| 11> C 	 -109.911 	 34.4623 	 -17.4758
| 12> H 	 -108.361 	 33.6766 	 -16.1953
| 13> C 	 -108.775 	 35.4697 	 -14.0458
| 14> H 	 -109.068 	 34.5882 	 -13.438
| 15> H 	 -109.11 	 36.4216 	 -13.5257
| 16> C 	 -107.261 	 35.5472 	 -14.1004
| 17> H 	 -106.878 	 34.8054 	 -14.8379
| 18> H 	 -106.883 	 36.5759 	 -14.3468
| 19> C 	 -106.653 	 35.2472 	 -12.7326
| 20> H 	 -105.6 	 35.0723 	 -12.8457
| 21> H 	 -106.868 	 36.1369 	 -12.182
| 22> H 	 -107.018 	 34.3662 	 -12.3092
| 23> S 	 -109.257 	 34.3175 	 -20.1196
| 24> C 	 -109.321 	 32.7571 	 -20.9238
| 25> C 	 -109.866 	 31.7709 	 -20.0775
| 26> C 	 -110.268 	 32.2886 	 -18.8038
| 27> C 	 -109.904 	 33.5993 	 -18.6512
| 28> H 	 -109.877 	 30.6754 	 -20.291
| 29> C 	 -110.884 	 31.3466 	 -17.8403
| 30> H 	 -111.771 	 30.9932 	 -18.3044
| 31> H 	 -111.278 	 31.9284 	 -17
| 32> C 	 -109.88 	 30.2558 	 -17.3787
| 33> H 	 -108.976 	 30.6446 	 -16.888
| 34> H 	 -109.456 	 29.7514 	 -18.1694
| 35> C 	 -110.513 	 29.2035 	 -16.4129
| 36> H 	 -111.203 	 29.794 	 -15.7646
| 37> H 	 -109.788 	 28.7019 	 -15.7837
| 38> H 	 -111.049 	 28.4462 	 -16.9979
| 39> H 	 -111.026 	 36.9627 	 -15.1775
| 40> H 	 -108.793 	 32.4791 	 -21.7889
| 41> *
| 42>
| 43>                          ****END OF INPUT****

CARTESIAN COORDINATES (ANGSTROEM)
---------------------------------
  S    -110.764000   35.992000  -17.591200
  C    -110.652000   36.168000  -15.834700
  C    -109.549000   35.406100  -15.397300
  C    -109.119000   34.449300  -16.372600
  C    -109.911000   34.462300  -17.475800
  H    -108.361000   33.676600  -16.195300
  C    -108.775000   35.469700  -14.045800
  H    -109.068000   34.588200  -13.438000
  H    -109.110000   36.421600  -13.525700
  C    -107.261000   35.547200  -14.100400
  H    -106.878000   34.805400  -14.837900
  H    -106.883000   36.575900  -14.346800
  C    -106.653000   35.247200  -12.732600
  H    -105.600000   35.072300  -12.845700
  H    -106.868000   36.136900  -12.182000
  H    -107.018000   34.366200  -12.309200
  S    -109.257000   34.317500  -20.119600
  C    -109.321000   32.757100  -20.923800
  C    -109.866000   31.770900  -20.077500
  C    -110.268000   32.288600  -18.803800
  C    -109.904000   33.599300  -18.651200
  H    -109.877000   30.675400  -20.291000
  C    -110.884000   31.346600  -17.840300
  H    -111.771000   30.993200  -18.304400
  H    -111.278000   31.928400  -17.000000
  C    -109.880000   30.255800  -17.378700
  H    -108.976000   30.644600  -16.888000
  H    -109.456000   29.751400  -18.169400
  C    -110.513000   29.203500  -16.412900
  H    -111.203000   29.794000  -15.764600
  H    -109.788000   28.701900  -15.783700
  H    -111.049000   28.446200  -16.997900
  H    -111.026000   36.962700  -15.177500
  H    -108.793000   32.479100  -21.788900

 Total Charge           Charge          ....    0
 Multiplicity           Mult            ....    1
 Number of Electrons    NEL             ....  134
 Basis Dimension        Dim             ....  322

ORBITAL ENERGIES
----------------

  NO   OCC          E(Eh)            E(eV)
   0   2.0000     -88.966266     -2420.8952
   1   2.0000     -88.962515     -2420.7931
   2   2.0000     -10.326558      -280.9999
   3   2.0000     -10.323650      -280.9208
   4   2.0000     -10.317015      -280.7402
   5   2.0000     -10.316158      -280.7169
   6   2.0000     -10.305308      -280.4217
   7   2.0000     -10.300648      -280.2949
   8   2.0000     -10.297960      -280.2217
   9   2.0000     -10.297344      -280.2050
  10   2.0000     -10.293548      -280.1017
  11   2.0000     -10.291437      -280.0442
  12   2.0000     -10.289391      -279.9886
  13   2.0000     -10.285185      -279.8741
  14   2.0000     -10.281921      -279.7853
  15   2.0000     -10.270332      -279.4699
  16   2.0000      -8.080825      -219.8904
  17   2.0000      -8.077188      -219.7914
  18   2.0000      -6.039407      -164.3406
  19   2.0000      -6.035822      -164.2431
  20   2.0000      -6.035449      -164.2329
  21   2.0000      -6.032207      -164.1447
  22   2.0000      -6.031419      -164.1233
  23   2.0000      -6.027287      -164.0108
  24   2.0000      -1.007159       -27.4062
  25   2.0000      -0.981911       -26.7191
  26   2.0000      -0.913416       -24.8553
  27   2.0000      -0.910199       -24.7678
  28   2.0000      -0.866919       -23.5901
  29   2.0000      -0.852111       -23.1871
  30   2.0000      -0.844793       -22.9880
  31   2.0000      -0.811800       -22.0902
  32   2.0000      -0.781132       -21.2557
  33   2.0000      -0.770297       -20.9609
  34   2.0000      -0.710648       -19.3377
  35   2.0000      -0.701022       -19.0758
  36   2.0000      -0.689233       -18.7550
  37   2.0000      -0.662533       -18.0284
  38   2.0000      -0.636214       -17.3123
  39   2.0000      -0.620497       -16.8846
  40   2.0000      -0.597550       -16.2602
  41   2.0000      -0.574915       -15.6442
  42   2.0000      -0.560541       -15.2531
  43   2.0000      -0.557425       -15.1683
  44   2.0000      -0.533526       -14.5180
  45   2.0000      -0.523345       -14.2409
  46   2.0000      -0.521045       -14.1783
  47   2.0000      -0.509875       -13.8744
  48   2.0000      -0.507528       -13.8105
  49   2.0000      -0.498909       -13.5760
  50   2.0000      -0.492683       -13.4066
  51   2.0000      -0.478733       -13.0270
  52   2.0000      -0.467696       -12.7266
  53   2.0000      -0.459999       -12.5172
  54   2.0000      -0.456413       -12.4196
  55   2.0000      -0.454015       -12.3544
  56   2.0000      -0.443651       -12.0724
  57   2.0000      -0.440408       -11.9841
  58   2.0000      -0.433913       -11.8074
  59   2.0000      -0.425323       -11.5736
  60   2.0000      -0.421124       -11.4594
  61   2.0000      -0.419645       -11.4191
  62   2.0000      -0.413163       -11.2427
  63   2.0000      -0.337946        -9.1960
  64   2.0000      -0.329877        -8.9764
  65   2.0000      -0.324932        -8.8419
  66   2.0000      -0.293048        -7.9742
  67   0.0000       0.033263         0.9051
  68   0.0000       0.051148         1.3918
  69   0.0000       0.094644         2.5754
  70   0.0000       0.122606         3.3363
  71   0.0000       0.129904         3.5349

MULLIKEN ATOMIC CHARGES
-----------------------
   0 S :    0.095682
   1 C :   -0.099178
   2 C :   -0.100440
   3 C :    0.044791
   4 C :   -0.164360
   5 H :    0.024616
   6 C :    0.029144
   7 H :    0.045393
   8 H :    0.026753
   9 C :   -0.120554
  10 H :    0.032654
  11 H :    0.042037
  12 C :   -0.004393
  13 H :    0.029309
  14 H :    0.031225
  15 H :    0.013848
  16 S :    0.109357
  17 C :   -0.067131
  18 C :   -0.070348
  19 C :   -0.037733
  20 C :   -0.172398
  21 H :    0.038277
  22 C :    0.111076
  23 H :    0.024865
  24 H :    0.024183
  25 C :   -0.067002
  26 H :    0.025198
  27 H :    0.001479
  28 C :   -0.047836
  29 H :    0.034574
  30 H :    0.034353
  31 H :    0.036938
  32 H :    0.049844
  33 H :    0.045776
Sum of atomic charges:    0.0000000

LOEWDIN ATOMIC CHARGES
----------------------
   0 S :    0.386261
   1 C :   -0.201068
   2 C :   -0.060037
   3 C :   -0.062817
   4 C :   -0.182766
   5 H :    0.034511
   6 C :   -0.039754
   7 H :    0.034184
   8 H :    0.033070
   9 C :   -0.044452
  10 H :    0.020809
  11 H :    0.031520
  12 C :   -0.052880
  13 H :    0.026948
  14 H :    0.025354
  15 H :    0.013950
  16 S :    0.398450
  17 C :   -0.181696
  18 C :   -0.067575
  19 C :   -0.058013
  20 C :   -0.198855
  21 H :    0.036903
  22 C :   -0.027080
  23 H :    0.031865
  24 H :    0.033641
  25 C :   -0.033187
  26 H :    0.027816
  27 H :    0.008431
  28 C :   -0.064086
  29 H :    0.028706
  30 H :    0.024032
  31 H :    0.025199
  32 H :    0.031869
  33 H :    0.020746

  Mayer bond orders larger than 0.100000
B(  0-S ,  1-C ) :   1.1153 B(  0-S ,  4-C ) :   1.1358 B(  1-C ,  2-C ) :   1.6383
B(  1-C ,  4-C ) :   0.1049 B(  1-C , 32-H ) :   0.9646 B(  2-C ,  3-C ) :   1.2026
B(  2-C ,  6-C ) :   1.0121 B(  3-C ,  4-C ) :   1.6133 B(  3-C ,  5-H ) :   0.9919
B(  4-C , 20-C ) :   1.0078 B(  6-C ,  7-H ) :   0.9462 B(  6-C ,  8-H ) :   0.9432
B(  6-C ,  9-C ) :   1.0665 B(  9-C , 10-H ) :   0.9540 B(  9-C , 11-H ) :   0.9577
B(  9-C , 12-C ) :   1.0800 B( 12-C , 13-H ) :   0.9721 B( 12-C , 14-H ) :   0.9785
B( 12-C , 15-H ) :   0.9751 B( 16-S , 17-C ) :   1.1429 B( 16-S , 20-C ) :   1.1357
B( 17-C , 18-C ) :   1.6245 B( 17-C , 33-H ) :   0.9707 B( 18-C , 19-C ) :   1.2201
B( 18-C , 21-H ) :   0.9775 B( 19-C , 20-C ) :   1.6412 B( 19-C , 22-C ) :   1.0553
B( 22-C , 23-H ) :   0.9294 B( 22-C , 24-H ) :   0.9215 B( 22-C , 25-C ) :   1.0514
B( 25-C , 26-H ) :   0.9548 B( 25-C , 27-H ) :   0.9590 B( 25-C , 28-C ) :   1.0754
B( 28-C , 29-H ) :   0.9770 B( 28-C , 30-H ) :   0.9774 B( 28-C , 31-H ) :   0.9787

Dispersion correction           -0.013582911
FINAL SINGLE POINT ENERGY     -1339.852758038041

DIPOLE MOMENT
-------------
                                X             Y             Z
Electronic contribution:     -8.39778      15.42533     -23.55821
Nuclear contribution   :      8.83185     -15.95365      24.06925
                        -----------------------------------------
Total Dipole Moment    :      0.43408      -0.52832       0.51104
                        -----------------------------------------
Magnitude (a.u.)       :      0.85365
Magnitude (Debye)      :      2.16980

Rotational constants in cm-1:     0.016298     0.008644     0.006747
Rotational constants in MHz :   488.600124   259.153281   202.266967

                             ****ORCA TERMINATED NORMALLY****
TOTAL RUN TIME: 0 days 0 hours 0 minutes 20 seconds 142 msec
