                         Program Version 4.2.1 -  RELEASE  -
|  1> ! wB97X-D3 SP def2-SVP
|  2> %pal
|  3> nprocs 24
|  4> end
|  5>
|  6> * xyz 0 1
|  7> S 	 -69.7329 	 -46.6744 	 -91.2388
|  8> C 	 -69.0816 	 -45.6636 	 -92.5798
|  9> C 	 -67.7153 	 -45.9298 	 -92.7059
| 10> C 	 -67.2898 	 -46.9718 	 -91.802
| 11> C 	 -68.2747 	 -47.5205 	 -90.9727
| 12> H 	 -66.2276 	 -47.2998 	 -91.7085
| 13> C 	 -66.7762 	 -45.2113 	 -93.7232
| 14> H 	 -67.3687 	 -45.2213 	 -94.5562
| 15> H 	 -65.9134 	 -45.9004 	 -93.9106
| 16> C 	 -66.2568 	 -43.7925 	 -93.4301
| 17> H 	 -66.5714 	 -43.1159 	 -94.1968
| 18> H 	 -66.6266 	 -43.341 	 -92.4967
| 19> C 	 -64.6715 	 -43.7558 	 -93.2939
| 20> H 	 -64.2593 	 -44.362 	 -92.5211
| 21> H 	 -64.1682 	 -44.0381 	 -94.2598
| 22> H 	 -64.3797 	 -42.7227 	 -93.1111
| 23> S 	 -68.3034 	 -47.975 	 -88.2483
| 24> C 	 -68.0199 	 -49.6059 	 -87.7102
| 25> C 	 -67.5572 	 -50.4118 	 -88.7297
| 26> C 	 -67.5965 	 -49.77 	 -90.0022
| 27> C 	 -68.0989 	 -48.4812 	 -89.9191
| 28> H 	 -67.3823 	 -51.4699 	 -88.6047
| 29> C 	 -67.1165 	 -50.3784 	 -91.2404
| 30> H 	 -66.6162 	 -51.3027 	 -90.8841
| 31> H 	 -66.3072 	 -49.8741 	 -91.6601
| 32> C 	 -68.1695 	 -50.8585 	 -92.2384
| 33> H 	 -67.6664 	 -51.3041 	 -93.1166
| 34> H 	 -68.7214 	 -49.9408 	 -92.6305
| 35> C 	 -69.1966 	 -51.8559 	 -91.7065
| 36> H 	 -68.7052 	 -52.8072 	 -91.4702
| 37> H 	 -70.0451 	 -51.9556 	 -92.393
| 38> H 	 -69.5711 	 -51.3929 	 -90.7841
| 39> H 	 -69.73 	 -44.9777 	 -93.1899
| 40> H 	 -68.3043 	 -49.9967 	 -86.7476
| 41> *
| 42>
| 43>                          ****END OF INPUT****

CARTESIAN COORDINATES (ANGSTROEM)
---------------------------------
  S    -69.732900  -46.674400  -91.238800
  C    -69.081600  -45.663600  -92.579800
  C    -67.715300  -45.929800  -92.705900
  C    -67.289800  -46.971800  -91.802000
  C    -68.274700  -47.520500  -90.972700
  H    -66.227600  -47.299800  -91.708500
  C    -66.776200  -45.211300  -93.723200
  H    -67.368700  -45.221300  -94.556200
  H    -65.913400  -45.900400  -93.910600
  C    -66.256800  -43.792500  -93.430100
  H    -66.571400  -43.115900  -94.196800
  H    -66.626600  -43.341000  -92.496700
  C    -64.671500  -43.755800  -93.293900
  H    -64.259300  -44.362000  -92.521100
  H    -64.168200  -44.038100  -94.259800
  H    -64.379700  -42.722700  -93.111100
  S    -68.303400  -47.975000  -88.248300
  C    -68.019900  -49.605900  -87.710200
  C    -67.557200  -50.411800  -88.729700
  C    -67.596500  -49.770000  -90.002200
  C    -68.098900  -48.481200  -89.919100
  H    -67.382300  -51.469900  -88.604700
  C    -67.116500  -50.378400  -91.240400
  H    -66.616200  -51.302700  -90.884100
  H    -66.307200  -49.874100  -91.660100
  C    -68.169500  -50.858500  -92.238400
  H    -67.666400  -51.304100  -93.116600
  H    -68.721400  -49.940800  -92.630500
  C    -69.196600  -51.855900  -91.706500
  H    -68.705200  -52.807200  -91.470200
  H    -70.045100  -51.955600  -92.393000
  H    -69.571100  -51.392900  -90.784100
  H    -69.730000  -44.977700  -93.189900
  H    -68.304300  -49.996700  -86.747600

 Total Charge           Charge          ....    0
 Multiplicity           Mult            ....    1
 Number of Electrons    NEL             ....  134
 Basis Dimension        Dim             ....  322

ORBITAL ENERGIES
----------------

  NO   OCC          E(Eh)            E(eV)
   0   2.0000     -88.966484     -2420.9011
   1   2.0000     -88.965481     -2420.8738
   2   2.0000     -10.327020      -281.0125
   3   2.0000     -10.324896      -280.9547
   4   2.0000     -10.322983      -280.9027
   5   2.0000     -10.315586      -280.7014
   6   2.0000     -10.309303      -280.5304
   7   2.0000     -10.298639      -280.2402
   8   2.0000     -10.297769      -280.2165
   9   2.0000     -10.292616      -280.0763
  10   2.0000     -10.292561      -280.0748
  11   2.0000     -10.291242      -280.0389
  12   2.0000     -10.285409      -279.8802
  13   2.0000     -10.282282      -279.7951
  14   2.0000     -10.281667      -279.7784
  15   2.0000     -10.274108      -279.5727
  16   2.0000      -8.081287      -219.9030
  17   2.0000      -8.080076      -219.8700
  18   2.0000      -6.039810      -164.3516
  19   2.0000      -6.038572      -164.3179
  20   2.0000      -6.035831      -164.2433
  21   2.0000      -6.034390      -164.2041
  22   2.0000      -6.031987      -164.1387
  23   2.0000      -6.031049      -164.1132
  24   2.0000      -1.008244       -27.4357
  25   2.0000      -0.982333       -26.7306
  26   2.0000      -0.912791       -24.8383
  27   2.0000      -0.906124       -24.6569
  28   2.0000      -0.868056       -23.6210
  29   2.0000      -0.849012       -23.1028
  30   2.0000      -0.839642       -22.8478
  31   2.0000      -0.810062       -22.0429
  32   2.0000      -0.786068       -21.3900
  33   2.0000      -0.773465       -21.0471
  34   2.0000      -0.707610       -19.2550
  35   2.0000      -0.705103       -19.1868
  36   2.0000      -0.683630       -18.6025
  37   2.0000      -0.664085       -18.0707
  38   2.0000      -0.637701       -17.3527
  39   2.0000      -0.613378       -16.6909
  40   2.0000      -0.595623       -16.2077
  41   2.0000      -0.564965       -15.3735
  42   2.0000      -0.557900       -15.1812
  43   2.0000      -0.553196       -15.0532
  44   2.0000      -0.546170       -14.8620
  45   2.0000      -0.529663       -14.4129
  46   2.0000      -0.517039       -14.0693
  47   2.0000      -0.509905       -13.8752
  48   2.0000      -0.506691       -13.7878
  49   2.0000      -0.492897       -13.4124
  50   2.0000      -0.484872       -13.1940
  51   2.0000      -0.476516       -12.9667
  52   2.0000      -0.471255       -12.8235
  53   2.0000      -0.468389       -12.7455
  54   2.0000      -0.456413       -12.4196
  55   2.0000      -0.447765       -12.1843
  56   2.0000      -0.443012       -12.0550
  57   2.0000      -0.440168       -11.9776
  58   2.0000      -0.435578       -11.8527
  59   2.0000      -0.426552       -11.6071
  60   2.0000      -0.417262       -11.3543
  61   2.0000      -0.409900       -11.1539
  62   2.0000      -0.403702       -10.9853
  63   2.0000      -0.338756        -9.2180
  64   2.0000      -0.332890        -9.0584
  65   2.0000      -0.327761        -8.9188
  66   2.0000      -0.296888        -8.0787
  67   0.0000       0.027638         0.7521
  68   0.0000       0.064809         1.7635
  69   0.0000       0.110713         3.0126
  70   0.0000       0.118614         3.2277
  71   0.0000       0.129960         3.5364

MULLIKEN ATOMIC CHARGES
-----------------------
   0 S :    0.106468
   1 C :   -0.156338
   2 C :   -0.104678
   3 C :    0.023317
   4 C :   -0.175100
   5 H :    0.025814
   6 C :    0.101330
   7 H :    0.008611
   8 H :    0.031459
   9 C :   -0.047751
  10 H :    0.026439
  11 H :    0.040544
  12 C :   -0.091157
  13 H :    0.039661
  14 H :    0.037555
  15 H :    0.030722
  16 S :    0.121630
  17 C :   -0.088759
  18 C :   -0.025077
  19 C :   -0.063781
  20 C :   -0.159928
  21 H :    0.019656
  22 C :    0.119282
  23 H :   -0.002184
  24 H :    0.015143
  25 C :   -0.097777
  26 H :    0.028070
  27 H :    0.045206
  28 C :   -0.047607
  29 H :    0.030162
  30 H :    0.042821
  31 H :    0.037317
  32 H :    0.074004
  33 H :    0.054928
Sum of atomic charges:    0.0000000

LOEWDIN ATOMIC CHARGES
----------------------
   0 S :    0.411067
   1 C :   -0.196024
   2 C :   -0.060165
   3 C :   -0.071353
   4 C :   -0.217431
   5 H :    0.034498
   6 C :   -0.026023
   7 H :    0.021128
   8 H :    0.036713
   9 C :   -0.036740
  10 H :    0.022790
  11 H :    0.029680
  12 C :   -0.066075
  13 H :    0.019883
  14 H :    0.026951
  15 H :    0.024788
  16 S :    0.410080
  17 C :   -0.184977
  18 C :   -0.069244
  19 C :   -0.056506
  20 C :   -0.199540
  21 H :    0.031214
  22 C :   -0.036028
  23 H :    0.032597
  24 H :    0.024643
  25 C :   -0.042278
  26 H :    0.022753
  27 H :    0.029870
  28 C :   -0.066233
  29 H :    0.023044
  30 H :    0.030303
  31 H :    0.027708
  32 H :    0.040521
  33 H :    0.028388

  Mayer bond orders larger than 0.100000
B(  0-S ,  1-C ) :   1.1402 B(  0-S ,  4-C ) :   1.1657 B(  1-C ,  2-C ) :   1.5794
B(  1-C ,  4-C ) :   0.1069 B(  1-C , 32-H ) :   0.9685 B(  2-C ,  3-C ) :   1.2721
B(  2-C ,  6-C ) :   1.0077 B(  3-C ,  4-C ) :   1.5397 B(  3-C ,  5-H ) :   0.9848
B(  4-C , 20-C ) :   1.0486 B(  6-C ,  7-H ) :   0.9368 B(  6-C ,  8-H ) :   0.9525
B(  6-C ,  9-C ) :   1.0360 B(  9-C , 10-H ) :   0.9592 B(  9-C , 11-H ) :   0.9664
B(  9-C , 12-C ) :   1.0776 B( 12-C , 13-H ) :   0.9806 B( 12-C , 14-H ) :   0.9781
B( 12-C , 15-H ) :   0.9763 B( 16-S , 17-C ) :   1.1559 B( 16-S , 20-C ) :   1.1465
B( 17-C , 18-C ) :   1.6059 B( 17-C , 33-H ) :   0.9656 B( 18-C , 19-C ) :   1.2520
B( 18-C , 21-H ) :   0.9838 B( 19-C , 20-C ) :   1.5830 B( 19-C , 22-C ) :   1.0462
B( 22-C , 23-H ) :   0.9201 B( 22-C , 24-H ) :   0.9245 B( 22-C , 25-C ) :   1.0679
B( 25-C , 26-H ) :   0.9551 B( 25-C , 27-H ) :   0.9566 B( 25-C , 28-C ) :   1.0735
B( 28-C , 29-H ) :   0.9740 B( 28-C , 30-H ) :   0.9728 B( 28-C , 31-H ) :   0.9732

Dispersion correction           -0.014679428
FINAL SINGLE POINT ENERGY     -1339.875544715175

DIPOLE MOMENT
-------------
                                X             Y             Z
Electronic contribution:    -12.52450       1.76091      17.80102
Nuclear contribution   :     12.89460      -1.80501     -18.21913
                        -----------------------------------------
Total Dipole Moment    :      0.37010      -0.04410      -0.41811
                        -----------------------------------------
Magnitude (a.u.)       :      0.56012
Magnitude (Debye)      :      1.42372

Rotational constants in cm-1:     0.020512     0.007725     0.007147
Rotational constants in MHz :   614.925331   231.589635   214.262217

                             ****ORCA TERMINATED NORMALLY****
TOTAL RUN TIME: 0 days 0 hours 0 minutes 20 seconds 586 msec
