                         Program Version 4.2.1 -  RELEASE  -
|  1> ! wB97X-D3 SP def2-SVP
|  2> %pal
|  3> nprocs 24
|  4> end
|  5>
|  6> * xyz 0 1
|  7> S 	 -99.9499 	 -1.57916 	 -119.713
|  8> C 	 -101.646 	 -1.43496 	 -120.167
|  9> C 	 -102.453 	 -1.83892 	 -119.125
| 10> C 	 -101.739 	 -1.97669 	 -117.87
| 11> C 	 -100.384 	 -2.03056 	 -118.111
| 12> H 	 -102.145 	 -2.17367 	 -116.899
| 13> C 	 -103.955 	 -2.06031 	 -119.226
| 14> H 	 -104.483 	 -1.47659 	 -120.047
| 15> H 	 -104.214 	 -1.74982 	 -118.265
| 16> C 	 -104.204 	 -3.52442 	 -119.444
| 17> H 	 -103.855 	 -3.65543 	 -120.458
| 18> H 	 -103.426 	 -4.01317 	 -118.852
| 19> C 	 -105.707 	 -3.97417 	 -119.309
| 20> H 	 -106.222 	 -3.83718 	 -118.348
| 21> H 	 -106.186 	 -3.23283 	 -119.976
| 22> H 	 -105.848 	 -4.92749 	 -119.871
| 23> S 	 -97.998 	 -1.48232 	 -117.038
| 24> C 	 -97.0464 	 -2.67807 	 -116.23
| 25> C 	 -97.7079 	 -3.85544 	 -116.209
| 26> C 	 -98.9799 	 -3.78711 	 -116.792
| 27> C 	 -99.2991 	 -2.54984 	 -117.255
| 28> H 	 -97.232 	 -4.72359 	 -115.882
| 29> C 	 -99.8822 	 -4.97073 	 -116.89
| 30> H 	 -100.916 	 -4.60417 	 -116.62
| 31> H 	 -99.5277 	 -5.77153 	 -116.111
| 32> C 	 -99.942 	 -5.53441 	 -118.28
| 33> H 	 -100.209 	 -4.80163 	 -119.075
| 34> H 	 -100.815 	 -6.15517 	 -118.444
| 35> C 	 -98.7871 	 -6.28338 	 -118.842
| 36> H 	 -98.8112 	 -6.50462 	 -119.922
| 37> H 	 -98.5984 	 -7.18633 	 -118.373
| 38> H 	 -97.877 	 -5.76872 	 -118.753
| 39> H 	 -102.028 	 -1.35298 	 -121.147
| 40> H 	 -96.103 	 -2.52686 	 -115.66
| 41> *
| 42>
| 43>                          ****END OF INPUT****

CARTESIAN COORDINATES (ANGSTROEM)
---------------------------------
  S    -99.949900   -1.579160  -119.713000
  C    -101.646000   -1.434960  -120.167000
  C    -102.453000   -1.838920  -119.125000
  C    -101.739000   -1.976690  -117.870000
  C    -100.384000   -2.030560  -118.111000
  H    -102.145000   -2.173670  -116.899000
  C    -103.955000   -2.060310  -119.226000
  H    -104.483000   -1.476590  -120.047000
  H    -104.214000   -1.749820  -118.265000
  C    -104.204000   -3.524420  -119.444000
  H    -103.855000   -3.655430  -120.458000
  H    -103.426000   -4.013170  -118.852000
  C    -105.707000   -3.974170  -119.309000
  H    -106.222000   -3.837180  -118.348000
  H    -106.186000   -3.232830  -119.976000
  H    -105.848000   -4.927490  -119.871000
  S    -97.998000   -1.482320  -117.038000
  C    -97.046400   -2.678070  -116.230000
  C    -97.707900   -3.855440  -116.209000
  C    -98.979900   -3.787110  -116.792000
  C    -99.299100   -2.549840  -117.255000
  H    -97.232000   -4.723590  -115.882000
  C    -99.882200   -4.970730  -116.890000
  H    -100.916000   -4.604170  -116.620000
  H    -99.527700   -5.771530  -116.111000
  C    -99.942000   -5.534410  -118.280000
  H    -100.209000   -4.801630  -119.075000
  H    -100.815000   -6.155170  -118.444000
  C    -98.787100   -6.283380  -118.842000
  H    -98.811200   -6.504620  -119.922000
  H    -98.598400   -7.186330  -118.373000
  H    -97.877000   -5.768720  -118.753000
  H    -102.028000   -1.352980  -121.147000
  H    -96.103000   -2.526860  -115.660000

 Total Charge           Charge          ....    0
 Multiplicity           Mult            ....    1
 Number of Electrons    NEL             ....  134
 Basis Dimension        Dim             ....  322

ORBITAL ENERGIES
----------------

  NO   OCC          E(Eh)            E(eV)
   0   2.0000     -88.966662     -2420.9060
   1   2.0000     -88.962161     -2420.7835
   2   2.0000     -10.331166      -281.1253
   3   2.0000     -10.318048      -280.7684
   4   2.0000     -10.313340      -280.6402
   5   2.0000     -10.308600      -280.5113
   6   2.0000     -10.303723      -280.3786
   7   2.0000     -10.299758      -280.2707
   8   2.0000     -10.297075      -280.1977
   9   2.0000     -10.293935      -280.1122
  10   2.0000     -10.289960      -280.0040
  11   2.0000     -10.289042      -279.9791
  12   2.0000     -10.286409      -279.9074
  13   2.0000     -10.282587      -279.8034
  14   2.0000     -10.277403      -279.6623
  15   2.0000     -10.259846      -279.1846
  16   2.0000      -8.081536      -219.9098
  17   2.0000      -8.078476      -219.8265
  18   2.0000      -6.040044      -164.3579
  19   2.0000      -6.036871      -164.2716
  20   2.0000      -6.036007      -164.2481
  21   2.0000      -6.032562      -164.1544
  22   2.0000      -6.032274      -164.1465
  23   2.0000      -6.029449      -164.0696
  24   2.0000      -1.020127       -27.7591
  25   2.0000      -0.992664       -27.0118
  26   2.0000      -0.919978       -25.0339
  27   2.0000      -0.914367       -24.8812
  28   2.0000      -0.872244       -23.7350
  29   2.0000      -0.854609       -23.2551
  30   2.0000      -0.845976       -23.0202
  31   2.0000      -0.820688       -22.3320
  32   2.0000      -0.785060       -21.3626
  33   2.0000      -0.775387       -21.0993
  34   2.0000      -0.708694       -19.2845
  35   2.0000      -0.703129       -19.1331
  36   2.0000      -0.690672       -18.7941
  37   2.0000      -0.669053       -18.2059
  38   2.0000      -0.645698       -17.5703
  39   2.0000      -0.622138       -16.9292
  40   2.0000      -0.592405       -16.1202
  41   2.0000      -0.570538       -15.5251
  42   2.0000      -0.565663       -15.3925
  43   2.0000      -0.552933       -15.0461
  44   2.0000      -0.545600       -14.8465
  45   2.0000      -0.525422       -14.2975
  46   2.0000      -0.522559       -14.2195
  47   2.0000      -0.515125       -14.0173
  48   2.0000      -0.504953       -13.7405
  49   2.0000      -0.502422       -13.6716
  50   2.0000      -0.485322       -13.2063
  51   2.0000      -0.482121       -13.1192
  52   2.0000      -0.476684       -12.9712
  53   2.0000      -0.466968       -12.7069
  54   2.0000      -0.465080       -12.6555
  55   2.0000      -0.453724       -12.3465
  56   2.0000      -0.444211       -12.0876
  57   2.0000      -0.436332       -11.8732
  58   2.0000      -0.432148       -11.7593
  59   2.0000      -0.423854       -11.5336
  60   2.0000      -0.421370       -11.4660
  61   2.0000      -0.413656       -11.2562
  62   2.0000      -0.399067       -10.8592
  63   2.0000      -0.343160        -9.3379
  64   2.0000      -0.332258        -9.0412
  65   2.0000      -0.330033        -8.9806
  66   2.0000      -0.299775        -8.1573
  67   0.0000       0.037900         1.0313
  68   0.0000       0.064984         1.7683
  69   0.0000       0.114900         3.1266
  70   0.0000       0.120603         3.2818
  71   0.0000       0.128843         3.5060

MULLIKEN ATOMIC CHARGES
-----------------------
   0 S :    0.118488
   1 C :   -0.077165
   2 C :   -0.172730
   3 C :    0.057957
   4 C :   -0.143555
   5 H :    0.013487
   6 C :    0.086682
   7 H :    0.037326
   8 H :    0.005601
   9 C :   -0.078121
  10 H :    0.011228
  11 H :    0.025630
  12 C :   -0.029204
  13 H :    0.052002
  14 H :    0.017076
  15 H :    0.048902
  16 S :    0.108718
  17 C :   -0.095775
  18 C :   -0.024823
  19 C :   -0.011949
  20 C :   -0.188922
  21 H :   -0.007446
  22 C :    0.067712
  23 H :    0.033244
  24 H :    0.039308
  25 C :   -0.066674
  26 H :    0.027498
  27 H :    0.013022
  28 C :   -0.004176
  29 H :    0.027782
  30 H :    0.001533
  31 H :    0.007623
  32 H :    0.031152
  33 H :    0.068570
Sum of atomic charges:   -0.0000000

LOEWDIN ATOMIC CHARGES
----------------------
   0 S :    0.414797
   1 C :   -0.200010
   2 C :   -0.050162
   3 C :   -0.066556
   4 C :   -0.192074
   5 H :    0.030336
   6 C :   -0.029894
   7 H :    0.034101
   8 H :    0.018472
   9 C :   -0.044188
  10 H :    0.023620
  11 H :    0.020906
  12 C :   -0.073202
  13 H :    0.030366
  14 H :    0.028638
  15 H :    0.035729
  16 S :    0.438288
  17 C :   -0.195303
  18 C :   -0.071082
  19 C :   -0.063192
  20 C :   -0.220610
  21 H :    0.022689
  22 C :   -0.034007
  23 H :    0.039600
  24 H :    0.040600
  25 C :   -0.053891
  26 H :    0.031635
  27 H :    0.022539
  28 C :   -0.062718
  29 H :    0.033819
  30 H :    0.011563
  31 H :    0.017830
  32 H :    0.020178
  33 H :    0.041181

  Mayer bond orders larger than 0.100000
B(  0-S ,  1-C ) :   1.1081 B(  0-S ,  4-C ) :   1.1737 B(  1-C ,  2-C ) :   1.6546
B(  1-C , 32-H ) :   0.9694 B(  2-C ,  3-C ) :   1.1997 B(  2-C ,  6-C ) :   1.0178
B(  3-C ,  4-C ) :   1.6018 B(  3-C ,  5-H ) :   0.9930 B(  4-C , 20-C ) :   0.9837
B(  6-C ,  7-H ) :   0.9446 B(  6-C ,  8-H ) :   0.9313 B(  6-C ,  9-C ) :   1.0579
B(  9-C , 10-H ) :   0.9522 B(  9-C , 11-H ) :   0.9571 B(  9-C , 12-C ) :   1.0588
B( 12-C , 13-H ) :   0.9780 B( 12-C , 14-H ) :   0.9669 B( 12-C , 15-H ) :   0.9741
B( 16-S , 17-C ) :   1.1669 B( 16-S , 20-C ) :   1.1660 B( 17-C , 18-C ) :   1.5894
B( 17-C , 33-H ) :   0.9604 B( 18-C , 19-C ) :   1.2667 B( 18-C , 21-H ) :   1.0029
B( 19-C , 20-C ) :   1.5903 B( 19-C , 22-C ) :   1.0345 B( 22-C , 23-H ) :   0.9273
B( 22-C , 24-H ) :   0.9385 B( 22-C , 25-C ) :   1.0702 B( 25-C , 26-H ) :   0.9487
B( 25-C , 27-H ) :   0.9479 B( 25-C , 28-C ) :   1.0868 B( 28-C , 29-H ) :   0.9676
B( 28-C , 30-H ) :   0.9695 B( 28-C , 31-H ) :   0.9696

Dispersion correction           -0.015683476
FINAL SINGLE POINT ENERGY     -1339.857576617256

DIPOLE MOMENT
-------------
                                X             Y             Z
Electronic contribution:     19.44220      20.07848       4.53326
Nuclear contribution   :    -19.81447     -20.59540      -4.52296
                        -----------------------------------------
Total Dipole Moment    :     -0.37227      -0.51693       0.01029
                        -----------------------------------------
Magnitude (a.u.)       :      0.63710
Magnitude (Debye)      :      1.61939

Rotational constants in cm-1:     0.021374     0.009074     0.007486
Rotational constants in MHz :   640.766426   272.042792   224.429178

                             ****ORCA TERMINATED NORMALLY****
TOTAL RUN TIME: 0 days 0 hours 0 minutes 22 seconds 988 msec
