                         Program Version 4.2.1 -  RELEASE  -
|  1> ! wB97X-D3 SP def2-SVP
|  2> %pal
|  3> nprocs 24
|  4> end
|  5>
|  6> * xyz 0 1
|  7> S 	 -109.826 	 55.7465 	 -94.1936
|  8> C 	 -109.775 	 57.1144 	 -93.1008
|  9> C 	 -110.668 	 58.0994 	 -93.3887
| 10> C 	 -111.246 	 57.7962 	 -94.6758
| 11> C 	 -110.751 	 56.6608 	 -95.2851
| 12> H 	 -112.025 	 58.3938 	 -95.2121
| 13> C 	 -110.937 	 59.3354 	 -92.5599
| 14> H 	 -110.64 	 60.1562 	 -93.2304
| 15> H 	 -110.273 	 59.3986 	 -91.7307
| 16> C 	 -112.354 	 59.6612 	 -92.1607
| 17> H 	 -112.311 	 60.697 	 -91.8042
| 18> H 	 -113.054 	 59.8392 	 -92.9692
| 19> C 	 -113.03 	 58.5883 	 -91.2027
| 20> H 	 -112.308 	 57.9881 	 -90.5532
| 21> H 	 -113.675 	 59.0708 	 -90.4833
| 22> H 	 -113.594 	 57.8412 	 -91.7753
| 23> S 	 -111.836 	 54.4 	 -96.5244
| 24> C 	 -112.26 	 54.4351 	 -98.2039
| 25> C 	 -111.842 	 55.5834 	 -98.8033
| 26> C 	 -111.034 	 56.4363 	 -97.9257
| 27> C 	 -111.076 	 56.0066 	 -96.5663
| 28> H 	 -112.151 	 55.753 	 -99.828
| 29> C 	 -110.212 	 57.569 	 -98.5466
| 30> H 	 -110.145 	 58.3825 	 -97.7697
| 31> H 	 -110.723 	 58.0515 	 -99.4743
| 32> C 	 -108.801 	 57.1712 	 -98.7947
| 33> H 	 -108.685 	 56.3339 	 -99.3585
| 34> H 	 -108.307 	 56.9295 	 -97.8234
| 35> C 	 -108.157 	 58.3247 	 -99.6347
| 36> H 	 -107.113 	 58.2365 	 -100.079
| 37> H 	 -108.066 	 59.2638 	 -99.0585
| 38> H 	 -108.772 	 58.4452 	 -100.504
| 39> H 	 -109.202 	 57.0518 	 -92.197
| 40> H 	 -112.928 	 53.6709 	 -98.6045
| 41> *
| 42>
| 43>                          ****END OF INPUT****

CARTESIAN COORDINATES (ANGSTROEM)
---------------------------------
  S    -109.826000   55.746500  -94.193600
  C    -109.775000   57.114400  -93.100800
  C    -110.668000   58.099400  -93.388700
  C    -111.246000   57.796200  -94.675800
  C    -110.751000   56.660800  -95.285100
  H    -112.025000   58.393800  -95.212100
  C    -110.937000   59.335400  -92.559900
  H    -110.640000   60.156200  -93.230400
  H    -110.273000   59.398600  -91.730700
  C    -112.354000   59.661200  -92.160700
  H    -112.311000   60.697000  -91.804200
  H    -113.054000   59.839200  -92.969200
  C    -113.030000   58.588300  -91.202700
  H    -112.308000   57.988100  -90.553200
  H    -113.675000   59.070800  -90.483300
  H    -113.594000   57.841200  -91.775300
  S    -111.836000   54.400000  -96.524400
  C    -112.260000   54.435100  -98.203900
  C    -111.842000   55.583400  -98.803300
  C    -111.034000   56.436300  -97.925700
  C    -111.076000   56.006600  -96.566300
  H    -112.151000   55.753000  -99.828000
  C    -110.212000   57.569000  -98.546600
  H    -110.145000   58.382500  -97.769700
  H    -110.723000   58.051500  -99.474300
  C    -108.801000   57.171200  -98.794700
  H    -108.685000   56.333900  -99.358500
  H    -108.307000   56.929500  -97.823400
  C    -108.157000   58.324700  -99.634700
  H    -107.113000   58.236500  -100.079000
  H    -108.066000   59.263800  -99.058500
  H    -108.772000   58.445200  -100.504000
  H    -109.202000   57.051800  -92.197000
  H    -112.928000   53.670900  -98.604500

 Total Charge           Charge          ....    0
 Multiplicity           Mult            ....    1
 Number of Electrons    NEL             ....  134
 Basis Dimension        Dim             ....  322

ORBITAL ENERGIES
----------------

  NO   OCC          E(Eh)            E(eV)
   0   2.0000     -88.961188     -2420.7570
   1   2.0000     -88.961114     -2420.7550
   2   2.0000     -10.334134      -281.2061
   3   2.0000     -10.327690      -281.0307
   4   2.0000     -10.315600      -280.7018
   5   2.0000     -10.313293      -280.6390
   6   2.0000     -10.308494      -280.5084
   7   2.0000     -10.302218      -280.3376
   8   2.0000     -10.299270      -280.2574
   9   2.0000     -10.298871      -280.2465
  10   2.0000     -10.294826      -280.1365
  11   2.0000     -10.293819      -280.1090
  12   2.0000     -10.292601      -280.0759
  13   2.0000     -10.284714      -279.8613
  14   2.0000     -10.280352      -279.7426
  15   2.0000     -10.278573      -279.6942
  16   2.0000      -8.077516      -219.8004
  17   2.0000      -8.076173      -219.7638
  18   2.0000      -6.035881      -164.2447
  19   2.0000      -6.034719      -164.2130
  20   2.0000      -6.031980      -164.1385
  21   2.0000      -6.030596      -164.1009
  22   2.0000      -6.028155      -164.0344
  23   2.0000      -6.026902      -164.0003
  24   2.0000      -1.009413       -27.4675
  25   2.0000      -0.983363       -26.7587
  26   2.0000      -0.914609       -24.8878
  27   2.0000      -0.911677       -24.8080
  28   2.0000      -0.867668       -23.6105
  29   2.0000      -0.843680       -22.9577
  30   2.0000      -0.838721       -22.8227
  31   2.0000      -0.813124       -22.1262
  32   2.0000      -0.786090       -21.3906
  33   2.0000      -0.766891       -20.8682
  34   2.0000      -0.712985       -19.4013
  35   2.0000      -0.700507       -19.0618
  36   2.0000      -0.688477       -18.7344
  37   2.0000      -0.655466       -17.8361
  38   2.0000      -0.642727       -17.4895
  39   2.0000      -0.620611       -16.8877
  40   2.0000      -0.596715       -16.2374
  41   2.0000      -0.569715       -15.5027
  42   2.0000      -0.561868       -15.2892
  43   2.0000      -0.552023       -15.0213
  44   2.0000      -0.535907       -14.5828
  45   2.0000      -0.519521       -14.1369
  46   2.0000      -0.513157       -13.9637
  47   2.0000      -0.509944       -13.8763
  48   2.0000      -0.505838       -13.7646
  49   2.0000      -0.493716       -13.4347
  50   2.0000      -0.487980       -13.2786
  51   2.0000      -0.480808       -13.0834
  52   2.0000      -0.467262       -12.7148
  53   2.0000      -0.461430       -12.5561
  54   2.0000      -0.454425       -12.3655
  55   2.0000      -0.448469       -12.2035
  56   2.0000      -0.444541       -12.0966
  57   2.0000      -0.436228       -11.8704
  58   2.0000      -0.433621       -11.7994
  59   2.0000      -0.427841       -11.6421
  60   2.0000      -0.417351       -11.3567
  61   2.0000      -0.414346       -11.2749
  62   2.0000      -0.412238       -11.2176
  63   2.0000      -0.344062        -9.3624
  64   2.0000      -0.328250        -8.9321
  65   2.0000      -0.325044        -8.8449
  66   2.0000      -0.293778        -7.9941
  67   0.0000       0.034752         0.9456
  68   0.0000       0.063923         1.7394
  69   0.0000       0.107013         2.9120
  70   0.0000       0.119442         3.2502
  71   0.0000       0.130864         3.5610

MULLIKEN ATOMIC CHARGES
-----------------------
   0 S :    0.100438
   1 C :   -0.126672
   2 C :   -0.062426
   3 C :    0.016569
   4 C :   -0.158633
   5 H :    0.024896
   6 C :    0.086245
   7 H :    0.033661
   8 H :    0.014620
   9 C :   -0.068289
  10 H :    0.026235
  11 H :    0.025055
  12 C :   -0.073603
  13 H :    0.036321
  14 H :    0.034660
  15 H :    0.049817
  16 S :    0.088926
  17 C :   -0.099763
  18 C :   -0.027237
  19 C :   -0.033369
  20 C :   -0.141650
  21 H :    0.023944
  22 C :   -0.007044
  23 H :    0.032198
  24 H :    0.041908
  25 C :   -0.004278
  26 H :    0.005192
  27 H :    0.041963
  28 C :   -0.077155
  29 H :    0.037567
  30 H :    0.033531
  31 H :    0.022986
  32 H :    0.034785
  33 H :    0.068600
Sum of atomic charges:   -0.0000000

LOEWDIN ATOMIC CHARGES
----------------------
   0 S :    0.417346
   1 C :   -0.188178
   2 C :   -0.062773
   3 C :   -0.064564
   4 C :   -0.210476
   5 H :    0.037110
   6 C :   -0.028636
   7 H :    0.040544
   8 H :    0.027119
   9 C :   -0.045189
  10 H :    0.029258
  11 H :    0.024697
  12 C :   -0.072455
  13 H :    0.031098
  14 H :    0.024341
  15 H :    0.030654
  16 S :    0.392071
  17 C :   -0.188713
  18 C :   -0.076257
  19 C :   -0.048897
  20 C :   -0.200424
  21 H :    0.033369
  22 C :   -0.041260
  23 H :    0.035598
  24 H :    0.037803
  25 C :   -0.033194
  26 H :    0.009515
  27 H :    0.034528
  28 C :   -0.071601
  29 H :    0.030446
  30 H :    0.025466
  31 H :    0.019470
  32 H :    0.019025
  33 H :    0.033162

  Mayer bond orders larger than 0.100000
B(  0-S ,  1-C ) :   1.1388 B(  0-S ,  4-C ) :   1.1605 B(  1-C ,  2-C ) :   1.6266
B(  1-C , 32-H ) :   0.9703 B(  2-C ,  3-C ) :   1.2056 B(  2-C ,  6-C ) :   1.0214
B(  3-C ,  4-C ) :   1.6046 B(  3-C ,  5-H ) :   0.9933 B(  4-C , 20-C ) :   1.0094
B(  6-C ,  7-H ) :   0.9296 B(  6-C ,  8-H ) :   0.9410 B(  6-C ,  9-C ) :   1.0936
B(  9-C , 10-H ) :   0.9553 B(  9-C , 11-H ) :   0.9536 B(  9-C , 12-C ) :   1.0399
B( 12-C , 13-H ) :   0.9823 B( 12-C , 14-H ) :   0.9786 B( 12-C , 15-H ) :   0.9783
B( 16-S , 17-C ) :   1.1540 B( 16-S , 20-C ) :   1.1328 B( 17-C , 18-C ) :   1.6231
B( 17-C , 33-H ) :   0.9646 B( 18-C , 19-C ) :   1.2193 B( 18-C , 21-H ) :   0.9937
B( 19-C , 20-C ) :   1.5999 B( 19-C , 22-C ) :   1.0420 B( 22-C , 23-H ) :   0.9315
B( 22-C , 24-H ) :   0.9458 B( 22-C , 25-C ) :   1.0596 B( 25-C , 26-H ) :   0.9567
B( 25-C , 27-H ) :   0.9513 B( 25-C , 28-C ) :   1.0614 B( 28-C , 29-H ) :   0.9761
B( 28-C , 30-H ) :   0.9774 B( 28-C , 31-H ) :   0.9754

Dispersion correction           -0.013770239
FINAL SINGLE POINT ENERGY     -1339.861756532404

DIPOLE MOMENT
-------------
                                X             Y             Z
Electronic contribution:     -1.47517     -20.94281       0.42979
Nuclear contribution   :      1.26911      21.53074      -0.51655
                        -----------------------------------------
Total Dipole Moment    :     -0.20606       0.58794      -0.08676
                        -----------------------------------------
Magnitude (a.u.)       :      0.62901
Magnitude (Debye)      :      1.59883

Rotational constants in cm-1:     0.019259     0.007841     0.006741
Rotational constants in MHz :   577.383181   235.062141   202.077490

                             ****ORCA TERMINATED NORMALLY****
TOTAL RUN TIME: 0 days 0 hours 0 minutes 21 seconds 110 msec
