                         Program Version 4.2.1 -  RELEASE  -
|  1> ! wB97X-D3 SP def2-SVP
|  2> %pal
|  3> nprocs 24
|  4> end
|  5>
|  6> * xyz 0 1
|  7> S 	 -38.979 	 19.3844 	 -96.0101
|  8> C 	 -37.7866 	 18.2922 	 -96.6093
|  9> C 	 -38.0091 	 16.9756 	 -96.1806
| 10> C 	 -39.1388 	 16.9383 	 -95.2786
| 11> C 	 -39.8059 	 18.1449 	 -95.0716
| 12> H 	 -39.4901 	 16.0793 	 -94.7312
| 13> C 	 -37.1909 	 15.7566 	 -96.5795
| 14> H 	 -37.4666 	 14.9016 	 -95.9311
| 15> H 	 -36.1771 	 15.9735 	 -96.4644
| 16> C 	 -37.3251 	 15.2234 	 -98.0165
| 17> H 	 -36.8496 	 15.885 	 -98.7587
| 18> H 	 -36.8606 	 14.2075 	 -98.0582
| 19> C 	 -38.8695 	 15.1838 	 -98.5161
| 20> H 	 -39.2611 	 16.2038 	 -98.7895
| 21> H 	 -38.9699 	 14.5144 	 -99.388
| 22> H 	 -39.4806 	 14.7078 	 -97.7846
| 23> S 	 -41.168 	 19.8739 	 -93.303
| 24> C 	 -42.7611 	 19.5543 	 -92.8296
| 25> C 	 -43.1804 	 18.3762 	 -93.4205
| 26> C 	 -42.2638 	 17.7361 	 -94.3157
| 27> C 	 -41.0383 	 18.4172 	 -94.3503
| 28> H 	 -44.1335 	 18.0479 	 -93.2503
| 29> C 	 -42.5823 	 16.4775 	 -95.0354
| 30> H 	 -42.8918 	 15.7063 	 -94.3405
| 31> H 	 -41.6957 	 16.2194 	 -95.6774
| 32> C 	 -43.7591 	 16.674 	 -96.0207
| 33> H 	 -43.4837 	 17.4207 	 -96.7455
| 34> H 	 -44.6165 	 16.9657 	 -95.5149
| 35> C 	 -43.9394 	 15.3099 	 -96.7841
| 36> H 	 -43.0549 	 15.1317 	 -97.3089
| 37> H 	 -44.5688 	 15.3562 	 -97.6802
| 38> H 	 -44.0928 	 14.4614 	 -96.1241
| 39> H 	 -36.9076 	 18.4995 	 -97.1705
| 40> H 	 -43.379 	 20.1712 	 -92.1907
| 41> *
| 42>
| 43>                          ****END OF INPUT****

CARTESIAN COORDINATES (ANGSTROEM)
---------------------------------
  S    -38.979000   19.384400  -96.010100
  C    -37.786600   18.292200  -96.609300
  C    -38.009100   16.975600  -96.180600
  C    -39.138800   16.938300  -95.278600
  C    -39.805900   18.144900  -95.071600
  H    -39.490100   16.079300  -94.731200
  C    -37.190900   15.756600  -96.579500
  H    -37.466600   14.901600  -95.931100
  H    -36.177100   15.973500  -96.464400
  C    -37.325100   15.223400  -98.016500
  H    -36.849600   15.885000  -98.758700
  H    -36.860600   14.207500  -98.058200
  C    -38.869500   15.183800  -98.516100
  H    -39.261100   16.203800  -98.789500
  H    -38.969900   14.514400  -99.388000
  H    -39.480600   14.707800  -97.784600
  S    -41.168000   19.873900  -93.303000
  C    -42.761100   19.554300  -92.829600
  C    -43.180400   18.376200  -93.420500
  C    -42.263800   17.736100  -94.315700
  C    -41.038300   18.417200  -94.350300
  H    -44.133500   18.047900  -93.250300
  C    -42.582300   16.477500  -95.035400
  H    -42.891800   15.706300  -94.340500
  H    -41.695700   16.219400  -95.677400
  C    -43.759100   16.674000  -96.020700
  H    -43.483700   17.420700  -96.745500
  H    -44.616500   16.965700  -95.514900
  C    -43.939400   15.309900  -96.784100
  H    -43.054900   15.131700  -97.308900
  H    -44.568800   15.356200  -97.680200
  H    -44.092800   14.461400  -96.124100
  H    -36.907600   18.499500  -97.170500
  H    -43.379000   20.171200  -92.190700

 Total Charge           Charge          ....    0
 Multiplicity           Mult            ....    1
 Number of Electrons    NEL             ....  134
 Basis Dimension        Dim             ....  322

ORBITAL ENERGIES
----------------

  NO   OCC          E(Eh)            E(eV)
   0   2.0000     -88.967590     -2420.9312
   1   2.0000     -88.963692     -2420.8251
   2   2.0000     -10.331960      -281.1469
   3   2.0000     -10.331236      -281.1272
   4   2.0000     -10.317371      -280.7499
   5   2.0000     -10.313397      -280.6418
   6   2.0000     -10.305563      -280.4286
   7   2.0000     -10.304420      -280.3975
   8   2.0000     -10.297676      -280.2140
   9   2.0000     -10.296774      -280.1895
  10   2.0000     -10.292546      -280.0744
  11   2.0000     -10.291717      -280.0518
  12   2.0000     -10.286043      -279.8975
  13   2.0000     -10.282055      -279.7889
  14   2.0000     -10.281802      -279.7821
  15   2.0000     -10.273667      -279.5607
  16   2.0000      -8.082294      -219.9304
  17   2.0000      -8.078817      -219.8358
  18   2.0000      -6.040794      -164.3784
  19   2.0000      -6.037305      -164.2834
  20   2.0000      -6.036664      -164.2660
  21   2.0000      -6.033190      -164.1714
  22   2.0000      -6.033061      -164.1679
  23   2.0000      -6.029774      -164.0785
  24   2.0000      -1.005024       -27.3481
  25   2.0000      -0.984952       -26.8019
  26   2.0000      -0.913905       -24.8686
  27   2.0000      -0.906735       -24.6735
  28   2.0000      -0.868417       -23.6308
  29   2.0000      -0.849599       -23.1188
  30   2.0000      -0.838948       -22.8289
  31   2.0000      -0.811724       -22.0881
  32   2.0000      -0.783776       -21.3276
  33   2.0000      -0.773801       -21.0562
  34   2.0000      -0.710887       -19.3442
  35   2.0000      -0.701606       -19.0917
  36   2.0000      -0.698236       -19.0000
  37   2.0000      -0.661478       -17.9997
  38   2.0000      -0.640386       -17.4258
  39   2.0000      -0.615521       -16.7492
  40   2.0000      -0.597922       -16.2703
  41   2.0000      -0.577975       -15.7275
  42   2.0000      -0.574422       -15.6308
  43   2.0000      -0.552922       -15.0458
  44   2.0000      -0.539269       -14.6743
  45   2.0000      -0.522679       -14.2228
  46   2.0000      -0.517799       -14.0900
  47   2.0000      -0.506605       -13.7854
  48   2.0000      -0.505731       -13.7616
  49   2.0000      -0.502672       -13.6784
  50   2.0000      -0.490748       -13.3539
  51   2.0000      -0.477534       -12.9944
  52   2.0000      -0.471277       -12.8241
  53   2.0000      -0.464280       -12.6337
  54   2.0000      -0.458711       -12.4822
  55   2.0000      -0.444041       -12.0830
  56   2.0000      -0.441737       -12.0203
  57   2.0000      -0.439300       -11.9540
  58   2.0000      -0.435087       -11.8393
  59   2.0000      -0.429444       -11.6858
  60   2.0000      -0.421615       -11.4727
  61   2.0000      -0.417657       -11.3650
  62   2.0000      -0.413138       -11.2421
  63   2.0000      -0.349271        -9.5041
  64   2.0000      -0.330207        -8.9854
  65   2.0000      -0.327563        -8.9134
  66   2.0000      -0.290423        -7.9028
  67   0.0000       0.025946         0.7060
  68   0.0000       0.073383         1.9969
  69   0.0000       0.116388         3.1671
  70   0.0000       0.118722         3.2306
  71   0.0000       0.124473         3.3871

MULLIKEN ATOMIC CHARGES
-----------------------
   0 S :    0.122598
   1 C :   -0.094841
   2 C :   -0.119169
   3 C :    0.028639
   4 C :   -0.161380
   5 H :    0.011517
   6 C :    0.100928
   7 H :    0.028723
   8 H :    0.021281
   9 C :   -0.108838
  10 H :    0.035548
  11 H :    0.045458
  12 C :   -0.078142
  13 H :    0.058492
  14 H :    0.032989
  15 H :    0.020393
  16 S :    0.103690
  17 C :   -0.074645
  18 C :   -0.014114
  19 C :   -0.007936
  20 C :   -0.166765
  21 H :   -0.023317
  22 C :    0.042597
  23 H :    0.035357
  24 H :    0.034077
  25 C :   -0.068996
  26 H :    0.031812
  27 H :    0.020659
  28 C :   -0.016906
  29 H :    0.001937
  30 H :    0.030283
  31 H :    0.032088
  32 H :    0.034960
  33 H :    0.061022
Sum of atomic charges:    0.0000000

LOEWDIN ATOMIC CHARGES
----------------------
   0 S :    0.419375
   1 C :   -0.202926
   2 C :   -0.061706
   3 C :   -0.062808
   4 C :   -0.196651
   5 H :    0.028140
   6 C :   -0.032588
   7 H :    0.035463
   8 H :    0.025671
   9 C :   -0.038253
  10 H :    0.021967
  11 H :    0.030150
  12 C :   -0.073466
  13 H :    0.034957
  14 H :    0.026020
  15 H :    0.014152
  16 S :    0.409814
  17 C :   -0.193911
  18 C :   -0.068485
  19 C :   -0.047792
  20 C :   -0.194756
  21 H :    0.011343
  22 C :   -0.032522
  23 H :    0.032401
  24 H :    0.038365
  25 C :   -0.022065
  26 H :    0.026756
  27 H :    0.009361
  28 C :   -0.068145
  29 H :    0.018280
  30 H :    0.029464
  31 H :    0.024657
  32 H :    0.024974
  33 H :    0.034766

  Mayer bond orders larger than 0.100000
B(  0-S ,  1-C ) :   1.1558 B(  0-S ,  4-C ) :   1.1486 B(  1-C ,  2-C ) :   1.5831
B(  1-C ,  4-C ) :   0.1014 B(  1-C , 32-H ) :   0.9712 B(  2-C ,  3-C ) :   1.2567
B(  2-C ,  6-C ) :   1.0263 B(  3-C ,  4-C ) :   1.5602 B(  3-C ,  5-H ) :   0.9932
B(  4-C , 20-C ) :   1.0610 B(  6-C ,  7-H ) :   0.9424 B(  6-C ,  8-H ) :   0.9354
B(  6-C ,  9-C ) :   1.0731 B(  9-C , 10-H ) :   0.9587 B(  9-C , 11-H ) :   0.9602
B(  9-C , 12-C ) :   1.0658 B( 12-C , 13-H ) :   0.9731 B( 12-C , 14-H ) :   0.9766
B( 12-C , 15-H ) :   0.9804 B( 16-S , 17-C ) :   1.1736 B( 16-S , 20-C ) :   1.1351
B( 17-C , 18-C ) :   1.5769 B( 17-C , 33-H ) :   0.9696 B( 18-C , 19-C ) :   1.2488
B( 18-C , 21-H ) :   1.0037 B( 19-C , 20-C ) :   1.5566 B( 19-C , 22-C ) :   1.0552
B( 22-C , 23-H ) :   0.9316 B( 22-C , 24-H ) :   0.9316 B( 22-C , 25-C ) :   1.0639
B( 25-C , 26-H ) :   0.9544 B( 25-C , 27-H ) :   0.9622 B( 25-C , 28-C ) :   1.0828
B( 28-C , 29-H ) :   0.9679 B( 28-C , 30-H ) :   0.9711 B( 28-C , 31-H ) :   0.9741

Dispersion correction           -0.014514772
FINAL SINGLE POINT ENERGY     -1339.877924020227

DIPOLE MOMENT
-------------
                                X             Y             Z
Electronic contribution:      5.00832      25.25288      16.57787
Nuclear contribution   :     -5.15005     -25.87003     -16.78006
                        -----------------------------------------
Total Dipole Moment    :     -0.14173      -0.61715      -0.20219
                        -----------------------------------------
Magnitude (a.u.)       :      0.66471
Magnitude (Debye)      :      1.68955

Rotational constants in cm-1:     0.017800     0.009575     0.006783
Rotational constants in MHz :   533.644317   287.043384   203.337476

                             ****ORCA TERMINATED NORMALLY****
TOTAL RUN TIME: 0 days 0 hours 0 minutes 22 seconds 51 msec
