                         Program Version 4.2.1 -  RELEASE  -
|  1> ! wB97X-D3 SP def2-SVP
|  2> %pal
|  3> nprocs 24
|  4> end
|  5>
|  6> * xyz 0 1
|  7> S 	 -42.7207 	 -3.39783 	 19.136
|  8> C 	 -43.7406 	 -3.94014 	 17.8558
|  9> C 	 -44.4447 	 -5.09784 	 18.1652
| 10> C 	 -44.2747 	 -5.41458 	 19.5518
| 11> C 	 -43.5075 	 -4.48261 	 20.24
| 12> H 	 -44.708 	 -6.1463 	 20.1607
| 13> C 	 -45.2289 	 -5.85048 	 17.0499
| 14> H 	 -45.336 	 -6.96819 	 17.1449
| 15> H 	 -44.5586 	 -5.66532 	 16.2018
| 16> C 	 -46.6119 	 -5.25407 	 16.8757
| 17> H 	 -47.2527 	 -5.53005 	 17.7825
| 18> H 	 -46.5056 	 -4.25026 	 16.8547
| 19> C 	 -47.4235 	 -5.80806 	 15.6726
| 20> H 	 -47.0756 	 -5.27392 	 14.6902
| 21> H 	 -47.4033 	 -6.84306 	 15.616
| 22> H 	 -48.4694 	 -5.42637 	 15.6468
| 23> S 	 -43.493 	 -6.13642 	 22.4732
| 24> C 	 -42.9185 	 -5.36817 	 24.0313
| 25> C 	 -42.7835 	 -3.98701 	 23.9287
| 26> C 	 -42.9856 	 -3.54334 	 22.5901
| 27> C 	 -43.2701 	 -4.56015 	 21.6826
| 28> H 	 -42.4385 	 -3.36009 	 24.7366
| 29> C 	 -42.775 	 -2.09214 	 22.2576
| 30> H 	 -43.1333 	 -1.56116 	 23.1406
| 31> H 	 -43.4493 	 -1.91053 	 21.4255
| 32> C 	 -41.3408 	 -1.6798 	 21.8791
| 33> H 	 -41.2018 	 -0.730783 	 21.3427
| 34> H 	 -40.9583 	 -2.54323 	 21.3438
| 35> C 	 -40.4665 	 -1.47387 	 23.1227
| 36> H 	 -40.396 	 -2.37381 	 23.6719
| 37> H 	 -40.8284 	 -0.703939 	 23.819
| 38> H 	 -39.4577 	 -1.16734 	 22.8962
| 39> H 	 -43.8103 	 -3.72191 	 16.852
| 40> H 	 -42.8762 	 -5.80344 	 24.9994
| 41> *
| 42>
| 43>                          ****END OF INPUT****

CARTESIAN COORDINATES (ANGSTROEM)
---------------------------------
  S    -42.720700   -3.397830   19.136000
  C    -43.740600   -3.940140   17.855800
  C    -44.444700   -5.097840   18.165200
  C    -44.274700   -5.414580   19.551800
  C    -43.507500   -4.482610   20.240000
  H    -44.708000   -6.146300   20.160700
  C    -45.228900   -5.850480   17.049900
  H    -45.336000   -6.968190   17.144900
  H    -44.558600   -5.665320   16.201800
  C    -46.611900   -5.254070   16.875700
  H    -47.252700   -5.530050   17.782500
  H    -46.505600   -4.250260   16.854700
  C    -47.423500   -5.808060   15.672600
  H    -47.075600   -5.273920   14.690200
  H    -47.403300   -6.843060   15.616000
  H    -48.469400   -5.426370   15.646800
  S    -43.493000   -6.136420   22.473200
  C    -42.918500   -5.368170   24.031300
  C    -42.783500   -3.987010   23.928700
  C    -42.985600   -3.543340   22.590100
  C    -43.270100   -4.560150   21.682600
  H    -42.438500   -3.360090   24.736600
  C    -42.775000   -2.092140   22.257600
  H    -43.133300   -1.561160   23.140600
  H    -43.449300   -1.910530   21.425500
  C    -41.340800   -1.679800   21.879100
  H    -41.201800   -0.730783   21.342700
  H    -40.958300   -2.543230   21.343800
  C    -40.466500   -1.473870   23.122700
  H    -40.396000   -2.373810   23.671900
  H    -40.828400   -0.703939   23.819000
  H    -39.457700   -1.167340   22.896200
  H    -43.810300   -3.721910   16.852000
  H    -42.876200   -5.803440   24.999400

 Total Charge           Charge          ....    0
 Multiplicity           Mult            ....    1
 Number of Electrons    NEL             ....  134
 Basis Dimension        Dim             ....  322

ORBITAL ENERGIES
----------------

  NO   OCC          E(Eh)            E(eV)
   0   2.0000     -88.975450     -2421.1451
   1   2.0000     -88.972210     -2421.0569
   2   2.0000     -10.331661      -281.1388
   3   2.0000     -10.329402      -281.0773
   4   2.0000     -10.323786      -280.9245
   5   2.0000     -10.305570      -280.4288
   6   2.0000     -10.305099      -280.4160
   7   2.0000     -10.301317      -280.3131
   8   2.0000     -10.300722      -280.2969
   9   2.0000     -10.297362      -280.2055
  10   2.0000     -10.290478      -280.0181
  11   2.0000     -10.287320      -279.9322
  12   2.0000     -10.286510      -279.9102
  13   2.0000     -10.285001      -279.8691
  14   2.0000     -10.284330      -279.8509
  15   2.0000     -10.270273      -279.4683
  16   2.0000      -8.089517      -220.1270
  17   2.0000      -8.084897      -220.0012
  18   2.0000      -6.048122      -164.5778
  19   2.0000      -6.044137      -164.4693
  20   2.0000      -6.043701      -164.4575
  21   2.0000      -6.040201      -164.3622
  22   2.0000      -6.039949      -164.3554
  23   2.0000      -6.035232      -164.2270
  24   2.0000      -1.008270       -27.4364
  25   2.0000      -0.981194       -26.6997
  26   2.0000      -0.912522       -24.8310
  27   2.0000      -0.909443       -24.7472
  28   2.0000      -0.872061       -23.7300
  29   2.0000      -0.853312       -23.2198
  30   2.0000      -0.843945       -22.9649
  31   2.0000      -0.817490       -22.2450
  32   2.0000      -0.783158       -21.3108
  33   2.0000      -0.770641       -20.9702
  34   2.0000      -0.712346       -19.3839
  35   2.0000      -0.699374       -19.0309
  36   2.0000      -0.693231       -18.8638
  37   2.0000      -0.675318       -18.3763
  38   2.0000      -0.639278       -17.3956
  39   2.0000      -0.609809       -16.5938
  40   2.0000      -0.593113       -16.1394
  41   2.0000      -0.582389       -15.8476
  42   2.0000      -0.557216       -15.1626
  43   2.0000      -0.555742       -15.1225
  44   2.0000      -0.550017       -14.9667
  45   2.0000      -0.521139       -14.1809
  46   2.0000      -0.519064       -14.1245
  47   2.0000      -0.510639       -13.8952
  48   2.0000      -0.503868       -13.7109
  49   2.0000      -0.494343       -13.4518
  50   2.0000      -0.492506       -13.4018
  51   2.0000      -0.476718       -12.9722
  52   2.0000      -0.474106       -12.9011
  53   2.0000      -0.467398       -12.7185
  54   2.0000      -0.461975       -12.5710
  55   2.0000      -0.453073       -12.3287
  56   2.0000      -0.446281       -12.1439
  57   2.0000      -0.437245       -11.8981
  58   2.0000      -0.432767       -11.7762
  59   2.0000      -0.427202       -11.6247
  60   2.0000      -0.423221       -11.5164
  61   2.0000      -0.412662       -11.2291
  62   2.0000      -0.407199       -11.0805
  63   2.0000      -0.358301        -9.7499
  64   2.0000      -0.334849        -9.1117
  65   2.0000      -0.332811        -9.0563
  66   2.0000      -0.282587        -7.6896
  67   0.0000       0.016786         0.4568
  68   0.0000       0.074972         2.0401
  69   0.0000       0.093539         2.5453
  70   0.0000       0.108784         2.9602
  71   0.0000       0.129666         3.5284

MULLIKEN ATOMIC CHARGES
-----------------------
   0 S :    0.133337
   1 C :   -0.054127
   2 C :   -0.098432
   3 C :    0.002796
   4 C :   -0.132143
   5 H :   -0.008193
   6 C :    0.039227
   7 H :    0.039424
   8 H :    0.028554
   9 C :   -0.046469
  10 H :    0.039998
  11 H :    0.000853
  12 C :   -0.054998
  13 H :    0.031918
  14 H :    0.030411
  15 H :    0.038870
  16 S :    0.081736
  17 C :   -0.064609
  18 C :   -0.028089
  19 C :   -0.104429
  20 C :   -0.116659
  21 H :    0.026530
  22 C :    0.064168
  23 H :    0.020806
  24 H :    0.030323
  25 C :   -0.032252
  26 H :    0.043200
  27 H :    0.031403
  28 C :   -0.060886
  29 H :    0.019271
  30 H :    0.024050
  31 H :    0.026624
  32 H :    0.002926
  33 H :    0.044859
Sum of atomic charges:    0.0000000

LOEWDIN ATOMIC CHARGES
----------------------
   0 S :    0.444347
   1 C :   -0.206109
   2 C :   -0.048182
   3 C :   -0.066309
   4 C :   -0.191020
   5 H :    0.012176
   6 C :   -0.031725
   7 H :    0.035846
   8 H :    0.030009
   9 C :   -0.037268
  10 H :    0.035028
  11 H :    0.006120
  12 C :   -0.069128
  13 H :    0.033296
  14 H :    0.013163
  15 H :    0.031590
  16 S :    0.368835
  17 C :   -0.154906
  18 C :   -0.062054
  19 C :   -0.060646
  20 C :   -0.180537
  21 H :    0.033747
  22 C :   -0.036937
  23 H :    0.029328
  24 H :    0.024968
  25 C :   -0.037118
  26 H :    0.030203
  27 H :    0.020954
  28 C :   -0.066652
  29 H :    0.015635
  30 H :    0.023506
  31 H :    0.023639
  32 H :    0.012603
  33 H :    0.023596

  Mayer bond orders larger than 0.100000
B(  0-S ,  1-C ) :   1.1380 B(  0-S ,  4-C ) :   1.1457 B(  1-C ,  2-C ) :   1.6120
B(  1-C , 32-H ) :   0.9628 B(  2-C ,  3-C ) :   1.2510 B(  2-C ,  6-C ) :   1.0042
B(  3-C ,  4-C ) :   1.5450 B(  3-C ,  5-H ) :   1.0028 B(  4-C , 20-C ) :   1.0884
B(  6-C ,  7-H ) :   0.9480 B(  6-C ,  8-H ) :   0.9426 B(  6-C ,  9-C ) :   1.0629
B(  9-C , 10-H ) :   0.9542 B(  9-C , 11-H ) :   0.9572 B(  9-C , 12-C ) :   1.0805
B( 12-C , 13-H ) :   0.9740 B( 12-C , 14-H ) :   0.9760 B( 12-C , 15-H ) :   0.9740
B( 16-S , 17-C ) :   1.1209 B( 16-S , 20-C ) :   1.1160 B( 17-C , 18-C ) :   1.6429
B( 17-C , 33-H ) :   0.9659 B( 18-C , 19-C ) :   1.2316 B( 18-C , 21-H ) :   0.9806
B( 19-C , 20-C ) :   1.5839 B( 19-C , 22-C ) :   1.0544 B( 22-C , 23-H ) :   0.9349
B( 22-C , 24-H ) :   0.9209 B( 22-C , 25-C ) :   1.0523 B( 25-C , 26-H ) :   0.9598
B( 25-C , 27-H ) :   0.9510 B( 25-C , 28-C ) :   1.0827 B( 28-C , 29-H ) :   0.9740
B( 28-C , 30-H ) :   0.9748 B( 28-C , 31-H ) :   0.9717

Dispersion correction           -0.014117098
FINAL SINGLE POINT ENERGY     -1339.852347846737

DIPOLE MOMENT
-------------
                                X             Y             Z
Electronic contribution:      5.33173      -7.02546       8.90185
Nuclear contribution   :     -5.44983       7.16880      -8.92922
                        -----------------------------------------
Total Dipole Moment    :     -0.11810       0.14333      -0.02737
                        -----------------------------------------
Magnitude (a.u.)       :      0.18772
Magnitude (Debye)      :      0.47716

Rotational constants in cm-1:     0.025336     0.007245     0.005973
Rotational constants in MHz :   759.560608   217.210257   179.077770

                             ****ORCA TERMINATED NORMALLY****
TOTAL RUN TIME: 0 days 0 hours 0 minutes 23 seconds 469 msec
