                         Program Version 4.2.1 -  RELEASE  -
|  1> ! wB97X-D3 SP def2-SVP
|  2> %pal
|  3> nprocs 24
|  4> end
|  5>
|  6> * xyz 0 1
|  7> S 	 -87.9925 	 -47.6637 	 -80.6976
|  8> C 	 -88.1289 	 -46.3542 	 -79.5767
|  9> C 	 -88.1566 	 -46.8055 	 -78.2513
| 10> C 	 -88.3759 	 -48.2316 	 -78.1736
| 11> C 	 -88.163 	 -48.8689 	 -79.3834
| 12> H 	 -88.551 	 -48.7783 	 -77.2353
| 13> C 	 -88.3281 	 -45.9279 	 -77.0337
| 14> H 	 -89.4317 	 -45.9207 	 -76.8517
| 15> H 	 -88.0249 	 -44.9742 	 -77.3136
| 16> C 	 -87.5005 	 -46.1469 	 -75.8421
| 17> H 	 -87.5806 	 -45.242 	 -75.3713
| 18> H 	 -87.9767 	 -46.921 	 -75.3341
| 19> C 	 -85.9653 	 -46.2937 	 -76.086
| 20> H 	 -85.7092 	 -47.191 	 -76.8138
| 21> H 	 -85.5451 	 -45.3441 	 -76.5472
| 22> H 	 -85.4275 	 -46.4587 	 -75.1559
| 23> S 	 -89.3766 	 -50.7844 	 -81.0326
| 24> C 	 -89.0237 	 -52.4419 	 -80.7143
| 25> C 	 -88.3598 	 -52.6746 	 -79.5576
| 26> C 	 -87.9976 	 -51.4469 	 -78.8948
| 27> C 	 -88.3543 	 -50.2913 	 -79.6703
| 28> H 	 -88.0408 	 -53.6751 	 -79.2906
| 29> C 	 -87.1289 	 -51.4066 	 -77.6678
| 30> H 	 -87.8664 	 -51.4522 	 -76.8679
| 31> H 	 -86.6833 	 -50.4428 	 -77.5385
| 32> C 	 -85.9673 	 -52.4069 	 -77.5213
| 33> H 	 -86.2641 	 -53.4305 	 -77.3696
| 34> H 	 -85.4322 	 -52.2311 	 -76.5598
| 35> C 	 -84.8958 	 -52.2056 	 -78.6331
| 36> H 	 -84.1306 	 -53.0641 	 -78.6342
| 37> H 	 -84.3108 	 -51.275 	 -78.4731
| 38> H 	 -85.359 	 -52.113 	 -79.6591
| 39> H 	 -88.0886 	 -45.3416 	 -79.8888
| 40> H 	 -89.348 	 -53.3252 	 -81.236
| 41> *
| 42>
| 43>                          ****END OF INPUT****

CARTESIAN COORDINATES (ANGSTROEM)
---------------------------------
  S    -87.992500  -47.663700  -80.697600
  C    -88.128900  -46.354200  -79.576700
  C    -88.156600  -46.805500  -78.251300
  C    -88.375900  -48.231600  -78.173600
  C    -88.163000  -48.868900  -79.383400
  H    -88.551000  -48.778300  -77.235300
  C    -88.328100  -45.927900  -77.033700
  H    -89.431700  -45.920700  -76.851700
  H    -88.024900  -44.974200  -77.313600
  C    -87.500500  -46.146900  -75.842100
  H    -87.580600  -45.242000  -75.371300
  H    -87.976700  -46.921000  -75.334100
  C    -85.965300  -46.293700  -76.086000
  H    -85.709200  -47.191000  -76.813800
  H    -85.545100  -45.344100  -76.547200
  H    -85.427500  -46.458700  -75.155900
  S    -89.376600  -50.784400  -81.032600
  C    -89.023700  -52.441900  -80.714300
  C    -88.359800  -52.674600  -79.557600
  C    -87.997600  -51.446900  -78.894800
  C    -88.354300  -50.291300  -79.670300
  H    -88.040800  -53.675100  -79.290600
  C    -87.128900  -51.406600  -77.667800
  H    -87.866400  -51.452200  -76.867900
  H    -86.683300  -50.442800  -77.538500
  C    -85.967300  -52.406900  -77.521300
  H    -86.264100  -53.430500  -77.369600
  H    -85.432200  -52.231100  -76.559800
  C    -84.895800  -52.205600  -78.633100
  H    -84.130600  -53.064100  -78.634200
  H    -84.310800  -51.275000  -78.473100
  H    -85.359000  -52.113000  -79.659100
  H    -88.088600  -45.341600  -79.888800
  H    -89.348000  -53.325200  -81.236000

 Total Charge           Charge          ....    0
 Multiplicity           Mult            ....    1
 Number of Electrons    NEL             ....  134
 Basis Dimension        Dim             ....  322

ORBITAL ENERGIES
----------------

  NO   OCC          E(Eh)            E(eV)
   0   2.0000     -88.966606     -2420.9044
   1   2.0000     -88.965326     -2420.8696
   2   2.0000     -10.332564      -281.1633
   3   2.0000     -10.329925      -281.0916
   4   2.0000     -10.312801      -280.6256
   5   2.0000     -10.310307      -280.5577
   6   2.0000     -10.308121      -280.4982
   7   2.0000     -10.301028      -280.3052
   8   2.0000     -10.297377      -280.2059
   9   2.0000     -10.293401      -280.0977
  10   2.0000     -10.291095      -280.0349
  11   2.0000     -10.290321      -280.0139
  12   2.0000     -10.288857      -279.9740
  13   2.0000     -10.287235      -279.9299
  14   2.0000     -10.282145      -279.7914
  15   2.0000     -10.274186      -279.5748
  16   2.0000      -8.081206      -219.9008
  17   2.0000      -8.079787      -219.8622
  18   2.0000      -6.039763      -164.3503
  19   2.0000      -6.038380      -164.3127
  20   2.0000      -6.035788      -164.2421
  21   2.0000      -6.034310      -164.2019
  22   2.0000      -6.031871      -164.1356
  23   2.0000      -6.030517      -164.0987
  24   2.0000      -1.001285       -27.2463
  25   2.0000      -0.981446       -26.7065
  26   2.0000      -0.923080       -25.1183
  27   2.0000      -0.906806       -24.6754
  28   2.0000      -0.868960       -23.6456
  29   2.0000      -0.847192       -23.0533
  30   2.0000      -0.840093       -22.8601
  31   2.0000      -0.814137       -22.1538
  32   2.0000      -0.782344       -21.2887
  33   2.0000      -0.768486       -20.9116
  34   2.0000      -0.710846       -19.3431
  35   2.0000      -0.697175       -18.9711
  36   2.0000      -0.694388       -18.8953
  37   2.0000      -0.649244       -17.6668
  38   2.0000      -0.637607       -17.3502
  39   2.0000      -0.626247       -17.0411
  40   2.0000      -0.595171       -16.1954
  41   2.0000      -0.573878       -15.6160
  42   2.0000      -0.558982       -15.2107
  43   2.0000      -0.555151       -15.1064
  44   2.0000      -0.544406       -14.8140
  45   2.0000      -0.530903       -14.4466
  46   2.0000      -0.512324       -13.9410
  47   2.0000      -0.504909       -13.7393
  48   2.0000      -0.499580       -13.5943
  49   2.0000      -0.491141       -13.3646
  50   2.0000      -0.487896       -13.2763
  51   2.0000      -0.475408       -12.9365
  52   2.0000      -0.469417       -12.7735
  53   2.0000      -0.461436       -12.5563
  54   2.0000      -0.457289       -12.4435
  55   2.0000      -0.448487       -12.2040
  56   2.0000      -0.446888       -12.1604
  57   2.0000      -0.442685       -12.0461
  58   2.0000      -0.436848       -11.8873
  59   2.0000      -0.422217       -11.4891
  60   2.0000      -0.418848       -11.3974
  61   2.0000      -0.411192       -11.1891
  62   2.0000      -0.410449       -11.1689
  63   2.0000      -0.352497        -9.5919
  64   2.0000      -0.329727        -8.9723
  65   2.0000      -0.326270        -8.8783
  66   2.0000      -0.284698        -7.7470
  67   0.0000       0.024478         0.6661
  68   0.0000       0.078788         2.1439
  69   0.0000       0.111128         3.0239
  70   0.0000       0.120028         3.2661
  71   0.0000       0.126491         3.4420

MULLIKEN ATOMIC CHARGES
-----------------------
   0 S :    0.102030
   1 C :   -0.109406
   2 C :   -0.114044
   3 C :    0.011661
   4 C :   -0.147208
   5 H :    0.028614
   6 C :    0.066748
   7 H :    0.054975
   8 H :   -0.019427
   9 C :    0.006853
  10 H :    0.011423
  11 H :    0.015786
  12 C :   -0.114492
  13 H :    0.061254
  14 H :    0.040219
  15 H :    0.042265
  16 S :    0.117329
  17 C :   -0.064157
  18 C :   -0.044267
  19 C :   -0.065476
  20 C :   -0.146544
  21 H :    0.019885
  22 C :    0.070069
  23 H :    0.035585
  24 H :    0.017440
  25 C :   -0.052497
  26 H :    0.022781
  27 H :    0.027592
  28 C :   -0.105520
  29 H :    0.045272
  30 H :    0.040356
  31 H :    0.058072
  32 H :    0.041419
  33 H :    0.045410
Sum of atomic charges:    0.0000000

LOEWDIN ATOMIC CHARGES
----------------------
   0 S :    0.393556
   1 C :   -0.195698
   2 C :   -0.063255
   3 C :   -0.060828
   4 C :   -0.182702
   5 H :    0.035298
   6 C :   -0.033463
   7 H :    0.044405
   8 H :    0.016739
   9 C :   -0.035060
  10 H :    0.021631
  11 H :    0.014058
  12 C :   -0.071993
  13 H :    0.037965
  14 H :    0.031565
  15 H :    0.024754
  16 S :    0.406732
  17 C :   -0.190315
  18 C :   -0.074719
  19 C :   -0.047579
  20 C :   -0.200114
  21 H :    0.033164
  22 C :   -0.038020
  23 H :    0.035256
  24 H :    0.027903
  25 C :   -0.045654
  26 H :    0.016695
  27 H :    0.032020
  28 C :   -0.077664
  29 H :    0.032834
  30 H :    0.028144
  31 H :    0.032603
  32 H :    0.021151
  33 H :    0.030591

  Mayer bond orders larger than 0.100000
B(  0-S ,  1-C ) :   1.1432 B(  0-S ,  4-C ) :   1.1379 B(  1-C ,  2-C ) :   1.6010
B(  1-C , 32-H ) :   0.9719 B(  2-C ,  3-C ) :   1.2212 B(  2-C ,  6-C ) :   1.0356
B(  3-C ,  4-C ) :   1.5747 B(  3-C ,  5-H ) :   0.9835 B(  4-C , 20-C ) :   1.0692
B(  6-C ,  7-H ) :   0.9403 B(  6-C ,  8-H ) :   0.9304 B(  6-C ,  9-C ) :   1.0715
B(  9-C , 10-H ) :   0.9517 B(  9-C , 11-H ) :   0.9542 B(  9-C , 12-C ) :   1.0762
B( 12-C , 13-H ) :   0.9703 B( 12-C , 14-H ) :   0.9726 B( 12-C , 15-H ) :   0.9755
B( 16-S , 17-C ) :   1.1478 B( 16-S , 20-C ) :   1.1336 B( 17-C , 18-C ) :   1.6380
B( 17-C , 33-H ) :   0.9589 B( 18-C , 19-C ) :   1.2368 B( 18-C , 21-H ) :   0.9884
B( 19-C , 20-C ) :   1.5680 B( 19-C , 22-C ) :   1.0452 B( 22-C , 23-H ) :   0.9182
B( 22-C , 24-H ) :   0.9365 B( 22-C , 25-C ) :   1.0756 B( 25-C , 26-H ) :   0.9556
B( 25-C , 27-H ) :   0.9509 B( 25-C , 28-C ) :   1.0606 B( 28-C , 29-H ) :   0.9754
B( 28-C , 30-H ) :   0.9748 B( 28-C , 31-H ) :   0.9773

Dispersion correction           -0.014788098
FINAL SINGLE POINT ENERGY     -1339.863379665377

DIPOLE MOMENT
-------------
                                X             Y             Z
Electronic contribution:    -15.89790      -0.89684     -22.66578
Nuclear contribution   :     16.03379       0.91067      23.39408
                        -----------------------------------------
Total Dipole Moment    :      0.13589       0.01383       0.72830
                        -----------------------------------------
Magnitude (a.u.)       :      0.74100
Magnitude (Debye)      :      1.88347

Rotational constants in cm-1:     0.018382     0.009351     0.007019
Rotational constants in MHz :   551.071640   280.332449   210.420407

                             ****ORCA TERMINATED NORMALLY****
TOTAL RUN TIME: 0 days 0 hours 0 minutes 22 seconds 211 msec
