                         Program Version 4.2.1 -  RELEASE  -
|  1> ! wB97X-D3 SP def2-SVP
|  2> %pal
|  3> nprocs 24
|  4> end
|  5>
|  6> * xyz 0 1
|  7> S 	 -110.871 	 53.0343 	 -86.76
|  8> C 	 -109.823 	 51.8847 	 -87.497
|  9> C 	 -108.744 	 52.5277 	 -88.1412
| 10> C 	 -108.75 	 53.9265 	 -87.922
| 11> C 	 -109.809 	 54.3852 	 -87.1307
| 12> H 	 -107.964 	 54.661 	 -88.1433
| 13> C 	 -107.682 	 51.8576 	 -89.0149
| 14> H 	 -107.488 	 50.9446 	 -88.5627
| 15> H 	 -106.781 	 52.3808 	 -88.8438
| 16> C 	 -107.917 	 51.752 	 -90.5487
| 17> H 	 -108.955 	 51.5395 	 -90.7623
| 18> H 	 -107.722 	 52.6531 	 -91.1608
| 19> C 	 -106.958 	 50.6893 	 -91.07
| 20> H 	 -105.879 	 51.0584 	 -90.9321
| 21> H 	 -107.17 	 49.743 	 -90.5727
| 22> H 	 -107.087 	 50.5726 	 -92.1483
| 23> S 	 -111.706 	 56.2596 	 -86.6045
| 24> C 	 -111.097 	 57.7126 	 -85.8031
| 25> C 	 -109.772 	 57.6172 	 -85.3957
| 26> C 	 -109.12 	 56.5005 	 -85.9017
| 27> C 	 -110.047 	 55.7001 	 -86.5188
| 28> H 	 -109.441 	 58.3481 	 -84.6977
| 29> C 	 -107.717 	 56.0949 	 -85.6531
| 30> H 	 -107.072 	 57.0332 	 -85.4215
| 31> H 	 -107.24 	 55.8999 	 -86.5801
| 32> C 	 -107.479 	 55.0533 	 -84.5038
| 33> H 	 -106.413 	 54.8646 	 -84.298
| 34> H 	 -107.837 	 54.1198 	 -84.9273
| 35> C 	 -108.271 	 55.2594 	 -83.1564
| 36> H 	 -109.323 	 55.0003 	 -83.3417
| 37> H 	 -108.07 	 56.2281 	 -82.6786
| 38> H 	 -108.056 	 54.544 	 -82.3932
| 39> H 	 -110.128 	 50.84 	 -87.7049
| 40> H 	 -111.782 	 58.4281 	 -85.3533
| 41> *
| 42>
| 43>                          ****END OF INPUT****

CARTESIAN COORDINATES (ANGSTROEM)
---------------------------------
  S    -110.871000   53.034300  -86.760000
  C    -109.823000   51.884700  -87.497000
  C    -108.744000   52.527700  -88.141200
  C    -108.750000   53.926500  -87.922000
  C    -109.809000   54.385200  -87.130700
  H    -107.964000   54.661000  -88.143300
  C    -107.682000   51.857600  -89.014900
  H    -107.488000   50.944600  -88.562700
  H    -106.781000   52.380800  -88.843800
  C    -107.917000   51.752000  -90.548700
  H    -108.955000   51.539500  -90.762300
  H    -107.722000   52.653100  -91.160800
  C    -106.958000   50.689300  -91.070000
  H    -105.879000   51.058400  -90.932100
  H    -107.170000   49.743000  -90.572700
  H    -107.087000   50.572600  -92.148300
  S    -111.706000   56.259600  -86.604500
  C    -111.097000   57.712600  -85.803100
  C    -109.772000   57.617200  -85.395700
  C    -109.120000   56.500500  -85.901700
  C    -110.047000   55.700100  -86.518800
  H    -109.441000   58.348100  -84.697700
  C    -107.717000   56.094900  -85.653100
  H    -107.072000   57.033200  -85.421500
  H    -107.240000   55.899900  -86.580100
  C    -107.479000   55.053300  -84.503800
  H    -106.413000   54.864600  -84.298000
  H    -107.837000   54.119800  -84.927300
  C    -108.271000   55.259400  -83.156400
  H    -109.323000   55.000300  -83.341700
  H    -108.070000   56.228100  -82.678600
  H    -108.056000   54.544000  -82.393200
  H    -110.128000   50.840000  -87.704900
  H    -111.782000   58.428100  -85.353300

 Total Charge           Charge          ....    0
 Multiplicity           Mult            ....    1
 Number of Electrons    NEL             ....  134
 Basis Dimension        Dim             ....  322

ORBITAL ENERGIES
----------------

  NO   OCC          E(Eh)            E(eV)
   0   2.0000     -88.970732     -2421.0167
   1   2.0000     -88.965317     -2420.8694
   2   2.0000     -10.327353      -281.0216
   3   2.0000     -10.325193      -280.9628
   4   2.0000     -10.315113      -280.6885
   5   2.0000     -10.314984      -280.6850
   6   2.0000     -10.302722      -280.3513
   7   2.0000     -10.299005      -280.2502
   8   2.0000     -10.297665      -280.2137
   9   2.0000     -10.292717      -280.0791
  10   2.0000     -10.291243      -280.0390
  11   2.0000     -10.291041      -280.0335
  12   2.0000     -10.287319      -279.9322
  13   2.0000     -10.284069      -279.8437
  14   2.0000     -10.283603      -279.8311
  15   2.0000     -10.277106      -279.6543
  16   2.0000      -8.085205      -220.0096
  17   2.0000      -8.080267      -219.8753
  18   2.0000      -6.043471      -164.4512
  19   2.0000      -6.040096      -164.3594
  20   2.0000      -6.038742      -164.3225
  21   2.0000      -6.035897      -164.2451
  22   2.0000      -6.034555      -164.2086
  23   2.0000      -6.031264      -164.1190
  24   2.0000      -1.009439       -27.4682
  25   2.0000      -0.984494       -26.7894
  26   2.0000      -0.910202       -24.7678
  27   2.0000      -0.904564       -24.6144
  28   2.0000      -0.866747       -23.5854
  29   2.0000      -0.851006       -23.1571
  30   2.0000      -0.847453       -23.0604
  31   2.0000      -0.810978       -22.0678
  32   2.0000      -0.786578       -21.4039
  33   2.0000      -0.768073       -20.9003
  34   2.0000      -0.707535       -19.2530
  35   2.0000      -0.701229       -19.0814
  36   2.0000      -0.689140       -18.7525
  37   2.0000      -0.665841       -18.1185
  38   2.0000      -0.640343       -17.4246
  39   2.0000      -0.617029       -16.7902
  40   2.0000      -0.596300       -16.2262
  41   2.0000      -0.569196       -15.4886
  42   2.0000      -0.558529       -15.1983
  43   2.0000      -0.546977       -14.8840
  44   2.0000      -0.541902       -14.7459
  45   2.0000      -0.526006       -14.3134
  46   2.0000      -0.510596       -13.8940
  47   2.0000      -0.507904       -13.8208
  48   2.0000      -0.502825       -13.6826
  49   2.0000      -0.492735       -13.4080
  50   2.0000      -0.487318       -13.2606
  51   2.0000      -0.471667       -12.8347
  52   2.0000      -0.470074       -12.7914
  53   2.0000      -0.463794       -12.6205
  54   2.0000      -0.457289       -12.4435
  55   2.0000      -0.453333       -12.3358
  56   2.0000      -0.449004       -12.2180
  57   2.0000      -0.440954       -11.9990
  58   2.0000      -0.437199       -11.8968
  59   2.0000      -0.422939       -11.5087
  60   2.0000      -0.420731       -11.4487
  61   2.0000      -0.416034       -11.3209
  62   2.0000      -0.402428       -10.9506
  63   2.0000      -0.345782        -9.4092
  64   2.0000      -0.339824        -9.2471
  65   2.0000      -0.330556        -8.9949
  66   2.0000      -0.285365        -7.7652
  67   0.0000       0.024540         0.6678
  68   0.0000       0.067420         1.8346
  69   0.0000       0.103034         2.8037
  70   0.0000       0.121458         3.3050
  71   0.0000       0.135654         3.6913

MULLIKEN ATOMIC CHARGES
-----------------------
   0 S :    0.103599
   1 C :   -0.125274
   2 C :   -0.123443
   3 C :    0.030648
   4 C :   -0.161800
   5 H :    0.014383
   6 C :    0.113592
   7 H :    0.000199
   8 H :    0.002585
   9 C :   -0.050365
  10 H :    0.026071
  11 H :    0.032511
  12 C :   -0.078817
  13 H :    0.043176
  14 H :    0.038013
  15 H :    0.034234
  16 S :    0.115867
  17 C :   -0.093500
  18 C :   -0.039683
  19 C :   -0.013155
  20 C :   -0.160018
  21 H :    0.009997
  22 C :    0.071085
  23 H :    0.019943
  24 H :    0.010841
  25 C :   -0.059178
  26 H :    0.034534
  27 H :    0.033784
  28 C :   -0.053561
  29 H :    0.044497
  30 H :    0.036557
  31 H :    0.023283
  32 H :    0.063614
  33 H :    0.055780
Sum of atomic charges:    0.0000000

LOEWDIN ATOMIC CHARGES
----------------------
   0 S :    0.412693
   1 C :   -0.221613
   2 C :   -0.062016
   3 C :   -0.072605
   4 C :   -0.192884
   5 H :    0.032476
   6 C :   -0.025501
   7 H :    0.022021
   8 H :    0.026621
   9 C :   -0.038838
  10 H :    0.020662
  11 H :    0.028425
  12 C :   -0.067606
  13 H :    0.034160
  14 H :    0.022880
  15 H :    0.024186
  16 S :    0.400792
  17 C :   -0.184491
  18 C :   -0.054364
  19 C :   -0.061639
  20 C :   -0.187496
  21 H :    0.030401
  22 C :   -0.037272
  23 H :    0.037744
  24 H :    0.025199
  25 C :   -0.035013
  26 H :    0.025692
  27 H :    0.025424
  28 C :   -0.070814
  29 H :    0.033455
  30 H :    0.024668
  31 H :    0.025089
  32 H :    0.034708
  33 H :    0.024856

  Mayer bond orders larger than 0.100000
B(  0-S ,  1-C ) :   1.1536 B(  0-S ,  4-C ) :   1.1668 B(  1-C ,  2-C ) :   1.5726
B(  1-C ,  4-C ) :   0.1093 B(  1-C , 32-H ) :   0.9644 B(  2-C ,  3-C ) :   1.2728
B(  2-C ,  6-C ) :   1.0230 B(  3-C ,  4-C ) :   1.5479 B(  3-C ,  5-H ) :   0.9919
B(  4-C , 20-C ) :   1.0231 B(  6-C ,  7-H ) :   0.9427 B(  6-C ,  8-H ) :   0.9294
B(  6-C ,  9-C ) :   1.0479 B(  9-C , 10-H ) :   0.9607 B(  9-C , 11-H ) :   0.9544
B(  9-C , 12-C ) :   1.0784 B( 12-C , 13-H ) :   0.9741 B( 12-C , 14-H ) :   0.9782
B( 12-C , 15-H ) :   0.9733 B( 16-S , 17-C ) :   1.1353 B( 16-S , 20-C ) :   1.1585
B( 17-C , 18-C ) :   1.6312 B( 17-C , 20-C ) :   0.1079 B( 17-C , 33-H ) :   0.9620
B( 18-C , 19-C ) :   1.2264 B( 18-C , 21-H ) :   0.9938 B( 19-C , 20-C ) :   1.5858
B( 19-C , 22-C ) :   1.0512 B( 22-C , 23-H ) :   0.9268 B( 22-C , 24-H ) :   0.9293
B( 22-C , 25-C ) :   1.0475 B( 25-C , 26-H ) :   0.9606 B( 25-C , 27-H ) :   0.9568
B( 25-C , 28-C ) :   1.0773 B( 28-C , 29-H ) :   0.9700 B( 28-C , 30-H ) :   0.9783
B( 28-C , 31-H ) :   0.9728

Dispersion correction           -0.015122471
FINAL SINGLE POINT ENERGY     -1339.866791816876

DIPOLE MOMENT
-------------
                                X             Y             Z
Electronic contribution:    -22.49513       9.47337       3.42288
Nuclear contribution   :     23.03526      -9.56372      -3.37560
                        -----------------------------------------
Total Dipole Moment    :      0.54013      -0.09035       0.04728
                        -----------------------------------------
Magnitude (a.u.)       :      0.54967
Magnitude (Debye)      :      1.39715

Rotational constants in cm-1:     0.022533     0.007786     0.006958
Rotational constants in MHz :   675.536004   233.425837   208.589297

                             ****ORCA TERMINATED NORMALLY****
TOTAL RUN TIME: 0 days 0 hours 0 minutes 20 seconds 883 msec
