                         Program Version 4.2.1 -  RELEASE  -
|  1> ! wB97X-D3 SP def2-SVP
|  2> %pal
|  3> nprocs 24
|  4> end
|  5>
|  6> * xyz 0 1
|  7> S 	 -62.8071 	 14.1715 	 -91.187
|  8> C 	 -62.8906 	 15.1963 	 -92.6399
|  9> C 	 -63.2632 	 16.4592 	 -92.194
| 10> C 	 -63.2205 	 16.7067 	 -90.8265
| 11> C 	 -62.7695 	 15.5684 	 -90.1274
| 12> H 	 -63.3412 	 17.6909 	 -90.2877
| 13> C 	 -63.5177 	 17.6101 	 -93.172
| 14> H 	 -62.6185 	 17.8213 	 -93.7937
| 15> H 	 -63.5736 	 18.4939 	 -92.5876
| 16> C 	 -64.7486 	 17.5455 	 -94.0778
| 17> H 	 -64.5351 	 18.2961 	 -94.871
| 18> H 	 -64.6215 	 16.5907 	 -94.5425
| 19> C 	 -65.9207 	 17.8904 	 -93.2836
| 20> H 	 -66.7531 	 17.6889 	 -93.8772
| 21> H 	 -66.0419 	 17.2904 	 -92.347
| 22> H 	 -65.8603 	 18.9592 	 -93.0807
| 23> S 	 -63.5974 	 14.0499 	 -88.0075
| 24> C 	 -62.9305 	 14.3977 	 -86.4458
| 25> C 	 -61.9999 	 15.384 	 -86.4253
| 26> C 	 -61.9741 	 15.998 	 -87.7138
| 27> C 	 -62.7418 	 15.3723 	 -88.6981
| 28> H 	 -61.5343 	 15.62 	 -85.4695
| 29> C 	 -60.8878 	 17.0807 	 -88.0485
| 30> H 	 -60.8996 	 17.4461 	 -89.0608
| 31> H 	 -59.9017 	 16.4998 	 -88.0049
| 32> C 	 -60.7002 	 18.1958 	 -87.0604
| 33> H 	 -60.346 	 17.8057 	 -86.0522
| 34> H 	 -61.6722 	 18.7257 	 -87.024
| 35> C 	 -59.6567 	 19.2855 	 -87.5559
| 36> H 	 -59.7284 	 19.5455 	 -88.6315
| 37> H 	 -58.6165 	 19.0201 	 -87.2907
| 38> H 	 -59.5778 	 20.2555 	 -87.0414
| 39> H 	 -62.7555 	 14.8538 	 -93.6226
| 40> H 	 -63.2382 	 13.865 	 -85.5438
| 41> *
| 42>
| 43>                          ****END OF INPUT****

CARTESIAN COORDINATES (ANGSTROEM)
---------------------------------
  S    -62.807100   14.171500  -91.187000
  C    -62.890600   15.196300  -92.639900
  C    -63.263200   16.459200  -92.194000
  C    -63.220500   16.706700  -90.826500
  C    -62.769500   15.568400  -90.127400
  H    -63.341200   17.690900  -90.287700
  C    -63.517700   17.610100  -93.172000
  H    -62.618500   17.821300  -93.793700
  H    -63.573600   18.493900  -92.587600
  C    -64.748600   17.545500  -94.077800
  H    -64.535100   18.296100  -94.871000
  H    -64.621500   16.590700  -94.542500
  C    -65.920700   17.890400  -93.283600
  H    -66.753100   17.688900  -93.877200
  H    -66.041900   17.290400  -92.347000
  H    -65.860300   18.959200  -93.080700
  S    -63.597400   14.049900  -88.007500
  C    -62.930500   14.397700  -86.445800
  C    -61.999900   15.384000  -86.425300
  C    -61.974100   15.998000  -87.713800
  C    -62.741800   15.372300  -88.698100
  H    -61.534300   15.620000  -85.469500
  C    -60.887800   17.080700  -88.048500
  H    -60.899600   17.446100  -89.060800
  H    -59.901700   16.499800  -88.004900
  C    -60.700200   18.195800  -87.060400
  H    -60.346000   17.805700  -86.052200
  H    -61.672200   18.725700  -87.024000
  C    -59.656700   19.285500  -87.555900
  H    -59.728400   19.545500  -88.631500
  H    -58.616500   19.020100  -87.290700
  H    -59.577800   20.255500  -87.041400
  H    -62.755500   14.853800  -93.622600
  H    -63.238200   13.865000  -85.543800

 Total Charge           Charge          ....    0
 Multiplicity           Mult            ....    1
 Number of Electrons    NEL             ....  134
 Basis Dimension        Dim             ....  322

ORBITAL ENERGIES
----------------

  NO   OCC          E(Eh)            E(eV)
   0   2.0000     -88.966632     -2420.9051
   1   2.0000     -88.966065     -2420.8897
   2   2.0000     -10.332663      -281.1661
   3   2.0000     -10.323405      -280.9141
   4   2.0000     -10.314894      -280.6825
   5   2.0000     -10.314438      -280.6701
   6   2.0000     -10.308109      -280.4979
   7   2.0000     -10.300280      -280.2849
   8   2.0000     -10.299109      -280.2530
   9   2.0000     -10.296877      -280.1923
  10   2.0000     -10.294701      -280.1331
  11   2.0000     -10.292460      -280.0721
  12   2.0000     -10.284649      -279.8595
  13   2.0000     -10.280986      -279.7599
  14   2.0000     -10.278091      -279.6811
  15   2.0000     -10.269464      -279.4463
  16   2.0000      -8.081807      -219.9172
  17   2.0000      -8.080873      -219.8917
  18   2.0000      -6.040229      -164.3630
  19   2.0000      -6.039362      -164.3394
  20   2.0000      -6.036203      -164.2534
  21   2.0000      -6.035491      -164.2341
  22   2.0000      -6.032561      -164.1543
  23   2.0000      -6.031630      -164.1290
  24   2.0000      -1.012419       -27.5493
  25   2.0000      -0.987688       -26.8763
  26   2.0000      -0.919535       -25.0218
  27   2.0000      -0.903061       -24.5735
  28   2.0000      -0.876175       -23.8419
  29   2.0000      -0.849832       -23.1251
  30   2.0000      -0.844447       -22.9786
  31   2.0000      -0.815052       -22.1787
  32   2.0000      -0.781516       -21.2661
  33   2.0000      -0.770758       -20.9734
  34   2.0000      -0.708156       -19.2699
  35   2.0000      -0.699937       -19.0462
  36   2.0000      -0.691680       -18.8216
  37   2.0000      -0.656319       -17.8593
  38   2.0000      -0.640614       -17.4320
  39   2.0000      -0.613232       -16.6869
  40   2.0000      -0.596743       -16.2382
  41   2.0000      -0.579541       -15.7701
  42   2.0000      -0.564421       -15.3587
  43   2.0000      -0.554182       -15.0801
  44   2.0000      -0.548003       -14.9119
  45   2.0000      -0.522398       -14.2152
  46   2.0000      -0.519492       -14.1361
  47   2.0000      -0.507149       -13.8002
  48   2.0000      -0.503947       -13.7131
  49   2.0000      -0.499088       -13.5809
  50   2.0000      -0.485418       -13.2089
  51   2.0000      -0.481553       -13.1037
  52   2.0000      -0.475127       -12.9289
  53   2.0000      -0.463747       -12.6192
  54   2.0000      -0.458375       -12.4730
  55   2.0000      -0.454874       -12.3778
  56   2.0000      -0.442367       -12.0374
  57   2.0000      -0.431332       -11.7371
  58   2.0000      -0.427727       -11.6390
  59   2.0000      -0.421021       -11.4566
  60   2.0000      -0.417615       -11.3639
  61   2.0000      -0.408499       -11.1158
  62   2.0000      -0.405368       -11.0306
  63   2.0000      -0.351342        -9.5605
  64   2.0000      -0.333462        -9.0740
  65   2.0000      -0.330683        -8.9983
  66   2.0000      -0.285766        -7.7761
  67   0.0000       0.024346         0.6625
  68   0.0000       0.062857         1.7104
  69   0.0000       0.107987         2.9385
  70   0.0000       0.119757         3.2587
  71   0.0000       0.128213         3.4888

MULLIKEN ATOMIC CHARGES
-----------------------
   0 S :    0.093733
   1 C :   -0.098574
   2 C :   -0.071648
   3 C :    0.020347
   4 C :   -0.154341
   5 H :    0.046048
   6 C :    0.023677
   7 H :    0.032912
   8 H :   -0.015617
   9 C :   -0.047674
  10 H :    0.026355
  11 H :    0.014150
  12 C :   -0.006471
  13 H :    0.017780
  14 H :    0.046345
  15 H :    0.028951
  16 S :    0.113877
  17 C :   -0.104444
  18 C :   -0.028445
  19 C :   -0.017797
  20 C :   -0.143494
  21 H :    0.031146
  22 C :    0.028898
  23 H :    0.017811
  24 H :    0.041171
  25 C :   -0.082920
  26 H :    0.045462
  27 H :    0.039370
  28 C :   -0.083094
  29 H :    0.040499
  30 H :    0.024557
  31 H :    0.028310
  32 H :    0.036270
  33 H :    0.056850
Sum of atomic charges:   -0.0000000

LOEWDIN ATOMIC CHARGES
----------------------
   0 S :    0.396806
   1 C :   -0.180496
   2 C :   -0.064646
   3 C :   -0.071571
   4 C :   -0.182649
   5 H :    0.046307
   6 C :   -0.035067
   7 H :    0.032784
   8 H :    0.014110
   9 C :   -0.041945
  10 H :    0.029134
  11 H :    0.016417
  12 C :   -0.059563
  13 H :    0.018017
  14 H :    0.035281
  15 H :    0.030438
  16 S :    0.421572
  17 C :   -0.182802
  18 C :   -0.073709
  19 C :   -0.052770
  20 C :   -0.217386
  21 H :    0.039645
  22 C :   -0.040393
  23 H :    0.022486
  24 H :    0.040727
  25 C :   -0.045588
  26 H :    0.030661
  27 H :    0.026548
  28 C :   -0.084670
  29 H :    0.027519
  30 H :    0.026329
  31 H :    0.029055
  32 H :    0.019987
  33 H :    0.029430

  Mayer bond orders larger than 0.100000
B(  0-S ,  1-C ) :   1.1287 B(  0-S ,  4-C ) :   1.1729 B(  1-C ,  2-C ) :   1.5553
B(  1-C ,  4-C ) :   0.1171 B(  1-C , 32-H ) :   0.9877 B(  2-C ,  3-C ) :   1.2822
B(  2-C ,  6-C ) :   1.0156 B(  3-C ,  4-C ) :   1.5115 B(  3-C ,  5-H ) :   0.9827
B(  4-C , 20-C ) :   1.0624 B(  6-C ,  7-H ) :   0.9433 B(  6-C ,  8-H ) :   0.9394
B(  6-C ,  9-C ) :   1.0675 B(  9-C , 10-H ) :   0.9500 B(  9-C , 11-H ) :   0.9566
B(  9-C , 12-C ) :   1.0809 B( 12-C , 13-H ) :   0.9686 B( 12-C , 14-H ) :   0.9755
B( 12-C , 15-H ) :   0.9672 B( 16-S , 17-C ) :   1.1634 B( 16-S , 20-C ) :   1.1383
B( 17-C , 18-C ) :   1.6276 B( 17-C , 33-H ) :   0.9622 B( 18-C , 19-C ) :   1.2257
B( 18-C , 21-H ) :   0.9913 B( 19-C , 20-C ) :   1.5965 B( 19-C , 22-C ) :   1.0349
B( 22-C , 23-H ) :   0.9432 B( 22-C , 24-H ) :   0.9390 B( 22-C , 25-C ) :   1.0537
B( 25-C , 26-H ) :   0.9524 B( 25-C , 27-H ) :   0.9612 B( 25-C , 28-C ) :   1.0678
B( 28-C , 29-H ) :   0.9771 B( 28-C , 30-H ) :   0.9746 B( 28-C , 31-H ) :   0.9746

Dispersion correction           -0.013642404
FINAL SINGLE POINT ENERGY     -1339.851449227180

DIPOLE MOMENT
-------------
                                X             Y             Z
Electronic contribution:     -4.15416     -25.49970       5.88902
Nuclear contribution   :      4.32454      26.01572      -5.87951
                        -----------------------------------------
Total Dipole Moment    :      0.17038       0.51602       0.00952
                        -----------------------------------------
Magnitude (a.u.)       :      0.54350
Magnitude (Debye)      :      1.38147

Rotational constants in cm-1:     0.017861     0.008332     0.006489
Rotational constants in MHz :   535.461798   249.778617   194.545690

                             ****ORCA TERMINATED NORMALLY****
TOTAL RUN TIME: 0 days 0 hours 0 minutes 21 seconds 237 msec
