                         Program Version 4.2.1 -  RELEASE  -
|  1> ! wB97X-D3 SP def2-SVP
|  2> %pal
|  3> nprocs 24
|  4> end
|  5>
|  6> * xyz 0 1
|  7> S 	 28.9293 	 -6.02421 	 -118.103
|  8> C 	 30.3534 	 -6.9234 	 -118.179
|  9> C 	 30.8735 	 -7.25102 	 -116.955
| 10> C 	 29.9904 	 -6.79838 	 -115.888
| 11> C 	 28.8665 	 -6.17886 	 -116.319
| 12> H 	 30.2797 	 -6.69618 	 -114.826
| 13> C 	 32.2942 	 -7.82289 	 -116.694
| 14> H 	 32.997 	 -7.041 	 -116.604
| 15> H 	 32.5014 	 -8.34062 	 -117.671
| 16> C 	 32.6913 	 -8.88402 	 -115.62
| 17> H 	 33.7066 	 -8.98007 	 -115.807
| 18> H 	 32.6415 	 -8.64373 	 -114.558
| 19> C 	 32.026 	 -10.2368 	 -115.833
| 20> H 	 32.2903 	 -10.6721 	 -116.834
| 21> H 	 32.3698 	 -11.0253 	 -115.088
| 22> H 	 30.9369 	 -10.1559 	 -115.756
| 23> S 	 27.1247 	 -4.00915 	 -116.015
| 24> C 	 25.8341 	 -4.25233 	 -114.908
| 25> C 	 26.0454 	 -5.28527 	 -113.967
| 26> C 	 27.3081 	 -5.97205 	 -114.269
| 27> C 	 27.8124 	 -5.53965 	 -115.494
| 28> H 	 25.3297 	 -5.55574 	 -113.149
| 29> C 	 27.8785 	 -7.07913 	 -113.38
| 30> H 	 28.6173 	 -7.58957 	 -113.969
| 31> H 	 27.0909 	 -7.73078 	 -112.975
| 32> C 	 28.5048 	 -6.548 	 -112.087
| 33> H 	 27.7215 	 -6.20327 	 -111.394
| 34> H 	 29.1493 	 -5.70148 	 -112.243
| 35> C 	 29.3998 	 -7.59418 	 -111.359
| 36> H 	 30.3113 	 -7.72438 	 -111.901
| 37> H 	 28.9093 	 -8.52256 	 -111.282
| 38> H 	 29.6296 	 -7.24654 	 -110.335
| 39> H 	 30.954 	 -7.21942 	 -119.091
| 40> H 	 24.993 	 -3.58689 	 -114.758
| 41> *
| 42>
| 43>                          ****END OF INPUT****

CARTESIAN COORDINATES (ANGSTROEM)
---------------------------------
  S     28.929300   -6.024210  -118.103000
  C     30.353400   -6.923400  -118.179000
  C     30.873500   -7.251020  -116.955000
  C     29.990400   -6.798380  -115.888000
  C     28.866500   -6.178860  -116.319000
  H     30.279700   -6.696180  -114.826000
  C     32.294200   -7.822890  -116.694000
  H     32.997000   -7.041000  -116.604000
  H     32.501400   -8.340620  -117.671000
  C     32.691300   -8.884020  -115.620000
  H     33.706600   -8.980070  -115.807000
  H     32.641500   -8.643730  -114.558000
  C     32.026000  -10.236800  -115.833000
  H     32.290300  -10.672100  -116.834000
  H     32.369800  -11.025300  -115.088000
  H     30.936900  -10.155900  -115.756000
  S     27.124700   -4.009150  -116.015000
  C     25.834100   -4.252330  -114.908000
  C     26.045400   -5.285270  -113.967000
  C     27.308100   -5.972050  -114.269000
  C     27.812400   -5.539650  -115.494000
  H     25.329700   -5.555740  -113.149000
  C     27.878500   -7.079130  -113.380000
  H     28.617300   -7.589570  -113.969000
  H     27.090900   -7.730780  -112.975000
  C     28.504800   -6.548000  -112.087000
  H     27.721500   -6.203270  -111.394000
  H     29.149300   -5.701480  -112.243000
  C     29.399800   -7.594180  -111.359000
  H     30.311300   -7.724380  -111.901000
  H     28.909300   -8.522560  -111.282000
  H     29.629600   -7.246540  -110.335000
  H     30.954000   -7.219420  -119.091000
  H     24.993000   -3.586890  -114.758000

 Total Charge           Charge          ....    0
 Multiplicity           Mult            ....    1
 Number of Electrons    NEL             ....  134
 Basis Dimension        Dim             ....  322

ORBITAL ENERGIES
----------------

  NO   OCC          E(Eh)            E(eV)
   0   2.0000     -88.969834     -2420.9923
   1   2.0000     -88.967075     -2420.9172
   2   2.0000     -10.331010      -281.1211
   3   2.0000     -10.329398      -281.0772
   4   2.0000     -10.317723      -280.7595
   5   2.0000     -10.313927      -280.6562
   6   2.0000     -10.308953      -280.5209
   7   2.0000     -10.303917      -280.3838
   8   2.0000     -10.302837      -280.3544
   9   2.0000     -10.299181      -280.2550
  10   2.0000     -10.293383      -280.0972
  11   2.0000     -10.292340      -280.0688
  12   2.0000     -10.286305      -279.9046
  13   2.0000     -10.286068      -279.8981
  14   2.0000     -10.283521      -279.8288
  15   2.0000     -10.276094      -279.6267
  16   2.0000      -8.084884      -220.0009
  17   2.0000      -8.082267      -219.9297
  18   2.0000      -6.043370      -164.4485
  19   2.0000      -6.040877      -164.3806
  20   2.0000      -6.039593      -164.3457
  21   2.0000      -6.036793      -164.2695
  22   2.0000      -6.035414      -164.2320
  23   2.0000      -6.032794      -164.1607
  24   2.0000      -1.006986       -27.4015
  25   2.0000      -0.985508       -26.8170
  26   2.0000      -0.910564       -24.7777
  27   2.0000      -0.906989       -24.6804
  28   2.0000      -0.868983       -23.6462
  29   2.0000      -0.852434       -23.1959
  30   2.0000      -0.844807       -22.9884
  31   2.0000      -0.812606       -22.1121
  32   2.0000      -0.784249       -21.3405
  33   2.0000      -0.771263       -20.9871
  34   2.0000      -0.706100       -19.2140
  35   2.0000      -0.697115       -18.9695
  36   2.0000      -0.689005       -18.7488
  37   2.0000      -0.659169       -17.9369
  38   2.0000      -0.634546       -17.2669
  39   2.0000      -0.619268       -16.8511
  40   2.0000      -0.592912       -16.1340
  41   2.0000      -0.573190       -15.5973
  42   2.0000      -0.562299       -15.3009
  43   2.0000      -0.554005       -15.0752
  44   2.0000      -0.541296       -14.7294
  45   2.0000      -0.521465       -14.1898
  46   2.0000      -0.517569       -14.0838
  47   2.0000      -0.512172       -13.9369
  48   2.0000      -0.498661       -13.5693
  49   2.0000      -0.494403       -13.4534
  50   2.0000      -0.489254       -13.3133
  51   2.0000      -0.480971       -13.0879
  52   2.0000      -0.469385       -12.7726
  53   2.0000      -0.464838       -12.6489
  54   2.0000      -0.456327       -12.4173
  55   2.0000      -0.449793       -12.2395
  56   2.0000      -0.443479       -12.0677
  57   2.0000      -0.439567       -11.9612
  58   2.0000      -0.433963       -11.8087
  59   2.0000      -0.427158       -11.6236
  60   2.0000      -0.424248       -11.5444
  61   2.0000      -0.422969       -11.5096
  62   2.0000      -0.414484       -11.2787
  63   2.0000      -0.357805        -9.7364
  64   2.0000      -0.329762        -8.9733
  65   2.0000      -0.327132        -8.9017
  66   2.0000      -0.285217        -7.7612
  67   0.0000       0.025857         0.7036
  68   0.0000       0.077395         2.1060
  69   0.0000       0.098298         2.6748
  70   0.0000       0.119333         3.2472
  71   0.0000       0.128623         3.5000

MULLIKEN ATOMIC CHARGES
-----------------------
   0 S :    0.115572
   1 C :   -0.124885
   2 C :   -0.095328
   3 C :   -0.009930
   4 C :   -0.132528
   5 H :    0.034729
   6 C :    0.038352
   7 H :    0.039482
   8 H :    0.017545
   9 C :   -0.024382
  10 H :    0.012345
  11 H :    0.029452
  12 C :   -0.099170
  13 H :    0.031179
  14 H :    0.041436
  15 H :    0.046946
  16 S :    0.126792
  17 C :   -0.087809
  18 C :   -0.055203
  19 C :   -0.050817
  20 C :   -0.156567
  21 H :    0.042900
  22 C :    0.086348
  23 H :    0.014662
  24 H :    0.029998
  25 C :   -0.101191
  26 H :    0.028980
  27 H :    0.024538
  28 C :   -0.024781
  29 H :    0.026322
  30 H :    0.018998
  31 H :    0.036663
  32 H :    0.064640
  33 H :    0.054713
Sum of atomic charges:    0.0000000

LOEWDIN ATOMIC CHARGES
----------------------
   0 S :    0.409708
   1 C :   -0.224431
   2 C :   -0.072285
   3 C :   -0.076168
   4 C :   -0.176864
   5 H :    0.037493
   6 C :   -0.028058
   7 H :    0.027692
   8 H :    0.035943
   9 C :   -0.042055
  10 H :    0.020785
  11 H :    0.023655
  12 C :   -0.073738
  13 H :    0.025990
  14 H :    0.031636
  15 H :    0.026213
  16 S :    0.412089
  17 C :   -0.197172
  18 C :   -0.072802
  19 C :   -0.044746
  20 C :   -0.198019
  21 H :    0.040944
  22 C :   -0.030386
  23 H :    0.024207
  24 H :    0.035146
  25 C :   -0.038533
  26 H :    0.023096
  27 H :    0.018453
  28 C :   -0.056901
  29 H :    0.020017
  30 H :    0.015989
  31 H :    0.031133
  32 H :    0.044886
  33 H :    0.027080

  Mayer bond orders larger than 0.100000
B(  0-S ,  1-C ) :   1.1405 B(  0-S ,  4-C ) :   1.1279 B(  1-C ,  2-C ) :   1.6496
B(  1-C , 32-H ) :   0.9503 B(  2-C ,  3-C ) :   1.2214 B(  2-C ,  6-C ) :   1.0047
B(  3-C ,  4-C ) :   1.6103 B(  3-C ,  5-H ) :   0.9774 B(  4-C , 20-C ) :   1.0533
B(  6-C ,  7-H ) :   0.9458 B(  6-C ,  8-H ) :   0.9396 B(  6-C ,  9-C ) :   1.0702
B(  9-C , 10-H ) :   0.9468 B(  9-C , 11-H ) :   0.9546 B(  9-C , 12-C ) :   1.0802
B( 12-C , 13-H ) :   0.9740 B( 12-C , 14-H ) :   0.9739 B( 12-C , 15-H ) :   0.9783
B( 16-S , 17-C ) :   1.1489 B( 16-S , 20-C ) :   1.1331 B( 17-C , 18-C ) :   1.6209
B( 17-C , 33-H ) :   0.9659 B( 18-C , 19-C ) :   1.2205 B( 18-C , 21-H ) :   0.9815
B( 19-C , 20-C ) :   1.6001 B( 19-C , 22-C ) :   1.0568 B( 22-C , 23-H ) :   0.9320
B( 22-C , 24-H ) :   0.9291 B( 22-C , 25-C ) :   1.0561 B( 25-C , 26-H ) :   0.9564
B( 25-C , 27-H ) :   0.9578 B( 25-C , 28-C ) :   1.0856 B( 28-C , 29-H ) :   0.9772
B( 28-C , 30-H ) :   0.9737 B( 28-C , 31-H ) :   0.9738

Dispersion correction           -0.014085194
FINAL SINGLE POINT ENERGY     -1339.867382774734

DIPOLE MOMENT
-------------
                                X             Y             Z
Electronic contribution:    -16.74880      20.74460     -19.44919
Nuclear contribution   :     17.15984     -20.97866      19.99567
                        -----------------------------------------
Total Dipole Moment    :      0.41104      -0.23406       0.54648
                        -----------------------------------------
Magnitude (a.u.)       :      0.72276
Magnitude (Debye)      :      1.83711

Rotational constants in cm-1:     0.016724     0.009932     0.006583
Rotational constants in MHz :   501.376687   297.748113   197.348468

                             ****ORCA TERMINATED NORMALLY****
TOTAL RUN TIME: 0 days 0 hours 0 minutes 21 seconds 881 msec
