                         Program Version 4.2.1 -  RELEASE  -
|  1> ! wB97X-D3 SP def2-SVP
|  2> %pal
|  3> nprocs 24
|  4> end
|  5>
|  6> * xyz 0 1
|  7> S 	 -60.7684 	 12.9567 	 -89.0341
|  8> C 	 -60.4048 	 13.3854 	 -90.7116
|  9> C 	 -59.6025 	 14.5096 	 -90.7355
| 10> C 	 -58.8796 	 14.6945 	 -89.4852
| 11> C 	 -59.3488 	 13.8871 	 -88.4551
| 12> H 	 -58.0642 	 15.3018 	 -89.3056
| 13> C 	 -59.3728 	 15.326 	 -91.9464
| 14> H 	 -60.0757 	 14.9165 	 -92.6418
| 15> H 	 -58.4121 	 15.0841 	 -92.4184
| 16> C 	 -59.6295 	 16.8339 	 -91.7846
| 17> H 	 -58.7749 	 17.3602 	 -91.319
| 18> H 	 -59.6733 	 17.2965 	 -92.7776
| 19> C 	 -60.9333 	 17.2594 	 -91.1234
| 20> H 	 -61.053 	 16.8191 	 -90.177
| 21> H 	 -61.0223 	 18.3303 	 -91.0863
| 22> H 	 -61.8679 	 16.9903 	 -91.6393
| 23> S 	 -60.0702 	 13.2982 	 -85.9324
| 24> C 	 -58.8829 	 13.0832 	 -84.7111
| 25> C 	 -57.6271 	 13.2845 	 -85.2012
| 26> C 	 -57.539 	 13.5426 	 -86.6223
| 27> C 	 -58.8416 	 13.6683 	 -87.143
| 28> H 	 -56.7928 	 13.2292 	 -84.4807
| 29> C 	 -56.2243 	 13.543 	 -87.464
| 30> H 	 -56.3762 	 13.0341 	 -88.4223
| 31> H 	 -55.5486 	 12.8079 	 -86.9016
| 32> C 	 -55.6578 	 14.9461 	 -87.6464
| 33> H 	 -55.6155 	 15.4493 	 -86.7035
| 34> H 	 -56.2626 	 15.6022 	 -88.2659
| 35> C 	 -54.226 	 15.0481 	 -88.2037
| 36> H 	 -53.9908 	 14.3515 	 -88.9837
| 37> H 	 -53.5108 	 14.8576 	 -87.348
| 38> H 	 -54.0439 	 16.0507 	 -88.5643
| 39> H 	 -60.8931 	 13.0992 	 -91.6503
| 40> H 	 -59.2019 	 12.6758 	 -83.7764
| 41> *
| 42>
| 43>                          ****END OF INPUT****

CARTESIAN COORDINATES (ANGSTROEM)
---------------------------------
  S    -60.768400   12.956700  -89.034100
  C    -60.404800   13.385400  -90.711600
  C    -59.602500   14.509600  -90.735500
  C    -58.879600   14.694500  -89.485200
  C    -59.348800   13.887100  -88.455100
  H    -58.064200   15.301800  -89.305600
  C    -59.372800   15.326000  -91.946400
  H    -60.075700   14.916500  -92.641800
  H    -58.412100   15.084100  -92.418400
  C    -59.629500   16.833900  -91.784600
  H    -58.774900   17.360200  -91.319000
  H    -59.673300   17.296500  -92.777600
  C    -60.933300   17.259400  -91.123400
  H    -61.053000   16.819100  -90.177000
  H    -61.022300   18.330300  -91.086300
  H    -61.867900   16.990300  -91.639300
  S    -60.070200   13.298200  -85.932400
  C    -58.882900   13.083200  -84.711100
  C    -57.627100   13.284500  -85.201200
  C    -57.539000   13.542600  -86.622300
  C    -58.841600   13.668300  -87.143000
  H    -56.792800   13.229200  -84.480700
  C    -56.224300   13.543000  -87.464000
  H    -56.376200   13.034100  -88.422300
  H    -55.548600   12.807900  -86.901600
  C    -55.657800   14.946100  -87.646400
  H    -55.615500   15.449300  -86.703500
  H    -56.262600   15.602200  -88.265900
  C    -54.226000   15.048100  -88.203700
  H    -53.990800   14.351500  -88.983700
  H    -53.510800   14.857600  -87.348000
  H    -54.043900   16.050700  -88.564300
  H    -60.893100   13.099200  -91.650300
  H    -59.201900   12.675800  -83.776400

 Total Charge           Charge          ....    0
 Multiplicity           Mult            ....    1
 Number of Electrons    NEL             ....  134
 Basis Dimension        Dim             ....  322

ORBITAL ENERGIES
----------------

  NO   OCC          E(Eh)            E(eV)
   0   2.0000     -88.962655     -2420.7969
   1   2.0000     -88.961140     -2420.7557
   2   2.0000     -10.330466      -281.1063
   3   2.0000     -10.327672      -281.0302
   4   2.0000     -10.314874      -280.6820
   5   2.0000     -10.312681      -280.6223
   6   2.0000     -10.312469      -280.6165
   7   2.0000     -10.305619      -280.4302
   8   2.0000     -10.300279      -280.2848
   9   2.0000     -10.297788      -280.2171
  10   2.0000     -10.292198      -280.0649
  11   2.0000     -10.290140      -280.0089
  12   2.0000     -10.289041      -279.9790
  13   2.0000     -10.286314      -279.9048
  14   2.0000     -10.279834      -279.7285
  15   2.0000     -10.269188      -279.4388
  16   2.0000      -8.076980      -219.7858
  17   2.0000      -8.076552      -219.7742
  18   2.0000      -6.035441      -164.2327
  19   2.0000      -6.035396      -164.2315
  20   2.0000      -6.031431      -164.1236
  21   2.0000      -6.031339      -164.1211
  22   2.0000      -6.027732      -164.0229
  23   2.0000      -6.026722      -163.9954
  24   2.0000      -1.005702       -27.3665
  25   2.0000      -0.980664       -26.6852
  26   2.0000      -0.913526       -24.8583
  27   2.0000      -0.908084       -24.7102
  28   2.0000      -0.871845       -23.7241
  29   2.0000      -0.852080       -23.1863
  30   2.0000      -0.840617       -22.8744
  31   2.0000      -0.818426       -22.2705
  32   2.0000      -0.785352       -21.3705
  33   2.0000      -0.773115       -21.0375
  34   2.0000      -0.712906       -19.3992
  35   2.0000      -0.700358       -19.0577
  36   2.0000      -0.694464       -18.8973
  37   2.0000      -0.660952       -17.9854
  38   2.0000      -0.637848       -17.3567
  39   2.0000      -0.620423       -16.8826
  40   2.0000      -0.598945       -16.2981
  41   2.0000      -0.563834       -15.3427
  42   2.0000      -0.560118       -15.2416
  43   2.0000      -0.551258       -15.0005
  44   2.0000      -0.544494       -14.8164
  45   2.0000      -0.532006       -14.4766
  46   2.0000      -0.518343       -14.1048
  47   2.0000      -0.510811       -13.8999
  48   2.0000      -0.504080       -13.7167
  49   2.0000      -0.502154       -13.6643
  50   2.0000      -0.495878       -13.4935
  51   2.0000      -0.478980       -13.0337
  52   2.0000      -0.469599       -12.7784
  53   2.0000      -0.461851       -12.5676
  54   2.0000      -0.455821       -12.4035
  55   2.0000      -0.450633       -12.2624
  56   2.0000      -0.447297       -12.1716
  57   2.0000      -0.441369       -12.0103
  58   2.0000      -0.434826       -11.8322
  59   2.0000      -0.426563       -11.6074
  60   2.0000      -0.417556       -11.3623
  61   2.0000      -0.410748       -11.1770
  62   2.0000      -0.409854       -11.1527
  63   2.0000      -0.355384        -9.6705
  64   2.0000      -0.332709        -9.0535
  65   2.0000      -0.323332        -8.7983
  66   2.0000      -0.282650        -7.6913
  67   0.0000       0.020913         0.5691
  68   0.0000       0.067914         1.8480
  69   0.0000       0.102923         2.8007
  70   0.0000       0.119616         3.2549
  71   0.0000       0.129883         3.5343

MULLIKEN ATOMIC CHARGES
-----------------------
   0 S :    0.092181
   1 C :   -0.105300
   2 C :   -0.141589
   3 C :    0.067122
   4 C :   -0.107773
   5 H :   -0.049067
   6 C :    0.118887
   7 H :   -0.007647
   8 H :    0.040324
   9 C :   -0.088785
  10 H :    0.034659
  11 H :    0.027733
  12 C :   -0.035933
  13 H :    0.036125
  14 H :    0.028374
  15 H :    0.020846
  16 S :    0.084979
  17 C :   -0.083440
  18 C :   -0.041724
  19 C :   -0.037193
  20 C :   -0.151804
  21 H :    0.026380
  22 C :    0.049402
  23 H :    0.041809
  24 H :    0.038049
  25 C :   -0.063645
  26 H :    0.022276
  27 H :    0.029152
  28 C :   -0.047524
  29 H :    0.028947
  30 H :    0.035996
  31 H :    0.030684
  32 H :    0.051724
  33 H :    0.055775
Sum of atomic charges:    0.0000000

LOEWDIN ATOMIC CHARGES
----------------------
   0 S :    0.366004
   1 C :   -0.192738
   2 C :   -0.061565
   3 C :   -0.050357
   4 C :   -0.171631
   5 H :    0.013636
   6 C :   -0.036563
   7 H :    0.025654
   8 H :    0.036766
   9 C :   -0.042951
  10 H :    0.026126
  11 H :    0.028585
  12 C :   -0.063985
  13 H :    0.020198
  14 H :    0.027136
  15 H :    0.027394
  16 S :    0.404632
  17 C :   -0.189802
  18 C :   -0.075974
  19 C :   -0.052026
  20 C :   -0.189425
  21 H :    0.034991
  22 C :   -0.030730
  23 H :    0.034201
  24 H :    0.040630
  25 C :   -0.044083
  26 H :    0.024941
  27 H :    0.020994
  28 C :   -0.064267
  29 H :    0.019385
  30 H :    0.030643
  31 H :    0.025250
  32 H :    0.033299
  33 H :    0.025631

  Mayer bond orders larger than 0.100000
B(  0-S ,  1-C ) :   1.1140 B(  0-S ,  4-C ) :   1.1079 B(  1-C ,  2-C ) :   1.6502
B(  1-C , 32-H ) :   0.9579 B(  2-C ,  3-C ) :   1.1671 B(  2-C ,  6-C ) :   1.0433
B(  3-C ,  4-C ) :   1.5946 B(  3-C ,  5-H ) :   1.0169 B(  4-C , 20-C ) :   1.0945
B(  6-C ,  7-H ) :   0.9241 B(  6-C ,  8-H ) :   0.9350 B(  6-C ,  9-C ) :   1.0674
B(  9-C , 10-H ) :   0.9548 B(  9-C , 11-H ) :   0.9554 B(  9-C , 12-C ) :   1.0823
B( 12-C , 13-H ) :   0.9719 B( 12-C , 14-H ) :   0.9717 B( 12-C , 15-H ) :   0.9722
B( 16-S , 17-C ) :   1.1543 B( 16-S , 20-C ) :   1.1403 B( 17-C , 18-C ) :   1.6108
B( 17-C , 33-H ) :   0.9737 B( 18-C , 19-C ) :   1.2339 B( 18-C , 21-H ) :   0.9857
B( 19-C , 20-C ) :   1.5746 B( 19-C , 22-C ) :   1.0277 B( 22-C , 23-H ) :   0.9359
B( 22-C , 24-H ) :   0.9440 B( 22-C , 25-C ) :   1.0558 B( 25-C , 26-H ) :   0.9527
B( 25-C , 27-H ) :   0.9552 B( 25-C , 28-C ) :   1.0819 B( 28-C , 29-H ) :   0.9762
B( 28-C , 30-H ) :   0.9786 B( 28-C , 31-H ) :   0.9751

Dispersion correction           -0.014521189
FINAL SINGLE POINT ENERGY     -1339.870470936622

DIPOLE MOMENT
-------------
                                X             Y             Z
Electronic contribution:    -16.63662     -16.37418      14.07242
Nuclear contribution   :     17.19342      16.65287     -14.35486
                        -----------------------------------------
Total Dipole Moment    :      0.55680       0.27869      -0.28244
                        -----------------------------------------
Magnitude (a.u.)       :      0.68372
Magnitude (Debye)      :      1.73787

Rotational constants in cm-1:     0.016874     0.009721     0.007054
Rotational constants in MHz :   505.857497   291.422876   211.484863

                             ****ORCA TERMINATED NORMALLY****
TOTAL RUN TIME: 0 days 0 hours 0 minutes 20 seconds 747 msec
