                         Program Version 4.2.1 -  RELEASE  -
|  1> ! wB97X-D3 SP def2-SVP
|  2> %pal
|  3> nprocs 24
|  4> end
|  5>
|  6> * xyz 0 1
|  7> S 	 -117.524 	 59.9903 	 -33.2957
|  8> C 	 -117.679 	 59.6899 	 -31.5434
|  9> C 	 -117.959 	 60.8219 	 -30.8844
| 10> C 	 -118.086 	 61.9911 	 -31.7657
| 11> C 	 -117.948 	 61.6598 	 -33.1504
| 12> H 	 -118.206 	 62.9712 	 -31.4794
| 13> C 	 -117.871 	 61.0723 	 -29.3846
| 14> H 	 -117.051 	 61.7074 	 -29.1738
| 15> H 	 -117.564 	 60.1461 	 -28.8335
| 16> C 	 -119.029 	 61.5569 	 -28.5983
| 17> H 	 -118.735 	 61.4592 	 -27.5324
| 18> H 	 -119.128 	 62.6415 	 -28.825
| 19> C 	 -120.299 	 60.7996 	 -28.7847
| 20> H 	 -120.903 	 61.0265 	 -27.902
| 21> H 	 -120.819 	 61.1172 	 -29.6627
| 22> H 	 -120.162 	 59.6787 	 -28.8687
| 23> S 	 -116.316 	 62.5193 	 -35.2455
| 24> C 	 -116.826 	 63.8086 	 -36.256
| 25> C 	 -118.028 	 64.3351 	 -35.8084
| 26> C 	 -118.555 	 63.7001 	 -34.6756
| 27> C 	 -117.843 	 62.5683 	 -34.3157
| 28> H 	 -118.404 	 65.1794 	 -36.3169
| 29> C 	 -119.778 	 64.1835 	 -33.8732
| 30> H 	 -120.049 	 63.5507 	 -33.0573
| 31> H 	 -120.588 	 63.9922 	 -34.5185
| 32> C 	 -119.71 	 65.6622 	 -33.4144
| 33> H 	 -120.744 	 65.8545 	 -33.0185
| 34> H 	 -119.533 	 66.4043 	 -34.1152
| 35> C 	 -118.682 	 65.6837 	 -32.2108
| 36> H 	 -117.668 	 65.2814 	 -32.5283
| 37> H 	 -119.019 	 65.0596 	 -31.3542
| 38> H 	 -118.471 	 66.7433 	 -31.8929
| 39> H 	 -117.519 	 58.7161 	 -31.1397
| 40> H 	 -116.216 	 64.1324 	 -37.0666
| 41> *
| 42>
| 43>                          ****END OF INPUT****

CARTESIAN COORDINATES (ANGSTROEM)
---------------------------------
  S    -117.524000   59.990300  -33.295700
  C    -117.679000   59.689900  -31.543400
  C    -117.959000   60.821900  -30.884400
  C    -118.086000   61.991100  -31.765700
  C    -117.948000   61.659800  -33.150400
  H    -118.206000   62.971200  -31.479400
  C    -117.871000   61.072300  -29.384600
  H    -117.051000   61.707400  -29.173800
  H    -117.564000   60.146100  -28.833500
  C    -119.029000   61.556900  -28.598300
  H    -118.735000   61.459200  -27.532400
  H    -119.128000   62.641500  -28.825000
  C    -120.299000   60.799600  -28.784700
  H    -120.903000   61.026500  -27.902000
  H    -120.819000   61.117200  -29.662700
  H    -120.162000   59.678700  -28.868700
  S    -116.316000   62.519300  -35.245500
  C    -116.826000   63.808600  -36.256000
  C    -118.028000   64.335100  -35.808400
  C    -118.555000   63.700100  -34.675600
  C    -117.843000   62.568300  -34.315700
  H    -118.404000   65.179400  -36.316900
  C    -119.778000   64.183500  -33.873200
  H    -120.049000   63.550700  -33.057300
  H    -120.588000   63.992200  -34.518500
  C    -119.710000   65.662200  -33.414400
  H    -120.744000   65.854500  -33.018500
  H    -119.533000   66.404300  -34.115200
  C    -118.682000   65.683700  -32.210800
  H    -117.668000   65.281400  -32.528300
  H    -119.019000   65.059600  -31.354200
  H    -118.471000   66.743300  -31.892900
  H    -117.519000   58.716100  -31.139700
  H    -116.216000   64.132400  -37.066600

 Total Charge           Charge          ....    0
 Multiplicity           Mult            ....    1
 Number of Electrons    NEL             ....  134
 Basis Dimension        Dim             ....  322

ORBITAL ENERGIES
----------------

  NO   OCC          E(Eh)            E(eV)
   0   2.0000     -88.963371     -2420.8164
   1   2.0000     -88.963261     -2420.8134
   2   2.0000     -10.335600      -281.2460
   3   2.0000     -10.328287      -281.0470
   4   2.0000     -10.316079      -280.7148
   5   2.0000     -10.312966      -280.6301
   6   2.0000     -10.304351      -280.3957
   7   2.0000     -10.303246      -280.3656
   8   2.0000     -10.294718      -280.1335
   9   2.0000     -10.293777      -280.1079
  10   2.0000     -10.291666      -280.0505
  11   2.0000     -10.290871      -280.0288
  12   2.0000     -10.288430      -279.9624
  13   2.0000     -10.286312      -279.9048
  14   2.0000     -10.283759      -279.8353
  15   2.0000     -10.274758      -279.5904
  16   2.0000      -8.078373      -219.8237
  17   2.0000      -8.078068      -219.8154
  18   2.0000      -6.036733      -164.2678
  19   2.0000      -6.036675      -164.2663
  20   2.0000      -6.032844      -164.1620
  21   2.0000      -6.032496      -164.1526
  22   2.0000      -6.029253      -164.0643
  23   2.0000      -6.028779      -164.0514
  24   2.0000      -1.004586       -27.3362
  25   2.0000      -0.983468       -26.7615
  26   2.0000      -0.919725       -25.0270
  27   2.0000      -0.907944       -24.7064
  28   2.0000      -0.870652       -23.6916
  29   2.0000      -0.847152       -23.0522
  30   2.0000      -0.840265       -22.8648
  31   2.0000      -0.811296       -22.0765
  32   2.0000      -0.787837       -21.4381
  33   2.0000      -0.777345       -21.1526
  34   2.0000      -0.710866       -19.3436
  35   2.0000      -0.700819       -19.0702
  36   2.0000      -0.689999       -18.7758
  37   2.0000      -0.657869       -17.9015
  38   2.0000      -0.643752       -17.5174
  39   2.0000      -0.621446       -16.9104
  40   2.0000      -0.605112       -16.4659
  41   2.0000      -0.569937       -15.5088
  42   2.0000      -0.559091       -15.2137
  43   2.0000      -0.553981       -15.0746
  44   2.0000      -0.551368       -15.0035
  45   2.0000      -0.537321       -14.6213
  46   2.0000      -0.521139       -14.1809
  47   2.0000      -0.512278       -13.9398
  48   2.0000      -0.504221       -13.7205
  49   2.0000      -0.495645       -13.4872
  50   2.0000      -0.484730       -13.1902
  51   2.0000      -0.475866       -12.9490
  52   2.0000      -0.474220       -12.9042
  53   2.0000      -0.467027       -12.7084
  54   2.0000      -0.456656       -12.4262
  55   2.0000      -0.451930       -12.2976
  56   2.0000      -0.443887       -12.0788
  57   2.0000      -0.439292       -11.9537
  58   2.0000      -0.433779       -11.8037
  59   2.0000      -0.426667       -11.6102
  60   2.0000      -0.417397       -11.3580
  61   2.0000      -0.410513       -11.1706
  62   2.0000      -0.406310       -11.0563
  63   2.0000      -0.348555        -9.4847
  64   2.0000      -0.331956        -9.0330
  65   2.0000      -0.327236        -8.9045
  66   2.0000      -0.292510        -7.9596
  67   0.0000       0.028240         0.7684
  68   0.0000       0.072181         1.9642
  69   0.0000       0.111640         3.0379
  70   0.0000       0.117918         3.2087
  71   0.0000       0.127247         3.4626

MULLIKEN ATOMIC CHARGES
-----------------------
   0 S :    0.091039
   1 C :   -0.130705
   2 C :   -0.022695
   3 C :    0.078204
   4 C :   -0.150398
   5 H :   -0.065503
   6 C :    0.044735
   7 H :    0.027950
   8 H :    0.010806
   9 C :   -0.094625
  10 H :    0.031979
  11 H :    0.028078
  12 C :   -0.040785
  13 H :    0.035560
  14 H :    0.034358
  15 H :    0.035027
  16 S :    0.099132
  17 C :   -0.087950
  18 C :   -0.021155
  19 C :   -0.036459
  20 C :   -0.140006
  21 H :    0.000238
  22 C :    0.091682
  23 H :    0.010370
  24 H :    0.019366
  25 C :   -0.045011
  26 H :    0.035592
  27 H :    0.024183
  28 C :   -0.112626
  29 H :    0.057800
  30 H :    0.053698
  31 H :    0.042234
  32 H :    0.041293
  33 H :    0.054594
Sum of atomic charges:   -0.0000000

LOEWDIN ATOMIC CHARGES
----------------------
   0 S :    0.398165
   1 C :   -0.177384
   2 C :   -0.061192
   3 C :   -0.053060
   4 C :   -0.193392
   5 H :    0.007612
   6 C :   -0.037544
   7 H :    0.030228
   8 H :    0.030260
   9 C :   -0.050974
  10 H :    0.030018
  11 H :    0.022831
  12 C :   -0.067440
  13 H :    0.029571
  14 H :    0.023463
  15 H :    0.031821
  16 S :    0.405518
  17 C :   -0.181664
  18 C :   -0.072081
  19 C :   -0.051795
  20 C :   -0.195623
  21 H :    0.024920
  22 C :   -0.024784
  23 H :    0.028441
  24 H :    0.026754
  25 C :   -0.028512
  26 H :    0.032558
  27 H :    0.012647
  28 C :   -0.075902
  29 H :    0.032826
  30 H :    0.025435
  31 H :    0.028504
  32 H :    0.024872
  33 H :    0.024904

  Mayer bond orders larger than 0.100000
B(  0-S ,  1-C ) :   1.1194 B(  0-S ,  4-C ) :   1.1669 B(  1-C ,  2-C ) :   1.6349
B(  1-C , 32-H ) :   0.9737 B(  2-C ,  3-C ) :   1.2081 B(  2-C ,  6-C ) :   1.0158
B(  3-C ,  4-C ) :   1.5533 B(  3-C ,  5-H ) :   1.0038 B(  4-C , 20-C ) :   1.0279
B(  6-C ,  7-H ) :   0.9411 B(  6-C ,  8-H ) :   0.9405 B(  6-C ,  9-C ) :   1.0929
B(  9-C , 10-H ) :   0.9554 B(  9-C , 11-H ) :   0.9487 B(  9-C , 12-C ) :   1.0826
B( 12-C , 13-H ) :   0.9738 B( 12-C , 14-H ) :   0.9693 B( 12-C , 15-H ) :   0.9735
B( 16-S , 17-C ) :   1.1790 B( 16-S , 20-C ) :   1.1429 B( 17-C , 18-C ) :   1.5661
B( 17-C , 20-C ) :   0.1048 B( 17-C , 33-H ) :   0.9741 B( 18-C , 19-C ) :   1.2539
B( 18-C , 21-H ) :   1.0075 B( 19-C , 20-C ) :   1.5841 B( 19-C , 22-C ) :   1.0275
B( 22-C , 23-H ) :   0.9364 B( 22-C , 24-H ) :   0.9284 B( 22-C , 25-C ) :   1.0671
B( 25-C , 26-H ) :   0.9555 B( 25-C , 27-H ) :   0.9647 B( 25-C , 28-C ) :   1.0596
B( 28-C , 29-H ) :   0.9744 B( 28-C , 30-H ) :   0.9665 B( 28-C , 31-H ) :   0.9720

Dispersion correction           -0.015271343
FINAL SINGLE POINT ENERGY     -1339.871491057085

DIPOLE MOMENT
-------------
                                X             Y             Z
Electronic contribution:     14.05581     -12.11872     -22.48823
Nuclear contribution   :    -14.24176      12.67355      22.88162
                        -----------------------------------------
Total Dipole Moment    :     -0.18595       0.55483       0.39339
                        -----------------------------------------
Magnitude (a.u.)       :      0.70510
Magnitude (Debye)      :      1.79222

Rotational constants in cm-1:     0.019604     0.009480     0.007005
Rotational constants in MHz :   587.702160   284.211404   210.000560

                             ****ORCA TERMINATED NORMALLY****
TOTAL RUN TIME: 0 days 0 hours 0 minutes 22 seconds 561 msec
