                         Program Version 4.2.1 -  RELEASE  -
|  1> ! wB97X-D3 SP def2-SVP
|  2> %pal
|  3> nprocs 24
|  4> end
|  5>
|  6> * xyz 0 1
|  7> S 	 -142.653 	 3.69444 	 15.7631
|  8> C 	 -142.675 	 2.61355 	 14.3608
|  9> C 	 -143.393 	 3.22322 	 13.3519
| 10> C 	 -144.018 	 4.43108 	 13.771
| 11> C 	 -143.787 	 4.74566 	 15.0848
| 12> H 	 -144.677 	 5.07387 	 13.1912
| 13> C 	 -143.441 	 2.75451 	 11.9035
| 14> H 	 -144.495 	 2.53073 	 11.6836
| 15> H 	 -142.826 	 1.90831 	 11.8407
| 16> C 	 -142.826 	 3.65761 	 10.843
| 17> H 	 -143.185 	 4.6734 	 10.9992
| 18> H 	 -141.76 	 3.6455 	 11.0017
| 19> C 	 -142.978 	 3.17042 	 9.4024
| 20> H 	 -142.284 	 3.64928 	 8.6695
| 21> H 	 -142.629 	 2.09496 	 9.3391
| 22> H 	 -144.052 	 3.30718 	 8.98651
| 23> S 	 -143.722 	 7.28139 	 16.3035
| 24> C 	 -145.164 	 7.74821 	 17.2116
| 25> C 	 -146.118 	 6.79442 	 17.1484
| 26> C 	 -145.779 	 5.67878 	 16.3435
| 27> C 	 -144.479 	 5.72593 	 15.9082
| 28> H 	 -147.058 	 6.94856 	 17.6578
| 29> C 	 -146.72 	 4.52822 	 16.1015
| 30> H 	 -147.412 	 4.49617 	 16.964
| 31> H 	 -146.205 	 3.53831 	 16.0099
| 32> C 	 -147.641 	 4.71859 	 14.8771
| 33> H 	 -147.128 	 5.2268 	 14.1317
| 34> H 	 -148.435 	 5.36605 	 15.2114
| 35> C 	 -148.171 	 3.36663 	 14.1788
| 36> H 	 -148.54 	 2.67016 	 14.8653
| 37> H 	 -147.277 	 2.90149 	 13.7869
| 38> H 	 -148.796 	 3.59072 	 13.3007
| 39> H 	 -141.936 	 1.8451 	 14.2148
| 40> H 	 -145.115 	 8.70415 	 17.7288
| 41> *
| 42>
| 43>                          ****END OF INPUT****

CARTESIAN COORDINATES (ANGSTROEM)
---------------------------------
  S    -142.653000    3.694440   15.763100
  C    -142.675000    2.613550   14.360800
  C    -143.393000    3.223220   13.351900
  C    -144.018000    4.431080   13.771000
  C    -143.787000    4.745660   15.084800
  H    -144.677000    5.073870   13.191200
  C    -143.441000    2.754510   11.903500
  H    -144.495000    2.530730   11.683600
  H    -142.826000    1.908310   11.840700
  C    -142.826000    3.657610   10.843000
  H    -143.185000    4.673400   10.999200
  H    -141.760000    3.645500   11.001700
  C    -142.978000    3.170420    9.402400
  H    -142.284000    3.649280    8.669500
  H    -142.629000    2.094960    9.339100
  H    -144.052000    3.307180    8.986510
  S    -143.722000    7.281390   16.303500
  C    -145.164000    7.748210   17.211600
  C    -146.118000    6.794420   17.148400
  C    -145.779000    5.678780   16.343500
  C    -144.479000    5.725930   15.908200
  H    -147.058000    6.948560   17.657800
  C    -146.720000    4.528220   16.101500
  H    -147.412000    4.496170   16.964000
  H    -146.205000    3.538310   16.009900
  C    -147.641000    4.718590   14.877100
  H    -147.128000    5.226800   14.131700
  H    -148.435000    5.366050   15.211400
  C    -148.171000    3.366630   14.178800
  H    -148.540000    2.670160   14.865300
  H    -147.277000    2.901490   13.786900
  H    -148.796000    3.590720   13.300700
  H    -141.936000    1.845100   14.214800
  H    -145.115000    8.704150   17.728800

 Total Charge           Charge          ....    0
 Multiplicity           Mult            ....    1
 Number of Electrons    NEL             ....  134
 Basis Dimension        Dim             ....  322

ORBITAL ENERGIES
----------------

  NO   OCC          E(Eh)            E(eV)
   0   2.0000     -88.963174     -2420.8110
   1   2.0000     -88.962371     -2420.7892
   2   2.0000     -10.323900      -280.9276
   3   2.0000     -10.322569      -280.8914
   4   2.0000     -10.318756      -280.7876
   5   2.0000     -10.314719      -280.6778
   6   2.0000     -10.303144      -280.3628
   7   2.0000     -10.301293      -280.3124
   8   2.0000     -10.294056      -280.1155
   9   2.0000     -10.292910      -280.0843
  10   2.0000     -10.292689      -280.0783
  11   2.0000     -10.291824      -280.0548
  12   2.0000     -10.288486      -279.9639
  13   2.0000     -10.285970      -279.8955
  14   2.0000     -10.281213      -279.7660
  15   2.0000     -10.277767      -279.6723
  16   2.0000      -8.078901      -219.8381
  17   2.0000      -8.077008      -219.7866
  18   2.0000      -6.037330      -164.2841
  19   2.0000      -6.035445      -164.2328
  20   2.0000      -6.033152      -164.1704
  21   2.0000      -6.031622      -164.1288
  22   2.0000      -6.029787      -164.0788
  23   2.0000      -6.027775      -164.0241
  24   2.0000      -1.012280       -27.5456
  25   2.0000      -0.988502       -26.8985
  26   2.0000      -0.916298       -24.9337
  27   2.0000      -0.903559       -24.5871
  28   2.0000      -0.871989       -23.7280
  29   2.0000      -0.846873       -23.0446
  30   2.0000      -0.845898       -23.0180
  31   2.0000      -0.816519       -22.2186
  32   2.0000      -0.783751       -21.3270
  33   2.0000      -0.773185       -21.0394
  34   2.0000      -0.707931       -19.2638
  35   2.0000      -0.698394       -19.0043
  36   2.0000      -0.692059       -18.8319
  37   2.0000      -0.662545       -18.0288
  38   2.0000      -0.646220       -17.5845
  39   2.0000      -0.622054       -16.9270
  40   2.0000      -0.600580       -16.3426
  41   2.0000      -0.572895       -15.5893
  42   2.0000      -0.569023       -15.4839
  43   2.0000      -0.558921       -15.2090
  44   2.0000      -0.525425       -14.2975
  45   2.0000      -0.519375       -14.1329
  46   2.0000      -0.517324       -14.0771
  47   2.0000      -0.513881       -13.9834
  48   2.0000      -0.508103       -13.8262
  49   2.0000      -0.505647       -13.7594
  50   2.0000      -0.490742       -13.3538
  51   2.0000      -0.476648       -12.9703
  52   2.0000      -0.473753       -12.8915
  53   2.0000      -0.466466       -12.6932
  54   2.0000      -0.458120       -12.4661
  55   2.0000      -0.451918       -12.2973
  56   2.0000      -0.441831       -12.0228
  57   2.0000      -0.437994       -11.9184
  58   2.0000      -0.427078       -11.6214
  59   2.0000      -0.423548       -11.5253
  60   2.0000      -0.420147       -11.4328
  61   2.0000      -0.418776       -11.3955
  62   2.0000      -0.415172       -11.2974
  63   2.0000      -0.336757        -9.1636
  64   2.0000      -0.332649        -9.0518
  65   2.0000      -0.324794        -8.8381
  66   2.0000      -0.311640        -8.4802
  67   0.0000       0.041877         1.1395
  68   0.0000       0.058292         1.5862
  69   0.0000       0.113957         3.1009
  70   0.0000       0.118299         3.2191
  71   0.0000       0.127992         3.4828

MULLIKEN ATOMIC CHARGES
-----------------------
   0 S :    0.112347
   1 C :   -0.114647
   2 C :   -0.110727
   3 C :    0.044517
   4 C :   -0.175828
   5 H :    0.013450
   6 C :    0.103084
   7 H :    0.037476
   8 H :   -0.006455
   9 C :   -0.064027
  10 H :    0.030240
  11 H :    0.023758
  12 C :   -0.099672
  13 H :    0.043607
  14 H :    0.035580
  15 H :    0.050729
  16 S :    0.091125
  17 C :   -0.102455
  18 C :   -0.011203
  19 C :   -0.007128
  20 C :   -0.178745
  21 H :    0.017614
  22 C :    0.055835
  23 H :    0.023749
  24 H :    0.044178
  25 C :   -0.056536
  26 H :    0.007891
  27 H :    0.021876
  28 C :   -0.040314
  29 H :    0.028175
  30 H :    0.022473
  31 H :    0.045275
  32 H :    0.049158
  33 H :    0.065599
Sum of atomic charges:   -0.0000000

LOEWDIN ATOMIC CHARGES
----------------------
   0 S :    0.428338
   1 C :   -0.194827
   2 C :   -0.060431
   3 C :   -0.066886
   4 C :   -0.212498
   5 H :    0.030812
   6 C :   -0.026566
   7 H :    0.033070
   8 H :    0.020322
   9 C :   -0.042491
  10 H :    0.020489
  11 H :    0.025813
  12 C :   -0.079118
  13 H :    0.030786
  14 H :    0.030303
  15 H :    0.033098
  16 S :    0.379883
  17 C :   -0.168001
  18 C :   -0.072522
  19 C :   -0.051198
  20 C :   -0.196876
  21 H :    0.033709
  22 C :   -0.032273
  23 H :    0.032329
  24 H :    0.036729
  25 C :   -0.029748
  26 H :    0.009128
  27 H :    0.018721
  28 C :   -0.058649
  29 H :    0.015980
  30 H :    0.024690
  31 H :    0.031703
  32 H :    0.026008
  33 H :    0.030173

  Mayer bond orders larger than 0.100000
B(  0-S ,  1-C ) :   1.1366 B(  0-S ,  4-C ) :   1.1864 B(  1-C ,  2-C ) :   1.6084
B(  1-C ,  4-C ) :   0.1000 B(  1-C , 32-H ) :   0.9678 B(  2-C ,  3-C ) :   1.2329
B(  2-C ,  6-C ) :   1.0290 B(  3-C ,  4-C ) :   1.5778 B(  3-C ,  5-H ) :   0.9981
B(  4-C , 20-C ) :   0.9878 B(  6-C ,  7-H ) :   0.9371 B(  6-C ,  8-H ) :   0.9343
B(  6-C ,  9-C ) :   1.0655 B(  9-C , 10-H ) :   0.9568 B(  9-C , 11-H ) :   0.9530
B(  9-C , 12-C ) :   1.0835 B( 12-C , 13-H ) :   0.9747 B( 12-C , 14-H ) :   0.9699
B( 12-C , 15-H ) :   0.9741 B( 16-S , 17-C ) :   1.1507 B( 16-S , 20-C ) :   1.1372
B( 17-C , 18-C ) :   1.6118 B( 17-C , 33-H ) :   0.9696 B( 18-C , 19-C ) :   1.2265
B( 18-C , 21-H ) :   0.9928 B( 19-C , 20-C ) :   1.6245 B( 19-C , 22-C ) :   1.0537
B( 22-C , 23-H ) :   0.9344 B( 22-C , 24-H ) :   0.9382 B( 22-C , 25-C ) :   1.0478
B( 25-C , 26-H ) :   0.9618 B( 25-C , 27-H ) :   0.9579 B( 25-C , 28-C ) :   1.0730
B( 28-C , 29-H ) :   0.9790 B( 28-C , 30-H ) :   0.9752 B( 28-C , 31-H ) :   0.9762

Dispersion correction           -0.014837786
FINAL SINGLE POINT ENERGY     -1339.881738360615

DIPOLE MOMENT
-------------
                                X             Y             Z
Electronic contribution:     13.18377      12.03519      22.91366
Nuclear contribution   :    -13.49988     -12.12617     -23.30939
                        -----------------------------------------
Total Dipole Moment    :     -0.31611      -0.09098      -0.39572
                        -----------------------------------------
Magnitude (a.u.)       :      0.51459
Magnitude (Debye)      :      1.30799

Rotational constants in cm-1:     0.018390     0.008532     0.007168
Rotational constants in MHz :   551.324481   255.789399   214.903520

                             ****ORCA TERMINATED NORMALLY****
TOTAL RUN TIME: 0 days 0 hours 0 minutes 22 seconds 15 msec
