                         Program Version 4.2.1 -  RELEASE  -
|  1> ! wB97X-D3 SP def2-SVP
|  2> %pal
|  3> nprocs 24
|  4> end
|  5>
|  6> * xyz 0 1
|  7> S 	 -31.1625 	 -37.7594 	 -93.6454
|  8> C 	 -31.2733 	 -36.0978 	 -94.1032
|  9> C 	 -31.0865 	 -35.197 	 -93.0411
| 10> C 	 -30.793 	 -35.834 	 -91.8952
| 11> C 	 -30.5843 	 -37.1908 	 -92.0978
| 12> H 	 -30.5006 	 -35.3678 	 -90.9867
| 13> C 	 -31.1029 	 -33.669 	 -93.0488
| 14> H 	 -31.7804 	 -33.3519 	 -92.2292
| 15> H 	 -31.7257 	 -33.4384 	 -93.8713
| 16> C 	 -29.7671 	 -32.8909 	 -92.9312
| 17> H 	 -29.9084 	 -31.8057 	 -92.946
| 18> H 	 -29.192 	 -33.2087 	 -92.0659
| 19> C 	 -28.8206 	 -33.0134 	 -94.1626
| 20> H 	 -28.1602 	 -33.8769 	 -94.2076
| 21> H 	 -29.3296 	 -32.7501 	 -95.1162
| 22> H 	 -28.0993 	 -32.2165 	 -94.2126
| 23> S 	 -28.4018 	 -38.4782 	 -90.9974
| 24> C 	 -28.7513 	 -39.6311 	 -89.7179
| 25> C 	 -30.0304 	 -39.7899 	 -89.4315
| 26> C 	 -30.8823 	 -38.9184 	 -90.1341
| 27> C 	 -30.1424 	 -38.1735 	 -91.0904
| 28> H 	 -30.2143 	 -40.5968 	 -88.7168
| 29> C 	 -32.4235 	 -38.974 	 -90.1952
| 30> H 	 -32.7857 	 -37.9534 	 -90.3792
| 31> H 	 -32.8085 	 -39.2413 	 -89.2736
| 32> C 	 -33.0373 	 -39.9229 	 -91.2947
| 33> H 	 -32.5752 	 -39.5107 	 -92.2007
| 34> H 	 -34.1482 	 -39.6425 	 -91.3065
| 35> C 	 -32.7 	 -41.3633 	 -91.1538
| 36> H 	 -33.0588 	 -41.8766 	 -92.0182
| 37> H 	 -33.2932 	 -41.6638 	 -90.2987
| 38> H 	 -31.6858 	 -41.5812 	 -90.9016
| 39> H 	 -31.6973 	 -35.7559 	 -94.9795
| 40> H 	 -28.0013 	 -40.0978 	 -89.0808
| 41> *
| 42>
| 43>                          ****END OF INPUT****

CARTESIAN COORDINATES (ANGSTROEM)
---------------------------------
  S    -31.162500  -37.759400  -93.645400
  C    -31.273300  -36.097800  -94.103200
  C    -31.086500  -35.197000  -93.041100
  C    -30.793000  -35.834000  -91.895200
  C    -30.584300  -37.190800  -92.097800
  H    -30.500600  -35.367800  -90.986700
  C    -31.102900  -33.669000  -93.048800
  H    -31.780400  -33.351900  -92.229200
  H    -31.725700  -33.438400  -93.871300
  C    -29.767100  -32.890900  -92.931200
  H    -29.908400  -31.805700  -92.946000
  H    -29.192000  -33.208700  -92.065900
  C    -28.820600  -33.013400  -94.162600
  H    -28.160200  -33.876900  -94.207600
  H    -29.329600  -32.750100  -95.116200
  H    -28.099300  -32.216500  -94.212600
  S    -28.401800  -38.478200  -90.997400
  C    -28.751300  -39.631100  -89.717900
  C    -30.030400  -39.789900  -89.431500
  C    -30.882300  -38.918400  -90.134100
  C    -30.142400  -38.173500  -91.090400
  H    -30.214300  -40.596800  -88.716800
  C    -32.423500  -38.974000  -90.195200
  H    -32.785700  -37.953400  -90.379200
  H    -32.808500  -39.241300  -89.273600
  C    -33.037300  -39.922900  -91.294700
  H    -32.575200  -39.510700  -92.200700
  H    -34.148200  -39.642500  -91.306500
  C    -32.700000  -41.363300  -91.153800
  H    -33.058800  -41.876600  -92.018200
  H    -33.293200  -41.663800  -90.298700
  H    -31.685800  -41.581200  -90.901600
  H    -31.697300  -35.755900  -94.979500
  H    -28.001300  -40.097800  -89.080800

 Total Charge           Charge          ....    0
 Multiplicity           Mult            ....    1
 Number of Electrons    NEL             ....  134
 Basis Dimension        Dim             ....  322

ORBITAL ENERGIES
----------------

  NO   OCC          E(Eh)            E(eV)
   0   2.0000     -88.973128     -2421.0819
   1   2.0000     -88.963698     -2420.8253
   2   2.0000     -10.324615      -280.9471
   3   2.0000     -10.324319      -280.9390
   4   2.0000     -10.307033      -280.4686
   5   2.0000     -10.305680      -280.4318
   6   2.0000     -10.304027      -280.3868
   7   2.0000     -10.294342      -280.1233
   8   2.0000     -10.292497      -280.0731
   9   2.0000     -10.292167      -280.0641
  10   2.0000     -10.285436      -279.8809
  11   2.0000     -10.285148      -279.8731
  12   2.0000     -10.284138      -279.8456
  13   2.0000     -10.282319      -279.7961
  14   2.0000     -10.274882      -279.5937
  15   2.0000     -10.266465      -279.3647
  16   2.0000      -8.087370      -220.0685
  17   2.0000      -8.078219      -219.8195
  18   2.0000      -6.045468      -164.5055
  19   2.0000      -6.042078      -164.4133
  20   2.0000      -6.038462      -164.3149
  21   2.0000      -6.036502      -164.2616
  22   2.0000      -6.032941      -164.1647
  23   2.0000      -6.029051      -164.0588
  24   2.0000      -1.009193       -27.4615
  25   2.0000      -0.987581       -26.8734
  26   2.0000      -0.907535       -24.6953
  27   2.0000      -0.903562       -24.5872
  28   2.0000      -0.866249       -23.5718
  29   2.0000      -0.858147       -23.3514
  30   2.0000      -0.846917       -23.0458
  31   2.0000      -0.815281       -22.1849
  32   2.0000      -0.787174       -21.4201
  33   2.0000      -0.771255       -20.9869
  34   2.0000      -0.709140       -19.2967
  35   2.0000      -0.699450       -19.0330
  36   2.0000      -0.685166       -18.6443
  37   2.0000      -0.650026       -17.6881
  38   2.0000      -0.643404       -17.5079
  39   2.0000      -0.624556       -16.9950
  40   2.0000      -0.592134       -16.1128
  41   2.0000      -0.567775       -15.4499
  42   2.0000      -0.550526       -14.9806
  43   2.0000      -0.548576       -14.9275
  44   2.0000      -0.544248       -14.8097
  45   2.0000      -0.539075       -14.6690
  46   2.0000      -0.517902       -14.0928
  47   2.0000      -0.512603       -13.9486
  48   2.0000      -0.491818       -13.3831
  49   2.0000      -0.489402       -13.3173
  50   2.0000      -0.483681       -13.1616
  51   2.0000      -0.480302       -13.0697
  52   2.0000      -0.472470       -12.8566
  53   2.0000      -0.467687       -12.7264
  54   2.0000      -0.456458       -12.4208
  55   2.0000      -0.455971       -12.4076
  56   2.0000      -0.439902       -11.9703
  57   2.0000      -0.432465       -11.7680
  58   2.0000      -0.430990       -11.7278
  59   2.0000      -0.425843       -11.5878
  60   2.0000      -0.421792       -11.4776
  61   2.0000      -0.413964       -11.2645
  62   2.0000      -0.405888       -11.0448
  63   2.0000      -0.344509        -9.3746
  64   2.0000      -0.335217        -9.1217
  65   2.0000      -0.310388        -8.4461
  66   2.0000      -0.304352        -8.2818
  67   0.0000       0.041598         1.1320
  68   0.0000       0.050197         1.3659
  69   0.0000       0.106723         2.9041
  70   0.0000       0.117359         3.1935
  71   0.0000       0.133951         3.6450

MULLIKEN ATOMIC CHARGES
-----------------------
   0 S :    0.137472
   1 C :   -0.073956
   2 C :   -0.101282
   3 C :    0.067925
   4 C :   -0.194632
   5 H :    0.003213
   6 C :    0.093401
   7 H :    0.029046
   8 H :   -0.003044
   9 C :   -0.039920
  10 H :    0.037721
  11 H :    0.035991
  12 C :   -0.069821
  13 H :    0.043282
  14 H :    0.024828
  15 H :    0.010105
  16 S :    0.111326
  17 C :   -0.092582
  18 C :   -0.049406
  19 C :   -0.006913
  20 C :   -0.205914
  21 H :    0.023500
  22 C :    0.091773
  23 H :    0.026954
  24 H :   -0.006553
  25 C :   -0.089838
  26 H :    0.009314
  27 H :    0.044159
  28 C :    0.001088
  29 H :    0.035305
  30 H :    0.014056
  31 H :    0.036911
  32 H :    0.007451
  33 H :    0.049041
Sum of atomic charges:   -0.0000000

LOEWDIN ATOMIC CHARGES
----------------------
   0 S :    0.446861
   1 C :   -0.196871
   2 C :   -0.065453
   3 C :   -0.050896
   4 C :   -0.197492
   5 H :    0.030490
   6 C :   -0.032013
   7 H :    0.037840
   8 H :    0.021980
   9 C :   -0.035112
  10 H :    0.032700
  11 H :    0.026532
  12 C :   -0.077400
  13 H :    0.025433
  14 H :    0.028547
  15 H :    0.022036
  16 S :    0.391973
  17 C :   -0.182628
  18 C :   -0.084554
  19 C :   -0.051955
  20 C :   -0.198083
  21 H :    0.039170
  22 C :   -0.026555
  23 H :    0.034210
  24 H :    0.011150
  25 C :   -0.041318
  26 H :    0.003565
  27 H :    0.033710
  28 C :   -0.061133
  29 H :    0.027458
  30 H :    0.025205
  31 H :    0.025650
  32 H :    0.007075
  33 H :    0.029878

  Mayer bond orders larger than 0.100000
B(  0-S ,  1-C ) :   1.1658 B(  0-S ,  4-C ) :   1.1841 B(  1-C ,  2-C ) :   1.5643
B(  1-C ,  4-C ) :   0.1150 B(  1-C , 32-H ) :   0.9690 B(  2-C ,  3-C ) :   1.3012
B(  2-C ,  6-C ) :   1.0149 B(  3-C ,  4-C ) :   1.5408 B(  3-C ,  5-H ) :   1.0010
B(  4-C , 20-C ) :   1.0058 B(  6-C ,  7-H ) :   0.9384 B(  6-C ,  8-H ) :   0.9334
B(  6-C ,  9-C ) :   1.0652 B(  9-C , 10-H ) :   0.9567 B(  9-C , 11-H ) :   0.9573
B(  9-C , 12-C ) :   1.0735 B( 12-C , 13-H ) :   0.9778 B( 12-C , 14-H ) :   0.9730
B( 12-C , 15-H ) :   0.9723 B( 16-S , 17-C ) :   1.1358 B( 16-S , 20-C ) :   1.1561
B( 17-C , 18-C ) :   1.6714 B( 17-C , 33-H ) :   0.9567 B( 18-C , 19-C ) :   1.2105
B( 18-C , 21-H ) :   0.9840 B( 19-C , 20-C ) :   1.5881 B( 19-C , 22-C ) :   1.0573
B( 22-C , 23-H ) :   0.9259 B( 22-C , 24-H ) :   0.9324 B( 22-C , 25-C ) :   1.0628
B( 25-C , 26-H ) :   0.9487 B( 25-C , 27-H ) :   0.9540 B( 25-C , 28-C ) :   1.0753
B( 28-C , 29-H ) :   0.9699 B( 28-C , 30-H ) :   0.9720 B( 28-C , 31-H ) :   0.9715

Dispersion correction           -0.015320247
FINAL SINGLE POINT ENERGY     -1339.848633486725

DIPOLE MOMENT
-------------
                                X             Y             Z
Electronic contribution:      7.99769      -8.57279       0.73159
Nuclear contribution   :     -8.26079       8.83443      -0.53280
                        -----------------------------------------
Total Dipole Moment    :     -0.26311       0.26164       0.19879
                        -----------------------------------------
Magnitude (a.u.)       :      0.42095
Magnitude (Debye)      :      1.06998

Rotational constants in cm-1:     0.023382     0.008317     0.007048
Rotational constants in MHz :   700.976055   249.332751   211.306110

                             ****ORCA TERMINATED NORMALLY****
TOTAL RUN TIME: 0 days 0 hours 0 minutes 22 seconds 158 msec
