                         Program Version 4.2.1 -  RELEASE  -
|  1> ! wB97X-D3 SP def2-SVP
|  2> %pal
|  3> nprocs 24
|  4> end
|  5>
|  6> * xyz 0 1
|  7> S 	 38.2062 	 -20.7763 	 -121.435
|  8> C 	 37.1476 	 -21.0927 	 -122.8
|  9> C 	 37.5083 	 -22.263 	 -123.439
| 10> C 	 38.5841 	 -22.9826 	 -122.755
| 11> C 	 39.091 	 -22.3128 	 -121.636
| 12> H 	 39.0187 	 -23.9664 	 -122.876
| 13> C 	 36.7805 	 -22.8587 	 -124.633
| 14> H 	 36.2371 	 -22.0573 	 -125.073
| 15> H 	 35.9672 	 -23.5026 	 -124.286
| 16> C 	 37.5923 	 -23.748 	 -125.594
| 17> H 	 37.9957 	 -24.582 	 -124.998
| 18> H 	 36.9006 	 -24.2268 	 -126.225
| 19> C 	 38.7035 	 -22.971 	 -126.391
| 20> H 	 39.3741 	 -23.6876 	 -126.939
| 21> H 	 38.1858 	 -22.3502 	 -127.114
| 22> H 	 39.1939 	 -22.3161 	 -125.686
| 23> S 	 39.672 	 -22.5458 	 -118.986
| 24> C 	 41.2141 	 -23.0974 	 -118.495
| 25> C 	 41.9561 	 -23.5564 	 -119.594
| 26> C 	 41.2976 	 -23.4009 	 -120.821
| 27> C 	 40.0861 	 -22.7679 	 -120.671
| 28> H 	 42.885 	 -24.0867 	 -119.424
| 29> C 	 41.9543 	 -23.8801 	 -122.159
| 30> H 	 42.9604 	 -23.4436 	 -122.289
| 31> H 	 41.3231 	 -23.567 	 -122.99
| 32> C 	 41.8489 	 -25.3775 	 -122.448
| 33> H 	 40.7716 	 -25.6445 	 -122.272
| 34> H 	 42.3875 	 -26.0891 	 -121.822
| 35> C 	 42.3318 	 -25.6528 	 -123.884
| 36> H 	 41.5868 	 -25.314 	 -124.528
| 37> H 	 42.3307 	 -26.7759 	 -124.081
| 38> H 	 43.3133 	 -25.2546 	 -124.197
| 39> H 	 36.3012 	 -20.5015 	 -122.99
| 40> H 	 41.4821 	 -23.3821 	 -117.521
| 41> *
| 42>
| 43>                          ****END OF INPUT****

CARTESIAN COORDINATES (ANGSTROEM)
---------------------------------
  S     38.206200  -20.776300  -121.435000
  C     37.147600  -21.092700  -122.800000
  C     37.508300  -22.263000  -123.439000
  C     38.584100  -22.982600  -122.755000
  C     39.091000  -22.312800  -121.636000
  H     39.018700  -23.966400  -122.876000
  C     36.780500  -22.858700  -124.633000
  H     36.237100  -22.057300  -125.073000
  H     35.967200  -23.502600  -124.286000
  C     37.592300  -23.748000  -125.594000
  H     37.995700  -24.582000  -124.998000
  H     36.900600  -24.226800  -126.225000
  C     38.703500  -22.971000  -126.391000
  H     39.374100  -23.687600  -126.939000
  H     38.185800  -22.350200  -127.114000
  H     39.193900  -22.316100  -125.686000
  S     39.672000  -22.545800  -118.986000
  C     41.214100  -23.097400  -118.495000
  C     41.956100  -23.556400  -119.594000
  C     41.297600  -23.400900  -120.821000
  C     40.086100  -22.767900  -120.671000
  H     42.885000  -24.086700  -119.424000
  C     41.954300  -23.880100  -122.159000
  H     42.960400  -23.443600  -122.289000
  H     41.323100  -23.567000  -122.990000
  C     41.848900  -25.377500  -122.448000
  H     40.771600  -25.644500  -122.272000
  H     42.387500  -26.089100  -121.822000
  C     42.331800  -25.652800  -123.884000
  H     41.586800  -25.314000  -124.528000
  H     42.330700  -26.775900  -124.081000
  H     43.313300  -25.254600  -124.197000
  H     36.301200  -20.501500  -122.990000
  H     41.482100  -23.382100  -117.521000

 Total Charge           Charge          ....    0
 Multiplicity           Mult            ....    1
 Number of Electrons    NEL             ....  134
 Basis Dimension        Dim             ....  322

ORBITAL ENERGIES
----------------

  NO   OCC          E(Eh)            E(eV)
   0   2.0000     -88.968710     -2420.9617
   1   2.0000     -88.963269     -2420.8136
   2   2.0000     -10.333642      -281.1927
   3   2.0000     -10.327822      -281.0343
   4   2.0000     -10.313267      -280.6383
   5   2.0000     -10.312985      -280.6306
   6   2.0000     -10.308210      -280.5007
   7   2.0000     -10.304859      -280.4095
   8   2.0000     -10.298691      -280.2416
   9   2.0000     -10.297549      -280.2105
  10   2.0000     -10.293336      -280.0959
  11   2.0000     -10.292843      -280.0825
  12   2.0000     -10.289521      -279.9921
  13   2.0000     -10.287376      -279.9337
  14   2.0000     -10.281982      -279.7870
  15   2.0000     -10.281049      -279.7616
  16   2.0000      -8.084065      -219.9786
  17   2.0000      -8.077454      -219.7987
  18   2.0000      -6.042401      -164.4221
  19   2.0000      -6.038442      -164.3144
  20   2.0000      -6.036016      -164.2484
  21   2.0000      -6.034999      -164.2207
  22   2.0000      -6.032010      -164.1393
  23   2.0000      -6.028208      -164.0359
  24   2.0000      -1.009017       -27.4567
  25   2.0000      -0.981415       -26.7057
  26   2.0000      -0.912156       -24.8210
  27   2.0000      -0.908206       -24.7136
  28   2.0000      -0.869903       -23.6713
  29   2.0000      -0.855862       -23.2892
  30   2.0000      -0.837348       -22.7854
  31   2.0000      -0.814656       -22.1679
  32   2.0000      -0.783359       -21.3163
  33   2.0000      -0.774459       -21.0741
  34   2.0000      -0.711259       -19.3544
  35   2.0000      -0.698339       -19.0028
  36   2.0000      -0.695938       -18.9374
  37   2.0000      -0.663549       -18.0561
  38   2.0000      -0.646943       -17.6042
  39   2.0000      -0.618604       -16.8331
  40   2.0000      -0.599949       -16.3255
  41   2.0000      -0.572112       -15.5680
  42   2.0000      -0.562395       -15.3036
  43   2.0000      -0.547266       -14.8919
  44   2.0000      -0.535486       -14.5713
  45   2.0000      -0.522740       -14.2245
  46   2.0000      -0.521721       -14.1968
  47   2.0000      -0.510839       -13.9006
  48   2.0000      -0.507672       -13.8145
  49   2.0000      -0.503388       -13.6979
  50   2.0000      -0.490343       -13.3429
  51   2.0000      -0.485302       -13.2057
  52   2.0000      -0.467745       -12.7280
  53   2.0000      -0.466490       -12.6938
  54   2.0000      -0.459421       -12.5015
  55   2.0000      -0.449515       -12.2319
  56   2.0000      -0.442093       -12.0300
  57   2.0000      -0.440265       -11.9802
  58   2.0000      -0.430189       -11.7060
  59   2.0000      -0.428470       -11.6592
  60   2.0000      -0.421554       -11.4711
  61   2.0000      -0.416018       -11.3204
  62   2.0000      -0.413377       -11.2486
  63   2.0000      -0.351050        -9.5525
  64   2.0000      -0.337680        -9.1887
  65   2.0000      -0.325005        -8.8438
  66   2.0000      -0.290684        -7.9099
  67   0.0000       0.025143         0.6842
  68   0.0000       0.072792         1.9808
  69   0.0000       0.112251         3.0545
  70   0.0000       0.115917         3.1543
  71   0.0000       0.118404         3.2219

MULLIKEN ATOMIC CHARGES
-----------------------
   0 S :    0.095309
   1 C :   -0.114444
   2 C :   -0.076391
   3 C :    0.023609
   4 C :   -0.150417
   5 H :    0.001767
   6 C :    0.070840
   7 H :    0.003692
   8 H :    0.038638
   9 C :   -0.066875
  10 H :    0.025920
  11 H :    0.014052
  12 C :   -0.045434
  13 H :    0.047722
  14 H :    0.027928
  15 H :    0.045445
  16 S :    0.125227
  17 C :   -0.065612
  18 C :   -0.053343
  19 C :   -0.015486
  20 C :   -0.171448
  21 H :    0.018574
  22 C :    0.071794
  23 H :    0.043857
  24 H :    0.008044
  25 C :   -0.093436
  26 H :    0.037174
  27 H :    0.026555
  28 C :   -0.053078
  29 H :    0.017217
  30 H :    0.036626
  31 H :    0.046049
  32 H :    0.037262
  33 H :    0.042664
Sum of atomic charges:    0.0000000

LOEWDIN ATOMIC CHARGES
----------------------
   0 S :    0.382985
   1 C :   -0.188531
   2 C :   -0.059093
   3 C :   -0.071876
   4 C :   -0.177537
   5 H :    0.028329
   6 C :   -0.034008
   7 H :    0.022654
   8 H :    0.038450
   9 C :   -0.037746
  10 H :    0.022746
  11 H :    0.017463
  12 C :   -0.063578
  13 H :    0.031957
  14 H :    0.024602
  15 H :    0.025997
  16 S :    0.434237
  17 C :   -0.192808
  18 C :   -0.066991
  19 C :   -0.056804
  20 C :   -0.201600
  21 H :    0.031406
  22 C :   -0.028466
  23 H :    0.033886
  24 H :    0.029681
  25 C :   -0.043866
  26 H :    0.028883
  27 H :    0.016577
  28 C :   -0.066928
  29 H :    0.013945
  30 H :    0.034480
  31 H :    0.030588
  32 H :    0.020733
  33 H :    0.020231

  Mayer bond orders larger than 0.100000
B(  0-S ,  1-C ) :   1.1292 B(  0-S ,  4-C ) :   1.1416 B(  1-C ,  2-C ) :   1.6188
B(  1-C , 32-H ) :   0.9778 B(  2-C ,  3-C ) :   1.1955 B(  2-C ,  6-C ) :   1.0235
B(  3-C ,  4-C ) :   1.5986 B(  3-C ,  5-H ) :   0.9870 B(  4-C , 20-C ) :   1.0445
B(  6-C ,  7-H ) :   0.9389 B(  6-C ,  8-H ) :   0.9317 B(  6-C ,  9-C ) :   1.0823
B(  9-C , 10-H ) :   0.9493 B(  9-C , 11-H ) :   0.9535 B(  9-C , 12-C ) :   1.0620
B( 12-C , 13-H ) :   0.9761 B( 12-C , 14-H ) :   0.9757 B( 12-C , 15-H ) :   0.9789
B( 16-S , 17-C ) :   1.1730 B( 16-S , 20-C ) :   1.1598 B( 17-C , 18-C ) :   1.5732
B( 17-C , 20-C ) :   0.1048 B( 17-C , 33-H ) :   0.9710 B( 18-C , 19-C ) :   1.2764
B( 18-C , 21-H ) :   0.9907 B( 19-C , 20-C ) :   1.5704 B( 19-C , 22-C ) :   1.0352
B( 22-C , 23-H ) :   0.9426 B( 22-C , 24-H ) :   0.9325 B( 22-C , 25-C ) :   1.0423
B( 25-C , 26-H ) :   0.9514 B( 25-C , 27-H ) :   0.9580 B( 25-C , 28-C ) :   1.0773
B( 28-C , 29-H ) :   0.9740 B( 28-C , 30-H ) :   0.9731 B( 28-C , 31-H ) :   0.9743

Dispersion correction           -0.014682646
FINAL SINGLE POINT ENERGY     -1339.877992773027

DIPOLE MOMENT
-------------
                                X             Y             Z
Electronic contribution:     -6.20502      16.60662      27.01642
Nuclear contribution   :      6.23025     -17.22736     -27.41948
                        -----------------------------------------
Total Dipole Moment    :      0.02524      -0.62074      -0.40306
                        -----------------------------------------
Magnitude (a.u.)       :      0.74055
Magnitude (Debye)      :      1.88232

Rotational constants in cm-1:     0.016455     0.010614     0.006857
Rotational constants in MHz :   493.319047   318.200803   205.577377

                             ****ORCA TERMINATED NORMALLY****
TOTAL RUN TIME: 0 days 0 hours 0 minutes 22 seconds 157 msec
