                         Program Version 4.2.1 -  RELEASE  -
|  1> ! wB97X-D3 SP def2-SVP
|  2> %pal
|  3> nprocs 24
|  4> end
|  5>
|  6> * xyz 0 1
|  7> S 	 -126.543 	 68.4662 	 -61.7926
|  8> C 	 -125.144 	 69.3963 	 -61.5704
|  9> C 	 -125.271 	 70.6997 	 -61.9826
| 10> C 	 -126.651 	 71.0644 	 -62.231
| 11> C 	 -127.433 	 69.9155 	 -62.2688
| 12> H 	 -126.994 	 72.0724 	 -62.5802
| 13> C 	 -124.123 	 71.6616 	 -62.2559
| 14> H 	 -123.266 	 71.0652 	 -61.9951
| 15> H 	 -124.155 	 72.5849 	 -61.6628
| 16> C 	 -123.825 	 72.061 	 -63.743
| 17> H 	 -124.495 	 72.9753 	 -64.0067
| 18> H 	 -122.844 	 72.4678 	 -63.8327
| 19> C 	 -124.005 	 70.9404 	 -64.8087
| 20> H 	 -123.807 	 71.1921 	 -65.8691
| 21> H 	 -123.587 	 70.0503 	 -64.4597
| 22> H 	 -125.026 	 70.6324 	 -64.9508
| 23> S 	 -129.959 	 69.3464 	 -61.4142
| 24> C 	 -131.244 	 69.5124 	 -62.5567
| 25> C 	 -130.902 	 70.0646 	 -63.7222
| 26> C 	 -129.444 	 70.2141 	 -63.802
| 27> C 	 -128.853 	 69.8821 	 -62.6032
| 28> H 	 -131.58 	 70.1409 	 -64.558
| 29> C 	 -128.766 	 70.6034 	 -65.153
| 30> H 	 -127.907 	 71.1415 	 -64.8936
| 31> H 	 -129.39 	 71.352 	 -65.5224
| 32> C 	 -128.594 	 69.5596 	 -66.2552
| 33> H 	 -128.274 	 70.1343 	 -67.1717
| 34> H 	 -129.537 	 69.0546 	 -66.4975
| 35> C 	 -127.622 	 68.528 	 -65.9654
| 36> H 	 -127.445 	 68.2153 	 -66.9895
| 37> H 	 -128.037 	 67.6306 	 -65.4849
| 38> H 	 -126.76 	 68.9163 	 -65.4281
| 39> H 	 -124.177 	 69.0768 	 -61.1786
| 40> H 	 -132.271 	 69.2189 	 -62.3144
| 41> *
| 42>
| 43>                          ****END OF INPUT****

CARTESIAN COORDINATES (ANGSTROEM)
---------------------------------
  S    -126.543000   68.466200  -61.792600
  C    -125.144000   69.396300  -61.570400
  C    -125.271000   70.699700  -61.982600
  C    -126.651000   71.064400  -62.231000
  C    -127.433000   69.915500  -62.268800
  H    -126.994000   72.072400  -62.580200
  C    -124.123000   71.661600  -62.255900
  H    -123.266000   71.065200  -61.995100
  H    -124.155000   72.584900  -61.662800
  C    -123.825000   72.061000  -63.743000
  H    -124.495000   72.975300  -64.006700
  H    -122.844000   72.467800  -63.832700
  C    -124.005000   70.940400  -64.808700
  H    -123.807000   71.192100  -65.869100
  H    -123.587000   70.050300  -64.459700
  H    -125.026000   70.632400  -64.950800
  S    -129.959000   69.346400  -61.414200
  C    -131.244000   69.512400  -62.556700
  C    -130.902000   70.064600  -63.722200
  C    -129.444000   70.214100  -63.802000
  C    -128.853000   69.882100  -62.603200
  H    -131.580000   70.140900  -64.558000
  C    -128.766000   70.603400  -65.153000
  H    -127.907000   71.141500  -64.893600
  H    -129.390000   71.352000  -65.522400
  C    -128.594000   69.559600  -66.255200
  H    -128.274000   70.134300  -67.171700
  H    -129.537000   69.054600  -66.497500
  C    -127.622000   68.528000  -65.965400
  H    -127.445000   68.215300  -66.989500
  H    -128.037000   67.630600  -65.484900
  H    -126.760000   68.916300  -65.428100
  H    -124.177000   69.076800  -61.178600
  H    -132.271000   69.218900  -62.314400

 Total Charge           Charge          ....    0
 Multiplicity           Mult            ....    1
 Number of Electrons    NEL             ....  134
 Basis Dimension        Dim             ....  322

ORBITAL ENERGIES
----------------

  NO   OCC          E(Eh)            E(eV)
   0   2.0000     -88.969665     -2420.9877
   1   2.0000     -88.961939     -2420.7774
   2   2.0000     -10.327930      -281.0373
   3   2.0000     -10.317184      -280.7449
   4   2.0000     -10.310611      -280.5660
   5   2.0000     -10.309427      -280.5338
   6   2.0000     -10.302681      -280.3502
   7   2.0000     -10.299052      -280.2514
   8   2.0000     -10.298382      -280.2332
   9   2.0000     -10.296386      -280.1789
  10   2.0000     -10.294284      -280.1217
  11   2.0000     -10.288934      -279.9761
  12   2.0000     -10.283793      -279.8362
  13   2.0000     -10.279949      -279.7316
  14   2.0000     -10.272635      -279.5326
  15   2.0000     -10.265070      -279.3267
  16   2.0000      -8.084824      -219.9992
  17   2.0000      -8.078312      -219.8220
  18   2.0000      -6.043282      -164.4461
  19   2.0000      -6.039363      -164.3394
  20   2.0000      -6.036753      -164.2684
  21   2.0000      -6.035522      -164.2349
  22   2.0000      -6.032712      -164.1584
  23   2.0000      -6.028924      -164.0554
  24   2.0000      -1.010794       -27.5051
  25   2.0000      -0.989240       -26.9186
  26   2.0000      -0.915600       -24.9148
  27   2.0000      -0.904589       -24.6151
  28   2.0000      -0.870548       -23.6888
  29   2.0000      -0.854924       -23.2637
  30   2.0000      -0.845188       -22.9987
  31   2.0000      -0.816620       -22.2214
  32   2.0000      -0.788164       -21.4470
  33   2.0000      -0.775289       -21.0967
  34   2.0000      -0.706089       -19.2137
  35   2.0000      -0.694276       -18.8922
  36   2.0000      -0.685755       -18.6603
  37   2.0000      -0.657687       -17.8966
  38   2.0000      -0.635058       -17.2808
  39   2.0000      -0.615220       -16.7410
  40   2.0000      -0.596396       -16.2288
  41   2.0000      -0.562365       -15.3027
  42   2.0000      -0.557381       -15.1671
  43   2.0000      -0.555666       -15.1205
  44   2.0000      -0.549071       -14.9410
  45   2.0000      -0.536327       -14.5942
  46   2.0000      -0.520212       -14.1557
  47   2.0000      -0.510107       -13.8807
  48   2.0000      -0.500720       -13.6253
  49   2.0000      -0.495006       -13.4698
  50   2.0000      -0.491347       -13.3702
  51   2.0000      -0.481403       -13.0996
  52   2.0000      -0.470069       -12.7912
  53   2.0000      -0.460626       -12.5343
  54   2.0000      -0.456043       -12.4096
  55   2.0000      -0.450688       -12.2638
  56   2.0000      -0.445589       -12.1251
  57   2.0000      -0.437289       -11.8992
  58   2.0000      -0.433248       -11.7893
  59   2.0000      -0.428023       -11.6471
  60   2.0000      -0.424659       -11.5556
  61   2.0000      -0.406735       -11.0678
  62   2.0000      -0.399909       -10.8821
  63   2.0000      -0.344175        -9.3655
  64   2.0000      -0.329619        -8.9694
  65   2.0000      -0.325471        -8.8565
  66   2.0000      -0.299933        -8.1616
  67   0.0000       0.040530         1.1029
  68   0.0000       0.075603         2.0573
  69   0.0000       0.113874         3.0987
  70   0.0000       0.119564         3.2535
  71   0.0000       0.125393         3.4121

MULLIKEN ATOMIC CHARGES
-----------------------
   0 S :    0.135843
   1 C :   -0.107908
   2 C :   -0.139626
   3 C :    0.049247
   4 C :   -0.187691
   5 H :    0.039428
   6 C :    0.089363
   7 H :    0.005275
   8 H :    0.044668
   9 C :   -0.102774
  10 H :    0.027283
  11 H :    0.032481
  12 C :   -0.008082
  13 H :    0.037088
  14 H :    0.012869
  15 H :    0.008595
  16 S :    0.120643
  17 C :   -0.090211
  18 C :   -0.017303
  19 C :   -0.083819
  20 C :   -0.175136
  21 H :    0.018801
  22 C :    0.152001
  23 H :   -0.010419
  24 H :   -0.004656
  25 C :   -0.074318
  26 H :    0.032543
  27 H :    0.021171
  28 C :   -0.024546
  29 H :    0.020566
  30 H :    0.037825
  31 H :    0.041728
  32 H :    0.044624
  33 H :    0.054448
Sum of atomic charges:   -0.0000000

LOEWDIN ATOMIC CHARGES
----------------------
   0 S :    0.424186
   1 C :   -0.221076
   2 C :   -0.068400
   3 C :   -0.057680
   4 C :   -0.191227
   5 H :    0.041780
   6 C :   -0.032033
   7 H :    0.025292
   8 H :    0.035340
   9 C :   -0.039121
  10 H :    0.025298
  11 H :    0.020814
  12 C :   -0.071419
  13 H :    0.033984
  14 H :    0.017624
  15 H :    0.023100
  16 S :    0.421710
  17 C :   -0.184861
  18 C :   -0.072932
  19 C :   -0.046481
  20 C :   -0.223708
  21 H :    0.031794
  22 C :   -0.027685
  23 H :    0.019467
  24 H :    0.023838
  25 C :   -0.041530
  26 H :    0.029900
  27 H :    0.026505
  28 C :   -0.066929
  29 H :    0.031143
  30 H :    0.029421
  31 H :    0.024018
  32 H :    0.030745
  33 H :    0.029125

  Mayer bond orders larger than 0.100000
B(  0-S ,  1-C ) :   1.1389 B(  0-S ,  4-C ) :   1.1506 B(  1-C ,  2-C ) :   1.6371
B(  1-C , 32-H ) :   0.9543 B(  2-C ,  3-C ) :   1.2204 B(  2-C ,  6-C ) :   1.0343
B(  3-C ,  4-C ) :   1.5925 B(  3-C ,  5-H ) :   0.9820 B(  4-C , 20-C ) :   1.0166
B(  6-C ,  7-H ) :   0.9337 B(  6-C ,  8-H ) :   0.9421 B(  6-C ,  9-C ) :   1.0606
B(  9-C , 10-H ) :   0.9565 B(  9-C , 11-H ) :   0.9614 B(  9-C , 12-C ) :   1.0734
B( 12-C , 13-H ) :   0.9699 B( 12-C , 14-H ) :   0.9736 B( 12-C , 15-H ) :   0.9634
B( 16-S , 17-C ) :   1.1441 B( 16-S , 20-C ) :   1.1457 B( 17-C , 18-C ) :   1.6568
B( 17-C , 33-H ) :   0.9611 B( 18-C , 19-C ) :   1.2093 B( 18-C , 21-H ) :   0.9883
B( 19-C , 20-C ) :   1.6392 B( 19-C , 22-C ) :   1.0226 B( 22-C , 23-H ) :   0.9237
B( 22-C , 24-H ) :   0.9159 B( 22-C , 25-C ) :   1.0857 B( 25-C , 26-H ) :   0.9555
B( 25-C , 27-H ) :   0.9470 B( 25-C , 28-C ) :   1.0788 B( 28-C , 29-H ) :   0.9691
B( 28-C , 30-H ) :   0.9704 B( 28-C , 31-H ) :   0.9726

Dispersion correction           -0.016671965
FINAL SINGLE POINT ENERGY     -1339.862660438019

DIPOLE MOMENT
-------------
                                X             Y             Z
Electronic contribution:    -14.10853      -8.11409      22.05631
Nuclear contribution   :     14.20526       8.35948     -22.62015
                        -----------------------------------------
Total Dipole Moment    :      0.09673       0.24540      -0.56384
                        -----------------------------------------
Magnitude (a.u.)       :      0.62248
Magnitude (Debye)      :      1.58223

Rotational constants in cm-1:     0.019750     0.010224     0.008143
Rotational constants in MHz :   592.078043   306.501072   244.133608

                             ****ORCA TERMINATED NORMALLY****
TOTAL RUN TIME: 0 days 0 hours 0 minutes 23 seconds 540 msec
