                         Program Version 4.2.1 -  RELEASE  -
|  1> ! wB97X-D3 SP def2-SVP
|  2> %pal
|  3> nprocs 24
|  4> end
|  5>
|  6> * xyz 0 1
|  7> S 	 -113.616 	 53.9511 	 -38.5567
|  8> C 	 -112.394 	 53.0832 	 -39.3875
|  9> C 	 -112.203 	 53.5289 	 -40.6568
| 10> C 	 -113.256 	 54.4832 	 -40.9934
| 11> C 	 -114.077 	 54.7275 	 -39.9779
| 12> H 	 -113.539 	 54.9335 	 -41.9452
| 13> C 	 -111.318 	 52.8152 	 -41.6277
| 14> H 	 -111.788 	 52.0031 	 -42.0582
| 15> H 	 -110.473 	 52.3652 	 -41.115
| 16> C 	 -110.671 	 53.769 	 -42.6234
| 17> H 	 -110.025 	 53.2282 	 -43.3061
| 18> H 	 -111.413 	 54.3049 	 -43.1759
| 19> C 	 -109.876 	 54.9159 	 -41.8846
| 20> H 	 -109.274 	 55.4276 	 -42.622
| 21> H 	 -110.459 	 55.6615 	 -41.2766
| 22> H 	 -109.206 	 54.4312 	 -41.1793
| 23> S 	 -116.934 	 55.1926 	 -39.7488
| 24> C 	 -117.541 	 56.7251 	 -40.2579
| 25> C 	 -116.494 	 57.6187 	 -40.4363
| 26> C 	 -115.226 	 56.9901 	 -40.3908
| 27> C 	 -115.24 	 55.6423 	 -40.1116
| 28> H 	 -116.641 	 58.68 	 -40.5884
| 29> C 	 -114.033 	 57.8755 	 -40.3687
| 30> H 	 -113.196 	 57.3474 	 -39.8942
| 31> H 	 -114.301 	 58.7594 	 -39.7736
| 32> C 	 -113.607 	 58.1861 	 -41.771
| 33> H 	 -114.508 	 58.3901 	 -42.4016
| 34> H 	 -113.063 	 57.4539 	 -42.3545
| 35> C 	 -112.76 	 59.4464 	 -41.7361
| 36> H 	 -112.415 	 59.6806 	 -42.751
| 37> H 	 -111.882 	 59.3625 	 -41.0218
| 38> H 	 -113.335 	 60.282 	 -41.3432
| 39> H 	 -111.774 	 52.4009 	 -38.8494
| 40> H 	 -118.588 	 56.8667 	 -40.3237
| 41> *
| 42>
| 43>                          ****END OF INPUT****

CARTESIAN COORDINATES (ANGSTROEM)
---------------------------------
  S    -113.616000   53.951100  -38.556700
  C    -112.394000   53.083200  -39.387500
  C    -112.203000   53.528900  -40.656800
  C    -113.256000   54.483200  -40.993400
  C    -114.077000   54.727500  -39.977900
  H    -113.539000   54.933500  -41.945200
  C    -111.318000   52.815200  -41.627700
  H    -111.788000   52.003100  -42.058200
  H    -110.473000   52.365200  -41.115000
  C    -110.671000   53.769000  -42.623400
  H    -110.025000   53.228200  -43.306100
  H    -111.413000   54.304900  -43.175900
  C    -109.876000   54.915900  -41.884600
  H    -109.274000   55.427600  -42.622000
  H    -110.459000   55.661500  -41.276600
  H    -109.206000   54.431200  -41.179300
  S    -116.934000   55.192600  -39.748800
  C    -117.541000   56.725100  -40.257900
  C    -116.494000   57.618700  -40.436300
  C    -115.226000   56.990100  -40.390800
  C    -115.240000   55.642300  -40.111600
  H    -116.641000   58.680000  -40.588400
  C    -114.033000   57.875500  -40.368700
  H    -113.196000   57.347400  -39.894200
  H    -114.301000   58.759400  -39.773600
  C    -113.607000   58.186100  -41.771000
  H    -114.508000   58.390100  -42.401600
  H    -113.063000   57.453900  -42.354500
  C    -112.760000   59.446400  -41.736100
  H    -112.415000   59.680600  -42.751000
  H    -111.882000   59.362500  -41.021800
  H    -113.335000   60.282000  -41.343200
  H    -111.774000   52.400900  -38.849400
  H    -118.588000   56.866700  -40.323700

 Total Charge           Charge          ....    0
 Multiplicity           Mult            ....    1
 Number of Electrons    NEL             ....  134
 Basis Dimension        Dim             ....  322

ORBITAL ENERGIES
----------------

  NO   OCC          E(Eh)            E(eV)
   0   2.0000     -88.961750     -2420.7723
   1   2.0000     -88.961358     -2420.7616
   2   2.0000     -10.325489      -280.9708
   3   2.0000     -10.319007      -280.7945
   4   2.0000     -10.317733      -280.7598
   5   2.0000     -10.306265      -280.4477
   6   2.0000     -10.299877      -280.2739
   7   2.0000     -10.294590      -280.1300
   8   2.0000     -10.292309      -280.0680
   9   2.0000     -10.289522      -279.9921
  10   2.0000     -10.285593      -279.8852
  11   2.0000     -10.285263      -279.8762
  12   2.0000     -10.283269      -279.8220
  13   2.0000     -10.282259      -279.7945
  14   2.0000     -10.279019      -279.7063
  15   2.0000     -10.278025      -279.6793
  16   2.0000      -8.078518      -219.8276
  17   2.0000      -8.076556      -219.7743
  18   2.0000      -6.036829      -164.2705
  19   2.0000      -6.035065      -164.2225
  20   2.0000      -6.032734      -164.1590
  21   2.0000      -6.031020      -164.1124
  22   2.0000      -6.029297      -164.0655
  23   2.0000      -6.027365      -164.0129
  24   2.0000      -1.016915       -27.6717
  25   2.0000      -0.991522       -26.9807
  26   2.0000      -0.918541       -24.9948
  27   2.0000      -0.917020       -24.9534
  28   2.0000      -0.871492       -23.7145
  29   2.0000      -0.850685       -23.1483
  30   2.0000      -0.844014       -22.9668
  31   2.0000      -0.816765       -22.2253
  32   2.0000      -0.782978       -21.3059
  33   2.0000      -0.770797       -20.9745
  34   2.0000      -0.706244       -19.2179
  35   2.0000      -0.697221       -18.9723
  36   2.0000      -0.691640       -18.8205
  37   2.0000      -0.661062       -17.9884
  38   2.0000      -0.651334       -17.7237
  39   2.0000      -0.622682       -16.9440
  40   2.0000      -0.604679       -16.4542
  41   2.0000      -0.570203       -15.5160
  42   2.0000      -0.565299       -15.3826
  43   2.0000      -0.560010       -15.2386
  44   2.0000      -0.538586       -14.6557
  45   2.0000      -0.529224       -14.4009
  46   2.0000      -0.519029       -14.1235
  47   2.0000      -0.513064       -13.9612
  48   2.0000      -0.507569       -13.8117
  49   2.0000      -0.497613       -13.5407
  50   2.0000      -0.491477       -13.3738
  51   2.0000      -0.479867       -13.0578
  52   2.0000      -0.473736       -12.8910
  53   2.0000      -0.459407       -12.5011
  54   2.0000      -0.455411       -12.3924
  55   2.0000      -0.452157       -12.3038
  56   2.0000      -0.449932       -12.2433
  57   2.0000      -0.439763       -11.9665
  58   2.0000      -0.438652       -11.9363
  59   2.0000      -0.422182       -11.4882
  60   2.0000      -0.416688       -11.3387
  61   2.0000      -0.413050       -11.2397
  62   2.0000      -0.409292       -11.1374
  63   2.0000      -0.344840        -9.3836
  64   2.0000      -0.330319        -8.9884
  65   2.0000      -0.325835        -8.8664
  66   2.0000      -0.301569        -8.2061
  67   0.0000       0.041452         1.1280
  68   0.0000       0.069445         1.8897
  69   0.0000       0.114506         3.1159
  70   0.0000       0.118631         3.2281
  71   0.0000       0.132850         3.6150

MULLIKEN ATOMIC CHARGES
-----------------------
   0 S :    0.119362
   1 C :   -0.121947
   2 C :   -0.066924
   3 C :    0.000388
   4 C :   -0.150928
   5 H :    0.018781
   6 C :    0.108337
   7 H :    0.027959
   8 H :    0.007450
   9 C :   -0.072608
  10 H :    0.030261
  11 H :    0.023195
  12 C :   -0.081024
  13 H :    0.033665
  14 H :    0.056464
  15 H :    0.020449
  16 S :    0.095914
  17 C :   -0.085271
  18 C :   -0.019212
  19 C :   -0.038593
  20 C :   -0.166163
  21 H :    0.020336
  22 C :    0.071815
  23 H :    0.034162
  24 H :    0.037780
  25 C :   -0.091366
  26 H :    0.027895
  27 H :    0.031005
  28 C :   -0.048783
  29 H :    0.031706
  30 H :    0.032314
  31 H :    0.023512
  32 H :    0.037673
  33 H :    0.052397
Sum of atomic charges:   -0.0000000

LOEWDIN ATOMIC CHARGES
----------------------
   0 S :    0.434063
   1 C :   -0.193390
   2 C :   -0.059845
   3 C :   -0.064313
   4 C :   -0.211611
   5 H :    0.034119
   6 C :   -0.025242
   7 H :    0.024031
   8 H :    0.029663
   9 C :   -0.034103
  10 H :    0.024370
  11 H :    0.016199
  12 C :   -0.068050
  13 H :    0.023454
  14 H :    0.032805
  15 H :    0.019881
  16 S :    0.395121
  17 C :   -0.174631
  18 C :   -0.074562
  19 C :   -0.057838
  20 C :   -0.193762
  21 H :    0.031118
  22 C :   -0.028880
  23 H :    0.033828
  24 H :    0.036655
  25 C :   -0.045240
  26 H :    0.025308
  27 H :    0.023038
  28 C :   -0.067005
  29 H :    0.023206
  30 H :    0.028640
  31 H :    0.019689
  32 H :    0.021108
  33 H :    0.022176

  Mayer bond orders larger than 0.100000
B(  0-S ,  1-C ) :   1.1432 B(  0-S ,  4-C ) :   1.1530 B(  1-C ,  2-C ) :   1.6302
B(  1-C , 32-H ) :   0.9738 B(  2-C ,  3-C ) :   1.1743 B(  2-C ,  6-C ) :   1.0301
B(  3-C ,  4-C ) :   1.6377 B(  3-C ,  5-H ) :   0.9954 B(  4-C , 20-C ) :   1.0042
B(  6-C ,  7-H ) :   0.9439 B(  6-C ,  8-H ) :   0.9344 B(  6-C ,  9-C ) :   1.0741
B(  9-C , 10-H ) :   0.9590 B(  9-C , 11-H ) :   0.9551 B(  9-C , 12-C ) :   1.0679
B( 12-C , 13-H ) :   0.9761 B( 12-C , 14-H ) :   0.9706 B( 12-C , 15-H ) :   0.9782
B( 16-S , 17-C ) :   1.1848 B( 16-S , 20-C ) :   1.1203 B( 17-C , 18-C ) :   1.5553
B( 17-C , 33-H ) :   0.9776 B( 18-C , 19-C ) :   1.2582 B( 18-C , 21-H ) :   0.9941
B( 19-C , 20-C ) :   1.5997 B( 19-C , 22-C ) :   1.0408 B( 22-C , 23-H ) :   0.9167
B( 22-C , 24-H ) :   0.9539 B( 22-C , 25-C ) :   1.0506 B( 25-C , 26-H ) :   0.9606
B( 25-C , 27-H ) :   0.9480 B( 25-C , 28-C ) :   1.0858 B( 28-C , 29-H ) :   0.9730
B( 28-C , 30-H ) :   0.9684 B( 28-C , 31-H ) :   0.9775

Dispersion correction           -0.015278592
FINAL SINGLE POINT ENERGY     -1339.878907738980

DIPOLE MOMENT
-------------
                                X             Y             Z
Electronic contribution:    -22.07358     -12.51531      16.10380
Nuclear contribution   :     22.40799      12.73634     -16.44669
                        -----------------------------------------
Total Dipole Moment    :      0.33440       0.22103      -0.34289
                        -----------------------------------------
Magnitude (a.u.)       :      0.52750
Magnitude (Debye)      :      1.34079

Rotational constants in cm-1:     0.017557     0.010282     0.007308
Rotational constants in MHz :   526.341568   308.231929   219.079234

                             ****ORCA TERMINATED NORMALLY****
TOTAL RUN TIME: 0 days 0 hours 0 minutes 22 seconds 737 msec
