                         Program Version 4.2.1 -  RELEASE  -
|  1> ! wB97X-D3 SP def2-SVP
|  2> %pal
|  3> nprocs 24
|  4> end
|  5>
|  6> * xyz 0 1
|  7> S 	 -124.429 	 17.5097 	 -20.9195
|  8> C 	 -123.496 	 17.6309 	 -19.4429
|  9> C 	 -122.369 	 18.3941 	 -19.6289
| 10> C 	 -122.264 	 18.9044 	 -20.9791
| 11> C 	 -123.352 	 18.5989 	 -21.7671
| 12> H 	 -121.483 	 19.5938 	 -21.2277
| 13> C 	 -121.285 	 18.5574 	 -18.5962
| 14> H 	 -120.401 	 17.998 	 -18.8489
| 15> H 	 -121.73 	 18.1131 	 -17.7129
| 16> C 	 -120.846 	 19.9899 	 -18.1624
| 17> H 	 -120.167 	 20.4596 	 -18.9234
| 18> H 	 -121.832 	 20.6242 	 -18.0225
| 19> C 	 -120.154 	 20.0536 	 -16.8099
| 20> H 	 -119.305 	 19.3997 	 -16.7491
| 21> H 	 -119.956 	 21.135 	 -16.5468
| 22> H 	 -120.78 	 19.6449 	 -16.0078
| 23> S 	 -124.003 	 20.7297 	 -23.3767
| 24> C 	 -124.204 	 20.4115 	 -25.1415
| 25> C 	 -124.021 	 19.0947 	 -25.4451
| 26> C 	 -123.665 	 18.3414 	 -24.2889
| 27> C 	 -123.672 	 19.0684 	 -23.1281
| 28> H 	 -124.171 	 18.7648 	 -26.4769
| 29> C 	 -123.488 	 16.8606 	 -24.5589
| 30> H 	 -123.441 	 16.6299 	 -25.6653
| 31> H 	 -124.437 	 16.3857 	 -24.2976
| 32> C 	 -122.4 	 16.0931 	 -23.7155
| 33> H 	 -122.263 	 15.0224 	 -23.98
| 34> H 	 -122.645 	 16.131 	 -22.6386
| 35> C 	 -121.042 	 16.7931 	 -23.8621
| 36> H 	 -120.275 	 16.1925 	 -23.4287
| 37> H 	 -121.07 	 17.7577 	 -23.4114
| 38> H 	 -120.813 	 16.8326 	 -24.8506
| 39> H 	 -123.773 	 17.2177 	 -18.4646
| 40> H 	 -124.481 	 21.2101 	 -25.7527
| 41> *
| 42>
| 43>                          ****END OF INPUT****

CARTESIAN COORDINATES (ANGSTROEM)
---------------------------------
  S    -124.429000   17.509700  -20.919500
  C    -123.496000   17.630900  -19.442900
  C    -122.369000   18.394100  -19.628900
  C    -122.264000   18.904400  -20.979100
  C    -123.352000   18.598900  -21.767100
  H    -121.483000   19.593800  -21.227700
  C    -121.285000   18.557400  -18.596200
  H    -120.401000   17.998000  -18.848900
  H    -121.730000   18.113100  -17.712900
  C    -120.846000   19.989900  -18.162400
  H    -120.167000   20.459600  -18.923400
  H    -121.832000   20.624200  -18.022500
  C    -120.154000   20.053600  -16.809900
  H    -119.305000   19.399700  -16.749100
  H    -119.956000   21.135000  -16.546800
  H    -120.780000   19.644900  -16.007800
  S    -124.003000   20.729700  -23.376700
  C    -124.204000   20.411500  -25.141500
  C    -124.021000   19.094700  -25.445100
  C    -123.665000   18.341400  -24.288900
  C    -123.672000   19.068400  -23.128100
  H    -124.171000   18.764800  -26.476900
  C    -123.488000   16.860600  -24.558900
  H    -123.441000   16.629900  -25.665300
  H    -124.437000   16.385700  -24.297600
  C    -122.400000   16.093100  -23.715500
  H    -122.263000   15.022400  -23.980000
  H    -122.645000   16.131000  -22.638600
  C    -121.042000   16.793100  -23.862100
  H    -120.275000   16.192500  -23.428700
  H    -121.070000   17.757700  -23.411400
  H    -120.813000   16.832600  -24.850600
  H    -123.773000   17.217700  -18.464600
  H    -124.481000   21.210100  -25.752700

 Total Charge           Charge          ....    0
 Multiplicity           Mult            ....    1
 Number of Electrons    NEL             ....  134
 Basis Dimension        Dim             ....  322

ORBITAL ENERGIES
----------------

  NO   OCC          E(Eh)            E(eV)
   0   2.0000     -88.966711     -2420.9073
   1   2.0000     -88.964838     -2420.8563
   2   2.0000     -10.331581      -281.1366
   3   2.0000     -10.323480      -280.9162
   4   2.0000     -10.315727      -280.7052
   5   2.0000     -10.315571      -280.7010
   6   2.0000     -10.301922      -280.3296
   7   2.0000     -10.299992      -280.2770
   8   2.0000     -10.299811      -280.2721
   9   2.0000     -10.294706      -280.1332
  10   2.0000     -10.294476      -280.1269
  11   2.0000     -10.293936      -280.1122
  12   2.0000     -10.291735      -280.0523
  13   2.0000     -10.281935      -279.7857
  14   2.0000     -10.281480      -279.7733
  15   2.0000     -10.251374      -278.9541
  16   2.0000      -8.081016      -219.8956
  17   2.0000      -8.079696      -219.8597
  18   2.0000      -6.039579      -164.3453
  19   2.0000      -6.038148      -164.3064
  20   2.0000      -6.035542      -164.2355
  21   2.0000      -6.034321      -164.2022
  22   2.0000      -6.031768      -164.1328
  23   2.0000      -6.030368      -164.0947
  24   2.0000      -1.008092       -27.4316
  25   2.0000      -0.985566       -26.8186
  26   2.0000      -0.909307       -24.7435
  27   2.0000      -0.899586       -24.4790
  28   2.0000      -0.871875       -23.7249
  29   2.0000      -0.850675       -23.1481
  30   2.0000      -0.843199       -22.9446
  31   2.0000      -0.818637       -22.2763
  32   2.0000      -0.781443       -21.2642
  33   2.0000      -0.770008       -20.9530
  34   2.0000      -0.708993       -19.2927
  35   2.0000      -0.689800       -18.7704
  36   2.0000      -0.683526       -18.5997
  37   2.0000      -0.668577       -18.1929
  38   2.0000      -0.638371       -17.3709
  39   2.0000      -0.620882       -16.8951
  40   2.0000      -0.590041       -16.0558
  41   2.0000      -0.575115       -15.6497
  42   2.0000      -0.559331       -15.2202
  43   2.0000      -0.553750       -15.0683
  44   2.0000      -0.543282       -14.7835
  45   2.0000      -0.527783       -14.3617
  46   2.0000      -0.516016       -14.0415
  47   2.0000      -0.507431       -13.8079
  48   2.0000      -0.500690       -13.6245
  49   2.0000      -0.499054       -13.5799
  50   2.0000      -0.493827       -13.4377
  51   2.0000      -0.473833       -12.8937
  52   2.0000      -0.472918       -12.8688
  53   2.0000      -0.465026       -12.6540
  54   2.0000      -0.461875       -12.5682
  55   2.0000      -0.444634       -12.0991
  56   2.0000      -0.440528       -11.9874
  57   2.0000      -0.428929       -11.6718
  58   2.0000      -0.423331       -11.5194
  59   2.0000      -0.420531       -11.4432
  60   2.0000      -0.418962       -11.4005
  61   2.0000      -0.416206       -11.3255
  62   2.0000      -0.412522       -11.2253
  63   2.0000      -0.341934        -9.3045
  64   2.0000      -0.334185        -9.0936
  65   2.0000      -0.324398        -8.8273
  66   2.0000      -0.302909        -8.2426
  67   0.0000       0.040859         1.1118
  68   0.0000       0.062217         1.6930
  69   0.0000       0.108552         2.9538
  70   0.0000       0.117081         3.1859
  71   0.0000       0.129153         3.5144

MULLIKEN ATOMIC CHARGES
-----------------------
   0 S :    0.110692
   1 C :   -0.124109
   2 C :   -0.106138
   3 C :    0.061564
   4 C :   -0.184791
   5 H :    0.009974
   6 C :    0.084627
   7 H :    0.041460
   8 H :   -0.000316
   9 C :   -0.134020
  10 H :    0.045337
  11 H :    0.048112
  12 C :   -0.050363
  13 H :    0.024326
  14 H :    0.052451
  15 H :    0.023697
  16 S :    0.106622
  17 C :   -0.089646
  18 C :   -0.019796
  19 C :   -0.014043
  20 C :   -0.148702
  21 H :    0.031067
  22 C :    0.039515
  23 H :    0.030345
  24 H :    0.038409
  25 C :   -0.094663
  26 H :    0.031675
  27 H :    0.040219
  28 C :    0.012949
  29 H :    0.014576
  30 H :    0.030043
  31 H :   -0.002077
  32 H :    0.053903
  33 H :    0.037101
Sum of atomic charges:   -0.0000000

LOEWDIN ATOMIC CHARGES
----------------------
   0 S :    0.410870
   1 C :   -0.199275
   2 C :   -0.065196
   3 C :   -0.058364
   4 C :   -0.187469
   5 H :    0.028990
   6 C :   -0.034491
   7 H :    0.031928
   8 H :    0.027607
   9 C :   -0.052391
  10 H :    0.025523
  11 H :    0.037150
  12 C :   -0.072615
  13 H :    0.019686
  14 H :    0.037551
  15 H :    0.023758
  16 S :    0.401243
  17 C :   -0.151222
  18 C :   -0.064518
  19 C :   -0.056700
  20 C :   -0.219967
  21 H :    0.039295
  22 C :   -0.037866
  23 H :    0.035253
  24 H :    0.035458
  25 C :   -0.043520
  26 H :    0.026341
  27 H :    0.019238
  28 C :   -0.053771
  29 H :    0.021419
  30 H :    0.021026
  31 H :    0.008121
  32 H :    0.033296
  33 H :    0.013613

  Mayer bond orders larger than 0.100000
B(  0-S ,  1-C ) :   1.1290 B(  0-S ,  4-C ) :   1.1527 B(  1-C ,  2-C ) :   1.6356
B(  1-C , 32-H ) :   0.9597 B(  2-C ,  3-C ) :   1.2232 B(  2-C ,  6-C ) :   1.0378
B(  3-C ,  4-C ) :   1.5967 B(  3-C ,  5-H ) :   0.9979 B(  4-C , 20-C ) :   0.9916
B(  6-C ,  7-H ) :   0.9353 B(  6-C ,  8-H ) :   0.9367 B(  6-C ,  9-C ) :   1.0507
B(  9-C , 10-H ) :   0.9519 B(  9-C , 11-H ) :   0.9582 B(  9-C , 12-C ) :   1.0886
B( 12-C , 13-H ) :   0.9719 B( 12-C , 14-H ) :   0.9733 B( 12-C , 15-H ) :   0.9716
B( 16-S , 17-C ) :   1.1460 B( 16-S , 20-C ) :   1.1417 B( 17-C , 18-C ) :   1.6196
B( 17-C , 33-H ) :   0.9775 B( 18-C , 19-C ) :   1.2214 B( 18-C , 21-H ) :   0.9904
B( 19-C , 20-C ) :   1.6152 B( 19-C , 22-C ) :   1.0224 B( 22-C , 23-H ) :   0.9449
B( 22-C , 24-H ) :   0.9329 B( 22-C , 25-C ) :   1.0640 B( 25-C , 26-H ) :   0.9571
B( 25-C , 27-H ) :   0.9483 B( 25-C , 28-C ) :   1.0874 B( 28-C , 29-H ) :   0.9718
B( 28-C , 30-H ) :   0.9689 B( 28-C , 31-H ) :   0.9736

Dispersion correction           -0.015472810
FINAL SINGLE POINT ENERGY     -1339.880559133927

DIPOLE MOMENT
-------------
                                X             Y             Z
Electronic contribution:    -18.64478       5.81077      -9.91335
Nuclear contribution   :     18.93453      -5.92201       9.96110
                        -----------------------------------------
Total Dipole Moment    :      0.28975      -0.11125       0.04775
                        -----------------------------------------
Magnitude (a.u.)       :      0.31403
Magnitude (Debye)      :      0.79819

Rotational constants in cm-1:     0.021651     0.008088     0.007271
Rotational constants in MHz :   649.067808   242.468878   217.989258

                             ****ORCA TERMINATED NORMALLY****
TOTAL RUN TIME: 0 days 0 hours 0 minutes 21 seconds 211 msec
