                         Program Version 4.2.1 -  RELEASE  -
|  1> ! wB97X-D3 SP def2-SVP
|  2> %pal
|  3> nprocs 24
|  4> end
|  5>
|  6> * xyz 0 1
|  7> S 	 -80.4276 	 3.48761 	 -113.659
|  8> C 	 -80.6056 	 1.74817 	 -113.421
|  9> C 	 -81.5851 	 1.23588 	 -114.267
| 10> C 	 -82.149 	 2.24423 	 -115.13
| 11> C 	 -81.6247 	 3.49398 	 -114.893
| 12> H 	 -82.9005 	 1.96296 	 -115.862
| 13> C 	 -81.8328 	 -0.240913 	 -114.515
| 14> H 	 -81.4302 	 -0.409521 	 -115.527
| 15> H 	 -82.9371 	 -0.394181 	 -114.457
| 16> C 	 -81.1398 	 -1.26133 	 -113.623
| 17> H 	 -81.2979 	 -2.21622 	 -114.145
| 18> H 	 -80.0475 	 -1.06753 	 -113.697
| 19> C 	 -81.8475 	 -1.28811 	 -112.286
| 20> H 	 -82.9034 	 -1.44994 	 -112.473
| 21> H 	 -81.5152 	 -2.03257 	 -111.556
| 22> H 	 -81.8039 	 -0.345464 	 -111.841
| 23> S 	 -80.6792 	 5.534 	 -116.601
| 24> C 	 -81.6969 	 6.73399 	 -117.237
| 25> C 	 -82.9439 	 6.52444 	 -116.685
| 26> C 	 -83.1122 	 5.39675 	 -115.827
| 27> C 	 -81.9169 	 4.71363 	 -115.611
| 28> H 	 -83.8122 	 7.11314 	 -117.132
| 29> C 	 -84.4884 	 4.99025 	 -115.339
| 30> H 	 -84.7008 	 3.93173 	 -115.646
| 31> H 	 -85.2168 	 5.44583 	 -116.002
| 32> C 	 -84.818 	 5.25397 	 -113.923
| 33> H 	 -84.1245 	 4.77083 	 -113.202
| 34> H 	 -85.7288 	 4.70139 	 -113.642
| 35> C 	 -84.988 	 6.76185 	 -113.585
| 36> H 	 -85.6238 	 7.2285 	 -114.279
| 37> H 	 -84.0416 	 7.27972 	 -113.512
| 38> H 	 -85.4892 	 6.88056 	 -112.549
| 39> H 	 -79.9922 	 1.12062 	 -112.816
| 40> H 	 -81.3458 	 7.5167 	 -117.899
| 41> *
| 42>
| 43>                          ****END OF INPUT****

CARTESIAN COORDINATES (ANGSTROEM)
---------------------------------
  S    -80.427600    3.487610  -113.659000
  C    -80.605600    1.748170  -113.421000
  C    -81.585100    1.235880  -114.267000
  C    -82.149000    2.244230  -115.130000
  C    -81.624700    3.493980  -114.893000
  H    -82.900500    1.962960  -115.862000
  C    -81.832800   -0.240913  -114.515000
  H    -81.430200   -0.409521  -115.527000
  H    -82.937100   -0.394181  -114.457000
  C    -81.139800   -1.261330  -113.623000
  H    -81.297900   -2.216220  -114.145000
  H    -80.047500   -1.067530  -113.697000
  C    -81.847500   -1.288110  -112.286000
  H    -82.903400   -1.449940  -112.473000
  H    -81.515200   -2.032570  -111.556000
  H    -81.803900   -0.345464  -111.841000
  S    -80.679200    5.534000  -116.601000
  C    -81.696900    6.733990  -117.237000
  C    -82.943900    6.524440  -116.685000
  C    -83.112200    5.396750  -115.827000
  C    -81.916900    4.713630  -115.611000
  H    -83.812200    7.113140  -117.132000
  C    -84.488400    4.990250  -115.339000
  H    -84.700800    3.931730  -115.646000
  H    -85.216800    5.445830  -116.002000
  C    -84.818000    5.253970  -113.923000
  H    -84.124500    4.770830  -113.202000
  H    -85.728800    4.701390  -113.642000
  C    -84.988000    6.761850  -113.585000
  H    -85.623800    7.228500  -114.279000
  H    -84.041600    7.279720  -113.512000
  H    -85.489200    6.880560  -112.549000
  H    -79.992200    1.120620  -112.816000
  H    -81.345800    7.516700  -117.899000

 Total Charge           Charge          ....    0
 Multiplicity           Mult            ....    1
 Number of Electrons    NEL             ....  134
 Basis Dimension        Dim             ....  322

ORBITAL ENERGIES
----------------

  NO   OCC          E(Eh)            E(eV)
   0   2.0000     -88.966903     -2420.9125
   1   2.0000     -88.961199     -2420.7573
   2   2.0000     -10.329105      -281.0692
   3   2.0000     -10.327465      -281.0246
   4   2.0000     -10.316829      -280.7352
   5   2.0000     -10.312632      -280.6210
   6   2.0000     -10.303270      -280.3662
   7   2.0000     -10.301337      -280.3136
   8   2.0000     -10.295717      -280.1607
   9   2.0000     -10.295495      -280.1547
  10   2.0000     -10.295364      -280.1511
  11   2.0000     -10.290548      -280.0200
  12   2.0000     -10.289559      -279.9931
  13   2.0000     -10.283184      -279.8197
  14   2.0000     -10.275349      -279.6065
  15   2.0000     -10.273138      -279.5463
  16   2.0000      -8.081823      -219.9176
  17   2.0000      -8.076565      -219.7745
  18   2.0000      -6.040347      -164.3662
  19   2.0000      -6.036228      -164.2541
  20   2.0000      -6.034930      -164.2188
  21   2.0000      -6.032632      -164.1563
  22   2.0000      -6.030742      -164.1048
  23   2.0000      -6.027643      -164.0205
  24   2.0000      -1.008572       -27.4446
  25   2.0000      -0.986826       -26.8529
  26   2.0000      -0.920481       -25.0476
  27   2.0000      -0.911176       -24.7944
  28   2.0000      -0.869417       -23.6580
  29   2.0000      -0.851439       -23.1688
  30   2.0000      -0.841015       -22.8852
  31   2.0000      -0.808996       -22.0139
  32   2.0000      -0.784076       -21.3358
  33   2.0000      -0.776906       -21.1407
  34   2.0000      -0.710989       -19.3470
  35   2.0000      -0.707078       -19.2406
  36   2.0000      -0.690781       -18.7971
  37   2.0000      -0.657151       -17.8820
  38   2.0000      -0.636173       -17.3111
  39   2.0000      -0.612775       -16.6745
  40   2.0000      -0.594690       -16.1823
  41   2.0000      -0.577134       -15.7046
  42   2.0000      -0.562345       -15.3022
  43   2.0000      -0.549286       -14.9468
  44   2.0000      -0.546843       -14.8803
  45   2.0000      -0.539523       -14.6812
  46   2.0000      -0.513731       -13.9793
  47   2.0000      -0.510566       -13.8932
  48   2.0000      -0.504671       -13.7328
  49   2.0000      -0.495304       -13.4779
  50   2.0000      -0.488104       -13.2820
  51   2.0000      -0.479179       -13.0391
  52   2.0000      -0.475585       -12.9413
  53   2.0000      -0.471308       -12.8249
  54   2.0000      -0.460878       -12.5411
  55   2.0000      -0.446577       -12.1520
  56   2.0000      -0.443288       -12.0625
  57   2.0000      -0.439855       -11.9691
  58   2.0000      -0.427716       -11.6388
  59   2.0000      -0.423080       -11.5126
  60   2.0000      -0.416098       -11.3226
  61   2.0000      -0.413230       -11.2446
  62   2.0000      -0.402727       -10.9588
  63   2.0000      -0.340274        -9.2593
  64   2.0000      -0.331221        -9.0130
  65   2.0000      -0.326343        -8.8802
  66   2.0000      -0.300322        -8.1722
  67   0.0000       0.033540         0.9127
  68   0.0000       0.067361         1.8330
  69   0.0000       0.119602         3.2545
  70   0.0000       0.121098         3.2952
  71   0.0000       0.123496         3.3605

MULLIKEN ATOMIC CHARGES
-----------------------
   0 S :    0.124177
   1 C :   -0.118113
   2 C :   -0.103160
   3 C :    0.036523
   4 C :   -0.153566
   5 H :    0.015979
   6 C :   -0.002456
   7 H :    0.048968
   8 H :    0.036699
   9 C :   -0.074023
  10 H :    0.030028
  11 H :    0.037999
  12 C :   -0.010296
  13 H :    0.018763
  14 H :    0.040152
  15 H :    0.016000
  16 S :    0.101755
  17 C :   -0.099572
  18 C :   -0.063752
  19 C :   -0.029102
  20 C :   -0.157481
  21 H :    0.039432
  22 C :    0.078716
  23 H :    0.025313
  24 H :    0.004972
  25 C :   -0.058752
  26 H :    0.035674
  27 H :    0.020317
  28 C :   -0.054172
  29 H :    0.017243
  30 H :    0.046088
  31 H :    0.038180
  32 H :    0.041391
  33 H :    0.070075
Sum of atomic charges:   -0.0000000

LOEWDIN ATOMIC CHARGES
----------------------
   0 S :    0.419274
   1 C :   -0.200313
   2 C :   -0.062965
   3 C :   -0.056782
   4 C :   -0.202553
   5 H :    0.033301
   6 C :   -0.036150
   7 H :    0.039632
   8 H :    0.033363
   9 C :   -0.047692
  10 H :    0.029287
  11 H :    0.026865
  12 C :   -0.061270
  13 H :    0.028323
  14 H :    0.027331
  15 H :    0.016821
  16 S :    0.417217
  17 C :   -0.202021
  18 C :   -0.091610
  19 C :   -0.056367
  20 C :   -0.197680
  21 H :    0.038339
  22 C :   -0.038922
  23 H :    0.036987
  24 H :    0.028352
  25 C :   -0.047447
  26 H :    0.029889
  27 H :    0.026222
  28 C :   -0.063552
  29 H :    0.013625
  30 H :    0.026487
  31 H :    0.036149
  32 H :    0.021311
  33 H :    0.036548

  Mayer bond orders larger than 0.100000
B(  0-S ,  1-C ) :   1.1261 B(  0-S ,  4-C ) :   1.1618 B(  1-C ,  2-C ) :   1.6200
B(  1-C , 32-H ) :   0.9618 B(  2-C ,  3-C ) :   1.2504 B(  2-C ,  6-C ) :   1.0054
B(  3-C ,  4-C ) :   1.5673 B(  3-C ,  5-H ) :   0.9989 B(  4-C , 20-C ) :   1.0329
B(  6-C ,  7-H ) :   0.9408 B(  6-C ,  8-H ) :   0.9370 B(  6-C ,  9-C ) :   1.0967
B(  9-C , 10-H ) :   0.9510 B(  9-C , 11-H ) :   0.9470 B(  9-C , 12-C ) :   1.0652
B( 12-C , 13-H ) :   0.9672 B( 12-C , 14-H ) :   0.9745 B( 12-C , 15-H ) :   0.9783
B( 16-S , 17-C ) :   1.1850 B( 16-S , 20-C ) :   1.1507 B( 17-C , 18-C ) :   1.5606
B( 17-C , 20-C ) :   0.1081 B( 17-C , 33-H ) :   0.9717 B( 18-C , 19-C ) :   1.2841
B( 18-C , 21-H ) :   0.9743 B( 19-C , 20-C ) :   1.5643 B( 19-C , 22-C ) :   1.0328
B( 22-C , 23-H ) :   0.9290 B( 22-C , 24-H ) :   0.9293 B( 22-C , 25-C ) :   1.0861
B( 25-C , 26-H ) :   0.9547 B( 25-C , 27-H ) :   0.9496 B( 25-C , 28-C ) :   1.0673
B( 28-C , 29-H ) :   0.9765 B( 28-C , 30-H ) :   0.9774 B( 28-C , 31-H ) :   0.9746

Dispersion correction           -0.014465255
FINAL SINGLE POINT ENERGY     -1339.884904901511

DIPOLE MOMENT
-------------
                                X             Y             Z
Electronic contribution:     16.85747      13.09593      -9.79057
Nuclear contribution   :    -17.33092     -13.52413       9.59478
                        -----------------------------------------
Total Dipole Moment    :     -0.47345      -0.42819      -0.19579
                        -----------------------------------------
Magnitude (a.u.)       :      0.66771
Magnitude (Debye)      :      1.69719

Rotational constants in cm-1:     0.022704     0.007699     0.006610
Rotational constants in MHz :   680.651546   230.807431   198.162235

                             ****ORCA TERMINATED NORMALLY****
TOTAL RUN TIME: 0 days 0 hours 0 minutes 21 seconds 411 msec
