                         Program Version 4.2.1 -  RELEASE  -
|  1> ! wB97X-D3 SP def2-SVP
|  2> %pal
|  3> nprocs 24
|  4> end
|  5>
|  6> * xyz 0 1
|  7> S 	 -62.2357 	 -3.54459 	 -21.8278
|  8> C 	 -63.2985 	 -3.08529 	 -20.5362
|  9> C 	 -63.757 	 -1.781 	 -20.7234
| 10> C 	 -63.2562 	 -1.22573 	 -21.9526
| 11> C 	 -62.3186 	 -1.98706 	 -22.6435
| 12> H 	 -63.3809 	 -0.242172 	 -22.2798
| 13> C 	 -64.6167 	 -1.05146 	 -19.759
| 14> H 	 -63.8673 	 -0.422858 	 -19.1728
| 15> H 	 -65.0635 	 -1.69682 	 -19.0431
| 16> C 	 -65.7376 	 -0.183793 	 -20.4069
| 17> H 	 -65.2609 	 0.465106 	 -21.1255
| 18> H 	 -66.4615 	 -0.766731 	 -20.9667
| 19> C 	 -66.3199 	 0.76452 	 -19.3512
| 20> H 	 -66.7232 	 0.41299 	 -18.4179
| 21> H 	 -65.4341 	 1.2432 	 -18.8528
| 22> H 	 -66.891 	 1.54218 	 -19.7953
| 23> S 	 -59.8442 	 -1.72608 	 -23.8842
| 24> C 	 -59.783 	 -1.18272 	 -25.4917
| 25> C 	 -61.0218 	 -0.674326 	 -25.8737
| 26> C 	 -62.0588 	 -0.878545 	 -24.9187
| 27> C 	 -61.6252 	 -1.55846 	 -23.8273
| 28> H 	 -61.1682 	 -0.229899 	 -26.8812
| 29> C 	 -63.5541 	 -0.470872 	 -25.1914
| 30> H 	 -63.5037 	 0.170648 	 -26.0752
| 31> H 	 -63.9258 	 0.245077 	 -24.4399
| 32> C 	 -64.6316 	 -1.60879 	 -25.296
| 33> H 	 -65.4214 	 -1.14141 	 -25.8348
| 34> H 	 -64.8601 	 -1.98616 	 -24.3026
| 35> C 	 -64.1427 	 -2.88739 	 -26.0756
| 36> H 	 -63.3393 	 -3.3907 	 -25.4549
| 37> H 	 -63.7644 	 -2.62733 	 -27.0829
| 38> H 	 -64.8534 	 -3.64381 	 -26.3811
| 39> H 	 -63.4871 	 -3.7358 	 -19.6997
| 40> H 	 -58.9068 	 -1.17522 	 -26.1642
| 41> *
| 42>
| 43>                          ****END OF INPUT****

CARTESIAN COORDINATES (ANGSTROEM)
---------------------------------
  S    -62.235700   -3.544590  -21.827800
  C    -63.298500   -3.085290  -20.536200
  C    -63.757000   -1.781000  -20.723400
  C    -63.256200   -1.225730  -21.952600
  C    -62.318600   -1.987060  -22.643500
  H    -63.380900   -0.242172  -22.279800
  C    -64.616700   -1.051460  -19.759000
  H    -63.867300   -0.422858  -19.172800
  H    -65.063500   -1.696820  -19.043100
  C    -65.737600   -0.183793  -20.406900
  H    -65.260900    0.465106  -21.125500
  H    -66.461500   -0.766731  -20.966700
  C    -66.319900    0.764520  -19.351200
  H    -66.723200    0.412990  -18.417900
  H    -65.434100    1.243200  -18.852800
  H    -66.891000    1.542180  -19.795300
  S    -59.844200   -1.726080  -23.884200
  C    -59.783000   -1.182720  -25.491700
  C    -61.021800   -0.674326  -25.873700
  C    -62.058800   -0.878545  -24.918700
  C    -61.625200   -1.558460  -23.827300
  H    -61.168200   -0.229899  -26.881200
  C    -63.554100   -0.470872  -25.191400
  H    -63.503700    0.170648  -26.075200
  H    -63.925800    0.245077  -24.439900
  C    -64.631600   -1.608790  -25.296000
  H    -65.421400   -1.141410  -25.834800
  H    -64.860100   -1.986160  -24.302600
  C    -64.142700   -2.887390  -26.075600
  H    -63.339300   -3.390700  -25.454900
  H    -63.764400   -2.627330  -27.082900
  H    -64.853400   -3.643810  -26.381100
  H    -63.487100   -3.735800  -19.699700
  H    -58.906800   -1.175220  -26.164200

 Total Charge           Charge          ....    0
 Multiplicity           Mult            ....    1
 Number of Electrons    NEL             ....  134
 Basis Dimension        Dim             ....  322

ORBITAL ENERGIES
----------------

  NO   OCC          E(Eh)            E(eV)
   0   2.0000     -88.965306     -2420.8690
   1   2.0000     -88.964584     -2420.8494
   2   2.0000     -10.329766      -281.0872
   3   2.0000     -10.324909      -280.9551
   4   2.0000     -10.317991      -280.7668
   5   2.0000     -10.314794      -280.6798
   6   2.0000     -10.304132      -280.3897
   7   2.0000     -10.303513      -280.3729
   8   2.0000     -10.300109      -280.2802
   9   2.0000     -10.295685      -280.1598
  10   2.0000     -10.295372      -280.1513
  11   2.0000     -10.291498      -280.0459
  12   2.0000     -10.290727      -280.0249
  13   2.0000     -10.288350      -279.9602
  14   2.0000     -10.278153      -279.6828
  15   2.0000     -10.276389      -279.6348
  16   2.0000      -8.079961      -219.8669
  17   2.0000      -8.079793      -219.8624
  18   2.0000      -6.038427      -164.3140
  19   2.0000      -6.038234      -164.3087
  20   2.0000      -6.034328      -164.2024
  21   2.0000      -6.034280      -164.2011
  22   2.0000      -6.030895      -164.1090
  23   2.0000      -6.030538      -164.0993
  24   2.0000      -1.008267       -27.4363
  25   2.0000      -0.986435       -26.8423
  26   2.0000      -0.914319       -24.8799
  27   2.0000      -0.898878       -24.4597
  28   2.0000      -0.872288       -23.7362
  29   2.0000      -0.849605       -23.1189
  30   2.0000      -0.841963       -22.9110
  31   2.0000      -0.812163       -22.1001
  32   2.0000      -0.782051       -21.2807
  33   2.0000      -0.771486       -20.9932
  34   2.0000      -0.716522       -19.4976
  35   2.0000      -0.701874       -19.0990
  36   2.0000      -0.688404       -18.7324
  37   2.0000      -0.661596       -18.0029
  38   2.0000      -0.645781       -17.5726
  39   2.0000      -0.621803       -16.9201
  40   2.0000      -0.589483       -16.0406
  41   2.0000      -0.567416       -15.4402
  42   2.0000      -0.564002       -15.3473
  43   2.0000      -0.556845       -15.1525
  44   2.0000      -0.537890       -14.6367
  45   2.0000      -0.527447       -14.3526
  46   2.0000      -0.512209       -13.9379
  47   2.0000      -0.510207       -13.8835
  48   2.0000      -0.506922       -13.7940
  49   2.0000      -0.496262       -13.5040
  50   2.0000      -0.490387       -13.3441
  51   2.0000      -0.481335       -13.0978
  52   2.0000      -0.472627       -12.8608
  53   2.0000      -0.467456       -12.7201
  54   2.0000      -0.453542       -12.3415
  55   2.0000      -0.452095       -12.3021
  56   2.0000      -0.441817       -12.0224
  57   2.0000      -0.439357       -11.9555
  58   2.0000      -0.432928       -11.7806
  59   2.0000      -0.419362       -11.4114
  60   2.0000      -0.417517       -11.3612
  61   2.0000      -0.412658       -11.2290
  62   2.0000      -0.409216       -11.1353
  63   2.0000      -0.349322        -9.5055
  64   2.0000      -0.333142        -9.0652
  65   2.0000      -0.325663        -8.8617
  66   2.0000      -0.291731        -7.9384
  67   0.0000       0.023851         0.6490
  68   0.0000       0.075968         2.0672
  69   0.0000       0.113127         3.0783
  70   0.0000       0.120270         3.2727
  71   0.0000       0.130711         3.5568

MULLIKEN ATOMIC CHARGES
-----------------------
   0 S :    0.112377
   1 C :   -0.130638
   2 C :   -0.062770
   3 C :    0.026881
   4 C :   -0.149548
   5 H :   -0.013501
   6 C :    0.049307
   7 H :    0.051734
   8 H :    0.013690
   9 C :   -0.061981
  10 H :    0.024886
  11 H :    0.041024
  12 C :   -0.033173
  13 H :    0.023867
  14 H :    0.010174
  15 H :    0.034501
  16 S :    0.113925
  17 C :   -0.093119
  18 C :   -0.065706
  19 C :   -0.024618
  20 C :   -0.177318
  21 H :    0.028121
  22 C :    0.058583
  23 H :    0.010341
  24 H :    0.031395
  25 C :   -0.035339
  26 H :    0.030785
  27 H :    0.048881
  28 C :   -0.083591
  29 H :    0.051582
  30 H :    0.018242
  31 H :    0.032075
  32 H :    0.049560
  33 H :    0.069372
Sum of atomic charges:   -0.0000000

LOEWDIN ATOMIC CHARGES
----------------------
   0 S :    0.409415
   1 C :   -0.201014
   2 C :   -0.064284
   3 C :   -0.056886
   4 C :   -0.196186
   5 H :    0.017180
   6 C :   -0.032390
   7 H :    0.044698
   8 H :    0.023797
   9 C :   -0.032263
  10 H :    0.022990
  11 H :    0.025551
  12 C :   -0.071358
  13 H :    0.022546
  14 H :    0.031835
  15 H :    0.022074
  16 S :    0.412264
  17 C :   -0.203658
  18 C :   -0.081480
  19 C :   -0.055947
  20 C :   -0.190035
  21 H :    0.034987
  22 C :   -0.028752
  23 H :    0.026923
  24 H :    0.031100
  25 C :   -0.030097
  26 H :    0.022935
  27 H :    0.027419
  28 C :   -0.078198
  29 H :    0.034316
  30 H :    0.021817
  31 H :    0.023364
  32 H :    0.027922
  33 H :    0.039416

  Mayer bond orders larger than 0.100000
B(  0-S ,  1-C ) :   1.1499 B(  0-S ,  4-C ) :   1.1491 B(  1-C ,  2-C ) :   1.5724
B(  1-C , 32-H ) :   0.9746 B(  2-C ,  3-C ) :   1.2483 B(  2-C ,  6-C ) :   1.0322
B(  3-C ,  4-C ) :   1.5515 B(  3-C ,  5-H ) :   1.0000 B(  4-C , 20-C ) :   1.0764
B(  6-C ,  7-H ) :   0.9319 B(  6-C ,  8-H ) :   0.9432 B(  6-C ,  9-C ) :   1.0599
B(  9-C , 10-H ) :   0.9506 B(  9-C , 11-H ) :   0.9606 B(  9-C , 12-C ) :   1.0769
B( 12-C , 13-H ) :   0.9752 B( 12-C , 14-H ) :   0.9672 B( 12-C , 15-H ) :   0.9750
B( 16-S , 17-C ) :   1.1675 B( 16-S , 20-C ) :   1.1302 B( 17-C , 18-C ) :   1.5929
B( 17-C , 20-C ) :   0.1002 B( 17-C , 33-H ) :   0.9642 B( 18-C , 19-C ) :   1.2555
B( 18-C , 21-H ) :   0.9813 B( 19-C , 20-C ) :   1.6024 B( 19-C , 22-C ) :   1.0239
B( 22-C , 23-H ) :   0.9342 B( 22-C , 24-H ) :   0.9392 B( 22-C , 25-C ) :   1.0627
B( 25-C , 26-H ) :   0.9566 B( 25-C , 27-H ) :   0.9543 B( 25-C , 28-C ) :   1.0791
B( 28-C , 29-H ) :   0.9699 B( 28-C , 30-H ) :   0.9770 B( 28-C , 31-H ) :   0.9773

Dispersion correction           -0.015383243
FINAL SINGLE POINT ENERGY     -1339.875089197203

DIPOLE MOMENT
-------------
                                X             Y             Z
Electronic contribution:     24.18322     -10.64782      -1.17080
Nuclear contribution   :    -24.65429      11.10587       1.17587
                        -----------------------------------------
Total Dipole Moment    :     -0.47108       0.45805       0.00507
                        -----------------------------------------
Magnitude (a.u.)       :      0.65708
Magnitude (Debye)      :      1.67016

Rotational constants in cm-1:     0.019679     0.008652     0.007524
Rotational constants in MHz :   589.974289   259.391074   225.556941

                             ****ORCA TERMINATED NORMALLY****
TOTAL RUN TIME: 0 days 0 hours 0 minutes 22 seconds 321 msec
