                         Program Version 4.2.1 -  RELEASE  -
|  1> ! wB97X-D3 SP def2-SVP
|  2> %pal
|  3> nprocs 24
|  4> end
|  5>
|  6> * xyz 0 1
|  7> S 	 -86.981 	 -32.7737 	 -56.7729
|  8> C 	 -86.0824 	 -34.0587 	 -57.5341
|  9> C 	 -85.0072 	 -33.5881 	 -58.239
| 10> C 	 -84.9316 	 -32.1462 	 -58.1405
| 11> C 	 -86.0116 	 -31.4654 	 -57.6015
| 12> H 	 -84.1428 	 -31.5761 	 -58.5489
| 13> C 	 -83.7759 	 -34.4407 	 -58.5779
| 14> H 	 -83.9688 	 -35.4271 	 -58.2026
| 15> H 	 -82.9743 	 -34.0006 	 -57.963
| 16> C 	 -83.3687 	 -34.5068 	 -60.0113
| 17> H 	 -82.7038 	 -35.251 	 -60.2267
| 18> H 	 -84.2748 	 -34.6443 	 -60.5941
| 19> C 	 -82.702 	 -33.2577 	 -60.6808
| 20> H 	 -82.3906 	 -33.3664 	 -61.6817
| 21> H 	 -83.3746 	 -32.3959 	 -60.5984
| 22> H 	 -81.7796 	 -33.0146 	 -60.1127
| 23> S 	 -85.53 	 -28.9973 	 -58.5983
| 24> C 	 -85.2865 	 -27.6084 	 -57.5722
| 25> C 	 -85.6277 	 -27.9492 	 -56.2647
| 26> C 	 -85.94 	 -29.3236 	 -56.0397
| 27> C 	 -85.9887 	 -30.0293 	 -57.2278
| 28> H 	 -85.5073 	 -27.1215 	 -55.4908
| 29> C 	 -86.0206 	 -29.9897 	 -54.6354
| 30> H 	 -84.981 	 -30.2152 	 -54.3801
| 31> H 	 -86.3639 	 -31.0561 	 -54.6332
| 32> C 	 -86.7043 	 -29.2602 	 -53.5042
| 33> H 	 -87.7559 	 -29.0024 	 -53.7043
| 34> H 	 -86.2078 	 -28.3427 	 -53.285
| 35> C 	 -86.5736 	 -30.1158 	 -52.1838
| 36> H 	 -86.8295 	 -31.1839 	 -52.2349
| 37> H 	 -87.2469 	 -29.6693 	 -51.4279
| 38> H 	 -85.5998 	 -30.0696 	 -51.6478
| 39> H 	 -86.3343 	 -35.092 	 -57.258
| 40> H 	 -84.9471 	 -26.6277 	 -57.7545
| 41> *
| 42>
| 43>                          ****END OF INPUT****

CARTESIAN COORDINATES (ANGSTROEM)
---------------------------------
  S    -86.981000  -32.773700  -56.772900
  C    -86.082400  -34.058700  -57.534100
  C    -85.007200  -33.588100  -58.239000
  C    -84.931600  -32.146200  -58.140500
  C    -86.011600  -31.465400  -57.601500
  H    -84.142800  -31.576100  -58.548900
  C    -83.775900  -34.440700  -58.577900
  H    -83.968800  -35.427100  -58.202600
  H    -82.974300  -34.000600  -57.963000
  C    -83.368700  -34.506800  -60.011300
  H    -82.703800  -35.251000  -60.226700
  H    -84.274800  -34.644300  -60.594100
  C    -82.702000  -33.257700  -60.680800
  H    -82.390600  -33.366400  -61.681700
  H    -83.374600  -32.395900  -60.598400
  H    -81.779600  -33.014600  -60.112700
  S    -85.530000  -28.997300  -58.598300
  C    -85.286500  -27.608400  -57.572200
  C    -85.627700  -27.949200  -56.264700
  C    -85.940000  -29.323600  -56.039700
  C    -85.988700  -30.029300  -57.227800
  H    -85.507300  -27.121500  -55.490800
  C    -86.020600  -29.989700  -54.635400
  H    -84.981000  -30.215200  -54.380100
  H    -86.363900  -31.056100  -54.633200
  C    -86.704300  -29.260200  -53.504200
  H    -87.755900  -29.002400  -53.704300
  H    -86.207800  -28.342700  -53.285000
  C    -86.573600  -30.115800  -52.183800
  H    -86.829500  -31.183900  -52.234900
  H    -87.246900  -29.669300  -51.427900
  H    -85.599800  -30.069600  -51.647800
  H    -86.334300  -35.092000  -57.258000
  H    -84.947100  -26.627700  -57.754500

 Total Charge           Charge          ....    0
 Multiplicity           Mult            ....    1
 Number of Electrons    NEL             ....  134
 Basis Dimension        Dim             ....  322

ORBITAL ENERGIES
----------------

  NO   OCC          E(Eh)            E(eV)
   0   2.0000     -88.967582     -2420.9310
   1   2.0000     -88.964107     -2420.8364
   2   2.0000     -10.338548      -281.3262
   3   2.0000     -10.332913      -281.1728
   4   2.0000     -10.321236      -280.8551
   5   2.0000     -10.316624      -280.7296
   6   2.0000     -10.309787      -280.5436
   7   2.0000     -10.303704      -280.3780
   8   2.0000     -10.300575      -280.2929
   9   2.0000     -10.296869      -280.1920
  10   2.0000     -10.294753      -280.1345
  11   2.0000     -10.294582      -280.1298
  12   2.0000     -10.289756      -279.9985
  13   2.0000     -10.284160      -279.8462
  14   2.0000     -10.276578      -279.6399
  15   2.0000     -10.275700      -279.6160
  16   2.0000      -8.081614      -219.9119
  17   2.0000      -8.077777      -219.8075
  18   2.0000      -6.040257      -164.3637
  19   2.0000      -6.036523      -164.2621
  20   2.0000      -6.036111      -164.2509
  21   2.0000      -6.032433      -164.1508
  22   2.0000      -6.032363      -164.1489
  23   2.0000      -6.028336      -164.0394
  24   2.0000      -1.002622       -27.2827
  25   2.0000      -0.982530       -26.7360
  26   2.0000      -0.912373       -24.8269
  27   2.0000      -0.904864       -24.6226
  28   2.0000      -0.871767       -23.7220
  29   2.0000      -0.847405       -23.0591
  30   2.0000      -0.841044       -22.8860
  31   2.0000      -0.814905       -22.1747
  32   2.0000      -0.782514       -21.2933
  33   2.0000      -0.773238       -21.0409
  34   2.0000      -0.706965       -19.2375
  35   2.0000      -0.703720       -19.1492
  36   2.0000      -0.697395       -18.9771
  37   2.0000      -0.659793       -17.9539
  38   2.0000      -0.641388       -17.4530
  39   2.0000      -0.616896       -16.7866
  40   2.0000      -0.596262       -16.2251
  41   2.0000      -0.575890       -15.6708
  42   2.0000      -0.559066       -15.2130
  43   2.0000      -0.550511       -14.9802
  44   2.0000      -0.545382       -14.8406
  45   2.0000      -0.524459       -14.2712
  46   2.0000      -0.513025       -13.9601
  47   2.0000      -0.509544       -13.8654
  48   2.0000      -0.503549       -13.7023
  49   2.0000      -0.498598       -13.5676
  50   2.0000      -0.487968       -13.2783
  51   2.0000      -0.483099       -13.1458
  52   2.0000      -0.470850       -12.8125
  53   2.0000      -0.465955       -12.6793
  54   2.0000      -0.457995       -12.4627
  55   2.0000      -0.448445       -12.2028
  56   2.0000      -0.443579       -12.0704
  57   2.0000      -0.439672       -11.9641
  58   2.0000      -0.431384       -11.7386
  59   2.0000      -0.421028       -11.4568
  60   2.0000      -0.416540       -11.3346
  61   2.0000      -0.413506       -11.2521
  62   2.0000      -0.408010       -11.1025
  63   2.0000      -0.353280        -9.6132
  64   2.0000      -0.331608        -9.0235
  65   2.0000      -0.325906        -8.8684
  66   2.0000      -0.294629        -8.0173
  67   0.0000       0.024453         0.6654
  68   0.0000       0.070650         1.9225
  69   0.0000       0.099352         2.7035
  70   0.0000       0.118164         3.2154
  71   0.0000       0.131581         3.5805

MULLIKEN ATOMIC CHARGES
-----------------------
   0 S :    0.074025
   1 C :   -0.139455
   2 C :   -0.056823
   3 C :    0.011360
   4 C :   -0.106758
   5 H :    0.012076
   6 C :    0.067504
   7 H :    0.015631
   8 H :    0.038283
   9 C :   -0.029517
  10 H :    0.012206
  11 H :    0.026938
  12 C :   -0.071403
  13 H :    0.030572
  14 H :    0.035513
  15 H :    0.021814
  16 S :    0.097005
  17 C :   -0.069887
  18 C :   -0.087226
  19 C :    0.013081
  20 C :   -0.169344
  21 H :    0.042714
  22 C :    0.037186
  23 H :    0.032685
  24 H :    0.020362
  25 C :   -0.044587
  26 H :    0.044176
  27 H :    0.023718
  28 C :   -0.096868
  29 H :    0.040381
  30 H :    0.030473
  31 H :    0.037801
  32 H :    0.067454
  33 H :    0.038910
Sum of atomic charges:   -0.0000000

LOEWDIN ATOMIC CHARGES
----------------------
   0 S :    0.376613
   1 C :   -0.182958
   2 C :   -0.073085
   3 C :   -0.048061
   4 C :   -0.180684
   5 H :    0.017431
   6 C :   -0.022212
   7 H :    0.029616
   8 H :    0.036537
   9 C :   -0.037612
  10 H :    0.012646
  11 H :    0.027763
  12 C :   -0.063063
  13 H :    0.020708
  14 H :    0.022814
  15 H :    0.023298
  16 S :    0.408578
  17 C :   -0.188769
  18 C :   -0.080488
  19 C :   -0.057948
  20 C :   -0.183509
  21 H :    0.040481
  22 C :   -0.042427
  23 H :    0.038055
  24 H :    0.026085
  25 C :   -0.036185
  26 H :    0.029979
  27 H :    0.020406
  28 C :   -0.075245
  29 H :    0.025096
  30 H :    0.028382
  31 H :    0.028705
  32 H :    0.033037
  33 H :    0.026018

  Mayer bond orders larger than 0.100000
B(  0-S ,  1-C ) :   1.1612 B(  0-S ,  4-C ) :   1.1086 B(  1-C ,  2-C ) :   1.6032
B(  1-C , 32-H ) :   0.9624 B(  2-C ,  3-C ) :   1.2340 B(  2-C ,  6-C ) :   1.0223
B(  3-C ,  4-C ) :   1.5932 B(  3-C ,  5-H ) :   0.9816 B(  4-C , 20-C ) :   1.0210
B(  6-C ,  7-H ) :   0.9400 B(  6-C ,  8-H ) :   0.9454 B(  6-C ,  9-C ) :   1.0699
B(  9-C , 10-H ) :   0.9561 B(  9-C , 11-H ) :   0.9527 B(  9-C , 12-C ) :   1.0794
B( 12-C , 13-H ) :   0.9740 B( 12-C , 14-H ) :   0.9753 B( 12-C , 15-H ) :   0.9750
B( 16-S , 17-C ) :   1.1497 B( 16-S , 20-C ) :   1.1367 B( 17-C , 18-C ) :   1.6250
B( 17-C , 33-H ) :   0.9703 B( 18-C , 19-C ) :   1.2401 B( 18-C , 21-H ) :   0.9754
B( 19-C , 20-C ) :   1.5990 B( 19-C , 22-C ) :   1.0156 B( 22-C , 23-H ) :   0.9292
B( 22-C , 24-H ) :   0.9390 B( 22-C , 25-C ) :   1.0649 B( 25-C , 26-H ) :   0.9624
B( 25-C , 27-H ) :   0.9471 B( 25-C , 28-C ) :   1.0740 B( 28-C , 29-H ) :   0.9780
B( 28-C , 30-H ) :   0.9746 B( 28-C , 31-H ) :   0.9764

Dispersion correction           -0.013885300
FINAL SINGLE POINT ENERGY     -1339.858903033981

DIPOLE MOMENT
-------------
                                X             Y             Z
Electronic contribution:    -10.36725       6.07411      -8.18365
Nuclear contribution   :     11.00653      -6.23471       8.61083
                        -----------------------------------------
Total Dipole Moment    :      0.63928      -0.16060       0.42718
                        -----------------------------------------
Magnitude (a.u.)       :      0.78547
Magnitude (Debye)      :      1.99649

Rotational constants in cm-1:     0.018993     0.008277     0.006417
Rotational constants in MHz :   569.387223   248.132157   192.373228

                             ****ORCA TERMINATED NORMALLY****
TOTAL RUN TIME: 0 days 0 hours 0 minutes 21 seconds 148 msec
