                         Program Version 4.2.1 -  RELEASE  -
|  1> ! wB97X-D3 SP def2-SVP
|  2> %pal
|  3> nprocs 24
|  4> end
|  5>
|  6> * xyz 0 1
|  7> S 	 -37.2663 	 -9.55102 	 19.752
|  8> C 	 -36.2334 	 -10.997 	 19.8186
|  9> C 	 -36.9745 	 -12.1638 	 19.7388
| 10> C 	 -38.3729 	 -11.8087 	 19.7356
| 11> C 	 -38.7113 	 -10.4753 	 19.676
| 12> H 	 -39.2308 	 -12.4284 	 19.7952
| 13> C 	 -36.5223 	 -13.5998 	 19.8412
| 14> H 	 -36.8571 	 -13.9114 	 20.8105
| 15> H 	 -35.4248 	 -13.7326 	 19.8738
| 16> C 	 -37.1303 	 -14.5065 	 18.8008
| 17> H 	 -36.772 	 -15.5372 	 18.9408
| 18> H 	 -38.1881 	 -14.7592 	 18.9374
| 19> C 	 -36.7568 	 -14.2406 	 17.2922
| 20> H 	 -35.636 	 -14.3434 	 17.1245
| 21> H 	 -37.2559 	 -14.952 	 16.7166
| 22> H 	 -36.9797 	 -13.2475 	 16.848
| 23> S 	 -40.6659 	 -9.01193 	 21.1207
| 24> C 	 -42.2572 	 -9.05087 	 20.487
| 25> C 	 -42.4364 	 -9.70017 	 19.2736
| 26> C 	 -41.1247 	 -10.0637 	 18.7589
| 27> C 	 -40.0684 	 -9.89379 	 19.6462
| 28> H 	 -43.3028 	 -9.73524 	 18.6442
| 29> C 	 -40.9325 	 -10.7727 	 17.4517
| 30> H 	 -41.463 	 -11.7831 	 17.6099
| 31> H 	 -39.8527 	 -11.0517 	 17.343
| 32> C 	 -41.2239 	 -10.0161 	 16.1645
| 33> H 	 -42.3026 	 -9.79578 	 15.939
| 34> H 	 -40.9236 	 -10.6185 	 15.3379
| 35> C 	 -40.6118 	 -8.62154 	 16.1032
| 36> H 	 -39.7321 	 -8.43363 	 16.8123
| 37> H 	 -41.231 	 -7.73971 	 16.2493
| 38> H 	 -40.3243 	 -8.5197 	 15.0074
| 39> H 	 -35.1405 	 -11.0809 	 19.933
| 40> H 	 -43.1182 	 -8.39668 	 20.8907
| 41> *
| 42>
| 43>                          ****END OF INPUT****

CARTESIAN COORDINATES (ANGSTROEM)
---------------------------------
  S    -37.266300   -9.551020   19.752000
  C    -36.233400  -10.997000   19.818600
  C    -36.974500  -12.163800   19.738800
  C    -38.372900  -11.808700   19.735600
  C    -38.711300  -10.475300   19.676000
  H    -39.230800  -12.428400   19.795200
  C    -36.522300  -13.599800   19.841200
  H    -36.857100  -13.911400   20.810500
  H    -35.424800  -13.732600   19.873800
  C    -37.130300  -14.506500   18.800800
  H    -36.772000  -15.537200   18.940800
  H    -38.188100  -14.759200   18.937400
  C    -36.756800  -14.240600   17.292200
  H    -35.636000  -14.343400   17.124500
  H    -37.255900  -14.952000   16.716600
  H    -36.979700  -13.247500   16.848000
  S    -40.665900   -9.011930   21.120700
  C    -42.257200   -9.050870   20.487000
  C    -42.436400   -9.700170   19.273600
  C    -41.124700  -10.063700   18.758900
  C    -40.068400   -9.893790   19.646200
  H    -43.302800   -9.735240   18.644200
  C    -40.932500  -10.772700   17.451700
  H    -41.463000  -11.783100   17.609900
  H    -39.852700  -11.051700   17.343000
  C    -41.223900  -10.016100   16.164500
  H    -42.302600   -9.795780   15.939000
  H    -40.923600  -10.618500   15.337900
  C    -40.611800   -8.621540   16.103200
  H    -39.732100   -8.433630   16.812300
  H    -41.231000   -7.739710   16.249300
  H    -40.324300   -8.519700   15.007400
  H    -35.140500  -11.080900   19.933000
  H    -43.118200   -8.396680   20.890700

 Total Charge           Charge          ....    0
 Multiplicity           Mult            ....    1
 Number of Electrons    NEL             ....  134
 Basis Dimension        Dim             ....  322

ORBITAL ENERGIES
----------------

  NO   OCC          E(Eh)            E(eV)
   0   2.0000     -88.966513     -2420.9019
   1   2.0000     -88.964664     -2420.8516
   2   2.0000     -10.330204      -281.0991
   3   2.0000     -10.326799      -281.0065
   4   2.0000     -10.326175      -280.9895
   5   2.0000     -10.318164      -280.7715
   6   2.0000     -10.306578      -280.4562
   7   2.0000     -10.304348      -280.3956
   8   2.0000     -10.297117      -280.1988
   9   2.0000     -10.296892      -280.1927
  10   2.0000     -10.294806      -280.1359
  11   2.0000     -10.292472      -280.0724
  12   2.0000     -10.288910      -279.9755
  13   2.0000     -10.286858      -279.9196
  14   2.0000     -10.281586      -279.7762
  15   2.0000     -10.280413      -279.7443
  16   2.0000      -8.081033      -219.8961
  17   2.0000      -8.079364      -219.8507
  18   2.0000      -6.039568      -164.3450
  19   2.0000      -6.037980      -164.3018
  20   2.0000      -6.035633      -164.2379
  21   2.0000      -6.033809      -164.1883
  22   2.0000      -6.031704      -164.1310
  23   2.0000      -6.030066      -164.0864
  24   2.0000      -1.003223       -27.2991
  25   2.0000      -0.982237       -26.7280
  26   2.0000      -0.913850       -24.8671
  27   2.0000      -0.908255       -24.7149
  28   2.0000      -0.865392       -23.5485
  29   2.0000      -0.848737       -23.0953
  30   2.0000      -0.840199       -22.8630
  31   2.0000      -0.811120       -22.0717
  32   2.0000      -0.787838       -21.4382
  33   2.0000      -0.771189       -20.9851
  34   2.0000      -0.708288       -19.2735
  35   2.0000      -0.697561       -18.9816
  36   2.0000      -0.685474       -18.6527
  37   2.0000      -0.656660       -17.8686
  38   2.0000      -0.641732       -17.4624
  39   2.0000      -0.615394       -16.7457
  40   2.0000      -0.589243       -16.0341
  41   2.0000      -0.565430       -15.3861
  42   2.0000      -0.560668       -15.2566
  43   2.0000      -0.553444       -15.0600
  44   2.0000      -0.542163       -14.7530
  45   2.0000      -0.533336       -14.5128
  46   2.0000      -0.510801       -13.8996
  47   2.0000      -0.504182       -13.7195
  48   2.0000      -0.498480       -13.5643
  49   2.0000      -0.495236       -13.4761
  50   2.0000      -0.486920       -13.2498
  51   2.0000      -0.480169       -13.0661
  52   2.0000      -0.465057       -12.6548
  53   2.0000      -0.462736       -12.5917
  54   2.0000      -0.456788       -12.4298
  55   2.0000      -0.449090       -12.2204
  56   2.0000      -0.446101       -12.1390
  57   2.0000      -0.437668       -11.9096
  58   2.0000      -0.433311       -11.7910
  59   2.0000      -0.426158       -11.5964
  60   2.0000      -0.417322       -11.3559
  61   2.0000      -0.408831       -11.1249
  62   2.0000      -0.394465       -10.7339
  63   2.0000      -0.334816        -9.1108
  64   2.0000      -0.331250        -9.0138
  65   2.0000      -0.326976        -8.8975
  66   2.0000      -0.303128        -8.2485
  67   0.0000       0.034928         0.9504
  68   0.0000       0.065971         1.7952
  69   0.0000       0.115787         3.1507
  70   0.0000       0.117768         3.2046
  71   0.0000       0.124095         3.3768

MULLIKEN ATOMIC CHARGES
-----------------------
   0 S :    0.109506
   1 C :   -0.126349
   2 C :   -0.078373
   3 C :    0.045852
   4 C :   -0.179517
   5 H :   -0.009018
   6 C :    0.114361
   7 H :    0.032600
   8 H :    0.022720
   9 C :   -0.101449
  10 H :    0.021065
  11 H :    0.029766
  12 C :   -0.057170
  13 H :    0.033739
  14 H :    0.023227
  15 H :    0.045380
  16 S :    0.110734
  17 C :   -0.106122
  18 C :   -0.006224
  19 C :   -0.059932
  20 C :   -0.155181
  21 H :    0.020767
  22 C :   -0.003502
  23 H :    0.051720
  24 H :    0.045606
  25 C :   -0.039259
  26 H :    0.026556
  27 H :    0.030417
  28 C :   -0.100625
  29 H :    0.049602
  30 H :    0.034772
  31 H :    0.035493
  32 H :    0.050473
  33 H :    0.088365
Sum of atomic charges:   -0.0000000

LOEWDIN ATOMIC CHARGES
----------------------
   0 S :    0.405330
   1 C :   -0.194575
   2 C :   -0.062013
   3 C :   -0.056371
   4 C :   -0.213356
   5 H :    0.022687
   6 C :   -0.029741
   7 H :    0.037172
   8 H :    0.033913
   9 C :   -0.049796
  10 H :    0.029766
  11 H :    0.025564
  12 C :   -0.066811
  13 H :    0.031134
  14 H :    0.017062
  15 H :    0.027214
  16 S :    0.392419
  17 C :   -0.194823
  18 C :   -0.076353
  19 C :   -0.046251
  20 C :   -0.192538
  21 H :    0.031448
  22 C :   -0.047170
  23 H :    0.042925
  24 H :    0.037736
  25 C :   -0.049214
  26 H :    0.026907
  27 H :    0.023158
  28 C :   -0.081530
  29 H :    0.033608
  30 H :    0.023764
  31 H :    0.035896
  32 H :    0.035315
  33 H :    0.047525

  Mayer bond orders larger than 0.100000
B(  0-S ,  1-C ) :   1.1361 B(  0-S ,  4-C ) :   1.1434 B(  1-C ,  2-C ) :   1.6262
B(  1-C , 32-H ) :   0.9615 B(  2-C ,  3-C ) :   1.2055 B(  2-C ,  6-C ) :   1.0243
B(  3-C ,  4-C ) :   1.6066 B(  3-C ,  5-H ) :   0.9988 B(  4-C , 20-C ) :   1.0152
B(  6-C ,  7-H ) :   0.9303 B(  6-C ,  8-H ) :   0.9411 B(  6-C ,  9-C ) :   1.0866
B(  9-C , 10-H ) :   0.9486 B(  9-C , 11-H ) :   0.9525 B(  9-C , 12-C ) :   1.0643
B( 12-C , 13-H ) :   0.9755 B( 12-C , 14-H ) :   0.9750 B( 12-C , 15-H ) :   0.9779
B( 16-S , 17-C ) :   1.1802 B( 16-S , 20-C ) :   1.1012 B( 17-C , 18-C ) :   1.6016
B( 17-C , 33-H ) :   0.9482 B( 18-C , 19-C ) :   1.2306 B( 18-C , 21-H ) :   0.9901
B( 19-C , 20-C ) :   1.6216 B( 19-C , 22-C ) :   1.0514 B( 22-C , 23-H ) :   0.9370
B( 22-C , 24-H ) :   0.9353 B( 22-C , 25-C ) :   1.0679 B( 25-C , 26-H ) :   0.9523
B( 25-C , 27-H ) :   0.9657 B( 25-C , 28-C ) :   1.0505 B( 28-C , 29-H ) :   0.9773
B( 28-C , 30-H ) :   0.9780 B( 28-C , 31-H ) :   0.9755

Dispersion correction           -0.015063751
FINAL SINGLE POINT ENERGY     -1339.861646948706

DIPOLE MOMENT
-------------
                                X             Y             Z
Electronic contribution:     -1.22044      15.83696      20.06121
Nuclear contribution   :      1.05085     -16.46592     -20.38075
                        -----------------------------------------
Total Dipole Moment    :     -0.16959      -0.62896      -0.31953
                        -----------------------------------------
Magnitude (a.u.)       :      0.72557
Magnitude (Debye)      :      1.84425

Rotational constants in cm-1:     0.018620     0.008976     0.007554
Rotational constants in MHz :   558.202199   269.100929   226.455561

                             ****ORCA TERMINATED NORMALLY****
TOTAL RUN TIME: 0 days 0 hours 0 minutes 22 seconds 161 msec
