                         Program Version 4.2.1 -  RELEASE  -
|  1> ! wB97X-D3 SP def2-SVP
|  2> %pal
|  3> nprocs 24
|  4> end
|  5>
|  6> * xyz 0 1
|  7> S 	 33.7917 	 -4.14462 	 -124.719
|  8> C 	 32.2218 	 -4.35262 	 -125.499
|  9> C 	 31.3182 	 -5.07585 	 -124.755
| 10> C 	 31.8399 	 -5.33663 	 -123.485
| 11> C 	 33.1523 	 -4.97749 	 -123.292
| 12> H 	 31.2354 	 -5.75508 	 -122.62
| 13> C 	 29.8849 	 -5.30527 	 -125.085
| 14> H 	 30.0124 	 -6.27151 	 -125.591
| 15> H 	 29.5246 	 -4.65228 	 -125.88
| 16> C 	 28.8465 	 -5.17098 	 -124.043
| 17> H 	 28.9681 	 -5.9367 	 -123.255
| 18> H 	 28.9147 	 -4.28172 	 -123.469
| 19> C 	 27.3996 	 -5.3686 	 -124.546
| 20> H 	 26.9214 	 -4.53164 	 -125.194
| 21> H 	 27.4025 	 -6.22279 	 -125.154
| 22> H 	 26.737 	 -5.45954 	 -123.704
| 23> S 	 33.9164 	 -6.58454 	 -121.276
| 24> C 	 35.0447 	 -6.02716 	 -120.1
| 25> C 	 35.5186 	 -4.76168 	 -120.357
| 26> C 	 34.8225 	 -4.17722 	 -121.515
| 27> C 	 33.931 	 -5.05259 	 -122.12
| 28> H 	 36.2182 	 -4.3272 	 -119.672
| 29> C 	 35.0627 	 -2.75799 	 -121.901
| 30> H 	 35.5379 	 -2.80698 	 -122.906
| 31> H 	 35.7269 	 -2.34904 	 -121.185
| 32> C 	 33.8208 	 -1.79163 	 -121.946
| 33> H 	 33.4331 	 -1.80355 	 -120.941
| 34> H 	 33.0402 	 -2.10142 	 -122.564
| 35> C 	 34.2205 	 -0.325438 	 -122.192
| 36> H 	 34.8432 	 0.00930556 	 -121.367
| 37> H 	 33.3118 	 0.308858 	 -122.186
| 38> H 	 34.8052 	 -0.127069 	 -123.075
| 39> H 	 31.9412 	 -3.79859 	 -126.424
| 40> H 	 35.2288 	 -6.62619 	 -119.2
| 41> *
| 42>
| 43>                          ****END OF INPUT****

CARTESIAN COORDINATES (ANGSTROEM)
---------------------------------
  S     33.791700   -4.144620  -124.719000
  C     32.221800   -4.352620  -125.499000
  C     31.318200   -5.075850  -124.755000
  C     31.839900   -5.336630  -123.485000
  C     33.152300   -4.977490  -123.292000
  H     31.235400   -5.755080  -122.620000
  C     29.884900   -5.305270  -125.085000
  H     30.012400   -6.271510  -125.591000
  H     29.524600   -4.652280  -125.880000
  C     28.846500   -5.170980  -124.043000
  H     28.968100   -5.936700  -123.255000
  H     28.914700   -4.281720  -123.469000
  C     27.399600   -5.368600  -124.546000
  H     26.921400   -4.531640  -125.194000
  H     27.402500   -6.222790  -125.154000
  H     26.737000   -5.459540  -123.704000
  S     33.916400   -6.584540  -121.276000
  C     35.044700   -6.027160  -120.100000
  C     35.518600   -4.761680  -120.357000
  C     34.822500   -4.177220  -121.515000
  C     33.931000   -5.052590  -122.120000
  H     36.218200   -4.327200  -119.672000
  C     35.062700   -2.757990  -121.901000
  H     35.537900   -2.806980  -122.906000
  H     35.726900   -2.349040  -121.185000
  C     33.820800   -1.791630  -121.946000
  H     33.433100   -1.803550  -120.941000
  H     33.040200   -2.101420  -122.564000
  C     34.220500   -0.325438  -122.192000
  H     34.843200    0.009306  -121.367000
  H     33.311800    0.308858  -122.186000
  H     34.805200   -0.127069  -123.075000
  H     31.941200   -3.798590  -126.424000
  H     35.228800   -6.626190  -119.200000

 Total Charge           Charge          ....    0
 Multiplicity           Mult            ....    1
 Number of Electrons    NEL             ....  134
 Basis Dimension        Dim             ....  322

ORBITAL ENERGIES
----------------

  NO   OCC          E(Eh)            E(eV)
   0   2.0000     -88.966207     -2420.8936
   1   2.0000     -88.960329     -2420.7336
   2   2.0000     -10.324993      -280.9573
   3   2.0000     -10.318919      -280.7921
   4   2.0000     -10.315208      -280.6911
   5   2.0000     -10.314764      -280.6790
   6   2.0000     -10.304596      -280.4023
   7   2.0000     -10.297756      -280.2162
   8   2.0000     -10.295873      -280.1650
   9   2.0000     -10.294503      -280.1277
  10   2.0000     -10.290171      -280.0098
  11   2.0000     -10.287328      -279.9324
  12   2.0000     -10.286819      -279.9186
  13   2.0000     -10.282870      -279.8111
  14   2.0000     -10.277459      -279.6639
  15   2.0000     -10.274257      -279.5768
  16   2.0000      -8.080097      -219.8706
  17   2.0000      -8.075955      -219.7579
  18   2.0000      -6.038584      -164.3182
  19   2.0000      -6.034861      -164.2169
  20   2.0000      -6.034374      -164.2037
  21   2.0000      -6.030810      -164.1067
  22   2.0000      -6.030337      -164.0938
  23   2.0000      -6.026757      -163.9964
  24   2.0000      -1.008922       -27.4542
  25   2.0000      -0.984280       -26.7836
  26   2.0000      -0.922139       -25.0927
  27   2.0000      -0.904637       -24.6164
  28   2.0000      -0.875123       -23.8133
  29   2.0000      -0.852975       -23.2106
  30   2.0000      -0.846514       -23.0348
  31   2.0000      -0.813527       -22.1372
  32   2.0000      -0.785184       -21.3660
  33   2.0000      -0.768271       -20.9057
  34   2.0000      -0.716554       -19.4984
  35   2.0000      -0.702889       -19.1266
  36   2.0000      -0.689513       -18.7626
  37   2.0000      -0.667860       -18.1734
  38   2.0000      -0.633440       -17.2368
  39   2.0000      -0.622247       -16.9322
  40   2.0000      -0.590329       -16.0637
  41   2.0000      -0.571343       -15.5470
  42   2.0000      -0.569283       -15.4910
  43   2.0000      -0.565101       -15.3772
  44   2.0000      -0.538169       -14.6443
  45   2.0000      -0.521664       -14.1952
  46   2.0000      -0.513062       -13.9611
  47   2.0000      -0.506949       -13.7948
  48   2.0000      -0.504118       -13.7177
  49   2.0000      -0.497597       -13.5403
  50   2.0000      -0.487297       -13.2600
  51   2.0000      -0.478627       -13.0241
  52   2.0000      -0.478015       -13.0075
  53   2.0000      -0.467970       -12.7341
  54   2.0000      -0.457803       -12.4574
  55   2.0000      -0.454283       -12.3617
  56   2.0000      -0.446970       -12.1627
  57   2.0000      -0.441482       -12.0133
  58   2.0000      -0.427484       -11.6324
  59   2.0000      -0.425646       -11.5824
  60   2.0000      -0.420768       -11.4497
  61   2.0000      -0.418431       -11.3861
  62   2.0000      -0.407568       -11.0905
  63   2.0000      -0.347915        -9.4673
  64   2.0000      -0.333442        -9.0734
  65   2.0000      -0.325659        -8.8616
  66   2.0000      -0.284879        -7.7519
  67   0.0000       0.023070         0.6278
  68   0.0000       0.083993         2.2856
  69   0.0000       0.108505         2.9526
  70   0.0000       0.117295         3.1918
  71   0.0000       0.131225         3.5708

MULLIKEN ATOMIC CHARGES
-----------------------
   0 S :    0.102081
   1 C :   -0.154368
   2 C :   -0.047439
   3 C :   -0.032892
   4 C :   -0.143120
   5 H :    0.037928
   6 C :    0.068027
   7 H :    0.045150
   8 H :    0.016028
   9 C :   -0.064713
  10 H :    0.026518
  11 H :    0.026749
  12 C :   -0.052332
  13 H :    0.041319
  14 H :    0.022196
  15 H :    0.033890
  16 S :    0.103717
  17 C :   -0.104566
  18 C :   -0.021940
  19 C :   -0.065333
  20 C :   -0.132259
  21 H :    0.017143
  22 C :    0.063557
  23 H :    0.043130
  24 H :    0.001361
  25 C :   -0.041604
  26 H :    0.019325
  27 H :    0.029323
  28 C :   -0.050336
  29 H :    0.019768
  30 H :    0.038201
  31 H :    0.029237
  32 H :    0.059330
  33 H :    0.066922
Sum of atomic charges:   -0.0000000

LOEWDIN ATOMIC CHARGES
----------------------
   0 S :    0.398141
   1 C :   -0.197055
   2 C :   -0.065964
   3 C :   -0.071448
   4 C :   -0.187766
   5 H :    0.041398
   6 C :   -0.039202
   7 H :    0.044499
   8 H :    0.032024
   9 C :   -0.042547
  10 H :    0.025525
  11 H :    0.023150
  12 C :   -0.060681
  13 H :    0.032987
  14 H :    0.017340
  15 H :    0.026018
  16 S :    0.415580
  17 C :   -0.190933
  18 C :   -0.071297
  19 C :   -0.053086
  20 C :   -0.206854
  21 H :    0.030943
  22 C :   -0.036163
  23 H :    0.030289
  24 H :    0.023707
  25 C :   -0.029248
  26 H :    0.024721
  27 H :    0.011988
  28 C :   -0.064591
  29 H :    0.022276
  30 H :    0.031063
  31 H :    0.020494
  32 H :    0.033143
  33 H :    0.031548

  Mayer bond orders larger than 0.100000
B(  0-S ,  1-C ) :   1.1351 B(  0-S ,  4-C ) :   1.1292 B(  1-C ,  2-C ) :   1.6131
B(  1-C , 32-H ) :   0.9591 B(  2-C ,  3-C ) :   1.2569 B(  2-C ,  6-C ) :   1.0062
B(  3-C ,  4-C ) :   1.5676 B(  3-C ,  5-H ) :   0.9763 B(  4-C , 20-C ) :   1.0923
B(  6-C ,  7-H ) :   0.9146 B(  6-C ,  8-H ) :   0.9483 B(  6-C ,  9-C ) :   1.0782
B(  9-C , 10-H ) :   0.9386 B(  9-C , 11-H ) :   0.9556 B(  9-C , 12-C ) :   1.0848
B( 12-C , 13-H ) :   0.9738 B( 12-C , 14-H ) :   0.9758 B( 12-C , 15-H ) :   0.9743
B( 16-S , 17-C ) :   1.1685 B( 16-S , 20-C ) :   1.1281 B( 17-C , 18-C ) :   1.6091
B( 17-C , 33-H ) :   0.9624 B( 18-C , 19-C ) :   1.2230 B( 18-C , 21-H ) :   0.9962
B( 19-C , 20-C ) :   1.5691 B( 19-C , 22-C ) :   1.0590 B( 22-C , 23-H ) :   0.9232
B( 22-C , 24-H ) :   0.9300 B( 22-C , 25-C ) :   1.0612 B( 25-C , 26-H ) :   0.9525
B( 25-C , 27-H ) :   0.9597 B( 25-C , 28-C ) :   1.0872 B( 28-C , 29-H ) :   0.9744
B( 28-C , 30-H ) :   0.9740 B( 28-C , 31-H ) :   0.9773

Dispersion correction           -0.014276822
FINAL SINGLE POINT ENERGY     -1339.877499338629

DIPOLE MOMENT
-------------
                                X             Y             Z
Electronic contribution:     16.90677     -13.86005       1.49350
Nuclear contribution   :    -17.34202      14.16084      -1.28735
                        -----------------------------------------
Total Dipole Moment    :     -0.43525       0.30078       0.20615
                        -----------------------------------------
Magnitude (a.u.)       :      0.56781
Magnitude (Debye)      :      1.44327

Rotational constants in cm-1:     0.018221     0.008572     0.007073
Rotational constants in MHz :   546.239234   256.981402   212.035698

                             ****ORCA TERMINATED NORMALLY****
TOTAL RUN TIME: 0 days 0 hours 0 minutes 22 seconds 577 msec
