                         Program Version 4.2.1 -  RELEASE  -
|  1> ! wB97X-D3 SP def2-SVP
|  2> %pal
|  3> nprocs 24
|  4> end
|  5>
|  6> * xyz 0 1
|  7> S 	 -130.971 	 23.5443 	 -18.76
|  8> C 	 -132.038 	 22.185 	 -19.1481
|  9> C 	 -133.36 	 22.5887 	 -18.9849
| 10> C 	 -133.565 	 23.8769 	 -18.5432
| 11> C 	 -132.364 	 24.542 	 -18.3034
| 12> H 	 -134.529 	 24.3639 	 -18.4098
| 13> C 	 -134.514 	 21.5643 	 -19.0305
| 14> H 	 -134.034 	 20.5764 	 -19.2663
| 15> H 	 -135.156 	 21.8006 	 -19.8215
| 16> C 	 -135.385 	 21.414 	 -17.7898
| 17> H 	 -135.656 	 22.4239 	 -17.3261
| 18> H 	 -136.381 	 21.025 	 -18.0902
| 19> C 	 -134.849 	 20.5323 	 -16.6757
| 20> H 	 -134.298 	 19.6368 	 -17.0429
| 21> H 	 -134.175 	 21.0114 	 -15.8789
| 22> H 	 -135.655 	 20.181 	 -16.0617
| 23> S 	 -131.293 	 26.9936 	 -18.9542
| 24> C 	 -131.152 	 28.1606 	 -17.679
| 25> C 	 -131.9 	 27.7863 	 -16.5423
| 26> C 	 -132.488 	 26.531 	 -16.6963
| 27> C 	 -132.138 	 25.9119 	 -17.8845
| 28> H 	 -131.979 	 28.4456 	 -15.6925
| 29> C 	 -133.233 	 25.827 	 -15.5427
| 30> H 	 -132.964 	 26.3319 	 -14.6338
| 31> H 	 -132.793 	 24.8691 	 -15.3686
| 32> C 	 -134.741 	 25.598 	 -15.6797
| 33> H 	 -135.034 	 25.4183 	 -16.7032
| 34> H 	 -135.189 	 26.6081 	 -15.5094
| 35> C 	 -135.365 	 24.622 	 -14.6613
| 36> H 	 -135.293 	 23.6022 	 -15.05
| 37> H 	 -136.447 	 24.8024 	 -14.6049
| 38> H 	 -134.872 	 24.5965 	 -13.6568
| 39> H 	 -131.733 	 21.2193 	 -19.4429
| 40> H 	 -130.788 	 29.1452 	 -17.8645
| 41> *
| 42>
| 43>                          ****END OF INPUT****

CARTESIAN COORDINATES (ANGSTROEM)
---------------------------------
  S    -130.971000   23.544300  -18.760000
  C    -132.038000   22.185000  -19.148100
  C    -133.360000   22.588700  -18.984900
  C    -133.565000   23.876900  -18.543200
  C    -132.364000   24.542000  -18.303400
  H    -134.529000   24.363900  -18.409800
  C    -134.514000   21.564300  -19.030500
  H    -134.034000   20.576400  -19.266300
  H    -135.156000   21.800600  -19.821500
  C    -135.385000   21.414000  -17.789800
  H    -135.656000   22.423900  -17.326100
  H    -136.381000   21.025000  -18.090200
  C    -134.849000   20.532300  -16.675700
  H    -134.298000   19.636800  -17.042900
  H    -134.175000   21.011400  -15.878900
  H    -135.655000   20.181000  -16.061700
  S    -131.293000   26.993600  -18.954200
  C    -131.152000   28.160600  -17.679000
  C    -131.900000   27.786300  -16.542300
  C    -132.488000   26.531000  -16.696300
  C    -132.138000   25.911900  -17.884500
  H    -131.979000   28.445600  -15.692500
  C    -133.233000   25.827000  -15.542700
  H    -132.964000   26.331900  -14.633800
  H    -132.793000   24.869100  -15.368600
  C    -134.741000   25.598000  -15.679700
  H    -135.034000   25.418300  -16.703200
  H    -135.189000   26.608100  -15.509400
  C    -135.365000   24.622000  -14.661300
  H    -135.293000   23.602200  -15.050000
  H    -136.447000   24.802400  -14.604900
  H    -134.872000   24.596500  -13.656800
  H    -131.733000   21.219300  -19.442900
  H    -130.788000   29.145200  -17.864500

 Total Charge           Charge          ....    0
 Multiplicity           Mult            ....    1
 Number of Electrons    NEL             ....  134
 Basis Dimension        Dim             ....  322

ORBITAL ENERGIES
----------------

  NO   OCC          E(Eh)            E(eV)
   0   2.0000     -88.968087     -2420.9447
   1   2.0000     -88.967622     -2420.9321
   2   2.0000     -10.331209      -281.1265
   3   2.0000     -10.321991      -280.8757
   4   2.0000     -10.315455      -280.6978
   5   2.0000     -10.313559      -280.6462
   6   2.0000     -10.300760      -280.2979
   7   2.0000     -10.296916      -280.1933
   8   2.0000     -10.295061      -280.1428
   9   2.0000     -10.293989      -280.1137
  10   2.0000     -10.292475      -280.0725
  11   2.0000     -10.290548      -280.0201
  12   2.0000     -10.287706      -279.9427
  13   2.0000     -10.286213      -279.9021
  14   2.0000     -10.284837      -279.8646
  15   2.0000     -10.281337      -279.7694
  16   2.0000      -8.083125      -219.9530
  17   2.0000      -8.081458      -219.9076
  18   2.0000      -6.041374      -164.3941
  19   2.0000      -6.039934      -164.3550
  20   2.0000      -6.037541      -164.2899
  21   2.0000      -6.036026      -164.2486
  22   2.0000      -6.034201      -164.1990
  23   2.0000      -6.032362      -164.1489
  24   2.0000      -1.008112       -27.4321
  25   2.0000      -0.984661       -26.7940
  26   2.0000      -0.908745       -24.7282
  27   2.0000      -0.905817       -24.6485
  28   2.0000      -0.866661       -23.5830
  29   2.0000      -0.853511       -23.2252
  30   2.0000      -0.847321       -23.0568
  31   2.0000      -0.812848       -22.1187
  32   2.0000      -0.784709       -21.3530
  33   2.0000      -0.772553       -21.0222
  34   2.0000      -0.709148       -19.2969
  35   2.0000      -0.698638       -19.0109
  36   2.0000      -0.689809       -18.7706
  37   2.0000      -0.664483       -18.0815
  38   2.0000      -0.641831       -17.4651
  39   2.0000      -0.622446       -16.9376
  40   2.0000      -0.598418       -16.2838
  41   2.0000      -0.566255       -15.4086
  42   2.0000      -0.558539       -15.1986
  43   2.0000      -0.553162       -15.0523
  44   2.0000      -0.532752       -14.4969
  45   2.0000      -0.525348       -14.2955
  46   2.0000      -0.519071       -14.1246
  47   2.0000      -0.512922       -13.9573
  48   2.0000      -0.504002       -13.7146
  49   2.0000      -0.500910       -13.6304
  50   2.0000      -0.484201       -13.1758
  51   2.0000      -0.479344       -13.0436
  52   2.0000      -0.475988       -12.9523
  53   2.0000      -0.465886       -12.6774
  54   2.0000      -0.454022       -12.3546
  55   2.0000      -0.449466       -12.2306
  56   2.0000      -0.442980       -12.0541
  57   2.0000      -0.442259       -12.0345
  58   2.0000      -0.438422       -11.9301
  59   2.0000      -0.429053       -11.6751
  60   2.0000      -0.425197       -11.5702
  61   2.0000      -0.404740       -11.0135
  62   2.0000      -0.404018       -10.9939
  63   2.0000      -0.342764        -9.3271
  64   2.0000      -0.335849        -9.1389
  65   2.0000      -0.330007        -8.9799
  66   2.0000      -0.291909        -7.9432
  67   0.0000       0.028518         0.7760
  68   0.0000       0.060842         1.6556
  69   0.0000       0.117039         3.1848
  70   0.0000       0.120193         3.2706
  71   0.0000       0.125489         3.4147

MULLIKEN ATOMIC CHARGES
-----------------------
   0 S :    0.112813
   1 C :   -0.108177
   2 C :   -0.072332
   3 C :    0.038109
   4 C :   -0.167060
   5 H :    0.022439
   6 C :    0.100585
   7 H :    0.016045
   8 H :    0.017770
   9 C :   -0.095294
  10 H :    0.028654
  11 H :    0.030573
  12 C :   -0.069545
  13 H :    0.031260
  14 H :    0.047532
  15 H :    0.025380
  16 S :    0.130871
  17 C :   -0.094262
  18 C :   -0.049647
  19 C :    0.001470
  20 C :   -0.192405
  21 H :    0.017099
  22 C :    0.099335
  23 H :    0.005320
  24 H :    0.017759
  25 C :   -0.064774
  26 H :    0.008595
  27 H :    0.021628
  28 C :   -0.057959
  29 H :    0.030322
  30 H :    0.039822
  31 H :    0.045310
  32 H :    0.031159
  33 H :    0.051603
Sum of atomic charges:    0.0000000

LOEWDIN ATOMIC CHARGES
----------------------
   0 S :    0.397888
   1 C :   -0.186992
   2 C :   -0.065754
   3 C :   -0.062505
   4 C :   -0.179067
   5 H :    0.033783
   6 C :   -0.026425
   7 H :    0.031637
   8 H :    0.023820
   9 C :   -0.049956
  10 H :    0.028915
  11 H :    0.029054
  12 C :   -0.078064
  13 H :    0.026205
  14 H :    0.033486
  15 H :    0.023356
  16 S :    0.428156
  17 C :   -0.189818
  18 C :   -0.067403
  19 C :   -0.053486
  20 C :   -0.211726
  21 H :    0.031562
  22 C :   -0.027772
  23 H :    0.025801
  24 H :    0.027566
  25 C :   -0.043382
  26 H :    0.016732
  27 H :    0.025061
  28 C :   -0.069829
  29 H :    0.024329
  30 H :    0.031000
  31 H :    0.033047
  32 H :    0.019647
  33 H :    0.021138

  Mayer bond orders larger than 0.100000
B(  0-S ,  1-C ) :   1.1342 B(  0-S ,  4-C ) :   1.1645 B(  1-C ,  2-C ) :   1.5896
B(  1-C ,  4-C ) :   0.1129 B(  1-C , 32-H ) :   0.9747 B(  2-C ,  3-C ) :   1.2700
B(  2-C ,  6-C ) :   1.0176 B(  3-C ,  4-C ) :   1.5525 B(  3-C ,  5-H ) :   0.9864
B(  4-C , 20-C ) :   1.0373 B(  6-C ,  7-H ) :   0.9468 B(  6-C ,  8-H ) :   0.9290
B(  6-C ,  9-C ) :   1.0789 B(  9-C , 10-H ) :   0.9472 B(  9-C , 11-H ) :   0.9535
B(  9-C , 12-C ) :   1.0760 B( 12-C , 13-H ) :   0.9738 B( 12-C , 14-H ) :   0.9733
B( 12-C , 15-H ) :   0.9731 B( 16-S , 17-C ) :   1.1746 B( 16-S , 20-C ) :   1.1696
B( 17-C , 18-C ) :   1.5568 B( 17-C , 20-C ) :   0.1100 B( 17-C , 33-H ) :   0.9703
B( 18-C , 19-C ) :   1.2943 B( 18-C , 21-H ) :   0.9931 B( 19-C , 20-C ) :   1.5521
B( 19-C , 22-C ) :   1.0314 B( 22-C , 23-H ) :   0.9341 B( 22-C , 24-H ) :   0.9324
B( 22-C , 25-C ) :   1.0527 B( 25-C , 26-H ) :   0.9593 B( 25-C , 27-H ) :   0.9512
B( 25-C , 28-C ) :   1.0734 B( 28-C , 29-H ) :   0.9719 B( 28-C , 30-H ) :   0.9738
B( 28-C , 31-H ) :   0.9737

Dispersion correction           -0.015661831
FINAL SINGLE POINT ENERGY     -1339.882536093796

DIPOLE MOMENT
-------------
                                X             Y             Z
Electronic contribution:     23.47598      14.72551     -16.80045
Nuclear contribution   :    -24.04653     -14.86304      17.12988
                        -----------------------------------------
Total Dipole Moment    :     -0.57055      -0.13753       0.32944
                        -----------------------------------------
Magnitude (a.u.)       :      0.67303
Magnitude (Debye)      :      1.71071

Rotational constants in cm-1:     0.019019     0.010253     0.007278
Rotational constants in MHz :   570.169915   307.370427   218.175224

                             ****ORCA TERMINATED NORMALLY****
TOTAL RUN TIME: 0 days 0 hours 0 minutes 21 seconds 736 msec
