                         Program Version 4.2.1 -  RELEASE  -
|  1> ! wB97X-D3 SP def2-SVP
|  2> %pal
|  3> nprocs 24
|  4> end
|  5>
|  6> * xyz 0 1
|  7> S 	 45.3503 	 -16.8382 	 -104.3
|  8> C 	 43.8845 	 -17.1344 	 -105.222
|  9> C 	 44.1249 	 -17.1323 	 -106.593
| 10> C 	 45.4488 	 -16.731 	 -106.85
| 11> C 	 46.2292 	 -16.507 	 -105.744
| 12> H 	 45.8695 	 -16.5433 	 -107.856
| 13> C 	 43.1046 	 -17.2168 	 -107.72
| 14> H 	 43.4557 	 -16.7052 	 -108.632
| 15> H 	 42.2088 	 -16.6766 	 -107.52
| 16> C 	 42.7272 	 -18.5996 	 -108.109
| 17> H 	 43.53 	 -19.3403 	 -108.188
| 18> H 	 42.0865 	 -19.0294 	 -107.397
| 19> C 	 42.0801 	 -18.6108 	 -109.499
| 20> H 	 41.6159 	 -19.5527 	 -109.81
| 21> H 	 41.2729 	 -17.8705 	 -109.506
| 22> H 	 42.7576 	 -18.3936 	 -110.348
| 23> S 	 48.1701 	 -15.0356 	 -104.323
| 24> C 	 49.823 	 -15.2594 	 -104.732
| 25> C 	 49.9914 	 -16.0686 	 -105.825
| 26> C 	 48.7445 	 -16.5548 	 -106.349
| 27> C 	 47.6407 	 -16.194 	 -105.574
| 28> H 	 50.9591 	 -16.4046 	 -106.107
| 29> C 	 48.6879 	 -17.5606 	 -107.473
| 30> H 	 49.5811 	 -17.2769 	 -108.049
| 31> H 	 47.8231 	 -17.5296 	 -108.098
| 32> C 	 48.8694 	 -19.0547 	 -106.976
| 33> H 	 49.7742 	 -19.1491 	 -106.378
| 34> H 	 49.074 	 -19.5568 	 -107.869
| 35> C 	 47.7451 	 -19.7389 	 -106.173
| 36> H 	 46.8044 	 -19.7414 	 -106.738
| 37> H 	 47.5812 	 -19.4808 	 -105.131
| 38> H 	 48.0432 	 -20.7863 	 -106.042
| 39> H 	 42.8873 	 -17.2489 	 -104.813
| 40> H 	 50.6352 	 -14.7355 	 -104.174
| 41> *
| 42>
| 43>                          ****END OF INPUT****

CARTESIAN COORDINATES (ANGSTROEM)
---------------------------------
  S     45.350300  -16.838200  -104.300000
  C     43.884500  -17.134400  -105.222000
  C     44.124900  -17.132300  -106.593000
  C     45.448800  -16.731000  -106.850000
  C     46.229200  -16.507000  -105.744000
  H     45.869500  -16.543300  -107.856000
  C     43.104600  -17.216800  -107.720000
  H     43.455700  -16.705200  -108.632000
  H     42.208800  -16.676600  -107.520000
  C     42.727200  -18.599600  -108.109000
  H     43.530000  -19.340300  -108.188000
  H     42.086500  -19.029400  -107.397000
  C     42.080100  -18.610800  -109.499000
  H     41.615900  -19.552700  -109.810000
  H     41.272900  -17.870500  -109.506000
  H     42.757600  -18.393600  -110.348000
  S     48.170100  -15.035600  -104.323000
  C     49.823000  -15.259400  -104.732000
  C     49.991400  -16.068600  -105.825000
  C     48.744500  -16.554800  -106.349000
  C     47.640700  -16.194000  -105.574000
  H     50.959100  -16.404600  -106.107000
  C     48.687900  -17.560600  -107.473000
  H     49.581100  -17.276900  -108.049000
  H     47.823100  -17.529600  -108.098000
  C     48.869400  -19.054700  -106.976000
  H     49.774200  -19.149100  -106.378000
  H     49.074000  -19.556800  -107.869000
  C     47.745100  -19.738900  -106.173000
  H     46.804400  -19.741400  -106.738000
  H     47.581200  -19.480800  -105.131000
  H     48.043200  -20.786300  -106.042000
  H     42.887300  -17.248900  -104.813000
  H     50.635200  -14.735500  -104.174000

 Total Charge           Charge          ....    0
 Multiplicity           Mult            ....    1
 Number of Electrons    NEL             ....  134
 Basis Dimension        Dim             ....  322

ORBITAL ENERGIES
----------------

  NO   OCC          E(Eh)            E(eV)
   0   2.0000     -88.966199     -2420.8934
   1   2.0000     -88.963485     -2420.8195
   2   2.0000     -10.325943      -280.9832
   3   2.0000     -10.325038      -280.9586
   4   2.0000     -10.318752      -280.7875
   5   2.0000     -10.313984      -280.6578
   6   2.0000     -10.302857      -280.3550
   7   2.0000     -10.301008      -280.3047
   8   2.0000     -10.291866      -280.0559
   9   2.0000     -10.291478      -280.0454
  10   2.0000     -10.291302      -280.0406
  11   2.0000     -10.290218      -280.0111
  12   2.0000     -10.283521      -279.8288
  13   2.0000     -10.280139      -279.7368
  14   2.0000     -10.279555      -279.7209
  15   2.0000     -10.273289      -279.5504
  16   2.0000      -8.081163      -219.8996
  17   2.0000      -8.078441      -219.8255
  18   2.0000      -6.039634      -164.3468
  19   2.0000      -6.036962      -164.2741
  20   2.0000      -6.035588      -164.2367
  21   2.0000      -6.032856      -164.1624
  22   2.0000      -6.031999      -164.1390
  23   2.0000      -6.029241      -164.0640
  24   2.0000      -1.008526       -27.4434
  25   2.0000      -0.985598       -26.8195
  26   2.0000      -0.920551       -25.0495
  27   2.0000      -0.903044       -24.5731
  28   2.0000      -0.869986       -23.6735
  29   2.0000      -0.849919       -23.1275
  30   2.0000      -0.843808       -22.9612
  31   2.0000      -0.811952       -22.0943
  32   2.0000      -0.785601       -21.3773
  33   2.0000      -0.772824       -21.0296
  34   2.0000      -0.706731       -19.2311
  35   2.0000      -0.704445       -19.1689
  36   2.0000      -0.691251       -18.8099
  37   2.0000      -0.660847       -17.9826
  38   2.0000      -0.642937       -17.4952
  39   2.0000      -0.622841       -16.9484
  40   2.0000      -0.598664       -16.2905
  41   2.0000      -0.571184       -15.5427
  42   2.0000      -0.564120       -15.3505
  43   2.0000      -0.545215       -14.8361
  44   2.0000      -0.538377       -14.6500
  45   2.0000      -0.525684       -14.3046
  46   2.0000      -0.520451       -14.1622
  47   2.0000      -0.506279       -13.7766
  48   2.0000      -0.498693       -13.5701
  49   2.0000      -0.495742       -13.4898
  50   2.0000      -0.493229       -13.4215
  51   2.0000      -0.476238       -12.9591
  52   2.0000      -0.472287       -12.8516
  53   2.0000      -0.465800       -12.6751
  54   2.0000      -0.462188       -12.5768
  55   2.0000      -0.451223       -12.2784
  56   2.0000      -0.446538       -12.1509
  57   2.0000      -0.440573       -11.9886
  58   2.0000      -0.426664       -11.6101
  59   2.0000      -0.424385       -11.5481
  60   2.0000      -0.421061       -11.4577
  61   2.0000      -0.415084       -11.2950
  62   2.0000      -0.410656       -11.1745
  63   2.0000      -0.350341        -9.5333
  64   2.0000      -0.334987        -9.1154
  65   2.0000      -0.328306        -8.9337
  66   2.0000      -0.286141        -7.7863
  67   0.0000       0.026382         0.7179
  68   0.0000       0.077091         2.0977
  69   0.0000       0.112139         3.0515
  70   0.0000       0.118576         3.2266
  71   0.0000       0.129731         3.5302

MULLIKEN ATOMIC CHARGES
-----------------------
   0 S :    0.107946
   1 C :   -0.115055
   2 C :   -0.057436
   3 C :   -0.012427
   4 C :   -0.130553
   5 H :    0.023530
   6 C :    0.060057
   7 H :    0.020824
   8 H :    0.022179
   9 C :   -0.037860
  10 H :    0.026373
  11 H :    0.015368
  12 C :   -0.078351
  13 H :    0.029778
  14 H :    0.021290
  15 H :    0.037566
  16 S :    0.101954
  17 C :   -0.103473
  18 C :   -0.021323
  19 C :   -0.047619
  20 C :   -0.141105
  21 H :    0.008733
  22 C :    0.069569
  23 H :    0.022215
  24 H :    0.013327
  25 C :   -0.042197
  26 H :    0.016142
  27 H :    0.016588
  28 C :   -0.044802
  29 H :    0.036443
  30 H :    0.039364
  31 H :    0.023608
  32 H :    0.043422
  33 H :    0.075924
Sum of atomic charges:   -0.0000000

LOEWDIN ATOMIC CHARGES
----------------------
   0 S :    0.420290
   1 C :   -0.195692
   2 C :   -0.059475
   3 C :   -0.071430
   4 C :   -0.195052
   5 H :    0.033900
   6 C :   -0.028563
   7 H :    0.033044
   8 H :    0.029635
   9 C :   -0.039522
  10 H :    0.025536
  11 H :    0.017578
  12 C :   -0.069333
  13 H :    0.025357
  14 H :    0.020633
  15 H :    0.027088
  16 S :    0.398768
  17 C :   -0.192981
  18 C :   -0.073912
  19 C :   -0.051232
  20 C :   -0.199625
  21 H :    0.026916
  22 C :   -0.028429
  23 H :    0.034911
  24 H :    0.021444
  25 C :   -0.028400
  26 H :    0.022901
  27 H :    0.016590
  28 C :   -0.069839
  29 H :    0.025961
  30 H :    0.026929
  31 H :    0.029709
  32 H :    0.026715
  33 H :    0.039581

  Mayer bond orders larger than 0.100000
B(  0-S ,  1-C ) :   1.1426 B(  0-S ,  4-C ) :   1.1625 B(  1-C ,  2-C ) :   1.5976
B(  1-C ,  4-C ) :   0.1063 B(  1-C , 32-H ) :   0.9698 B(  2-C ,  3-C ) :   1.2601
B(  2-C ,  6-C ) :   1.0125 B(  3-C ,  4-C ) :   1.5746 B(  3-C ,  5-H ) :   0.9879
B(  4-C , 20-C ) :   1.0391 B(  6-C ,  7-H ) :   0.9537 B(  6-C ,  8-H ) :   0.9365
B(  6-C ,  9-C ) :   1.0545 B(  9-C , 10-H ) :   0.9576 B(  9-C , 11-H ) :   0.9522
B(  9-C , 12-C ) :   1.0812 B( 12-C , 13-H ) :   0.9739 B( 12-C , 14-H ) :   0.9729
B( 12-C , 15-H ) :   0.9757 B( 16-S , 17-C ) :   1.1653 B( 16-S , 20-C ) :   1.1269
B( 17-C , 18-C ) :   1.6030 B( 17-C , 33-H ) :   0.9600 B( 18-C , 19-C ) :   1.2383
B( 18-C , 21-H ) :   0.9948 B( 19-C , 20-C ) :   1.5911 B( 19-C , 22-C ) :   1.0534
B( 22-C , 23-H ) :   0.9255 B( 22-C , 24-H ) :   0.9388 B( 22-C , 25-C ) :   1.0704
B( 25-C , 26-H ) :   0.9541 B( 25-C , 27-H ) :   0.9552 B( 25-C , 28-C ) :   1.0827
B( 28-C , 29-H ) :   0.9748 B( 28-C , 30-H ) :   0.9730 B( 28-C , 31-H ) :   0.9675

Dispersion correction           -0.015147270
FINAL SINGLE POINT ENERGY     -1339.887304184052

DIPOLE MOMENT
-------------
                                X             Y             Z
Electronic contribution:      9.24823      18.20337      21.17340
Nuclear contribution   :     -9.21354     -18.54831     -21.70041
                        -----------------------------------------
Total Dipole Moment    :      0.03469      -0.34494      -0.52701
                        -----------------------------------------
Magnitude (a.u.)       :      0.63081
Magnitude (Debye)      :      1.60340

Rotational constants in cm-1:     0.022514     0.008363     0.007017
Rotational constants in MHz :   674.959729   250.702293   210.371713

                             ****ORCA TERMINATED NORMALLY****
TOTAL RUN TIME: 0 days 0 hours 0 minutes 22 seconds 316 msec
