                         Program Version 4.2.1 -  RELEASE  -
|  1> ! wB97X-D3 SP def2-SVP
|  2> %pal
|  3> nprocs 24
|  4> end
|  5>
|  6> * xyz 0 1
|  7> S 	 -120.412 	 34.9209 	 -123.179
|  8> C 	 -119.677 	 33.3987 	 -123.369
|  9> C 	 -119.685 	 32.6452 	 -122.221
| 10> C 	 -120.198 	 33.3723 	 -121.092
| 11> C 	 -120.667 	 34.5734 	 -121.527
| 12> H 	 -120.267 	 32.9839 	 -120.113
| 13> C 	 -119.272 	 31.2333 	 -122.185
| 14> H 	 -119.806 	 30.7287 	 -122.958
| 15> H 	 -119.494 	 30.849 	 -121.156
| 16> C 	 -117.795 	 30.9317 	 -122.556
| 17> H 	 -117.594 	 29.8112 	 -122.495
| 18> H 	 -117.438 	 31.3618 	 -123.529
| 19> C 	 -116.71 	 31.3218 	 -121.435
| 20> H 	 -117.003 	 31.2791 	 -120.386
| 21> H 	 -115.791 	 30.8398 	 -121.587
| 22> H 	 -116.417 	 32.3207 	 -121.481
| 23> S 	 -122.91 	 35.7024 	 -120.586
| 24> C 	 -122.833 	 37.2043 	 -119.826
| 25> C 	 -121.548 	 37.4722 	 -119.364
| 26> C 	 -120.606 	 36.5319 	 -119.855
| 27> C 	 -121.224 	 35.59 	 -120.675
| 28> H 	 -121.285 	 38.2649 	 -118.72
| 29> C 	 -119.161 	 36.6579 	 -119.531
| 30> H 	 -119.021 	 37.4256 	 -118.777
| 31> H 	 -118.517 	 37.001 	 -120.385
| 32> C 	 -118.477 	 35.4244 	 -118.932
| 33> H 	 -117.578 	 35.8025 	 -118.436
| 34> H 	 -118.099 	 34.6963 	 -119.588
| 35> C 	 -119.225 	 34.7303 	 -117.772
| 36> H 	 -120.045 	 34.2398 	 -118.262
| 37> H 	 -119.559 	 35.4368 	 -117.013
| 38> H 	 -118.576 	 34.0498 	 -117.239
| 39> H 	 -119.503 	 32.9392 	 -124.284
| 40> H 	 -123.696 	 37.8426 	 -119.597
| 41> *
| 42>
| 43>                          ****END OF INPUT****

CARTESIAN COORDINATES (ANGSTROEM)
---------------------------------
  S    -120.412000   34.920900  -123.179000
  C    -119.677000   33.398700  -123.369000
  C    -119.685000   32.645200  -122.221000
  C    -120.198000   33.372300  -121.092000
  C    -120.667000   34.573400  -121.527000
  H    -120.267000   32.983900  -120.113000
  C    -119.272000   31.233300  -122.185000
  H    -119.806000   30.728700  -122.958000
  H    -119.494000   30.849000  -121.156000
  C    -117.795000   30.931700  -122.556000
  H    -117.594000   29.811200  -122.495000
  H    -117.438000   31.361800  -123.529000
  C    -116.710000   31.321800  -121.435000
  H    -117.003000   31.279100  -120.386000
  H    -115.791000   30.839800  -121.587000
  H    -116.417000   32.320700  -121.481000
  S    -122.910000   35.702400  -120.586000
  C    -122.833000   37.204300  -119.826000
  C    -121.548000   37.472200  -119.364000
  C    -120.606000   36.531900  -119.855000
  C    -121.224000   35.590000  -120.675000
  H    -121.285000   38.264900  -118.720000
  C    -119.161000   36.657900  -119.531000
  H    -119.021000   37.425600  -118.777000
  H    -118.517000   37.001000  -120.385000
  C    -118.477000   35.424400  -118.932000
  H    -117.578000   35.802500  -118.436000
  H    -118.099000   34.696300  -119.588000
  C    -119.225000   34.730300  -117.772000
  H    -120.045000   34.239800  -118.262000
  H    -119.559000   35.436800  -117.013000
  H    -118.576000   34.049800  -117.239000
  H    -119.503000   32.939200  -124.284000
  H    -123.696000   37.842600  -119.597000

 Total Charge           Charge          ....    0
 Multiplicity           Mult            ....    1
 Number of Electrons    NEL             ....  134
 Basis Dimension        Dim             ....  322

ORBITAL ENERGIES
----------------

  NO   OCC          E(Eh)            E(eV)
   0   2.0000     -88.966544     -2420.9027
   1   2.0000     -88.963147     -2420.8103
   2   2.0000     -10.318321      -280.7758
   3   2.0000     -10.311293      -280.5845
   4   2.0000     -10.310594      -280.5655
   5   2.0000     -10.301985      -280.3313
   6   2.0000     -10.298838      -280.2456
   7   2.0000     -10.295357      -280.1509
   8   2.0000     -10.293095      -280.0894
   9   2.0000     -10.292256      -280.0665
  10   2.0000     -10.289858      -280.0013
  11   2.0000     -10.289468      -279.9907
  12   2.0000     -10.285996      -279.8962
  13   2.0000     -10.274919      -279.5948
  14   2.0000     -10.270162      -279.4653
  15   2.0000     -10.267410      -279.3904
  16   2.0000      -8.082918      -219.9474
  17   2.0000      -8.080212      -219.8737
  18   2.0000      -6.041146      -164.3879
  19   2.0000      -6.038375      -164.3125
  20   2.0000      -6.037261      -164.2822
  21   2.0000      -6.034405      -164.2045
  22   2.0000      -6.033807      -164.1882
  23   2.0000      -6.031202      -164.1173
  24   2.0000      -1.020089       -27.7580
  25   2.0000      -0.996238       -27.1090
  26   2.0000      -0.910771       -24.7833
  27   2.0000      -0.910231       -24.7686
  28   2.0000      -0.869198       -23.6521
  29   2.0000      -0.851077       -23.1590
  30   2.0000      -0.850625       -23.1467
  31   2.0000      -0.815351       -22.1868
  32   2.0000      -0.786773       -21.4092
  33   2.0000      -0.773435       -21.0462
  34   2.0000      -0.706259       -19.2183
  35   2.0000      -0.704788       -19.1783
  36   2.0000      -0.686225       -18.6731
  37   2.0000      -0.665834       -18.1183
  38   2.0000      -0.650023       -17.6880
  39   2.0000      -0.614254       -16.7147
  40   2.0000      -0.594732       -16.1835
  41   2.0000      -0.573489       -15.6054
  42   2.0000      -0.554451       -15.0874
  43   2.0000      -0.551869       -15.0171
  44   2.0000      -0.545493       -14.8436
  45   2.0000      -0.539551       -14.6819
  46   2.0000      -0.517400       -14.0792
  47   2.0000      -0.514855       -14.0099
  48   2.0000      -0.502044       -13.6613
  49   2.0000      -0.494198       -13.4478
  50   2.0000      -0.489332       -13.3154
  51   2.0000      -0.476096       -12.9552
  52   2.0000      -0.474143       -12.9021
  53   2.0000      -0.471531       -12.8310
  54   2.0000      -0.463601       -12.6152
  55   2.0000      -0.446146       -12.1403
  56   2.0000      -0.445342       -12.1184
  57   2.0000      -0.439842       -11.9687
  58   2.0000      -0.434894       -11.8341
  59   2.0000      -0.428958       -11.6725
  60   2.0000      -0.420699       -11.4478
  61   2.0000      -0.407431       -11.0868
  62   2.0000      -0.406913       -11.0727
  63   2.0000      -0.336761        -9.1637
  64   2.0000      -0.329328        -8.9615
  65   2.0000      -0.314760        -8.5651
  66   2.0000      -0.307146        -8.3579
  67   0.0000       0.045217         1.2304
  68   0.0000       0.060454         1.6450
  69   0.0000       0.115663         3.1473
  70   0.0000       0.122812         3.3419
  71   0.0000       0.128527         3.4974

MULLIKEN ATOMIC CHARGES
-----------------------
   0 S :    0.147999
   1 C :   -0.094050
   2 C :   -0.093597
   3 C :    0.059595
   4 C :   -0.158592
   5 H :   -0.004001
   6 C :    0.095493
   7 H :    0.032591
   8 H :    0.027554
   9 C :   -0.123392
  10 H :    0.047579
  11 H :    0.047102
  12 C :   -0.042648
  13 H :    0.023054
  14 H :    0.019628
  15 H :    0.009735
  16 S :    0.145503
  17 C :   -0.096578
  18 C :   -0.031319
  19 C :   -0.004666
  20 C :   -0.232423
  21 H :   -0.001868
  22 C :    0.103706
  23 H :    0.004126
  24 H :    0.048471
  25 C :   -0.094191
  26 H :    0.013817
  27 H :    0.029365
  28 C :   -0.038220
  29 H :    0.030575
  30 H :    0.023458
  31 H :    0.029048
  32 H :    0.016183
  33 H :    0.060960
Sum of atomic charges:   -0.0000000

LOEWDIN ATOMIC CHARGES
----------------------
   0 S :    0.454230
   1 C :   -0.210303
   2 C :   -0.061047
   3 C :   -0.049430
   4 C :   -0.209627
   5 H :    0.026413
   6 C :   -0.035004
   7 H :    0.034311
   8 H :    0.036603
   9 C :   -0.039251
  10 H :    0.033781
  11 H :    0.029467
  12 C :   -0.073858
  13 H :    0.025013
  14 H :    0.019067
  15 H :    0.015032
  16 S :    0.466090
  17 C :   -0.211488
  18 C :   -0.067594
  19 C :   -0.056938
  20 C :   -0.233872
  21 H :    0.022758
  22 C :   -0.033248
  23 H :    0.029478
  24 H :    0.044260
  25 C :   -0.041504
  26 H :    0.023423
  27 H :    0.014311
  28 C :   -0.060423
  29 H :    0.016725
  30 H :    0.024271
  31 H :    0.024422
  32 H :    0.011750
  33 H :    0.032179

  Mayer bond orders larger than 0.100000
B(  0-S ,  1-C ) :   1.1441 B(  0-S ,  4-C ) :   1.1857 B(  1-C ,  2-C ) :   1.6089
B(  1-C , 32-H ) :   0.9692 B(  2-C ,  3-C ) :   1.2409 B(  2-C ,  6-C ) :   1.0298
B(  3-C ,  4-C ) :   1.5737 B(  3-C ,  5-H ) :   1.0009 B(  4-C , 20-C ) :   0.9982
B(  6-C ,  7-H ) :   0.9284 B(  6-C ,  8-H ) :   0.9416 B(  6-C ,  9-C ) :   1.0721
B(  9-C , 10-H ) :   0.9648 B(  9-C , 11-H ) :   0.9571 B(  9-C , 12-C ) :   1.0500
B( 12-C , 13-H ) :   0.9773 B( 12-C , 14-H ) :   0.9786 B( 12-C , 15-H ) :   0.9736
B( 16-S , 17-C ) :   1.1892 B( 16-S , 20-C ) :   1.1915 B( 17-C , 18-C ) :   1.5468
B( 17-C , 20-C ) :   0.1016 B( 17-C , 33-H ) :   0.9680 B( 18-C , 19-C ) :   1.2916
B( 18-C , 21-H ) :   0.9968 B( 19-C , 20-C ) :   1.5389 B( 19-C , 22-C ) :   1.0609
B( 22-C , 23-H ) :   0.9268 B( 22-C , 24-H ) :   0.9256 B( 22-C , 25-C ) :   1.0732
B( 25-C , 26-H ) :   0.9550 B( 25-C , 27-H ) :   0.9532 B( 25-C , 28-C ) :   1.0802
B( 28-C , 29-H ) :   0.9708 B( 28-C , 30-H ) :   0.9730 B( 28-C , 31-H ) :   0.9744

Dispersion correction           -0.016044658
FINAL SINGLE POINT ENERGY     -1339.861382782388

DIPOLE MOMENT
-------------
                                X             Y             Z
Electronic contribution:    -22.22847      13.26402     -11.12471
Nuclear contribution   :     22.57446     -13.42713      11.33958
                        -----------------------------------------
Total Dipole Moment    :      0.34599      -0.16312       0.21487
                        -----------------------------------------
Magnitude (a.u.)       :      0.43873
Magnitude (Debye)      :      1.11517

Rotational constants in cm-1:     0.022086     0.009449     0.007637
Rotational constants in MHz :   662.116814   283.286846   228.962541

                             ****ORCA TERMINATED NORMALLY****
TOTAL RUN TIME: 0 days 0 hours 0 minutes 23 seconds 199 msec
