                         Program Version 4.2.1 -  RELEASE  -
|  1> ! wB97X-D3 SP def2-SVP
|  2> %pal
|  3> nprocs 24
|  4> end
|  5>
|  6> * xyz 0 1
|  7> S 	 -26.0693 	 -39.1873 	 -92.7946
|  8> C 	 -26.0846 	 -37.5718 	 -93.4488
|  9> C 	 -27.1896 	 -36.8321 	 -93.0109
| 10> C 	 -27.891 	 -37.5338 	 -91.9881
| 11> C 	 -27.4882 	 -38.8505 	 -91.8133
| 12> H 	 -28.7674 	 -37.0678 	 -91.4314
| 13> C 	 -27.3931 	 -35.3665 	 -93.3569
| 14> H 	 -28.1713 	 -35.2796 	 -94.1271
| 15> H 	 -26.4404 	 -35.1542 	 -93.8403
| 16> C 	 -27.7592 	 -34.3021 	 -92.3411
| 17> H 	 -27.5201 	 -33.3972 	 -92.8632
| 18> H 	 -28.7908 	 -34.3128 	 -92.1292
| 19> C 	 -26.9101 	 -34.3801 	 -91.039
| 20> H 	 -27.1916 	 -33.4861 	 -90.4866
| 21> H 	 -27.2053 	 -35.2715 	 -90.4266
| 22> H 	 -25.8912 	 -34.286 	 -91.2728
| 23> S 	 -26.9917 	 -40.8765 	 -90.0582
| 24> C 	 -28.3256 	 -41.8627 	 -89.37
| 25> C 	 -29.515 	 -41.2974 	 -89.7726
| 26> C 	 -29.4558 	 -40.149 	 -90.6658
| 27> C 	 -28.1015 	 -39.8486 	 -90.9506
| 28> H 	 -30.4582 	 -41.6875 	 -89.3361
| 29> C 	 -30.6389 	 -39.4565 	 -91.1929
| 30> H 	 -30.7642 	 -38.4375 	 -90.8745
| 31> H 	 -31.4216 	 -39.837 	 -90.5349
| 32> C 	 -31.0241 	 -39.5937 	 -92.6395
| 33> H 	 -30.2034 	 -39.3365 	 -93.2825
| 34> H 	 -31.8968 	 -38.9556 	 -92.9008
| 35> C 	 -31.4725 	 -41.033 	 -92.9066
| 36> H 	 -31.9704 	 -41.0164 	 -93.8524
| 37> H 	 -32.1406 	 -41.376 	 -92.1135
| 38> H 	 -30.6606 	 -41.656 	 -93.0077
| 39> H 	 -25.3797 	 -37.2175 	 -94.1084
| 40> H 	 -28.2105 	 -42.6241 	 -88.6608
| 41> *
| 42>
| 43>                          ****END OF INPUT****

CARTESIAN COORDINATES (ANGSTROEM)
---------------------------------
  S    -26.069300  -39.187300  -92.794600
  C    -26.084600  -37.571800  -93.448800
  C    -27.189600  -36.832100  -93.010900
  C    -27.891000  -37.533800  -91.988100
  C    -27.488200  -38.850500  -91.813300
  H    -28.767400  -37.067800  -91.431400
  C    -27.393100  -35.366500  -93.356900
  H    -28.171300  -35.279600  -94.127100
  H    -26.440400  -35.154200  -93.840300
  C    -27.759200  -34.302100  -92.341100
  H    -27.520100  -33.397200  -92.863200
  H    -28.790800  -34.312800  -92.129200
  C    -26.910100  -34.380100  -91.039000
  H    -27.191600  -33.486100  -90.486600
  H    -27.205300  -35.271500  -90.426600
  H    -25.891200  -34.286000  -91.272800
  S    -26.991700  -40.876500  -90.058200
  C    -28.325600  -41.862700  -89.370000
  C    -29.515000  -41.297400  -89.772600
  C    -29.455800  -40.149000  -90.665800
  C    -28.101500  -39.848600  -90.950600
  H    -30.458200  -41.687500  -89.336100
  C    -30.638900  -39.456500  -91.192900
  H    -30.764200  -38.437500  -90.874500
  H    -31.421600  -39.837000  -90.534900
  C    -31.024100  -39.593700  -92.639500
  H    -30.203400  -39.336500  -93.282500
  H    -31.896800  -38.955600  -92.900800
  C    -31.472500  -41.033000  -92.906600
  H    -31.970400  -41.016400  -93.852400
  H    -32.140600  -41.376000  -92.113500
  H    -30.660600  -41.656000  -93.007700
  H    -25.379700  -37.217500  -94.108400
  H    -28.210500  -42.624100  -88.660800

 Total Charge           Charge          ....    0
 Multiplicity           Mult            ....    1
 Number of Electrons    NEL             ....  134
 Basis Dimension        Dim             ....  322

ORBITAL ENERGIES
----------------

  NO   OCC          E(Eh)            E(eV)
   0   2.0000     -88.969316     -2420.9782
   1   2.0000     -88.964565     -2420.8489
   2   2.0000     -10.331639      -281.1382
   3   2.0000     -10.330853      -281.1168
   4   2.0000     -10.317679      -280.7583
   5   2.0000     -10.310084      -280.5517
   6   2.0000     -10.307658      -280.4856
   7   2.0000     -10.301597      -280.3207
   8   2.0000     -10.300485      -280.2905
   9   2.0000     -10.298667      -280.2410
  10   2.0000     -10.289950      -280.0038
  11   2.0000     -10.283566      -279.8301
  12   2.0000     -10.283095      -279.8172
  13   2.0000     -10.280558      -279.7482
  14   2.0000     -10.274772      -279.5908
  15   2.0000     -10.261371      -279.2261
  16   2.0000      -8.083752      -219.9701
  17   2.0000      -8.078545      -219.8284
  18   2.0000      -6.042196      -164.4165
  19   2.0000      -6.038310      -164.3108
  20   2.0000      -6.037108      -164.2781
  21   2.0000      -6.034588      -164.2095
  22   2.0000      -6.033093      -164.1688
  23   2.0000      -6.029353      -164.0670
  24   2.0000      -1.003434       -27.3048
  25   2.0000      -0.979180       -26.6448
  26   2.0000      -0.916298       -24.9337
  27   2.0000      -0.912897       -24.8412
  28   2.0000      -0.869618       -23.6635
  29   2.0000      -0.849844       -23.1254
  30   2.0000      -0.842810       -22.9340
  31   2.0000      -0.816351       -22.2140
  32   2.0000      -0.784741       -21.3539
  33   2.0000      -0.774943       -21.0873
  34   2.0000      -0.714764       -19.4497
  35   2.0000      -0.701318       -19.0838
  36   2.0000      -0.691513       -18.8170
  37   2.0000      -0.661071       -17.9887
  38   2.0000      -0.636545       -17.3213
  39   2.0000      -0.621122       -16.9016
  40   2.0000      -0.596842       -16.2409
  41   2.0000      -0.566668       -15.4198
  42   2.0000      -0.557722       -15.1764
  43   2.0000      -0.554931       -15.1004
  44   2.0000      -0.551520       -15.0076
  45   2.0000      -0.537740       -14.6326
  46   2.0000      -0.520793       -14.1715
  47   2.0000      -0.512567       -13.9477
  48   2.0000      -0.504273       -13.7220
  49   2.0000      -0.493265       -13.4224
  50   2.0000      -0.490396       -13.3443
  51   2.0000      -0.482489       -13.1292
  52   2.0000      -0.470971       -12.8158
  53   2.0000      -0.464079       -12.6282
  54   2.0000      -0.460730       -12.5371
  55   2.0000      -0.443885       -12.0787
  56   2.0000      -0.440913       -11.9978
  57   2.0000      -0.437248       -11.8981
  58   2.0000      -0.430319       -11.7096
  59   2.0000      -0.426153       -11.5962
  60   2.0000      -0.419690       -11.4203
  61   2.0000      -0.417098       -11.3498
  62   2.0000      -0.407285       -11.0828
  63   2.0000      -0.350429        -9.5357
  64   2.0000      -0.331926        -9.0322
  65   2.0000      -0.328352        -8.9349
  66   2.0000      -0.286598        -7.7987
  67   0.0000       0.020743         0.5644
  68   0.0000       0.075958         2.0669
  69   0.0000       0.104131         2.8336
  70   0.0000       0.118291         3.2189
  71   0.0000       0.132459         3.6044

MULLIKEN ATOMIC CHARGES
-----------------------
   0 S :    0.123089
   1 C :   -0.101500
   2 C :   -0.098153
   3 C :   -0.003526
   4 C :   -0.142850
   5 H :    0.038791
   6 C :    0.059931
   7 H :    0.036700
   8 H :    0.009806
   9 C :   -0.059692
  10 H :    0.026112
  11 H :    0.021421
  12 C :   -0.041292
  13 H :    0.027473
  14 H :    0.052327
  15 H :    0.027486
  16 S :    0.086752
  17 C :   -0.074081
  18 C :   -0.039493
  19 C :   -0.028142
  20 C :   -0.151723
  21 H :    0.029408
  22 C :    0.054967
  23 H :    0.019372
  24 H :   -0.003954
  25 C :   -0.052186
  26 H :    0.039945
  27 H :    0.028312
  28 C :   -0.017561
  29 H :    0.021161
  30 H :    0.022257
  31 H :    0.026422
  32 H :    0.020344
  33 H :    0.042078
Sum of atomic charges:    0.0000000

LOEWDIN ATOMIC CHARGES
----------------------
   0 S :    0.412768
   1 C :   -0.188754
   2 C :   -0.062028
   3 C :   -0.071120
   4 C :   -0.199584
   5 H :    0.041302
   6 C :   -0.037100
   7 H :    0.035465
   8 H :    0.028640
   9 C :   -0.035800
  10 H :    0.028776
  11 H :    0.016276
  12 C :   -0.060539
  13 H :    0.025990
  14 H :    0.034180
  15 H :    0.019132
  16 S :    0.383948
  17 C :   -0.170320
  18 C :   -0.067830
  19 C :   -0.057800
  20 C :   -0.184804
  21 H :    0.034682
  22 C :   -0.047904
  23 H :    0.028538
  24 H :    0.032166
  25 C :   -0.032416
  26 H :    0.025327
  27 H :    0.028427
  28 C :   -0.053338
  29 H :    0.023218
  30 H :    0.023475
  31 H :    0.015679
  32 H :    0.009913
  33 H :    0.021435

  Mayer bond orders larger than 0.100000
B(  0-S ,  1-C ) :   1.1459 B(  0-S ,  4-C ) :   1.1530 B(  1-C ,  2-C ) :   1.5872
B(  1-C ,  4-C ) :   0.1012 B(  1-C , 32-H ) :   0.9735 B(  2-C ,  3-C ) :   1.2640
B(  2-C ,  6-C ) :   1.0210 B(  3-C ,  4-C ) :   1.5548 B(  3-C ,  5-H ) :   0.9754
B(  4-C , 20-C ) :   1.0673 B(  6-C ,  7-H ) :   0.9267 B(  6-C ,  8-H ) :   0.9428
B(  6-C ,  9-C ) :   1.0843 B(  9-C , 10-H ) :   0.9496 B(  9-C , 11-H ) :   0.9496
B(  9-C , 12-C ) :   1.0912 B( 12-C , 13-H ) :   0.9732 B( 12-C , 14-H ) :   0.9710
B( 12-C , 15-H ) :   0.9767 B( 16-S , 17-C ) :   1.1257 B( 16-S , 20-C ) :   1.1548
B( 17-C , 18-C ) :   1.6213 B( 17-C , 33-H ) :   0.9777 B( 18-C , 19-C ) :   1.2434
B( 18-C , 21-H ) :   0.9739 B( 19-C , 20-C ) :   1.5550 B( 19-C , 22-C ) :   1.0456
B( 22-C , 23-H ) :   0.9223 B( 22-C , 24-H ) :   0.9184 B( 22-C , 25-C ) :   1.0776
B( 25-C , 26-H ) :   0.9550 B( 25-C , 27-H ) :   0.9535 B( 25-C , 28-C ) :   1.0774
B( 28-C , 29-H ) :   0.9728 B( 28-C , 30-H ) :   0.9763 B( 28-C , 31-H ) :   0.9765

Dispersion correction           -0.014948501
FINAL SINGLE POINT ENERGY     -1339.873206418404

DIPOLE MOMENT
-------------
                                X             Y             Z
Electronic contribution:     16.66232     -16.38867       4.63857
Nuclear contribution   :    -17.17733      16.91359      -4.67941
                        -----------------------------------------
Total Dipole Moment    :     -0.51500       0.52492      -0.04084
                        -----------------------------------------
Magnitude (a.u.)       :      0.73651
Magnitude (Debye)      :      1.87205

Rotational constants in cm-1:     0.019099     0.008921     0.007661
Rotational constants in MHz :   572.563231   267.455995   229.682447

                             ****ORCA TERMINATED NORMALLY****
TOTAL RUN TIME: 0 days 0 hours 0 minutes 21 seconds 101 msec
