                         Program Version 4.2.1 -  RELEASE  -
|  1> ! wB97X-D3 SP def2-SVP
|  2> %pal
|  3> nprocs 24
|  4> end
|  5>
|  6> * xyz 0 1
|  7> S 	 -63.0527 	 4.51884 	 -74.8862
|  8> C 	 -63.3543 	 3.56253 	 -73.4801
|  9> C 	 -64.2997 	 4.18931 	 -72.6793
| 10> C 	 -65.0713 	 5.1591 	 -73.4085
| 11> C 	 -64.4252 	 5.52685 	 -74.61
| 12> H 	 -65.8664 	 5.75108 	 -73.0495
| 13> C 	 -64.6265 	 3.68902 	 -71.332
| 14> H 	 -64.566 	 2.61792 	 -71.3048
| 15> H 	 -65.7386 	 3.65514 	 -71.1718
| 16> C 	 -63.8003 	 4.33019 	 -70.125
| 17> H 	 -63.9234 	 3.66736 	 -69.2372
| 18> H 	 -62.7333 	 4.29255 	 -70.4831
| 19> C 	 -64.3124 	 5.75466 	 -69.8054
| 20> H 	 -63.7512 	 6.09292 	 -68.8977
| 21> H 	 -64.0632 	 6.45727 	 -70.6117
| 22> H 	 -65.3832 	 5.84128 	 -69.6507
| 23> S 	 -63.8265 	 7.57536 	 -76.2594
| 24> C 	 -64.9448 	 8.01744 	 -77.5062
| 25> C 	 -66.0944 	 7.24419 	 -77.472
| 26> C 	 -66.1534 	 6.40968 	 -76.3297
| 27> C 	 -64.9104 	 6.39418 	 -75.6364
| 28> H 	 -66.8207 	 7.48087 	 -78.2022
| 29> C 	 -67.3625 	 5.65202 	 -75.8948
| 30> H 	 -67.9079 	 6.11373 	 -75.0775
| 31> H 	 -67.0339 	 4.7208 	 -75.5127
| 32> C 	 -68.415 	 5.24634 	 -76.9984
| 33> H 	 -67.9752 	 4.74568 	 -77.8427
| 34> H 	 -68.8393 	 6.13867 	 -77.5198
| 35> C 	 -69.7594 	 4.52861 	 -76.4448
| 36> H 	 -70.4335 	 4.28536 	 -77.2008
| 37> H 	 -70.3355 	 5.14778 	 -75.7968
| 38> H 	 -69.2588 	 3.69561 	 -75.9294
| 39> H 	 -62.6683 	 2.79391 	 -73.1829
| 40> H 	 -64.7001 	 8.77069 	 -78.2679
| 41> *
| 42>
| 43>                          ****END OF INPUT****

CARTESIAN COORDINATES (ANGSTROEM)
---------------------------------
  S    -63.052700    4.518840  -74.886200
  C    -63.354300    3.562530  -73.480100
  C    -64.299700    4.189310  -72.679300
  C    -65.071300    5.159100  -73.408500
  C    -64.425200    5.526850  -74.610000
  H    -65.866400    5.751080  -73.049500
  C    -64.626500    3.689020  -71.332000
  H    -64.566000    2.617920  -71.304800
  H    -65.738600    3.655140  -71.171800
  C    -63.800300    4.330190  -70.125000
  H    -63.923400    3.667360  -69.237200
  H    -62.733300    4.292550  -70.483100
  C    -64.312400    5.754660  -69.805400
  H    -63.751200    6.092920  -68.897700
  H    -64.063200    6.457270  -70.611700
  H    -65.383200    5.841280  -69.650700
  S    -63.826500    7.575360  -76.259400
  C    -64.944800    8.017440  -77.506200
  C    -66.094400    7.244190  -77.472000
  C    -66.153400    6.409680  -76.329700
  C    -64.910400    6.394180  -75.636400
  H    -66.820700    7.480870  -78.202200
  C    -67.362500    5.652020  -75.894800
  H    -67.907900    6.113730  -75.077500
  H    -67.033900    4.720800  -75.512700
  C    -68.415000    5.246340  -76.998400
  H    -67.975200    4.745680  -77.842700
  H    -68.839300    6.138670  -77.519800
  C    -69.759400    4.528610  -76.444800
  H    -70.433500    4.285360  -77.200800
  H    -70.335500    5.147780  -75.796800
  H    -69.258800    3.695610  -75.929400
  H    -62.668300    2.793910  -73.182900
  H    -64.700100    8.770690  -78.267900

 Total Charge           Charge          ....    0
 Multiplicity           Mult            ....    1
 Number of Electrons    NEL             ....  134
 Basis Dimension        Dim             ....  322

ORBITAL ENERGIES
----------------

  NO   OCC          E(Eh)            E(eV)
   0   2.0000     -88.966160     -2420.8923
   1   2.0000     -88.964913     -2420.8584
   2   2.0000     -10.326514      -280.9987
   3   2.0000     -10.322568      -280.8914
   4   2.0000     -10.315361      -280.6952
   5   2.0000     -10.310753      -280.5699
   6   2.0000     -10.306194      -280.4458
   7   2.0000     -10.301222      -280.3105
   8   2.0000     -10.299423      -280.2616
   9   2.0000     -10.294324      -280.1228
  10   2.0000     -10.291723      -280.0520
  11   2.0000     -10.290593      -280.0213
  12   2.0000     -10.289657      -279.9958
  13   2.0000     -10.289043      -279.9791
  14   2.0000     -10.280876      -279.7569
  15   2.0000     -10.278428      -279.6902
  16   2.0000      -8.081727      -219.9150
  17   2.0000      -8.080548      -219.8829
  18   2.0000      -6.040010      -164.3570
  19   2.0000      -6.038866      -164.3259
  20   2.0000      -6.036007      -164.2481
  21   2.0000      -6.034845      -164.2165
  22   2.0000      -6.032804      -164.1610
  23   2.0000      -6.031530      -164.1263
  24   2.0000      -1.011523       -27.5249
  25   2.0000      -0.987288       -26.8655
  26   2.0000      -0.906915       -24.6784
  27   2.0000      -0.901538       -24.5321
  28   2.0000      -0.869805       -23.6686
  29   2.0000      -0.849008       -23.1027
  30   2.0000      -0.844461       -22.9789
  31   2.0000      -0.815643       -22.1948
  32   2.0000      -0.784292       -21.3417
  33   2.0000      -0.767924       -20.8963
  34   2.0000      -0.708734       -19.2856
  35   2.0000      -0.698865       -19.0171
  36   2.0000      -0.698441       -19.0056
  37   2.0000      -0.656080       -17.8528
  38   2.0000      -0.644896       -17.5485
  39   2.0000      -0.617479       -16.8024
  40   2.0000      -0.600305       -16.3351
  41   2.0000      -0.574450       -15.6316
  42   2.0000      -0.559942       -15.2368
  43   2.0000      -0.544401       -14.8139
  44   2.0000      -0.536045       -14.5865
  45   2.0000      -0.528325       -14.3765
  46   2.0000      -0.515531       -14.0283
  47   2.0000      -0.511013       -13.9054
  48   2.0000      -0.507941       -13.8218
  49   2.0000      -0.501237       -13.6393
  50   2.0000      -0.491356       -13.3705
  51   2.0000      -0.478512       -13.0210
  52   2.0000      -0.472817       -12.8660
  53   2.0000      -0.466310       -12.6890
  54   2.0000      -0.458808       -12.4848
  55   2.0000      -0.450726       -12.2649
  56   2.0000      -0.442107       -12.0303
  57   2.0000      -0.438688       -11.9373
  58   2.0000      -0.429999       -11.7009
  59   2.0000      -0.425807       -11.5868
  60   2.0000      -0.424642       -11.5551
  61   2.0000      -0.407843       -11.0980
  62   2.0000      -0.400967       -10.9109
  63   2.0000      -0.345223        -9.3940
  64   2.0000      -0.331471        -9.0198
  65   2.0000      -0.329317        -8.9612
  66   2.0000      -0.286143        -7.7864
  67   0.0000       0.030005         0.8165
  68   0.0000       0.063325         1.7232
  69   0.0000       0.113909         3.0996
  70   0.0000       0.124282         3.3819
  71   0.0000       0.127339         3.4651

MULLIKEN ATOMIC CHARGES
-----------------------
   0 S :    0.122221
   1 C :   -0.117451
   2 C :   -0.067629
   3 C :    0.031562
   4 C :   -0.152472
   5 H :    0.004042
   6 C :    0.010290
   7 H :    0.012050
   8 H :    0.020547
   9 C :   -0.071572
  10 H :    0.040164
  11 H :    0.043844
  12 C :   -0.060003
  13 H :    0.041531
  14 H :    0.041664
  15 H :    0.033615
  16 S :    0.119385
  17 C :   -0.108514
  18 C :   -0.029371
  19 C :   -0.002118
  20 C :   -0.175262
  21 H :    0.008028
  22 C :    0.089686
  23 H :    0.039223
  24 H :    0.021889
  25 C :   -0.137395
  26 H :    0.032046
  27 H :    0.022013
  28 C :   -0.025939
  29 H :    0.028014
  30 H :    0.028195
  31 H :    0.040918
  32 H :    0.051976
  33 H :    0.064823
Sum of atomic charges:    0.0000000

LOEWDIN ATOMIC CHARGES
----------------------
   0 S :    0.432297
   1 C :   -0.200935
   2 C :   -0.064342
   3 C :   -0.057026
   4 C :   -0.206667
   5 H :    0.024892
   6 C :   -0.052088
   7 H :    0.027876
   8 H :    0.033441
   9 C :   -0.036394
  10 H :    0.026933
  11 H :    0.031613
  12 C :   -0.072193
  13 H :    0.031596
  14 H :    0.028437
  15 H :    0.023798
  16 S :    0.431923
  17 C :   -0.195140
  18 C :   -0.068181
  19 C :   -0.048920
  20 C :   -0.217174
  21 H :    0.028012
  22 C :   -0.032075
  23 H :    0.034424
  24 H :    0.028593
  25 C :   -0.041798
  26 H :    0.020089
  27 H :    0.017734
  28 C :   -0.055827
  29 H :    0.019612
  30 H :    0.020969
  31 H :    0.029991
  32 H :    0.024527
  33 H :    0.032003

  Mayer bond orders larger than 0.100000
B(  0-S ,  1-C ) :   1.1584 B(  0-S ,  4-C ) :   1.1756 B(  1-C ,  2-C ) :   1.5734
B(  1-C ,  4-C ) :   0.1032 B(  1-C , 32-H ) :   0.9700 B(  2-C ,  3-C ) :   1.2467
B(  2-C ,  6-C ) :   1.0347 B(  3-C ,  4-C ) :   1.5283 B(  3-C ,  5-H ) :   1.0045
B(  4-C , 20-C ) :   1.0581 B(  6-C ,  7-H ) :   0.9406 B(  6-C ,  8-H ) :   0.9441
B(  6-C ,  9-C ) :   1.0454 B(  9-C , 10-H ) :   0.9579 B(  9-C , 11-H ) :   0.9572
B(  9-C , 12-C ) :   1.0716 B( 12-C , 13-H ) :   0.9745 B( 12-C , 14-H ) :   0.9753
B( 12-C , 15-H ) :   0.9767 B( 16-S , 17-C ) :   1.1696 B( 16-S , 20-C ) :   1.1702
B( 17-C , 18-C ) :   1.5797 B( 17-C , 20-C ) :   0.1086 B( 17-C , 33-H ) :   0.9632
B( 18-C , 19-C ) :   1.2646 B( 18-C , 21-H ) :   1.0000 B( 19-C , 20-C ) :   1.5271
B( 19-C , 22-C ) :   1.0490 B( 22-C , 23-H ) :   0.9338 B( 22-C , 24-H ) :   0.9196
B( 22-C , 25-C ) :   1.0594 B( 25-C , 26-H ) :   0.9637 B( 25-C , 27-H ) :   0.9521
B( 25-C , 28-C ) :   1.0631 B( 28-C , 29-H ) :   0.9757 B( 28-C , 30-H ) :   0.9779
B( 28-C , 31-H ) :   0.9826

Dispersion correction           -0.014071314
FINAL SINGLE POINT ENERGY     -1339.862494009065

DIPOLE MOMENT
-------------
                                X             Y             Z
Electronic contribution:     19.43644       7.08575     -13.92381
Nuclear contribution   :    -19.88475      -7.20242      14.15201
                        -----------------------------------------
Total Dipole Moment    :     -0.44831      -0.11667       0.22820
                        -----------------------------------------
Magnitude (a.u.)       :      0.51640
Magnitude (Debye)      :      1.31259

Rotational constants in cm-1:     0.017622     0.008299     0.006697
Rotational constants in MHz :   528.294984   248.797644   200.766951

                             ****ORCA TERMINATED NORMALLY****
TOTAL RUN TIME: 0 days 0 hours 0 minutes 21 seconds 163 msec
