                         Program Version 4.2.1 -  RELEASE  -
|  1> ! wB97X-D3 SP def2-SVP
|  2> %pal
|  3> nprocs 24
|  4> end
|  5>
|  6> * xyz 0 1
|  7> S 	 -16.1336 	 -32.6891 	 -104.72
|  8> C 	 -15.3059 	 -32.5944 	 -103.202
|  9> C 	 -14.4418 	 -33.6451 	 -102.985
| 10> C 	 -14.3954 	 -34.4534 	 -104.158
| 11> C 	 -15.0522 	 -33.9421 	 -105.304
| 12> H 	 -13.7108 	 -35.2615 	 -104.28
| 13> C 	 -13.8562 	 -33.9819 	 -101.601
| 14> H 	 -14.5231 	 -34.8678 	 -101.332
| 15> H 	 -14.0705 	 -33.2569 	 -100.837
| 16> C 	 -12.4336 	 -34.3492 	 -101.398
| 17> H 	 -12.3453 	 -34.4803 	 -100.356
| 18> H 	 -12.2756 	 -35.3394 	 -101.767
| 19> C 	 -11.4769 	 -33.3127 	 -101.798
| 20> H 	 -11.3348 	 -32.587 	 -100.914
| 21> H 	 -10.5375 	 -33.7544 	 -102.169
| 22> H 	 -11.8191 	 -32.5972 	 -102.56
| 23> S 	 -16.4579 	 -34.5987 	 -107.55
| 24> C 	 -15.6755 	 -35.3534 	 -108.976
| 25> C 	 -14.2906 	 -35.4364 	 -108.723
| 26> C 	 -13.9023 	 -34.9197 	 -107.416
| 27> C 	 -14.9684 	 -34.4047 	 -106.693
| 28> H 	 -13.6686 	 -35.8479 	 -109.449
| 29> C 	 -12.4085 	 -34.8518 	 -106.949
| 30> H 	 -12.0776 	 -35.923 	 -106.991
| 31> H 	 -12.3788 	 -34.6391 	 -105.873
| 32> C 	 -11.4059 	 -34.0993 	 -107.833
| 33> H 	 -11.5251 	 -34.5824 	 -108.78
| 34> H 	 -10.3606 	 -34.1878 	 -107.491
| 35> C 	 -11.7634 	 -32.6682 	 -107.919
| 36> H 	 -12.8154 	 -32.5465 	 -108.249
| 37> H 	 -11.2479 	 -32.1565 	 -108.736
| 38> H 	 -11.4993 	 -32.1383 	 -106.984
| 39> H 	 -15.6001 	 -31.8344 	 -102.45
| 40> H 	 -16.0747 	 -35.6924 	 -109.938
| 41> *
| 42>
| 43>                          ****END OF INPUT****

CARTESIAN COORDINATES (ANGSTROEM)
---------------------------------
  S    -16.133600  -32.689100  -104.720000
  C    -15.305900  -32.594400  -103.202000
  C    -14.441800  -33.645100  -102.985000
  C    -14.395400  -34.453400  -104.158000
  C    -15.052200  -33.942100  -105.304000
  H    -13.710800  -35.261500  -104.280000
  C    -13.856200  -33.981900  -101.601000
  H    -14.523100  -34.867800  -101.332000
  H    -14.070500  -33.256900  -100.837000
  C    -12.433600  -34.349200  -101.398000
  H    -12.345300  -34.480300  -100.356000
  H    -12.275600  -35.339400  -101.767000
  C    -11.476900  -33.312700  -101.798000
  H    -11.334800  -32.587000  -100.914000
  H    -10.537500  -33.754400  -102.169000
  H    -11.819100  -32.597200  -102.560000
  S    -16.457900  -34.598700  -107.550000
  C    -15.675500  -35.353400  -108.976000
  C    -14.290600  -35.436400  -108.723000
  C    -13.902300  -34.919700  -107.416000
  C    -14.968400  -34.404700  -106.693000
  H    -13.668600  -35.847900  -109.449000
  C    -12.408500  -34.851800  -106.949000
  H    -12.077600  -35.923000  -106.991000
  H    -12.378800  -34.639100  -105.873000
  C    -11.405900  -34.099300  -107.833000
  H    -11.525100  -34.582400  -108.780000
  H    -10.360600  -34.187800  -107.491000
  C    -11.763400  -32.668200  -107.919000
  H    -12.815400  -32.546500  -108.249000
  H    -11.247900  -32.156500  -108.736000
  H    -11.499300  -32.138300  -106.984000
  H    -15.600100  -31.834400  -102.450000
  H    -16.074700  -35.692400  -109.938000

 Total Charge           Charge          ....    0
 Multiplicity           Mult            ....    1
 Number of Electrons    NEL             ....  134
 Basis Dimension        Dim             ....  322

ORBITAL ENERGIES
----------------

  NO   OCC          E(Eh)            E(eV)
   0   2.0000     -88.967803     -2420.9370
   1   2.0000     -88.965039     -2420.8618
   2   2.0000     -10.335421      -281.2411
   3   2.0000     -10.331090      -281.1232
   4   2.0000     -10.327882      -281.0360
   5   2.0000     -10.314167      -280.6628
   6   2.0000     -10.311104      -280.5794
   7   2.0000     -10.304489      -280.3994
   8   2.0000     -10.299041      -280.2512
   9   2.0000     -10.296370      -280.1785
  10   2.0000     -10.295893      -280.1655
  11   2.0000     -10.294744      -280.1342
  12   2.0000     -10.282030      -279.7883
  13   2.0000     -10.281235      -279.7666
  14   2.0000     -10.274790      -279.5912
  15   2.0000     -10.268847      -279.4295
  16   2.0000      -8.082090      -219.9248
  17   2.0000      -8.080181      -219.8729
  18   2.0000      -6.040811      -164.3788
  19   2.0000      -6.038669      -164.3205
  20   2.0000      -6.036555      -164.2630
  21   2.0000      -6.034694      -164.2124
  22   2.0000      -6.032729      -164.1589
  23   2.0000      -6.030876      -164.1085
  24   2.0000      -1.005342       -27.3567
  25   2.0000      -0.982389       -26.7322
  26   2.0000      -0.924111       -25.1463
  27   2.0000      -0.909516       -24.7492
  28   2.0000      -0.871962       -23.7273
  29   2.0000      -0.850168       -23.1343
  30   2.0000      -0.842748       -22.9323
  31   2.0000      -0.813773       -22.1439
  32   2.0000      -0.784436       -21.3456
  33   2.0000      -0.772356       -21.0169
  34   2.0000      -0.710185       -19.3251
  35   2.0000      -0.692668       -18.8484
  36   2.0000      -0.691317       -18.8117
  37   2.0000      -0.660232       -17.9658
  38   2.0000      -0.638725       -17.3806
  39   2.0000      -0.625321       -17.0158
  40   2.0000      -0.591615       -16.0987
  41   2.0000      -0.574058       -15.6209
  42   2.0000      -0.557239       -15.1632
  43   2.0000      -0.552792       -15.0422
  44   2.0000      -0.546453       -14.8697
  45   2.0000      -0.544551       -14.8180
  46   2.0000      -0.521053       -14.1786
  47   2.0000      -0.513978       -13.9860
  48   2.0000      -0.501600       -13.6492
  49   2.0000      -0.497840       -13.5469
  50   2.0000      -0.492969       -13.4144
  51   2.0000      -0.482905       -13.1405
  52   2.0000      -0.469295       -12.7702
  53   2.0000      -0.464958       -12.6521
  54   2.0000      -0.458436       -12.4747
  55   2.0000      -0.445354       -12.1187
  56   2.0000      -0.438458       -11.9311
  57   2.0000      -0.429502       -11.6874
  58   2.0000      -0.424839       -11.5605
  59   2.0000      -0.422384       -11.4936
  60   2.0000      -0.417165       -11.3516
  61   2.0000      -0.412634       -11.2284
  62   2.0000      -0.411406       -11.1949
  63   2.0000      -0.353089        -9.6080
  64   2.0000      -0.330680        -8.9983
  65   2.0000      -0.327329        -8.9071
  66   2.0000      -0.287828        -7.8322
  67   0.0000       0.021699         0.5905
  68   0.0000       0.072955         1.9852
  69   0.0000       0.102203         2.7811
  70   0.0000       0.119478         3.2512
  71   0.0000       0.126176         3.4334

MULLIKEN ATOMIC CHARGES
-----------------------
   0 S :    0.108873
   1 C :   -0.137666
   2 C :   -0.075188
   3 C :    0.045983
   4 C :   -0.166854
   5 H :    0.005570
   6 C :    0.006822
   7 H :    0.052155
   8 H :    0.012853
   9 C :    0.005472
  10 H :    0.014525
  11 H :    0.014175
  12 C :   -0.078471
  13 H :    0.033622
  14 H :    0.043770
  15 H :    0.040750
  16 S :    0.098462
  17 C :   -0.094144
  18 C :   -0.030043
  19 C :   -0.072676
  20 C :   -0.113933
  21 H :    0.002798
  22 C :    0.042191
  23 H :    0.030317
  24 H :    0.019884
  25 C :   -0.034977
  26 H :    0.014218
  27 H :    0.035633
  28 C :   -0.055884
  29 H :    0.043236
  30 H :    0.021703
  31 H :    0.039286
  32 H :    0.061512
  33 H :    0.066026
Sum of atomic charges:    0.0000000

LOEWDIN ATOMIC CHARGES
----------------------
   0 S :    0.407294
   1 C :   -0.202338
   2 C :   -0.069218
   3 C :   -0.060015
   4 C :   -0.190504
   5 H :    0.020805
   6 C :   -0.030676
   7 H :    0.047892
   8 H :    0.026140
   9 C :   -0.052898
  10 H :    0.027086
  11 H :    0.019316
  12 C :   -0.073496
  13 H :    0.036244
  14 H :    0.031663
  15 H :    0.027716
  16 S :    0.400191
  17 C :   -0.179309
  18 C :   -0.061767
  19 C :   -0.056921
  20 C :   -0.203256
  21 H :    0.019855
  22 C :   -0.034919
  23 H :    0.034795
  24 H :    0.024915
  25 C :   -0.042739
  26 H :    0.019356
  27 H :    0.030552
  28 C :   -0.071742
  29 H :    0.031948
  30 H :    0.022833
  31 H :    0.029586
  32 H :    0.033059
  33 H :    0.038555

  Mayer bond orders larger than 0.100000
B(  0-S ,  1-C ) :   1.1525 B(  0-S ,  4-C ) :   1.1562 B(  1-C ,  2-C ) :   1.5893
B(  1-C ,  4-C ) :   0.1036 B(  1-C , 32-H ) :   0.9636 B(  2-C ,  3-C ) :   1.2632
B(  2-C ,  6-C ) :   1.0101 B(  3-C ,  4-C ) :   1.5391 B(  3-C ,  5-H ) :   0.9878
B(  4-C , 20-C ) :   1.0527 B(  6-C ,  7-H ) :   0.9349 B(  6-C ,  8-H ) :   0.9495
B(  6-C ,  9-C ) :   1.0904 B(  9-C , 10-H ) :   0.9456 B(  9-C , 11-H ) :   0.9502
B(  9-C , 12-C ) :   1.0670 B( 12-C , 13-H ) :   0.9716 B( 12-C , 14-H ) :   0.9738
B( 12-C , 15-H ) :   0.9797 B( 16-S , 17-C ) :   1.1395 B( 16-S , 20-C ) :   1.1383
B( 17-C , 18-C ) :   1.6193 B( 17-C , 33-H ) :   0.9666 B( 18-C , 19-C ) :   1.2252
B( 18-C , 21-H ) :   0.9961 B( 19-C , 20-C ) :   1.5975 B( 19-C , 22-C ) :   1.0301
B( 22-C , 23-H ) :   0.9339 B( 22-C , 24-H ) :   0.9369 B( 22-C , 25-C ) :   1.0680
B( 25-C , 26-H ) :   0.9497 B( 25-C , 27-H ) :   0.9511 B( 25-C , 28-C ) :   1.0976
B( 28-C , 29-H ) :   0.9694 B( 28-C , 30-H ) :   0.9704 B( 28-C , 31-H ) :   0.9733

Dispersion correction           -0.014527048
FINAL SINGLE POINT ENERGY     -1339.861330535180

DIPOLE MOMENT
-------------
                                X             Y             Z
Electronic contribution:    -26.67859      -0.60044      -9.46058
Nuclear contribution   :     27.30180       0.33661       9.69092
                        -----------------------------------------
Total Dipole Moment    :      0.62321      -0.26384       0.23034
                        -----------------------------------------
Magnitude (a.u.)       :      0.71488
Magnitude (Debye)      :      1.81709

Rotational constants in cm-1:     0.018760     0.009250     0.007099
Rotational constants in MHz :   562.404557   277.296116   212.822067

                             ****ORCA TERMINATED NORMALLY****
TOTAL RUN TIME: 0 days 0 hours 0 minutes 22 seconds 175 msec
