                         Program Version 4.2.1 -  RELEASE  -
|  1> ! wB97X-D3 SP def2-SVP
|  2> %pal
|  3> nprocs 24
|  4> end
|  5>
|  6> * xyz 0 1
|  7> S 	 23.7823 	 -5.06388 	 -114.713
|  8> C 	 22.9327 	 -6.50163 	 -114.266
|  9> C 	 21.7131 	 -6.17506 	 -113.564
| 10> C 	 21.6131 	 -4.77422 	 -113.339
| 11> C 	 22.6746 	 -4.03977 	 -113.915
| 12> H 	 20.766 	 -4.27875 	 -112.866
| 13> C 	 20.6001 	 -7.09583 	 -113.034
| 14> H 	 20.2992 	 -6.65522 	 -112.077
| 15> H 	 21.0771 	 -8.06132 	 -112.908
| 16> C 	 19.3155 	 -7.171 	 -113.909
| 17> H 	 18.8791 	 -6.19799 	 -113.916
| 18> H 	 19.6037 	 -7.30351 	 -114.962
| 19> C 	 18.3087 	 -8.27351 	 -113.627
| 20> H 	 18.8014 	 -9.18798 	 -113.953
| 21> H 	 17.9816 	 -8.34522 	 -112.633
| 22> H 	 17.5042 	 -8.09047 	 -114.349
| 23> S 	 24.4984 	 -2.11611 	 -113.323
| 24> C 	 24.1204 	 -0.398992 	 -113.464
| 25> C 	 22.8047 	 -0.267971 	 -113.919
| 26> C 	 22.113 	 -1.50299 	 -114.091
| 27> C 	 22.9287 	 -2.5823 	 -113.906
| 28> H 	 22.2999 	 0.692295 	 -114.114
| 29> C 	 20.7289 	 -1.55128 	 -114.605
| 30> H 	 20.0956 	 -0.787511 	 -114.108
| 31> H 	 20.1684 	 -2.43839 	 -114.261
| 32> C 	 20.7422 	 -1.49033 	 -116.142
| 33> H 	 21.1912 	 -2.34662 	 -116.598
| 34> H 	 21.2919 	 -0.652659 	 -116.412
| 35> C 	 19.3451 	 -1.29582 	 -116.651
| 36> H 	 18.779 	 -2.24839 	 -116.584
| 37> H 	 19.3673 	 -1.15033 	 -117.713
| 38> H 	 18.6691 	 -0.508807 	 -116.251
| 39> H 	 23.3318 	 -7.52356 	 -114.272
| 40> H 	 24.832 	 0.349241 	 -113.476
| 41> *
| 42>
| 43>                          ****END OF INPUT****

CARTESIAN COORDINATES (ANGSTROEM)
---------------------------------
  S     23.782300   -5.063880  -114.713000
  C     22.932700   -6.501630  -114.266000
  C     21.713100   -6.175060  -113.564000
  C     21.613100   -4.774220  -113.339000
  C     22.674600   -4.039770  -113.915000
  H     20.766000   -4.278750  -112.866000
  C     20.600100   -7.095830  -113.034000
  H     20.299200   -6.655220  -112.077000
  H     21.077100   -8.061320  -112.908000
  C     19.315500   -7.171000  -113.909000
  H     18.879100   -6.197990  -113.916000
  H     19.603700   -7.303510  -114.962000
  C     18.308700   -8.273510  -113.627000
  H     18.801400   -9.187980  -113.953000
  H     17.981600   -8.345220  -112.633000
  H     17.504200   -8.090470  -114.349000
  S     24.498400   -2.116110  -113.323000
  C     24.120400   -0.398992  -113.464000
  C     22.804700   -0.267971  -113.919000
  C     22.113000   -1.502990  -114.091000
  C     22.928700   -2.582300  -113.906000
  H     22.299900    0.692295  -114.114000
  C     20.728900   -1.551280  -114.605000
  H     20.095600   -0.787511  -114.108000
  H     20.168400   -2.438390  -114.261000
  C     20.742200   -1.490330  -116.142000
  H     21.191200   -2.346620  -116.598000
  H     21.291900   -0.652659  -116.412000
  C     19.345100   -1.295820  -116.651000
  H     18.779000   -2.248390  -116.584000
  H     19.367300   -1.150330  -117.713000
  H     18.669100   -0.508807  -116.251000
  H     23.331800   -7.523560  -114.272000
  H     24.832000    0.349241  -113.476000

 Total Charge           Charge          ....    0
 Multiplicity           Mult            ....    1
 Number of Electrons    NEL             ....  134
 Basis Dimension        Dim             ....  322

ORBITAL ENERGIES
----------------

  NO   OCC          E(Eh)            E(eV)
   0   2.0000     -88.971498     -2421.0375
   1   2.0000     -88.963013     -2420.8067
   2   2.0000     -10.329819      -281.0887
   3   2.0000     -10.323610      -280.9197
   4   2.0000     -10.318172      -280.7717
   5   2.0000     -10.315448      -280.6976
   6   2.0000     -10.307383      -280.4782
   7   2.0000     -10.297484      -280.2088
   8   2.0000     -10.296015      -280.1688
   9   2.0000     -10.295353      -280.1508
  10   2.0000     -10.295154      -280.1454
  11   2.0000     -10.289684      -279.9965
  12   2.0000     -10.283911      -279.8395
  13   2.0000     -10.277630      -279.6685
  14   2.0000     -10.276402      -279.6351
  15   2.0000     -10.274497      -279.5833
  16   2.0000      -8.086653      -220.0490
  17   2.0000      -8.077860      -219.8097
  18   2.0000      -6.044997      -164.4927
  19   2.0000      -6.040813      -164.3789
  20   2.0000      -6.037867      -164.2987
  21   2.0000      -6.036387      -164.2584
  22   2.0000      -6.032247      -164.1458
  23   2.0000      -6.028689      -164.0490
  24   2.0000      -1.008619       -27.4459
  25   2.0000      -0.984169       -26.7806
  26   2.0000      -0.915899       -24.9229
  27   2.0000      -0.909330       -24.7441
  28   2.0000      -0.866097       -23.5677
  29   2.0000      -0.855862       -23.2892
  30   2.0000      -0.849490       -23.1158
  31   2.0000      -0.810226       -22.0474
  32   2.0000      -0.781413       -21.2633
  33   2.0000      -0.770958       -20.9788
  34   2.0000      -0.707077       -19.2405
  35   2.0000      -0.700262       -19.0551
  36   2.0000      -0.694800       -18.9065
  37   2.0000      -0.667058       -18.1516
  38   2.0000      -0.638719       -17.3804
  39   2.0000      -0.619228       -16.8501
  40   2.0000      -0.602041       -16.3824
  41   2.0000      -0.570939       -15.5360
  42   2.0000      -0.564572       -15.3628
  43   2.0000      -0.556039       -15.1306
  44   2.0000      -0.529558       -14.4100
  45   2.0000      -0.527045       -14.3416
  46   2.0000      -0.519933       -14.1481
  47   2.0000      -0.516578       -14.0568
  48   2.0000      -0.506566       -13.7844
  49   2.0000      -0.496871       -13.5206
  50   2.0000      -0.492293       -13.3960
  51   2.0000      -0.487721       -13.2716
  52   2.0000      -0.470534       -12.8039
  53   2.0000      -0.461023       -12.5451
  54   2.0000      -0.456922       -12.4335
  55   2.0000      -0.449166       -12.2224
  56   2.0000      -0.445821       -12.1314
  57   2.0000      -0.436567       -11.8796
  58   2.0000      -0.433718       -11.8021
  59   2.0000      -0.427409       -11.6304
  60   2.0000      -0.421367       -11.4660
  61   2.0000      -0.417967       -11.3735
  62   2.0000      -0.413782       -11.2596
  63   2.0000      -0.342079        -9.3084
  64   2.0000      -0.330628        -8.9968
  65   2.0000      -0.328069        -8.9272
  66   2.0000      -0.292275        -7.9532
  67   0.0000       0.027424         0.7463
  68   0.0000       0.071215         1.9379
  69   0.0000       0.115387         3.1398
  70   0.0000       0.117476         3.1967
  71   0.0000       0.127722         3.4755

MULLIKEN ATOMIC CHARGES
-----------------------
   0 S :    0.134213
   1 C :   -0.129506
   2 C :   -0.128732
   3 C :    0.034190
   4 C :   -0.167182
   5 H :    0.019610
   6 C :    0.083264
   7 H :    0.029169
   8 H :    0.014667
   9 C :   -0.088086
  10 H :    0.011047
  11 H :    0.023686
  12 C :   -0.006419
  13 H :    0.027187
  14 H :    0.029828
  15 H :    0.036723
  16 S :    0.098174
  17 C :   -0.058831
  18 C :   -0.045041
  19 C :   -0.031514
  20 C :   -0.143271
  21 H :    0.026231
  22 C :    0.032384
  23 H :    0.023263
  24 H :    0.007904
  25 C :    0.002517
  26 H :    0.033400
  27 H :    0.007449
  28 C :   -0.056877
  29 H :    0.023469
  30 H :    0.020027
  31 H :    0.038109
  32 H :    0.061487
  33 H :    0.037459
Sum of atomic charges:    0.0000000

LOEWDIN ATOMIC CHARGES
----------------------
   0 S :    0.450744
   1 C :   -0.228614
   2 C :   -0.055567
   3 C :   -0.069142
   4 C :   -0.212262
   5 H :    0.030529
   6 C :   -0.028933
   7 H :    0.032206
   8 H :    0.025628
   9 C :   -0.042977
  10 H :    0.014756
  11 H :    0.026520
  12 C :   -0.055014
  13 H :    0.027383
  14 H :    0.016296
  15 H :    0.034121
  16 S :    0.406416
  17 C :   -0.173635
  18 C :   -0.063967
  19 C :   -0.064830
  20 C :   -0.203155
  21 H :    0.033932
  22 C :   -0.036288
  23 H :    0.033326
  24 H :    0.028163
  25 C :   -0.023736
  26 H :    0.030917
  27 H :    0.015747
  28 C :   -0.072799
  29 H :    0.026756
  30 H :    0.021894
  31 H :    0.028233
  32 H :    0.033008
  33 H :    0.014343

  Mayer bond orders larger than 0.100000
B(  0-S ,  1-C ) :   1.1637 B(  0-S ,  4-C ) :   1.1990 B(  1-C ,  2-C ) :   1.5435
B(  1-C ,  4-C ) :   0.1140 B(  1-C , 32-H ) :   0.9657 B(  2-C ,  3-C ) :   1.2992
B(  2-C ,  6-C ) :   1.0289 B(  3-C ,  4-C ) :   1.5165 B(  3-C ,  5-H ) :   0.9880
B(  4-C , 20-C ) :   0.9985 B(  6-C ,  7-H ) :   0.9392 B(  6-C ,  8-H ) :   0.9409
B(  6-C ,  9-C ) :   1.0576 B(  9-C , 10-H ) :   0.9544 B(  9-C , 11-H ) :   0.9565
B(  9-C , 12-C ) :   1.0845 B( 12-C , 13-H ) :   0.9755 B( 12-C , 14-H ) :   0.9776
B( 12-C , 15-H ) :   0.9717 B( 16-S , 17-C ) :   1.1528 B( 16-S , 20-C ) :   1.1527
B( 17-C , 18-C ) :   1.5857 B( 17-C , 20-C ) :   0.1043 B( 17-C , 33-H ) :   0.9782
B( 18-C , 19-C ) :   1.2535 B( 18-C , 21-H ) :   0.9820 B( 19-C , 20-C ) :   1.5994
B( 19-C , 22-C ) :   1.0675 B( 22-C , 23-H ) :   0.9336 B( 22-C , 24-H ) :   0.9266
B( 22-C , 25-C ) :   1.0598 B( 25-C , 26-H ) :   0.9491 B( 25-C , 27-H ) :   0.9558
B( 25-C , 28-C ) :   1.0903 B( 28-C , 29-H ) :   0.9705 B( 28-C , 30-H ) :   0.9697
B( 28-C , 31-H ) :   0.9754

Dispersion correction           -0.013861181
FINAL SINGLE POINT ENERGY     -1339.878956831480

DIPOLE MOMENT
-------------
                                X             Y             Z
Electronic contribution:     29.24680       6.50578       6.06031
Nuclear contribution   :    -29.87868      -6.49548      -6.18650
                        -----------------------------------------
Total Dipole Moment    :     -0.63188       0.01030      -0.12619
                        -----------------------------------------
Magnitude (a.u.)       :      0.64444
Magnitude (Debye)      :      1.63803

Rotational constants in cm-1:     0.018341     0.008518     0.006522
Rotational constants in MHz :   549.859713   255.350791   195.533924

                             ****ORCA TERMINATED NORMALLY****
TOTAL RUN TIME: 0 days 0 hours 0 minutes 21 seconds 449 msec
