                         Program Version 4.2.1 -  RELEASE  -
|  1> ! wB97X-D3 SP def2-SVP
|  2> %pal
|  3> nprocs 24
|  4> end
|  5>
|  6> * xyz 0 1
|  7> S 	 -38.4983 	 -13.856 	 16.3074
|  8> C 	 -38.6897 	 -12.3889 	 17.2775
|  9> C 	 -37.4939 	 -11.8001 	 17.6239
| 10> C 	 -36.3806 	 -12.5591 	 17.2152
| 11> C 	 -36.7268 	 -13.6801 	 16.4483
| 12> H 	 -35.3482 	 -12.2535 	 17.4577
| 13> C 	 -37.3532 	 -10.5099 	 18.3679
| 14> H 	 -36.4784 	 -10.6022 	 19.0495
| 15> H 	 -38.2034 	 -10.4965 	 18.9976
| 16> C 	 -37.1525 	 -9.26816 	 17.5067
| 17> H 	 -37.1291 	 -8.40195 	 18.1772
| 18> H 	 -36.1225 	 -9.36047 	 17.1252
| 19> C 	 -38.1414 	 -9.05427 	 16.3642
| 20> H 	 -39.1094 	 -8.75488 	 16.7886
| 21> H 	 -37.8625 	 -8.19542 	 15.7244
| 22> H 	 -38.3529 	 -9.96495 	 15.6852
| 23> S 	 -36.0468 	 -16.3772 	 16.0881
| 24> C 	 -34.4274 	 -16.7432 	 15.5194
| 25> C 	 -33.8216 	 -15.5948 	 14.981
| 26> C 	 -34.4587 	 -14.3962 	 15.2693
| 27> C 	 -35.7562 	 -14.6202 	 15.8344
| 28> H 	 -32.7829 	 -15.6311 	 14.5973
| 29> C 	 -33.8228 	 -13.1189 	 14.8758
| 30> H 	 -33.0629 	 -13.4137 	 14.1337
| 31> H 	 -33.3322 	 -12.7527 	 15.777
| 32> C 	 -34.5448 	 -11.998 	 14.2085
| 33> H 	 -35.0728 	 -11.521 	 15.0333
| 34> H 	 -35.2543 	 -12.4772 	 13.6138
| 35> C 	 -33.5818 	 -11.0794 	 13.4951
| 36> H 	 -33.2243 	 -11.5519 	 12.6369
| 37> H 	 -32.7576 	 -10.7769 	 14.0914
| 38> H 	 -34.1107 	 -10.1325 	 13.2017
| 39> H 	 -39.7014 	 -12.0236 	 17.6051
| 40> H 	 -33.7897 	 -17.6499 	 15.6254
| 41> *
| 42>
| 43>                          ****END OF INPUT****

CARTESIAN COORDINATES (ANGSTROEM)
---------------------------------
  S    -38.498300  -13.856000   16.307400
  C    -38.689700  -12.388900   17.277500
  C    -37.493900  -11.800100   17.623900
  C    -36.380600  -12.559100   17.215200
  C    -36.726800  -13.680100   16.448300
  H    -35.348200  -12.253500   17.457700
  C    -37.353200  -10.509900   18.367900
  H    -36.478400  -10.602200   19.049500
  H    -38.203400  -10.496500   18.997600
  C    -37.152500   -9.268160   17.506700
  H    -37.129100   -8.401950   18.177200
  H    -36.122500   -9.360470   17.125200
  C    -38.141400   -9.054270   16.364200
  H    -39.109400   -8.754880   16.788600
  H    -37.862500   -8.195420   15.724400
  H    -38.352900   -9.964950   15.685200
  S    -36.046800  -16.377200   16.088100
  C    -34.427400  -16.743200   15.519400
  C    -33.821600  -15.594800   14.981000
  C    -34.458700  -14.396200   15.269300
  C    -35.756200  -14.620200   15.834400
  H    -32.782900  -15.631100   14.597300
  C    -33.822800  -13.118900   14.875800
  H    -33.062900  -13.413700   14.133700
  H    -33.332200  -12.752700   15.777000
  C    -34.544800  -11.998000   14.208500
  H    -35.072800  -11.521000   15.033300
  H    -35.254300  -12.477200   13.613800
  C    -33.581800  -11.079400   13.495100
  H    -33.224300  -11.551900   12.636900
  H    -32.757600  -10.776900   14.091400
  H    -34.110700  -10.132500   13.201700
  H    -39.701400  -12.023600   17.605100
  H    -33.789700  -17.649900   15.625400

 Total Charge           Charge          ....    0
 Multiplicity           Mult            ....    1
 Number of Electrons    NEL             ....  134
 Basis Dimension        Dim             ....  322

ORBITAL ENERGIES
----------------

  NO   OCC          E(Eh)            E(eV)
   0   2.0000     -88.971526     -2421.0383
   1   2.0000     -88.969846     -2420.9926
   2   2.0000     -10.337185      -281.2891
   3   2.0000     -10.334300      -281.2106
   4   2.0000     -10.323730      -280.9230
   5   2.0000     -10.316927      -280.7378
   6   2.0000     -10.304314      -280.3947
   7   2.0000     -10.295700      -280.1602
   8   2.0000     -10.295311      -280.1497
   9   2.0000     -10.292966      -280.0858
  10   2.0000     -10.290413      -280.0164
  11   2.0000     -10.288750      -279.9711
  12   2.0000     -10.285082      -279.8713
  13   2.0000     -10.283424      -279.8262
  14   2.0000     -10.273605      -279.5590
  15   2.0000     -10.272004      -279.5154
  16   2.0000      -8.084956      -220.0028
  17   2.0000      -8.083520      -219.9638
  18   2.0000      -6.043475      -164.4513
  19   2.0000      -6.042096      -164.4138
  20   2.0000      -6.039599      -164.3458
  21   2.0000      -6.038290      -164.3102
  22   2.0000      -6.035823      -164.2431
  23   2.0000      -6.034175      -164.1982
  24   2.0000      -0.999102       -27.1870
  25   2.0000      -0.980577       -26.6828
  26   2.0000      -0.921396       -25.0725
  27   2.0000      -0.912835       -24.8395
  28   2.0000      -0.861736       -23.4490
  29   2.0000      -0.856788       -23.3144
  30   2.0000      -0.846650       -23.0385
  31   2.0000      -0.807718       -21.9791
  32   2.0000      -0.784853       -21.3569
  33   2.0000      -0.771490       -20.9933
  34   2.0000      -0.714877       -19.4528
  35   2.0000      -0.698698       -19.0125
  36   2.0000      -0.687665       -18.7123
  37   2.0000      -0.656677       -17.8691
  38   2.0000      -0.631221       -17.1764
  39   2.0000      -0.619823       -16.8662
  40   2.0000      -0.594318       -16.1722
  41   2.0000      -0.579904       -15.7800
  42   2.0000      -0.562812       -15.3149
  43   2.0000      -0.547760       -14.9053
  44   2.0000      -0.540642       -14.7116
  45   2.0000      -0.520198       -14.1553
  46   2.0000      -0.517360       -14.0781
  47   2.0000      -0.513376       -13.9697
  48   2.0000      -0.497019       -13.5246
  49   2.0000      -0.493336       -13.4244
  50   2.0000      -0.489179       -13.3112
  51   2.0000      -0.484395       -13.1811
  52   2.0000      -0.468754       -12.7554
  53   2.0000      -0.465736       -12.6733
  54   2.0000      -0.456339       -12.4176
  55   2.0000      -0.450931       -12.2705
  56   2.0000      -0.446089       -12.1387
  57   2.0000      -0.438058       -11.9202
  58   2.0000      -0.431766       -11.7490
  59   2.0000      -0.427375       -11.6295
  60   2.0000      -0.423638       -11.5278
  61   2.0000      -0.415344       -11.3021
  62   2.0000      -0.409954       -11.1554
  63   2.0000      -0.346059        -9.4167
  64   2.0000      -0.335181        -9.1207
  65   2.0000      -0.332922        -9.0593
  66   2.0000      -0.279810        -7.6140
  67   0.0000       0.019891         0.5413
  68   0.0000       0.063655         1.7321
  69   0.0000       0.102092         2.7781
  70   0.0000       0.121210         3.2983
  71   0.0000       0.124968         3.4005

MULLIKEN ATOMIC CHARGES
-----------------------
   0 S :    0.106171
   1 C :   -0.150848
   2 C :   -0.109320
   3 C :    0.014601
   4 C :   -0.135463
   5 H :    0.019360
   6 C :    0.082794
   7 H :    0.026598
   8 H :    0.009728
   9 C :   -0.046501
  10 H :    0.033132
  11 H :    0.022481
  12 C :   -0.084454
  13 H :    0.022838
  14 H :    0.038640
  15 H :    0.068103
  16 S :    0.112510
  17 C :   -0.105882
  18 C :   -0.056905
  19 C :   -0.035628
  20 C :   -0.145157
  21 H :    0.029962
  22 C :    0.007606
  23 H :    0.012456
  24 H :    0.035368
  25 C :   -0.008891
  26 H :    0.021416
  27 H :    0.016296
  28 C :   -0.018988
  29 H :    0.022631
  30 H :    0.020807
  31 H :    0.037524
  32 H :    0.062595
  33 H :    0.074420
Sum of atomic charges:    0.0000000

LOEWDIN ATOMIC CHARGES
----------------------
   0 S :    0.382378
   1 C :   -0.201213
   2 C :   -0.067457
   3 C :   -0.067417
   4 C :   -0.179462
   5 H :    0.034555
   6 C :   -0.030294
   7 H :    0.035969
   8 H :    0.022397
   9 C :   -0.041662
  10 H :    0.028210
  11 H :    0.023089
  12 C :   -0.079593
  13 H :    0.022885
  14 H :    0.029612
  15 H :    0.039925
  16 S :    0.398024
  17 C :   -0.194943
  18 C :   -0.079416
  19 C :   -0.053069
  20 C :   -0.192013
  21 H :    0.035534
  22 C :   -0.037487
  23 H :    0.031569
  24 H :    0.032724
  25 C :   -0.037009
  26 H :    0.022769
  27 H :    0.019674
  28 C :   -0.053178
  29 H :    0.018269
  30 H :    0.021399
  31 H :    0.035336
  32 H :    0.035732
  33 H :    0.044159

  Mayer bond orders larger than 0.100000
B(  0-S ,  1-C ) :   1.1232 B(  0-S ,  4-C ) :   1.1483 B(  1-C ,  2-C ) :   1.6112
B(  1-C , 32-H ) :   0.9592 B(  2-C ,  3-C ) :   1.2630 B(  2-C ,  6-C ) :   1.0196
B(  3-C ,  4-C ) :   1.5500 B(  3-C ,  5-H ) :   0.9836 B(  4-C , 20-C ) :   1.0506
B(  6-C ,  7-H ) :   0.9399 B(  6-C ,  8-H ) :   0.9360 B(  6-C ,  9-C ) :   1.0667
B(  9-C , 10-H ) :   0.9533 B(  9-C , 11-H ) :   0.9531 B(  9-C , 12-C ) :   1.0784
B( 12-C , 13-H ) :   0.9736 B( 12-C , 14-H ) :   0.9725 B( 12-C , 15-H ) :   0.9690
B( 16-S , 17-C ) :   1.1708 B( 16-S , 20-C ) :   1.1336 B( 17-C , 18-C ) :   1.5717
B( 17-C , 20-C ) :   0.1125 B( 17-C , 33-H ) :   0.9592 B( 18-C , 19-C ) :   1.3143
B( 18-C , 21-H ) :   0.9716 B( 19-C , 20-C ) :   1.5256 B( 19-C , 22-C ) :   1.0390
B( 22-C , 23-H ) :   0.9430 B( 22-C , 24-H ) :   0.9081 B( 22-C , 25-C ) :   1.0694
B( 25-C , 26-H ) :   0.9367 B( 25-C , 27-H ) :   0.9551 B( 25-C , 28-C ) :   1.0928
B( 28-C , 29-H ) :   0.9723 B( 28-C , 30-H ) :   0.9732 B( 28-C , 31-H ) :   0.9714

Dispersion correction           -0.015217545
FINAL SINGLE POINT ENERGY     -1339.871351883455

DIPOLE MOMENT
-------------
                                X             Y             Z
Electronic contribution:     -9.18466     -28.87969       4.11537
Nuclear contribution   :      9.71448      29.46163      -3.99234
                        -----------------------------------------
Total Dipole Moment    :      0.52982       0.58194       0.12303
                        -----------------------------------------
Magnitude (a.u.)       :      0.79655
Magnitude (Debye)      :      2.02467

Rotational constants in cm-1:     0.018437     0.009850     0.007120
Rotational constants in MHz :   552.725845   295.297379   213.440609

                             ****ORCA TERMINATED NORMALLY****
TOTAL RUN TIME: 0 days 0 hours 0 minutes 22 seconds 539 msec
