                         Program Version 4.2.1 -  RELEASE  -
|  1> ! wB97X-D3 SP def2-SVP
|  2> %pal
|  3> nprocs 24
|  4> end
|  5>
|  6> * xyz 0 1
|  7> S 	 -100.141 	 0.44774 	 -123.168
|  8> C 	 -100.809 	 1.91648 	 -122.578
|  9> C 	 -100.551 	 2.07049 	 -121.255
| 10> C 	 -99.7773 	 0.948952 	 -120.763
| 11> C 	 -99.3724 	 0.0327393 	 -121.684
| 12> H 	 -99.5333 	 0.971754 	 -119.706
| 13> C 	 -100.955 	 3.26433 	 -120.451
| 14> H 	 -102.023 	 3.15094 	 -120.289
| 15> H 	 -100.906 	 4.16154 	 -121.086
| 16> C 	 -100.3 	 3.39897 	 -119.053
| 17> H 	 -100.641 	 2.61997 	 -118.374
| 18> H 	 -99.2095 	 3.48933 	 -119.12
| 19> C 	 -100.748 	 4.74477 	 -118.358
| 20> H 	 -100.141 	 4.91779 	 -117.455
| 21> H 	 -100.359 	 5.55376 	 -118.978
| 22> H 	 -101.806 	 4.73697 	 -118.085
| 23> S 	 -98.9294 	 -2.47361 	 -122.326
| 24> C 	 -97.616 	 -3.35057 	 -121.573
| 25> C 	 -96.9621 	 -2.58924 	 -120.668
| 26> C 	 -97.5074 	 -1.29026 	 -120.535
| 27> C 	 -98.4946 	 -1.0326 	 -121.482
| 28> H 	 -96.1448 	 -2.9491 	 -120.049
| 29> C 	 -96.8572 	 -0.266516 	 -119.528
| 30> H 	 -97.2175 	 0.689106 	 -119.819
| 31> H 	 -95.8259 	 -0.193092 	 -119.608
| 32> C 	 -97.1145 	 -0.558155 	 -118.077
| 33> H 	 -96.6575 	 -1.54686 	 -117.817
| 34> H 	 -98.1716 	 -0.805699 	 -118.07
| 35> C 	 -96.7798 	 0.475544 	 -117.107
| 36> H 	 -95.7308 	 0.534089 	 -116.938
| 37> H 	 -97.3759 	 0.265274 	 -116.153
| 38> H 	 -96.9857 	 1.51451 	 -117.344
| 39> H 	 -101.447 	 2.55453 	 -123.19
| 40> H 	 -97.3529 	 -4.36464 	 -121.783
| 41> *
| 42>
| 43>                          ****END OF INPUT****

CARTESIAN COORDINATES (ANGSTROEM)
---------------------------------
  S    -100.141000    0.447740  -123.168000
  C    -100.809000    1.916480  -122.578000
  C    -100.551000    2.070490  -121.255000
  C    -99.777300    0.948952  -120.763000
  C    -99.372400    0.032739  -121.684000
  H    -99.533300    0.971754  -119.706000
  C    -100.955000    3.264330  -120.451000
  H    -102.023000    3.150940  -120.289000
  H    -100.906000    4.161540  -121.086000
  C    -100.300000    3.398970  -119.053000
  H    -100.641000    2.619970  -118.374000
  H    -99.209500    3.489330  -119.120000
  C    -100.748000    4.744770  -118.358000
  H    -100.141000    4.917790  -117.455000
  H    -100.359000    5.553760  -118.978000
  H    -101.806000    4.736970  -118.085000
  S    -98.929400   -2.473610  -122.326000
  C    -97.616000   -3.350570  -121.573000
  C    -96.962100   -2.589240  -120.668000
  C    -97.507400   -1.290260  -120.535000
  C    -98.494600   -1.032600  -121.482000
  H    -96.144800   -2.949100  -120.049000
  C    -96.857200   -0.266516  -119.528000
  H    -97.217500    0.689106  -119.819000
  H    -95.825900   -0.193092  -119.608000
  C    -97.114500   -0.558155  -118.077000
  H    -96.657500   -1.546860  -117.817000
  H    -98.171600   -0.805699  -118.070000
  C    -96.779800    0.475544  -117.107000
  H    -95.730800    0.534089  -116.938000
  H    -97.375900    0.265274  -116.153000
  H    -96.985700    1.514510  -117.344000
  H    -101.447000    2.554530  -123.190000
  H    -97.352900   -4.364640  -121.783000

 Total Charge           Charge          ....    0
 Multiplicity           Mult            ....    1
 Number of Electrons    NEL             ....  134
 Basis Dimension        Dim             ....  322

ORBITAL ENERGIES
----------------

  NO   OCC          E(Eh)            E(eV)
   0   2.0000     -88.963906     -2420.8310
   1   2.0000     -88.960190     -2420.7298
   2   2.0000     -10.322376      -280.8861
   3   2.0000     -10.320446      -280.8336
   4   2.0000     -10.312308      -280.6122
   5   2.0000     -10.307122      -280.4710
   6   2.0000     -10.303772      -280.3799
   7   2.0000     -10.295465      -280.1538
   8   2.0000     -10.294815      -280.1362
   9   2.0000     -10.293881      -280.1107
  10   2.0000     -10.289579      -279.9937
  11   2.0000     -10.287455      -279.9359
  12   2.0000     -10.284006      -279.8420
  13   2.0000     -10.281893      -279.7845
  14   2.0000     -10.280567      -279.7484
  15   2.0000     -10.278170      -279.6832
  16   2.0000      -8.079485      -219.8540
  17   2.0000      -8.076270      -219.7665
  18   2.0000      -6.038005      -164.3025
  19   2.0000      -6.034835      -164.2162
  20   2.0000      -6.033884      -164.1903
  21   2.0000      -6.030505      -164.0984
  22   2.0000      -6.030164      -164.0891
  23   2.0000      -6.026975      -164.0023
  24   2.0000      -1.018132       -27.7048
  25   2.0000      -0.991315       -26.9751
  26   2.0000      -0.918572       -24.9956
  27   2.0000      -0.913043       -24.8452
  28   2.0000      -0.880842       -23.9689
  29   2.0000      -0.855081       -23.2679
  30   2.0000      -0.844134       -22.9700
  31   2.0000      -0.818102       -22.2617
  32   2.0000      -0.786072       -21.3901
  33   2.0000      -0.774533       -21.0761
  34   2.0000      -0.717129       -19.5141
  35   2.0000      -0.698270       -19.0009
  36   2.0000      -0.693235       -18.8639
  37   2.0000      -0.665540       -18.1103
  38   2.0000      -0.636709       -17.3257
  39   2.0000      -0.625917       -17.0321
  40   2.0000      -0.601063       -16.3558
  41   2.0000      -0.579481       -15.7685
  42   2.0000      -0.570319       -15.5192
  43   2.0000      -0.564142       -15.3511
  44   2.0000      -0.532288       -14.4843
  45   2.0000      -0.523791       -14.2531
  46   2.0000      -0.519225       -14.1288
  47   2.0000      -0.513293       -13.9674
  48   2.0000      -0.508064       -13.8251
  49   2.0000      -0.503098       -13.6900
  50   2.0000      -0.499234       -13.5848
  51   2.0000      -0.496599       -13.5131
  52   2.0000      -0.474227       -12.9044
  53   2.0000      -0.465439       -12.6652
  54   2.0000      -0.458672       -12.4811
  55   2.0000      -0.452445       -12.3117
  56   2.0000      -0.441167       -12.0048
  57   2.0000      -0.440833       -11.9957
  58   2.0000      -0.431112       -11.7312
  59   2.0000      -0.425545       -11.5797
  60   2.0000      -0.418895       -11.3987
  61   2.0000      -0.409982       -11.1562
  62   2.0000      -0.408284       -11.1100
  63   2.0000      -0.361051        -9.8247
  64   2.0000      -0.333814        -9.0835
  65   2.0000      -0.323959        -8.8154
  66   2.0000      -0.285586        -7.7712
  67   0.0000       0.025822         0.7026
  68   0.0000       0.087170         2.3720
  69   0.0000       0.109707         2.9853
  70   0.0000       0.122146         3.3238
  71   0.0000       0.130357         3.5472

MULLIKEN ATOMIC CHARGES
-----------------------
   0 S :    0.105247
   1 C :   -0.135907
   2 C :   -0.087993
   3 C :   -0.019364
   4 C :   -0.087711
   5 H :    0.002800
   6 C :    0.072248
   7 H :    0.031702
   8 H :    0.030435
   9 C :   -0.126223
  10 H :    0.049605
  11 H :    0.044139
  12 C :   -0.051638
  13 H :    0.027943
  14 H :    0.030010
  15 H :    0.047696
  16 S :    0.096042
  17 C :   -0.069035
  18 C :   -0.018898
  19 C :   -0.063277
  20 C :   -0.125787
  21 H :    0.018039
  22 C :    0.112953
  23 H :   -0.001758
  24 H :    0.003294
  25 C :   -0.087540
  26 H :    0.025270
  27 H :    0.018624
  28 C :   -0.019496
  29 H :    0.022078
  30 H :    0.046733
  31 H :    0.018109
  32 H :    0.046540
  33 H :    0.045120
Sum of atomic charges:   -0.0000000

LOEWDIN ATOMIC CHARGES
----------------------
   0 S :    0.420004
   1 C :   -0.205149
   2 C :   -0.067817
   3 C :   -0.068379
   4 C :   -0.209416
   5 H :    0.026300
   6 C :   -0.037961
   7 H :    0.036658
   8 H :    0.035072
   9 C :   -0.041101
  10 H :    0.026673
  11 H :    0.025992
  12 C :   -0.066965
  13 H :    0.027177
  14 H :    0.025528
  15 H :    0.026154
  16 S :    0.416116
  17 C :   -0.178323
  18 C :   -0.069106
  19 C :   -0.048188
  20 C :   -0.197179
  21 H :    0.033883
  22 C :   -0.019923
  23 H :    0.020398
  24 H :    0.017803
  25 C :   -0.052591
  26 H :    0.028083
  27 H :    0.021195
  28 C :   -0.068071
  29 H :    0.022205
  30 H :    0.042111
  31 H :    0.023672
  32 H :    0.029860
  33 H :    0.025284

  Mayer bond orders larger than 0.100000
B(  0-S ,  1-C ) :   1.1391 B(  0-S ,  4-C ) :   1.1423 B(  1-C ,  2-C ) :   1.6061
B(  1-C , 32-H ) :   0.9733 B(  2-C ,  3-C ) :   1.2804 B(  2-C ,  6-C ) :   1.0104
B(  3-C ,  4-C ) :   1.5285 B(  3-C ,  5-H ) :   0.9899 B(  4-C , 20-C ) :   1.0828
B(  6-C ,  7-H ) :   0.9233 B(  6-C ,  8-H ) :   0.9463 B(  6-C ,  9-C ) :   1.0779
B(  9-C , 10-H ) :   0.9449 B(  9-C , 11-H ) :   0.9589 B(  9-C , 12-C ) :   1.0883
B( 12-C , 13-H ) :   0.9740 B( 12-C , 14-H ) :   0.9747 B( 12-C , 15-H ) :   0.9765
B( 16-S , 17-C ) :   1.1466 B( 16-S , 20-C ) :   1.1438 B( 17-C , 18-C ) :   1.6077
B( 17-C , 20-C ) :   0.1015 B( 17-C , 33-H ) :   0.9708 B( 18-C , 19-C ) :   1.2483
B( 18-C , 21-H ) :   0.9901 B( 19-C , 20-C ) :   1.5890 B( 19-C , 22-C ) :   1.0335
B( 22-C , 23-H ) :   0.9333 B( 22-C , 24-H ) :   0.9369 B( 22-C , 25-C ) :   1.0593
B( 25-C , 26-H ) :   0.9450 B( 25-C , 27-H ) :   0.9538 B( 25-C , 28-C ) :   1.0953
B( 28-C , 29-H ) :   0.9676 B( 28-C , 30-H ) :   0.9702 B( 28-C , 31-H ) :   0.9705

Dispersion correction           -0.014130083
FINAL SINGLE POINT ENERGY     -1339.873956836936

DIPOLE MOMENT
-------------
                                X             Y             Z
Electronic contribution:     -4.35020     -19.76821     -27.85379
Nuclear contribution   :      4.48941      20.17786      28.55365
                        -----------------------------------------
Total Dipole Moment    :      0.13921       0.40965       0.69986
                        -----------------------------------------
Magnitude (a.u.)       :      0.82280
Magnitude (Debye)      :      2.09139

Rotational constants in cm-1:     0.016653     0.010187     0.006517
Rotational constants in MHz :   499.236270   305.399332   195.382322

                             ****ORCA TERMINATED NORMALLY****
TOTAL RUN TIME: 0 days 0 hours 0 minutes 22 seconds 152 msec
