                         Program Version 4.2.1 -  RELEASE  -
|  1> ! wB97X-D3 SP def2-SVP
|  2> %pal
|  3> nprocs 24
|  4> end
|  5>
|  6> * xyz 0 1
|  7> S 	 -27.0716 	 14.9587 	 4.72649
|  8> C 	 -27.643 	 13.3546 	 4.45627
|  9> C 	 -28.9035 	 13.2247 	 4.92164
| 10> C 	 -29.3392 	 14.271 	 5.7609
| 11> C 	 -28.4843 	 15.3542 	 5.80336
| 12> H 	 -30.2873 	 14.5197 	 6.31167
| 13> C 	 -29.7948 	 12.0742 	 4.52767
| 14> H 	 -29.963 	 11.4207 	 5.35064
| 15> H 	 -29.3833 	 11.4279 	 3.66691
| 16> C 	 -31.2379 	 12.5439 	 4.12291
| 17> H 	 -31.7292 	 13.0784 	 4.86823
| 18> H 	 -31.1188 	 13.3063 	 3.39273
| 19> C 	 -32.2221 	 11.4544 	 3.78749
| 20> H 	 -31.8213 	 10.6445 	 3.27412
| 21> H 	 -32.833 	 11.0281 	 4.66804
| 22> H 	 -32.9015 	 11.8439 	 3.04565
| 23> S 	 -28.5301 	 18.007 	 5.4637
| 24> C 	 -28.7834 	 19.0972 	 6.83454
| 25> C 	 -29.1693 	 18.3079 	 7.91274
| 26> C 	 -28.915 	 16.8877 	 7.84531
| 27> C 	 -28.5416 	 16.5836 	 6.51307
| 28> H 	 -29.4706 	 18.9006 	 8.77346
| 29> C 	 -29.253 	 15.9612 	 9.0582
| 30> H 	 -28.3125 	 15.387 	 9.02567
| 31> H 	 -30.1952 	 15.4497 	 8.71457
| 32> C 	 -29.5255 	 16.6977 	 10.443
| 33> H 	 -30.3549 	 17.3586 	 10.3311
| 34> H 	 -28.6821 	 17.3607 	 10.5527
| 35> C 	 -29.631 	 15.7261 	 11.6034
| 36> H 	 -30.1405 	 16.2271 	 12.3955
| 37> H 	 -28.6617 	 15.3368 	 11.898
| 38> H 	 -30.27 	 14.8731 	 11.4468
| 39> H 	 -27.2077 	 12.6499 	 3.71793
| 40> H 	 -29.0018 	 20.1293 	 6.77789
| 41> *
| 42>
| 43>                          ****END OF INPUT****

CARTESIAN COORDINATES (ANGSTROEM)
---------------------------------
  S    -27.071600   14.958700    4.726490
  C    -27.643000   13.354600    4.456270
  C    -28.903500   13.224700    4.921640
  C    -29.339200   14.271000    5.760900
  C    -28.484300   15.354200    5.803360
  H    -30.287300   14.519700    6.311670
  C    -29.794800   12.074200    4.527670
  H    -29.963000   11.420700    5.350640
  H    -29.383300   11.427900    3.666910
  C    -31.237900   12.543900    4.122910
  H    -31.729200   13.078400    4.868230
  H    -31.118800   13.306300    3.392730
  C    -32.222100   11.454400    3.787490
  H    -31.821300   10.644500    3.274120
  H    -32.833000   11.028100    4.668040
  H    -32.901500   11.843900    3.045650
  S    -28.530100   18.007000    5.463700
  C    -28.783400   19.097200    6.834540
  C    -29.169300   18.307900    7.912740
  C    -28.915000   16.887700    7.845310
  C    -28.541600   16.583600    6.513070
  H    -29.470600   18.900600    8.773460
  C    -29.253000   15.961200    9.058200
  H    -28.312500   15.387000    9.025670
  H    -30.195200   15.449700    8.714570
  C    -29.525500   16.697700   10.443000
  H    -30.354900   17.358600   10.331100
  H    -28.682100   17.360700   10.552700
  C    -29.631000   15.726100   11.603400
  H    -30.140500   16.227100   12.395500
  H    -28.661700   15.336800   11.898000
  H    -30.270000   14.873100   11.446800
  H    -27.207700   12.649900    3.717930
  H    -29.001800   20.129300    6.777890

 Total Charge           Charge          ....    0
 Multiplicity           Mult            ....    1
 Number of Electrons    NEL             ....  134
 Basis Dimension        Dim             ....  322

ORBITAL ENERGIES
----------------

  NO   OCC          E(Eh)            E(eV)
   0   2.0000     -88.964586     -2420.8495
   1   2.0000     -88.958195     -2420.6755
   2   2.0000     -10.329982      -281.0931
   3   2.0000     -10.329222      -281.0724
   4   2.0000     -10.315850      -280.7086
   5   2.0000     -10.314305      -280.6665
   6   2.0000     -10.310702      -280.5685
   7   2.0000     -10.307459      -280.4802
   8   2.0000     -10.298446      -280.2350
   9   2.0000     -10.297278      -280.2032
  10   2.0000     -10.295147      -280.1452
  11   2.0000     -10.293838      -280.1096
  12   2.0000     -10.292351      -280.0691
  13   2.0000     -10.277895      -279.6757
  14   2.0000     -10.276077      -279.6263
  15   2.0000     -10.275500      -279.6106
  16   2.0000      -8.078733      -219.8335
  17   2.0000      -8.072830      -219.6729
  18   2.0000      -6.037340      -164.2844
  19   2.0000      -6.033358      -164.1760
  20   2.0000      -6.031316      -164.1204
  21   2.0000      -6.029368      -164.0674
  22   2.0000      -6.027420      -164.0144
  23   2.0000      -6.023521      -163.9083
  24   2.0000      -1.004829       -27.3428
  25   2.0000      -0.981344       -26.7037
  26   2.0000      -0.908989       -24.7349
  27   2.0000      -0.905367       -24.6363
  28   2.0000      -0.876097       -23.8398
  29   2.0000      -0.852519       -23.1982
  30   2.0000      -0.844756       -22.9870
  31   2.0000      -0.816983       -22.2312
  32   2.0000      -0.781150       -21.2562
  33   2.0000      -0.769594       -20.9417
  34   2.0000      -0.717950       -19.5364
  35   2.0000      -0.708577       -19.2814
  36   2.0000      -0.695294       -18.9199
  37   2.0000      -0.652335       -17.7509
  38   2.0000      -0.643507       -17.5107
  39   2.0000      -0.611920       -16.6512
  40   2.0000      -0.587149       -15.9771
  41   2.0000      -0.576405       -15.6848
  42   2.0000      -0.569774       -15.5044
  43   2.0000      -0.558438       -15.1959
  44   2.0000      -0.533309       -14.5121
  45   2.0000      -0.520686       -14.1686
  46   2.0000      -0.513110       -13.9624
  47   2.0000      -0.510546       -13.8927
  48   2.0000      -0.503276       -13.6948
  49   2.0000      -0.502261       -13.6672
  50   2.0000      -0.496804       -13.5187
  51   2.0000      -0.487272       -13.2593
  52   2.0000      -0.473932       -12.8964
  53   2.0000      -0.471410       -12.8277
  54   2.0000      -0.459279       -12.4976
  55   2.0000      -0.446748       -12.1566
  56   2.0000      -0.439436       -11.9577
  57   2.0000      -0.436753       -11.8847
  58   2.0000      -0.428618       -11.6633
  59   2.0000      -0.420367       -11.4388
  60   2.0000      -0.418857       -11.3977
  61   2.0000      -0.417163       -11.3516
  62   2.0000      -0.408165       -11.1067
  63   2.0000      -0.348244        -9.4762
  64   2.0000      -0.327829        -8.9207
  65   2.0000      -0.326528        -8.8853
  66   2.0000      -0.290067        -7.8931
  67   0.0000       0.023302         0.6341
  68   0.0000       0.064629         1.7587
  69   0.0000       0.104793         2.8516
  70   0.0000       0.129042         3.5114
  71   0.0000       0.133427         3.6307

MULLIKEN ATOMIC CHARGES
-----------------------
   0 S :    0.088902
   1 C :   -0.120094
   2 C :   -0.064923
   3 C :    0.018971
   4 C :   -0.185387
   5 H :    0.036715
   6 C :    0.065720
   7 H :    0.024419
   8 H :    0.033657
   9 C :   -0.080012
  10 H :    0.012516
  11 H :    0.021911
  12 C :   -0.029628
  13 H :    0.006008
  14 H :    0.047242
  15 H :    0.025615
  16 S :    0.097095
  17 C :   -0.064995
  18 C :   -0.088612
  19 C :   -0.049844
  20 C :   -0.158246
  21 H :    0.026277
  22 C :    0.041458
  23 H :    0.059285
  24 H :    0.057627
  25 C :   -0.091097
  26 H :    0.029919
  27 H :    0.031151
  28 C :    0.011760
  29 H :    0.023414
  30 H :    0.037484
  31 H :    0.021613
  32 H :    0.062819
  33 H :    0.051260
Sum of atomic charges:   -0.0000000

LOEWDIN ATOMIC CHARGES
----------------------
   0 S :    0.377100
   1 C :   -0.201366
   2 C :   -0.075516
   3 C :   -0.066712
   4 C :   -0.178766
   5 H :    0.045121
   6 C :   -0.027796
   7 H :    0.024404
   8 H :    0.035682
   9 C :   -0.041794
  10 H :    0.017395
  11 H :    0.020987
  12 C :   -0.066491
  13 H :    0.012410
  14 H :    0.036794
  15 H :    0.030985
  16 S :    0.397252
  17 C :   -0.181514
  18 C :   -0.076500
  19 C :   -0.053774
  20 C :   -0.201712
  21 H :    0.028330
  22 C :   -0.031509
  23 H :    0.044026
  24 H :    0.039355
  25 C :   -0.037406
  26 H :    0.019775
  27 H :    0.025599
  28 C :   -0.058569
  29 H :    0.026775
  30 H :    0.029371
  31 H :    0.024901
  32 H :    0.038938
  33 H :    0.024227

  Mayer bond orders larger than 0.100000
B(  0-S ,  1-C ) :   1.1381 B(  0-S ,  4-C ) :   1.1250 B(  1-C ,  2-C ) :   1.6339
B(  1-C , 32-H ) :   0.9607 B(  2-C ,  3-C ) :   1.2024 B(  2-C ,  6-C ) :   1.0276
B(  3-C ,  4-C ) :   1.6095 B(  3-C ,  5-H ) :   0.9804 B(  4-C , 20-C ) :   1.0621
B(  6-C ,  7-H ) :   0.9335 B(  6-C ,  8-H ) :   0.9482 B(  6-C ,  9-C ) :   1.0608
B(  9-C , 10-H ) :   0.9464 B(  9-C , 11-H ) :   0.9612 B(  9-C , 12-C ) :   1.0828
B( 12-C , 13-H ) :   0.9732 B( 12-C , 14-H ) :   0.9750 B( 12-C , 15-H ) :   0.9686
B( 16-S , 17-C ) :   1.1359 B( 16-S , 20-C ) :   1.1588 B( 17-C , 18-C ) :   1.6257
B( 17-C , 20-C ) :   0.1061 B( 17-C , 33-H ) :   0.9665 B( 18-C , 19-C ) :   1.2363
B( 18-C , 21-H ) :   0.9733 B( 19-C , 20-C ) :   1.5690 B( 19-C , 22-C ) :   0.9940
B( 22-C , 23-H ) :   0.9394 B( 22-C , 24-H ) :   0.9343 B( 22-C , 25-C ) :   1.0817
B( 25-C , 26-H ) :   0.9489 B( 25-C , 27-H ) :   0.9560 B( 25-C , 28-C ) :   1.0824
B( 28-C , 29-H ) :   0.9695 B( 28-C , 30-H ) :   0.9746 B( 28-C , 31-H ) :   0.9727

Dispersion correction           -0.013284152
FINAL SINGLE POINT ENERGY     -1339.841795949940

DIPOLE MOMENT
-------------
                                X             Y             Z
Electronic contribution:     17.81579      15.43077     -13.34712
Nuclear contribution   :    -18.54247     -15.60163      13.80324
                        -----------------------------------------
Total Dipole Moment    :     -0.72668      -0.17085       0.45612
                        -----------------------------------------
Magnitude (a.u.)       :      0.87481
Magnitude (Debye)      :      2.22360

Rotational constants in cm-1:     0.016450     0.007866     0.006367
Rotational constants in MHz :   493.160613   235.818880   190.876577

                             ****ORCA TERMINATED NORMALLY****
TOTAL RUN TIME: 0 days 0 hours 0 minutes 20 seconds 803 msec
