                         Program Version 4.2.1 -  RELEASE  -
|  1> ! wB97X-D3 SP def2-SVP
|  2> %pal
|  3> nprocs 24
|  4> end
|  5>
|  6> * xyz 0 1
|  7> S 	 -135.683 	 22.0029 	 -19.4062
|  8> C 	 -134.987 	 21.2502 	 -18.0039
|  9> C 	 -134.344 	 20.1016 	 -18.3308
| 10> C 	 -134.223 	 19.9201 	 -19.7252
| 11> C 	 -134.717 	 20.9199 	 -20.4793
| 12> H 	 -133.732 	 19.1295 	 -20.2545
| 13> C 	 -133.874 	 19.0313 	 -17.3428
| 14> H 	 -134.404 	 19.3412 	 -16.3986
| 15> H 	 -132.824 	 19.0806 	 -17.2173
| 16> C 	 -134.229 	 17.5902 	 -17.643
| 17> H 	 -133.981 	 17.3061 	 -18.6513
| 18> H 	 -133.62 	 16.893 	 -17.0368
| 19> C 	 -135.688 	 17.2081 	 -17.3886
| 20> H 	 -135.938 	 16.3319 	 -17.9756
| 21> H 	 -135.908 	 17.0902 	 -16.3387
| 22> H 	 -136.473 	 17.9787 	 -17.6304
| 23> S 	 -133.985 	 22.8712 	 -22.2643
| 24> C 	 -134.03 	 22.5455 	 -23.9374
| 25> C 	 -134.26 	 21.215 	 -24.1228
| 26> C 	 -134.536 	 20.418 	 -22.9772
| 27> C 	 -134.498 	 21.2203 	 -21.8812
| 28> H 	 -134.204 	 21.0778 	 -25.1668
| 29> C 	 -134.739 	 18.9312 	 -23.0101
| 30> H 	 -134.007 	 18.4944 	 -22.4213
| 31> H 	 -134.419 	 18.55 	 -24.0378
| 32> C 	 -136.145 	 18.297 	 -22.7282
| 33> H 	 -136.859 	 18.6444 	 -23.5016
| 34> H 	 -136.524 	 18.7557 	 -21.7739
| 35> C 	 -136.241 	 16.7997 	 -22.6569
| 36> H 	 -135.726 	 16.4734 	 -21.8247
| 37> H 	 -135.745 	 16.5134 	 -23.5324
| 38> H 	 -137.263 	 16.4621 	 -22.5974
| 39> H 	 -135.326 	 21.5611 	 -17.0076
| 40> H 	 -133.888 	 23.2799 	 -24.7278
| 41> *
| 42>
| 43>                          ****END OF INPUT****

CARTESIAN COORDINATES (ANGSTROEM)
---------------------------------
  S    -135.683000   22.002900  -19.406200
  C    -134.987000   21.250200  -18.003900
  C    -134.344000   20.101600  -18.330800
  C    -134.223000   19.920100  -19.725200
  C    -134.717000   20.919900  -20.479300
  H    -133.732000   19.129500  -20.254500
  C    -133.874000   19.031300  -17.342800
  H    -134.404000   19.341200  -16.398600
  H    -132.824000   19.080600  -17.217300
  C    -134.229000   17.590200  -17.643000
  H    -133.981000   17.306100  -18.651300
  H    -133.620000   16.893000  -17.036800
  C    -135.688000   17.208100  -17.388600
  H    -135.938000   16.331900  -17.975600
  H    -135.908000   17.090200  -16.338700
  H    -136.473000   17.978700  -17.630400
  S    -133.985000   22.871200  -22.264300
  C    -134.030000   22.545500  -23.937400
  C    -134.260000   21.215000  -24.122800
  C    -134.536000   20.418000  -22.977200
  C    -134.498000   21.220300  -21.881200
  H    -134.204000   21.077800  -25.166800
  C    -134.739000   18.931200  -23.010100
  H    -134.007000   18.494400  -22.421300
  H    -134.419000   18.550000  -24.037800
  C    -136.145000   18.297000  -22.728200
  H    -136.859000   18.644400  -23.501600
  H    -136.524000   18.755700  -21.773900
  C    -136.241000   16.799700  -22.656900
  H    -135.726000   16.473400  -21.824700
  H    -135.745000   16.513400  -23.532400
  H    -137.263000   16.462100  -22.597400
  H    -135.326000   21.561100  -17.007600
  H    -133.888000   23.279900  -24.727800

 Total Charge           Charge          ....    0
 Multiplicity           Mult            ....    1
 Number of Electrons    NEL             ....  134
 Basis Dimension        Dim             ....  322

ORBITAL ENERGIES
----------------

  NO   OCC          E(Eh)            E(eV)
   0   2.0000     -88.961329     -2420.7608
   1   2.0000     -88.959700     -2420.7165
   2   2.0000     -10.326790      -281.0062
   3   2.0000     -10.324614      -280.9470
   4   2.0000     -10.312891      -280.6280
   5   2.0000     -10.309889      -280.5463
   6   2.0000     -10.305028      -280.4141
   7   2.0000     -10.297907      -280.2203
   8   2.0000     -10.296602      -280.1848
   9   2.0000     -10.292414      -280.0708
  10   2.0000     -10.288195      -279.9560
  11   2.0000     -10.288056      -279.9522
  12   2.0000     -10.287704      -279.9427
  13   2.0000     -10.285775      -279.8902
  14   2.0000     -10.276734      -279.6441
  15   2.0000     -10.267016      -279.3797
  16   2.0000      -8.076838      -219.7819
  17   2.0000      -8.074439      -219.7166
  18   2.0000      -6.035233      -164.2270
  19   2.0000      -6.032998      -164.1662
  20   2.0000      -6.031224      -164.1180
  21   2.0000      -6.029127      -164.0609
  22   2.0000      -6.027647      -164.0206
  23   2.0000      -6.024943      -163.9470
  24   2.0000      -1.012280       -27.5455
  25   2.0000      -0.990697       -26.9582
  26   2.0000      -0.912373       -24.8269
  27   2.0000      -0.910930       -24.7877
  28   2.0000      -0.875627       -23.8270
  29   2.0000      -0.860136       -23.4055
  30   2.0000      -0.844994       -22.9934
  31   2.0000      -0.820569       -22.3288
  32   2.0000      -0.789663       -21.4878
  33   2.0000      -0.776346       -21.1254
  34   2.0000      -0.713912       -19.4265
  35   2.0000      -0.697198       -18.9717
  36   2.0000      -0.691663       -18.8211
  37   2.0000      -0.661174       -17.9915
  38   2.0000      -0.642806       -17.4916
  39   2.0000      -0.626606       -17.0508
  40   2.0000      -0.598862       -16.2959
  41   2.0000      -0.569930       -15.5086
  42   2.0000      -0.566156       -15.4059
  43   2.0000      -0.557372       -15.1669
  44   2.0000      -0.534547       -14.5458
  45   2.0000      -0.533715       -14.5231
  46   2.0000      -0.527795       -14.3620
  47   2.0000      -0.518522       -14.1097
  48   2.0000      -0.505238       -13.7482
  49   2.0000      -0.502312       -13.6686
  50   2.0000      -0.495178       -13.4745
  51   2.0000      -0.482780       -13.1371
  52   2.0000      -0.475683       -12.9440
  53   2.0000      -0.467691       -12.7265
  54   2.0000      -0.453996       -12.3539
  55   2.0000      -0.446998       -12.1634
  56   2.0000      -0.438480       -11.9316
  57   2.0000      -0.434562       -11.8250
  58   2.0000      -0.433128       -11.7860
  59   2.0000      -0.429369       -11.6837
  60   2.0000      -0.422680       -11.5017
  61   2.0000      -0.409936       -11.1549
  62   2.0000      -0.407891       -11.0993
  63   2.0000      -0.351429        -9.5629
  64   2.0000      -0.334450        -9.1008
  65   2.0000      -0.324156        -8.8207
  66   2.0000      -0.294584        -8.0160
  67   0.0000       0.027638         0.7521
  68   0.0000       0.076059         2.0697
  69   0.0000       0.107459         2.9241
  70   0.0000       0.113482         3.0880
  71   0.0000       0.129446         3.5224

MULLIKEN ATOMIC CHARGES
-----------------------
   0 S :    0.093715
   1 C :   -0.137365
   2 C :   -0.068070
   3 C :    0.039449
   4 C :   -0.157411
   5 H :   -0.006758
   6 C :    0.095873
   7 H :    0.019899
   8 H :    0.032158
   9 C :   -0.067828
  10 H :    0.018079
  11 H :    0.030397
  12 C :   -0.067358
  13 H :    0.034262
  14 H :    0.025604
  15 H :    0.034946
  16 S :    0.116201
  17 C :   -0.114595
  18 C :   -0.042972
  19 C :    0.040929
  20 C :   -0.171505
  21 H :   -0.006276
  22 C :    0.067880
  23 H :    0.007240
  24 H :    0.017173
  25 C :   -0.115149
  26 H :    0.031708
  27 H :    0.035582
  28 C :    0.037317
  29 H :    0.008830
  30 H :    0.012694
  31 H :    0.039033
  32 H :    0.055280
  33 H :    0.061038
Sum of atomic charges:   -0.0000000

LOEWDIN ATOMIC CHARGES
----------------------
   0 S :    0.375635
   1 C :   -0.192521
   2 C :   -0.069336
   3 C :   -0.060700
   4 C :   -0.169317
   5 H :    0.026774
   6 C :   -0.025583
   7 H :    0.034528
   8 H :    0.027857
   9 C :   -0.043415
  10 H :    0.017943
  11 H :    0.031054
  12 C :   -0.071896
  13 H :    0.026109
  14 H :    0.021962
  15 H :    0.031072
  16 S :    0.415025
  17 C :   -0.200044
  18 C :   -0.073927
  19 C :   -0.055394
  20 C :   -0.185102
  21 H :    0.025822
  22 C :   -0.031535
  23 H :    0.017229
  24 H :    0.037307
  25 C :   -0.041115
  26 H :    0.025559
  27 H :    0.024291
  28 C :   -0.048711
  29 H :    0.014319
  30 H :    0.019567
  31 H :    0.032205
  32 H :    0.030207
  33 H :    0.034128

  Mayer bond orders larger than 0.100000
B(  0-S ,  1-C ) :   1.1331 B(  0-S ,  4-C ) :   1.1297 B(  1-C ,  2-C ) :   1.6329
B(  1-C , 32-H ) :   0.9636 B(  2-C ,  3-C ) :   1.2137 B(  2-C ,  6-C ) :   1.0080
B(  3-C ,  4-C ) :   1.6091 B(  3-C ,  5-H ) :   0.9968 B(  4-C , 20-C ) :   1.0534
B(  6-C ,  7-H ) :   0.9469 B(  6-C ,  8-H ) :   0.9322 B(  6-C ,  9-C ) :   1.0831
B(  9-C , 10-H ) :   0.9556 B(  9-C , 11-H ) :   0.9514 B(  9-C , 12-C ) :   1.0709
B( 12-C , 13-H ) :   0.9756 B( 12-C , 14-H ) :   0.9743 B( 12-C , 15-H ) :   0.9787
B( 16-S , 17-C ) :   1.1482 B( 16-S , 20-C ) :   1.1539 B( 17-C , 18-C ) :   1.6319
B( 17-C , 33-H ) :   0.9660 B( 18-C , 19-C ) :   1.1932 B( 18-C , 21-H ) :   1.0021
B( 19-C , 20-C ) :   1.5943 B( 19-C , 22-C ) :   1.0392 B( 22-C , 23-H ) :   0.9296
B( 22-C , 24-H ) :   0.9249 B( 22-C , 25-C ) :   1.0523 B( 25-C , 26-H ) :   0.9557
B( 25-C , 27-H ) :   0.9570 B( 25-C , 28-C ) :   1.0819 B( 28-C , 29-H ) :   0.9727
B( 28-C , 30-H ) :   0.9723 B( 28-C , 31-H ) :   0.9709

Dispersion correction           -0.014670093
FINAL SINGLE POINT ENERGY     -1339.863951004315

DIPOLE MOMENT
-------------
                                X             Y             Z
Electronic contribution:      4.37307      29.82333      -4.92748
Nuclear contribution   :     -4.27328     -30.50206       4.85738
                        -----------------------------------------
Total Dipole Moment    :      0.09979      -0.67873      -0.07010
                        -----------------------------------------
Magnitude (a.u.)       :      0.68960
Magnitude (Debye)      :      1.75283

Rotational constants in cm-1:     0.017767     0.010076     0.007164
Rotational constants in MHz :   532.637368   302.063336   214.770327

                             ****ORCA TERMINATED NORMALLY****
TOTAL RUN TIME: 0 days 0 hours 0 minutes 22 seconds 222 msec
