                         Program Version 4.2.1 -  RELEASE  -
|  1> ! wB97X-D3 SP def2-SVP
|  2> %pal
|  3> nprocs 24
|  4> end
|  5>
|  6> * xyz 0 1
|  7> S 	 -132.89 	 57.0544 	 -63.3509
|  8> C 	 -132.892 	 58.4039 	 -64.4674
|  9> C 	 -133.121 	 57.9636 	 -65.7611
| 10> C 	 -133.443 	 56.5639 	 -65.781
| 11> C 	 -133.504 	 55.9701 	 -64.6012
| 12> H 	 -133.819 	 56.0907 	 -66.6583
| 13> C 	 -133.071 	 58.8906 	 -67.0618
| 14> H 	 -133.549 	 59.8584 	 -66.724
| 15> H 	 -133.498 	 58.4953 	 -67.9439
| 16> C 	 -131.668 	 59.1972 	 -67.586
| 17> H 	 -131.206 	 59.755 	 -66.7984
| 18> H 	 -131.036 	 58.3525 	 -67.7359
| 19> C 	 -131.756 	 59.9527 	 -68.91
| 20> H 	 -132.29 	 60.9286 	 -68.7632
| 21> H 	 -130.72 	 60.2508 	 -69.1669
| 22> H 	 -132.029 	 59.2899 	 -69.7112
| 23> S 	 -135.097 	 54.5575 	 -62.9326
| 24> C 	 -134.826 	 52.8512 	 -62.6512
| 25> C 	 -134.057 	 52.327 	 -63.7304
| 26> C 	 -133.669 	 53.331 	 -64.7166
| 27> C 	 -133.964 	 54.6054 	 -64.2709
| 28> H 	 -133.89 	 51.2359 	 -63.6475
| 29> C 	 -132.753 	 53.0373 	 -65.8631
| 30> H 	 -132.873 	 53.7497 	 -66.706
| 31> H 	 -133.016 	 52.0672 	 -66.3013
| 32> C 	 -131.261 	 53.1351 	 -65.5623
| 33> H 	 -131.087 	 52.4958 	 -64.7134
| 34> H 	 -131.017 	 54.2076 	 -65.3604
| 35> C 	 -130.485 	 52.6581 	 -66.7359
| 36> H 	 -130.977 	 51.8353 	 -67.2051
| 37> H 	 -129.533 	 52.2718 	 -66.3565
| 38> H 	 -130.325 	 53.5342 	 -67.3698
| 39> H 	 -132.683 	 59.4296 	 -64.2268
| 40> H 	 -135.443 	 52.197 	 -62.1683
| 41> *
| 42>
| 43>                          ****END OF INPUT****

CARTESIAN COORDINATES (ANGSTROEM)
---------------------------------
  S    -132.890000   57.054400  -63.350900
  C    -132.892000   58.403900  -64.467400
  C    -133.121000   57.963600  -65.761100
  C    -133.443000   56.563900  -65.781000
  C    -133.504000   55.970100  -64.601200
  H    -133.819000   56.090700  -66.658300
  C    -133.071000   58.890600  -67.061800
  H    -133.549000   59.858400  -66.724000
  H    -133.498000   58.495300  -67.943900
  C    -131.668000   59.197200  -67.586000
  H    -131.206000   59.755000  -66.798400
  H    -131.036000   58.352500  -67.735900
  C    -131.756000   59.952700  -68.910000
  H    -132.290000   60.928600  -68.763200
  H    -130.720000   60.250800  -69.166900
  H    -132.029000   59.289900  -69.711200
  S    -135.097000   54.557500  -62.932600
  C    -134.826000   52.851200  -62.651200
  C    -134.057000   52.327000  -63.730400
  C    -133.669000   53.331000  -64.716600
  C    -133.964000   54.605400  -64.270900
  H    -133.890000   51.235900  -63.647500
  C    -132.753000   53.037300  -65.863100
  H    -132.873000   53.749700  -66.706000
  H    -133.016000   52.067200  -66.301300
  C    -131.261000   53.135100  -65.562300
  H    -131.087000   52.495800  -64.713400
  H    -131.017000   54.207600  -65.360400
  C    -130.485000   52.658100  -66.735900
  H    -130.977000   51.835300  -67.205100
  H    -129.533000   52.271800  -66.356500
  H    -130.325000   53.534200  -67.369800
  H    -132.683000   59.429600  -64.226800
  H    -135.443000   52.197000  -62.168300

 Total Charge           Charge          ....    0
 Multiplicity           Mult            ....    1
 Number of Electrons    NEL             ....  134
 Basis Dimension        Dim             ....  322

ORBITAL ENERGIES
----------------

  NO   OCC          E(Eh)            E(eV)
   0   2.0000     -88.965652     -2420.8785
   1   2.0000     -88.963289     -2420.8142
   2   2.0000     -10.330262      -281.1007
   3   2.0000     -10.328102      -281.0419
   4   2.0000     -10.314996      -280.6853
   5   2.0000     -10.311915      -280.6015
   6   2.0000     -10.309312      -280.5306
   7   2.0000     -10.306532      -280.4550
   8   2.0000     -10.304528      -280.4005
   9   2.0000     -10.298256      -280.2298
  10   2.0000     -10.289192      -279.9831
  11   2.0000     -10.286866      -279.9199
  12   2.0000     -10.283733      -279.8346
  13   2.0000     -10.279574      -279.7214
  14   2.0000     -10.278270      -279.6860
  15   2.0000     -10.271304      -279.4964
  16   2.0000      -8.080147      -219.8720
  17   2.0000      -8.077854      -219.8096
  18   2.0000      -6.038838      -164.3251
  19   2.0000      -6.036345      -164.2573
  20   2.0000      -6.034734      -164.2135
  21   2.0000      -6.032230      -164.1453
  22   2.0000      -6.030650      -164.1023
  23   2.0000      -6.028779      -164.0514
  24   2.0000      -1.008055       -27.4306
  25   2.0000      -0.982705       -26.7408
  26   2.0000      -0.917607       -24.9693
  27   2.0000      -0.912022       -24.8174
  28   2.0000      -0.869532       -23.6612
  29   2.0000      -0.854110       -23.2415
  30   2.0000      -0.844868       -22.9900
  31   2.0000      -0.817533       -22.2462
  32   2.0000      -0.778983       -21.1972
  33   2.0000      -0.770912       -20.9776
  34   2.0000      -0.703718       -19.1491
  35   2.0000      -0.697171       -18.9710
  36   2.0000      -0.688791       -18.7429
  37   2.0000      -0.662862       -18.0374
  38   2.0000      -0.645376       -17.5616
  39   2.0000      -0.623599       -16.9690
  40   2.0000      -0.596259       -16.2250
  41   2.0000      -0.582023       -15.8376
  42   2.0000      -0.576010       -15.6740
  43   2.0000      -0.565547       -15.3893
  44   2.0000      -0.528363       -14.3775
  45   2.0000      -0.526913       -14.3380
  46   2.0000      -0.518268       -14.1028
  47   2.0000      -0.506588       -13.7850
  48   2.0000      -0.505663       -13.7598
  49   2.0000      -0.499088       -13.5809
  50   2.0000      -0.488792       -13.3007
  51   2.0000      -0.481082       -13.0909
  52   2.0000      -0.470748       -12.8097
  53   2.0000      -0.464844       -12.6491
  54   2.0000      -0.460116       -12.5204
  55   2.0000      -0.447817       -12.1857
  56   2.0000      -0.441401       -12.0111
  57   2.0000      -0.434657       -11.8276
  58   2.0000      -0.432251       -11.7622
  59   2.0000      -0.425474       -11.5777
  60   2.0000      -0.420638       -11.4462
  61   2.0000      -0.412993       -11.2381
  62   2.0000      -0.409227       -11.1356
  63   2.0000      -0.350232        -9.5303
  64   2.0000      -0.333105        -9.0642
  65   2.0000      -0.322484        -8.7752
  66   2.0000      -0.295680        -8.0459
  67   0.0000       0.025202         0.6858
  68   0.0000       0.068284         1.8581
  69   0.0000       0.105328         2.8661
  70   0.0000       0.116491         3.1699
  71   0.0000       0.131398         3.5755

MULLIKEN ATOMIC CHARGES
-----------------------
   0 S :    0.118283
   1 C :   -0.121591
   2 C :   -0.080086
   3 C :    0.031049
   4 C :   -0.117776
   5 H :    0.004623
   6 C :    0.057821
   7 H :    0.041217
   8 H :    0.008223
   9 C :   -0.066420
  10 H :    0.012029
  11 H :    0.022220
  12 C :   -0.055612
  13 H :    0.044325
  14 H :    0.028526
  15 H :    0.041263
  16 S :    0.102997
  17 C :   -0.055288
  18 C :   -0.102593
  19 C :    0.033388
  20 C :   -0.178624
  21 H :    0.039363
  22 C :    0.009963
  23 H :    0.013836
  24 H :    0.021003
  25 C :   -0.074255
  26 H :    0.019228
  27 H :    0.046225
  28 C :   -0.010776
  29 H :    0.020491
  30 H :    0.030334
  31 H :    0.038186
  32 H :    0.042484
  33 H :    0.035946
Sum of atomic charges:    0.0000000

LOEWDIN ATOMIC CHARGES
----------------------
   0 S :    0.397937
   1 C :   -0.193630
   2 C :   -0.057549
   3 C :   -0.068656
   4 C :   -0.188070
   5 H :    0.027908
   6 C :   -0.026089
   7 H :    0.038128
   8 H :    0.019774
   9 C :   -0.041945
  10 H :    0.016185
  11 H :    0.020165
  12 C :   -0.068191
  13 H :    0.033328
  14 H :    0.030261
  15 H :    0.025238
  16 S :    0.409403
  17 C :   -0.187785
  18 C :   -0.066937
  19 C :   -0.055691
  20 C :   -0.185516
  21 H :    0.036995
  22 C :   -0.041096
  23 H :    0.028725
  24 H :    0.027926
  25 C :   -0.038238
  26 H :    0.017776
  27 H :    0.032875
  28 C :   -0.060705
  29 H :    0.019541
  30 H :    0.029755
  31 H :    0.029719
  32 H :    0.026063
  33 H :    0.012396

  Mayer bond orders larger than 0.100000
B(  0-S ,  1-C ) :   1.1285 B(  0-S ,  4-C ) :   1.1301 B(  1-C ,  2-C ) :   1.6312
B(  1-C , 32-H ) :   0.9712 B(  2-C ,  3-C ) :   1.2276 B(  2-C ,  6-C ) :   1.0059
B(  3-C ,  4-C ) :   1.6186 B(  3-C ,  5-H ) :   0.9991 B(  4-C , 20-C ) :   1.0216
B(  6-C ,  7-H ) :   0.9453 B(  6-C ,  8-H ) :   0.9522 B(  6-C ,  9-C ) :   1.0566
B(  9-C , 10-H ) :   0.9542 B(  9-C , 11-H ) :   0.9550 B(  9-C , 12-C ) :   1.0936
B( 12-C , 13-H ) :   0.9719 B( 12-C , 14-H ) :   0.9711 B( 12-C , 15-H ) :   0.9721
B( 16-S , 17-C ) :   1.1509 B( 16-S , 20-C ) :   1.1620 B( 17-C , 18-C ) :   1.6100
B( 17-C , 20-C ) :   0.1050 B( 17-C , 33-H ) :   0.9699 B( 18-C , 19-C ) :   1.2270
B( 18-C , 21-H ) :   0.9841 B( 19-C , 20-C ) :   1.5660 B( 19-C , 22-C ) :   1.0660
B( 22-C , 23-H ) :   0.9344 B( 22-C , 24-H ) :   0.9303 B( 22-C , 25-C ) :   1.0681
B( 25-C , 26-H ) :   0.9564 B( 25-C , 27-H ) :   0.9540 B( 25-C , 28-C ) :   1.0828
B( 28-C , 29-H ) :   0.9723 B( 28-C , 30-H ) :   0.9726 B( 28-C , 31-H ) :   0.9750

Dispersion correction           -0.013771849
FINAL SINGLE POINT ENERGY     -1339.852545858464

DIPOLE MOMENT
-------------
                                X             Y             Z
Electronic contribution:    -15.89294      -3.35238      25.23056
Nuclear contribution   :     16.16801       3.27311     -25.88704
                        -----------------------------------------
Total Dipole Moment    :      0.27507      -0.07928      -0.65648
                        -----------------------------------------
Magnitude (a.u.)       :      0.71618
Magnitude (Debye)      :      1.82039

Rotational constants in cm-1:     0.019222     0.008245     0.006373
Rotational constants in MHz :   576.253931   247.177464   191.054281

                             ****ORCA TERMINATED NORMALLY****
TOTAL RUN TIME: 0 days 0 hours 0 minutes 20 seconds 141 msec
