                         Program Version 4.2.1 -  RELEASE  -
|  1> ! wB97X-D3 SP def2-SVP
|  2> %pal
|  3> nprocs 24
|  4> end
|  5>
|  6> * xyz 0 1
|  7> S 	 -87.4266 	 0.331243 	 6.07629
|  8> C 	 -86.8931 	 0.184086 	 4.43563
|  9> C 	 -87.609 	 -0.825279 	 3.75686
| 10> C 	 -88.4408 	 -1.58149 	 4.65249
| 11> C 	 -88.478 	 -1.09351 	 5.96022
| 12> H 	 -89.1199 	 -2.36132 	 4.44162
| 13> C 	 -87.2207 	 -1.40341 	 2.392
| 14> H 	 -87.0624 	 -2.44822 	 2.52486
| 15> H 	 -86.2942 	 -0.895982 	 2.06512
| 16> C 	 -88.2428 	 -1.13989 	 1.30043
| 17> H 	 -87.9918 	 -1.65333 	 0.402281
| 18> H 	 -89.2721 	 -1.45853 	 1.55802
| 19> C 	 -88.2694 	 0.328539 	 0.873149
| 20> H 	 -87.2785 	 0.614371 	 0.543528
| 21> H 	 -89.0374 	 0.61948 	 0.099956
| 22> H 	 -88.4195 	 0.923996 	 1.82079
| 23> S 	 -90.1375 	 -0.447749 	 8.0464
| 24> C 	 -90.6396 	 -1.72752 	 9.17697
| 25> C 	 -90.0982 	 -2.97758 	 8.81167
| 26> C 	 -89.2961 	 -2.90839 	 7.59067
| 27> C 	 -89.1641 	 -1.57672 	 7.10921
| 28> H 	 -90.2596 	 -3.8801 	 9.38065
| 29> C 	 -88.721 	 -4.11523 	 6.8872
| 30> H 	 -88.8801 	 -4.07995 	 5.82886
| 31> H 	 -89.352 	 -4.94972 	 7.10799
| 32> C 	 -87.2294 	 -4.25928 	 7.20978
| 33> H 	 -87.2943 	 -4.69852 	 8.18004
| 34> H 	 -86.6923 	 -3.31813 	 7.27798
| 35> C 	 -86.4974 	 -5.15357 	 6.25238
| 36> H 	 -85.4666 	 -5.13426 	 6.55584
| 37> H 	 -86.6107 	 -4.63852 	 5.27201
| 38> H 	 -86.8265 	 -6.14934 	 6.30051
| 39> H 	 -86.0128 	 0.713574 	 4.03756
| 40> H 	 -91.3403 	 -1.61319 	 9.97549
| 41> *
| 42>
| 43>                          ****END OF INPUT****

CARTESIAN COORDINATES (ANGSTROEM)
---------------------------------
  S    -87.426600    0.331243    6.076290
  C    -86.893100    0.184086    4.435630
  C    -87.609000   -0.825279    3.756860
  C    -88.440800   -1.581490    4.652490
  C    -88.478000   -1.093510    5.960220
  H    -89.119900   -2.361320    4.441620
  C    -87.220700   -1.403410    2.392000
  H    -87.062400   -2.448220    2.524860
  H    -86.294200   -0.895982    2.065120
  C    -88.242800   -1.139890    1.300430
  H    -87.991800   -1.653330    0.402281
  H    -89.272100   -1.458530    1.558020
  C    -88.269400    0.328539    0.873149
  H    -87.278500    0.614371    0.543528
  H    -89.037400    0.619480    0.099956
  H    -88.419500    0.923996    1.820790
  S    -90.137500   -0.447749    8.046400
  C    -90.639600   -1.727520    9.176970
  C    -90.098200   -2.977580    8.811670
  C    -89.296100   -2.908390    7.590670
  C    -89.164100   -1.576720    7.109210
  H    -90.259600   -3.880100    9.380650
  C    -88.721000   -4.115230    6.887200
  H    -88.880100   -4.079950    5.828860
  H    -89.352000   -4.949720    7.107990
  C    -87.229400   -4.259280    7.209780
  H    -87.294300   -4.698520    8.180040
  H    -86.692300   -3.318130    7.277980
  C    -86.497400   -5.153570    6.252380
  H    -85.466600   -5.134260    6.555840
  H    -86.610700   -4.638520    5.272010
  H    -86.826500   -6.149340    6.300510
  H    -86.012800    0.713574    4.037560
  H    -91.340300   -1.613190    9.975490

 Total Charge           Charge          ....    0
 Multiplicity           Mult            ....    1
 Number of Electrons    NEL             ....  134
 Basis Dimension        Dim             ....  322

ORBITAL ENERGIES
----------------

  NO   OCC          E(Eh)            E(eV)
   0   2.0000     -88.969507     -2420.9834
   1   2.0000     -88.967158     -2420.9195
   2   2.0000     -10.331476      -281.1338
   3   2.0000     -10.328269      -281.0465
   4   2.0000     -10.322979      -280.9025
   5   2.0000     -10.320695      -280.8404
   6   2.0000     -10.309553      -280.5372
   7   2.0000     -10.307771      -280.4887
   8   2.0000     -10.302534      -280.3462
   9   2.0000     -10.295838      -280.1640
  10   2.0000     -10.293880      -280.1107
  11   2.0000     -10.285446      -279.8812
  12   2.0000     -10.282081      -279.7896
  13   2.0000     -10.278359      -279.6884
  14   2.0000     -10.276113      -279.6272
  15   2.0000     -10.270257      -279.4679
  16   2.0000      -8.083282      -219.9573
  17   2.0000      -8.081823      -219.9176
  18   2.0000      -6.041841      -164.4068
  19   2.0000      -6.040270      -164.3641
  20   2.0000      -6.037885      -164.2992
  21   2.0000      -6.036206      -164.2535
  22   2.0000      -6.034075      -164.1955
  23   2.0000      -6.032777      -164.1602
  24   2.0000      -1.002830       -27.2884
  25   2.0000      -0.976181       -26.5632
  26   2.0000      -0.914920       -24.8962
  27   2.0000      -0.913430       -24.8557
  28   2.0000      -0.870019       -23.6744
  29   2.0000      -0.853124       -23.2147
  30   2.0000      -0.845240       -23.0001
  31   2.0000      -0.812109       -22.0986
  32   2.0000      -0.782107       -21.2822
  33   2.0000      -0.768189       -20.9035
  34   2.0000      -0.708068       -19.2675
  35   2.0000      -0.695546       -18.9268
  36   2.0000      -0.691362       -18.8129
  37   2.0000      -0.663950       -18.0670
  38   2.0000      -0.645600       -17.5677
  39   2.0000      -0.620256       -16.8780
  40   2.0000      -0.595209       -16.1965
  41   2.0000      -0.574479       -15.6324
  42   2.0000      -0.566821       -15.4240
  43   2.0000      -0.556255       -15.1365
  44   2.0000      -0.540555       -14.7093
  45   2.0000      -0.532683       -14.4950
  46   2.0000      -0.517504       -14.0820
  47   2.0000      -0.511488       -13.9183
  48   2.0000      -0.504645       -13.7321
  49   2.0000      -0.500994       -13.6327
  50   2.0000      -0.487329       -13.2609
  51   2.0000      -0.484400       -13.1812
  52   2.0000      -0.467211       -12.7135
  53   2.0000      -0.462794       -12.5933
  54   2.0000      -0.453194       -12.3320
  55   2.0000      -0.446566       -12.1517
  56   2.0000      -0.443587       -12.0706
  57   2.0000      -0.438377       -11.9289
  58   2.0000      -0.431809       -11.7501
  59   2.0000      -0.429284       -11.6814
  60   2.0000      -0.424109       -11.5406
  61   2.0000      -0.411720       -11.2035
  62   2.0000      -0.409709       -11.1488
  63   2.0000      -0.350929        -9.5493
  64   2.0000      -0.331421        -9.0184
  65   2.0000      -0.328918        -8.9503
  66   2.0000      -0.284870        -7.7517
  67   0.0000       0.024088         0.6555
  68   0.0000       0.060949         1.6585
  69   0.0000       0.104723         2.8497
  70   0.0000       0.110690         3.0120
  71   0.0000       0.131627         3.5818

MULLIKEN ATOMIC CHARGES
-----------------------
   0 S :    0.111034
   1 C :   -0.126494
   2 C :   -0.087105
   3 C :    0.033210
   4 C :   -0.166910
   5 H :    0.009446
   6 C :    0.068106
   7 H :    0.032831
   8 H :    0.017212
   9 C :   -0.051689
  10 H :    0.019992
  11 H :    0.029990
  12 C :   -0.087587
  13 H :    0.015388
  14 H :    0.052676
  15 H :    0.038079
  16 S :    0.111929
  17 C :   -0.088877
  18 C :   -0.024780
  19 C :   -0.062721
  20 C :   -0.146449
  21 H :    0.020183
  22 C :    0.094570
  23 H :   -0.009236
  24 H :    0.009154
  25 C :   -0.078938
  26 H :    0.013994
  27 H :    0.045550
  28 C :   -0.003146
  29 H :    0.027961
  30 H :    0.036744
  31 H :    0.022375
  32 H :    0.068519
  33 H :    0.054987
Sum of atomic charges:    0.0000000

LOEWDIN ATOMIC CHARGES
----------------------
   0 S :    0.405974
   1 C :   -0.206173
   2 C :   -0.063959
   3 C :   -0.058600
   4 C :   -0.186551
   5 H :    0.024846
   6 C :   -0.022315
   7 H :    0.029185
   8 H :    0.031430
   9 C :   -0.044645
  10 H :    0.018379
  11 H :    0.024108
  12 C :   -0.073492
  13 H :    0.016731
  14 H :    0.032688
  15 H :    0.029159
  16 S :    0.398307
  17 C :   -0.178368
  18 C :   -0.065844
  19 C :   -0.043720
  20 C :   -0.205701
  21 H :    0.030831
  22 C :   -0.032775
  23 H :    0.019016
  24 H :    0.027795
  25 C :   -0.035098
  26 H :    0.020064
  27 H :    0.029776
  28 C :   -0.057236
  29 H :    0.026527
  30 H :    0.030845
  31 H :    0.017137
  32 H :    0.035622
  33 H :    0.026058

  Mayer bond orders larger than 0.100000
B(  0-S ,  1-C ) :   1.1553 B(  0-S ,  4-C ) :   1.1406 B(  1-C ,  2-C ) :   1.5814
B(  1-C ,  4-C ) :   0.1031 B(  1-C , 32-H ) :   0.9643 B(  2-C ,  3-C ) :   1.2338
B(  2-C ,  6-C ) :   1.0213 B(  3-C ,  4-C ) :   1.5748 B(  3-C ,  5-H ) :   0.9953
B(  4-C , 20-C ) :   1.0738 B(  6-C ,  7-H ) :   0.9476 B(  6-C ,  8-H ) :   0.9453
B(  6-C ,  9-C ) :   1.0680 B(  9-C , 10-H ) :   0.9547 B(  9-C , 11-H ) :   0.9573
B(  9-C , 12-C ) :   1.0701 B( 12-C , 13-H ) :   0.9723 B( 12-C , 14-H ) :   0.9747
B( 12-C , 15-H ) :   0.9753 B( 16-S , 17-C ) :   1.1490 B( 16-S , 20-C ) :   1.1387
B( 17-C , 18-C ) :   1.5943 B( 17-C , 20-C ) :   0.1044 B( 17-C , 33-H ) :   0.9717
B( 18-C , 19-C ) :   1.2546 B( 18-C , 21-H ) :   0.9873 B( 19-C , 20-C ) :   1.5659
B( 19-C , 22-C ) :   1.0471 B( 22-C , 23-H ) :   0.9370 B( 22-C , 24-H ) :   0.9249
B( 22-C , 25-C ) :   1.0376 B( 25-C , 26-H ) :   0.9505 B( 25-C , 27-H ) :   0.9649
B( 25-C , 28-C ) :   1.0908 B( 28-C , 29-H ) :   0.9708 B( 28-C , 30-H ) :   0.9745
B( 28-C , 31-H ) :   0.9713

Dispersion correction           -0.014811801
FINAL SINGLE POINT ENERGY     -1339.877732216451

DIPOLE MOMENT
-------------
                                X             Y             Z
Electronic contribution:     -7.86569      14.92827      19.70432
Nuclear contribution   :      7.97626     -15.59689     -19.94335
                        -----------------------------------------
Total Dipole Moment    :      0.11057      -0.66862      -0.23903
                        -----------------------------------------
Magnitude (a.u.)       :      0.71862
Magnitude (Debye)      :      1.82659

Rotational constants in cm-1:     0.019237     0.008788     0.007113
Rotational constants in MHz :   576.712117   263.459273   213.255949

                             ****ORCA TERMINATED NORMALLY****
TOTAL RUN TIME: 0 days 0 hours 0 minutes 21 seconds 26 msec
