                         Program Version 4.2.1 -  RELEASE  -
|  1> ! wB97X-D3 SP def2-SVP
|  2> %pal
|  3> nprocs 24
|  4> end
|  5>
|  6> * xyz 0 1
|  7> S 	 -99.8462 	 3.80934 	 -121.973
|  8> C 	 -101.225 	 3.45802 	 -123.074
|  9> C 	 -102.213 	 2.68718 	 -122.467
| 10> C 	 -101.79 	 2.37194 	 -121.19
| 11> C 	 -100.592 	 2.87102 	 -120.758
| 12> H 	 -102.382 	 1.78512 	 -120.53
| 13> C 	 -103.522 	 2.21645 	 -123.04
| 14> H 	 -103.415 	 2.59657 	 -124.064
| 15> H 	 -104.321 	 2.89169 	 -122.703
| 16> C 	 -103.919 	 0.741322 	 -123.123
| 17> H 	 -103.241 	 0.178599 	 -123.743
| 18> H 	 -103.87 	 0.29641 	 -122.178
| 19> C 	 -105.337 	 0.273161 	 -123.736
| 20> H 	 -106.224 	 0.748579 	 -123.216
| 21> H 	 -105.508 	 0.633052 	 -124.799
| 22> H 	 -105.378 	 -0.796468 	 -123.783
| 23> S 	 -100.248 	 3.78108 	 -118.272
| 24> C 	 -99.343 	 2.84393 	 -117.109
| 25> C 	 -98.9695 	 1.64999 	 -117.639
| 26> C 	 -99.2144 	 1.51732 	 -119.031
| 27> C 	 -100.017 	 2.56267 	 -119.482
| 28> H 	 -98.3695 	 0.987582 	 -116.987
| 29> C 	 -98.8517 	 0.311548 	 -119.788
| 30> H 	 -99.5026 	 0.219322 	 -120.589
| 31> H 	 -98.9645 	 -0.56774 	 -119.182
| 32> C 	 -97.508 	 0.357726 	 -120.416
| 33> H 	 -96.8433 	 0.540979 	 -119.55
| 34> H 	 -97.3687 	 1.2356 	 -121.092
| 35> C 	 -97.1555 	 -0.87938 	 -121.239
| 36> H 	 -97.3069 	 -1.78296 	 -120.63
| 37> H 	 -96.1075 	 -0.816711 	 -121.409
| 38> H 	 -97.7728 	 -0.888696 	 -122.134
| 39> H 	 -101.262 	 3.96084 	 -124.037
| 40> H 	 -98.9877 	 3.13906 	 -116.159
| 41> *
| 42>
| 43>                          ****END OF INPUT****

CARTESIAN COORDINATES (ANGSTROEM)
---------------------------------
  S    -99.846200    3.809340  -121.973000
  C    -101.225000    3.458020  -123.074000
  C    -102.213000    2.687180  -122.467000
  C    -101.790000    2.371940  -121.190000
  C    -100.592000    2.871020  -120.758000
  H    -102.382000    1.785120  -120.530000
  C    -103.522000    2.216450  -123.040000
  H    -103.415000    2.596570  -124.064000
  H    -104.321000    2.891690  -122.703000
  C    -103.919000    0.741322  -123.123000
  H    -103.241000    0.178599  -123.743000
  H    -103.870000    0.296410  -122.178000
  C    -105.337000    0.273161  -123.736000
  H    -106.224000    0.748579  -123.216000
  H    -105.508000    0.633052  -124.799000
  H    -105.378000   -0.796468  -123.783000
  S    -100.248000    3.781080  -118.272000
  C    -99.343000    2.843930  -117.109000
  C    -98.969500    1.649990  -117.639000
  C    -99.214400    1.517320  -119.031000
  C    -100.017000    2.562670  -119.482000
  H    -98.369500    0.987582  -116.987000
  C    -98.851700    0.311548  -119.788000
  H    -99.502600    0.219322  -120.589000
  H    -98.964500   -0.567740  -119.182000
  C    -97.508000    0.357726  -120.416000
  H    -96.843300    0.540979  -119.550000
  H    -97.368700    1.235600  -121.092000
  C    -97.155500   -0.879380  -121.239000
  H    -97.306900   -1.782960  -120.630000
  H    -96.107500   -0.816711  -121.409000
  H    -97.772800   -0.888696  -122.134000
  H    -101.262000    3.960840  -124.037000
  H    -98.987700    3.139060  -116.159000

 Total Charge           Charge          ....    0
 Multiplicity           Mult            ....    1
 Number of Electrons    NEL             ....  134
 Basis Dimension        Dim             ....  322

ORBITAL ENERGIES
----------------

  NO   OCC          E(Eh)            E(eV)
   0   2.0000     -88.968912     -2420.9672
   1   2.0000     -88.961719     -2420.7714
   2   2.0000     -10.319991      -280.8212
   3   2.0000     -10.319129      -280.7978
   4   2.0000     -10.318547      -280.7819
   5   2.0000     -10.308335      -280.5041
   6   2.0000     -10.301467      -280.3172
   7   2.0000     -10.297702      -280.2147
   8   2.0000     -10.297106      -280.1985
   9   2.0000     -10.294088      -280.1164
  10   2.0000     -10.291870      -280.0560
  11   2.0000     -10.288589      -279.9668
  12   2.0000     -10.281301      -279.7684
  13   2.0000     -10.279332      -279.7149
  14   2.0000     -10.273549      -279.5575
  15   2.0000     -10.272058      -279.5169
  16   2.0000      -8.083522      -219.9638
  17   2.0000      -8.077026      -219.7871
  18   2.0000      -6.041859      -164.4073
  19   2.0000      -6.038070      -164.3042
  20   2.0000      -6.035504      -164.2344
  21   2.0000      -6.034450      -164.2057
  22   2.0000      -6.031340      -164.1211
  23   2.0000      -6.027899      -164.0275
  24   2.0000      -1.012716       -27.5574
  25   2.0000      -0.988374       -26.8950
  26   2.0000      -0.919331       -25.0163
  27   2.0000      -0.910675       -24.7807
  28   2.0000      -0.870365       -23.6838
  29   2.0000      -0.851007       -23.1571
  30   2.0000      -0.849955       -23.1284
  31   2.0000      -0.814694       -22.1689
  32   2.0000      -0.787610       -21.4320
  33   2.0000      -0.773562       -21.0497
  34   2.0000      -0.714160       -19.4333
  35   2.0000      -0.700416       -19.0593
  36   2.0000      -0.689753       -18.7691
  37   2.0000      -0.659803       -17.9542
  38   2.0000      -0.644410       -17.5353
  39   2.0000      -0.626230       -17.0406
  40   2.0000      -0.602099       -16.3839
  41   2.0000      -0.571282       -15.5454
  42   2.0000      -0.567182       -15.4338
  43   2.0000      -0.554037       -15.0761
  44   2.0000      -0.531113       -14.4523
  45   2.0000      -0.526931       -14.3385
  46   2.0000      -0.516715       -14.0605
  47   2.0000      -0.515107       -14.0168
  48   2.0000      -0.502720       -13.6797
  49   2.0000      -0.499437       -13.5904
  50   2.0000      -0.495943       -13.4953
  51   2.0000      -0.483140       -13.1469
  52   2.0000      -0.471282       -12.8242
  53   2.0000      -0.462015       -12.5721
  54   2.0000      -0.458745       -12.4831
  55   2.0000      -0.451806       -12.2943
  56   2.0000      -0.441563       -12.0155
  57   2.0000      -0.439295       -11.9538
  58   2.0000      -0.433178       -11.7874
  59   2.0000      -0.423750       -11.5308
  60   2.0000      -0.423316       -11.5190
  61   2.0000      -0.413932       -11.2637
  62   2.0000      -0.409638       -11.1468
  63   2.0000      -0.339937        -9.2501
  64   2.0000      -0.331103        -9.0098
  65   2.0000      -0.315041        -8.5727
  66   2.0000      -0.311398        -8.4736
  67   0.0000       0.045829         1.2471
  68   0.0000       0.055449         1.5088
  69   0.0000       0.115848         3.1524
  70   0.0000       0.123226         3.3531
  71   0.0000       0.131514         3.5787

MULLIKEN ATOMIC CHARGES
-----------------------
   0 S :    0.127126
   1 C :   -0.158658
   2 C :   -0.063534
   3 C :    0.041342
   4 C :   -0.163228
   5 H :   -0.008258
   6 C :    0.104899
   7 H :    0.002513
   8 H :    0.042334
   9 C :   -0.044240
  10 H :    0.028923
  11 H :    0.023736
  12 C :   -0.099594
  13 H :    0.043338
  14 H :    0.034487
  15 H :    0.044359
  16 S :    0.113368
  17 C :   -0.068638
  18 C :   -0.055523
  19 C :   -0.003486
  20 C :   -0.204874
  21 H :    0.024001
  22 C :    0.146974
  23 H :   -0.012669
  24 H :    0.013796
  25 C :   -0.138647
  26 H :    0.016289
  27 H :    0.031441
  28 C :    0.002071
  29 H :    0.021653
  30 H :    0.031440
  31 H :    0.041901
  32 H :    0.050443
  33 H :    0.034916
Sum of atomic charges:    0.0000000

LOEWDIN ATOMIC CHARGES
----------------------
   0 S :    0.413972
   1 C :   -0.179780
   2 C :   -0.063619
   3 C :   -0.056228
   4 C :   -0.223823
   5 H :    0.024765
   6 C :   -0.038939
   7 H :    0.033679
   8 H :    0.039362
   9 C :   -0.034566
  10 H :    0.027440
  11 H :    0.015616
  12 C :   -0.069911
  13 H :    0.029227
  14 H :    0.028386
  15 H :    0.025313
  16 S :    0.417325
  17 C :   -0.183101
  18 C :   -0.075254
  19 C :   -0.048129
  20 C :   -0.204753
  21 H :    0.034943
  22 C :   -0.031561
  23 H :    0.020262
  24 H :    0.029714
  25 C :   -0.043023
  26 H :    0.019196
  27 H :    0.026435
  28 C :   -0.058138
  29 H :    0.024257
  30 H :    0.025639
  31 H :    0.028523
  32 H :    0.023910
  33 H :    0.022857

  Mayer bond orders larger than 0.100000
B(  0-S ,  1-C ) :   1.1541 B(  0-S ,  4-C ) :   1.1557 B(  1-C ,  2-C ) :   1.5745
B(  1-C ,  4-C ) :   0.1048 B(  1-C , 32-H ) :   0.9647 B(  2-C ,  3-C ) :   1.2699
B(  2-C ,  6-C ) :   1.0222 B(  3-C ,  4-C ) :   1.5718 B(  3-C ,  5-H ) :   1.0013
B(  4-C , 20-C ) :   1.0119 B(  6-C ,  7-H ) :   0.9266 B(  6-C ,  8-H ) :   0.9293
B(  6-C ,  9-C ) :   1.0524 B(  9-C , 10-H ) :   0.9563 B(  9-C , 11-H ) :   0.9595
B(  9-C , 12-C ) :   1.0742 B( 12-C , 13-H ) :   0.9768 B( 12-C , 14-H ) :   0.9778
B( 12-C , 15-H ) :   0.9770 B( 16-S , 17-C ) :   1.1484 B( 16-S , 20-C ) :   1.1610
B( 17-C , 18-C ) :   1.6306 B( 17-C , 20-C ) :   0.1014 B( 17-C , 33-H ) :   0.9691
B( 18-C , 19-C ) :   1.2312 B( 18-C , 21-H ) :   0.9811 B( 19-C , 20-C ) :   1.5930
B( 19-C , 22-C ) :   1.0570 B( 22-C , 23-H ) :   0.9104 B( 22-C , 24-H ) :   0.9298
B( 22-C , 25-C ) :   1.0650 B( 25-C , 26-H ) :   0.9554 B( 25-C , 27-H ) :   0.9509
B( 25-C , 28-C ) :   1.0853 B( 28-C , 29-H ) :   0.9713 B( 28-C , 30-H ) :   0.9722
B( 28-C , 31-H ) :   0.9727

Dispersion correction           -0.013856712
FINAL SINGLE POINT ENERGY     -1339.867116803948

DIPOLE MOMENT
-------------
                                X             Y             Z
Electronic contribution:      6.48657      22.14230      12.83523
Nuclear contribution   :     -6.64375     -22.62549     -13.01899
                        -----------------------------------------
Total Dipole Moment    :     -0.15719      -0.48319      -0.18376
                        -----------------------------------------
Magnitude (a.u.)       :      0.54032
Magnitude (Debye)      :      1.37340

Rotational constants in cm-1:     0.017184     0.008019     0.007025
Rotational constants in MHz :   515.174717   240.409418   210.616990

                             ****ORCA TERMINATED NORMALLY****
TOTAL RUN TIME: 0 days 0 hours 0 minutes 21 seconds 192 msec
