                         Program Version 4.2.1 -  RELEASE  -
|  1> ! wB97X-D3 SP def2-SVP
|  2> %pal
|  3> nprocs 24
|  4> end
|  5>
|  6> * xyz 0 1
|  7> S 	 -127.232 	 67.988 	 -63.5866
|  8> C 	 -125.972 	 68.8834 	 -62.6499
|  9> C 	 -126.597 	 69.9195 	 -61.9506
| 10> C 	 -128.022 	 69.949 	 -62.1444
| 11> C 	 -128.559 	 68.8635 	 -62.8448
| 12> H 	 -128.608 	 70.7208 	 -61.7613
| 13> C 	 -125.869 	 70.9694 	 -61.1703
| 14> H 	 -124.831 	 70.6952 	 -60.8779
| 15> H 	 -126.252 	 71.0553 	 -60.1389
| 16> C 	 -125.697 	 72.4102 	 -61.8132
| 17> H 	 -126.73 	 72.8108 	 -61.9831
| 18> H 	 -125.205 	 73.0393 	 -61.0495
| 19> C 	 -124.836 	 72.5588 	 -63.1061
| 20> H 	 -124.624 	 73.6019 	 -63.2869
| 21> H 	 -123.967 	 71.8371 	 -63.0893
| 22> H 	 -125.342 	 72.2707 	 -64.0226
| 23> S 	 -130.495 	 66.9891 	 -62.6624
| 24> C 	 -132.17 	 67.3099 	 -63.0708
| 25> C 	 -132.276 	 68.6539 	 -63.5548
| 26> C 	 -131.013 	 69.3521 	 -63.5897
| 27> C 	 -129.977 	 68.5888 	 -63.0892
| 28> H 	 -133.249 	 69.0491 	 -63.8423
| 29> C 	 -130.789 	 70.8132 	 -64.0738
| 30> H 	 -129.719 	 70.9928 	 -64.2588
| 31> H 	 -131.208 	 71.3491 	 -63.2404
| 32> C 	 -131.571 	 71.1599 	 -65.3695
| 33> H 	 -131.27 	 72.1725 	 -65.6233
| 34> H 	 -132.636 	 71.2892 	 -64.9668
| 35> C 	 -131.355 	 70.2232 	 -66.5429
| 36> H 	 -131.699 	 70.5456 	 -67.549
| 37> H 	 -131.742 	 69.1657 	 -66.3878
| 38> H 	 -130.289 	 70.1525 	 -66.5987
| 39> H 	 -124.903 	 68.9014 	 -62.8117
| 40> H 	 -132.996 	 66.6899 	 -62.8274
| 41> *
| 42>
| 43>                          ****END OF INPUT****

CARTESIAN COORDINATES (ANGSTROEM)
---------------------------------
  S    -127.232000   67.988000  -63.586600
  C    -125.972000   68.883400  -62.649900
  C    -126.597000   69.919500  -61.950600
  C    -128.022000   69.949000  -62.144400
  C    -128.559000   68.863500  -62.844800
  H    -128.608000   70.720800  -61.761300
  C    -125.869000   70.969400  -61.170300
  H    -124.831000   70.695200  -60.877900
  H    -126.252000   71.055300  -60.138900
  C    -125.697000   72.410200  -61.813200
  H    -126.730000   72.810800  -61.983100
  H    -125.205000   73.039300  -61.049500
  C    -124.836000   72.558800  -63.106100
  H    -124.624000   73.601900  -63.286900
  H    -123.967000   71.837100  -63.089300
  H    -125.342000   72.270700  -64.022600
  S    -130.495000   66.989100  -62.662400
  C    -132.170000   67.309900  -63.070800
  C    -132.276000   68.653900  -63.554800
  C    -131.013000   69.352100  -63.589700
  C    -129.977000   68.588800  -63.089200
  H    -133.249000   69.049100  -63.842300
  C    -130.789000   70.813200  -64.073800
  H    -129.719000   70.992800  -64.258800
  H    -131.208000   71.349100  -63.240400
  C    -131.571000   71.159900  -65.369500
  H    -131.270000   72.172500  -65.623300
  H    -132.636000   71.289200  -64.966800
  C    -131.355000   70.223200  -66.542900
  H    -131.699000   70.545600  -67.549000
  H    -131.742000   69.165700  -66.387800
  H    -130.289000   70.152500  -66.598700
  H    -124.903000   68.901400  -62.811700
  H    -132.996000   66.689900  -62.827400

 Total Charge           Charge          ....    0
 Multiplicity           Mult            ....    1
 Number of Electrons    NEL             ....  134
 Basis Dimension        Dim             ....  322

ORBITAL ENERGIES
----------------

  NO   OCC          E(Eh)            E(eV)
   0   2.0000     -88.967847     -2420.9382
   1   2.0000     -88.965671     -2420.8790
   2   2.0000     -10.335753      -281.2501
   3   2.0000     -10.326385      -280.9952
   4   2.0000     -10.323327      -280.9120
   5   2.0000     -10.320270      -280.8288
   6   2.0000     -10.308338      -280.5041
   7   2.0000     -10.305114      -280.4164
   8   2.0000     -10.304452      -280.3984
   9   2.0000     -10.299628      -280.2671
  10   2.0000     -10.298890      -280.2470
  11   2.0000     -10.296013      -280.1687
  12   2.0000     -10.293076      -280.0888
  13   2.0000     -10.292983      -280.0863
  14   2.0000     -10.283843      -279.8376
  15   2.0000     -10.280778      -279.7542
  16   2.0000      -8.081367      -219.9052
  17   2.0000      -8.080552      -219.8830
  18   2.0000      -6.040123      -164.3601
  19   2.0000      -6.039044      -164.3307
  20   2.0000      -6.036010      -164.2482
  21   2.0000      -6.034819      -164.2158
  22   2.0000      -6.031947      -164.1376
  23   2.0000      -6.031530      -164.1263
  24   2.0000      -1.003253       -27.2999
  25   2.0000      -0.978216       -26.6186
  26   2.0000      -0.907923       -24.7058
  27   2.0000      -0.903068       -24.5737
  28   2.0000      -0.864505       -23.5244
  29   2.0000      -0.846687       -23.0395
  30   2.0000      -0.839915       -22.8552
  31   2.0000      -0.812498       -22.1092
  32   2.0000      -0.784414       -21.3450
  33   2.0000      -0.776361       -21.1258
  34   2.0000      -0.707094       -19.2410
  35   2.0000      -0.695947       -18.9377
  36   2.0000      -0.694440       -18.8967
  37   2.0000      -0.658665       -17.9232
  38   2.0000      -0.637729       -17.3535
  39   2.0000      -0.622408       -16.9366
  40   2.0000      -0.590977       -16.0813
  41   2.0000      -0.569093       -15.4858
  42   2.0000      -0.561477       -15.2786
  43   2.0000      -0.545706       -14.8494
  44   2.0000      -0.539922       -14.6920
  45   2.0000      -0.534321       -14.5396
  46   2.0000      -0.520769       -14.1708
  47   2.0000      -0.510723       -13.8975
  48   2.0000      -0.502212       -13.6659
  49   2.0000      -0.493626       -13.4322
  50   2.0000      -0.485591       -13.2136
  51   2.0000      -0.479984       -13.0610
  52   2.0000      -0.472531       -12.8582
  53   2.0000      -0.469504       -12.7759
  54   2.0000      -0.455977       -12.4078
  55   2.0000      -0.446677       -12.1547
  56   2.0000      -0.441341       -12.0095
  57   2.0000      -0.439519       -11.9599
  58   2.0000      -0.438084       -11.9209
  59   2.0000      -0.418234       -11.3807
  60   2.0000      -0.413645       -11.2558
  61   2.0000      -0.410804       -11.1785
  62   2.0000      -0.408421       -11.1137
  63   2.0000      -0.343257        -9.3405
  64   2.0000      -0.331995        -9.0340
  65   2.0000      -0.326501        -8.8845
  66   2.0000      -0.295183        -8.0323
  67   0.0000       0.029749         0.8095
  68   0.0000       0.059430         1.6172
  69   0.0000       0.110666         3.0114
  70   0.0000       0.121255         3.2995
  71   0.0000       0.126375         3.4388

MULLIKEN ATOMIC CHARGES
-----------------------
   0 S :    0.102821
   1 C :   -0.107385
   2 C :   -0.071529
   3 C :    0.052785
   4 C :   -0.134481
   5 H :   -0.011843
   6 C :    0.018563
   7 H :    0.015553
   8 H :    0.037158
   9 C :   -0.098087
  10 H :    0.035525
  11 H :    0.039276
  12 C :   -0.051525
  13 H :    0.039530
  14 H :    0.033700
  15 H :    0.029242
  16 S :    0.114374
  17 C :   -0.089315
  18 C :   -0.058508
  19 C :   -0.038371
  20 C :   -0.183015
  21 H :    0.026130
  22 C :    0.059698
  23 H :    0.045764
  24 H :    0.042596
  25 C :   -0.092433
  26 H :    0.028880
  27 H :    0.029029
  28 C :   -0.042848
  29 H :    0.042765
  30 H :    0.052705
  31 H :    0.022184
  32 H :    0.054080
  33 H :    0.056980
Sum of atomic charges:   -0.0000000

LOEWDIN ATOMIC CHARGES
----------------------
   0 S :    0.386061
   1 C :   -0.184982
   2 C :   -0.062658
   3 C :   -0.054926
   4 C :   -0.192002
   5 H :    0.018541
   6 C :   -0.046454
   7 H :    0.031102
   8 H :    0.037110
   9 C :   -0.041242
  10 H :    0.023879
  11 H :    0.027631
  12 C :   -0.073550
  13 H :    0.028591
  14 H :    0.030283
  15 H :    0.024586
  16 S :    0.420997
  17 C :   -0.183809
  18 C :   -0.070553
  19 C :   -0.056395
  20 C :   -0.210059
  21 H :    0.030823
  22 C :   -0.025997
  23 H :    0.031764
  24 H :    0.034900
  25 C :   -0.048932
  26 H :    0.024680
  27 H :    0.024013
  28 C :   -0.073136
  29 H :    0.030521
  30 H :    0.036592
  31 H :    0.025361
  32 H :    0.031804
  33 H :    0.025455

  Mayer bond orders larger than 0.100000
B(  0-S ,  1-C ) :   1.1196 B(  0-S ,  4-C ) :   1.1565 B(  1-C ,  2-C ) :   1.6044
B(  1-C ,  4-C ) :   0.1010 B(  1-C , 32-H ) :   0.9660 B(  2-C ,  3-C ) :   1.2473
B(  2-C ,  6-C ) :   1.0376 B(  3-C ,  4-C ) :   1.5479 B(  3-C ,  5-H ) :   1.0075
B(  4-C , 20-C ) :   1.0285 B(  6-C ,  7-H ) :   0.9412 B(  6-C ,  8-H ) :   0.9389
B(  6-C ,  9-C ) :   1.0664 B(  9-C , 10-H ) :   0.9583 B(  9-C , 11-H ) :   0.9580
B(  9-C , 12-C ) :   1.0655 B( 12-C , 13-H ) :   0.9748 B( 12-C , 14-H ) :   0.9746
B( 12-C , 15-H ) :   0.9750 B( 16-S , 17-C ) :   1.1693 B( 16-S , 20-C ) :   1.1558
B( 17-C , 18-C ) :   1.5762 B( 17-C , 20-C ) :   0.1068 B( 17-C , 33-H ) :   0.9744
B( 18-C , 19-C ) :   1.2424 B( 18-C , 21-H ) :   0.9886 B( 19-C , 20-C ) :   1.5925
B( 19-C , 22-C ) :   1.0133 B( 22-C , 23-H ) :   0.9385 B( 22-C , 24-H ) :   0.9357
B( 22-C , 25-C ) :   1.0797 B( 25-C , 26-H ) :   0.9563 B( 25-C , 27-H ) :   0.9510
B( 25-C , 28-C ) :   1.0672 B( 28-C , 29-H ) :   0.9753 B( 28-C , 30-H ) :   0.9684
B( 28-C , 31-H ) :   0.9709

Dispersion correction           -0.014749766
FINAL SINGLE POINT ENERGY     -1339.871827013021

DIPOLE MOMENT
-------------
                                X             Y             Z
Electronic contribution:     -4.30651     -24.67891       6.05439
Nuclear contribution   :      4.21498      25.46825      -6.03806
                        -----------------------------------------
Total Dipole Moment    :     -0.09153       0.78934       0.01633
                        -----------------------------------------
Magnitude (a.u.)       :      0.79480
Magnitude (Debye)      :      2.02021

Rotational constants in cm-1:     0.019978     0.008362     0.006851
Rotational constants in MHz :   598.932748   250.699559   205.381863

                             ****ORCA TERMINATED NORMALLY****
TOTAL RUN TIME: 0 days 0 hours 0 minutes 21 seconds 532 msec
