                         Program Version 4.2.1 -  RELEASE  -
|  1> ! wB97X-D3 SP def2-SVP
|  2> %pal
|  3> nprocs 24
|  4> end
|  5>
|  6> * xyz 0 1
|  7> S 	 40.1995 	 -22.6866 	 -124.784
|  8> C 	 38.6575 	 -22.4814 	 -124.183
|  9> C 	 38.2049 	 -23.5963 	 -123.481
| 10> C 	 39.2215 	 -24.6153 	 -123.302
| 11> C 	 40.3783 	 -24.2164 	 -123.925
| 12> H 	 39.117 	 -25.6436 	 -122.89
| 13> C 	 36.8228 	 -23.7174 	 -122.861
| 14> H 	 36.872 	 -24.2865 	 -122.028
| 15> H 	 36.2722 	 -24.2984 	 -123.494
| 16> C 	 36.0754 	 -22.3767 	 -122.644
| 17> H 	 35.6956 	 -21.8802 	 -123.553
| 18> H 	 35.2044 	 -22.75 	 -122.111
| 19> C 	 36.699 	 -21.4424 	 -121.573
| 20> H 	 37.4333 	 -20.7517 	 -121.917
| 21> H 	 35.8909 	 -20.7616 	 -121.278
| 22> H 	 37.0564 	 -22.0515 	 -120.736
| 23> S 	 43.1657 	 -24.1794 	 -123.614
| 24> C 	 44.068 	 -25.5396 	 -124.071
| 25> C 	 43.2784 	 -26.5583 	 -124.575
| 26> C 	 41.8791 	 -26.2629 	 -124.599
| 27> C 	 41.6044 	 -24.9416 	 -124.079
| 28> H 	 43.7681 	 -27.4074 	 -124.951
| 29> C 	 40.8191 	 -27.203 	 -125.082
| 30> H 	 40.144 	 -27.1703 	 -124.24
| 31> H 	 41.1996 	 -28.1692 	 -125.122
| 32> C 	 40.3441 	 -26.7203 	 -126.478
| 33> H 	 41.2026 	 -26.2855 	 -126.965
| 34> H 	 39.5603 	 -25.9619 	 -126.404
| 35> C 	 39.7917 	 -27.824 	 -127.45
| 36> H 	 40.5374 	 -28.5426 	 -127.848
| 37> H 	 39.3527 	 -27.3168 	 -128.305
| 38> H 	 38.9291 	 -28.4451 	 -127.07
| 39> H 	 38.1547 	 -21.5827 	 -124.337
| 40> H 	 45.1425 	 -25.6466 	 -123.906
| 41> *
| 42>
| 43>                          ****END OF INPUT****

CARTESIAN COORDINATES (ANGSTROEM)
---------------------------------
  S     40.199500  -22.686600  -124.784000
  C     38.657500  -22.481400  -124.183000
  C     38.204900  -23.596300  -123.481000
  C     39.221500  -24.615300  -123.302000
  C     40.378300  -24.216400  -123.925000
  H     39.117000  -25.643600  -122.890000
  C     36.822800  -23.717400  -122.861000
  H     36.872000  -24.286500  -122.028000
  H     36.272200  -24.298400  -123.494000
  C     36.075400  -22.376700  -122.644000
  H     35.695600  -21.880200  -123.553000
  H     35.204400  -22.750000  -122.111000
  C     36.699000  -21.442400  -121.573000
  H     37.433300  -20.751700  -121.917000
  H     35.890900  -20.761600  -121.278000
  H     37.056400  -22.051500  -120.736000
  S     43.165700  -24.179400  -123.614000
  C     44.068000  -25.539600  -124.071000
  C     43.278400  -26.558300  -124.575000
  C     41.879100  -26.262900  -124.599000
  C     41.604400  -24.941600  -124.079000
  H     43.768100  -27.407400  -124.951000
  C     40.819100  -27.203000  -125.082000
  H     40.144000  -27.170300  -124.240000
  H     41.199600  -28.169200  -125.122000
  C     40.344100  -26.720300  -126.478000
  H     41.202600  -26.285500  -126.965000
  H     39.560300  -25.961900  -126.404000
  C     39.791700  -27.824000  -127.450000
  H     40.537400  -28.542600  -127.848000
  H     39.352700  -27.316800  -128.305000
  H     38.929100  -28.445100  -127.070000
  H     38.154700  -21.582700  -124.337000
  H     45.142500  -25.646600  -123.906000

 Total Charge           Charge          ....    0
 Multiplicity           Mult            ....    1
 Number of Electrons    NEL             ....  134
 Basis Dimension        Dim             ....  322

ORBITAL ENERGIES
----------------

  NO   OCC          E(Eh)            E(eV)
   0   2.0000     -88.963608     -2420.8228
   1   2.0000     -88.960696     -2420.7436
   2   2.0000     -10.324667      -280.9485
   3   2.0000     -10.323712      -280.9225
   4   2.0000     -10.312921      -280.6288
   5   2.0000     -10.306267      -280.4478
   6   2.0000     -10.301152      -280.3086
   7   2.0000     -10.299269      -280.2573
   8   2.0000     -10.297731      -280.2155
   9   2.0000     -10.289314      -279.9865
  10   2.0000     -10.287983      -279.9503
  11   2.0000     -10.287112      -279.9265
  12   2.0000     -10.284134      -279.8455
  13   2.0000     -10.281929      -279.7855
  14   2.0000     -10.276200      -279.6296
  15   2.0000     -10.275813      -279.6191
  16   2.0000      -8.078410      -219.8247
  17   2.0000      -8.077097      -219.7890
  18   2.0000      -6.036767      -164.2688
  19   2.0000      -6.035374      -164.2309
  20   2.0000      -6.032730      -164.1589
  21   2.0000      -6.031421      -164.1233
  22   2.0000      -6.029515      -164.0714
  23   2.0000      -6.027943      -164.0287
  24   2.0000      -1.005858       -27.3708
  25   2.0000      -0.982483       -26.7347
  26   2.0000      -0.910985       -24.7891
  27   2.0000      -0.907847       -24.7038
  28   2.0000      -0.868588       -23.6355
  29   2.0000      -0.850877       -23.1535
  30   2.0000      -0.843594       -22.9554
  31   2.0000      -0.812021       -22.0962
  32   2.0000      -0.787739       -21.4355
  33   2.0000      -0.768174       -20.9031
  34   2.0000      -0.706231       -19.2175
  35   2.0000      -0.704788       -19.1783
  36   2.0000      -0.690886       -18.8000
  37   2.0000      -0.660824       -17.9819
  38   2.0000      -0.645302       -17.5596
  39   2.0000      -0.607386       -16.5278
  40   2.0000      -0.589811       -16.0496
  41   2.0000      -0.576161       -15.6782
  42   2.0000      -0.564948       -15.3730
  43   2.0000      -0.557568       -15.1722
  44   2.0000      -0.530009       -14.4223
  45   2.0000      -0.524726       -14.2785
  46   2.0000      -0.522280       -14.2120
  47   2.0000      -0.515204       -14.0194
  48   2.0000      -0.500626       -13.6227
  49   2.0000      -0.494043       -13.4436
  50   2.0000      -0.489487       -13.3196
  51   2.0000      -0.485435       -13.2094
  52   2.0000      -0.474586       -12.9141
  53   2.0000      -0.464074       -12.6281
  54   2.0000      -0.454957       -12.3800
  55   2.0000      -0.447832       -12.1861
  56   2.0000      -0.442512       -12.0414
  57   2.0000      -0.440423       -11.9845
  58   2.0000      -0.432272       -11.7627
  59   2.0000      -0.428806       -11.6684
  60   2.0000      -0.421118       -11.4592
  61   2.0000      -0.417456       -11.3596
  62   2.0000      -0.405135       -11.0243
  63   2.0000      -0.343810        -9.3556
  64   2.0000      -0.328327        -8.9342
  65   2.0000      -0.323260        -8.7964
  66   2.0000      -0.286144        -7.7864
  67   0.0000       0.032624         0.8877
  68   0.0000       0.071187         1.9371
  69   0.0000       0.117110         3.1867
  70   0.0000       0.128137         3.4868
  71   0.0000       0.137826         3.7504

MULLIKEN ATOMIC CHARGES
-----------------------
   0 S :    0.123717
   1 C :   -0.099696
   2 C :   -0.126982
   3 C :    0.014150
   4 C :   -0.162161
   5 H :    0.038930
   6 C :    0.181547
   7 H :   -0.016532
   8 H :    0.004678
   9 C :   -0.113606
  10 H :    0.040282
  11 H :    0.023318
  12 C :   -0.036898
  13 H :    0.027788
  14 H :    0.029099
  15 H :    0.040271
  16 S :    0.117772
  17 C :   -0.094580
  18 C :   -0.032013
  19 C :   -0.073682
  20 C :   -0.188700
  21 H :   -0.002924
  22 C :    0.170037
  23 H :    0.015873
  24 H :   -0.007844
  25 C :   -0.065636
  26 H :    0.040576
  27 H :    0.046437
  28 C :   -0.086486
  29 H :    0.038863
  30 H :    0.030221
  31 H :    0.034141
  32 H :    0.025941
  33 H :    0.064102
Sum of atomic charges:    0.0000000

LOEWDIN ATOMIC CHARGES
----------------------
   0 S :    0.434208
   1 C :   -0.217683
   2 C :   -0.057176
   3 C :   -0.065576
   4 C :   -0.193675
   5 H :    0.041605
   6 C :   -0.020212
   7 H :    0.015215
   8 H :    0.024847
   9 C :   -0.042472
  10 H :    0.026055
  11 H :    0.029058
  12 C :   -0.063153
  13 H :    0.017069
  14 H :    0.028869
  15 H :    0.030981
  16 S :    0.417127
  17 C :   -0.202515
  18 C :   -0.080117
  19 C :   -0.038256
  20 C :   -0.208419
  21 H :    0.022494
  22 C :   -0.026254
  23 H :    0.031014
  24 H :    0.020734
  25 C :   -0.029647
  26 H :    0.028704
  27 H :    0.030644
  28 C :   -0.079231
  29 H :    0.024731
  30 H :    0.025849
  31 H :    0.027783
  32 H :    0.013423
  33 H :    0.033975

  Mayer bond orders larger than 0.100000
B(  0-S ,  1-C ) :   1.1487 B(  0-S ,  4-C ) :   1.1630 B(  1-C ,  2-C ) :   1.5999
B(  1-C , 32-H ) :   0.9721 B(  2-C ,  3-C ) :   1.2344 B(  2-C ,  6-C ) :   1.0141
B(  3-C ,  4-C ) :   1.5817 B(  3-C ,  5-H ) :   0.9865 B(  4-C , 20-C ) :   1.0658
B(  6-C ,  7-H ) :   0.9279 B(  6-C ,  8-H ) :   0.9111 B(  6-C ,  9-C ) :   1.0969
B(  9-C , 10-H ) :   0.9515 B(  9-C , 11-H ) :   0.9534 B(  9-C , 12-C ) :   1.0701
B( 12-C , 13-H ) :   0.9777 B( 12-C , 14-H ) :   0.9753 B( 12-C , 15-H ) :   0.9741
B( 16-S , 17-C ) :   1.1866 B( 16-S , 20-C ) :   1.1476 B( 17-C , 18-C ) :   1.5706
B( 17-C , 20-C ) :   0.1093 B( 17-C , 33-H ) :   0.9626 B( 18-C , 19-C ) :   1.2708
B( 18-C , 21-H ) :   1.0003 B( 19-C , 20-C ) :   1.5202 B( 19-C , 22-C ) :   1.0378
B( 22-C , 23-H ) :   0.9282 B( 22-C , 24-H ) :   0.9261 B( 22-C , 25-C ) :   1.0411
B( 25-C , 26-H ) :   0.9608 B( 25-C , 27-H ) :   0.9556 B( 25-C , 28-C ) :   1.0834
B( 28-C , 29-H ) :   0.9772 B( 28-C , 30-H ) :   0.9752 B( 28-C , 31-H ) :   0.9749

Dispersion correction           -0.014692530
FINAL SINGLE POINT ENERGY     -1339.865227738219

DIPOLE MOMENT
-------------
                                X             Y             Z
Electronic contribution:     21.21402       7.53271       1.72320
Nuclear contribution   :    -21.68235      -7.95217      -1.75907
                        -----------------------------------------
Total Dipole Moment    :     -0.46833      -0.41946      -0.03586
                        -----------------------------------------
Magnitude (a.u.)       :      0.62974
Magnitude (Debye)      :      1.60066

Rotational constants in cm-1:     0.020654     0.008245     0.006673
Rotational constants in MHz :   619.198289   247.166630   200.038021

                             ****ORCA TERMINATED NORMALLY****
TOTAL RUN TIME: 0 days 0 hours 0 minutes 21 seconds 654 msec
