                         Program Version 4.2.1 -  RELEASE  -
|  1> ! wB97X-D3 SP def2-SVP
|  2> %pal
|  3> nprocs 24
|  4> end
|  5>
|  6> * xyz 0 1
|  7> S 	 -87.3845 	 -46.3075 	 -70.2485
|  8> C 	 -85.7287 	 -45.9702 	 -69.7185
|  9> C 	 -84.9318 	 -47.0512 	 -69.7467
| 10> C 	 -85.645 	 -48.1837 	 -70.1563
| 11> C 	 -87.0084 	 -48.0117 	 -70.3719
| 12> H 	 -85.2721 	 -49.1639 	 -70.3422
| 13> C 	 -83.4331 	 -47.1605 	 -69.3849
| 14> H 	 -83.2864 	 -47.783 	 -68.5315
| 15> H 	 -83.0933 	 -46.2393 	 -69.0977
| 16> C 	 -82.4759 	 -47.753 	 -70.4703
| 17> H 	 -81.5225 	 -47.8492 	 -69.971
| 18> H 	 -82.7439 	 -48.7882 	 -70.606
| 19> C 	 -82.3129 	 -46.9902 	 -71.7696
| 20> H 	 -81.8408 	 -46.0391 	 -71.4241
| 21> H 	 -81.5997 	 -47.4936 	 -72.4225
| 22> H 	 -83.3337 	 -46.8312 	 -72.2476
| 23> S 	 -89.2783 	 -48.2141 	 -71.8778
| 24> C 	 -90.2924 	 -49.6115 	 -71.7651
| 25> C 	 -89.7251 	 -50.5487 	 -71.0022
| 26> C 	 -88.3836 	 -50.1848 	 -70.476
| 27> C 	 -88.0676 	 -48.9014 	 -70.8016
| 28> H 	 -90.1733 	 -51.516 	 -70.8944
| 29> C 	 -87.5134 	 -51.0339 	 -69.559
| 30> H 	 -88.1566 	 -51.5949 	 -68.9536
| 31> H 	 -86.9451 	 -50.4046 	 -68.9332
| 32> C 	 -86.5891 	 -51.9644 	 -70.3774
| 33> H 	 -85.9019 	 -52.526 	 -69.6953
| 34> H 	 -85.857 	 -51.4094 	 -70.9538
| 35> C 	 -87.3783 	 -53.0539 	 -71.1569
| 36> H 	 -86.8028 	 -53.883 	 -71.5346
| 37> H 	 -87.9555 	 -52.6122 	 -71.9756
| 38> H 	 -88.1326 	 -53.4999 	 -70.5331
| 39> H 	 -85.3688 	 -45.0059 	 -69.4216
| 40> H 	 -91.2492 	 -49.6263 	 -72.2779
| 41> *
| 42>
| 43>                          ****END OF INPUT****

CARTESIAN COORDINATES (ANGSTROEM)
---------------------------------
  S    -87.384500  -46.307500  -70.248500
  C    -85.728700  -45.970200  -69.718500
  C    -84.931800  -47.051200  -69.746700
  C    -85.645000  -48.183700  -70.156300
  C    -87.008400  -48.011700  -70.371900
  H    -85.272100  -49.163900  -70.342200
  C    -83.433100  -47.160500  -69.384900
  H    -83.286400  -47.783000  -68.531500
  H    -83.093300  -46.239300  -69.097700
  C    -82.475900  -47.753000  -70.470300
  H    -81.522500  -47.849200  -69.971000
  H    -82.743900  -48.788200  -70.606000
  C    -82.312900  -46.990200  -71.769600
  H    -81.840800  -46.039100  -71.424100
  H    -81.599700  -47.493600  -72.422500
  H    -83.333700  -46.831200  -72.247600
  S    -89.278300  -48.214100  -71.877800
  C    -90.292400  -49.611500  -71.765100
  C    -89.725100  -50.548700  -71.002200
  C    -88.383600  -50.184800  -70.476000
  C    -88.067600  -48.901400  -70.801600
  H    -90.173300  -51.516000  -70.894400
  C    -87.513400  -51.033900  -69.559000
  H    -88.156600  -51.594900  -68.953600
  H    -86.945100  -50.404600  -68.933200
  C    -86.589100  -51.964400  -70.377400
  H    -85.901900  -52.526000  -69.695300
  H    -85.857000  -51.409400  -70.953800
  C    -87.378300  -53.053900  -71.156900
  H    -86.802800  -53.883000  -71.534600
  H    -87.955500  -52.612200  -71.975600
  H    -88.132600  -53.499900  -70.533100
  H    -85.368800  -45.005900  -69.421600
  H    -91.249200  -49.626300  -72.277900

 Total Charge           Charge          ....    0
 Multiplicity           Mult            ....    1
 Number of Electrons    NEL             ....  134
 Basis Dimension        Dim             ....  322

ORBITAL ENERGIES
----------------

  NO   OCC          E(Eh)            E(eV)
   0   2.0000     -88.964848     -2420.8566
   1   2.0000     -88.958364     -2420.6802
   2   2.0000     -10.329498      -281.0799
   3   2.0000     -10.324315      -280.9389
   4   2.0000     -10.314739      -280.6783
   5   2.0000     -10.310695      -280.5683
   6   2.0000     -10.304716      -280.4056
   7   2.0000     -10.297387      -280.2061
   8   2.0000     -10.294940      -280.1396
   9   2.0000     -10.292674      -280.0779
  10   2.0000     -10.289527      -279.9923
  11   2.0000     -10.288422      -279.9622
  12   2.0000     -10.286846      -279.9193
  13   2.0000     -10.284724      -279.8616
  14   2.0000     -10.283780      -279.8359
  15   2.0000     -10.276339      -279.6334
  16   2.0000      -8.079382      -219.8512
  17   2.0000      -8.074100      -219.7074
  18   2.0000      -6.037908      -164.2998
  19   2.0000      -6.034017      -164.1939
  20   2.0000      -6.032725      -164.1588
  21   2.0000      -6.030012      -164.0850
  22   2.0000      -6.028515      -164.0442
  23   2.0000      -6.024621      -163.9383
  24   2.0000      -1.011255       -27.5176
  25   2.0000      -0.987714       -26.8771
  26   2.0000      -0.911611       -24.8062
  27   2.0000      -0.910509       -24.7762
  28   2.0000      -0.875642       -23.8274
  29   2.0000      -0.849229       -23.1087
  30   2.0000      -0.837877       -22.7998
  31   2.0000      -0.818825       -22.2814
  32   2.0000      -0.789711       -21.4891
  33   2.0000      -0.780922       -21.2500
  34   2.0000      -0.713151       -19.4058
  35   2.0000      -0.701171       -19.0798
  36   2.0000      -0.692924       -18.8554
  37   2.0000      -0.665838       -18.1184
  38   2.0000      -0.642604       -17.4861
  39   2.0000      -0.624233       -16.9862
  40   2.0000      -0.597932       -16.2706
  41   2.0000      -0.567683       -15.4474
  42   2.0000      -0.555803       -15.1242
  43   2.0000      -0.552623       -15.0376
  44   2.0000      -0.546727       -14.8772
  45   2.0000      -0.541677       -14.7398
  46   2.0000      -0.518926       -14.1207
  47   2.0000      -0.508916       -13.8483
  48   2.0000      -0.502519       -13.6742
  49   2.0000      -0.496659       -13.5148
  50   2.0000      -0.490063       -13.3353
  51   2.0000      -0.485504       -13.2112
  52   2.0000      -0.474565       -12.9136
  53   2.0000      -0.471767       -12.8374
  54   2.0000      -0.457710       -12.4549
  55   2.0000      -0.446192       -12.1415
  56   2.0000      -0.442629       -12.0446
  57   2.0000      -0.442165       -12.0319
  58   2.0000      -0.437899       -11.9158
  59   2.0000      -0.428791       -11.6680
  60   2.0000      -0.422338       -11.4924
  61   2.0000      -0.415351       -11.3023
  62   2.0000      -0.407851       -11.0982
  63   2.0000      -0.360036        -9.7971
  64   2.0000      -0.333753        -9.0819
  65   2.0000      -0.327156        -8.9024
  66   2.0000      -0.291665        -7.9366
  67   0.0000       0.028129         0.7654
  68   0.0000       0.079409         2.1608
  69   0.0000       0.109635         2.9833
  70   0.0000       0.124447         3.3864
  71   0.0000       0.135831         3.6962

MULLIKEN ATOMIC CHARGES
-----------------------
   0 S :    0.099106
   1 C :   -0.123223
   2 C :   -0.054975
   3 C :    0.018543
   4 C :   -0.139506
   5 H :   -0.018113
   6 C :    0.143090
   7 H :    0.026518
   8 H :   -0.021023
   9 C :   -0.100351
  10 H :    0.018707
  11 H :    0.018289
  12 C :   -0.049218
  13 H :    0.030870
  14 H :    0.041839
  15 H :    0.062845
  16 S :    0.078224
  17 C :   -0.084277
  18 C :   -0.010265
  19 C :   -0.092408
  20 C :   -0.126248
  21 H :    0.011577
  22 C :    0.135351
  23 H :    0.005230
  24 H :    0.016042
  25 C :   -0.082885
  26 H :    0.026067
  27 H :    0.031761
  28 C :   -0.048207
  29 H :    0.034883
  30 H :    0.042181
  31 H :    0.016019
  32 H :    0.029259
  33 H :    0.064300
Sum of atomic charges:   -0.0000000

LOEWDIN ATOMIC CHARGES
----------------------
   0 S :    0.395481
   1 C :   -0.181053
   2 C :   -0.067200
   3 C :   -0.064337
   4 C :   -0.182310
   5 H :    0.021476
   6 C :   -0.012681
   7 H :    0.033008
   8 H :    0.012024
   9 C :   -0.043381
  10 H :    0.023454
  11 H :    0.015199
  12 C :   -0.068765
  13 H :    0.029675
  14 H :    0.027675
  15 H :    0.038332
  16 S :    0.387015
  17 C :   -0.181060
  18 C :   -0.071774
  19 C :   -0.050697
  20 C :   -0.191254
  21 H :    0.027504
  22 C :   -0.016358
  23 H :    0.022695
  24 H :    0.025635
  25 C :   -0.037271
  26 H :    0.025668
  27 H :    0.018798
  28 C :   -0.066685
  29 H :    0.025582
  30 H :    0.027293
  31 H :    0.021108
  32 H :    0.023300
  33 H :    0.033903

  Mayer bond orders larger than 0.100000
B(  0-S ,  1-C ) :   1.1286 B(  0-S ,  4-C ) :   1.1426 B(  1-C ,  2-C ) :   1.6371
B(  1-C , 32-H ) :   0.9644 B(  2-C ,  3-C ) :   1.2218 B(  2-C ,  6-C ) :   1.0152
B(  3-C ,  4-C ) :   1.5734 B(  3-C ,  5-H ) :   1.0021 B(  4-C , 20-C ) :   1.0559
B(  6-C ,  7-H ) :   0.9352 B(  6-C ,  8-H ) :   0.9314 B(  6-C ,  9-C ) :   1.0801
B(  9-C , 10-H ) :   0.9522 B(  9-C , 11-H ) :   0.9527 B(  9-C , 12-C ) :   1.0715
B( 12-C , 13-H ) :   0.9741 B( 12-C , 14-H ) :   0.9724 B( 12-C , 15-H ) :   0.9742
B( 16-S , 17-C ) :   1.1334 B( 16-S , 20-C ) :   1.1187 B( 17-C , 18-C ) :   1.6433
B( 17-C , 33-H ) :   0.9698 B( 18-C , 19-C ) :   1.1890 B( 18-C , 21-H ) :   0.9943
B( 19-C , 20-C ) :   1.6469 B( 19-C , 22-C ) :   1.0435 B( 22-C , 23-H ) :   0.9325
B( 22-C , 24-H ) :   0.9291 B( 22-C , 25-C ) :   1.0729 B( 25-C , 26-H ) :   0.9561
B( 25-C , 27-H ) :   0.9549 B( 25-C , 28-C ) :   1.0680 B( 28-C , 29-H ) :   0.9745
B( 28-C , 30-H ) :   0.9734 B( 28-C , 31-H ) :   0.9739

Dispersion correction           -0.014755112
FINAL SINGLE POINT ENERGY     -1339.886791985823

DIPOLE MOMENT
-------------
                                X             Y             Z
Electronic contribution:    -21.78753      15.66834      -1.34197
Nuclear contribution   :     22.23827     -16.19252       1.55267
                        -----------------------------------------
Total Dipole Moment    :      0.45074      -0.52418       0.21069
                        -----------------------------------------
Magnitude (a.u.)       :      0.72272
Magnitude (Debye)      :      1.83701

Rotational constants in cm-1:     0.019229     0.009116     0.006924
Rotational constants in MHz :   576.470964   273.277768   207.568850

                             ****ORCA TERMINATED NORMALLY****
TOTAL RUN TIME: 0 days 0 hours 0 minutes 22 seconds 208 msec
