                         Program Version 4.2.1 -  RELEASE  -
|  1> ! wB97X-D3 SP def2-SVP
|  2> %pal
|  3> nprocs 24
|  4> end
|  5>
|  6> * xyz 0 1
|  7> S 	 -91.4084 	 -6.0403 	 -118.287
|  8> C 	 -91.0156 	 -5.07708 	 -116.897
|  9> C 	 -91.557 	 -3.8253 	 -116.98
| 10> C 	 -92.5362 	 -3.74514 	 -118.025
| 11> C 	 -92.493 	 -4.82305 	 -118.905
| 12> H 	 -93.2108 	 -2.92913 	 -118.381
| 13> C 	 -91.3162 	 -2.82811 	 -115.919
| 14> H 	 -91.6265 	 -3.22259 	 -114.89
| 15> H 	 -91.9723 	 -1.91645 	 -116.012
| 16> C 	 -89.8538 	 -2.17246 	 -115.886
| 17> H 	 -89.1965 	 -2.9603 	 -115.485
| 18> H 	 -89.4509 	 -1.83044 	 -116.872
| 19> C 	 -89.7821 	 -0.984746 	 -114.876
| 20> H 	 -90.3943 	 -1.30768 	 -114.088
| 21> H 	 -88.7758 	 -1.00126 	 -114.57
| 22> H 	 -89.9325 	 0.0312306 	 -115.204
| 23> S 	 -92.0696 	 -4.94662 	 -121.623
| 24> C 	 -93.3633 	 -5.24992 	 -122.688
| 25> C 	 -94.5258 	 -5.05208 	 -122.074
| 26> C 	 -94.366 	 -4.96066 	 -120.64
| 27> C 	 -93.0666 	 -4.94639 	 -120.2
| 28> H 	 -95.4947 	 -5.09319 	 -122.575
| 29> C 	 -95.6396 	 -4.81812 	 -119.715
| 30> H 	 -95.1938 	 -4.73528 	 -118.675
| 31> H 	 -96.1843 	 -5.72658 	 -119.699
| 32> C 	 -96.5265 	 -3.55302 	 -119.868
| 33> H 	 -96.8663 	 -3.46388 	 -120.965
| 34> H 	 -95.8928 	 -2.69364 	 -119.667
| 35> C 	 -97.6929 	 -3.55194 	 -118.902
| 36> H 	 -98.2956 	 -2.66497 	 -119.016
| 37> H 	 -97.4019 	 -3.5028 	 -117.82
| 38> H 	 -98.2788 	 -4.49605 	 -119.012
| 39> H 	 -90.2614 	 -5.38644 	 -116.162
| 40> H 	 -93.1029 	 -5.4364 	 -123.738
| 41> *
| 42>
| 43>                          ****END OF INPUT****

CARTESIAN COORDINATES (ANGSTROEM)
---------------------------------
  S    -91.408400   -6.040300  -118.287000
  C    -91.015600   -5.077080  -116.897000
  C    -91.557000   -3.825300  -116.980000
  C    -92.536200   -3.745140  -118.025000
  C    -92.493000   -4.823050  -118.905000
  H    -93.210800   -2.929130  -118.381000
  C    -91.316200   -2.828110  -115.919000
  H    -91.626500   -3.222590  -114.890000
  H    -91.972300   -1.916450  -116.012000
  C    -89.853800   -2.172460  -115.886000
  H    -89.196500   -2.960300  -115.485000
  H    -89.450900   -1.830440  -116.872000
  C    -89.782100   -0.984746  -114.876000
  H    -90.394300   -1.307680  -114.088000
  H    -88.775800   -1.001260  -114.570000
  H    -89.932500    0.031231  -115.204000
  S    -92.069600   -4.946620  -121.623000
  C    -93.363300   -5.249920  -122.688000
  C    -94.525800   -5.052080  -122.074000
  C    -94.366000   -4.960660  -120.640000
  C    -93.066600   -4.946390  -120.200000
  H    -95.494700   -5.093190  -122.575000
  C    -95.639600   -4.818120  -119.715000
  H    -95.193800   -4.735280  -118.675000
  H    -96.184300   -5.726580  -119.699000
  C    -96.526500   -3.553020  -119.868000
  H    -96.866300   -3.463880  -120.965000
  H    -95.892800   -2.693640  -119.667000
  C    -97.692900   -3.551940  -118.902000
  H    -98.295600   -2.664970  -119.016000
  H    -97.401900   -3.502800  -117.820000
  H    -98.278800   -4.496050  -119.012000
  H    -90.261400   -5.386440  -116.162000
  H    -93.102900   -5.436400  -123.738000

 Total Charge           Charge          ....    0
 Multiplicity           Mult            ....    1
 Number of Electrons    NEL             ....  134
 Basis Dimension        Dim             ....  322

ORBITAL ENERGIES
----------------

  NO   OCC          E(Eh)            E(eV)
   0   2.0000     -88.964427     -2420.8451
   1   2.0000     -88.955883     -2420.6126
   2   2.0000     -10.325812      -280.9796
   3   2.0000     -10.320254      -280.8284
   4   2.0000     -10.313323      -280.6398
   5   2.0000     -10.312319      -280.6125
   6   2.0000     -10.303067      -280.3607
   7   2.0000     -10.301618      -280.3213
   8   2.0000     -10.301427      -280.3161
   9   2.0000     -10.301315      -280.3130
  10   2.0000     -10.296435      -280.1802
  11   2.0000     -10.293460      -280.0993
  12   2.0000     -10.291595      -280.0485
  13   2.0000     -10.289978      -280.0045
  14   2.0000     -10.282424      -279.7990
  15   2.0000     -10.270389      -279.4715
  16   2.0000      -8.079677      -219.8592
  17   2.0000      -8.072660      -219.6683
  18   2.0000      -6.038042      -164.3035
  19   2.0000      -6.034017      -164.1940
  20   2.0000      -6.031126      -164.1153
  21   2.0000      -6.030639      -164.1020
  22   2.0000      -6.026934      -164.0012
  23   2.0000      -6.023256      -163.9011
  24   2.0000      -1.014731       -27.6122
  25   2.0000      -0.992253       -27.0006
  26   2.0000      -0.908167       -24.7125
  27   2.0000      -0.901662       -24.5355
  28   2.0000      -0.876246       -23.8439
  29   2.0000      -0.851402       -23.1678
  30   2.0000      -0.844159       -22.9707
  31   2.0000      -0.818454       -22.2713
  32   2.0000      -0.779408       -21.2088
  33   2.0000      -0.768357       -20.9080
  34   2.0000      -0.703136       -19.1333
  35   2.0000      -0.699555       -19.0359
  36   2.0000      -0.692966       -18.8566
  37   2.0000      -0.659304       -17.9406
  38   2.0000      -0.644486       -17.5374
  39   2.0000      -0.610786       -16.6203
  40   2.0000      -0.598713       -16.2918
  41   2.0000      -0.574044       -15.6205
  42   2.0000      -0.561108       -15.2685
  43   2.0000      -0.557229       -15.1630
  44   2.0000      -0.531040       -14.4503
  45   2.0000      -0.523942       -14.2572
  46   2.0000      -0.517495       -14.0818
  47   2.0000      -0.512606       -13.9487
  48   2.0000      -0.510097       -13.8804
  49   2.0000      -0.500722       -13.6253
  50   2.0000      -0.492795       -13.4096
  51   2.0000      -0.475666       -12.9435
  52   2.0000      -0.471653       -12.8343
  53   2.0000      -0.468476       -12.7479
  54   2.0000      -0.457904       -12.4602
  55   2.0000      -0.450057       -12.2467
  56   2.0000      -0.445134       -12.1127
  57   2.0000      -0.436198       -11.8695
  58   2.0000      -0.433741       -11.8027
  59   2.0000      -0.421254       -11.4629
  60   2.0000      -0.410959       -11.1828
  61   2.0000      -0.409477       -11.1424
  62   2.0000      -0.406840       -11.0707
  63   2.0000      -0.343427        -9.3451
  64   2.0000      -0.330380        -8.9901
  65   2.0000      -0.324861        -8.8399
  66   2.0000      -0.302513        -8.2318
  67   0.0000       0.035340         0.9617
  68   0.0000       0.069525         1.8919
  69   0.0000       0.116777         3.1777
  70   0.0000       0.121479         3.3056
  71   0.0000       0.129279         3.5179

MULLIKEN ATOMIC CHARGES
-----------------------
   0 S :    0.122333
   1 C :   -0.120906
   2 C :   -0.044053
   3 C :    0.049341
   4 C :   -0.204945
   5 H :    0.028905
   6 C :   -0.023194
   7 H :    0.053589
   8 H :    0.028617
   9 C :   -0.114681
  10 H :    0.029925
  11 H :    0.046849
  12 C :   -0.003101
  13 H :    0.015951
  14 H :    0.016095
  15 H :    0.041802
  16 S :    0.097065
  17 C :   -0.098132
  18 C :   -0.006393
  19 C :   -0.052927
  20 C :   -0.146945
  21 H :    0.024199
  22 C :    0.039728
  23 H :    0.025323
  24 H :    0.024886
  25 C :   -0.081024
  26 H :    0.038984
  27 H :    0.026802
  28 C :   -0.052189
  29 H :    0.035813
  30 H :    0.033158
  31 H :    0.037670
  32 H :    0.061830
  33 H :    0.069624
Sum of atomic charges:    0.0000000

LOEWDIN ATOMIC CHARGES
----------------------
   0 S :    0.421046
   1 C :   -0.193931
   2 C :   -0.075047
   3 C :   -0.057495
   4 C :   -0.203438
   5 H :    0.041053
   6 C :   -0.048986
   7 H :    0.040290
   8 H :    0.031975
   9 C :   -0.034947
  10 H :    0.020480
  11 H :    0.029656
  12 C :   -0.061000
  13 H :    0.018770
  14 H :    0.023913
  15 H :    0.025914
  16 S :    0.418054
  17 C :   -0.187969
  18 C :   -0.080025
  19 C :   -0.053797
  20 C :   -0.215691
  21 H :    0.034286
  22 C :   -0.034548
  23 H :    0.034036
  24 H :    0.020912
  25 C :   -0.045448
  26 H :    0.028099
  27 H :    0.022518
  28 C :   -0.071116
  29 H :    0.025662
  30 H :    0.030216
  31 H :    0.029590
  32 H :    0.032953
  33 H :    0.034016

  Mayer bond orders larger than 0.100000
B(  0-S ,  1-C ) :   1.1502 B(  0-S ,  4-C ) :   1.1580 B(  1-C ,  2-C ) :   1.5945
B(  1-C ,  4-C ) :   0.1004 B(  1-C , 32-H ) :   0.9687 B(  2-C ,  3-C ) :   1.2357
B(  2-C ,  6-C ) :   1.0329 B(  3-C ,  4-C ) :   1.5721 B(  3-C ,  5-H ) :   0.9851
B(  4-C , 20-C ) :   1.0477 B(  6-C ,  7-H ) :   0.9417 B(  6-C ,  8-H ) :   0.9505
B(  6-C ,  9-C ) :   1.0438 B(  9-C , 10-H ) :   0.9616 B(  9-C , 11-H ) :   0.9617
B(  9-C , 12-C ) :   1.0731 B( 12-C , 13-H ) :   0.9726 B( 12-C , 14-H ) :   0.9725
B( 12-C , 15-H ) :   0.9781 B( 16-S , 17-C ) :   1.1697 B( 16-S , 20-C ) :   1.1358
B( 17-C , 18-C ) :   1.5896 B( 17-C , 33-H ) :   0.9681 B( 18-C , 19-C ) :   1.2347
B( 18-C , 21-H ) :   0.9950 B( 19-C , 20-C ) :   1.6196 B( 19-C , 22-C ) :   1.0262
B( 22-C , 23-H ) :   0.9375 B( 22-C , 24-H ) :   0.9436 B( 22-C , 25-C ) :   1.0558
B( 25-C , 26-H ) :   0.9541 B( 25-C , 27-H ) :   0.9531 B( 25-C , 28-C ) :   1.0862
B( 28-C , 29-H ) :   0.9721 B( 28-C , 30-H ) :   0.9723 B( 28-C , 31-H ) :   0.9737

Dispersion correction           -0.013518705
FINAL SINGLE POINT ENERGY     -1339.868689186069

DIPOLE MOMENT
-------------
                                X             Y             Z
Electronic contribution:     10.44796     -17.66618     -17.02892
Nuclear contribution   :    -10.66290      18.08323      17.28406
                        -----------------------------------------
Total Dipole Moment    :     -0.21494       0.41705       0.25513
                        -----------------------------------------
Magnitude (a.u.)       :      0.53406
Magnitude (Debye)      :      1.35747

Rotational constants in cm-1:     0.018209     0.007639     0.006197
Rotational constants in MHz :   545.887011   229.018635   185.774357

                             ****ORCA TERMINATED NORMALLY****
TOTAL RUN TIME: 0 days 0 hours 0 minutes 20 seconds 860 msec
