                         Program Version 4.2.1 -  RELEASE  -
|  1> ! wB97X-D3 SP def2-SVP
|  2> %pal
|  3> nprocs 24
|  4> end
|  5>
|  6> * xyz 0 1
|  7> S 	 -72.5257 	 -0.418355 	 -66.5984
|  8> C 	 -71.7061 	 1.09556 	 -66.37
|  9> C 	 -72.5108 	 1.90989 	 -65.6746
| 10> C 	 -73.8646 	 1.44717 	 -65.6732
| 11> C 	 -74.0891 	 0.250513 	 -66.3303
| 12> H 	 -74.7678 	 1.9291 	 -65.3242
| 13> C 	 -72.169 	 3.28436 	 -65.0545
| 14> H 	 -71.2732 	 3.14356 	 -64.406
| 15> H 	 -72.9219 	 3.72974 	 -64.4408
| 16> C 	 -71.9767 	 4.33589 	 -66.1682
| 17> H 	 -71.3809 	 3.8959 	 -66.9657
| 18> H 	 -72.9248 	 4.60734 	 -66.5891
| 19> C 	 -71.2722 	 5.55772 	 -65.7141
| 20> H 	 -71.935 	 6.18321 	 -65.0839
| 21> H 	 -70.4114 	 5.39258 	 -65.0221
| 22> H 	 -70.8526 	 6.11184 	 -66.5352
| 23> S 	 -74.8205 	 -2.3886 	 -66.2408
| 24> C 	 -76.6248 	 -2.71222 	 -66.1354
| 25> C 	 -77.3509 	 -1.56967 	 -66.2694
| 26> C 	 -76.5699 	 -0.374708 	 -66.4301
| 27> C 	 -75.2248 	 -0.63563 	 -66.3904
| 28> H 	 -78.409 	 -1.68462 	 -66.2476
| 29> C 	 -77.2089 	 1.00227 	 -66.6257
| 30> H 	 -77.9582 	 0.829626 	 -67.3854
| 31> H 	 -76.5426 	 1.69491 	 -67.051
| 32> C 	 -77.7258 	 1.41081 	 -65.1876
| 33> H 	 -76.8703 	 1.77337 	 -64.6646
| 34> H 	 -78.0643 	 0.445449 	 -64.7772
| 35> C 	 -78.8151 	 2.51414 	 -65.186
| 36> H 	 -79.1351 	 2.82304 	 -64.1427
| 37> H 	 -79.6415 	 2.23044 	 -65.8152
| 38> H 	 -78.3934 	 3.4488 	 -65.5722
| 39> H 	 -70.6571 	 1.34071 	 -66.6724
| 40> H 	 -77.0534 	 -3.7097 	 -65.8655
| 41> *
| 42>
| 43>                          ****END OF INPUT****

CARTESIAN COORDINATES (ANGSTROEM)
---------------------------------
  S    -72.525700   -0.418355  -66.598400
  C    -71.706100    1.095560  -66.370000
  C    -72.510800    1.909890  -65.674600
  C    -73.864600    1.447170  -65.673200
  C    -74.089100    0.250513  -66.330300
  H    -74.767800    1.929100  -65.324200
  C    -72.169000    3.284360  -65.054500
  H    -71.273200    3.143560  -64.406000
  H    -72.921900    3.729740  -64.440800
  C    -71.976700    4.335890  -66.168200
  H    -71.380900    3.895900  -66.965700
  H    -72.924800    4.607340  -66.589100
  C    -71.272200    5.557720  -65.714100
  H    -71.935000    6.183210  -65.083900
  H    -70.411400    5.392580  -65.022100
  H    -70.852600    6.111840  -66.535200
  S    -74.820500   -2.388600  -66.240800
  C    -76.624800   -2.712220  -66.135400
  C    -77.350900   -1.569670  -66.269400
  C    -76.569900   -0.374708  -66.430100
  C    -75.224800   -0.635630  -66.390400
  H    -78.409000   -1.684620  -66.247600
  C    -77.208900    1.002270  -66.625700
  H    -77.958200    0.829626  -67.385400
  H    -76.542600    1.694910  -67.051000
  C    -77.725800    1.410810  -65.187600
  H    -76.870300    1.773370  -64.664600
  H    -78.064300    0.445449  -64.777200
  C    -78.815100    2.514140  -65.186000
  H    -79.135100    2.823040  -64.142700
  H    -79.641500    2.230440  -65.815200
  H    -78.393400    3.448800  -65.572200
  H    -70.657100    1.340710  -66.672400
  H    -77.053400   -3.709700  -65.865500

 Total Charge           Charge          ....    0
 Multiplicity           Mult            ....    1
 Number of Electrons    NEL             ....  134
 Basis Dimension        Dim             ....  322

ORBITAL ENERGIES
----------------

  NO   OCC          E(Eh)            E(eV)
   0   2.0000     -88.964091     -2420.8360
   1   2.0000     -88.957538     -2420.6577
   2   2.0000     -10.329811      -281.0884
   3   2.0000     -10.326311      -280.9932
   4   2.0000     -10.324450      -280.9426
   5   2.0000     -10.313113      -280.6341
   6   2.0000     -10.305362      -280.4231
   7   2.0000     -10.300415      -280.2886
   8   2.0000     -10.295986      -280.1680
   9   2.0000     -10.294623      -280.1309
  10   2.0000     -10.293761      -280.1075
  11   2.0000     -10.293450      -280.0990
  12   2.0000     -10.291867      -280.0559
  13   2.0000     -10.285603      -279.8855
  14   2.0000     -10.281719      -279.7798
  15   2.0000     -10.277094      -279.6539
  16   2.0000      -8.077146      -219.7903
  17   2.0000      -8.073713      -219.6969
  18   2.0000      -6.035969      -164.2471
  19   2.0000      -6.032346      -164.1485
  20   2.0000      -6.032267      -164.1463
  21   2.0000      -6.028228      -164.0364
  22   2.0000      -6.027276      -164.0105
  23   2.0000      -6.024030      -163.9222
  24   2.0000      -1.013300       -27.5733
  25   2.0000      -0.981764       -26.7151
  26   2.0000      -0.916433       -24.9374
  27   2.0000      -0.905933       -24.6517
  28   2.0000      -0.877385       -23.8749
  29   2.0000      -0.848809       -23.0973
  30   2.0000      -0.840027       -22.8583
  31   2.0000      -0.817926       -22.2569
  32   2.0000      -0.782180       -21.2842
  33   2.0000      -0.774359       -21.0714
  34   2.0000      -0.707542       -19.2532
  35   2.0000      -0.700906       -19.0726
  36   2.0000      -0.698969       -19.0199
  37   2.0000      -0.667247       -18.1567
  38   2.0000      -0.640025       -17.4160
  39   2.0000      -0.615850       -16.7581
  40   2.0000      -0.594763       -16.1843
  41   2.0000      -0.580957       -15.8086
  42   2.0000      -0.567544       -15.4437
  43   2.0000      -0.554833       -15.0978
  44   2.0000      -0.526759       -14.3338
  45   2.0000      -0.522649       -14.2220
  46   2.0000      -0.521373       -14.1873
  47   2.0000      -0.514131       -13.9902
  48   2.0000      -0.509308       -13.8590
  49   2.0000      -0.501367       -13.6429
  50   2.0000      -0.497232       -13.5304
  51   2.0000      -0.483098       -13.1458
  52   2.0000      -0.477303       -12.9881
  53   2.0000      -0.468355       -12.7446
  54   2.0000      -0.460762       -12.5380
  55   2.0000      -0.447073       -12.1655
  56   2.0000      -0.441808       -12.0222
  57   2.0000      -0.437589       -11.9074
  58   2.0000      -0.432522       -11.7695
  59   2.0000      -0.424875       -11.5614
  60   2.0000      -0.420173       -11.4335
  61   2.0000      -0.415018       -11.2932
  62   2.0000      -0.407682       -11.0936
  63   2.0000      -0.362590        -9.8666
  64   2.0000      -0.335303        -9.1241
  65   2.0000      -0.321089        -8.7373
  66   2.0000      -0.284060        -7.7297
  67   0.0000       0.020135         0.5479
  68   0.0000       0.068816         1.8726
  69   0.0000       0.090198         2.4544
  70   0.0000       0.124275         3.3817
  71   0.0000       0.131508         3.5785

MULLIKEN ATOMIC CHARGES
-----------------------
   0 S :    0.069640
   1 C :   -0.134550
   2 C :   -0.048968
   3 C :    0.009981
   4 C :   -0.111484
   5 H :   -0.017891
   6 C :    0.058060
   7 H :    0.038146
   8 H :    0.017803
   9 C :   -0.060388
  10 H :    0.020427
  11 H :    0.025669
  12 C :   -0.042711
  13 H :    0.024471
  14 H :    0.023070
  15 H :    0.034814
  16 S :    0.068785
  17 C :   -0.104194
  18 C :   -0.018274
  19 C :   -0.092918
  20 C :   -0.110522
  21 H :    0.013846
  22 C :    0.093515
  23 H :    0.027303
  24 H :    0.017366
  25 C :   -0.079656
  26 H :    0.030537
  27 H :    0.040511
  28 C :   -0.035170
  29 H :    0.043323
  30 H :    0.035274
  31 H :    0.024375
  32 H :    0.066113
  33 H :    0.073694
Sum of atomic charges:   -0.0000000

LOEWDIN ATOMIC CHARGES
----------------------
   0 S :    0.405675
   1 C :   -0.199565
   2 C :   -0.064650
   3 C :   -0.070949
   4 C :   -0.191450
   5 H :    0.023115
   6 C :   -0.025265
   7 H :    0.033698
   8 H :    0.025678
   9 C :   -0.039682
  10 H :    0.020863
  11 H :    0.024573
  12 C :   -0.070332
  13 H :    0.024703
  14 H :    0.026282
  15 H :    0.025765
  16 S :    0.331621
  17 C :   -0.156392
  18 C :   -0.068248
  19 C :   -0.055758
  20 C :   -0.170739
  21 H :    0.030529
  22 C :   -0.020026
  23 H :    0.030850
  24 H :    0.020391
  25 C :   -0.030807
  26 H :    0.019520
  27 H :    0.027864
  28 C :   -0.069694
  29 H :    0.033434
  30 H :    0.022160
  31 H :    0.025016
  32 H :    0.041786
  33 H :    0.040030

  Mayer bond orders larger than 0.100000
B(  0-S ,  1-C ) :   1.1355 B(  0-S ,  4-C ) :   1.1436 B(  1-C ,  2-C ) :   1.6153
B(  1-C , 32-H ) :   0.9674 B(  2-C ,  3-C ) :   1.2342 B(  2-C ,  6-C ) :   1.0158
B(  3-C ,  4-C ) :   1.5547 B(  3-C ,  5-H ) :   0.9960 B(  4-C , 20-C ) :   1.0765
B(  6-C ,  7-H ) :   0.9457 B(  6-C ,  8-H ) :   0.9478 B(  6-C ,  9-C ) :   1.0597
B(  9-C , 10-H ) :   0.9622 B(  9-C , 11-H ) :   0.9516 B(  9-C , 12-C ) :   1.0886
B( 12-C , 13-H ) :   0.9707 B( 12-C , 14-H ) :   0.9738 B( 12-C , 15-H ) :   0.9721
B( 16-S , 17-C ) :   1.1030 B( 16-S , 20-C ) :   1.0990 B( 17-C , 18-C ) :   1.6868
B( 17-C , 33-H ) :   0.9606 B( 18-C , 19-C ) :   1.1716 B( 18-C , 21-H ) :   0.9889
B( 19-C , 20-C ) :   1.6696 B( 19-C , 22-C ) :   1.0415 B( 22-C , 23-H ) :   0.9387
B( 22-C , 24-H ) :   0.9324 B( 22-C , 25-C ) :   1.0382 B( 25-C , 26-H ) :   0.9523
B( 25-C , 27-H ) :   0.9628 B( 25-C , 28-C ) :   1.0766 B( 28-C , 29-H ) :   0.9739
B( 28-C , 30-H ) :   0.9790 B( 28-C , 31-H ) :   0.9708

Dispersion correction           -0.013833414
FINAL SINGLE POINT ENERGY     -1339.858908183143

DIPOLE MOMENT
-------------
                                X             Y             Z
Electronic contribution:      7.00960     -29.77964      -5.71990
Nuclear contribution   :     -7.42563      30.45054       5.92880
                        -----------------------------------------
Total Dipole Moment    :     -0.41604       0.67090       0.20889
                        -----------------------------------------
Magnitude (a.u.)       :      0.81659
Magnitude (Debye)      :      2.07561

Rotational constants in cm-1:     0.018378     0.008686     0.006104
Rotational constants in MHz :   550.955903   260.409212   182.998892

                             ****ORCA TERMINATED NORMALLY****
TOTAL RUN TIME: 0 days 0 hours 0 minutes 21 seconds 478 msec
