                         Program Version 4.2.1 -  RELEASE  -
|  1> ! wB97X-D3 SP def2-SVP
|  2> %pal
|  3> nprocs 24
|  4> end
|  5>
|  6> * xyz 0 1
|  7> S 	 -106.152 	 -0.464775 	 -108.073
|  8> C 	 -105.584 	 -0.105425 	 -106.362
|  9> C 	 -104.25 	 -0.322573 	 -106.276
| 10> C 	 -103.648 	 -0.755325 	 -107.542
| 11> C 	 -104.553 	 -0.952632 	 -108.566
| 12> H 	 -102.598 	 -0.94844 	 -107.714
| 13> C 	 -103.337 	 -0.0408031 	 -105.07
| 14> H 	 -102.342 	 -0.506615 	 -105.179
| 15> H 	 -103.884 	 -0.565101 	 -104.299
| 16> C 	 -103.202 	 1.3886 	 -104.628
| 17> H 	 -102.464 	 1.78169 	 -105.345
| 18> H 	 -104.06 	 1.99505 	 -104.841
| 19> C 	 -102.746 	 1.66034 	 -103.147
| 20> H 	 -102.39 	 2.66504 	 -103.087
| 21> H 	 -103.638 	 1.47188 	 -102.539
| 22> H 	 -101.945 	 1.04178 	 -102.766
| 23> S 	 -105.492 	 -2.32579 	 -110.758
| 24> C 	 -104.55 	 -2.558 	 -112.16
| 25> C 	 -103.326 	 -1.9248 	 -112.035
| 26> C 	 -103.196 	 -1.29339 	 -110.768
| 27> C 	 -104.301 	 -1.38045 	 -109.942
| 28> H 	 -102.776 	 -1.99357 	 -112.925
| 29> C 	 -102.003 	 -0.403039 	 -110.472
| 30> H 	 -101.479 	 -0.434208 	 -111.374
| 31> H 	 -101.454 	 -0.828074 	 -109.618
| 32> C 	 -102.273 	 1.13269 	 -110.115
| 33> H 	 -102.488 	 1.22013 	 -108.999
| 34> H 	 -103.077 	 1.56248 	 -110.781
| 35> C 	 -101.087 	 2.07428 	 -110.262
| 36> H 	 -100.7 	 1.94983 	 -111.269
| 37> H 	 -100.412 	 2.04949 	 -109.471
| 38> H 	 -101.349 	 3.14041 	 -110.331
| 39> H 	 -106.138 	 0.332808 	 -105.558
| 40> H 	 -104.732 	 -3.28996 	 -112.932
| 41> *
| 42>
| 43>                          ****END OF INPUT****

CARTESIAN COORDINATES (ANGSTROEM)
---------------------------------
  S    -106.152000   -0.464775  -108.073000
  C    -105.584000   -0.105425  -106.362000
  C    -104.250000   -0.322573  -106.276000
  C    -103.648000   -0.755325  -107.542000
  C    -104.553000   -0.952632  -108.566000
  H    -102.598000   -0.948440  -107.714000
  C    -103.337000   -0.040803  -105.070000
  H    -102.342000   -0.506615  -105.179000
  H    -103.884000   -0.565101  -104.299000
  C    -103.202000    1.388600  -104.628000
  H    -102.464000    1.781690  -105.345000
  H    -104.060000    1.995050  -104.841000
  C    -102.746000    1.660340  -103.147000
  H    -102.390000    2.665040  -103.087000
  H    -103.638000    1.471880  -102.539000
  H    -101.945000    1.041780  -102.766000
  S    -105.492000   -2.325790  -110.758000
  C    -104.550000   -2.558000  -112.160000
  C    -103.326000   -1.924800  -112.035000
  C    -103.196000   -1.293390  -110.768000
  C    -104.301000   -1.380450  -109.942000
  H    -102.776000   -1.993570  -112.925000
  C    -102.003000   -0.403039  -110.472000
  H    -101.479000   -0.434208  -111.374000
  H    -101.454000   -0.828074  -109.618000
  C    -102.273000    1.132690  -110.115000
  H    -102.488000    1.220130  -108.999000
  H    -103.077000    1.562480  -110.781000
  C    -101.087000    2.074280  -110.262000
  H    -100.700000    1.949830  -111.269000
  H    -100.412000    2.049490  -109.471000
  H    -101.349000    3.140410  -110.331000
  H    -106.138000    0.332808  -105.558000
  H    -104.732000   -3.289960  -112.932000

 Total Charge           Charge          ....    0
 Multiplicity           Mult            ....    1
 Number of Electrons    NEL             ....  134
 Basis Dimension        Dim             ....  322

ORBITAL ENERGIES
----------------

  NO   OCC          E(Eh)            E(eV)
   0   2.0000     -88.965918     -2420.8857
   1   2.0000     -88.965139     -2420.8645
   2   2.0000     -10.334360      -281.2122
   3   2.0000     -10.326583      -281.0006
   4   2.0000     -10.317055      -280.7413
   5   2.0000     -10.313725      -280.6507
   6   2.0000     -10.306031      -280.4414
   7   2.0000     -10.304441      -280.3981
   8   2.0000     -10.295071      -280.1431
   9   2.0000     -10.293428      -280.0984
  10   2.0000     -10.292510      -280.0734
  11   2.0000     -10.291604      -280.0488
  12   2.0000     -10.290516      -280.0192
  13   2.0000     -10.286883      -279.9203
  14   2.0000     -10.282180      -279.7923
  15   2.0000     -10.270011      -279.4612
  16   2.0000      -8.081148      -219.8992
  17   2.0000      -8.079482      -219.8539
  18   2.0000      -6.039445      -164.3417
  19   2.0000      -6.038334      -164.3114
  20   2.0000      -6.035235      -164.2271
  21   2.0000      -6.034238      -164.2000
  22   2.0000      -6.032280      -164.1467
  23   2.0000      -6.029845      -164.0804
  24   2.0000      -1.012569       -27.5534
  25   2.0000      -0.982897       -26.7460
  26   2.0000      -0.913600       -24.8603
  27   2.0000      -0.902474       -24.5576
  28   2.0000      -0.872666       -23.7464
  29   2.0000      -0.854877       -23.2624
  30   2.0000      -0.840383       -22.8680
  31   2.0000      -0.818945       -22.2846
  32   2.0000      -0.786605       -21.4046
  33   2.0000      -0.776337       -21.1252
  34   2.0000      -0.709823       -19.3153
  35   2.0000      -0.705239       -19.1905
  36   2.0000      -0.686971       -18.6934
  37   2.0000      -0.667069       -18.1519
  38   2.0000      -0.637086       -17.3360
  39   2.0000      -0.620164       -16.8755
  40   2.0000      -0.587480       -15.9861
  41   2.0000      -0.578484       -15.7413
  42   2.0000      -0.571705       -15.5569
  43   2.0000      -0.563208       -15.3257
  44   2.0000      -0.530591       -14.4381
  45   2.0000      -0.525608       -14.3025
  46   2.0000      -0.520378       -14.1602
  47   2.0000      -0.512157       -13.9365
  48   2.0000      -0.509398       -13.8614
  49   2.0000      -0.503270       -13.6947
  50   2.0000      -0.495196       -13.4750
  51   2.0000      -0.482376       -13.1261
  52   2.0000      -0.474335       -12.9073
  53   2.0000      -0.467227       -12.7139
  54   2.0000      -0.461348       -12.5539
  55   2.0000      -0.447366       -12.1734
  56   2.0000      -0.444522       -12.0960
  57   2.0000      -0.441942       -12.0258
  58   2.0000      -0.427516       -11.6333
  59   2.0000      -0.422462       -11.4958
  60   2.0000      -0.415283       -11.3004
  61   2.0000      -0.411799       -11.2056
  62   2.0000      -0.399766       -10.8782
  63   2.0000      -0.357953        -9.7404
  64   2.0000      -0.332050        -9.0355
  65   2.0000      -0.328099        -8.9280
  66   2.0000      -0.289408        -7.8752
  67   0.0000       0.022998         0.6258
  68   0.0000       0.076196         2.0734
  69   0.0000       0.100254         2.7281
  70   0.0000       0.124016         3.3746
  71   0.0000       0.129499         3.5238

MULLIKEN ATOMIC CHARGES
-----------------------
   0 S :    0.086963
   1 C :   -0.120539
   2 C :   -0.080260
   3 C :   -0.001055
   4 C :   -0.096287
   5 H :   -0.000634
   6 C :    0.075842
   7 H :    0.032644
   8 H :    0.021851
   9 C :   -0.085581
  10 H :    0.020298
  11 H :    0.023983
  12 C :   -0.036849
  13 H :    0.035323
  14 H :    0.039567
  15 H :    0.030891
  16 S :    0.112322
  17 C :   -0.099435
  18 C :   -0.040202
  19 C :   -0.053288
  20 C :   -0.115764
  21 H :    0.005362
  22 C :    0.088780
  23 H :   -0.001960
  24 H :    0.039443
  25 C :   -0.109366
  26 H :    0.046941
  27 H :    0.046152
  28 C :   -0.030588
  29 H :    0.017761
  30 H :    0.022332
  31 H :    0.025670
  32 H :    0.038297
  33 H :    0.061386
Sum of atomic charges:   -0.0000000

LOEWDIN ATOMIC CHARGES
----------------------
   0 S :    0.370522
   1 C :   -0.174260
   2 C :   -0.051882
   3 C :   -0.071781
   4 C :   -0.178907
   5 H :    0.026001
   6 C :   -0.033931
   7 H :    0.033583
   8 H :    0.029487
   9 C :   -0.045337
  10 H :    0.023644
  11 H :    0.021257
  12 C :   -0.059309
  13 H :    0.026478
  14 H :    0.028423
  15 H :    0.023640
  16 S :    0.440394
  17 C :   -0.197672
  18 C :   -0.073378
  19 C :   -0.059298
  20 C :   -0.206936
  21 H :    0.028713
  22 C :   -0.028331
  23 H :    0.019797
  24 H :    0.031619
  25 C :   -0.045723
  26 H :    0.031855
  27 H :    0.032715
  28 C :   -0.069598
  29 H :    0.022293
  30 H :    0.013460
  31 H :    0.031968
  32 H :    0.027886
  33 H :    0.032607

  Mayer bond orders larger than 0.100000
B(  0-S ,  1-C ) :   1.0905 B(  0-S ,  4-C ) :   1.1411 B(  1-C ,  2-C ) :   1.6706
B(  1-C , 32-H ) :   0.9714 B(  2-C ,  3-C ) :   1.2019 B(  2-C ,  6-C ) :   1.0053
B(  3-C ,  4-C ) :   1.6023 B(  3-C ,  5-H ) :   0.9914 B(  4-C , 20-C ) :   1.0450
B(  6-C ,  7-H ) :   0.9452 B(  6-C ,  8-H ) :   0.9366 B(  6-C ,  9-C ) :   1.0612
B(  9-C , 10-H ) :   0.9537 B(  9-C , 11-H ) :   0.9602 B(  9-C , 12-C ) :   1.0700
B( 12-C , 13-H ) :   0.9749 B( 12-C , 14-H ) :   0.9769 B( 12-C , 15-H ) :   0.9790
B( 16-S , 17-C ) :   1.1910 B( 16-S , 20-C ) :   1.1507 B( 17-C , 18-C ) :   1.5829
B( 17-C , 20-C ) :   0.1005 B( 17-C , 33-H ) :   0.9631 B( 18-C , 19-C ) :   1.2565
B( 18-C , 21-H ) :   1.0059 B( 19-C , 20-C ) :   1.5576 B( 19-C , 22-C ) :   1.0470
B( 22-C , 23-H ) :   0.9333 B( 22-C , 24-H ) :   0.9267 B( 22-C , 25-C ) :   1.0586
B( 25-C , 26-H ) :   0.9491 B( 25-C , 27-H ) :   0.9597 B( 25-C , 28-C ) :   1.0906
B( 28-C , 29-H ) :   0.9699 B( 28-C , 30-H ) :   0.9789 B( 28-C , 31-H ) :   0.9707

Dispersion correction           -0.014184453
FINAL SINGLE POINT ENERGY     -1339.858576190572

DIPOLE MOMENT
-------------
                                X             Y             Z
Electronic contribution:    -21.84207     -17.90517     -14.69218
Nuclear contribution   :     22.49926      18.16820      14.82384
                        -----------------------------------------
Total Dipole Moment    :      0.65718       0.26303       0.13167
                        -----------------------------------------
Magnitude (a.u.)       :      0.72001
Magnitude (Debye)      :      1.83012

Rotational constants in cm-1:     0.020330     0.008310     0.006395
Rotational constants in MHz :   609.492743   249.133426   191.715598

                             ****ORCA TERMINATED NORMALLY****
TOTAL RUN TIME: 0 days 0 hours 0 minutes 21 seconds 558 msec
