                         Program Version 4.2.1 -  RELEASE  -
|  1> ! wB97X-D3 SP def2-SVP
|  2> %pal
|  3> nprocs 24
|  4> end
|  5>
|  6> * xyz 0 1
|  7> S 	 -116.736 	 30.142 	 -19.4361
|  8> C 	 -118.235 	 29.1636 	 -19.2479
|  9> C 	 -118.964 	 29.6017 	 -18.1315
| 10> C 	 -118.384 	 30.681 	 -17.4813
| 11> C 	 -117.265 	 31.1638 	 -18.0764
| 12> H 	 -118.711 	 31.2333 	 -16.5961
| 13> C 	 -120.157 	 28.8133 	 -17.4141
| 14> H 	 -119.831 	 28.5902 	 -16.3593
| 15> H 	 -120.354 	 27.7798 	 -17.8222
| 16> C 	 -121.461 	 29.66 	 -17.3549
| 17> H 	 -121.221 	 30.6242 	 -17.0536
| 18> H 	 -122.017 	 29.7417 	 -18.2591
| 19> C 	 -122.393 	 29.1845 	 -16.2511
| 20> H 	 -123.261 	 29.8284 	 -16.3053
| 21> H 	 -122.531 	 28.1497 	 -16.4353
| 22> H 	 -122.015 	 29.3039 	 -15.2873
| 23> S 	 -114.76 	 32.0951 	 -17.4276
| 24> C 	 -114.553 	 33.8191 	 -17.1533
| 25> C 	 -115.769 	 34.4494 	 -17.1649
| 26> C 	 -116.898 	 33.6232 	 -17.4416
| 27> C 	 -116.529 	 32.3068 	 -17.676
| 28> H 	 -115.799 	 35.5381 	 -17.065
| 29> C 	 -118.258 	 34.228 	 -17.4448
| 30> H 	 -118.1 	 35.285 	 -17.1936
| 31> H 	 -118.876 	 33.8502 	 -16.6277
| 32> C 	 -119.1 	 34.2281 	 -18.8013
| 33> H 	 -119.93 	 34.9879 	 -18.7781
| 34> H 	 -119.655 	 33.2769 	 -18.8446
| 35> C 	 -118.324 	 34.4666 	 -20.1294
| 36> H 	 -117.644 	 33.6871 	 -20.4696
| 37> H 	 -117.772 	 35.3911 	 -20.017
| 38> H 	 -119.046 	 34.6283 	 -20.8795
| 39> H 	 -118.454 	 28.2701 	 -19.7921
| 40> H 	 -113.559 	 34.3416 	 -16.9836
| 41> *
| 42>
| 43>                          ****END OF INPUT****

CARTESIAN COORDINATES (ANGSTROEM)
---------------------------------
  S    -116.736000   30.142000  -19.436100
  C    -118.235000   29.163600  -19.247900
  C    -118.964000   29.601700  -18.131500
  C    -118.384000   30.681000  -17.481300
  C    -117.265000   31.163800  -18.076400
  H    -118.711000   31.233300  -16.596100
  C    -120.157000   28.813300  -17.414100
  H    -119.831000   28.590200  -16.359300
  H    -120.354000   27.779800  -17.822200
  C    -121.461000   29.660000  -17.354900
  H    -121.221000   30.624200  -17.053600
  H    -122.017000   29.741700  -18.259100
  C    -122.393000   29.184500  -16.251100
  H    -123.261000   29.828400  -16.305300
  H    -122.531000   28.149700  -16.435300
  H    -122.015000   29.303900  -15.287300
  S    -114.760000   32.095100  -17.427600
  C    -114.553000   33.819100  -17.153300
  C    -115.769000   34.449400  -17.164900
  C    -116.898000   33.623200  -17.441600
  C    -116.529000   32.306800  -17.676000
  H    -115.799000   35.538100  -17.065000
  C    -118.258000   34.228000  -17.444800
  H    -118.100000   35.285000  -17.193600
  H    -118.876000   33.850200  -16.627700
  C    -119.100000   34.228100  -18.801300
  H    -119.930000   34.987900  -18.778100
  H    -119.655000   33.276900  -18.844600
  C    -118.324000   34.466600  -20.129400
  H    -117.644000   33.687100  -20.469600
  H    -117.772000   35.391100  -20.017000
  H    -119.046000   34.628300  -20.879500
  H    -118.454000   28.270100  -19.792100
  H    -113.559000   34.341600  -16.983600

 Total Charge           Charge          ....    0
 Multiplicity           Mult            ....    1
 Number of Electrons    NEL             ....  134
 Basis Dimension        Dim             ....  322

ORBITAL ENERGIES
----------------

  NO   OCC          E(Eh)            E(eV)
   0   2.0000     -88.968870     -2420.9660
   1   2.0000     -88.964054     -2420.8350
   2   2.0000     -10.326358      -280.9945
   3   2.0000     -10.325574      -280.9732
   4   2.0000     -10.322360      -280.8857
   5   2.0000     -10.320255      -280.8284
   6   2.0000     -10.307657      -280.4856
   7   2.0000     -10.307279      -280.4753
   8   2.0000     -10.304103      -280.3889
   9   2.0000     -10.294878      -280.1379
  10   2.0000     -10.292929      -280.0848
  11   2.0000     -10.292890      -280.0838
  12   2.0000     -10.290067      -280.0070
  13   2.0000     -10.277209      -279.6571
  14   2.0000     -10.269078      -279.4358
  15   2.0000     -10.267414      -279.3906
  16   2.0000      -8.082192      -219.9276
  17   2.0000      -8.078168      -219.8181
  18   2.0000      -6.040716      -164.3763
  19   2.0000      -6.037031      -164.2760
  20   2.0000      -6.036757      -164.2685
  21   2.0000      -6.032875      -164.1629
  22   2.0000      -6.032790      -164.1606
  23   2.0000      -6.028844      -164.0532
  24   2.0000      -1.005267       -27.3547
  25   2.0000      -0.979628       -26.6570
  26   2.0000      -0.908814       -24.7301
  27   2.0000      -0.899061       -24.4647
  28   2.0000      -0.872923       -23.7534
  29   2.0000      -0.851127       -23.1603
  30   2.0000      -0.844341       -22.9757
  31   2.0000      -0.811110       -22.0714
  32   2.0000      -0.782997       -21.3064
  33   2.0000      -0.770664       -20.9708
  34   2.0000      -0.711527       -19.3616
  35   2.0000      -0.700946       -19.0737
  36   2.0000      -0.688105       -18.7243
  37   2.0000      -0.660888       -17.9837
  38   2.0000      -0.644824       -17.5466
  39   2.0000      -0.619450       -16.8561
  40   2.0000      -0.585650       -15.9363
  41   2.0000      -0.565439       -15.3864
  42   2.0000      -0.559232       -15.2175
  43   2.0000      -0.549762       -14.9598
  44   2.0000      -0.541990       -14.7483
  45   2.0000      -0.532773       -14.4975
  46   2.0000      -0.516169       -14.0457
  47   2.0000      -0.505124       -13.7451
  48   2.0000      -0.499297       -13.5866
  49   2.0000      -0.496912       -13.5217
  50   2.0000      -0.491733       -13.3807
  51   2.0000      -0.483518       -13.1572
  52   2.0000      -0.470825       -12.8118
  53   2.0000      -0.463514       -12.6128
  54   2.0000      -0.458286       -12.4706
  55   2.0000      -0.447425       -12.1751
  56   2.0000      -0.440622       -11.9899
  57   2.0000      -0.437928       -11.9166
  58   2.0000      -0.432922       -11.7804
  59   2.0000      -0.427802       -11.6411
  60   2.0000      -0.423295       -11.5184
  61   2.0000      -0.410159       -11.1610
  62   2.0000      -0.406853       -11.0710
  63   2.0000      -0.345924        -9.4131
  64   2.0000      -0.336062        -9.1447
  65   2.0000      -0.331436        -9.0188
  66   2.0000      -0.290234        -7.8977
  67   0.0000       0.022449         0.6109
  68   0.0000       0.065491         1.7821
  69   0.0000       0.106075         2.8864
  70   0.0000       0.118763         3.2317
  71   0.0000       0.128395         3.4938

MULLIKEN ATOMIC CHARGES
-----------------------
   0 S :    0.106077
   1 C :   -0.120705
   2 C :   -0.034372
   3 C :    0.022209
   4 C :   -0.150451
   5 H :    0.019430
   6 C :    0.003585
   7 H :    0.042222
   8 H :    0.032679
   9 C :   -0.045259
  10 H :    0.002471
  11 H :    0.029600
  12 C :   -0.020098
  13 H :    0.030332
  14 H :    0.022590
  15 H :    0.014916
  16 S :    0.091775
  17 C :   -0.110423
  18 C :   -0.046998
  19 C :   -0.010831
  20 C :   -0.174200
  21 H :    0.023722
  22 C :    0.068254
  23 H :    0.011692
  24 H :    0.039447
  25 C :   -0.111327
  26 H :    0.032611
  27 H :    0.035996
  28 C :   -0.019302
  29 H :    0.046604
  30 H :    0.020307
  31 H :    0.021896
  32 H :    0.043659
  33 H :    0.081891
Sum of atomic charges:    0.0000000

LOEWDIN ATOMIC CHARGES
----------------------
   0 S :    0.375743
   1 C :   -0.178610
   2 C :   -0.060511
   3 C :   -0.063872
   4 C :   -0.182549
   5 H :    0.038035
   6 C :   -0.028773
   7 H :    0.036512
   8 H :    0.030363
   9 C :   -0.034866
  10 H :    0.011819
  11 H :    0.022569
  12 C :   -0.052021
  13 H :    0.028438
  14 H :    0.019254
  15 H :    0.014283
  16 S :    0.378372
  17 C :   -0.190502
  18 C :   -0.077913
  19 C :   -0.056013
  20 C :   -0.182317
  21 H :    0.033133
  22 C :   -0.036093
  23 H :    0.030694
  24 H :    0.033402
  25 C :   -0.041576
  26 H :    0.028244
  27 H :    0.022108
  28 C :   -0.062054
  29 H :    0.028509
  30 H :    0.023172
  31 H :    0.021798
  32 H :    0.024312
  33 H :    0.046907

  Mayer bond orders larger than 0.100000
B(  0-S ,  1-C ) :   1.1265 B(  0-S ,  4-C ) :   1.1247 B(  1-C ,  2-C ) :   1.6166
B(  1-C ,  4-C ) :   0.1072 B(  1-C , 32-H ) :   0.9724 B(  2-C ,  3-C ) :   1.2244
B(  2-C ,  6-C ) :   1.0055 B(  3-C ,  4-C ) :   1.5997 B(  3-C ,  5-H ) :   0.9901
B(  4-C , 20-C ) :   1.0808 B(  6-C ,  7-H ) :   0.9561 B(  6-C ,  8-H ) :   0.9491
B(  6-C ,  9-C ) :   1.0488 B(  9-C , 10-H ) :   0.9591 B(  9-C , 11-H ) :   0.9578
B(  9-C , 12-C ) :   1.0848 B( 12-C , 13-H ) :   0.9725 B( 12-C , 14-H ) :   0.9760
B( 12-C , 15-H ) :   0.9770 B( 16-S , 17-C ) :   1.1401 B( 16-S , 20-C ) :   1.1247
B( 17-C , 18-C ) :   1.6267 B( 17-C , 33-H ) :   0.9568 B( 18-C , 19-C ) :   1.2414
B( 18-C , 21-H ) :   0.9804 B( 19-C , 20-C ) :   1.5804 B( 19-C , 22-C ) :   1.0504
B( 22-C , 23-H ) :   0.9283 B( 22-C , 24-H ) :   0.9359 B( 22-C , 25-C ) :   1.0518
B( 25-C , 26-H ) :   0.9611 B( 25-C , 27-H ) :   0.9562 B( 25-C , 28-C ) :   1.0806
B( 28-C , 29-H ) :   0.9712 B( 28-C , 30-H ) :   0.9766 B( 28-C , 31-H ) :   0.9729

Dispersion correction           -0.015050188
FINAL SINGLE POINT ENERGY     -1339.871416727602

DIPOLE MOMENT
-------------
                                X             Y             Z
Electronic contribution:     27.37632      -4.40313      -2.63958
Nuclear contribution   :    -27.93764       4.65774       2.89703
                        -----------------------------------------
Total Dipole Moment    :     -0.56132       0.25460       0.25745
                        -----------------------------------------
Magnitude (a.u.)       :      0.66797
Magnitude (Debye)      :      1.69784

Rotational constants in cm-1:     0.019342     0.008724     0.007467
Rotational constants in MHz :   579.863370   261.540864   223.848954

                             ****ORCA TERMINATED NORMALLY****
TOTAL RUN TIME: 0 days 0 hours 0 minutes 22 seconds 214 msec
