                         Program Version 4.2.1 -  RELEASE  -
|  1> ! wB97X-D3 SP def2-SVP
|  2> %pal
|  3> nprocs 24
|  4> end
|  5>
|  6> * xyz 0 1
|  7> S 	 -85.2618 	 2.18352 	 -111.779
|  8> C 	 -85.3702 	 3.88849 	 -111.248
|  9> C 	 -86.1576 	 4.61107 	 -112.112
| 10> C 	 -86.8765 	 3.75259 	 -112.994
| 11> C 	 -86.4831 	 2.38519 	 -112.966
| 12> H 	 -87.6237 	 3.96798 	 -113.719
| 13> C 	 -86.5878 	 6.05904 	 -111.944
| 14> H 	 -87.1671 	 6.33837 	 -111.069
| 15> H 	 -87.4092 	 6.20625 	 -112.664
| 16> C 	 -85.3691 	 7.0476 	 -112.197
| 17> H 	 -85.7772 	 8.02216 	 -112.161
| 18> H 	 -84.571 	 6.73539 	 -111.489
| 19> C 	 -84.7239 	 6.87463 	 -113.601
| 20> H 	 -85.5262 	 6.95973 	 -114.29
| 21> H 	 -84.1412 	 7.76742 	 -113.839
| 22> H 	 -84.2001 	 5.94545 	 -113.711
| 23> S 	 -87.8526 	 -0.0999197 	 -112.78
| 24> C 	 -88.4473 	 -0.751835 	 -114.301
| 25> C 	 -88.0554 	 -0.0764627 	 -115.37
| 26> C 	 -87.2941 	 1.11169 	 -115.046
| 27> C 	 -87.0666 	 1.23177 	 -113.681
| 28> H 	 -88.3131 	 -0.379294 	 -116.4
| 29> C 	 -86.7974 	 2.0779 	 -116.074
| 30> H 	 -85.9288 	 1.62343 	 -116.7
| 31> H 	 -86.3759 	 2.9828 	 -115.594
| 32> C 	 -87.7593 	 2.53743 	 -117.195
| 33> H 	 -87.5455 	 3.57625 	 -117.507
| 34> H 	 -88.7902 	 2.53205 	 -116.801
| 35> C 	 -87.6419 	 1.74604 	 -118.533
| 36> H 	 -86.64 	 1.48555 	 -118.838
| 37> H 	 -87.9459 	 2.44374 	 -119.292
| 38> H 	 -88.1865 	 0.844752 	 -118.445
| 39> H 	 -84.9962 	 4.3674 	 -110.336
| 40> H 	 -88.9902 	 -1.63075 	 -114.34
| 41> *
| 42>
| 43>                          ****END OF INPUT****

CARTESIAN COORDINATES (ANGSTROEM)
---------------------------------
  S    -85.261800    2.183520  -111.779000
  C    -85.370200    3.888490  -111.248000
  C    -86.157600    4.611070  -112.112000
  C    -86.876500    3.752590  -112.994000
  C    -86.483100    2.385190  -112.966000
  H    -87.623700    3.967980  -113.719000
  C    -86.587800    6.059040  -111.944000
  H    -87.167100    6.338370  -111.069000
  H    -87.409200    6.206250  -112.664000
  C    -85.369100    7.047600  -112.197000
  H    -85.777200    8.022160  -112.161000
  H    -84.571000    6.735390  -111.489000
  C    -84.723900    6.874630  -113.601000
  H    -85.526200    6.959730  -114.290000
  H    -84.141200    7.767420  -113.839000
  H    -84.200100    5.945450  -113.711000
  S    -87.852600   -0.099920  -112.780000
  C    -88.447300   -0.751835  -114.301000
  C    -88.055400   -0.076463  -115.370000
  C    -87.294100    1.111690  -115.046000
  C    -87.066600    1.231770  -113.681000
  H    -88.313100   -0.379294  -116.400000
  C    -86.797400    2.077900  -116.074000
  H    -85.928800    1.623430  -116.700000
  H    -86.375900    2.982800  -115.594000
  C    -87.759300    2.537430  -117.195000
  H    -87.545500    3.576250  -117.507000
  H    -88.790200    2.532050  -116.801000
  C    -87.641900    1.746040  -118.533000
  H    -86.640000    1.485550  -118.838000
  H    -87.945900    2.443740  -119.292000
  H    -88.186500    0.844752  -118.445000
  H    -84.996200    4.367400  -110.336000
  H    -88.990200   -1.630750  -114.340000

 Total Charge           Charge          ....    0
 Multiplicity           Mult            ....    1
 Number of Electrons    NEL             ....  134
 Basis Dimension        Dim             ....  322

ORBITAL ENERGIES
----------------

  NO   OCC          E(Eh)            E(eV)
   0   2.0000     -88.967204     -2420.9207
   1   2.0000     -88.965697     -2420.8797
   2   2.0000     -10.331320      -281.1295
   3   2.0000     -10.330421      -281.1050
   4   2.0000     -10.316352      -280.7222
   5   2.0000     -10.312341      -280.6131
   6   2.0000     -10.306858      -280.4639
   7   2.0000     -10.301625      -280.3215
   8   2.0000     -10.295887      -280.1653
   9   2.0000     -10.294711      -280.1333
  10   2.0000     -10.294122      -280.1173
  11   2.0000     -10.293982      -280.1135
  12   2.0000     -10.291255      -280.0393
  13   2.0000     -10.289672      -279.9962
  14   2.0000     -10.275236      -279.6034
  15   2.0000     -10.270131      -279.4645
  16   2.0000      -8.081654      -219.9130
  17   2.0000      -8.080048      -219.8693
  18   2.0000      -6.040154      -164.3610
  19   2.0000      -6.038661      -164.3203
  20   2.0000      -6.036031      -164.2488
  21   2.0000      -6.034779      -164.2147
  22   2.0000      -6.032600      -164.1554
  23   2.0000      -6.030537      -164.0993
  24   2.0000      -1.004246       -27.3269
  25   2.0000      -0.984143       -26.7799
  26   2.0000      -0.907766       -24.7016
  27   2.0000      -0.906009       -24.6538
  28   2.0000      -0.868736       -23.6395
  29   2.0000      -0.850570       -23.1452
  30   2.0000      -0.842613       -22.9287
  31   2.0000      -0.813536       -22.1374
  32   2.0000      -0.784971       -21.3602
  33   2.0000      -0.775470       -21.1016
  34   2.0000      -0.706866       -19.2348
  35   2.0000      -0.699780       -19.0420
  36   2.0000      -0.694055       -18.8862
  37   2.0000      -0.658167       -17.9096
  38   2.0000      -0.639410       -17.3992
  39   2.0000      -0.610809       -16.6209
  40   2.0000      -0.602488       -16.3945
  41   2.0000      -0.584991       -15.9184
  42   2.0000      -0.555374       -15.1125
  43   2.0000      -0.550807       -14.9882
  44   2.0000      -0.541256       -14.7283
  45   2.0000      -0.534953       -14.5568
  46   2.0000      -0.513168       -13.9640
  47   2.0000      -0.510238       -13.8843
  48   2.0000      -0.502316       -13.6687
  49   2.0000      -0.498447       -13.5634
  50   2.0000      -0.489878       -13.3303
  51   2.0000      -0.477359       -12.9896
  52   2.0000      -0.470779       -12.8105
  53   2.0000      -0.466228       -12.6867
  54   2.0000      -0.463522       -12.6131
  55   2.0000      -0.449079       -12.2201
  56   2.0000      -0.448156       -12.1949
  57   2.0000      -0.435262       -11.8441
  58   2.0000      -0.431733       -11.7480
  59   2.0000      -0.424538       -11.5523
  60   2.0000      -0.416526       -11.3342
  61   2.0000      -0.409599       -11.1458
  62   2.0000      -0.407807       -11.0970
  63   2.0000      -0.344842        -9.3836
  64   2.0000      -0.333522        -9.0756
  65   2.0000      -0.327683        -8.9167
  66   2.0000      -0.296416        -8.0659
  67   0.0000       0.028343         0.7712
  68   0.0000       0.068828         1.8729
  69   0.0000       0.111657         3.0383
  70   0.0000       0.120143         3.2693
  71   0.0000       0.122953         3.3457

MULLIKEN ATOMIC CHARGES
-----------------------
   0 S :    0.114954
   1 C :   -0.128871
   2 C :   -0.070014
   3 C :    0.048664
   4 C :   -0.197938
   5 H :    0.000889
   6 C :    0.029946
   7 H :    0.040262
   8 H :    0.010054
   9 C :   -0.068615
  10 H :    0.026019
  11 H :    0.041903
  12 C :   -0.042857
  13 H :    0.007648
  14 H :    0.033534
  15 H :    0.053239
  16 S :    0.101844
  17 C :   -0.054853
  18 C :   -0.012627
  19 C :   -0.018036
  20 C :   -0.139794
  21 H :    0.022257
  22 C :    0.023695
  23 H :    0.047049
  24 H :    0.035383
  25 C :   -0.113850
  26 H :    0.031030
  27 H :    0.039541
  28 C :   -0.028051
  29 H :    0.021950
  30 H :    0.030695
  31 H :    0.029493
  32 H :    0.056408
  33 H :    0.029047
Sum of atomic charges:    0.0000000

LOEWDIN ATOMIC CHARGES
----------------------
   0 S :    0.412651
   1 C :   -0.192225
   2 C :   -0.067160
   3 C :   -0.061301
   4 C :   -0.205442
   5 H :    0.023798
   6 C :   -0.038093
   7 H :    0.032090
   8 H :    0.027960
   9 C :   -0.030186
  10 H :    0.018773
  11 H :    0.027926
  12 C :   -0.063074
  13 H :    0.016867
  14 H :    0.028912
  15 H :    0.025908
  16 S :    0.380099
  17 C :   -0.156849
  18 C :   -0.071669
  19 C :   -0.048968
  20 C :   -0.193696
  21 H :    0.037362
  22 C :   -0.047072
  23 H :    0.044240
  24 H :    0.034083
  25 C :   -0.045238
  26 H :    0.027527
  27 H :    0.025899
  28 C :   -0.061530
  29 H :    0.022503
  30 H :    0.028118
  31 H :    0.015904
  32 H :    0.035432
  33 H :    0.016447

  Mayer bond orders larger than 0.100000
B(  0-S ,  1-C ) :   1.1411 B(  0-S ,  4-C ) :   1.1682 B(  1-C ,  2-C ) :   1.5934
B(  1-C ,  4-C ) :   0.1000 B(  1-C , 32-H ) :   0.9644 B(  2-C ,  3-C ) :   1.2462
B(  2-C ,  6-C ) :   1.0117 B(  3-C ,  4-C ) :   1.5549 B(  3-C ,  5-H ) :   0.9935
B(  4-C , 20-C ) :   1.0275 B(  6-C ,  7-H ) :   0.9504 B(  6-C ,  8-H ) :   0.9446
B(  6-C ,  9-C ) :   1.0565 B(  9-C , 10-H ) :   0.9584 B(  9-C , 11-H ) :   0.9624
B(  9-C , 12-C ) :   1.0798 B( 12-C , 13-H ) :   0.9753 B( 12-C , 14-H ) :   0.9743
B( 12-C , 15-H ) :   0.9729 B( 16-S , 17-C ) :   1.1366 B( 16-S , 20-C ) :   1.1150
B( 17-C , 18-C ) :   1.6599 B( 17-C , 33-H ) :   0.9707 B( 18-C , 19-C ) :   1.1962
B( 18-C , 21-H ) :   0.9844 B( 19-C , 20-C ) :   1.6241 B( 19-C , 22-C ) :   1.0678
B( 22-C , 23-H ) :   0.9353 B( 22-C , 24-H ) :   0.9303 B( 22-C , 25-C ) :   1.0417
B( 25-C , 26-H ) :   0.9646 B( 25-C , 27-H ) :   0.9625 B( 25-C , 28-C ) :   1.0714
B( 28-C , 29-H ) :   0.9725 B( 28-C , 30-H ) :   0.9750 B( 28-C , 31-H ) :   0.9797

Dispersion correction           -0.014364620
FINAL SINGLE POINT ENERGY     -1339.861888317456

DIPOLE MOMENT
-------------
                                X             Y             Z
Electronic contribution:     -0.75959     -21.45357      19.21658
Nuclear contribution   :      0.45736      21.89491     -19.72110
                        -----------------------------------------
Total Dipole Moment    :     -0.30223       0.44135      -0.50452
                        -----------------------------------------
Magnitude (a.u.)       :      0.73530
Magnitude (Debye)      :      1.86899

Rotational constants in cm-1:     0.018525     0.008684     0.006400
Rotational constants in MHz :   555.370436   260.345128   191.878435

                             ****ORCA TERMINATED NORMALLY****
TOTAL RUN TIME: 0 days 0 hours 0 minutes 21 seconds 572 msec
