                         Program Version 4.2.1 -  RELEASE  -
|  1> ! wB97X-D3 SP def2-SVP
|  2> %pal
|  3> nprocs 24
|  4> end
|  5>
|  6> * xyz 0 1
|  7> S 	 -73.5464 	 1.14798 	 -108.149
|  8> C 	 -74.0527 	 2.83998 	 -108.088
|  9> C 	 -73.7357 	 3.55508 	 -109.264
| 10> C 	 -73.1863 	 2.7613 	 -110.305
| 11> C 	 -73.0511 	 1.4817 	 -109.857
| 12> H 	 -72.8642 	 3.0068 	 -111.316
| 13> C 	 -74.1144 	 5.0461 	 -109.5
| 14> H 	 -73.3626 	 5.49426 	 -110.108
| 15> H 	 -73.9325 	 5.47591 	 -108.495
| 16> C 	 -75.5789 	 5.40151 	 -109.956
| 17> H 	 -75.9905 	 4.74277 	 -110.727
| 18> H 	 -76.1982 	 5.15173 	 -109.126
| 19> C 	 -75.799 	 6.81708 	 -110.385
| 20> H 	 -75.1604 	 6.95305 	 -111.255
| 21> H 	 -76.814 	 7.06105 	 -110.711
| 22> H 	 -75.4517 	 7.52942 	 -109.565
| 23> S 	 -73.3044 	 -1.05178 	 -110.592
| 24> C 	 -71.8903 	 -1.90819 	 -111.173
| 25> C 	 -70.8434 	 -1.08009 	 -111.409
| 26> C 	 -71.145 	 0.247112 	 -111.1
| 27> C 	 -72.3893 	 0.370141 	 -110.514
| 28> H 	 -69.8979 	 -1.29994 	 -111.822
| 29> C 	 -70.1094 	 1.29292 	 -111.072
| 30> H 	 -70.6387 	 2.20442 	 -111.298
| 31> H 	 -69.4714 	 1.10088 	 -111.845
| 32> C 	 -69.4275 	 1.42196 	 -109.732
| 33> H 	 -68.8428 	 0.623016 	 -109.49
| 34> H 	 -70.1439 	 1.42557 	 -108.909
| 35> C 	 -68.552 	 2.7123 	 -109.761
| 36> H 	 -67.7641 	 2.7753 	 -110.477
| 37> H 	 -68.0677 	 2.79649 	 -108.774
| 38> H 	 -69.1098 	 3.56156 	 -109.923
| 39> H 	 -74.55 	 3.27192 	 -107.179
| 40> H 	 -71.8466 	 -2.98466 	 -111.323
| 41> *
| 42>
| 43>                          ****END OF INPUT****

CARTESIAN COORDINATES (ANGSTROEM)
---------------------------------
  S    -73.546400    1.147980  -108.149000
  C    -74.052700    2.839980  -108.088000
  C    -73.735700    3.555080  -109.264000
  C    -73.186300    2.761300  -110.305000
  C    -73.051100    1.481700  -109.857000
  H    -72.864200    3.006800  -111.316000
  C    -74.114400    5.046100  -109.500000
  H    -73.362600    5.494260  -110.108000
  H    -73.932500    5.475910  -108.495000
  C    -75.578900    5.401510  -109.956000
  H    -75.990500    4.742770  -110.727000
  H    -76.198200    5.151730  -109.126000
  C    -75.799000    6.817080  -110.385000
  H    -75.160400    6.953050  -111.255000
  H    -76.814000    7.061050  -110.711000
  H    -75.451700    7.529420  -109.565000
  S    -73.304400   -1.051780  -110.592000
  C    -71.890300   -1.908190  -111.173000
  C    -70.843400   -1.080090  -111.409000
  C    -71.145000    0.247112  -111.100000
  C    -72.389300    0.370141  -110.514000
  H    -69.897900   -1.299940  -111.822000
  C    -70.109400    1.292920  -111.072000
  H    -70.638700    2.204420  -111.298000
  H    -69.471400    1.100880  -111.845000
  C    -69.427500    1.421960  -109.732000
  H    -68.842800    0.623016  -109.490000
  H    -70.143900    1.425570  -108.909000
  C    -68.552000    2.712300  -109.761000
  H    -67.764100    2.775300  -110.477000
  H    -68.067700    2.796490  -108.774000
  H    -69.109800    3.561560  -109.923000
  H    -74.550000    3.271920  -107.179000
  H    -71.846600   -2.984660  -111.323000

 Total Charge           Charge          ....    0
 Multiplicity           Mult            ....    1
 Number of Electrons    NEL             ....  134
 Basis Dimension        Dim             ....  322

ORBITAL ENERGIES
----------------

  NO   OCC          E(Eh)            E(eV)
   0   2.0000     -88.970433     -2421.0086
   1   2.0000     -88.963016     -2420.8067
   2   2.0000     -10.328745      -281.0594
   3   2.0000     -10.321328      -280.8576
   4   2.0000     -10.311286      -280.5844
   5   2.0000     -10.310800      -280.5711
   6   2.0000     -10.308414      -280.5062
   7   2.0000     -10.296281      -280.1760
   8   2.0000     -10.295093      -280.1437
   9   2.0000     -10.286492      -279.9097
  10   2.0000     -10.283728      -279.8345
  11   2.0000     -10.282481      -279.8005
  12   2.0000     -10.281856      -279.7835
  13   2.0000     -10.275264      -279.6041
  14   2.0000     -10.273319      -279.5512
  15   2.0000     -10.266897      -279.3765
  16   2.0000      -8.083795      -219.9713
  17   2.0000      -8.078951      -219.8394
  18   2.0000      -6.042195      -164.4165
  19   2.0000      -6.038740      -164.3225
  20   2.0000      -6.037309      -164.2835
  21   2.0000      -6.034494      -164.2069
  22   2.0000      -6.033308      -164.1747
  23   2.0000      -6.029787      -164.0788
  24   2.0000      -1.013668       -27.5833
  25   2.0000      -0.981860       -26.7178
  26   2.0000      -0.917266       -24.9601
  27   2.0000      -0.904783       -24.6204
  28   2.0000      -0.870771       -23.6949
  29   2.0000      -0.855603       -23.2821
  30   2.0000      -0.850146       -23.1336
  31   2.0000      -0.815927       -22.2025
  32   2.0000      -0.780778       -21.2460
  33   2.0000      -0.762985       -20.7619
  34   2.0000      -0.715368       -19.4662
  35   2.0000      -0.700714       -19.0674
  36   2.0000      -0.692892       -18.8546
  37   2.0000      -0.672717       -18.3056
  38   2.0000      -0.642916       -17.4946
  39   2.0000      -0.616570       -16.7777
  40   2.0000      -0.598291       -16.2803
  41   2.0000      -0.568219       -15.4620
  42   2.0000      -0.563780       -15.3412
  43   2.0000      -0.551018       -14.9940
  44   2.0000      -0.530505       -14.4358
  45   2.0000      -0.524925       -14.2839
  46   2.0000      -0.514909       -14.0114
  47   2.0000      -0.510081       -13.8800
  48   2.0000      -0.504200       -13.7200
  49   2.0000      -0.499602       -13.5949
  50   2.0000      -0.486487       -13.2380
  51   2.0000      -0.480278       -13.0690
  52   2.0000      -0.477364       -12.9897
  53   2.0000      -0.461424       -12.5560
  54   2.0000      -0.458445       -12.4749
  55   2.0000      -0.451264       -12.2795
  56   2.0000      -0.447913       -12.1883
  57   2.0000      -0.443775       -12.0757
  58   2.0000      -0.435612       -11.8536
  59   2.0000      -0.426537       -11.6067
  60   2.0000      -0.424105       -11.5405
  61   2.0000      -0.414943       -11.2912
  62   2.0000      -0.409753       -11.1499
  63   2.0000      -0.347667        -9.4605
  64   2.0000      -0.334357        -9.0983
  65   2.0000      -0.328362        -8.9352
  66   2.0000      -0.287574        -7.8253
  67   0.0000       0.030601         0.8327
  68   0.0000       0.067486         1.8364
  69   0.0000       0.101835         2.7711
  70   0.0000       0.116722         3.1762
  71   0.0000       0.141434         3.8486

MULLIKEN ATOMIC CHARGES
-----------------------
   0 S :    0.109438
   1 C :   -0.140805
   2 C :   -0.092136
   3 C :    0.034431
   4 C :   -0.144422
   5 H :    0.031829
   6 C :    0.059807
   7 H :    0.010334
   8 H :    0.023366
   9 C :   -0.038941
  10 H :    0.027261
  11 H :    0.012644
  12 C :   -0.056652
  13 H :    0.026527
  14 H :    0.041667
  15 H :    0.039146
  16 S :    0.120316
  17 C :   -0.079791
  18 C :   -0.011573
  19 C :   -0.055944
  20 C :   -0.204625
  21 H :   -0.006735
  22 C :    0.145528
  23 H :   -0.009097
  24 H :   -0.012085
  25 C :   -0.013319
  26 H :   -0.003024
  27 H :    0.027502
  28 C :   -0.015722
  29 H :    0.017581
  30 H :    0.027890
  31 H :    0.010607
  32 H :    0.067135
  33 H :    0.051862
Sum of atomic charges:    0.0000000

LOEWDIN ATOMIC CHARGES
----------------------
   0 S :    0.377093
   1 C :   -0.204255
   2 C :   -0.057820
   3 C :   -0.061593
   4 C :   -0.165003
   5 H :    0.041137
   6 C :   -0.030292
   7 H :    0.020445
   8 H :    0.033755
   9 C :   -0.044556
  10 H :    0.025991
  11 H :    0.018208
  12 C :   -0.068392
  13 H :    0.023751
  14 H :    0.029016
  15 H :    0.031747
  16 S :    0.430905
  17 C :   -0.184038
  18 C :   -0.064163
  19 C :   -0.060677
  20 C :   -0.226915
  21 H :    0.026017
  22 C :   -0.023235
  23 H :    0.026632
  24 H :    0.016620
  25 C :   -0.019501
  26 H :    0.010839
  27 H :    0.029146
  28 C :   -0.055461
  29 H :    0.020013
  30 H :    0.029209
  31 H :    0.012467
  32 H :    0.035473
  33 H :    0.027437

  Mayer bond orders larger than 0.100000
B(  0-S ,  1-C ) :   1.1228 B(  0-S ,  4-C ) :   1.1355 B(  1-C ,  2-C ) :   1.6258
B(  1-C ,  4-C ) :   0.1016 B(  1-C , 32-H ) :   0.9632 B(  2-C ,  3-C ) :   1.2005
B(  2-C ,  6-C ) :   1.0228 B(  3-C ,  4-C ) :   1.6219 B(  3-C ,  5-H ) :   0.9910
B(  4-C , 20-C ) :   1.0101 B(  6-C ,  7-H ) :   0.9462 B(  6-C ,  8-H ) :   0.9372
B(  6-C ,  9-C ) :   1.0457 B(  9-C , 10-H ) :   0.9577 B(  9-C , 11-H ) :   0.9508
B(  9-C , 12-C ) :   1.0863 B( 12-C , 13-H ) :   0.9749 B( 12-C , 14-H ) :   0.9718
B( 12-C , 15-H ) :   0.9735 B( 16-S , 17-C ) :   1.1483 B( 16-S , 20-C ) :   1.1732
B( 17-C , 18-C ) :   1.5816 B( 17-C , 33-H ) :   0.9684 B( 18-C , 19-C ) :   1.2727
B( 18-C , 21-H ) :   0.9969 B( 19-C , 20-C ) :   1.5628 B( 19-C , 22-C ) :   1.0658
B( 22-C , 23-H ) :   0.9204 B( 22-C , 24-H ) :   0.9099 B( 22-C , 25-C ) :   1.0710
B( 25-C , 26-H ) :   0.9501 B( 25-C , 27-H ) :   0.9531 B( 25-C , 28-C ) :   1.0772
B( 28-C , 29-H ) :   0.9752 B( 28-C , 30-H ) :   0.9735 B( 28-C , 31-H ) :   0.9775

Dispersion correction           -0.014501095
FINAL SINGLE POINT ENERGY     -1339.863390629089

DIPOLE MOMENT
-------------
                                X             Y             Z
Electronic contribution:     -7.10478     -25.65993       2.91635
Nuclear contribution   :      7.39222      26.05950      -3.08047
                        -----------------------------------------
Total Dipole Moment    :      0.28745       0.39957      -0.16412
                        -----------------------------------------
Magnitude (a.u.)       :      0.51886
Magnitude (Debye)      :      1.31884

Rotational constants in cm-1:     0.019819     0.008148     0.006889
Rotational constants in MHz :   594.146369   244.274192   206.512230

                             ****ORCA TERMINATED NORMALLY****
TOTAL RUN TIME: 0 days 0 hours 0 minutes 20 seconds 705 msec
