                         Program Version 4.2.1 -  RELEASE  -
|  1> ! wB97X-D3 SP def2-SVP
|  2> %pal
|  3> nprocs 24
|  4> end
|  5>
|  6> * xyz 0 1
|  7> S 	 -90.9221 	 -4.27718 	 -115.551
|  8> C 	 -89.9286 	 -3.25287 	 -116.626
|  9> C 	 -90.745 	 -2.76682 	 -117.632
| 10> C 	 -92.1512 	 -3.17973 	 -117.521
| 11> C 	 -92.3874 	 -3.98562 	 -116.452
| 12> H 	 -92.9062 	 -2.76534 	 -118.204
| 13> C 	 -90.2639 	 -1.93952 	 -118.816
| 14> H 	 -91.102 	 -1.73148 	 -119.422
| 15> H 	 -89.4528 	 -2.35305 	 -119.388
| 16> C 	 -89.7946 	 -0.464 	 -118.364
| 17> H 	 -90.5031 	 0.00467082 	 -117.735
| 18> H 	 -88.8865 	 -0.453484 	 -117.804
| 19> C 	 -89.6752 	 0.396951 	 -119.633
| 20> H 	 -89.62 	 1.45471 	 -119.283
| 21> H 	 -88.8297 	 0.202885 	 -120.251
| 22> H 	 -90.6454 	 0.328869 	 -120.229
| 23> S 	 -93.3036 	 -6.44914 	 -115.846
| 24> C 	 -95.0838 	 -6.7152 	 -116.005
| 25> C 	 -95.8036 	 -5.58301 	 -116.364
| 26> C 	 -94.9253 	 -4.44341 	 -116.527
| 27> C 	 -93.5996 	 -4.71696 	 -116.193
| 28> H 	 -96.8727 	 -5.65352 	 -116.667
| 29> C 	 -95.4735 	 -3.0953 	 -116.993
| 30> H 	 -94.7811 	 -2.30836 	 -116.629
| 31> H 	 -96.3491 	 -2.85804 	 -116.379
| 32> C 	 -95.8034 	 -2.90798 	 -118.47
| 33> H 	 -94.8952 	 -2.67365 	 -119.112
| 34> H 	 -96.3029 	 -1.90939 	 -118.552
| 35> C 	 -96.5431 	 -4.0563 	 -119.202
| 36> H 	 -97.4731 	 -4.16731 	 -118.637
| 37> H 	 -95.9765 	 -5.03612 	 -119.084
| 38> H 	 -96.6869 	 -3.77713 	 -120.252
| 39> H 	 -88.9066 	 -3.06296 	 -116.513
| 40> H 	 -95.5313 	 -7.6687 	 -115.923
| 41> *
| 42>
| 43>                          ****END OF INPUT****

CARTESIAN COORDINATES (ANGSTROEM)
---------------------------------
  S    -90.922100   -4.277180  -115.551000
  C    -89.928600   -3.252870  -116.626000
  C    -90.745000   -2.766820  -117.632000
  C    -92.151200   -3.179730  -117.521000
  C    -92.387400   -3.985620  -116.452000
  H    -92.906200   -2.765340  -118.204000
  C    -90.263900   -1.939520  -118.816000
  H    -91.102000   -1.731480  -119.422000
  H    -89.452800   -2.353050  -119.388000
  C    -89.794600   -0.464000  -118.364000
  H    -90.503100    0.004671  -117.735000
  H    -88.886500   -0.453484  -117.804000
  C    -89.675200    0.396951  -119.633000
  H    -89.620000    1.454710  -119.283000
  H    -88.829700    0.202885  -120.251000
  H    -90.645400    0.328869  -120.229000
  S    -93.303600   -6.449140  -115.846000
  C    -95.083800   -6.715200  -116.005000
  C    -95.803600   -5.583010  -116.364000
  C    -94.925300   -4.443410  -116.527000
  C    -93.599600   -4.716960  -116.193000
  H    -96.872700   -5.653520  -116.667000
  C    -95.473500   -3.095300  -116.993000
  H    -94.781100   -2.308360  -116.629000
  H    -96.349100   -2.858040  -116.379000
  C    -95.803400   -2.907980  -118.470000
  H    -94.895200   -2.673650  -119.112000
  H    -96.302900   -1.909390  -118.552000
  C    -96.543100   -4.056300  -119.202000
  H    -97.473100   -4.167310  -118.637000
  H    -95.976500   -5.036120  -119.084000
  H    -96.686900   -3.777130  -120.252000
  H    -88.906600   -3.062960  -116.513000
  H    -95.531300   -7.668700  -115.923000

 Total Charge           Charge          ....    0
 Multiplicity           Mult            ....    1
 Number of Electrons    NEL             ....  134
 Basis Dimension        Dim             ....  322

ORBITAL ENERGIES
----------------

  NO   OCC          E(Eh)            E(eV)
   0   2.0000     -88.967924     -2420.9403
   1   2.0000     -88.963590     -2420.8224
   2   2.0000     -10.330233      -281.0999
   3   2.0000     -10.327647      -281.0296
   4   2.0000     -10.321264      -280.8559
   5   2.0000     -10.313072      -280.6330
   6   2.0000     -10.309167      -280.5267
   7   2.0000     -10.303621      -280.3758
   8   2.0000     -10.302858      -280.3550
   9   2.0000     -10.298225      -280.2289
  10   2.0000     -10.297331      -280.2046
  11   2.0000     -10.294484      -280.1272
  12   2.0000     -10.291061      -280.0340
  13   2.0000     -10.288186      -279.9558
  14   2.0000     -10.284121      -279.8452
  15   2.0000     -10.282788      -279.8089
  16   2.0000      -8.081267      -219.9024
  17   2.0000      -8.077946      -219.8121
  18   2.0000      -6.039914      -164.3544
  19   2.0000      -6.036707      -164.2672
  20   2.0000      -6.036220      -164.2539
  21   2.0000      -6.032454      -164.1514
  22   2.0000      -6.031676      -164.1302
  23   2.0000      -6.028513      -164.0442
  24   2.0000      -1.002907       -27.2905
  25   2.0000      -0.973974       -26.5032
  26   2.0000      -0.908048       -24.7092
  27   2.0000      -0.904561       -24.6144
  28   2.0000      -0.869856       -23.6700
  29   2.0000      -0.848119       -23.0785
  30   2.0000      -0.839640       -22.8478
  31   2.0000      -0.814493       -22.1635
  32   2.0000      -0.783186       -21.3116
  33   2.0000      -0.769383       -20.9360
  34   2.0000      -0.709960       -19.3190
  35   2.0000      -0.703289       -19.1375
  36   2.0000      -0.688155       -18.7257
  37   2.0000      -0.665327       -18.1045
  38   2.0000      -0.641285       -17.4503
  39   2.0000      -0.617949       -16.8152
  40   2.0000      -0.589204       -16.0331
  41   2.0000      -0.569079       -15.4854
  42   2.0000      -0.561793       -15.2872
  43   2.0000      -0.554021       -15.0757
  44   2.0000      -0.545326       -14.8391
  45   2.0000      -0.523801       -14.2533
  46   2.0000      -0.517538       -14.0829
  47   2.0000      -0.510665       -13.8959
  48   2.0000      -0.500790       -13.6272
  49   2.0000      -0.494669       -13.4606
  50   2.0000      -0.487365       -13.2619
  51   2.0000      -0.484672       -13.1886
  52   2.0000      -0.467324       -12.7165
  53   2.0000      -0.463373       -12.6090
  54   2.0000      -0.458020       -12.4634
  55   2.0000      -0.451380       -12.2827
  56   2.0000      -0.447519       -12.1776
  57   2.0000      -0.443474       -12.0675
  58   2.0000      -0.435574       -11.8526
  59   2.0000      -0.426466       -11.6047
  60   2.0000      -0.420076       -11.4308
  61   2.0000      -0.410839       -11.1795
  62   2.0000      -0.402743       -10.9592
  63   2.0000      -0.355386        -9.6705
  64   2.0000      -0.333383        -9.0718
  65   2.0000      -0.324246        -8.8232
  66   2.0000      -0.287070        -7.8116
  67   0.0000       0.023491         0.6392
  68   0.0000       0.069855         1.9009
  69   0.0000       0.096676         2.6307
  70   0.0000       0.119450         3.2504
  71   0.0000       0.127032         3.4567

MULLIKEN ATOMIC CHARGES
-----------------------
   0 S :    0.085424
   1 C :   -0.099531
   2 C :   -0.088167
   3 C :    0.019531
   4 C :   -0.115443
   5 H :    0.002188
   6 C :    0.079486
   7 H :    0.000188
   8 H :    0.041868
   9 C :   -0.074155
  10 H :    0.021691
  11 H :    0.025550
  12 C :   -0.075707
  13 H :    0.035772
  14 H :    0.036146
  15 H :    0.036497
  16 S :    0.088001
  17 C :   -0.079149
  18 C :   -0.039221
  19 C :   -0.076010
  20 C :   -0.094099
  21 H :    0.042878
  22 C :    0.051286
  23 H :    0.032779
  24 H :    0.032175
  25 C :   -0.110856
  26 H :    0.032333
  27 H :    0.035124
  28 C :   -0.068589
  29 H :    0.031088
  30 H :    0.067800
  31 H :    0.049791
  32 H :    0.030063
  33 H :    0.043267
Sum of atomic charges:    0.0000000

LOEWDIN ATOMIC CHARGES
----------------------
   0 S :    0.383473
   1 C :   -0.179501
   2 C :   -0.054743
   3 C :   -0.067984
   4 C :   -0.193844
   5 H :    0.032133
   6 C :   -0.022407
   7 H :    0.020110
   8 H :    0.031416
   9 C :   -0.030616
  10 H :    0.019000
  11 H :    0.017042
  12 C :   -0.069949
  13 H :    0.030024
  14 H :    0.018454
  15 H :    0.030217
  16 S :    0.367871
  17 C :   -0.157312
  18 C :   -0.071545
  19 C :   -0.055092
  20 C :   -0.176967
  21 H :    0.042265
  22 C :   -0.043083
  23 H :    0.038096
  24 H :    0.034697
  25 C :   -0.052361
  26 H :    0.021265
  27 H :    0.029894
  28 C :   -0.070127
  29 H :    0.021393
  30 H :    0.039038
  31 H :    0.031345
  32 H :    0.019107
  33 H :    0.018689

  Mayer bond orders larger than 0.100000
B(  0-S ,  1-C ) :   1.1055 B(  0-S ,  4-C ) :   1.1398 B(  1-C ,  2-C ) :   1.6190
B(  1-C , 32-H ) :   0.9846 B(  2-C ,  3-C ) :   1.2337 B(  2-C ,  6-C ) :   1.0308
B(  3-C ,  4-C ) :   1.5744 B(  3-C ,  5-H ) :   0.9834 B(  4-C , 20-C ) :   1.0492
B(  6-C ,  7-H ) :   0.9424 B(  6-C ,  8-H ) :   0.9478 B(  6-C ,  9-C ) :   1.0531
B(  9-C , 10-H ) :   0.9604 B(  9-C , 11-H ) :   0.9578 B(  9-C , 12-C ) :   1.0841
B( 12-C , 13-H ) :   0.9749 B( 12-C , 14-H ) :   0.9770 B( 12-C , 15-H ) :   0.9747
B( 16-S , 17-C ) :   1.1352 B( 16-S , 20-C ) :   1.1141 B( 17-C , 18-C ) :   1.6421
B( 17-C , 33-H ) :   0.9698 B( 18-C , 19-C ) :   1.2047 B( 18-C , 21-H ) :   0.9799
B( 19-C , 20-C ) :   1.6388 B( 19-C , 22-C ) :   1.0322 B( 22-C , 23-H ) :   0.9338
B( 22-C , 24-H ) :   0.9369 B( 22-C , 25-C ) :   1.0666 B( 25-C , 26-H ) :   0.9485
B( 25-C , 27-H ) :   0.9503 B( 25-C , 28-C ) :   1.0775 B( 28-C , 29-H ) :   0.9753
B( 28-C , 30-H ) :   0.9650 B( 28-C , 31-H ) :   0.9711

Dispersion correction           -0.014390765
FINAL SINGLE POINT ENERGY     -1339.872869566549

DIPOLE MOMENT
-------------
                                X             Y             Z
Electronic contribution:      4.94408     -21.97677      20.52175
Nuclear contribution   :     -5.22850      22.45410     -21.14254
                        -----------------------------------------
Total Dipole Moment    :     -0.28442       0.47733      -0.62079
                        -----------------------------------------
Magnitude (a.u.)       :      0.83314
Magnitude (Debye)      :      2.11767

Rotational constants in cm-1:     0.019472     0.008617     0.006326
Rotational constants in MHz :   583.759323   258.322762   189.638131

                             ****ORCA TERMINATED NORMALLY****
TOTAL RUN TIME: 0 days 0 hours 0 minutes 21 seconds 683 msec
