                         Program Version 4.2.1 -  RELEASE  -
|  1> ! wB97X-D3 SP def2-SVP
|  2> %pal
|  3> nprocs 24
|  4> end
|  5>
|  6> * xyz 0 1
|  7> S 	 -103.621 	 -0.135786 	 -122.789
|  8> C 	 -105.108 	 -0.325425 	 -121.884
|  9> C 	 -104.77 	 -0.482361 	 -120.53
| 10> C 	 -103.381 	 -0.529592 	 -120.312
| 11> C 	 -102.565 	 -0.442171 	 -121.413
| 12> H 	 -102.859 	 -0.674043 	 -119.368
| 13> C 	 -105.803 	 -0.626804 	 -119.465
| 14> H 	 -105.443 	 -1.38332 	 -118.801
| 15> H 	 -106.643 	 -1.15572 	 -119.919
| 16> C 	 -106.19 	 0.657782 	 -118.821
| 17> H 	 -105.349 	 1.26601 	 -118.563
| 18> H 	 -106.653 	 1.30508 	 -119.551
| 19> C 	 -107.135 	 0.395556 	 -117.637
| 20> H 	 -106.521 	 -0.0736556 	 -116.869
| 21> H 	 -107.68 	 1.26961 	 -117.342
| 22> H 	 -107.862 	 -0.330769 	 -117.975
| 23> S 	 -100.461 	 -1.44537 	 -122.731
| 24> C 	 -98.8424 	 -1.06153 	 -122.14
| 25> C 	 -98.8474 	 -0.00365086 	 -121.302
| 26> C 	 -100.184 	 0.370046 	 -120.904
| 27> C 	 -101.147 	 -0.388814 	 -121.534
| 28> H 	 -97.952 	 0.450387 	 -120.981
| 29> C 	 -100.508 	 1.44135 	 -119.912
| 30> H 	 -99.7924 	 1.40484 	 -119.146
| 31> H 	 -101.491 	 1.28641 	 -119.471
| 32> C 	 -100.692 	 2.80661 	 -120.388
| 33> H 	 -100.994 	 3.48564 	 -119.587
| 34> H 	 -101.554 	 2.85994 	 -121.038
| 35> C 	 -99.4824 	 3.42549 	 -121.161
| 36> H 	 -99.212 	 2.82593 	 -121.983
| 37> H 	 -98.5328 	 3.53636 	 -120.594
| 38> H 	 -99.7523 	 4.42195 	 -121.564
| 39> H 	 -106.054 	 -0.278994 	 -122.388
| 40> H 	 -97.9284 	 -1.57989 	 -122.595
| 41> *
| 42>
| 43>                          ****END OF INPUT****

CARTESIAN COORDINATES (ANGSTROEM)
---------------------------------
  S    -103.621000   -0.135786  -122.789000
  C    -105.108000   -0.325425  -121.884000
  C    -104.770000   -0.482361  -120.530000
  C    -103.381000   -0.529592  -120.312000
  C    -102.565000   -0.442171  -121.413000
  H    -102.859000   -0.674043  -119.368000
  C    -105.803000   -0.626804  -119.465000
  H    -105.443000   -1.383320  -118.801000
  H    -106.643000   -1.155720  -119.919000
  C    -106.190000    0.657782  -118.821000
  H    -105.349000    1.266010  -118.563000
  H    -106.653000    1.305080  -119.551000
  C    -107.135000    0.395556  -117.637000
  H    -106.521000   -0.073656  -116.869000
  H    -107.680000    1.269610  -117.342000
  H    -107.862000   -0.330769  -117.975000
  S    -100.461000   -1.445370  -122.731000
  C    -98.842400   -1.061530  -122.140000
  C    -98.847400   -0.003651  -121.302000
  C    -100.184000    0.370046  -120.904000
  C    -101.147000   -0.388814  -121.534000
  H    -97.952000    0.450387  -120.981000
  C    -100.508000    1.441350  -119.912000
  H    -99.792400    1.404840  -119.146000
  H    -101.491000    1.286410  -119.471000
  C    -100.692000    2.806610  -120.388000
  H    -100.994000    3.485640  -119.587000
  H    -101.554000    2.859940  -121.038000
  C    -99.482400    3.425490  -121.161000
  H    -99.212000    2.825930  -121.983000
  H    -98.532800    3.536360  -120.594000
  H    -99.752300    4.421950  -121.564000
  H    -106.054000   -0.278994  -122.388000
  H    -97.928400   -1.579890  -122.595000

 Total Charge           Charge          ....    0
 Multiplicity           Mult            ....    1
 Number of Electrons    NEL             ....  134
 Basis Dimension        Dim             ....  322

ORBITAL ENERGIES
----------------

  NO   OCC          E(Eh)            E(eV)
   0   2.0000     -88.962956     -2420.8051
   1   2.0000     -88.960225     -2420.7308
   2   2.0000     -10.326051      -280.9861
   3   2.0000     -10.323746      -280.9234
   4   2.0000     -10.322970      -280.9023
   5   2.0000     -10.315710      -280.7047
   6   2.0000     -10.304927      -280.4113
   7   2.0000     -10.300225      -280.2834
   8   2.0000     -10.294399      -280.1248
   9   2.0000     -10.290835      -280.0279
  10   2.0000     -10.283439      -279.8266
  11   2.0000     -10.280105      -279.7359
  12   2.0000     -10.279586      -279.7218
  13   2.0000     -10.279204      -279.7114
  14   2.0000     -10.275570      -279.6125
  15   2.0000     -10.272906      -279.5400
  16   2.0000      -8.078274      -219.8210
  17   2.0000      -8.075053      -219.7334
  18   2.0000      -6.036780      -164.2691
  19   2.0000      -6.033498      -164.1798
  20   2.0000      -6.032838      -164.1619
  21   2.0000      -6.029411      -164.0686
  22   2.0000      -6.028848      -164.0533
  23   2.0000      -6.025999      -163.9758
  24   2.0000      -1.011789       -27.5322
  25   2.0000      -0.986901       -26.8549
  26   2.0000      -0.920935       -25.0599
  27   2.0000      -0.918806       -25.0020
  28   2.0000      -0.876709       -23.8565
  29   2.0000      -0.848735       -23.0952
  30   2.0000      -0.843751       -22.9596
  31   2.0000      -0.819609       -22.3027
  32   2.0000      -0.787396       -21.4261
  33   2.0000      -0.771440       -20.9919
  34   2.0000      -0.713252       -19.4086
  35   2.0000      -0.707160       -19.2428
  36   2.0000      -0.690450       -18.7881
  37   2.0000      -0.668255       -18.1842
  38   2.0000      -0.648853       -17.6562
  39   2.0000      -0.620383       -16.8815
  40   2.0000      -0.597606       -16.2617
  41   2.0000      -0.572585       -15.5808
  42   2.0000      -0.564519       -15.3613
  43   2.0000      -0.554591       -15.0912
  44   2.0000      -0.547070       -14.8865
  45   2.0000      -0.532554       -14.4915
  46   2.0000      -0.524355       -14.2684
  47   2.0000      -0.517579       -14.0840
  48   2.0000      -0.503222       -13.6934
  49   2.0000      -0.498928       -13.5765
  50   2.0000      -0.492911       -13.4128
  51   2.0000      -0.484251       -13.1771
  52   2.0000      -0.472547       -12.8587
  53   2.0000      -0.463886       -12.6230
  54   2.0000      -0.461475       -12.5574
  55   2.0000      -0.450634       -12.2624
  56   2.0000      -0.448834       -12.2134
  57   2.0000      -0.440668       -11.9912
  58   2.0000      -0.433921       -11.8076
  59   2.0000      -0.419471       -11.4144
  60   2.0000      -0.414696       -11.2844
  61   2.0000      -0.412801       -11.2329
  62   2.0000      -0.407264       -11.0822
  63   2.0000      -0.350008        -9.5242
  64   2.0000      -0.330960        -9.0059
  65   2.0000      -0.329172        -8.9572
  66   2.0000      -0.292710        -7.9651
  67   0.0000       0.029458         0.8016
  68   0.0000       0.066561         1.8112
  69   0.0000       0.112046         3.0489
  70   0.0000       0.123539         3.3617
  71   0.0000       0.132547         3.6068

MULLIKEN ATOMIC CHARGES
-----------------------
   0 S :    0.088945
   1 C :   -0.123132
   2 C :   -0.099370
   3 C :    0.027515
   4 C :   -0.142708
   5 H :    0.013603
   6 C :    0.077827
   7 H :    0.010882
   8 H :    0.014503
   9 C :   -0.048842
  10 H :    0.016774
  11 H :    0.011473
  12 C :   -0.006022
  13 H :    0.034178
  14 H :    0.034293
  15 H :    0.019960
  16 S :    0.103303
  17 C :   -0.112529
  18 C :   -0.005193
  19 C :   -0.043375
  20 C :   -0.171471
  21 H :    0.003816
  22 C :    0.131715
  23 H :    0.006510
  24 H :    0.010795
  25 C :   -0.060971
  26 H :    0.026838
  27 H :    0.022132
  28 C :   -0.065815
  29 H :    0.027798
  30 H :    0.025654
  31 H :    0.033519
  32 H :    0.052784
  33 H :    0.084610
Sum of atomic charges:   -0.0000000

LOEWDIN ATOMIC CHARGES
----------------------
   0 S :    0.396166
   1 C :   -0.192657
   2 C :   -0.063014
   3 C :   -0.072094
   4 C :   -0.192805
   5 H :    0.032267
   6 C :   -0.034312
   7 H :    0.026321
   8 H :    0.032148
   9 C :   -0.039451
  10 H :    0.020229
  11 H :    0.022280
  12 C :   -0.056018
  13 H :    0.027545
  14 H :    0.023675
  15 H :    0.023816
  16 S :    0.401214
  17 C :   -0.179659
  18 C :   -0.065952
  19 C :   -0.045054
  20 C :   -0.203028
  21 H :    0.027052
  22 C :   -0.034187
  23 H :    0.022080
  24 H :    0.038284
  25 C :   -0.036290
  26 H :    0.026654
  27 H :    0.025296
  28 C :   -0.071544
  29 H :    0.016829
  30 H :    0.023571
  31 H :    0.029043
  32 H :    0.027028
  33 H :    0.044567

  Mayer bond orders larger than 0.100000
B(  0-S ,  1-C ) :   1.1502 B(  0-S ,  4-C ) :   1.1545 B(  1-C ,  2-C ) :   1.5536
B(  1-C ,  4-C ) :   0.1142 B(  1-C , 32-H ) :   0.9810 B(  2-C ,  3-C ) :   1.2639
B(  2-C ,  6-C ) :   1.0228 B(  3-C ,  4-C ) :   1.5697 B(  3-C ,  5-H ) :   0.9950
B(  4-C , 20-C ) :   1.0356 B(  6-C ,  7-H ) :   0.9404 B(  6-C ,  8-H ) :   0.9299
B(  6-C ,  9-C ) :   1.0622 B(  9-C , 10-H ) :   0.9564 B(  9-C , 11-H ) :   0.9470
B(  9-C , 12-C ) :   1.0753 B( 12-C , 13-H ) :   0.9772 B( 12-C , 14-H ) :   0.9742
B( 12-C , 15-H ) :   0.9718 B( 16-S , 17-C ) :   1.1452 B( 16-S , 20-C ) :   1.1347
B( 17-C , 18-C ) :   1.6250 B( 17-C , 33-H ) :   0.9579 B( 18-C , 19-C ) :   1.2016
B( 18-C , 21-H ) :   1.0026 B( 19-C , 20-C ) :   1.6127 B( 19-C , 22-C ) :   1.0515
B( 22-C , 23-H ) :   0.9229 B( 22-C , 24-H ) :   0.9185 B( 22-C , 25-C ) :   1.0896
B( 25-C , 26-H ) :   0.9512 B( 25-C , 27-H ) :   0.9494 B( 25-C , 28-C ) :   1.0770
B( 28-C , 29-H ) :   0.9734 B( 28-C , 30-H ) :   0.9759 B( 28-C , 31-H ) :   0.9742

Dispersion correction           -0.014484589
FINAL SINGLE POINT ENERGY     -1339.881224139841

DIPOLE MOMENT
-------------
                                X             Y             Z
Electronic contribution:      8.58031     -15.18092     -19.49068
Nuclear contribution   :     -8.61338      15.44684      20.00031
                        -----------------------------------------
Total Dipole Moment    :     -0.03308       0.26592       0.50963
                        -----------------------------------------
Magnitude (a.u.)       :      0.57578
Magnitude (Debye)      :      1.46352

Rotational constants in cm-1:     0.020994     0.008093     0.006747
Rotational constants in MHz :   629.388516   242.608220   202.256423

                             ****ORCA TERMINATED NORMALLY****
TOTAL RUN TIME: 0 days 0 hours 0 minutes 21 seconds 943 msec
