                         Program Version 4.2.1 -  RELEASE  -
|  1> ! wB97X-D3 SP def2-SVP
|  2> %pal
|  3> nprocs 24
|  4> end
|  5>
|  6> * xyz 0 1
|  7> S 	 -88.0619 	 51.4449 	 -98.5469
|  8> C 	 -87.6379 	 50.2326 	 -97.4264
|  9> C 	 -88.7644 	 49.7561 	 -96.7361
| 10> C 	 -89.9581 	 50.3142 	 -97.3129
| 11> C 	 -89.7369 	 51.4318 	 -98.1622
| 12> H 	 -90.9706 	 50.029 	 -97.0585
| 13> C 	 -88.7784 	 48.7008 	 -95.6897
| 14> H 	 -87.7686 	 48.2565 	 -95.6769
| 15> H 	 -89.4834 	 47.8587 	 -95.9451
| 16> C 	 -89.2184 	 49.2304 	 -94.3052
| 17> H 	 -88.3541 	 49.7322 	 -93.9553
| 18> H 	 -89.9618 	 49.9197 	 -94.4864
| 19> C 	 -89.6158 	 48.2026 	 -93.2481
| 20> H 	 -90.394 	 47.6526 	 -93.6229
| 21> H 	 -88.7588 	 47.5561 	 -93.017
| 22> H 	 -89.9237 	 48.7863 	 -92.3342
| 23> S 	 -90.5531 	 52.6751 	 -100.518
| 24> C 	 -92.0978 	 53.4169 	 -100.469
| 25> C 	 -92.744 	 53.3042 	 -99.3021
| 26> C 	 -92.0258 	 52.6187 	 -98.3355
| 27> C 	 -90.7674 	 52.2079 	 -98.8158
| 28> H 	 -93.7304 	 53.6423 	 -99.0772
| 29> C 	 -92.5428 	 52.3007 	 -96.8977
| 30> H 	 -91.6568 	 52.052 	 -96.2037
| 31> H 	 -93.1093 	 51.356 	 -96.9398
| 32> C 	 -93.2951 	 53.3885 	 -96.1558
| 33> H 	 -94.024 	 53.9378 	 -96.798
| 34> H 	 -92.6013 	 54.1474 	 -95.718
| 35> C 	 -93.8563 	 52.8384 	 -94.861
| 36> H 	 -94.6322 	 52.0436 	 -95.104
| 37> H 	 -94.422 	 53.6313 	 -94.3525
| 38> H 	 -93.0792 	 52.2539 	 -94.2393
| 39> H 	 -86.7025 	 49.8664 	 -97.1977
| 40> H 	 -92.6699 	 53.881 	 -101.324
| 41> *
| 42>
| 43>                          ****END OF INPUT****

CARTESIAN COORDINATES (ANGSTROEM)
---------------------------------
  S    -88.061900   51.444900  -98.546900
  C    -87.637900   50.232600  -97.426400
  C    -88.764400   49.756100  -96.736100
  C    -89.958100   50.314200  -97.312900
  C    -89.736900   51.431800  -98.162200
  H    -90.970600   50.029000  -97.058500
  C    -88.778400   48.700800  -95.689700
  H    -87.768600   48.256500  -95.676900
  H    -89.483400   47.858700  -95.945100
  C    -89.218400   49.230400  -94.305200
  H    -88.354100   49.732200  -93.955300
  H    -89.961800   49.919700  -94.486400
  C    -89.615800   48.202600  -93.248100
  H    -90.394000   47.652600  -93.622900
  H    -88.758800   47.556100  -93.017000
  H    -89.923700   48.786300  -92.334200
  S    -90.553100   52.675100  -100.518000
  C    -92.097800   53.416900  -100.469000
  C    -92.744000   53.304200  -99.302100
  C    -92.025800   52.618700  -98.335500
  C    -90.767400   52.207900  -98.815800
  H    -93.730400   53.642300  -99.077200
  C    -92.542800   52.300700  -96.897700
  H    -91.656800   52.052000  -96.203700
  H    -93.109300   51.356000  -96.939800
  C    -93.295100   53.388500  -96.155800
  H    -94.024000   53.937800  -96.798000
  H    -92.601300   54.147400  -95.718000
  C    -93.856300   52.838400  -94.861000
  H    -94.632200   52.043600  -95.104000
  H    -94.422000   53.631300  -94.352500
  H    -93.079200   52.253900  -94.239300
  H    -86.702500   49.866400  -97.197700
  H    -92.669900   53.881000  -101.324000

 Total Charge           Charge          ....    0
 Multiplicity           Mult            ....    1
 Number of Electrons    NEL             ....  134
 Basis Dimension        Dim             ....  322

ORBITAL ENERGIES
----------------

  NO   OCC          E(Eh)            E(eV)
   0   2.0000     -88.970079     -2420.9989
   1   2.0000     -88.968010     -2420.9426
   2   2.0000     -10.328964      -281.0654
   3   2.0000     -10.328692      -281.0580
   4   2.0000     -10.315365      -280.6954
   5   2.0000     -10.308061      -280.4966
   6   2.0000     -10.303354      -280.3685
   7   2.0000     -10.302157      -280.3359
   8   2.0000     -10.300602      -280.2936
   9   2.0000     -10.294070      -280.1159
  10   2.0000     -10.294066      -280.1158
  11   2.0000     -10.292175      -280.0643
  12   2.0000     -10.291243      -280.0390
  13   2.0000     -10.284349      -279.8514
  14   2.0000     -10.277458      -279.6638
  15   2.0000     -10.274703      -279.5889
  16   2.0000      -8.084979      -220.0035
  17   2.0000      -8.083617      -219.9664
  18   2.0000      -6.043406      -164.4494
  19   2.0000      -6.042089      -164.4136
  20   2.0000      -6.039621      -164.3464
  21   2.0000      -6.037852      -164.2983
  22   2.0000      -6.035660      -164.2386
  23   2.0000      -6.034524      -164.2078
  24   2.0000      -1.011570       -27.5262
  25   2.0000      -0.991335       -26.9756
  26   2.0000      -0.916043       -24.9268
  27   2.0000      -0.912014       -24.8172
  28   2.0000      -0.873876       -23.7794
  29   2.0000      -0.857892       -23.3444
  30   2.0000      -0.849590       -23.1185
  31   2.0000      -0.812116       -22.0988
  32   2.0000      -0.782823       -21.3017
  33   2.0000      -0.769785       -20.9469
  34   2.0000      -0.708686       -19.2843
  35   2.0000      -0.699511       -19.0346
  36   2.0000      -0.693301       -18.8657
  37   2.0000      -0.658137       -17.9088
  38   2.0000      -0.641385       -17.4530
  39   2.0000      -0.621247       -16.9050
  40   2.0000      -0.600576       -16.3425
  41   2.0000      -0.572331       -15.5739
  42   2.0000      -0.569592       -15.4994
  43   2.0000      -0.563314       -15.3285
  44   2.0000      -0.529439       -14.4068
  45   2.0000      -0.525139       -14.2898
  46   2.0000      -0.519891       -14.1470
  47   2.0000      -0.512173       -13.9369
  48   2.0000      -0.505340       -13.7510
  49   2.0000      -0.502035       -13.6611
  50   2.0000      -0.494930       -13.4677
  51   2.0000      -0.478879       -13.0310
  52   2.0000      -0.470676       -12.8077
  53   2.0000      -0.465718       -12.6728
  54   2.0000      -0.462613       -12.5883
  55   2.0000      -0.461650       -12.5621
  56   2.0000      -0.445104       -12.1119
  57   2.0000      -0.434229       -11.8160
  58   2.0000      -0.432665       -11.7734
  59   2.0000      -0.427650       -11.6370
  60   2.0000      -0.425192       -11.5701
  61   2.0000      -0.416108       -11.3229
  62   2.0000      -0.406052       -11.0492
  63   2.0000      -0.355714        -9.6795
  64   2.0000      -0.338830        -9.2200
  65   2.0000      -0.325533        -8.8582
  66   2.0000      -0.281903        -7.6710
  67   0.0000       0.023605         0.6423
  68   0.0000       0.081654         2.2219
  69   0.0000       0.109274         2.9735
  70   0.0000       0.117216         3.1896
  71   0.0000       0.124217         3.3801

MULLIKEN ATOMIC CHARGES
-----------------------
   0 S :    0.122296
   1 C :   -0.068435
   2 C :   -0.105980
   3 C :    0.003249
   4 C :   -0.147768
   5 H :    0.008753
   6 C :    0.042614
   7 H :    0.015633
   8 H :    0.032805
   9 C :   -0.054303
  10 H :    0.016031
  11 H :    0.009128
  12 C :   -0.015874
  13 H :    0.014399
  14 H :    0.035431
  15 H :    0.045787
  16 S :    0.121520
  17 C :   -0.083143
  18 C :   -0.029504
  19 C :   -0.008249
  20 C :   -0.156534
  21 H :   -0.000818
  22 C :   -0.012263
  23 H :    0.050554
  24 H :    0.047528
  25 C :   -0.077265
  26 H :    0.037142
  27 H :    0.044122
  28 C :   -0.085945
  29 H :    0.025006
  30 H :    0.045618
  31 H :    0.048537
  32 H :    0.010641
  33 H :    0.069287
Sum of atomic charges:    0.0000000

LOEWDIN ATOMIC CHARGES
----------------------
   0 S :    0.441345
   1 C :   -0.203812
   2 C :   -0.062493
   3 C :   -0.061518
   4 C :   -0.209949
   5 H :    0.024313
   6 C :   -0.036402
   7 H :    0.028041
   8 H :    0.033674
   9 C :   -0.033272
  10 H :    0.020826
  11 H :    0.010424
  12 C :   -0.054537
  13 H :    0.009418
  14 H :    0.028750
  15 H :    0.037729
  16 S :    0.411161
  17 C :   -0.199838
  18 C :   -0.077364
  19 C :   -0.050679
  20 C :   -0.190098
  21 H :    0.028230
  22 C :   -0.042196
  23 H :    0.042745
  24 H :    0.030517
  25 C :   -0.054038
  26 H :    0.023776
  27 H :    0.034697
  28 C :   -0.075331
  29 H :    0.022686
  30 H :    0.029241
  31 H :    0.036177
  32 H :    0.013338
  33 H :    0.044439

  Mayer bond orders larger than 0.100000
B(  0-S ,  1-C ) :   1.1579 B(  0-S ,  4-C ) :   1.1659 B(  1-C ,  2-C ) :   1.5661
B(  1-C , 32-H ) :   0.9755 B(  2-C ,  3-C ) :   1.2701 B(  2-C ,  6-C ) :   1.0452
B(  3-C ,  4-C ) :   1.5052 B(  3-C ,  5-H ) :   0.9875 B(  4-C , 20-C ) :   1.0960
B(  6-C ,  7-H ) :   0.9371 B(  6-C ,  8-H ) :   0.9426 B(  6-C ,  9-C ) :   1.0469
B(  9-C , 10-H ) :   0.9513 B(  9-C , 11-H ) :   0.9620 B(  9-C , 12-C ) :   1.0871
B( 12-C , 13-H ) :   0.9756 B( 12-C , 14-H ) :   0.9743 B( 12-C , 15-H ) :   0.9726
B( 16-S , 17-C ) :   1.1546 B( 16-S , 20-C ) :   1.1357 B( 17-C , 18-C ) :   1.6022
B( 17-C , 33-H ) :   0.9514 B( 18-C , 19-C ) :   1.2894 B( 18-C , 21-H ) :   0.9902
B( 19-C , 20-C ) :   1.5759 B( 19-C , 22-C ) :   1.0149 B( 22-C , 23-H ) :   0.9327
B( 22-C , 24-H ) :   0.9404 B( 22-C , 25-C ) :   1.0593 B( 25-C , 26-H ) :   0.9530
B( 25-C , 27-H ) :   0.9534 B( 25-C , 28-C ) :   1.0774 B( 28-C , 29-H ) :   0.9735
B( 28-C , 30-H ) :   0.9717 B( 28-C , 31-H ) :   0.9694

Dispersion correction           -0.013575994
FINAL SINGLE POINT ENERGY     -1339.868339472257

DIPOLE MOMENT
-------------
                                X             Y             Z
Electronic contribution:     13.01194       8.82499     -30.29479
Nuclear contribution   :    -13.47419      -9.02868      30.80737
                        -----------------------------------------
Total Dipole Moment    :     -0.46226      -0.20369       0.51258
                        -----------------------------------------
Magnitude (a.u.)       :      0.71966
Magnitude (Debye)      :      1.82922

Rotational constants in cm-1:     0.016091     0.009639     0.006312
Rotational constants in MHz :   482.389928   288.977579   189.232603

                             ****ORCA TERMINATED NORMALLY****
TOTAL RUN TIME: 0 days 0 hours 0 minutes 21 seconds 516 msec
