                         Program Version 4.2.1 -  RELEASE  -
|  1> ! wB97X-D3 SP def2-SVP
|  2> %pal
|  3> nprocs 24
|  4> end
|  5>
|  6> * xyz 0 1
|  7> S 	 -141.645 	 9.85818 	 3.28136
|  8> C 	 -140.686 	 9.37572 	 1.97961
|  9> C 	 -139.762 	 8.4263 	 2.34036
| 10> C 	 -139.892 	 8.02416 	 3.73396
| 11> C 	 -140.941 	 8.61324 	 4.32131
| 12> H 	 -139.476 	 7.13577 	 4.28087
| 13> C 	 -138.888 	 7.71168 	 1.26306
| 14> H 	 -137.848 	 7.9284 	 1.32718
| 15> H 	 -139.066 	 8.1275 	 0.264726
| 16> C 	 -138.936 	 6.20496 	 1.20938
| 17> H 	 -138.821 	 5.7189 	 2.16703
| 18> H 	 -139.999 	 5.91068 	 0.957491
| 19> C 	 -138.139 	 5.61207 	 0.0906444
| 20> H 	 -138.495 	 5.86484 	 -0.851483
| 21> H 	 -137.128 	 5.93005 	 -0.0265826
| 22> H 	 -138.044 	 4.51335 	 0.164518
| 23> S 	 -142.129 	 9.93135 	 6.51616
| 24> C 	 -142.509 	 8.92119 	 7.93074
| 25> C 	 -142.301 	 7.58075 	 7.69294
| 26> C 	 -141.597 	 7.30177 	 6.48828
| 27> C 	 -141.463 	 8.47031 	 5.70912
| 28> H 	 -142.721 	 6.91796 	 8.48455
| 29> C 	 -140.966 	 5.87583 	 6.07266
| 30> H 	 -139.86 	 5.76756 	 6.0401
| 31> H 	 -141.185 	 5.68291 	 5.0078
| 32> C 	 -141.376 	 4.67143 	 6.93857
| 33> H 	 -142.529 	 4.58329 	 7.0882
| 34> H 	 -141.175 	 4.92874 	 7.95187
| 35> C 	 -140.962 	 3.19593 	 6.55594
| 36> H 	 -139.935 	 2.96858 	 6.73939
| 37> H 	 -141.125 	 3.06195 	 5.49595
| 38> H 	 -141.601 	 2.55196 	 7.21212
| 39> H 	 -140.793 	 9.8174 	 1.02515
| 40> H 	 -143.034 	 9.28823 	 8.80782
| 41> *
| 42>
| 43>                          ****END OF INPUT****

CARTESIAN COORDINATES (ANGSTROEM)
---------------------------------
  S    -141.645000    9.858180    3.281360
  C    -140.686000    9.375720    1.979610
  C    -139.762000    8.426300    2.340360
  C    -139.892000    8.024160    3.733960
  C    -140.941000    8.613240    4.321310
  H    -139.476000    7.135770    4.280870
  C    -138.888000    7.711680    1.263060
  H    -137.848000    7.928400    1.327180
  H    -139.066000    8.127500    0.264726
  C    -138.936000    6.204960    1.209380
  H    -138.821000    5.718900    2.167030
  H    -139.999000    5.910680    0.957491
  C    -138.139000    5.612070    0.090644
  H    -138.495000    5.864840   -0.851483
  H    -137.128000    5.930050   -0.026583
  H    -138.044000    4.513350    0.164518
  S    -142.129000    9.931350    6.516160
  C    -142.509000    8.921190    7.930740
  C    -142.301000    7.580750    7.692940
  C    -141.597000    7.301770    6.488280
  C    -141.463000    8.470310    5.709120
  H    -142.721000    6.917960    8.484550
  C    -140.966000    5.875830    6.072660
  H    -139.860000    5.767560    6.040100
  H    -141.185000    5.682910    5.007800
  C    -141.376000    4.671430    6.938570
  H    -142.529000    4.583290    7.088200
  H    -141.175000    4.928740    7.951870
  C    -140.962000    3.195930    6.555940
  H    -139.935000    2.968580    6.739390
  H    -141.125000    3.061950    5.495950
  H    -141.601000    2.551960    7.212120
  H    -140.793000    9.817400    1.025150
  H    -143.034000    9.288230    8.807820

 Total Charge           Charge          ....    0
 Multiplicity           Mult            ....    1
 Number of Electrons    NEL             ....  134
 Basis Dimension        Dim             ....  322

ORBITAL ENERGIES
----------------

  NO   OCC          E(Eh)            E(eV)
   0   2.0000     -88.971043     -2421.0252
   1   2.0000     -88.962112     -2420.7821
   2   2.0000     -10.337929      -281.3093
   3   2.0000     -10.329147      -281.0704
   4   2.0000     -10.320094      -280.8240
   5   2.0000     -10.319871      -280.8180
   6   2.0000     -10.310149      -280.5534
   7   2.0000     -10.307914      -280.4926
   8   2.0000     -10.306964      -280.4667
   9   2.0000     -10.301849      -280.3276
  10   2.0000     -10.297758      -280.2163
  11   2.0000     -10.295408      -280.1523
  12   2.0000     -10.290404      -280.0161
  13   2.0000     -10.287908      -279.9482
  14   2.0000     -10.285522      -279.8833
  15   2.0000     -10.270823      -279.4833
  16   2.0000      -8.084435      -219.9887
  17   2.0000      -8.078320      -219.8223
  18   2.0000      -6.043052      -164.4398
  19   2.0000      -6.039279      -164.3371
  20   2.0000      -6.036767      -164.2688
  21   2.0000      -6.035013      -164.2210
  22   2.0000      -6.032700      -164.1581
  23   2.0000      -6.028979      -164.0568
  24   2.0000      -1.008681       -27.4476
  25   2.0000      -0.982248       -26.7283
  26   2.0000      -0.913886       -24.8681
  27   2.0000      -0.899044       -24.4642
  28   2.0000      -0.872272       -23.7357
  29   2.0000      -0.853525       -23.2256
  30   2.0000      -0.843230       -22.9454
  31   2.0000      -0.819122       -22.2894
  32   2.0000      -0.787717       -21.4349
  33   2.0000      -0.775344       -21.0982
  34   2.0000      -0.709761       -19.3136
  35   2.0000      -0.702150       -19.1065
  36   2.0000      -0.692935       -18.8557
  37   2.0000      -0.657650       -17.8956
  38   2.0000      -0.642934       -17.4951
  39   2.0000      -0.619332       -16.8529
  40   2.0000      -0.598696       -16.2913
  41   2.0000      -0.567383       -15.4393
  42   2.0000      -0.560130       -15.2419
  43   2.0000      -0.554279       -15.0827
  44   2.0000      -0.531783       -14.4706
  45   2.0000      -0.523424       -14.2431
  46   2.0000      -0.515994       -14.0409
  47   2.0000      -0.507300       -13.8043
  48   2.0000      -0.505787       -13.7632
  49   2.0000      -0.497628       -13.5412
  50   2.0000      -0.486398       -13.2356
  51   2.0000      -0.485446       -13.2097
  52   2.0000      -0.483369       -13.1531
  53   2.0000      -0.468637       -12.7523
  54   2.0000      -0.460331       -12.5263
  55   2.0000      -0.452314       -12.3081
  56   2.0000      -0.450856       -12.2684
  57   2.0000      -0.442604       -12.0439
  58   2.0000      -0.433375       -11.7927
  59   2.0000      -0.426358       -11.6018
  60   2.0000      -0.418584       -11.3902
  61   2.0000      -0.406253       -11.0547
  62   2.0000      -0.403972       -10.9926
  63   2.0000      -0.359966        -9.7952
  64   2.0000      -0.337663        -9.1883
  65   2.0000      -0.328847        -8.9484
  66   2.0000      -0.288268        -7.8442
  67   0.0000       0.025331         0.6893
  68   0.0000       0.072059         1.9608
  69   0.0000       0.103741         2.8229
  70   0.0000       0.119937         3.2637
  71   0.0000       0.132835         3.6146

MULLIKEN ATOMIC CHARGES
-----------------------
   0 S :    0.097410
   1 C :   -0.102241
   2 C :   -0.056522
   3 C :    0.003783
   4 C :   -0.146510
   5 H :    0.028857
   6 C :    0.082086
   7 H :    0.013364
   8 H :    0.004859
   9 C :   -0.077961
  10 H :    0.024738
  11 H :    0.026392
  12 C :   -0.017125
  13 H :    0.009017
  14 H :    0.006434
  15 H :    0.035488
  16 S :    0.101228
  17 C :   -0.097595
  18 C :   -0.068611
  19 C :    0.003693
  20 C :   -0.134010
  21 H :    0.041228
  22 C :    0.029323
  23 H :    0.055627
  24 H :    0.036140
  25 C :   -0.139818
  26 H :    0.029079
  27 H :    0.021631
  28 C :   -0.021323
  29 H :    0.031501
  30 H :    0.036379
  31 H :    0.046917
  32 H :    0.037928
  33 H :    0.058617
Sum of atomic charges:   -0.0000000

LOEWDIN ATOMIC CHARGES
----------------------
   0 S :    0.408625
   1 C :   -0.201276
   2 C :   -0.057939
   3 C :   -0.074378
   4 C :   -0.177057
   5 H :    0.043636
   6 C :   -0.032510
   7 H :    0.024064
   8 H :    0.029309
   9 C :   -0.046906
  10 H :    0.019640
  11 H :    0.030467
  12 C :   -0.063384
  13 H :    0.017612
  14 H :    0.018758
  15 H :    0.033937
  16 S :    0.375225
  17 C :   -0.179213
  18 C :   -0.077255
  19 C :   -0.050699
  20 C :   -0.174211
  21 H :    0.043507
  22 C :   -0.039681
  23 H :    0.034388
  24 H :    0.030668
  25 C :   -0.057578
  26 H :    0.028746
  27 H :    0.015361
  28 C :   -0.057197
  29 H :    0.018414
  30 H :    0.025943
  31 H :    0.038457
  32 H :    0.022473
  33 H :    0.030054

  Mayer bond orders larger than 0.100000
B(  0-S ,  1-C ) :   1.1466 B(  0-S ,  4-C ) :   1.1348 B(  1-C ,  2-C ) :   1.6326
B(  1-C , 32-H ) :   0.9752 B(  2-C ,  3-C ) :   1.1953 B(  2-C ,  6-C ) :   1.0165
B(  3-C ,  4-C ) :   1.6344 B(  3-C ,  5-H ) :   0.9752 B(  4-C , 20-C ) :   1.0411
B(  6-C ,  7-H ) :   0.9341 B(  6-C ,  8-H ) :   0.9457 B(  6-C ,  9-C ) :   1.0601
B(  9-C , 10-H ) :   0.9558 B(  9-C , 11-H ) :   0.9514 B(  9-C , 12-C ) :   1.0843
B( 12-C , 13-H ) :   0.9713 B( 12-C , 14-H ) :   0.9705 B( 12-C , 15-H ) :   0.9713
B( 16-S , 17-C ) :   1.1299 B( 16-S , 20-C ) :   1.1407 B( 17-C , 18-C ) :   1.6497
B( 17-C , 20-C ) :   0.1032 B( 17-C , 33-H ) :   0.9614 B( 18-C , 19-C ) :   1.2296
B( 18-C , 21-H ) :   0.9776 B( 19-C , 20-C ) :   1.6104 B( 19-C , 22-C ) :   1.0103
B( 22-C , 23-H ) :   0.9405 B( 22-C , 24-H ) :   0.9335 B( 22-C , 25-C ) :   1.0623
B( 25-C , 26-H ) :   0.9587 B( 25-C , 27-H ) :   0.9486 B( 25-C , 28-C ) :   1.0672
B( 28-C , 29-H ) :   0.9775 B( 28-C , 30-H ) :   0.9769 B( 28-C , 31-H ) :   0.9752

Dispersion correction           -0.013267620
FINAL SINGLE POINT ENERGY     -1339.854283886806

DIPOLE MOMENT
-------------
                                X             Y             Z
Electronic contribution:    -12.41068      30.35988       8.84215
Nuclear contribution   :     12.56795     -31.04525      -8.91274
                        -----------------------------------------
Total Dipole Moment    :      0.15728      -0.68537      -0.07059
                        -----------------------------------------
Magnitude (a.u.)       :      0.70672
Magnitude (Debye)      :      1.79633

Rotational constants in cm-1:     0.015496     0.009186     0.005933
Rotational constants in MHz :   464.559515   275.380311   177.856494

                             ****ORCA TERMINATED NORMALLY****
TOTAL RUN TIME: 0 days 0 hours 0 minutes 19 seconds 612 msec
