                         Program Version 4.2.1 -  RELEASE  -
|  1> ! wB97X-D3 SP def2-SVP
|  2> %pal
|  3> nprocs 24
|  4> end
|  5>
|  6> * xyz 0 1
|  7> S 	 -138.36 	 7.15752 	 1.34822
|  8> C 	 -139.401 	 7.63221 	 0.107074
|  9> C 	 -138.681 	 8.25844 	 -0.92924
| 10> C 	 -137.302 	 8.36909 	 -0.715786
| 11> C 	 -136.949 	 7.78244 	 0.456154
| 12> H 	 -136.472 	 8.79371 	 -1.26075
| 13> C 	 -139.302 	 8.91304 	 -2.12265
| 14> H 	 -140.016 	 8.26301 	 -2.59768
| 15> H 	 -138.556 	 9.04449 	 -2.86864
| 16> C 	 -139.764 	 10.3119 	 -1.80542
| 17> H 	 -140.548 	 10.2593 	 -1.03762
| 18> H 	 -139.029 	 11.0056 	 -1.42358
| 19> C 	 -140.28 	 11.0377 	 -3.09978
| 20> H 	 -141.228 	 10.6045 	 -3.39433
| 21> H 	 -140.367 	 12.112 	 -2.92663
| 22> H 	 -139.538 	 10.929 	 -3.90566
| 23> S 	 -135.102 	 9.12059 	 1.96497
| 24> C 	 -133.428 	 8.53575 	 2.03049
| 25> C 	 -133.325 	 7.18758 	 1.71334
| 26> C 	 -134.489 	 6.87404 	 0.959619
| 27> C 	 -135.595 	 7.72456 	 1.08785
| 28> H 	 -132.434 	 6.55534 	 1.86835
| 29> C 	 -134.494 	 5.48284 	 0.290511
| 30> H 	 -133.56 	 5.39695 	 -0.174279
| 31> H 	 -135.114 	 5.45502 	 -0.614773
| 32> C 	 -134.818 	 4.26931 	 1.14161
| 33> H 	 -134.26 	 4.24785 	 1.99661
| 34> H 	 -134.505 	 3.35927 	 0.603918
| 35> C 	 -136.351 	 4.16982 	 1.32109
| 36> H 	 -136.798 	 4.54467 	 0.422044
| 37> H 	 -136.696 	 4.69312 	 2.20998
| 38> H 	 -136.57 	 3.09877 	 1.35545
| 39> H 	 -140.417 	 7.53912 	 0.0435846
| 40> H 	 -132.604 	 9.08282 	 2.49579
| 41> *
| 42>
| 43>                          ****END OF INPUT****

CARTESIAN COORDINATES (ANGSTROEM)
---------------------------------
  S    -138.360000    7.157520    1.348220
  C    -139.401000    7.632210    0.107074
  C    -138.681000    8.258440   -0.929240
  C    -137.302000    8.369090   -0.715786
  C    -136.949000    7.782440    0.456154
  H    -136.472000    8.793710   -1.260750
  C    -139.302000    8.913040   -2.122650
  H    -140.016000    8.263010   -2.597680
  H    -138.556000    9.044490   -2.868640
  C    -139.764000   10.311900   -1.805420
  H    -140.548000   10.259300   -1.037620
  H    -139.029000   11.005600   -1.423580
  C    -140.280000   11.037700   -3.099780
  H    -141.228000   10.604500   -3.394330
  H    -140.367000   12.112000   -2.926630
  H    -139.538000   10.929000   -3.905660
  S    -135.102000    9.120590    1.964970
  C    -133.428000    8.535750    2.030490
  C    -133.325000    7.187580    1.713340
  C    -134.489000    6.874040    0.959619
  C    -135.595000    7.724560    1.087850
  H    -132.434000    6.555340    1.868350
  C    -134.494000    5.482840    0.290511
  H    -133.560000    5.396950   -0.174279
  H    -135.114000    5.455020   -0.614773
  C    -134.818000    4.269310    1.141610
  H    -134.260000    4.247850    1.996610
  H    -134.505000    3.359270    0.603918
  C    -136.351000    4.169820    1.321090
  H    -136.798000    4.544670    0.422044
  H    -136.696000    4.693120    2.209980
  H    -136.570000    3.098770    1.355450
  H    -140.417000    7.539120    0.043585
  H    -132.604000    9.082820    2.495790

 Total Charge           Charge          ....    0
 Multiplicity           Mult            ....    1
 Number of Electrons    NEL             ....  134
 Basis Dimension        Dim             ....  322

ORBITAL ENERGIES
----------------

  NO   OCC          E(Eh)            E(eV)
   0   2.0000     -88.966469     -2420.9007
   1   2.0000     -88.964707     -2420.8527
   2   2.0000     -10.327495      -281.0254
   3   2.0000     -10.324082      -280.9325
   4   2.0000     -10.321342      -280.8580
   5   2.0000     -10.305687      -280.4320
   6   2.0000     -10.303839      -280.3817
   7   2.0000     -10.298730      -280.2427
   8   2.0000     -10.296011      -280.1687
   9   2.0000     -10.289801      -279.9997
  10   2.0000     -10.283604      -279.8311
  11   2.0000     -10.281103      -279.7630
  12   2.0000     -10.278016      -279.6790
  13   2.0000     -10.277799      -279.6731
  14   2.0000     -10.273746      -279.5628
  15   2.0000     -10.265734      -279.3448
  16   2.0000      -8.081274      -219.9027
  17   2.0000      -8.079605      -219.8572
  18   2.0000      -6.039588      -164.3455
  19   2.0000      -6.038133      -164.3059
  20   2.0000      -6.035702      -164.2398
  21   2.0000      -6.034079      -164.1956
  22   2.0000      -6.032296      -164.1471
  23   2.0000      -6.030339      -164.0939
  24   2.0000      -1.007972       -27.4283
  25   2.0000      -0.988406       -26.8959
  26   2.0000      -0.913458       -24.8565
  27   2.0000      -0.905733       -24.6463
  28   2.0000      -0.870424       -23.6854
  29   2.0000      -0.852605       -23.2006
  30   2.0000      -0.841723       -22.9045
  31   2.0000      -0.815339       -22.1865
  32   2.0000      -0.777962       -21.1694
  33   2.0000      -0.764024       -20.7901
  34   2.0000      -0.703599       -19.1459
  35   2.0000      -0.700231       -19.0542
  36   2.0000      -0.691946       -18.8288
  37   2.0000      -0.661199       -17.9921
  38   2.0000      -0.653453       -17.7814
  39   2.0000      -0.617008       -16.7897
  40   2.0000      -0.596972       -16.2444
  41   2.0000      -0.573649       -15.6098
  42   2.0000      -0.561905       -15.2902
  43   2.0000      -0.549597       -14.9553
  44   2.0000      -0.538468       -14.6525
  45   2.0000      -0.527895       -14.3648
  46   2.0000      -0.518185       -14.1005
  47   2.0000      -0.507633       -13.8134
  48   2.0000      -0.504375       -13.7247
  49   2.0000      -0.498158       -13.5556
  50   2.0000      -0.487207       -13.2576
  51   2.0000      -0.479091       -13.0367
  52   2.0000      -0.468769       -12.7559
  53   2.0000      -0.459774       -12.5111
  54   2.0000      -0.456658       -12.4263
  55   2.0000      -0.449348       -12.2274
  56   2.0000      -0.443927       -12.0799
  57   2.0000      -0.440177       -11.9778
  58   2.0000      -0.433911       -11.8073
  59   2.0000      -0.419149       -11.4056
  60   2.0000      -0.415290       -11.3006
  61   2.0000      -0.411464       -11.1965
  62   2.0000      -0.405679       -11.0391
  63   2.0000      -0.345072        -9.3899
  64   2.0000      -0.331200        -9.0124
  65   2.0000      -0.310553        -8.4506
  66   2.0000      -0.306861        -8.3501
  67   0.0000       0.045752         1.2450
  68   0.0000       0.052556         1.4301
  69   0.0000       0.107472         2.9245
  70   0.0000       0.125473         3.4143
  71   0.0000       0.128455         3.4954

MULLIKEN ATOMIC CHARGES
-----------------------
   0 S :    0.126962
   1 C :   -0.057839
   2 C :   -0.108995
   3 C :    0.064950
   4 C :   -0.186546
   5 H :    0.016788
   6 C :    0.105542
   7 H :    0.021950
   8 H :   -0.004852
   9 C :   -0.081161
  10 H :    0.022791
  11 H :    0.028920
  12 C :   -0.045679
  13 H :    0.031071
  14 H :    0.035497
  15 H :    0.027007
  16 S :    0.113818
  17 C :   -0.105785
  18 C :   -0.027573
  19 C :   -0.060807
  20 C :   -0.152737
  21 H :    0.045002
  22 C :    0.057351
  23 H :   -0.005706
  24 H :    0.015357
  25 C :   -0.025083
  26 H :   -0.001864
  27 H :    0.020314
  28 C :   -0.027343
  29 H :    0.022366
  30 H :    0.045317
  31 H :    0.024466
  32 H :    0.006160
  33 H :    0.060340
Sum of atomic charges:    0.0000000

LOEWDIN ATOMIC CHARGES
----------------------
   0 S :    0.436554
   1 C :   -0.205153
   2 C :   -0.060566
   3 C :   -0.054910
   4 C :   -0.187437
   5 H :    0.041440
   6 C :   -0.033612
   7 H :    0.028855
   8 H :    0.023702
   9 C :   -0.035549
  10 H :    0.020545
  11 H :    0.025208
  12 C :   -0.063780
  13 H :    0.021344
  14 H :    0.025556
  15 H :    0.023593
  16 S :    0.413574
  17 C :   -0.173904
  18 C :   -0.068449
  19 C :   -0.051909
  20 C :   -0.227384
  21 H :    0.042161
  22 C :   -0.035827
  23 H :    0.017608
  24 H :    0.028501
  25 C :   -0.030733
  26 H :    0.007454
  27 H :    0.027280
  28 C :   -0.059245
  29 H :    0.018854
  30 H :    0.021566
  31 H :    0.025904
  32 H :    0.011295
  33 H :    0.027464

  Mayer bond orders larger than 0.100000
B(  0-S ,  1-C ) :   1.1599 B(  0-S ,  4-C ) :   1.1666 B(  1-C ,  2-C ) :   1.5777
B(  1-C ,  4-C ) :   0.1013 B(  1-C , 32-H ) :   0.9810 B(  2-C ,  3-C ) :   1.2371
B(  2-C ,  6-C ) :   1.0396 B(  3-C ,  4-C ) :   1.5979 B(  3-C ,  5-H ) :   0.9987
B(  4-C , 20-C ) :   0.9737 B(  6-C ,  7-H ) :   0.9363 B(  6-C ,  8-H ) :   0.9305
B(  6-C ,  9-C ) :   1.0618 B(  9-C , 10-H ) :   0.9575 B(  9-C , 11-H ) :   0.9581
B(  9-C , 12-C ) :   1.0747 B( 12-C , 13-H ) :   0.9774 B( 12-C , 14-H ) :   0.9778
B( 12-C , 15-H ) :   0.9751 B( 16-S , 17-C ) :   1.1746 B( 16-S , 20-C ) :   1.1406
B( 17-C , 18-C ) :   1.5896 B( 17-C , 20-C ) :   0.1009 B( 17-C , 33-H ) :   0.9646
B( 18-C , 19-C ) :   1.2437 B( 18-C , 21-H ) :   0.9834 B( 19-C , 20-C ) :   1.6033
B( 19-C , 22-C ) :   1.0411 B( 22-C , 23-H ) :   0.9251 B( 22-C , 24-H ) :   0.9375
B( 22-C , 25-C ) :   1.0853 B( 25-C , 26-H ) :   0.9537 B( 25-C , 27-H ) :   0.9525
B( 25-C , 28-C ) :   1.0680 B( 28-C , 29-H ) :   0.9759 B( 28-C , 30-H ) :   0.9773
B( 28-C , 31-H ) :   0.9755

Dispersion correction           -0.015019783
FINAL SINGLE POINT ENERGY     -1339.856706846636

DIPOLE MOMENT
-------------
                                X             Y             Z
Electronic contribution:      6.81931       3.96438      15.22869
Nuclear contribution   :     -6.61965      -4.05437     -15.60062
                        -----------------------------------------
Total Dipole Moment    :      0.19965      -0.09000      -0.37193
                        -----------------------------------------
Magnitude (a.u.)       :      0.43162
Magnitude (Debye)      :      1.09709

Rotational constants in cm-1:     0.022323     0.007970     0.006813
Rotational constants in MHz :   669.224260   238.926566   204.251534

                             ****ORCA TERMINATED NORMALLY****
TOTAL RUN TIME: 0 days 0 hours 0 minutes 21 seconds 909 msec
