                         Program Version 4.2.1 -  RELEASE  -
|  1> ! wB97X-D3 SP def2-SVP
|  2> %pal
|  3> nprocs 24
|  4> end
|  5>
|  6> * xyz 0 1
|  7> S 	 -61.6398 	 12.5917 	 -99.0287
|  8> C 	 -62.9266 	 12.7922 	 -100.151
|  9> C 	 -62.5315 	 12.3138 	 -101.405
| 10> C 	 -61.1941 	 11.8869 	 -101.508
| 11> C 	 -60.4965 	 12.1674 	 -100.277
| 12> H 	 -60.67 	 11.4075 	 -102.341
| 13> C 	 -63.5511 	 12.1875 	 -102.541
| 14> H 	 -63.2882 	 12.6081 	 -103.546
| 15> H 	 -64.3922 	 12.7959 	 -102.189
| 16> C 	 -64.2287 	 10.819 	 -102.77
| 17> H 	 -63.3934 	 10.0813 	 -103.053
| 18> H 	 -64.6696 	 10.4701 	 -101.762
| 19> C 	 -65.1782 	 10.8945 	 -103.92
| 20> H 	 -64.836 	 11.6636 	 -104.588
| 21> H 	 -65.1839 	 10.0355 	 -104.55
| 22> H 	 -66.1627 	 11.1525 	 -103.529
| 23> S 	 -58.2612 	 13.6638 	 -99.6377
| 24> C 	 -56.6975 	 12.9642 	 -99.9531
| 25> C 	 -56.754 	 11.5842 	 -100.122
| 26> C 	 -58.1454 	 11.125 	 -100.163
| 27> C 	 -59.0796 	 12.1133 	 -99.9987
| 28> H 	 -55.7841 	 11.0636 	 -100.267
| 29> C 	 -58.5392 	 9.60319 	 -100.336
| 30> H 	 -59.5813 	 9.52824 	 -100.496
| 31> H 	 -58.319 	 8.96226 	 -99.4357
| 32> C 	 -57.9053 	 8.97744 	 -101.562
| 33> H 	 -56.8108 	 9.08879 	 -101.64
| 34> H 	 -58.3877 	 9.38623 	 -102.438
| 35> C 	 -58.2979 	 7.47835 	 -101.512
| 36> H 	 -57.9953 	 6.97796 	 -102.393
| 37> H 	 -59.3499 	 7.35478 	 -101.49
| 38> H 	 -58.0522 	 6.93131 	 -100.637
| 39> H 	 -63.9204 	 13.1722 	 -100.042
| 40> H 	 -55.7755 	 13.6198 	 -99.8587
| 41> *
| 42>
| 43>                          ****END OF INPUT****

CARTESIAN COORDINATES (ANGSTROEM)
---------------------------------
  S    -61.639800   12.591700  -99.028700
  C    -62.926600   12.792200  -100.151000
  C    -62.531500   12.313800  -101.405000
  C    -61.194100   11.886900  -101.508000
  C    -60.496500   12.167400  -100.277000
  H    -60.670000   11.407500  -102.341000
  C    -63.551100   12.187500  -102.541000
  H    -63.288200   12.608100  -103.546000
  H    -64.392200   12.795900  -102.189000
  C    -64.228700   10.819000  -102.770000
  H    -63.393400   10.081300  -103.053000
  H    -64.669600   10.470100  -101.762000
  C    -65.178200   10.894500  -103.920000
  H    -64.836000   11.663600  -104.588000
  H    -65.183900   10.035500  -104.550000
  H    -66.162700   11.152500  -103.529000
  S    -58.261200   13.663800  -99.637700
  C    -56.697500   12.964200  -99.953100
  C    -56.754000   11.584200  -100.122000
  C    -58.145400   11.125000  -100.163000
  C    -59.079600   12.113300  -99.998700
  H    -55.784100   11.063600  -100.267000
  C    -58.539200    9.603190  -100.336000
  H    -59.581300    9.528240  -100.496000
  H    -58.319000    8.962260  -99.435700
  C    -57.905300    8.977440  -101.562000
  H    -56.810800    9.088790  -101.640000
  H    -58.387700    9.386230  -102.438000
  C    -58.297900    7.478350  -101.512000
  H    -57.995300    6.977960  -102.393000
  H    -59.349900    7.354780  -101.490000
  H    -58.052200    6.931310  -100.637000
  H    -63.920400   13.172200  -100.042000
  H    -55.775500   13.619800  -99.858700

 Total Charge           Charge          ....    0
 Multiplicity           Mult            ....    1
 Number of Electrons    NEL             ....  134
 Basis Dimension        Dim             ....  322

ORBITAL ENERGIES
----------------

  NO   OCC          E(Eh)            E(eV)
   0   2.0000     -88.970642     -2421.0142
   1   2.0000     -88.961360     -2420.7617
   2   2.0000     -10.333923      -281.2003
   3   2.0000     -10.326276      -280.9923
   4   2.0000     -10.326196      -280.9901
   5   2.0000     -10.312306      -280.6121
   6   2.0000     -10.312015      -280.6042
   7   2.0000     -10.304200      -280.3915
   8   2.0000     -10.301444      -280.3165
   9   2.0000     -10.301064      -280.3062
  10   2.0000     -10.294151      -280.1181
  11   2.0000     -10.293335      -280.0959
  12   2.0000     -10.293261      -280.0939
  13   2.0000     -10.286617      -279.9131
  14   2.0000     -10.272923      -279.5404
  15   2.0000     -10.267272      -279.3867
  16   2.0000      -8.085463      -220.0166
  17   2.0000      -8.076203      -219.7647
  18   2.0000      -6.043859      -164.4618
  19   2.0000      -6.039836      -164.3523
  20   2.0000      -6.036460      -164.2604
  21   2.0000      -6.034739      -164.2136
  22   2.0000      -6.030733      -164.1046
  23   2.0000      -6.026878      -163.9997
  24   2.0000      -1.004529       -27.3346
  25   2.0000      -0.981612       -26.7110
  26   2.0000      -0.912430       -24.8285
  27   2.0000      -0.910472       -24.7752
  28   2.0000      -0.870784       -23.6952
  29   2.0000      -0.852139       -23.1879
  30   2.0000      -0.842527       -22.9263
  31   2.0000      -0.812450       -22.1079
  32   2.0000      -0.781304       -21.2604
  33   2.0000      -0.768766       -20.9192
  34   2.0000      -0.707252       -19.2453
  35   2.0000      -0.698502       -19.0072
  36   2.0000      -0.686734       -18.6870
  37   2.0000      -0.654849       -17.8194
  38   2.0000      -0.639364       -17.3980
  39   2.0000      -0.616609       -16.7788
  40   2.0000      -0.595809       -16.2128
  41   2.0000      -0.575522       -15.6608
  42   2.0000      -0.569181       -15.4882
  43   2.0000      -0.561353       -15.2752
  44   2.0000      -0.527087       -14.3428
  45   2.0000      -0.524619       -14.2756
  46   2.0000      -0.515929       -14.0391
  47   2.0000      -0.511141       -13.9088
  48   2.0000      -0.501730       -13.6528
  49   2.0000      -0.497707       -13.5433
  50   2.0000      -0.491849       -13.3839
  51   2.0000      -0.478271       -13.0144
  52   2.0000      -0.467846       -12.7307
  53   2.0000      -0.463086       -12.6012
  54   2.0000      -0.459550       -12.5050
  55   2.0000      -0.449753       -12.2384
  56   2.0000      -0.448150       -12.1948
  57   2.0000      -0.440591       -11.9891
  58   2.0000      -0.433186       -11.7876
  59   2.0000      -0.427384       -11.6297
  60   2.0000      -0.421037       -11.4570
  61   2.0000      -0.410176       -11.1615
  62   2.0000      -0.404999       -11.0206
  63   2.0000      -0.339596        -9.2409
  64   2.0000      -0.331971        -9.0334
  65   2.0000      -0.328198        -8.9307
  66   2.0000      -0.295018        -8.0279
  67   0.0000       0.028030         0.7627
  68   0.0000       0.059159         1.6098
  69   0.0000       0.113970         3.1013
  70   0.0000       0.117048         3.1851
  71   0.0000       0.130940         3.5631

MULLIKEN ATOMIC CHARGES
-----------------------
   0 S :    0.135015
   1 C :   -0.090060
   2 C :   -0.091207
   3 C :    0.058546
   4 C :   -0.202579
   5 H :    0.025067
   6 C :    0.013827
   7 H :    0.037140
   8 H :    0.007479
   9 C :   -0.120855
  10 H :    0.028996
  11 H :    0.043522
  12 C :    0.006826
  13 H :    0.013601
  14 H :    0.027874
  15 H :    0.038556
  16 S :    0.098906
  17 C :   -0.130964
  18 C :   -0.037609
  19 C :   -0.009990
  20 C :   -0.144494
  21 H :    0.041605
  22 C :    0.048939
  23 H :    0.013806
  24 H :    0.047484
  25 C :   -0.089045
  26 H :    0.041622
  27 H :    0.026565
  28 C :   -0.005149
  29 H :    0.022152
  30 H :    0.002471
  31 H :    0.017022
  32 H :    0.038532
  33 H :    0.086398
Sum of atomic charges:    0.0000000

LOEWDIN ATOMIC CHARGES
----------------------
   0 S :    0.437169
   1 C :   -0.213578
   2 C :   -0.066482
   3 C :   -0.057280
   4 C :   -0.198397
   5 H :    0.036628
   6 C :   -0.041882
   7 H :    0.029206
   8 H :    0.026038
   9 C :   -0.050833
  10 H :    0.023538
  11 H :    0.031159
  12 C :   -0.063236
  13 H :    0.024132
  14 H :    0.025145
  15 H :    0.029734
  16 S :    0.387548
  17 C :   -0.186159
  18 C :   -0.083482
  19 C :   -0.044555
  20 C :   -0.202431
  21 H :    0.041249
  22 C :   -0.026278
  23 H :    0.022745
  24 H :    0.037781
  25 C :   -0.034750
  26 H :    0.023176
  27 H :    0.023932
  28 C :   -0.061621
  29 H :    0.020142
  30 H :    0.021033
  31 H :    0.020362
  32 H :    0.028075
  33 H :    0.042176

  Mayer bond orders larger than 0.100000
B(  0-S ,  1-C ) :   1.1487 B(  0-S ,  4-C ) :   1.1903 B(  1-C ,  2-C ) :   1.5671
B(  1-C ,  4-C ) :   0.1110 B(  1-C , 32-H ) :   0.9669 B(  2-C ,  3-C ) :   1.2878
B(  2-C ,  6-C ) :   1.0238 B(  3-C ,  4-C ) :   1.4971 B(  3-C ,  5-H ) :   0.9955
B(  4-C , 20-C ) :   1.0403 B(  6-C ,  7-H ) :   0.9441 B(  6-C ,  8-H ) :   0.9411
B(  6-C ,  9-C ) :   1.0577 B(  9-C , 10-H ) :   0.9575 B(  9-C , 11-H ) :   0.9565
B(  9-C , 12-C ) :   1.0694 B( 12-C , 13-H ) :   0.9680 B( 12-C , 14-H ) :   0.9724
B( 12-C , 15-H ) :   0.9749 B( 16-S , 17-C ) :   1.1699 B( 16-S , 20-C ) :   1.1081
B( 17-C , 18-C ) :   1.6196 B( 17-C , 33-H ) :   0.9568 B( 18-C , 19-C ) :   1.1917
B( 18-C , 21-H ) :   0.9897 B( 19-C , 20-C ) :   1.6408 B( 19-C , 22-C ) :   1.0181
B( 22-C , 23-H ) :   0.9377 B( 22-C , 24-H ) :   0.9503 B( 22-C , 25-C ) :   1.0586
B( 25-C , 26-H ) :   0.9610 B( 25-C , 27-H ) :   0.9525 B( 25-C , 28-C ) :   1.0849
B( 28-C , 29-H ) :   0.9717 B( 28-C , 30-H ) :   0.9665 B( 28-C , 31-H ) :   0.9729

Dispersion correction           -0.013563226
FINAL SINGLE POINT ENERGY     -1339.861476128369

DIPOLE MOMENT
-------------
                                X             Y             Z
Electronic contribution:     10.17598      21.38061      19.18174
Nuclear contribution   :    -10.18093     -21.82289     -19.63727
                        -----------------------------------------
Total Dipole Moment    :     -0.00495      -0.44228      -0.45553
                        -----------------------------------------
Magnitude (a.u.)       :      0.63494
Magnitude (Debye)      :      1.61389

Rotational constants in cm-1:     0.017276     0.008348     0.006272
Rotational constants in MHz :   517.922955   250.271285   188.016300

                             ****ORCA TERMINATED NORMALLY****
TOTAL RUN TIME: 0 days 0 hours 0 minutes 21 seconds 43 msec
