                         Program Version 4.2.1 -  RELEASE  -
|  1> ! wB97X-D3 SP def2-SVP
|  2> %pal
|  3> nprocs 24
|  4> end
|  5>
|  6> * xyz 0 1
|  7> S 	 -30.7966 	 -35.699 	 -95.761
|  8> C 	 -30.5364 	 -33.9734 	 -95.9295
|  9> C 	 -30.5946 	 -33.2998 	 -94.702
| 10> C 	 -30.9893 	 -34.2056 	 -93.6704
| 11> C 	 -31.0381 	 -35.4756 	 -94.0639
| 12> H 	 -31.2872 	 -33.9733 	 -92.6367
| 13> C 	 -30.5504 	 -31.8043 	 -94.5361
| 14> H 	 -31.5259 	 -31.6037 	 -94.0578
| 15> H 	 -30.6041 	 -31.5088 	 -95.6321
| 16> C 	 -29.4001 	 -31.2127 	 -93.8143
| 17> H 	 -29.4453 	 -30.1033 	 -93.975
| 18> H 	 -29.4107 	 -31.3644 	 -92.7383
| 19> C 	 -27.9929 	 -31.6902 	 -94.228
| 20> H 	 -27.2675 	 -31.1977 	 -93.5272
| 21> H 	 -27.962 	 -32.7839 	 -94.078
| 22> H 	 -27.7167 	 -31.4882 	 -95.2433
| 23> S 	 -29.8894 	 -37.41 	 -92.596
| 24> C 	 -30.9063 	 -38.4592 	 -91.5983
| 25> C 	 -32.2431 	 -38.401 	 -91.9187
| 26> C 	 -32.4769 	 -37.3515 	 -92.8694
| 27> C 	 -31.3167 	 -36.668 	 -93.2841
| 28> H 	 -32.8562 	 -39.1684 	 -91.6297
| 29> C 	 -33.8854 	 -37.1911 	 -93.5228
| 30> H 	 -33.7839 	 -36.1989 	 -93.9425
| 31> H 	 -34.6108 	 -37.2554 	 -92.7161
| 32> C 	 -34.067 	 -38.3056 	 -94.6462
| 33> H 	 -33.1659 	 -38.3284 	 -95.2616
| 34> H 	 -34.8488 	 -37.8336 	 -95.2996
| 35> C 	 -34.4078 	 -39.7726 	 -94.2076
| 36> H 	 -34.6734 	 -40.5132 	 -94.9523
| 37> H 	 -35.2661 	 -39.8467 	 -93.5102
| 38> H 	 -33.522 	 -40.2479 	 -93.8239
| 39> H 	 -30.19 	 -33.4332 	 -96.827
| 40> H 	 -30.409 	 -39.2473 	 -91.0529
| 41> *
| 42>
| 43>                          ****END OF INPUT****

CARTESIAN COORDINATES (ANGSTROEM)
---------------------------------
  S    -30.796600  -35.699000  -95.761000
  C    -30.536400  -33.973400  -95.929500
  C    -30.594600  -33.299800  -94.702000
  C    -30.989300  -34.205600  -93.670400
  C    -31.038100  -35.475600  -94.063900
  H    -31.287200  -33.973300  -92.636700
  C    -30.550400  -31.804300  -94.536100
  H    -31.525900  -31.603700  -94.057800
  H    -30.604100  -31.508800  -95.632100
  C    -29.400100  -31.212700  -93.814300
  H    -29.445300  -30.103300  -93.975000
  H    -29.410700  -31.364400  -92.738300
  C    -27.992900  -31.690200  -94.228000
  H    -27.267500  -31.197700  -93.527200
  H    -27.962000  -32.783900  -94.078000
  H    -27.716700  -31.488200  -95.243300
  S    -29.889400  -37.410000  -92.596000
  C    -30.906300  -38.459200  -91.598300
  C    -32.243100  -38.401000  -91.918700
  C    -32.476900  -37.351500  -92.869400
  C    -31.316700  -36.668000  -93.284100
  H    -32.856200  -39.168400  -91.629700
  C    -33.885400  -37.191100  -93.522800
  H    -33.783900  -36.198900  -93.942500
  H    -34.610800  -37.255400  -92.716100
  C    -34.067000  -38.305600  -94.646200
  H    -33.165900  -38.328400  -95.261600
  H    -34.848800  -37.833600  -95.299600
  C    -34.407800  -39.772600  -94.207600
  H    -34.673400  -40.513200  -94.952300
  H    -35.266100  -39.846700  -93.510200
  H    -33.522000  -40.247900  -93.823900
  H    -30.190000  -33.433200  -96.827000
  H    -30.409000  -39.247300  -91.052900

 Total Charge           Charge          ....    0
 Multiplicity           Mult            ....    1
 Number of Electrons    NEL             ....  134
 Basis Dimension        Dim             ....  322

ORBITAL ENERGIES
----------------

  NO   OCC          E(Eh)            E(eV)
   0   2.0000     -88.965758     -2420.8814
   1   2.0000     -88.960666     -2420.7428
   2   2.0000     -10.322318      -280.8846
   3   2.0000     -10.320073      -280.8235
   4   2.0000     -10.316463      -280.7252
   5   2.0000     -10.315152      -280.6896
   6   2.0000     -10.305963      -280.4395
   7   2.0000     -10.299748      -280.2704
   8   2.0000     -10.296802      -280.1902
   9   2.0000     -10.295741      -280.1613
  10   2.0000     -10.295377      -280.1514
  11   2.0000     -10.289373      -279.9881
  12   2.0000     -10.288399      -279.9616
  13   2.0000     -10.287279      -279.9311
  14   2.0000     -10.282213      -279.7932
  15   2.0000     -10.277589      -279.6674
  16   2.0000      -8.080867      -219.8916
  17   2.0000      -8.075607      -219.7484
  18   2.0000      -6.039312      -164.3380
  19   2.0000      -6.035431      -164.2324
  20   2.0000      -6.034009      -164.1937
  21   2.0000      -6.031564      -164.1272
  22   2.0000      -6.030140      -164.0884
  23   2.0000      -6.026418      -163.9872
  24   2.0000      -1.009171       -27.4609
  25   2.0000      -0.981773       -26.7154
  26   2.0000      -0.916949       -24.9514
  27   2.0000      -0.895040       -24.3553
  28   2.0000      -0.869192       -23.6519
  29   2.0000      -0.849070       -23.1044
  30   2.0000      -0.839863       -22.8538
  31   2.0000      -0.817962       -22.2579
  32   2.0000      -0.785272       -21.3683
  33   2.0000      -0.770059       -20.9544
  34   2.0000      -0.708155       -19.2699
  35   2.0000      -0.696085       -18.9414
  36   2.0000      -0.687980       -18.7209
  37   2.0000      -0.664571       -18.0839
  38   2.0000      -0.639294       -17.3961
  39   2.0000      -0.617427       -16.8010
  40   2.0000      -0.587925       -15.9983
  41   2.0000      -0.567358       -15.4386
  42   2.0000      -0.555329       -15.1113
  43   2.0000      -0.548639       -14.9292
  44   2.0000      -0.545898       -14.8546
  45   2.0000      -0.533445       -14.5158
  46   2.0000      -0.517418       -14.0797
  47   2.0000      -0.514216       -13.9925
  48   2.0000      -0.501268       -13.6402
  49   2.0000      -0.491349       -13.3703
  50   2.0000      -0.482712       -13.1353
  51   2.0000      -0.473975       -12.8975
  52   2.0000      -0.468771       -12.7559
  53   2.0000      -0.462031       -12.5725
  54   2.0000      -0.457300       -12.4438
  55   2.0000      -0.448844       -12.2137
  56   2.0000      -0.443346       -12.0641
  57   2.0000      -0.441194       -12.0055
  58   2.0000      -0.438744       -11.9388
  59   2.0000      -0.427112       -11.6223
  60   2.0000      -0.420360       -11.4386
  61   2.0000      -0.410862       -11.1801
  62   2.0000      -0.401391       -10.9224
  63   2.0000      -0.339658        -9.2426
  64   2.0000      -0.328465        -8.9380
  65   2.0000      -0.315334        -8.5807
  66   2.0000      -0.310039        -8.4366
  67   0.0000       0.047972         1.3054
  68   0.0000       0.053694         1.4611
  69   0.0000       0.109053         2.9675
  70   0.0000       0.112493         3.0611
  71   0.0000       0.127758         3.4765

MULLIKEN ATOMIC CHARGES
-----------------------
   0 S :    0.120523
   1 C :   -0.122330
   2 C :   -0.137220
   3 C :    0.049815
   4 C :   -0.182463
   5 H :    0.020075
   6 C :    0.077535
   7 H :    0.042644
   8 H :    0.023282
   9 C :   -0.075840
  10 H :    0.037708
  11 H :    0.031550
  12 C :   -0.067656
  13 H :    0.040995
  14 H :    0.049066
  15 H :    0.026908
  16 S :    0.099989
  17 C :   -0.096378
  18 C :    0.004274
  19 C :   -0.052833
  20 C :   -0.189547
  21 H :   -0.004169
  22 C :    0.087500
  23 H :    0.032745
  24 H :    0.030745
  25 C :   -0.070812
  26 H :    0.031918
  27 H :    0.041377
  28 C :   -0.056448
  29 H :    0.030312
  30 H :    0.035084
  31 H :    0.031325
  32 H :    0.053578
  33 H :    0.056749
Sum of atomic charges:   -0.0000000

LOEWDIN ATOMIC CHARGES
----------------------
   0 S :    0.411231
   1 C :   -0.207377
   2 C :   -0.065389
   3 C :   -0.063199
   4 C :   -0.209407
   5 H :    0.039622
   6 C :   -0.038661
   7 H :    0.040758
   8 H :    0.038376
   9 C :   -0.051229
  10 H :    0.031314
  11 H :    0.026014
  12 C :   -0.064696
  13 H :    0.033027
  14 H :    0.029712
  15 H :    0.017084
  16 S :    0.398659
  17 C :   -0.167674
  18 C :   -0.065389
  19 C :   -0.048522
  20 C :   -0.217353
  21 H :    0.020028
  22 C :   -0.022139
  23 H :    0.031805
  24 H :    0.027709
  25 C :   -0.036883
  26 H :    0.025383
  27 H :    0.029240
  28 C :   -0.077149
  29 H :    0.030207
  30 H :    0.027294
  31 H :    0.024631
  32 H :    0.030690
  33 H :    0.022282

  Mayer bond orders larger than 0.100000
B(  0-S ,  1-C ) :   1.1333 B(  0-S ,  4-C ) :   1.1510 B(  1-C ,  2-C ) :   1.6346
B(  1-C , 32-H ) :   0.9550 B(  2-C ,  3-C ) :   1.1941 B(  2-C ,  6-C ) :   1.0090
B(  3-C ,  4-C ) :   1.6548 B(  3-C ,  5-H ) :   0.9911 B(  4-C , 20-C ) :   0.9769
B(  6-C ,  7-H ) :   0.9397 B(  6-C ,  8-H ) :   0.9385 B(  6-C ,  9-C ) :   1.0734
B(  9-C , 10-H ) :   0.9527 B(  9-C , 11-H ) :   0.9537 B(  9-C , 12-C ) :   1.0812
B( 12-C , 13-H ) :   0.9744 B( 12-C , 14-H ) :   0.9693 B( 12-C , 15-H ) :   0.9778
B( 16-S , 17-C ) :   1.1662 B( 16-S , 20-C ) :   1.1497 B( 17-C , 18-C ) :   1.6035
B( 17-C , 20-C ) :   0.1061 B( 17-C , 33-H ) :   0.9649 B( 18-C , 19-C ) :   1.2286
B( 18-C , 21-H ) :   1.0009 B( 19-C , 20-C ) :   1.6106 B( 19-C , 22-C ) :   1.0320
B( 22-C , 23-H ) :   0.9344 B( 22-C , 24-H ) :   0.9414 B( 22-C , 25-C ) :   1.0540
B( 25-C , 26-H ) :   0.9557 B( 25-C , 27-H ) :   0.9622 B( 25-C , 28-C ) :   1.0647
B( 28-C , 29-H ) :   0.9716 B( 28-C , 30-H ) :   0.9778 B( 28-C , 31-H ) :   0.9699

Dispersion correction           -0.015021224
FINAL SINGLE POINT ENERGY     -1339.867084694608

DIPOLE MOMENT
-------------
                                X             Y             Z
Electronic contribution:      6.59432      -7.70128       0.76446
Nuclear contribution   :     -6.87823       7.78686      -0.69527
                        -----------------------------------------
Total Dipole Moment    :     -0.28392       0.08558       0.06920
                        -----------------------------------------
Magnitude (a.u.)       :      0.30450
Magnitude (Debye)      :      0.77398

Rotational constants in cm-1:     0.025834     0.007509     0.006645
Rotational constants in MHz :   774.488047   225.114056   199.209933

                             ****ORCA TERMINATED NORMALLY****
TOTAL RUN TIME: 0 days 0 hours 0 minutes 21 seconds 590 msec
