                         Program Version 4.2.1 -  RELEASE  -
|  1> ! wB97X-D3 SP def2-SVP
|  2> %pal
|  3> nprocs 24
|  4> end
|  5>
|  6> * xyz 0 1
|  7> S 	 -1.23619 	 -27.1874 	 -116.299
|  8> C 	 -0.520085 	 -25.5854 	 -116.231
|  9> C 	 -1.25291 	 -24.7124 	 -115.412
| 10> C 	 -2.37048 	 -25.345 	 -114.811
| 11> C 	 -2.53459 	 -26.677 	 -115.184
| 12> H 	 -3.07013 	 -24.9466 	 -114.092
| 13> C 	 -1.19535 	 -23.1833 	 -115.276
| 14> H 	 -0.240775 	 -22.8758 	 -114.79
| 15> H 	 -1.99303 	 -22.9213 	 -114.543
| 16> C 	 -1.36802 	 -22.4435 	 -116.62
| 17> H 	 -1.39627 	 -21.4 	 -116.509
| 18> H 	 -0.376326 	 -22.6103 	 -117.07
| 19> C 	 -2.48012 	 -23.0644 	 -117.568
| 20> H 	 -3.44601 	 -22.9157 	 -117.09
| 21> H 	 -2.49076 	 -22.5068 	 -118.474
| 22> H 	 -2.43135 	 -24.1105 	 -117.785
| 23> S 	 -3.00456 	 -29.1311 	 -114.204
| 24> C 	 -4.59727 	 -29.6877 	 -113.82
| 25> C 	 -5.49808 	 -28.6284 	 -113.871
| 26> C 	 -4.95916 	 -27.492 	 -114.464
| 27> C 	 -3.61865 	 -27.6614 	 -114.701
| 28> H 	 -6.45381 	 -28.9243 	 -113.665
| 29> C 	 -5.82605 	 -26.2052 	 -114.664
| 30> H 	 -5.24616 	 -25.3356 	 -114.495
| 31> H 	 -6.57469 	 -26.0961 	 -113.825
| 32> C 	 -6.59759 	 -26.0969 	 -116.034
| 33> H 	 -7.20836 	 -25.1961 	 -115.929
| 34> H 	 -7.32587 	 -26.9033 	 -116.125
| 35> C 	 -5.5013 	 -25.974 	 -117.163
| 36> H 	 -4.87615 	 -26.8859 	 -117.146
| 37> H 	 -4.90036 	 -25.0977 	 -116.972
| 38> H 	 -5.87284 	 -25.9421 	 -118.138
| 39> H 	 0.330222 	 -25.2648 	 -116.816
| 40> H 	 -4.9095 	 -30.6871 	 -113.452
| 41> *
| 42>
| 43>                          ****END OF INPUT****

CARTESIAN COORDINATES (ANGSTROEM)
---------------------------------
  S     -1.236190  -27.187400  -116.299000
  C     -0.520085  -25.585400  -116.231000
  C     -1.252910  -24.712400  -115.412000
  C     -2.370480  -25.345000  -114.811000
  C     -2.534590  -26.677000  -115.184000
  H     -3.070130  -24.946600  -114.092000
  C     -1.195350  -23.183300  -115.276000
  H     -0.240775  -22.875800  -114.790000
  H     -1.993030  -22.921300  -114.543000
  C     -1.368020  -22.443500  -116.620000
  H     -1.396270  -21.400000  -116.509000
  H     -0.376326  -22.610300  -117.070000
  C     -2.480120  -23.064400  -117.568000
  H     -3.446010  -22.915700  -117.090000
  H     -2.490760  -22.506800  -118.474000
  H     -2.431350  -24.110500  -117.785000
  S     -3.004560  -29.131100  -114.204000
  C     -4.597270  -29.687700  -113.820000
  C     -5.498080  -28.628400  -113.871000
  C     -4.959160  -27.492000  -114.464000
  C     -3.618650  -27.661400  -114.701000
  H     -6.453810  -28.924300  -113.665000
  C     -5.826050  -26.205200  -114.664000
  H     -5.246160  -25.335600  -114.495000
  H     -6.574690  -26.096100  -113.825000
  C     -6.597590  -26.096900  -116.034000
  H     -7.208360  -25.196100  -115.929000
  H     -7.325870  -26.903300  -116.125000
  C     -5.501300  -25.974000  -117.163000
  H     -4.876150  -26.885900  -117.146000
  H     -4.900360  -25.097700  -116.972000
  H     -5.872840  -25.942100  -118.138000
  H      0.330222  -25.264800  -116.816000
  H     -4.909500  -30.687100  -113.452000

 Total Charge           Charge          ....    0
 Multiplicity           Mult            ....    1
 Number of Electrons    NEL             ....  134
 Basis Dimension        Dim             ....  322

ORBITAL ENERGIES
----------------

  NO   OCC          E(Eh)            E(eV)
   0   2.0000     -88.972148     -2421.0552
   1   2.0000     -88.967261     -2420.9223
   2   2.0000     -10.336831      -281.2795
   3   2.0000     -10.325584      -280.9734
   4   2.0000     -10.317954      -280.7658
   5   2.0000     -10.313619      -280.6478
   6   2.0000     -10.303498      -280.3724
   7   2.0000     -10.301298      -280.3126
   8   2.0000     -10.298570      -280.2383
   9   2.0000     -10.296205      -280.1740
  10   2.0000     -10.292932      -280.0849
  11   2.0000     -10.290404      -280.0161
  12   2.0000     -10.289443      -279.9900
  13   2.0000     -10.283475      -279.8276
  14   2.0000     -10.273730      -279.5624
  15   2.0000     -10.269328      -279.4426
  16   2.0000      -8.085638      -220.0214
  17   2.0000      -8.083728      -219.9694
  18   2.0000      -6.044136      -164.4693
  19   2.0000      -6.041893      -164.4083
  20   2.0000      -6.040300      -164.3649
  21   2.0000      -6.037932      -164.3005
  22   2.0000      -6.036508      -164.2617
  23   2.0000      -6.034799      -164.2152
  24   2.0000      -1.014702       -27.6115
  25   2.0000      -0.984542       -26.7907
  26   2.0000      -0.905004       -24.6264
  27   2.0000      -0.899139       -24.4668
  28   2.0000      -0.863675       -23.5018
  29   2.0000      -0.848335       -23.0844
  30   2.0000      -0.841817       -22.9070
  31   2.0000      -0.809646       -22.0316
  32   2.0000      -0.781582       -21.2679
  33   2.0000      -0.775171       -21.0935
  34   2.0000      -0.709094       -19.2954
  35   2.0000      -0.702309       -19.1108
  36   2.0000      -0.688385       -18.7319
  37   2.0000      -0.665186       -18.1006
  38   2.0000      -0.639687       -17.4068
  39   2.0000      -0.614768       -16.7287
  40   2.0000      -0.592695       -16.1280
  41   2.0000      -0.569069       -15.4851
  42   2.0000      -0.548641       -14.9293
  43   2.0000      -0.546269       -14.8647
  44   2.0000      -0.541237       -14.7278
  45   2.0000      -0.533913       -14.5285
  46   2.0000      -0.511766       -13.9259
  47   2.0000      -0.507002       -13.7962
  48   2.0000      -0.501448       -13.6451
  49   2.0000      -0.488845       -13.3021
  50   2.0000      -0.485595       -13.2137
  51   2.0000      -0.481174       -13.0934
  52   2.0000      -0.470346       -12.7988
  53   2.0000      -0.462691       -12.5905
  54   2.0000      -0.459327       -12.4989
  55   2.0000      -0.447261       -12.1706
  56   2.0000      -0.444537       -12.0965
  57   2.0000      -0.438647       -11.9362
  58   2.0000      -0.434651       -11.8275
  59   2.0000      -0.428107       -11.6494
  60   2.0000      -0.420881       -11.4528
  61   2.0000      -0.416551       -11.3349
  62   2.0000      -0.408424       -11.1138
  63   2.0000      -0.348257        -9.4766
  64   2.0000      -0.335445        -9.1279
  65   2.0000      -0.331176        -9.0117
  66   2.0000      -0.292005        -7.9459
  67   0.0000       0.030304         0.8246
  68   0.0000       0.071788         1.9534
  69   0.0000       0.107164         2.9161
  70   0.0000       0.113134         3.0785
  71   0.0000       0.137826         3.7504

MULLIKEN ATOMIC CHARGES
-----------------------
   0 S :    0.112520
   1 C :   -0.128114
   2 C :   -0.089453
   3 C :    0.019280
   4 C :   -0.149674
   5 H :    0.019562
   6 C :    0.047290
   7 H :    0.041053
   8 H :    0.024882
   9 C :   -0.063244
  10 H :    0.024768
  11 H :    0.019532
  12 C :   -0.036281
  13 H :    0.029163
  14 H :    0.028489
  15 H :    0.051076
  16 S :    0.130027
  17 C :   -0.125638
  18 C :   -0.010513
  19 C :   -0.023592
  20 C :   -0.151421
  21 H :   -0.014839
  22 C :    0.042575
  23 H :   -0.002358
  24 H :    0.027782
  25 C :   -0.055633
  26 H :    0.027022
  27 H :    0.029373
  28 C :   -0.026290
  29 H :    0.044743
  30 H :    0.027225
  31 H :    0.018777
  32 H :    0.049951
  33 H :    0.061961
Sum of atomic charges:    0.0000000

LOEWDIN ATOMIC CHARGES
----------------------
   0 S :    0.393836
   1 C :   -0.199209
   2 C :   -0.061633
   3 C :   -0.068346
   4 C :   -0.179352
   5 H :    0.030641
   6 C :   -0.032885
   7 H :    0.034355
   8 H :    0.027302
   9 C :   -0.035197
  10 H :    0.018581
  11 H :    0.023396
  12 C :   -0.059312
  13 H :    0.022811
  14 H :    0.023334
  15 H :    0.026499
  16 S :    0.455892
  17 C :   -0.202764
  18 C :   -0.057890
  19 C :   -0.067260
  20 C :   -0.219736
  21 H :    0.017406
  22 C :   -0.027597
  23 H :    0.015822
  24 H :    0.034511
  25 C :   -0.031998
  26 H :    0.022431
  27 H :    0.020725
  28 C :   -0.059400
  29 H :    0.032737
  30 H :    0.025022
  31 H :    0.014394
  32 H :    0.027663
  33 H :    0.035222

  Mayer bond orders larger than 0.100000
B(  0-S ,  1-C ) :   1.1367 B(  0-S ,  4-C ) :   1.1556 B(  1-C ,  2-C ) :   1.5964
B(  1-C ,  4-C ) :   0.1060 B(  1-C , 32-H ) :   0.9701 B(  2-C ,  3-C ) :   1.2483
B(  2-C ,  6-C ) :   1.0133 B(  3-C ,  4-C ) :   1.5882 B(  3-C ,  5-H ) :   0.9870
B(  4-C , 20-C ) :   0.9762 B(  6-C ,  7-H ) :   0.9404 B(  6-C ,  8-H ) :   0.9484
B(  6-C ,  9-C ) :   1.0616 B(  9-C , 10-H ) :   0.9601 B(  9-C , 11-H ) :   0.9545
B(  9-C , 12-C ) :   1.0690 B( 12-C , 13-H ) :   0.9757 B( 12-C , 14-H ) :   0.9723
B( 12-C , 15-H ) :   0.9713 B( 16-S , 17-C ) :   1.1659 B( 16-S , 20-C ) :   1.1954
B( 17-C , 18-C ) :   1.5949 B( 17-C , 33-H ) :   0.9646 B( 18-C , 19-C ) :   1.2637
B( 18-C , 21-H ) :   1.0024 B( 19-C , 20-C ) :   1.5789 B( 19-C , 22-C ) :   1.0171
B( 22-C , 23-H ) :   0.9416 B( 22-C , 24-H ) :   0.9428 B( 22-C , 25-C ) :   1.0679
B( 25-C , 26-H ) :   0.9567 B( 25-C , 27-H ) :   0.9610 B( 25-C , 28-C ) :   1.0616
B( 28-C , 29-H ) :   0.9743 B( 28-C , 30-H ) :   0.9738 B( 28-C , 31-H ) :   0.9753

Dispersion correction           -0.016760891
FINAL SINGLE POINT ENERGY     -1339.867477850708

DIPOLE MOMENT
-------------
                                X             Y             Z
Electronic contribution:     11.01754     -23.05592       8.94975
Nuclear contribution   :    -11.34595      23.55406      -8.92887
                        -----------------------------------------
Total Dipole Moment    :     -0.32841       0.49814       0.02088
                        -----------------------------------------
Magnitude (a.u.)       :      0.59702
Magnitude (Debye)      :      1.51751

Rotational constants in cm-1:     0.021011     0.009922     0.007749
Rotational constants in MHz :   629.896533   297.449074   232.308313

                             ****ORCA TERMINATED NORMALLY****
TOTAL RUN TIME: 0 days 0 hours 0 minutes 23 seconds 451 msec
