                         Program Version 4.2.1 -  RELEASE  -
|  1> ! wB97X-D3 SP def2-SVP
|  2> %pal
|  3> nprocs 24
|  4> end
|  5>
|  6> * xyz 0 1
|  7> S 	 -131.484 	 73.4009 	 -66.1043
|  8> C 	 -130.064 	 73.6193 	 -65.0629
|  9> C 	 -130.476 	 74.1063 	 -63.8505
| 10> C 	 -131.904 	 74.4102 	 -63.7581
| 11> C 	 -132.581 	 74.0078 	 -64.9163
| 12> H 	 -132.344 	 74.702 	 -62.8186
| 13> C 	 -129.634 	 74.0846 	 -62.652
| 14> H 	 -128.607 	 73.9495 	 -63.0256
| 15> H 	 -129.774 	 73.1337 	 -62.147
| 16> C 	 -129.701 	 75.3747 	 -61.7662
| 17> H 	 -130.725 	 75.5573 	 -61.3698
| 18> H 	 -128.992 	 75.3009 	 -60.955
| 19> C 	 -129.325 	 76.6722 	 -62.4934
| 20> H 	 -129.389 	 77.4904 	 -61.8072
| 21> H 	 -128.334 	 76.8347 	 -62.9842
| 22> H 	 -130.072 	 76.9216 	 -63.2711
| 23> S 	 -134.754 	 72.6342 	 -65.646
| 24> C 	 -136.326 	 73.3843 	 -65.7389
| 25> C 	 -136.209 	 74.766 	 -65.3999
| 26> C 	 -134.926 	 75.2066 	 -65.0057
| 27> C 	 -134.005 	 74.1405 	 -65.1424
| 28> H 	 -137.075 	 75.4057 	 -65.3207
| 29> C 	 -134.562 	 76.6146 	 -64.5796
| 30> H 	 -134.947 	 77.2008 	 -65.354
| 31> H 	 -133.455 	 76.6643 	 -64.6391
| 32> C 	 -135.051 	 77.006 	 -63.1382
| 33> H 	 -134.98 	 76.1586 	 -62.4944
| 34> H 	 -136.085 	 77.1752 	 -63.1892
| 35> C 	 -134.341 	 78.3124 	 -62.6545
| 36> H 	 -134.78 	 78.7015 	 -61.746
| 37> H 	 -134.417 	 79.0134 	 -63.5469
| 38> H 	 -133.231 	 78.1819 	 -62.4626
| 39> H 	 -129.036 	 73.3553 	 -65.2782
| 40> H 	 -137.185 	 73.0121 	 -66.2881
| 41> *
| 42>
| 43>                          ****END OF INPUT****

CARTESIAN COORDINATES (ANGSTROEM)
---------------------------------
  S    -131.484000   73.400900  -66.104300
  C    -130.064000   73.619300  -65.062900
  C    -130.476000   74.106300  -63.850500
  C    -131.904000   74.410200  -63.758100
  C    -132.581000   74.007800  -64.916300
  H    -132.344000   74.702000  -62.818600
  C    -129.634000   74.084600  -62.652000
  H    -128.607000   73.949500  -63.025600
  H    -129.774000   73.133700  -62.147000
  C    -129.701000   75.374700  -61.766200
  H    -130.725000   75.557300  -61.369800
  H    -128.992000   75.300900  -60.955000
  C    -129.325000   76.672200  -62.493400
  H    -129.389000   77.490400  -61.807200
  H    -128.334000   76.834700  -62.984200
  H    -130.072000   76.921600  -63.271100
  S    -134.754000   72.634200  -65.646000
  C    -136.326000   73.384300  -65.738900
  C    -136.209000   74.766000  -65.399900
  C    -134.926000   75.206600  -65.005700
  C    -134.005000   74.140500  -65.142400
  H    -137.075000   75.405700  -65.320700
  C    -134.562000   76.614600  -64.579600
  H    -134.947000   77.200800  -65.354000
  H    -133.455000   76.664300  -64.639100
  C    -135.051000   77.006000  -63.138200
  H    -134.980000   76.158600  -62.494400
  H    -136.085000   77.175200  -63.189200
  C    -134.341000   78.312400  -62.654500
  H    -134.780000   78.701500  -61.746000
  H    -134.417000   79.013400  -63.546900
  H    -133.231000   78.181900  -62.462600
  H    -129.036000   73.355300  -65.278200
  H    -137.185000   73.012100  -66.288100

 Total Charge           Charge          ....    0
 Multiplicity           Mult            ....    1
 Number of Electrons    NEL             ....  134
 Basis Dimension        Dim             ....  322

ORBITAL ENERGIES
----------------

  NO   OCC          E(Eh)            E(eV)
   0   2.0000     -88.967615     -2420.9319
   1   2.0000     -88.966401     -2420.8988
   2   2.0000     -10.331122      -281.1241
   3   2.0000     -10.327130      -281.0155
   4   2.0000     -10.319347      -280.8037
   5   2.0000     -10.313042      -280.6321
   6   2.0000     -10.305107      -280.4162
   7   2.0000     -10.296725      -280.1881
   8   2.0000     -10.296033      -280.1693
   9   2.0000     -10.295392      -280.1518
  10   2.0000     -10.295285      -280.1490
  11   2.0000     -10.291265      -280.0396
  12   2.0000     -10.291246      -280.0390
  13   2.0000     -10.290484      -280.0183
  14   2.0000     -10.287002      -279.9236
  15   2.0000     -10.277832      -279.6740
  16   2.0000      -8.082103      -219.9252
  17   2.0000      -8.081015      -219.8956
  18   2.0000      -6.040560      -164.3720
  19   2.0000      -6.039708      -164.3488
  20   2.0000      -6.036446      -164.2600
  21   2.0000      -6.035422      -164.2322
  22   2.0000      -6.033137      -164.1700
  23   2.0000      -6.031683      -164.1304
  24   2.0000      -1.005051       -27.3488
  25   2.0000      -0.980354       -26.6768
  26   2.0000      -0.913086       -24.8463
  27   2.0000      -0.906439       -24.6655
  28   2.0000      -0.867412       -23.6035
  29   2.0000      -0.851377       -23.1671
  30   2.0000      -0.842539       -22.9267
  31   2.0000      -0.811150       -22.0725
  32   2.0000      -0.781096       -21.2547
  33   2.0000      -0.769871       -20.9493
  34   2.0000      -0.712467       -19.3872
  35   2.0000      -0.705286       -19.1918
  36   2.0000      -0.694529       -18.8991
  37   2.0000      -0.661419       -17.9981
  38   2.0000      -0.634836       -17.2748
  39   2.0000      -0.623343       -16.9620
  40   2.0000      -0.591006       -16.0821
  41   2.0000      -0.566180       -15.4066
  42   2.0000      -0.560704       -15.2575
  43   2.0000      -0.549940       -14.9646
  44   2.0000      -0.539615       -14.6837
  45   2.0000      -0.528692       -14.3864
  46   2.0000      -0.516725       -14.0608
  47   2.0000      -0.512768       -13.9531
  48   2.0000      -0.504664       -13.7326
  49   2.0000      -0.499271       -13.5859
  50   2.0000      -0.488447       -13.2913
  51   2.0000      -0.480473       -13.0743
  52   2.0000      -0.464845       -12.6491
  53   2.0000      -0.464525       -12.6404
  54   2.0000      -0.456074       -12.4104
  55   2.0000      -0.446040       -12.1374
  56   2.0000      -0.444307       -12.0902
  57   2.0000      -0.438669       -11.9368
  58   2.0000      -0.435467       -11.8497
  59   2.0000      -0.431570       -11.7436
  60   2.0000      -0.421686       -11.4747
  61   2.0000      -0.418123       -11.3777
  62   2.0000      -0.413764       -11.2591
  63   2.0000      -0.341433        -9.2909
  64   2.0000      -0.333325        -9.0702
  65   2.0000      -0.325265        -8.8509
  66   2.0000      -0.291243        -7.9251
  67   0.0000       0.025842         0.7032
  68   0.0000       0.069469         1.8904
  69   0.0000       0.111918         3.0454
  70   0.0000       0.117621         3.2006
  71   0.0000       0.126659         3.4466

MULLIKEN ATOMIC CHARGES
-----------------------
   0 S :    0.114664
   1 C :   -0.123271
   2 C :   -0.108728
   3 C :    0.033468
   4 C :   -0.134953
   5 H :    0.012774
   6 C :    0.072329
   7 H :    0.004768
   8 H :    0.049261
   9 C :   -0.067237
  10 H :    0.039634
  11 H :    0.032526
  12 C :   -0.080535
  13 H :    0.021619
  14 H :    0.038330
  15 H :    0.037157
  16 S :    0.112552
  17 C :   -0.091256
  18 C :   -0.056546
  19 C :   -0.036899
  20 C :   -0.188252
  21 H :    0.014479
  22 C :    0.075588
  23 H :    0.021770
  24 H :    0.033527
  25 C :   -0.038372
  26 H :    0.025978
  27 H :    0.015780
  28 C :   -0.075829
  29 H :    0.042366
  30 H :    0.043614
  31 H :    0.043571
  32 H :    0.046797
  33 H :    0.069328
Sum of atomic charges:   -0.0000000

LOEWDIN ATOMIC CHARGES
----------------------
   0 S :    0.407351
   1 C :   -0.197666
   2 C :   -0.064264
   3 C :   -0.064727
   4 C :   -0.203531
   5 H :    0.028391
   6 C :   -0.038124
   7 H :    0.030751
   8 H :    0.037985
   9 C :   -0.037469
  10 H :    0.028658
  11 H :    0.024550
  12 C :   -0.075390
  13 H :    0.021885
  14 H :    0.029214
  15 H :    0.026464
  16 S :    0.419204
  17 C :   -0.203123
  18 C :   -0.068725
  19 C :   -0.054128
  20 C :   -0.197236
  21 H :    0.026820
  22 C :   -0.025364
  23 H :    0.025050
  24 H :    0.035139
  25 C :   -0.031700
  26 H :    0.019366
  27 H :    0.017661
  28 C :   -0.069380
  29 H :    0.023674
  30 H :    0.034868
  31 H :    0.030028
  32 H :    0.031057
  33 H :    0.032714

  Mayer bond orders larger than 0.100000
B(  0-S ,  1-C ) :   1.1089 B(  0-S ,  4-C ) :   1.1690 B(  1-C ,  2-C ) :   1.6265
B(  1-C , 32-H ) :   0.9685 B(  2-C ,  3-C ) :   1.2202 B(  2-C ,  6-C ) :   1.0363
B(  3-C ,  4-C ) :   1.5475 B(  3-C ,  5-H ) :   0.9978 B(  4-C , 20-C ) :   1.0317
B(  6-C ,  7-H ) :   0.9322 B(  6-C ,  8-H ) :   0.9396 B(  6-C ,  9-C ) :   1.0574
B(  9-C , 10-H ) :   0.9544 B(  9-C , 11-H ) :   0.9593 B(  9-C , 12-C ) :   1.0765
B( 12-C , 13-H ) :   0.9734 B( 12-C , 14-H ) :   0.9754 B( 12-C , 15-H ) :   0.9710
B( 16-S , 17-C ) :   1.1634 B( 16-S , 20-C ) :   1.1724 B( 17-C , 18-C ) :   1.5660
B( 17-C , 20-C ) :   0.1181 B( 17-C , 33-H ) :   0.9656 B( 18-C , 19-C ) :   1.2850
B( 18-C , 21-H ) :   0.9839 B( 19-C , 20-C ) :   1.5375 B( 19-C , 22-C ) :   1.0380
B( 22-C , 23-H ) :   0.9258 B( 22-C , 24-H ) :   0.9389 B( 22-C , 25-C ) :   1.0475
B( 25-C , 26-H ) :   0.9612 B( 25-C , 27-H ) :   0.9521 B( 25-C , 28-C ) :   1.0731
B( 28-C , 29-H ) :   0.9756 B( 28-C , 30-H ) :   0.9725 B( 28-C , 31-H ) :   0.9775

Dispersion correction           -0.014812565
FINAL SINGLE POINT ENERGY     -1339.878449939438

DIPOLE MOMENT
-------------
                                X             Y             Z
Electronic contribution:     -7.32420     -23.17761     -19.41494
Nuclear contribution   :      7.38508      23.60920      19.89570
                        -----------------------------------------
Total Dipole Moment    :      0.06088       0.43159       0.48076
                        -----------------------------------------
Magnitude (a.u.)       :      0.64893
Magnitude (Debye)      :      1.64945

Rotational constants in cm-1:     0.016746     0.010403     0.006986
Rotational constants in MHz :   502.040179   311.877338   209.439285

                             ****ORCA TERMINATED NORMALLY****
TOTAL RUN TIME: 0 days 0 hours 0 minutes 22 seconds 196 msec
