                         Program Version 4.2.1 -  RELEASE  -
|  1> ! wB97X-D3 SP def2-SVP
|  2> %pal
|  3> nprocs 24
|  4> end
|  5>
|  6> * xyz 0 1
|  7> S 	 -54.2421 	 3.34447 	 -22.7528
|  8> C 	 -53.3245 	 2.43866 	 -23.9685
|  9> C 	 -53.8793 	 1.13443 	 -24.202
| 10> C 	 -55.0263 	 0.940665 	 -23.3548
| 11> C 	 -55.3276 	 1.98976 	 -22.4792
| 12> H 	 -55.6964 	 0.028792 	 -23.3208
| 13> C 	 -53.2376 	 0.108102 	 -25.1393
| 14> H 	 -52.2111 	 0.400314 	 -25.3793
| 15> H 	 -53.8048 	 0.17752 	 -26.0407
| 16> C 	 -53.1995 	 -1.31715 	 -24.6131
| 17> H 	 -52.7822 	 -1.42269 	 -23.6008
| 18> H 	 -54.2313 	 -1.67893 	 -24.4096
| 19> C 	 -52.5375 	 -2.40594 	 -25.5896
| 20> H 	 -51.4887 	 -2.11052 	 -25.6755
| 21> H 	 -52.6991 	 -3.39858 	 -25.1081
| 22> H 	 -52.9224 	 -2.40118 	 -26.6215
| 23> S 	 -57.7548 	 3.22603 	 -21.9829
| 24> C 	 -58.9005 	 2.47606 	 -20.877
| 25> C 	 -58.3024 	 1.43722 	 -20.1327
| 26> C 	 -56.918 	 1.20713 	 -20.553
| 27> C 	 -56.483 	 2.03844 	 -21.5861
| 28> H 	 -58.8503 	 0.945387 	 -19.2784
| 29> C 	 -56.1086 	 0.138913 	 -19.8343
| 30> H 	 -56.0238 	 -0.721394 	 -20.4899
| 31> H 	 -56.6237 	 -0.135161 	 -18.8963
| 32> C 	 -54.6914 	 0.577426 	 -19.5353
| 33> H 	 -54.6309 	 1.5388 	 -19.0297
| 34> H 	 -54.3042 	 0.73202 	 -20.5602
| 35> C 	 -53.8542 	 -0.544717 	 -18.8471
| 36> H 	 -52.7883 	 -0.345662 	 -18.5964
| 37> H 	 -53.914 	 -1.48607 	 -19.4644
| 38> H 	 -54.353 	 -0.717939 	 -17.8835
| 39> H 	 -52.359 	 2.78244 	 -24.4177
| 40> H 	 -59.9087 	 2.88301 	 -20.6018
| 41> *
| 42>
| 43>                          ****END OF INPUT****

CARTESIAN COORDINATES (ANGSTROEM)
---------------------------------
  S    -54.242100    3.344470  -22.752800
  C    -53.324500    2.438660  -23.968500
  C    -53.879300    1.134430  -24.202000
  C    -55.026300    0.940665  -23.354800
  C    -55.327600    1.989760  -22.479200
  H    -55.696400    0.028792  -23.320800
  C    -53.237600    0.108102  -25.139300
  H    -52.211100    0.400314  -25.379300
  H    -53.804800    0.177520  -26.040700
  C    -53.199500   -1.317150  -24.613100
  H    -52.782200   -1.422690  -23.600800
  H    -54.231300   -1.678930  -24.409600
  C    -52.537500   -2.405940  -25.589600
  H    -51.488700   -2.110520  -25.675500
  H    -52.699100   -3.398580  -25.108100
  H    -52.922400   -2.401180  -26.621500
  S    -57.754800    3.226030  -21.982900
  C    -58.900500    2.476060  -20.877000
  C    -58.302400    1.437220  -20.132700
  C    -56.918000    1.207130  -20.553000
  C    -56.483000    2.038440  -21.586100
  H    -58.850300    0.945387  -19.278400
  C    -56.108600    0.138913  -19.834300
  H    -56.023800   -0.721394  -20.489900
  H    -56.623700   -0.135161  -18.896300
  C    -54.691400    0.577426  -19.535300
  H    -54.630900    1.538800  -19.029700
  H    -54.304200    0.732020  -20.560200
  C    -53.854200   -0.544717  -18.847100
  H    -52.788300   -0.345662  -18.596400
  H    -53.914000   -1.486070  -19.464400
  H    -54.353000   -0.717939  -17.883500
  H    -52.359000    2.782440  -24.417700
  H    -59.908700    2.883010  -20.601800

 Total Charge           Charge          ....    0
 Multiplicity           Mult            ....    1
 Number of Electrons    NEL             ....  134
 Basis Dimension        Dim             ....  322

ORBITAL ENERGIES
----------------

  NO   OCC          E(Eh)            E(eV)
   0   2.0000     -88.971838     -2421.0468
   1   2.0000     -88.966197     -2420.8933
   2   2.0000     -10.334471      -281.2152
   3   2.0000     -10.331311      -281.1293
   4   2.0000     -10.326495      -280.9982
   5   2.0000     -10.325696      -280.9765
   6   2.0000     -10.313160      -280.6353
   7   2.0000     -10.310674      -280.5677
   8   2.0000     -10.305079      -280.4154
   9   2.0000     -10.304513      -280.4000
  10   2.0000     -10.296848      -280.1915
  11   2.0000     -10.294811      -280.1360
  12   2.0000     -10.290626      -280.0222
  13   2.0000     -10.290081      -280.0073
  14   2.0000     -10.283133      -279.8183
  15   2.0000     -10.279495      -279.7193
  16   2.0000      -8.085549      -220.0190
  17   2.0000      -8.080184      -219.8730
  18   2.0000      -6.044030      -164.4664
  19   2.0000      -6.040088      -164.3591
  20   2.0000      -6.038881      -164.3263
  21   2.0000      -6.036510      -164.2618
  22   2.0000      -6.034705      -164.2127
  23   2.0000      -6.030865      -164.1082
  24   2.0000      -0.998475       -27.1699
  25   2.0000      -0.974341       -26.5132
  26   2.0000      -0.908344       -24.7173
  27   2.0000      -0.907769       -24.7016
  28   2.0000      -0.862425       -23.4678
  29   2.0000      -0.843912       -22.9640
  30   2.0000      -0.840105       -22.8604
  31   2.0000      -0.808816       -22.0090
  32   2.0000      -0.779833       -21.2203
  33   2.0000      -0.766498       -20.8575
  34   2.0000      -0.709795       -19.3145
  35   2.0000      -0.697458       -18.9788
  36   2.0000      -0.680701       -18.5228
  37   2.0000      -0.655511       -17.8374
  38   2.0000      -0.639139       -17.3918
  39   2.0000      -0.613400       -16.6915
  40   2.0000      -0.589776       -16.0486
  41   2.0000      -0.567825       -15.4513
  42   2.0000      -0.563122       -15.3233
  43   2.0000      -0.559639       -15.2286
  44   2.0000      -0.527458       -14.3529
  45   2.0000      -0.515427       -14.0255
  46   2.0000      -0.507202       -13.8017
  47   2.0000      -0.506322       -13.7777
  48   2.0000      -0.498364       -13.5612
  49   2.0000      -0.494840       -13.4653
  50   2.0000      -0.491854       -13.3840
  51   2.0000      -0.484801       -13.1921
  52   2.0000      -0.478446       -13.0192
  53   2.0000      -0.461910       -12.5692
  54   2.0000      -0.454102       -12.3568
  55   2.0000      -0.446902       -12.1608
  56   2.0000      -0.445246       -12.1158
  57   2.0000      -0.439018       -11.9463
  58   2.0000      -0.433196       -11.7879
  59   2.0000      -0.421334       -11.4651
  60   2.0000      -0.418549       -11.3893
  61   2.0000      -0.415410       -11.3039
  62   2.0000      -0.407439       -11.0870
  63   2.0000      -0.340199        -9.2573
  64   2.0000      -0.330667        -8.9979
  65   2.0000      -0.327362        -8.9080
  66   2.0000      -0.295403        -8.0383
  67   0.0000       0.029460         0.8017
  68   0.0000       0.056261         1.5309
  69   0.0000       0.110919         3.0183
  70   0.0000       0.121436         3.3045
  71   0.0000       0.125380         3.4118

MULLIKEN ATOMIC CHARGES
-----------------------
   0 S :    0.120921
   1 C :   -0.145751
   2 C :   -0.099138
   3 C :    0.015710
   4 C :   -0.188547
   5 H :    0.040489
   6 C :    0.121929
   7 H :    0.018257
   8 H :    0.037513
   9 C :   -0.133623
  10 H :    0.036870
  11 H :    0.026637
  12 C :   -0.065721
  13 H :    0.036740
  14 H :    0.051825
  15 H :    0.039242
  16 S :    0.107218
  17 C :   -0.114057
  18 C :   -0.060074
  19 C :   -0.045658
  20 C :   -0.150543
  21 H :    0.047699
  22 C :    0.086461
  23 H :    0.027640
  24 H :    0.017305
  25 C :   -0.112660
  26 H :    0.036731
  27 H :    0.049351
  28 C :   -0.054635
  29 H :    0.046762
  30 H :    0.032481
  31 H :    0.024723
  32 H :    0.069709
  33 H :    0.078194
Sum of atomic charges:   -0.0000000

LOEWDIN ATOMIC CHARGES
----------------------
   0 S :    0.403820
   1 C :   -0.203864
   2 C :   -0.057389
   3 C :   -0.068030
   4 C :   -0.204602
   5 H :    0.041712
   6 C :   -0.029540
   7 H :    0.030362
   8 H :    0.034357
   9 C :   -0.048547
  10 H :    0.027098
  11 H :    0.020963
  12 C :   -0.067269
  13 H :    0.023952
  14 H :    0.034423
  15 H :    0.026510
  16 S :    0.393028
  17 C :   -0.191711
  18 C :   -0.081405
  19 C :   -0.049047
  20 C :   -0.198921
  21 H :    0.043257
  22 C :   -0.029657
  23 H :    0.032227
  24 H :    0.026972
  25 C :   -0.047265
  26 H :    0.023506
  27 H :    0.028516
  28 C :   -0.072760
  29 H :    0.030007
  30 H :    0.028727
  31 H :    0.022335
  32 H :    0.037203
  33 H :    0.041032

  Mayer bond orders larger than 0.100000
B(  0-S ,  1-C ) :   1.1515 B(  0-S ,  4-C ) :   1.1497 B(  1-C ,  2-C ) :   1.5847
B(  1-C ,  4-C ) :   0.1070 B(  1-C , 32-H ) :   0.9613 B(  2-C ,  3-C ) :   1.2553
B(  2-C ,  6-C ) :   1.0177 B(  3-C ,  4-C ) :   1.5666 B(  3-C ,  5-H ) :   0.9784
B(  4-C , 20-C ) :   1.0342 B(  6-C ,  7-H ) :   0.9451 B(  6-C ,  8-H ) :   0.9277
B(  6-C ,  9-C ) :   1.0630 B(  9-C , 10-H ) :   0.9604 B(  9-C , 11-H ) :   0.9514
B(  9-C , 12-C ) :   1.0714 B( 12-C , 13-H ) :   0.9784 B( 12-C , 14-H ) :   0.9762
B( 12-C , 15-H ) :   0.9775 B( 16-S , 17-C ) :   1.1626 B( 16-S , 20-C ) :   1.1185
B( 17-C , 18-C ) :   1.6117 B( 17-C , 33-H ) :   0.9575 B( 18-C , 19-C ) :   1.2379
B( 18-C , 21-H ) :   0.9784 B( 19-C , 20-C ) :   1.6031 B( 19-C , 22-C ) :   1.0414
B( 22-C , 23-H ) :   0.9234 B( 22-C , 24-H ) :   0.9395 B( 22-C , 25-C ) :   1.0588
B( 25-C , 26-H ) :   0.9628 B( 25-C , 27-H ) :   0.9464 B( 25-C , 28-C ) :   1.0765
B( 28-C , 29-H ) :   0.9760 B( 28-C , 30-H ) :   0.9722 B( 28-C , 31-H ) :   0.9754

Dispersion correction           -0.014394747
FINAL SINGLE POINT ENERGY     -1339.881966222148

DIPOLE MOMENT
-------------
                                X             Y             Z
Electronic contribution:    -14.70813      26.26932      -0.84625
Nuclear contribution   :     14.86507     -26.88675       0.85817
                        -----------------------------------------
Total Dipole Moment    :      0.15693      -0.61743       0.01193
                        -----------------------------------------
Magnitude (a.u.)       :      0.63717
Magnitude (Debye)      :      1.61956

Rotational constants in cm-1:     0.017456     0.008550     0.007144
Rotational constants in MHz :   523.311494   256.320958   214.182016

                             ****ORCA TERMINATED NORMALLY****
TOTAL RUN TIME: 0 days 0 hours 0 minutes 20 seconds 425 msec
