                         Program Version 4.2.1 -  RELEASE  -
|  1> ! wB97X-D3 SP def2-SVP
|  2> %pal
|  3> nprocs 24
|  4> end
|  5>
|  6> * xyz 0 1
|  7> S 	 -68.8732 	 9.48461 	 -100.335
|  8> C 	 -67.6165 	 10.7065 	 -100.519
|  9> C 	 -66.727 	 10.3962 	 -101.563
| 10> C 	 -67.1497 	 9.22123 	 -102.268
| 11> C 	 -68.2535 	 8.52997 	 -101.679
| 12> H 	 -66.7104 	 8.79498 	 -103.145
| 13> C 	 -65.564 	 11.2552 	 -101.98
| 14> H 	 -65.2937 	 11.9084 	 -101.121
| 15> H 	 -65.9116 	 11.928 	 -102.779
| 16> C 	 -64.213 	 10.6619 	 -102.424
| 17> H 	 -63.8624 	 10.0229 	 -101.601
| 18> H 	 -64.3139 	 9.90506 	 -103.17
| 19> C 	 -63.1919 	 11.6624 	 -102.858
| 20> H 	 -63.1619 	 12.4496 	 -102.136
| 21> H 	 -62.2034 	 11.4053 	 -103.238
| 22> H 	 -63.6255 	 12.1725 	 -103.736
| 23> S 	 -68.2289 	 5.94493 	 -101.152
| 24> C 	 -69.1651 	 4.81681 	 -102.03
| 25> C 	 -69.7002 	 5.4503 	 -103.122
| 26> C 	 -69.3703 	 6.80755 	 -103.271
| 27> C 	 -68.7418 	 7.22558 	 -102.103
| 28> H 	 -70.3796 	 5.00637 	 -103.876
| 29> C 	 -69.9308 	 7.77939 	 -104.236
| 30> H 	 -70.1489 	 7.19628 	 -105.128
| 31> H 	 -69.1061 	 8.40982 	 -104.527
| 32> C 	 -71.2559 	 8.51587 	 -103.798
| 33> H 	 -71.0938 	 9.40299 	 -103.234
| 34> H 	 -71.8618 	 7.77037 	 -103.216
| 35> C 	 -72.0332 	 8.92766 	 -105.103
| 36> H 	 -71.3661 	 9.65703 	 -105.616
| 37> H 	 -73.0142 	 9.38946 	 -104.922
| 38> H 	 -72.2463 	 8.05009 	 -105.746
| 39> H 	 -67.4282 	 11.5622 	 -99.9294
| 40> H 	 -69.2824 	 3.7279 	 -101.779
| 41> *
| 42>
| 43>                          ****END OF INPUT****

CARTESIAN COORDINATES (ANGSTROEM)
---------------------------------
  S    -68.873200    9.484610  -100.335000
  C    -67.616500   10.706500  -100.519000
  C    -66.727000   10.396200  -101.563000
  C    -67.149700    9.221230  -102.268000
  C    -68.253500    8.529970  -101.679000
  H    -66.710400    8.794980  -103.145000
  C    -65.564000   11.255200  -101.980000
  H    -65.293700   11.908400  -101.121000
  H    -65.911600   11.928000  -102.779000
  C    -64.213000   10.661900  -102.424000
  H    -63.862400   10.022900  -101.601000
  H    -64.313900    9.905060  -103.170000
  C    -63.191900   11.662400  -102.858000
  H    -63.161900   12.449600  -102.136000
  H    -62.203400   11.405300  -103.238000
  H    -63.625500   12.172500  -103.736000
  S    -68.228900    5.944930  -101.152000
  C    -69.165100    4.816810  -102.030000
  C    -69.700200    5.450300  -103.122000
  C    -69.370300    6.807550  -103.271000
  C    -68.741800    7.225580  -102.103000
  H    -70.379600    5.006370  -103.876000
  C    -69.930800    7.779390  -104.236000
  H    -70.148900    7.196280  -105.128000
  H    -69.106100    8.409820  -104.527000
  C    -71.255900    8.515870  -103.798000
  H    -71.093800    9.402990  -103.234000
  H    -71.861800    7.770370  -103.216000
  C    -72.033200    8.927660  -105.103000
  H    -71.366100    9.657030  -105.616000
  H    -73.014200    9.389460  -104.922000
  H    -72.246300    8.050090  -105.746000
  H    -67.428200   11.562200  -99.929400
  H    -69.282400    3.727900  -101.779000

 Total Charge           Charge          ....    0
 Multiplicity           Mult            ....    1
 Number of Electrons    NEL             ....  134
 Basis Dimension        Dim             ....  322

ORBITAL ENERGIES
----------------

  NO   OCC          E(Eh)            E(eV)
   0   2.0000     -88.972461     -2421.0638
   1   2.0000     -88.962934     -2420.8045
   2   2.0000     -10.332099      -281.1507
   3   2.0000     -10.315870      -280.7091
   4   2.0000     -10.315805      -280.7073
   5   2.0000     -10.314595      -280.6744
   6   2.0000     -10.306428      -280.4522
   7   2.0000     -10.298476      -280.2358
   8   2.0000     -10.296946      -280.1941
   9   2.0000     -10.293271      -280.0942
  10   2.0000     -10.291124      -280.0357
  11   2.0000     -10.291033      -280.0332
  12   2.0000     -10.287595      -279.9397
  13   2.0000     -10.285029      -279.8699
  14   2.0000     -10.283235      -279.8211
  15   2.0000     -10.278318      -279.6873
  16   2.0000      -8.085981      -220.0307
  17   2.0000      -8.079916      -219.8657
  18   2.0000      -6.044533      -164.4801
  19   2.0000      -6.040460      -164.3693
  20   2.0000      -6.038205      -164.3079
  21   2.0000      -6.036967      -164.2742
  22   2.0000      -6.033906      -164.1909
  23   2.0000      -6.030959      -164.1107
  24   2.0000      -1.016769       -27.6677
  25   2.0000      -0.982916       -26.7465
  26   2.0000      -0.914655       -24.8890
  27   2.0000      -0.906857       -24.6768
  28   2.0000      -0.872344       -23.7377
  29   2.0000      -0.850066       -23.1315
  30   2.0000      -0.849877       -23.1263
  31   2.0000      -0.810963       -22.0674
  32   2.0000      -0.780686       -21.2436
  33   2.0000      -0.768358       -20.9081
  34   2.0000      -0.711106       -19.3502
  35   2.0000      -0.701014       -19.0756
  36   2.0000      -0.693109       -18.8605
  37   2.0000      -0.662715       -18.0334
  38   2.0000      -0.641430       -17.4542
  39   2.0000      -0.616554       -16.7773
  40   2.0000      -0.597007       -16.2454
  41   2.0000      -0.569938       -15.5088
  42   2.0000      -0.565561       -15.3897
  43   2.0000      -0.562098       -15.2955
  44   2.0000      -0.530518       -14.4361
  45   2.0000      -0.524414       -14.2700
  46   2.0000      -0.514420       -13.9981
  47   2.0000      -0.507973       -13.8226
  48   2.0000      -0.501356       -13.6426
  49   2.0000      -0.497100       -13.5268
  50   2.0000      -0.493754       -13.4357
  51   2.0000      -0.479428       -13.0459
  52   2.0000      -0.469876       -12.7860
  53   2.0000      -0.462764       -12.5924
  54   2.0000      -0.460065       -12.5190
  55   2.0000      -0.453407       -12.3378
  56   2.0000      -0.441569       -12.0157
  57   2.0000      -0.436994       -11.8912
  58   2.0000      -0.431807       -11.7501
  59   2.0000      -0.427902       -11.6438
  60   2.0000      -0.426857       -11.6154
  61   2.0000      -0.418701       -11.3934
  62   2.0000      -0.410359       -11.1664
  63   2.0000      -0.338394        -9.2082
  64   2.0000      -0.328498        -8.9389
  65   2.0000      -0.323787        -8.8107
  66   2.0000      -0.300469        -8.1762
  67   0.0000       0.035356         0.9621
  68   0.0000       0.061124         1.6633
  69   0.0000       0.118610         3.2276
  70   0.0000       0.123574         3.3626
  71   0.0000       0.128615         3.4998

MULLIKEN ATOMIC CHARGES
-----------------------
   0 S :    0.131454
   1 C :   -0.098926
   2 C :   -0.071129
   3 C :    0.054897
   4 C :   -0.188827
   5 H :    0.007193
   6 C :    0.023399
   7 H :    0.022686
   8 H :    0.043805
   9 C :   -0.057086
  10 H :    0.025044
  11 H :    0.014392
  12 C :   -0.022464
  13 H :    0.015455
  14 H :    0.043852
  15 H :    0.013177
  16 S :    0.138494
  17 C :   -0.102285
  18 C :   -0.047819
  19 C :   -0.050986
  20 C :   -0.197322
  21 H :    0.017964
  22 C :    0.096094
  23 H :    0.006475
  24 H :    0.019398
  25 C :   -0.045971
  26 H :    0.039118
  27 H :    0.040936
  28 C :   -0.094270
  29 H :    0.041188
  30 H :    0.039456
  31 H :    0.036954
  32 H :    0.029771
  33 H :    0.075882
Sum of atomic charges:   -0.0000000

LOEWDIN ATOMIC CHARGES
----------------------
   0 S :    0.411585
   1 C :   -0.193420
   2 C :   -0.061414
   3 C :   -0.054774
   4 C :   -0.205091
   5 H :    0.025219
   6 C :   -0.035465
   7 H :    0.033400
   8 H :    0.035336
   9 C :   -0.046651
  10 H :    0.025572
  11 H :    0.016452
  12 C :   -0.065776
  13 H :    0.020485
  14 H :    0.031919
  15 H :    0.028304
  16 S :    0.467670
  17 C :   -0.216191
  18 C :   -0.076475
  19 C :   -0.066688
  20 C :   -0.226484
  21 H :    0.032947
  22 C :   -0.033280
  23 H :    0.028222
  24 H :    0.031002
  25 C :   -0.027965
  26 H :    0.021731
  27 H :    0.029410
  28 C :   -0.072231
  29 H :    0.028928
  30 H :    0.024845
  31 H :    0.024125
  32 H :    0.021720
  33 H :    0.043033

  Mayer bond orders larger than 0.100000
B(  0-S ,  1-C ) :   1.1452 B(  0-S ,  4-C ) :   1.1543 B(  1-C ,  2-C ) :   1.5926
B(  1-C ,  4-C ) :   0.1076 B(  1-C , 32-H ) :   0.9690 B(  2-C ,  3-C ) :   1.2527
B(  2-C ,  6-C ) :   1.0289 B(  3-C ,  4-C ) :   1.5571 B(  3-C ,  5-H ) :   0.9924
B(  4-C , 20-C ) :   1.0204 B(  6-C ,  7-H ) :   0.9398 B(  6-C ,  8-H ) :   0.9372
B(  6-C ,  9-C ) :   1.0555 B(  9-C , 10-H ) :   0.9520 B(  9-C , 11-H ) :   0.9515
B(  9-C , 12-C ) :   1.0826 B( 12-C , 13-H ) :   0.9733 B( 12-C , 14-H ) :   0.9734
B( 12-C , 15-H ) :   0.9680 B( 16-S , 17-C ) :   1.1669 B( 16-S , 20-C ) :   1.2130
B( 17-C , 18-C ) :   1.5546 B( 17-C , 20-C ) :   0.1042 B( 17-C , 33-H ) :   0.9665
B( 18-C , 19-C ) :   1.2925 B( 18-C , 21-H ) :   0.9825 B( 19-C , 20-C ) :   1.5191
B( 19-C , 22-C ) :   1.0813 B( 22-C , 23-H ) :   0.9302 B( 22-C , 24-H ) :   0.9118
B( 22-C , 25-C ) :   1.0403 B( 25-C , 26-H ) :   0.9567 B( 25-C , 27-H ) :   0.9618
B( 25-C , 28-C ) :   1.0726 B( 28-C , 29-H ) :   0.9769 B( 28-C , 30-H ) :   0.9761
B( 28-C , 31-H ) :   0.9782

Dispersion correction           -0.014056696
FINAL SINGLE POINT ENERGY     -1339.873694865047

DIPOLE MOMENT
-------------
                                X             Y             Z
Electronic contribution:     -5.59664     -14.55050      17.73461
Nuclear contribution   :      5.74579      14.76002     -18.19200
                        -----------------------------------------
Total Dipole Moment    :      0.14914       0.20951      -0.45740
                        -----------------------------------------
Magnitude (a.u.)       :      0.52474
Magnitude (Debye)      :      1.33378

Rotational constants in cm-1:     0.018086     0.007739     0.006960
Rotational constants in MHz :   542.210949   232.016991   208.664631

                             ****ORCA TERMINATED NORMALLY****
TOTAL RUN TIME: 0 days 0 hours 0 minutes 21 seconds 102 msec
