                         Program Version 4.2.1 -  RELEASE  -
|  1> ! wB97X-D3 SP def2-SVP
|  2> %pal
|  3> nprocs 24
|  4> end
|  5>
|  6> * xyz 0 1
|  7> S 	 -137.009 	 25.8946 	 -16.2122
|  8> C 	 -138.197 	 24.6132 	 -16.6502
|  9> C 	 -137.602 	 23.6365 	 -17.3958
| 10> C 	 -136.165 	 23.7545 	 -17.4021
| 11> C 	 -135.695 	 24.8924 	 -16.7885
| 12> H 	 -135.383 	 23.1199 	 -17.773
| 13> C 	 -138.297 	 22.4624 	 -18.1156
| 14> H 	 -138.498 	 22.8027 	 -19.1692
| 15> H 	 -139.298 	 22.3524 	 -17.76
| 16> C 	 -137.54 	 21.156 	 -18.1122
| 17> H 	 -138.023 	 20.4998 	 -18.7861
| 18> H 	 -136.583 	 21.2671 	 -18.5881
| 19> C 	 -137.582 	 20.3519 	 -16.7496
| 20> H 	 -136.838 	 20.864 	 -16.1521
| 21> H 	 -138.551 	 20.1704 	 -16.3108
| 22> H 	 -137.172 	 19.4461 	 -17.0097
| 23> S 	 -132.928 	 24.5876 	 -16.2513
| 24> C 	 -131.825 	 25.7936 	 -16.7352
| 25> C 	 -132.414 	 26.6978 	 -17.5372
| 26> C 	 -133.844 	 26.5773 	 -17.5913
| 27> C 	 -134.351 	 25.4564 	 -16.8999
| 28> H 	 -131.754 	 27.4363 	 -17.9812
| 29> C 	 -134.73 	 27.5416 	 -18.3485
| 30> H 	 -134.725 	 28.4368 	 -17.6883
| 31> H 	 -135.762 	 27.1212 	 -18.3577
| 32> C 	 -134.303 	 27.9371 	 -19.7379
| 33> H 	 -134.015 	 27.1969 	 -20.5089
| 34> H 	 -133.288 	 28.3073 	 -19.6976
| 35> C 	 -135.147 	 29.0562 	 -20.3072
| 36> H 	 -135.164 	 29.9275 	 -19.6846
| 37> H 	 -136.184 	 28.8484 	 -20.6074
| 38> H 	 -134.711 	 29.4487 	 -21.2322
| 39> H 	 -139.277 	 24.6607 	 -16.5218
| 40> H 	 -130.754 	 25.6923 	 -16.5529
| 41> *
| 42>
| 43>                          ****END OF INPUT****

CARTESIAN COORDINATES (ANGSTROEM)
---------------------------------
  S    -137.009000   25.894600  -16.212200
  C    -138.197000   24.613200  -16.650200
  C    -137.602000   23.636500  -17.395800
  C    -136.165000   23.754500  -17.402100
  C    -135.695000   24.892400  -16.788500
  H    -135.383000   23.119900  -17.773000
  C    -138.297000   22.462400  -18.115600
  H    -138.498000   22.802700  -19.169200
  H    -139.298000   22.352400  -17.760000
  C    -137.540000   21.156000  -18.112200
  H    -138.023000   20.499800  -18.786100
  H    -136.583000   21.267100  -18.588100
  C    -137.582000   20.351900  -16.749600
  H    -136.838000   20.864000  -16.152100
  H    -138.551000   20.170400  -16.310800
  H    -137.172000   19.446100  -17.009700
  S    -132.928000   24.587600  -16.251300
  C    -131.825000   25.793600  -16.735200
  C    -132.414000   26.697800  -17.537200
  C    -133.844000   26.577300  -17.591300
  C    -134.351000   25.456400  -16.899900
  H    -131.754000   27.436300  -17.981200
  C    -134.730000   27.541600  -18.348500
  H    -134.725000   28.436800  -17.688300
  H    -135.762000   27.121200  -18.357700
  C    -134.303000   27.937100  -19.737900
  H    -134.015000   27.196900  -20.508900
  H    -133.288000   28.307300  -19.697600
  C    -135.147000   29.056200  -20.307200
  H    -135.164000   29.927500  -19.684600
  H    -136.184000   28.848400  -20.607400
  H    -134.711000   29.448700  -21.232200
  H    -139.277000   24.660700  -16.521800
  H    -130.754000   25.692300  -16.552900

 Total Charge           Charge          ....    0
 Multiplicity           Mult            ....    1
 Number of Electrons    NEL             ....  134
 Basis Dimension        Dim             ....  322

ORBITAL ENERGIES
----------------

  NO   OCC          E(Eh)            E(eV)
   0   2.0000     -88.966097     -2420.8906
   1   2.0000     -88.959435     -2420.7093
   2   2.0000     -10.329517      -281.0805
   3   2.0000     -10.329315      -281.0750
   4   2.0000     -10.316598      -280.7289
   5   2.0000     -10.312371      -280.6139
   6   2.0000     -10.306491      -280.4539
   7   2.0000     -10.304906      -280.4107
   8   2.0000     -10.294175      -280.1188
   9   2.0000     -10.293415      -280.0981
  10   2.0000     -10.290578      -280.0209
  11   2.0000     -10.290419      -280.0165
  12   2.0000     -10.283626      -279.8317
  13   2.0000     -10.282799      -279.8092
  14   2.0000     -10.273444      -279.5546
  15   2.0000     -10.271664      -279.5062
  16   2.0000      -8.079730      -219.8606
  17   2.0000      -8.074755      -219.7253
  18   2.0000      -6.038421      -164.3138
  19   2.0000      -6.034447      -164.2057
  20   2.0000      -6.033234      -164.1726
  21   2.0000      -6.030278      -164.0922
  22   2.0000      -6.029170      -164.0621
  23   2.0000      -6.025521      -163.9627
  24   2.0000      -1.004469       -27.3330
  25   2.0000      -0.983878       -26.7727
  26   2.0000      -0.912160       -24.8211
  27   2.0000      -0.909649       -24.7528
  28   2.0000      -0.871653       -23.7189
  29   2.0000      -0.848741       -23.0954
  30   2.0000      -0.841407       -22.8958
  31   2.0000      -0.816821       -22.2268
  32   2.0000      -0.787747       -21.4357
  33   2.0000      -0.772833       -21.0299
  34   2.0000      -0.712687       -19.3932
  35   2.0000      -0.706405       -19.2222
  36   2.0000      -0.692509       -18.8441
  37   2.0000      -0.656054       -17.8521
  38   2.0000      -0.635739       -17.2993
  39   2.0000      -0.620822       -16.8934
  40   2.0000      -0.599557       -16.3148
  41   2.0000      -0.570713       -15.5299
  42   2.0000      -0.556519       -15.1437
  43   2.0000      -0.550449       -14.9785
  44   2.0000      -0.536855       -14.6086
  45   2.0000      -0.527775       -14.3615
  46   2.0000      -0.520103       -14.1527
  47   2.0000      -0.512945       -13.9579
  48   2.0000      -0.510230       -13.8841
  49   2.0000      -0.496269       -13.5042
  50   2.0000      -0.485965       -13.2238
  51   2.0000      -0.483255       -13.1500
  52   2.0000      -0.470999       -12.8165
  53   2.0000      -0.465520       -12.6674
  54   2.0000      -0.461721       -12.5641
  55   2.0000      -0.447998       -12.1907
  56   2.0000      -0.443153       -12.0588
  57   2.0000      -0.442031       -12.0283
  58   2.0000      -0.438595       -11.9348
  59   2.0000      -0.429896       -11.6981
  60   2.0000      -0.411876       -11.2077
  61   2.0000      -0.404062       -10.9951
  62   2.0000      -0.400469       -10.8973
  63   2.0000      -0.345380        -9.3983
  64   2.0000      -0.330051        -8.9811
  65   2.0000      -0.325157        -8.8480
  66   2.0000      -0.296058        -8.0561
  67   0.0000       0.035954         0.9784
  68   0.0000       0.066209         1.8017
  69   0.0000       0.107106         2.9145
  70   0.0000       0.125270         3.4088
  71   0.0000       0.132114         3.5950

MULLIKEN ATOMIC CHARGES
-----------------------
   0 S :    0.094067
   1 C :   -0.120280
   2 C :   -0.074270
   3 C :    0.039515
   4 C :   -0.166104
   5 H :    0.006525
   6 C :    0.086295
   7 H :    0.043331
   8 H :    0.001390
   9 C :   -0.090153
  10 H :    0.008570
  11 H :    0.028285
  12 C :    0.002571
  13 H :    0.038576
  14 H :    0.039607
  15 H :    0.010866
  16 S :    0.088367
  17 C :   -0.092762
  18 C :   -0.040737
  19 C :   -0.026109
  20 C :   -0.165884
  21 H :    0.022557
  22 C :    0.071039
  23 H :    0.043071
  24 H :    0.041230
  25 C :   -0.069010
  26 H :    0.028696
  27 H :    0.005493
  28 C :   -0.036285
  29 H :    0.018028
  30 H :    0.034269
  31 H :    0.017003
  32 H :    0.047650
  33 H :    0.064593
Sum of atomic charges:   -0.0000000

LOEWDIN ATOMIC CHARGES
----------------------
   0 S :    0.391872
   1 C :   -0.184802
   2 C :   -0.058704
   3 C :   -0.060979
   4 C :   -0.188983
   5 H :    0.029345
   6 C :   -0.030954
   7 H :    0.041550
   8 H :    0.023132
   9 C :   -0.040507
  10 H :    0.019240
  11 H :    0.023529
  12 C :   -0.049447
  13 H :    0.028762
  14 H :    0.027896
  15 H :    0.015708
  16 S :    0.399350
  17 C :   -0.191190
  18 C :   -0.084854
  19 C :   -0.050749
  20 C :   -0.197651
  21 H :    0.033841
  22 C :   -0.038201
  23 H :    0.041643
  24 H :    0.027647
  25 C :   -0.054748
  26 H :    0.032314
  27 H :    0.022639
  28 C :   -0.065432
  29 H :    0.020986
  30 H :    0.025457
  31 H :    0.027062
  32 H :    0.030967
  33 H :    0.034264

  Mayer bond orders larger than 0.100000
B(  0-S ,  1-C ) :   1.1105 B(  0-S ,  4-C ) :   1.1378 B(  1-C ,  2-C ) :   1.6606
B(  1-C , 32-H ) :   0.9666 B(  2-C ,  3-C ) :   1.1922 B(  2-C ,  6-C ) :   1.0102
B(  3-C ,  4-C ) :   1.6265 B(  3-C ,  5-H ) :   0.9890 B(  4-C , 20-C ) :   1.0150
B(  6-C ,  7-H ) :   0.9311 B(  6-C ,  8-H ) :   0.9384 B(  6-C ,  9-C ) :   1.0914
B(  9-C , 10-H ) :   0.9494 B(  9-C , 11-H ) :   0.9476 B(  9-C , 12-C ) :   1.0669
B( 12-C , 13-H ) :   0.9785 B( 12-C , 14-H ) :   0.9755 B( 12-C , 15-H ) :   0.9734
B( 16-S , 17-C ) :   1.1724 B( 16-S , 20-C ) :   1.1267 B( 17-C , 18-C ) :   1.6138
B( 17-C , 33-H ) :   0.9621 B( 18-C , 19-C ) :   1.2262 B( 18-C , 21-H ) :   0.9938
B( 19-C , 20-C ) :   1.5881 B( 19-C , 22-C ) :   1.0344 B( 22-C , 23-H ) :   0.9298
B( 22-C , 24-H ) :   0.9338 B( 22-C , 25-C ) :   1.0645 B( 25-C , 26-H ) :   0.9520
B( 25-C , 27-H ) :   0.9384 B( 25-C , 28-C ) :   1.0952 B( 28-C , 29-H ) :   0.9722
B( 28-C , 30-H ) :   0.9761 B( 28-C , 31-H ) :   0.9694

Dispersion correction           -0.014016141
FINAL SINGLE POINT ENERGY     -1339.864874438862

DIPOLE MOMENT
-------------
                                X             Y             Z
Electronic contribution:      7.78737       2.96882      15.55540
Nuclear contribution   :     -7.83815      -3.08424     -16.20598
                        -----------------------------------------
Total Dipole Moment    :     -0.05077      -0.11542      -0.65058
                        -----------------------------------------
Magnitude (a.u.)       :      0.66269
Magnitude (Debye)      :      1.68442

Rotational constants in cm-1:     0.018488     0.008297     0.006835
Rotational constants in MHz :   554.257558   248.738401   204.919048

                             ****ORCA TERMINATED NORMALLY****
TOTAL RUN TIME: 0 days 0 hours 0 minutes 21 seconds 140 msec
