                         Program Version 4.2.1 -  RELEASE  -
|  1> ! wB97X-D3 SP def2-SVP
|  2> %pal
|  3> nprocs 24
|  4> end
|  5>
|  6> * xyz 0 1
|  7> S 	 34.3116 	 -33.425 	 -131.829
|  8> C 	 34.7551 	 -33.4496 	 -130.135
|  9> C 	 35.7702 	 -34.4023 	 -129.876
| 10> C 	 36.1041 	 -35.19 	 -131.069
| 11> C 	 35.5181 	 -34.6638 	 -132.214
| 12> H 	 36.7171 	 -36.1558 	 -131.091
| 13> C 	 36.4037 	 -34.7323 	 -128.549
| 14> H 	 36.3221 	 -35.7378 	 -128.133
| 15> H 	 35.8194 	 -34.1659 	 -127.846
| 16> C 	 37.8773 	 -34.2168 	 -128.39
| 17> H 	 38.1755 	 -34.1524 	 -127.292
| 18> H 	 38.4821 	 -34.9457 	 -128.87
| 19> C 	 38.0406 	 -32.7131 	 -128.881
| 20> H 	 39.1397 	 -32.4539 	 -128.742
| 21> H 	 37.8276 	 -32.4864 	 -129.939
| 22> H 	 37.3223 	 -32.1271 	 -128.357
| 23> S 	 34.2661 	 -35.2015 	 -134.654
| 24> C 	 35.2107 	 -35.8612 	 -135.959
| 25> C 	 36.4635 	 -36.2214 	 -135.535
| 26> C 	 36.8136 	 -35.6369 	 -134.261
| 27> C 	 35.6769 	 -35.1296 	 -133.588
| 28> H 	 37.099 	 -36.6738 	 -136.339
| 29> C 	 38.1748 	 -35.8787 	 -133.644
| 30> H 	 38.2405 	 -35.461 	 -132.637
| 31> H 	 38.8932 	 -35.1691 	 -134.139
| 32> C 	 38.5948 	 -37.3091 	 -133.626
| 33> H 	 38.2835 	 -37.8807 	 -134.474
| 34> H 	 38.0986 	 -37.8151 	 -132.773
| 35> C 	 40.142 	 -37.5378 	 -133.477
| 36> H 	 40.7951 	 -37.1971 	 -134.323
| 37> H 	 40.4308 	 -38.5061 	 -133.201
| 38> H 	 40.4836 	 -36.9826 	 -132.606
| 39> H 	 34.2768 	 -32.7478 	 -129.482
| 40> H 	 34.8649 	 -36.121 	 -136.901
| 41> *
| 42>
| 43>                          ****END OF INPUT****

CARTESIAN COORDINATES (ANGSTROEM)
---------------------------------
  S     34.311600  -33.425000  -131.829000
  C     34.755100  -33.449600  -130.135000
  C     35.770200  -34.402300  -129.876000
  C     36.104100  -35.190000  -131.069000
  C     35.518100  -34.663800  -132.214000
  H     36.717100  -36.155800  -131.091000
  C     36.403700  -34.732300  -128.549000
  H     36.322100  -35.737800  -128.133000
  H     35.819400  -34.165900  -127.846000
  C     37.877300  -34.216800  -128.390000
  H     38.175500  -34.152400  -127.292000
  H     38.482100  -34.945700  -128.870000
  C     38.040600  -32.713100  -128.881000
  H     39.139700  -32.453900  -128.742000
  H     37.827600  -32.486400  -129.939000
  H     37.322300  -32.127100  -128.357000
  S     34.266100  -35.201500  -134.654000
  C     35.210700  -35.861200  -135.959000
  C     36.463500  -36.221400  -135.535000
  C     36.813600  -35.636900  -134.261000
  C     35.676900  -35.129600  -133.588000
  H     37.099000  -36.673800  -136.339000
  C     38.174800  -35.878700  -133.644000
  H     38.240500  -35.461000  -132.637000
  H     38.893200  -35.169100  -134.139000
  C     38.594800  -37.309100  -133.626000
  H     38.283500  -37.880700  -134.474000
  H     38.098600  -37.815100  -132.773000
  C     40.142000  -37.537800  -133.477000
  H     40.795100  -37.197100  -134.323000
  H     40.430800  -38.506100  -133.201000
  H     40.483600  -36.982600  -132.606000
  H     34.276800  -32.747800  -129.482000
  H     34.864900  -36.121000  -136.901000

 Total Charge           Charge          ....    0
 Multiplicity           Mult            ....    1
 Number of Electrons    NEL             ....  134
 Basis Dimension        Dim             ....  322

ORBITAL ENERGIES
----------------

  NO   OCC          E(Eh)            E(eV)
   0   2.0000     -88.967766     -2420.9360
   1   2.0000     -88.965602     -2420.8771
   2   2.0000     -10.334838      -281.2252
   3   2.0000     -10.331622      -281.1377
   4   2.0000     -10.321952      -280.8746
   5   2.0000     -10.313207      -280.6366
   6   2.0000     -10.312387      -280.6143
   7   2.0000     -10.309567      -280.5376
   8   2.0000     -10.305722      -280.4330
   9   2.0000     -10.297448      -280.2078
  10   2.0000     -10.294618      -280.1308
  11   2.0000     -10.291817      -280.0546
  12   2.0000     -10.291320      -280.0411
  13   2.0000     -10.289287      -279.9857
  14   2.0000     -10.281721      -279.7799
  15   2.0000     -10.278806      -279.7005
  16   2.0000      -8.082318      -219.9311
  17   2.0000      -8.080225      -219.8741
  18   2.0000      -6.040867      -164.3803
  19   2.0000      -6.038785      -164.3237
  20   2.0000      -6.036895      -164.2723
  21   2.0000      -6.034771      -164.2145
  22   2.0000      -6.033003      -164.1664
  23   2.0000      -6.030917      -164.1096
  24   2.0000      -1.002578       -27.2815
  25   2.0000      -0.979712       -26.6593
  26   2.0000      -0.911622       -24.8065
  27   2.0000      -0.905373       -24.6365
  28   2.0000      -0.867141       -23.5961
  29   2.0000      -0.847634       -23.0653
  30   2.0000      -0.838163       -22.8076
  31   2.0000      -0.813276       -22.1304
  32   2.0000      -0.782604       -21.2957
  33   2.0000      -0.772440       -21.0192
  34   2.0000      -0.710305       -19.3284
  35   2.0000      -0.703060       -19.1312
  36   2.0000      -0.695697       -18.9309
  37   2.0000      -0.653769       -17.7900
  38   2.0000      -0.640253       -17.4222
  39   2.0000      -0.620635       -16.8883
  40   2.0000      -0.600504       -16.3405
  41   2.0000      -0.562616       -15.3096
  42   2.0000      -0.557124       -15.1601
  43   2.0000      -0.550294       -14.9743
  44   2.0000      -0.537655       -14.6303
  45   2.0000      -0.527295       -14.3484
  46   2.0000      -0.517715       -14.0877
  47   2.0000      -0.512067       -13.9340
  48   2.0000      -0.502099       -13.6628
  49   2.0000      -0.500103       -13.6085
  50   2.0000      -0.490094       -13.3361
  51   2.0000      -0.481041       -13.0898
  52   2.0000      -0.463013       -12.5992
  53   2.0000      -0.460186       -12.5223
  54   2.0000      -0.455395       -12.3919
  55   2.0000      -0.450223       -12.2512
  56   2.0000      -0.445078       -12.1112
  57   2.0000      -0.439380       -11.9561
  58   2.0000      -0.427293       -11.6272
  59   2.0000      -0.425364       -11.5747
  60   2.0000      -0.418002       -11.3744
  61   2.0000      -0.415593       -11.3088
  62   2.0000      -0.413581       -11.2541
  63   2.0000      -0.354380        -9.6432
  64   2.0000      -0.331946        -9.0327
  65   2.0000      -0.326814        -8.8931
  66   2.0000      -0.286239        -7.7890
  67   0.0000       0.020626         0.5613
  68   0.0000       0.076370         2.0781
  69   0.0000       0.097590         2.6555
  70   0.0000       0.115580         3.1451
  71   0.0000       0.125867         3.4250

MULLIKEN ATOMIC CHARGES
-----------------------
   0 S :    0.101045
   1 C :   -0.115839
   2 C :   -0.096980
   3 C :   -0.006274
   4 C :   -0.143082
   5 H :    0.057170
   6 C :    0.071654
   7 H :    0.041865
   8 H :   -0.000696
   9 C :   -0.096328
  10 H :    0.045699
  11 H :    0.027706
  12 C :   -0.072325
  13 H :    0.048713
  14 H :    0.048898
  15 H :    0.023811
  16 S :    0.099961
  17 C :   -0.059876
  18 C :   -0.066923
  19 C :   -0.044070
  20 C :   -0.125530
  21 H :    0.046195
  22 C :    0.058659
  23 H :    0.014545
  24 H :    0.035982
  25 C :   -0.065425
  26 H :    0.031020
  27 H :    0.029320
  28 C :   -0.045575
  29 H :    0.044047
  30 H :    0.017244
  31 H :    0.014347
  32 H :    0.050905
  33 H :    0.030136
Sum of atomic charges:   -0.0000000

LOEWDIN ATOMIC CHARGES
----------------------
   0 S :    0.395480
   1 C :   -0.192293
   2 C :   -0.055056
   3 C :   -0.068212
   4 C :   -0.184763
   5 H :    0.048406
   6 C :   -0.042279
   7 H :    0.034411
   8 H :    0.024226
   9 C :   -0.036633
  10 H :    0.033889
  11 H :    0.012580
  12 C :   -0.071200
  13 H :    0.034946
  14 H :    0.027717
  15 H :    0.019182
  16 S :    0.395020
  17 C :   -0.173273
  18 C :   -0.078088
  19 C :   -0.050934
  20 C :   -0.195405
  21 H :    0.042372
  22 C :   -0.043024
  23 H :    0.028752
  24 H :    0.038431
  25 C :   -0.037474
  26 H :    0.019828
  27 H :    0.029291
  28 C :   -0.067136
  29 H :    0.031116
  30 H :    0.017343
  31 H :    0.022789
  32 H :    0.023487
  33 H :    0.016502

  Mayer bond orders larger than 0.100000
B(  0-S ,  1-C ) :   1.1380 B(  0-S ,  4-C ) :   1.1456 B(  1-C ,  2-C ) :   1.5970
B(  1-C , 32-H ) :   0.9721 B(  2-C ,  3-C ) :   1.2161 B(  2-C ,  6-C ) :   1.0359
B(  3-C ,  4-C ) :   1.5790 B(  3-C ,  5-H ) :   0.9740 B(  4-C , 20-C ) :   1.0671
B(  6-C ,  7-H ) :   0.9493 B(  6-C ,  8-H ) :   0.9316 B(  6-C ,  9-C ) :   1.0534
B(  9-C , 10-H ) :   0.9607 B(  9-C , 11-H ) :   0.9630 B(  9-C , 12-C ) :   1.0621
B( 12-C , 13-H ) :   0.9764 B( 12-C , 14-H ) :   0.9720 B( 12-C , 15-H ) :   0.9775
B( 16-S , 17-C ) :   1.1488 B( 16-S , 20-C ) :   1.1304 B( 17-C , 18-C ) :   1.6438
B( 17-C , 33-H ) :   0.9719 B( 18-C , 19-C ) :   1.2220 B( 18-C , 21-H ) :   0.9728
B( 19-C , 20-C ) :   1.5827 B( 19-C , 22-C ) :   1.0516 B( 22-C , 23-H ) :   0.9300
B( 22-C , 24-H ) :   0.9293 B( 22-C , 25-C ) :   1.0494 B( 25-C , 26-H ) :   0.9599
B( 25-C , 27-H ) :   0.9509 B( 25-C , 28-C ) :   1.0752 B( 28-C , 29-H ) :   0.9775
B( 28-C , 30-H ) :   0.9745 B( 28-C , 31-H ) :   0.9729

Dispersion correction           -0.014532602
FINAL SINGLE POINT ENERGY     -1339.866656736342

DIPOLE MOMENT
-------------
                                X             Y             Z
Electronic contribution:    -26.60029       6.19727     -13.85791
Nuclear contribution   :     27.11421      -6.52476      14.10127
                        -----------------------------------------
Total Dipole Moment    :      0.51392      -0.32750       0.24336
                        -----------------------------------------
Magnitude (a.u.)       :      0.65619
Magnitude (Debye)      :      1.66791

Rotational constants in cm-1:     0.016781     0.009938     0.006663
Rotational constants in MHz :   503.076814   297.933483   199.763195

                             ****ORCA TERMINATED NORMALLY****
TOTAL RUN TIME: 0 days 0 hours 0 minutes 21 seconds 843 msec
