                         Program Version 4.2.1 -  RELEASE  -
|  1> ! wB97X-D3 SP def2-SVP
|  2> %pal
|  3> nprocs 24
|  4> end
|  5>
|  6> * xyz 0 1
|  7> S 	 -115.388 	 21.9842 	 -115.333
|  8> C 	 -117.075 	 21.7932 	 -115.733
|  9> C 	 -117.823 	 22.8988 	 -115.423
| 10> C 	 -117.038 	 23.8724 	 -114.706
| 11> C 	 -115.674 	 23.5234 	 -114.557
| 12> H 	 -117.315 	 24.8395 	 -114.293
| 13> C 	 -119.344 	 22.9912 	 -115.633
| 14> H 	 -119.641 	 22.7027 	 -116.656
| 15> H 	 -119.649 	 24.0092 	 -115.685
| 16> C 	 -120.193 	 22.2366 	 -114.559
| 17> H 	 -119.92 	 22.3591 	 -113.48
| 18> H 	 -121.205 	 22.5476 	 -114.782
| 19> C 	 -120.109 	 20.7368 	 -114.699
| 20> H 	 -120.482 	 20.3583 	 -115.624
| 21> H 	 -119.084 	 20.4271 	 -114.54
| 22> H 	 -120.806 	 20.2521 	 -113.964
| 23> S 	 -114.279 	 25.7829 	 -114.933
| 24> C 	 -113.218 	 26.4126 	 -113.664
| 25> C 	 -113.404 	 25.6481 	 -112.535
| 26> C 	 -114.19 	 24.5162 	 -112.695
| 27> C 	 -114.667 	 24.3673 	 -113.987
| 28> H 	 -112.781 	 26.0921 	 -111.726
| 29> C 	 -114.563 	 23.5564 	 -111.578
| 30> H 	 -115.566 	 23.2246 	 -111.824
| 31> H 	 -114.796 	 24.1579 	 -110.708
| 32> C 	 -113.688 	 22.4241 	 -111.135
| 33> H 	 -114.385 	 21.8374 	 -110.537
| 34> H 	 -112.926 	 22.6983 	 -110.461
| 35> C 	 -113.064 	 21.6084 	 -112.381
| 36> H 	 -113.907 	 21.4919 	 -113.044
| 37> H 	 -112.545 	 20.6514 	 -112.226
| 38> H 	 -112.354 	 22.2141 	 -112.919
| 39> H 	 -117.473 	 21.046 	 -116.403
| 40> H 	 -112.516 	 27.2972 	 -113.632
| 41> *
| 42>
| 43>                          ****END OF INPUT****

CARTESIAN COORDINATES (ANGSTROEM)
---------------------------------
  S    -115.388000   21.984200  -115.333000
  C    -117.075000   21.793200  -115.733000
  C    -117.823000   22.898800  -115.423000
  C    -117.038000   23.872400  -114.706000
  C    -115.674000   23.523400  -114.557000
  H    -117.315000   24.839500  -114.293000
  C    -119.344000   22.991200  -115.633000
  H    -119.641000   22.702700  -116.656000
  H    -119.649000   24.009200  -115.685000
  C    -120.193000   22.236600  -114.559000
  H    -119.920000   22.359100  -113.480000
  H    -121.205000   22.547600  -114.782000
  C    -120.109000   20.736800  -114.699000
  H    -120.482000   20.358300  -115.624000
  H    -119.084000   20.427100  -114.540000
  H    -120.806000   20.252100  -113.964000
  S    -114.279000   25.782900  -114.933000
  C    -113.218000   26.412600  -113.664000
  C    -113.404000   25.648100  -112.535000
  C    -114.190000   24.516200  -112.695000
  C    -114.667000   24.367300  -113.987000
  H    -112.781000   26.092100  -111.726000
  C    -114.563000   23.556400  -111.578000
  H    -115.566000   23.224600  -111.824000
  H    -114.796000   24.157900  -110.708000
  C    -113.688000   22.424100  -111.135000
  H    -114.385000   21.837400  -110.537000
  H    -112.926000   22.698300  -110.461000
  C    -113.064000   21.608400  -112.381000
  H    -113.907000   21.491900  -113.044000
  H    -112.545000   20.651400  -112.226000
  H    -112.354000   22.214100  -112.919000
  H    -117.473000   21.046000  -116.403000
  H    -112.516000   27.297200  -113.632000

 Total Charge           Charge          ....    0
 Multiplicity           Mult            ....    1
 Number of Electrons    NEL             ....  134
 Basis Dimension        Dim             ....  322

ORBITAL ENERGIES
----------------

  NO   OCC          E(Eh)            E(eV)
   0   2.0000     -88.969687     -2420.9883
   1   2.0000     -88.964572     -2420.8491
   2   2.0000     -10.329796      -281.0880
   3   2.0000     -10.322969      -280.9023
   4   2.0000     -10.320707      -280.8407
   5   2.0000     -10.313060      -280.6326
   6   2.0000     -10.305088      -280.4157
   7   2.0000     -10.301891      -280.3287
   8   2.0000     -10.300132      -280.2808
   9   2.0000     -10.296446      -280.1805
  10   2.0000     -10.291147      -280.0364
  11   2.0000     -10.289981      -280.0046
  12   2.0000     -10.284065      -279.8436
  13   2.0000     -10.283176      -279.8195
  14   2.0000     -10.272323      -279.5241
  15   2.0000     -10.271453      -279.5004
  16   2.0000      -8.083749      -219.9700
  17   2.0000      -8.078974      -219.8401
  18   2.0000      -6.042176      -164.4160
  19   2.0000      -6.038232      -164.3087
  20   2.0000      -6.037482      -164.2882
  21   2.0000      -6.034731      -164.2134
  22   2.0000      -6.033450      -164.1785
  23   2.0000      -6.029800      -164.0792
  24   2.0000      -1.009361       -27.4661
  25   2.0000      -0.985497       -26.8167
  26   2.0000      -0.911061       -24.7912
  27   2.0000      -0.905423       -24.6378
  28   2.0000      -0.874442       -23.7948
  29   2.0000      -0.848443       -23.0873
  30   2.0000      -0.839986       -22.8572
  31   2.0000      -0.811097       -22.0711
  32   2.0000      -0.786886       -21.4122
  33   2.0000      -0.775656       -21.1067
  34   2.0000      -0.713621       -19.4186
  35   2.0000      -0.697714       -18.9858
  36   2.0000      -0.691434       -18.8149
  37   2.0000      -0.654450       -17.8085
  38   2.0000      -0.643797       -17.5186
  39   2.0000      -0.613259       -16.6876
  40   2.0000      -0.590193       -16.0600
  41   2.0000      -0.578604       -15.7446
  42   2.0000      -0.552106       -15.0236
  43   2.0000      -0.548432       -14.9236
  44   2.0000      -0.540061       -14.6958
  45   2.0000      -0.533348       -14.5131
  46   2.0000      -0.517103       -14.0711
  47   2.0000      -0.514936       -14.0121
  48   2.0000      -0.505813       -13.7639
  49   2.0000      -0.488691       -13.2980
  50   2.0000      -0.488475       -13.2921
  51   2.0000      -0.478032       -13.0079
  52   2.0000      -0.473793       -12.8926
  53   2.0000      -0.462533       -12.5861
  54   2.0000      -0.456837       -12.4312
  55   2.0000      -0.445939       -12.1346
  56   2.0000      -0.442021       -12.0280
  57   2.0000      -0.431629       -11.7452
  58   2.0000      -0.429946       -11.6994
  59   2.0000      -0.423549       -11.5254
  60   2.0000      -0.418224       -11.3805
  61   2.0000      -0.414388       -11.2761
  62   2.0000      -0.404741       -11.0136
  63   2.0000      -0.337978        -9.1968
  64   2.0000      -0.329958        -8.9786
  65   2.0000      -0.326778        -8.8921
  66   2.0000      -0.307502        -8.3676
  67   0.0000       0.040600         1.1048
  68   0.0000       0.047343         1.2883
  69   0.0000       0.109031         2.9669
  70   0.0000       0.121311         3.3010
  71   0.0000       0.133149         3.6232

MULLIKEN ATOMIC CHARGES
-----------------------
   0 S :    0.131526
   1 C :   -0.117141
   2 C :   -0.087718
   3 C :    0.040750
   4 C :   -0.198129
   5 H :    0.015374
   6 C :    0.072889
   7 H :    0.022715
   8 H :    0.011046
   9 C :   -0.055369
  10 H :    0.046238
  11 H :    0.026865
  12 C :   -0.063864
  13 H :    0.011045
  14 H :    0.041690
  15 H :    0.034731
  16 S :    0.111239
  17 C :   -0.124956
  18 C :   -0.069299
  19 C :    0.012423
  20 C :   -0.177908
  21 H :    0.029869
  22 C :    0.059442
  23 H :    0.021528
  24 H :    0.015283
  25 C :   -0.013361
  26 H :    0.026128
  27 H :    0.019198
  28 C :   -0.059604
  29 H :    0.013966
  30 H :    0.040792
  31 H :    0.034581
  32 H :    0.053364
  33 H :    0.074668
Sum of atomic charges:    0.0000000

LOEWDIN ATOMIC CHARGES
----------------------
   0 S :    0.430453
   1 C :   -0.202019
   2 C :   -0.064119
   3 C :   -0.055144
   4 C :   -0.210240
   5 H :    0.031406
   6 C :   -0.030986
   7 H :    0.033787
   8 H :    0.025552
   9 C :   -0.036631
  10 H :    0.035541
  11 H :    0.022843
  12 C :   -0.069276
  13 H :    0.013372
  14 H :    0.023372
  15 H :    0.031779
  16 S :    0.409313
  17 C :   -0.193015
  18 C :   -0.085108
  19 C :   -0.055569
  20 C :   -0.206029
  21 H :    0.041792
  22 C :   -0.036286
  23 H :    0.031107
  24 H :    0.034605
  25 C :   -0.029307
  26 H :    0.029242
  27 H :    0.013661
  28 C :   -0.070111
  29 H :    0.008749
  30 H :    0.027520
  31 H :    0.023548
  32 H :    0.029955
  33 H :    0.046243

  Mayer bond orders larger than 0.100000
B(  0-S ,  1-C ) :   1.1515 B(  0-S ,  4-C ) :   1.1540 B(  1-C ,  2-C ) :   1.6144
B(  1-C , 32-H ) :   0.9591 B(  2-C ,  3-C ) :   1.2371 B(  2-C ,  6-C ) :   1.0244
B(  3-C ,  4-C ) :   1.5705 B(  3-C ,  5-H ) :   0.9954 B(  4-C , 20-C ) :   1.0343
B(  6-C ,  7-H ) :   0.9405 B(  6-C ,  8-H ) :   0.9401 B(  6-C ,  9-C ) :   1.0594
B(  9-C , 10-H ) :   0.9598 B(  9-C , 11-H ) :   0.9538 B(  9-C , 12-C ) :   1.0855
B( 12-C , 13-H ) :   0.9743 B( 12-C , 14-H ) :   0.9703 B( 12-C , 15-H ) :   0.9715
B( 16-S , 17-C ) :   1.1520 B( 16-S , 20-C ) :   1.1525 B( 17-C , 18-C ) :   1.6222
B( 17-C , 20-C ) :   0.1101 B( 17-C , 33-H ) :   0.9584 B( 18-C , 19-C ) :   1.2317
B( 18-C , 21-H ) :   0.9902 B( 19-C , 20-C ) :   1.5682 B( 19-C , 22-C ) :   1.0382
B( 22-C , 23-H ) :   0.9232 B( 22-C , 24-H ) :   0.9274 B( 22-C , 25-C ) :   1.0773
B( 25-C , 26-H ) :   0.9513 B( 25-C , 27-H ) :   0.9598 B( 25-C , 28-C ) :   1.0600
B( 28-C , 29-H ) :   0.9741 B( 28-C , 30-H ) :   0.9779 B( 28-C , 31-H ) :   0.9727

Dispersion correction           -0.015392296
FINAL SINGLE POINT ENERGY     -1339.864080108750

DIPOLE MOMENT
-------------
                                X             Y             Z
Electronic contribution:     12.77854      12.74789     -10.72609
Nuclear contribution   :    -13.19325     -12.60278      11.02199
                        -----------------------------------------
Total Dipole Moment    :     -0.41471       0.14511       0.29590
                        -----------------------------------------
Magnitude (a.u.)       :      0.52971
Magnitude (Debye)      :      1.34642

Rotational constants in cm-1:     0.021518     0.008402     0.007306
Rotational constants in MHz :   645.104719   251.900057   219.014962

                             ****ORCA TERMINATED NORMALLY****
TOTAL RUN TIME: 0 days 0 hours 0 minutes 22 seconds 216 msec
