                         Program Version 4.2.1 -  RELEASE  -
|  1> ! wB97X-D3 SP def2-SVP
|  2> %pal
|  3> nprocs 24
|  4> end
|  5>
|  6> * xyz 0 1
|  7> S 	 -88.0986 	 -34.5233 	 -63.957
|  8> C 	 -88.8176 	 -35.3497 	 -65.3153
|  9> C 	 -89.1891 	 -36.661 	 -65.0439
| 10> C 	 -88.8393 	 -36.9663 	 -63.6995
| 11> C 	 -88.1959 	 -35.9733 	 -62.975
| 12> H 	 -89.1115 	 -37.9211 	 -63.1589
| 13> C 	 -89.9653 	 -37.6155 	 -65.9947
| 14> H 	 -90.8375 	 -37.1336 	 -66.3906
| 15> H 	 -90.6109 	 -38.3375 	 -65.4421
| 16> C 	 -89.1685 	 -38.3178 	 -67.1671
| 17> H 	 -88.7899 	 -37.4593 	 -67.7994
| 18> H 	 -88.2121 	 -38.7524 	 -66.8084
| 19> C 	 -90.0922 	 -39.2873 	 -67.9298
| 20> H 	 -91.0886 	 -38.8917 	 -68.1049
| 21> H 	 -89.6556 	 -39.4831 	 -68.8768
| 22> H 	 -90.2045 	 -40.2696 	 -67.4246
| 23> S 	 -86.7049 	 -37.3837 	 -61.0172
| 24> C 	 -86.6741 	 -36.6888 	 -59.3777
| 25> C 	 -87.3794 	 -35.5726 	 -59.2949
| 26> C 	 -88.0466 	 -35.1376 	 -60.5139
| 27> C 	 -87.7756 	 -36.0368 	 -61.5922
| 28> H 	 -87.4431 	 -35.1003 	 -58.3154
| 29> C 	 -89.0452 	 -33.9708 	 -60.5576
| 30> H 	 -89.359 	 -33.7784 	 -61.5705
| 31> H 	 -88.5322 	 -33.0885 	 -60.2731
| 32> C 	 -90.1937 	 -33.9799 	 -59.5113
| 33> H 	 -90.5155 	 -32.9134 	 -59.2966
| 34> H 	 -89.8009 	 -34.4602 	 -58.5871
| 35> C 	 -91.2225 	 -35.0166 	 -59.9787
| 36> H 	 -91.5132 	 -34.7322 	 -61.0376
| 37> H 	 -92.0804 	 -35.1108 	 -59.3299
| 38> H 	 -90.7322 	 -35.9736 	 -59.9687
| 39> H 	 -89.3207 	 -34.8487 	 -66.2163
| 40> H 	 -86.1732 	 -37.1028 	 -58.5305
| 41> *
| 42>
| 43>                          ****END OF INPUT****

CARTESIAN COORDINATES (ANGSTROEM)
---------------------------------
  S    -88.098600  -34.523300  -63.957000
  C    -88.817600  -35.349700  -65.315300
  C    -89.189100  -36.661000  -65.043900
  C    -88.839300  -36.966300  -63.699500
  C    -88.195900  -35.973300  -62.975000
  H    -89.111500  -37.921100  -63.158900
  C    -89.965300  -37.615500  -65.994700
  H    -90.837500  -37.133600  -66.390600
  H    -90.610900  -38.337500  -65.442100
  C    -89.168500  -38.317800  -67.167100
  H    -88.789900  -37.459300  -67.799400
  H    -88.212100  -38.752400  -66.808400
  C    -90.092200  -39.287300  -67.929800
  H    -91.088600  -38.891700  -68.104900
  H    -89.655600  -39.483100  -68.876800
  H    -90.204500  -40.269600  -67.424600
  S    -86.704900  -37.383700  -61.017200
  C    -86.674100  -36.688800  -59.377700
  C    -87.379400  -35.572600  -59.294900
  C    -88.046600  -35.137600  -60.513900
  C    -87.775600  -36.036800  -61.592200
  H    -87.443100  -35.100300  -58.315400
  C    -89.045200  -33.970800  -60.557600
  H    -89.359000  -33.778400  -61.570500
  H    -88.532200  -33.088500  -60.273100
  C    -90.193700  -33.979900  -59.511300
  H    -90.515500  -32.913400  -59.296600
  H    -89.800900  -34.460200  -58.587100
  C    -91.222500  -35.016600  -59.978700
  H    -91.513200  -34.732200  -61.037600
  H    -92.080400  -35.110800  -59.329900
  H    -90.732200  -35.973600  -59.968700
  H    -89.320700  -34.848700  -66.216300
  H    -86.173200  -37.102800  -58.530500

 Total Charge           Charge          ....    0
 Multiplicity           Mult            ....    1
 Number of Electrons    NEL             ....  134
 Basis Dimension        Dim             ....  322

ORBITAL ENERGIES
----------------

  NO   OCC          E(Eh)            E(eV)
   0   2.0000     -88.971648     -2421.0416
   1   2.0000     -88.964752     -2420.8540
   2   2.0000     -10.335986      -281.2565
   3   2.0000     -10.329213      -281.0722
   4   2.0000     -10.320197      -280.8268
   5   2.0000     -10.314431      -280.6699
   6   2.0000     -10.313969      -280.6574
   7   2.0000     -10.306527      -280.4549
   8   2.0000     -10.299030      -280.2508
   9   2.0000     -10.298649      -280.2405
  10   2.0000     -10.297619      -280.2125
  11   2.0000     -10.293387      -280.0973
  12   2.0000     -10.292292      -280.0675
  13   2.0000     -10.287261      -279.9306
  14   2.0000     -10.281446      -279.7724
  15   2.0000     -10.273490      -279.5559
  16   2.0000      -8.085694      -220.0229
  17   2.0000      -8.078124      -219.8169
  18   2.0000      -6.044215      -164.4714
  19   2.0000      -6.040283      -164.3645
  20   2.0000      -6.036892      -164.2722
  21   2.0000      -6.036474      -164.2608
  22   2.0000      -6.032907      -164.1637
  23   2.0000      -6.028595      -164.0464
  24   2.0000      -1.001732       -27.2585
  25   2.0000      -0.978602       -26.6291
  26   2.0000      -0.906666       -24.6716
  27   2.0000      -0.902434       -24.5565
  28   2.0000      -0.871216       -23.7070
  29   2.0000      -0.849058       -23.1040
  30   2.0000      -0.838105       -22.8060
  31   2.0000      -0.813346       -22.1323
  32   2.0000      -0.783681       -21.3251
  33   2.0000      -0.770438       -20.9647
  34   2.0000      -0.705099       -19.1867
  35   2.0000      -0.703475       -19.1425
  36   2.0000      -0.690538       -18.7905
  37   2.0000      -0.652668       -17.7600
  38   2.0000      -0.630092       -17.1457
  39   2.0000      -0.615400       -16.7459
  40   2.0000      -0.600029       -16.3276
  41   2.0000      -0.568740       -15.4762
  42   2.0000      -0.551176       -14.9983
  43   2.0000      -0.546186       -14.8625
  44   2.0000      -0.538528       -14.6541
  45   2.0000      -0.523707       -14.2508
  46   2.0000      -0.522598       -14.2206
  47   2.0000      -0.511425       -13.9166
  48   2.0000      -0.494766       -13.4633
  49   2.0000      -0.491561       -13.3761
  50   2.0000      -0.486903       -13.2493
  51   2.0000      -0.471767       -12.8374
  52   2.0000      -0.467513       -12.7217
  53   2.0000      -0.465590       -12.6694
  54   2.0000      -0.455726       -12.4009
  55   2.0000      -0.453526       -12.3411
  56   2.0000      -0.443700       -12.0737
  57   2.0000      -0.439657       -11.9637
  58   2.0000      -0.430301       -11.7091
  59   2.0000      -0.425096       -11.5675
  60   2.0000      -0.421611       -11.4726
  61   2.0000      -0.412636       -11.2284
  62   2.0000      -0.407246       -11.0817
  63   2.0000      -0.347891        -9.4666
  64   2.0000      -0.335585        -9.1317
  65   2.0000      -0.327836        -8.9209
  66   2.0000      -0.291889        -7.9427
  67   0.0000       0.023548         0.6408
  68   0.0000       0.072595         1.9754
  69   0.0000       0.103543         2.8175
  70   0.0000       0.114152         3.1062
  71   0.0000       0.130536         3.5521

MULLIKEN ATOMIC CHARGES
-----------------------
   0 S :    0.126234
   1 C :   -0.140765
   2 C :   -0.074078
   3 C :    0.000754
   4 C :   -0.165380
   5 H :    0.033477
   6 C :    0.034091
   7 H :    0.012463
   8 H :    0.016305
   9 C :   -0.082475
  10 H :    0.034706
  11 H :    0.042519
  12 C :   -0.032122
  13 H :    0.029227
  14 H :    0.028089
  15 H :    0.044148
  16 S :    0.092476
  17 C :   -0.074450
  18 C :   -0.035657
  19 C :   -0.052613
  20 C :   -0.150340
  21 H :    0.025268
  22 C :    0.103475
  23 H :    0.012479
  24 H :    0.015524
  25 C :   -0.107996
  26 H :    0.048289
  27 H :    0.029781
  28 C :   -0.043101
  29 H :    0.034906
  30 H :    0.031951
  31 H :    0.037957
  32 H :    0.077249
  33 H :    0.047609
Sum of atomic charges:    0.0000000

LOEWDIN ATOMIC CHARGES
----------------------
   0 S :    0.421668
   1 C :   -0.214504
   2 C :   -0.067466
   3 C :   -0.065537
   4 C :   -0.203414
   5 H :    0.039926
   6 C :   -0.043386
   7 H :    0.026287
   8 H :    0.032707
   9 C :   -0.040430
  10 H :    0.028516
  11 H :    0.028936
  12 C :   -0.064660
  13 H :    0.025304
  14 H :    0.023861
  15 H :    0.032787
  16 S :    0.361369
  17 C :   -0.166274
  18 C :   -0.076961
  19 C :   -0.046020
  20 C :   -0.180786
  21 H :    0.034902
  22 C :   -0.033438
  23 H :    0.016778
  24 H :    0.028719
  25 C :   -0.042425
  26 H :    0.030479
  27 H :    0.026162
  28 C :   -0.064965
  29 H :    0.028859
  30 H :    0.019368
  31 H :    0.027244
  32 H :    0.046641
  33 H :    0.029755

  Mayer bond orders larger than 0.100000
B(  0-S ,  1-C ) :   1.1544 B(  0-S ,  4-C ) :   1.1365 B(  1-C ,  2-C ) :   1.6057
B(  1-C , 32-H ) :   0.9478 B(  2-C ,  3-C ) :   1.2752 B(  2-C ,  6-C ) :   1.0051
B(  3-C ,  4-C ) :   1.5580 B(  3-C ,  5-H ) :   0.9820 B(  4-C , 20-C ) :   1.0778
B(  6-C ,  7-H ) :   0.9392 B(  6-C ,  8-H ) :   0.9480 B(  6-C ,  9-C ) :   1.0416
B(  9-C , 10-H ) :   0.9584 B(  9-C , 11-H ) :   0.9608 B(  9-C , 12-C ) :   1.0691
B( 12-C , 13-H ) :   0.9751 B( 12-C , 14-H ) :   0.9731 B( 12-C , 15-H ) :   0.9750
B( 16-S , 17-C ) :   1.1162 B( 16-S , 20-C ) :   1.1162 B( 17-C , 18-C ) :   1.6845
B( 17-C , 33-H ) :   0.9641 B( 18-C , 19-C ) :   1.1940 B( 18-C , 21-H ) :   0.9815
B( 19-C , 20-C ) :   1.5864 B( 19-C , 22-C ) :   1.0512 B( 22-C , 23-H ) :   0.9314
B( 22-C , 24-H ) :   0.9220 B( 22-C , 25-C ) :   1.0649 B( 25-C , 26-H ) :   0.9583
B( 25-C , 27-H ) :   0.9568 B( 25-C , 28-C ) :   1.0572 B( 28-C , 29-H ) :   0.9783
B( 28-C , 30-H ) :   0.9755 B( 28-C , 31-H ) :   0.9756

Dispersion correction           -0.014194278
FINAL SINGLE POINT ENERGY     -1339.869827115833

DIPOLE MOMENT
-------------
                                X             Y             Z
Electronic contribution:     18.00145       4.49963       7.50755
Nuclear contribution   :    -18.53437      -4.52930      -7.42620
                        -----------------------------------------
Total Dipole Moment    :     -0.53292      -0.02967       0.08135
                        -----------------------------------------
Magnitude (a.u.)       :      0.53991
Magnitude (Debye)      :      1.37234

Rotational constants in cm-1:     0.021918     0.007089     0.006374
Rotational constants in MHz :   657.072603   212.521507   191.099779

                             ****ORCA TERMINATED NORMALLY****
TOTAL RUN TIME: 0 days 0 hours 0 minutes 22 seconds 115 msec
