                         Program Version 4.2.1 -  RELEASE  -
|  1> ! wB97X-D3 SP def2-SVP
|  2> %pal
|  3> nprocs 24
|  4> end
|  5>
|  6> * xyz 0 1
|  7> S 	 -121.702 	 45.1324 	 -34.1995
|  8> C 	 -120.931 	 43.8583 	 -33.2634
|  9> C 	 -120.607 	 44.334 	 -31.9553
| 10> C 	 -120.995 	 45.7034 	 -31.7829
| 11> C 	 -121.502 	 46.3226 	 -32.9357
| 12> H 	 -120.933 	 46.3443 	 -30.9135
| 13> C 	 -119.864 	 43.5175 	 -30.7965
| 14> H 	 -120.305 	 42.4952 	 -30.865
| 15> H 	 -120.138 	 43.9994 	 -29.8643
| 16> C 	 -118.349 	 43.5609 	 -30.9573
| 17> H 	 -118.015 	 43.2064 	 -31.9589
| 18> H 	 -118.095 	 44.6286 	 -31.0648
| 19> C 	 -117.569 	 42.929 	 -29.772
| 20> H 	 -117.872 	 43.2739 	 -28.7392
| 21> H 	 -117.6 	 41.7713 	 -29.945
| 22> H 	 -116.562 	 43.2662 	 -29.926
| 23> S 	 -123.177 	 48.2719 	 -33.7557
| 24> C 	 -122.671 	 49.9444 	 -33.7813
| 25> C 	 -121.473 	 50.168 	 -33.0784
| 26> C 	 -120.893 	 48.919 	 -32.6558
| 27> C 	 -121.658 	 47.808 	 -33.0722
| 28> H 	 -121.066 	 51.1727 	 -32.9786
| 29> C 	 -119.539 	 48.812 	 -32.0323
| 30> H 	 -118.923 	 49.6741 	 -32.4344
| 31> H 	 -119.088 	 47.971 	 -32.4833
| 32> C 	 -119.441 	 48.8575 	 -30.5063
| 33> H 	 -118.333 	 48.8435 	 -30.2698
| 34> H 	 -119.908 	 47.9134 	 -30.1285
| 35> C 	 -119.994 	 50.1608 	 -29.8695
| 36> H 	 -120.024 	 50.9205 	 -30.6833
| 37> H 	 -119.321 	 50.5062 	 -29.0785
| 38> H 	 -120.996 	 49.95 	 -29.4178
| 39> H 	 -120.671 	 42.8099 	 -33.627
| 40> H 	 -123.268 	 50.699 	 -34.2026
| 41> *
| 42>
| 43>                          ****END OF INPUT****

CARTESIAN COORDINATES (ANGSTROEM)
---------------------------------
  S    -121.702000   45.132400  -34.199500
  C    -120.931000   43.858300  -33.263400
  C    -120.607000   44.334000  -31.955300
  C    -120.995000   45.703400  -31.782900
  C    -121.502000   46.322600  -32.935700
  H    -120.933000   46.344300  -30.913500
  C    -119.864000   43.517500  -30.796500
  H    -120.305000   42.495200  -30.865000
  H    -120.138000   43.999400  -29.864300
  C    -118.349000   43.560900  -30.957300
  H    -118.015000   43.206400  -31.958900
  H    -118.095000   44.628600  -31.064800
  C    -117.569000   42.929000  -29.772000
  H    -117.872000   43.273900  -28.739200
  H    -117.600000   41.771300  -29.945000
  H    -116.562000   43.266200  -29.926000
  S    -123.177000   48.271900  -33.755700
  C    -122.671000   49.944400  -33.781300
  C    -121.473000   50.168000  -33.078400
  C    -120.893000   48.919000  -32.655800
  C    -121.658000   47.808000  -33.072200
  H    -121.066000   51.172700  -32.978600
  C    -119.539000   48.812000  -32.032300
  H    -118.923000   49.674100  -32.434400
  H    -119.088000   47.971000  -32.483300
  C    -119.441000   48.857500  -30.506300
  H    -118.333000   48.843500  -30.269800
  H    -119.908000   47.913400  -30.128500
  C    -119.994000   50.160800  -29.869500
  H    -120.024000   50.920500  -30.683300
  H    -119.321000   50.506200  -29.078500
  H    -120.996000   49.950000  -29.417800
  H    -120.671000   42.809900  -33.627000
  H    -123.268000   50.699000  -34.202600

 Total Charge           Charge          ....    0
 Multiplicity           Mult            ....    1
 Number of Electrons    NEL             ....  134
 Basis Dimension        Dim             ....  322

ORBITAL ENERGIES
----------------

  NO   OCC          E(Eh)            E(eV)
   0   2.0000     -88.971465     -2421.0366
   1   2.0000     -88.965896     -2420.8851
   2   2.0000     -10.332670      -281.1663
   3   2.0000     -10.330563      -281.1089
   4   2.0000     -10.326966      -281.0110
   5   2.0000     -10.315912      -280.7102
   6   2.0000     -10.311834      -280.5993
   7   2.0000     -10.307449      -280.4799
   8   2.0000     -10.300699      -280.2963
   9   2.0000     -10.300616      -280.2940
  10   2.0000     -10.295594      -280.1573
  11   2.0000     -10.294904      -280.1386
  12   2.0000     -10.293174      -280.0915
  13   2.0000     -10.291695      -280.0513
  14   2.0000     -10.288372      -279.9608
  15   2.0000     -10.286070      -279.8982
  16   2.0000      -8.085480      -220.0171
  17   2.0000      -8.081134      -219.8988
  18   2.0000      -6.044059      -164.4672
  19   2.0000      -6.039902      -164.3541
  20   2.0000      -6.039440      -164.3415
  21   2.0000      -6.036381      -164.2583
  22   2.0000      -6.035602      -164.2371
  23   2.0000      -6.032069      -164.1409
  24   2.0000      -1.002371       -27.2759
  25   2.0000      -0.979120       -26.6432
  26   2.0000      -0.910163       -24.7668
  27   2.0000      -0.904069       -24.6010
  28   2.0000      -0.862024       -23.4569
  29   2.0000      -0.848449       -23.0875
  30   2.0000      -0.842715       -22.9314
  31   2.0000      -0.809686       -22.0327
  32   2.0000      -0.780604       -21.2413
  33   2.0000      -0.769397       -20.9364
  34   2.0000      -0.699301       -19.0289
  35   2.0000      -0.694092       -18.8872
  36   2.0000      -0.684892       -18.6369
  37   2.0000      -0.666469       -18.1355
  38   2.0000      -0.639051       -17.3895
  39   2.0000      -0.611114       -16.6293
  40   2.0000      -0.590059       -16.0563
  41   2.0000      -0.565974       -15.4009
  42   2.0000      -0.560351       -15.2479
  43   2.0000      -0.552901       -15.0452
  44   2.0000      -0.545143       -14.8341
  45   2.0000      -0.522262       -14.2115
  46   2.0000      -0.515341       -14.0231
  47   2.0000      -0.505442       -13.7538
  48   2.0000      -0.497730       -13.5439
  49   2.0000      -0.492915       -13.4129
  50   2.0000      -0.490178       -13.3384
  51   2.0000      -0.479575       -13.0499
  52   2.0000      -0.470718       -12.8089
  53   2.0000      -0.466439       -12.6924
  54   2.0000      -0.461160       -12.5488
  55   2.0000      -0.449936       -12.2434
  56   2.0000      -0.444955       -12.1078
  57   2.0000      -0.440350       -11.9825
  58   2.0000      -0.431371       -11.7382
  59   2.0000      -0.420112       -11.4318
  60   2.0000      -0.418506       -11.3881
  61   2.0000      -0.412921       -11.2362
  62   2.0000      -0.409876       -11.1533
  63   2.0000      -0.343369        -9.3435
  64   2.0000      -0.332375        -9.0444
  65   2.0000      -0.330218        -8.9857
  66   2.0000      -0.289355        -7.8738
  67   0.0000       0.024617         0.6699
  68   0.0000       0.068239         1.8569
  69   0.0000       0.106542         2.8992
  70   0.0000       0.118070         3.2128
  71   0.0000       0.126107         3.4315

MULLIKEN ATOMIC CHARGES
-----------------------
   0 S :    0.126844
   1 C :   -0.153115
   2 C :   -0.108568
   3 C :    0.025829
   4 C :   -0.137382
   5 H :    0.001935
   6 C :    0.077771
   7 H :    0.038612
   8 H :    0.022263
   9 C :   -0.095773
  10 H :    0.028168
  11 H :    0.022251
  12 C :   -0.059003
  13 H :    0.049247
  14 H :    0.053915
  15 H :    0.034254
  16 S :    0.107772
  17 C :   -0.080911
  18 C :   -0.040073
  19 C :   -0.028289
  20 C :   -0.169740
  21 H :    0.031625
  22 C :    0.027313
  23 H :    0.024494
  24 H :    0.028698
  25 C :   -0.081195
  26 H :    0.037953
  27 H :    0.029131
  28 C :   -0.055015
  29 H :    0.028423
  30 H :    0.040026
  31 H :    0.053106
  32 H :    0.079339
  33 H :    0.040095
Sum of atomic charges:    0.0000000

LOEWDIN ATOMIC CHARGES
----------------------
   0 S :    0.413928
   1 C :   -0.218263
   2 C :   -0.060023
   3 C :   -0.069228
   4 C :   -0.208606
   5 H :    0.027241
   6 C :   -0.025588
   7 H :    0.031994
   8 H :    0.027707
   9 C :   -0.052758
  10 H :    0.027316
  11 H :    0.024079
  12 C :   -0.074400
  13 H :    0.032727
  14 H :    0.039406
  15 H :    0.024273
  16 S :    0.418826
  17 C :   -0.177807
  18 C :   -0.068294
  19 C :   -0.056589
  20 C :   -0.201095
  21 H :    0.034698
  22 C :   -0.041492
  23 H :    0.034523
  24 H :    0.028635
  25 C :   -0.044557
  26 H :    0.031013
  27 H :    0.020031
  28 C :   -0.069651
  29 H :    0.026329
  30 H :    0.027994
  31 H :    0.035637
  32 H :    0.046336
  33 H :    0.015656

  Mayer bond orders larger than 0.100000
B(  0-S ,  1-C ) :   1.1500 B(  0-S ,  4-C ) :   1.1635 B(  1-C ,  2-C ) :   1.5775
B(  1-C ,  4-C ) :   0.1053 B(  1-C , 32-H ) :   0.9609 B(  2-C ,  3-C ) :   1.2643
B(  2-C ,  6-C ) :   1.0066 B(  3-C ,  4-C ) :   1.5420 B(  3-C ,  5-H ) :   0.9952
B(  4-C , 20-C ) :   1.0174 B(  6-C ,  7-H ) :   0.9457 B(  6-C ,  8-H ) :   0.9444
B(  6-C ,  9-C ) :   1.0623 B(  9-C , 10-H ) :   0.9543 B(  9-C , 11-H ) :   0.9542
B(  9-C , 12-C ) :   1.0713 B( 12-C , 13-H ) :   0.9732 B( 12-C , 14-H ) :   0.9745
B( 12-C , 15-H ) :   0.9745 B( 16-S , 17-C ) :   1.1682 B( 16-S , 20-C ) :   1.1598
B( 17-C , 18-C ) :   1.5927 B( 17-C , 20-C ) :   0.1010 B( 17-C , 33-H ) :   0.9747
B( 18-C , 19-C ) :   1.2433 B( 18-C , 21-H ) :   0.9883 B( 19-C , 20-C ) :   1.5776
B( 19-C , 22-C ) :   1.0343 B( 22-C , 23-H ) :   0.9364 B( 22-C , 24-H ) :   0.9365
B( 22-C , 25-C ) :   1.0796 B( 25-C , 26-H ) :   0.9562 B( 25-C , 27-H ) :   0.9541
B( 25-C , 28-C ) :   1.0554 B( 28-C , 29-H ) :   0.9785 B( 28-C , 30-H ) :   0.9773
B( 28-C , 31-H ) :   0.9743

Dispersion correction           -0.014617100
FINAL SINGLE POINT ENERGY     -1339.870496673952

DIPOLE MOMENT
-------------
                                X             Y             Z
Electronic contribution:    -22.22527       2.01558     -22.13514
Nuclear contribution   :     22.81293      -1.89842      22.55487
                        -----------------------------------------
Total Dipole Moment    :      0.58766       0.11716       0.41973
                        -----------------------------------------
Magnitude (a.u.)       :      0.73160
Magnitude (Debye)      :      1.85959

Rotational constants in cm-1:     0.018392     0.009067     0.006414
Rotational constants in MHz :   551.386882   271.828726   192.283064

                             ****ORCA TERMINATED NORMALLY****
TOTAL RUN TIME: 0 days 0 hours 0 minutes 21 seconds 812 msec
