                         Program Version 4.2.1 -  RELEASE  -
|  1> ! wB97X-D3 SP def2-SVP
|  2> %pal
|  3> nprocs 24
|  4> end
|  5>
|  6> * xyz 0 1
|  7> S 	 -102.013 	 -3.13609 	 -108.819
|  8> C 	 -101.772 	 -4.32659 	 -110.118
|  9> C 	 -101.725 	 -5.61567 	 -109.59
| 10> C 	 -101.564 	 -5.50138 	 -108.1
| 11> C 	 -101.603 	 -4.20476 	 -107.567
| 12> H 	 -101.424 	 -6.30928 	 -107.463
| 13> C 	 -101.787 	 -6.87294 	 -110.446
| 14> H 	 -101.748 	 -6.6542 	 -111.487
| 15> H 	 -102.8 	 -7.31874 	 -110.237
| 16> C 	 -100.706 	 -7.94257 	 -110.111
| 17> H 	 -100.918 	 -8.26727 	 -109.143
| 18> H 	 -101.135 	 -8.85544 	 -110.689
| 19> C 	 -99.2972 	 -7.48807 	 -110.411
| 20> H 	 -98.9061 	 -6.72955 	 -109.693
| 21> H 	 -98.6439 	 -8.3833 	 -110.526
| 22> H 	 -99.2007 	 -6.93437 	 -111.324
| 23> S 	 -102.252 	 -2.27788 	 -105.786
| 24> C 	 -101.981 	 -2.57324 	 -104.113
| 25> C 	 -101.368 	 -3.75865 	 -103.803
| 26> C 	 -101.163 	 -4.46165 	 -105.046
| 27> C 	 -101.624 	 -3.82886 	 -106.175
| 28> H 	 -101.067 	 -3.96218 	 -102.819
| 29> C 	 -100.559 	 -5.91663 	 -104.993
| 30> H 	 -99.74 	 -5.82088 	 -104.326
| 31> H 	 -100.143 	 -6.21217 	 -105.97
| 32> C 	 -101.506 	 -7.06384 	 -104.445
| 33> H 	 -102.44 	 -7.23751 	 -105.059
| 34> H 	 -101.725 	 -6.7714 	 -103.455
| 35> C 	 -100.814 	 -8.38015 	 -104.358
| 36> H 	 -100.093 	 -8.53573 	 -105.15
| 37> H 	 -101.595 	 -9.1484 	 -104.566
| 38> H 	 -100.387 	 -8.61701 	 -103.415
| 39> H 	 -101.944 	 -4.17238 	 -111.241
| 40> H 	 -102.04 	 -1.83413 	 -103.344
| 41> *
| 42>
| 43>                          ****END OF INPUT****

CARTESIAN COORDINATES (ANGSTROEM)
---------------------------------
  S    -102.013000   -3.136090  -108.819000
  C    -101.772000   -4.326590  -110.118000
  C    -101.725000   -5.615670  -109.590000
  C    -101.564000   -5.501380  -108.100000
  C    -101.603000   -4.204760  -107.567000
  H    -101.424000   -6.309280  -107.463000
  C    -101.787000   -6.872940  -110.446000
  H    -101.748000   -6.654200  -111.487000
  H    -102.800000   -7.318740  -110.237000
  C    -100.706000   -7.942570  -110.111000
  H    -100.918000   -8.267270  -109.143000
  H    -101.135000   -8.855440  -110.689000
  C    -99.297200   -7.488070  -110.411000
  H    -98.906100   -6.729550  -109.693000
  H    -98.643900   -8.383300  -110.526000
  H    -99.200700   -6.934370  -111.324000
  S    -102.252000   -2.277880  -105.786000
  C    -101.981000   -2.573240  -104.113000
  C    -101.368000   -3.758650  -103.803000
  C    -101.163000   -4.461650  -105.046000
  C    -101.624000   -3.828860  -106.175000
  H    -101.067000   -3.962180  -102.819000
  C    -100.559000   -5.916630  -104.993000
  H    -99.740000   -5.820880  -104.326000
  H    -100.143000   -6.212170  -105.970000
  C    -101.506000   -7.063840  -104.445000
  H    -102.440000   -7.237510  -105.059000
  H    -101.725000   -6.771400  -103.455000
  C    -100.814000   -8.380150  -104.358000
  H    -100.093000   -8.535730  -105.150000
  H    -101.595000   -9.148400  -104.566000
  H    -100.387000   -8.617010  -103.415000
  H    -101.944000   -4.172380  -111.241000
  H    -102.040000   -1.834130  -103.344000

 Total Charge           Charge          ....    0
 Multiplicity           Mult            ....    1
 Number of Electrons    NEL             ....  134
 Basis Dimension        Dim             ....  322

ORBITAL ENERGIES
----------------

  NO   OCC          E(Eh)            E(eV)
   0   2.0000     -88.967180     -2420.9200
   1   2.0000     -88.963025     -2420.8070
   2   2.0000     -10.329748      -281.0867
   3   2.0000     -10.324747      -280.9506
   4   2.0000     -10.320102      -280.8243
   5   2.0000     -10.313047      -280.6323
   6   2.0000     -10.310041      -280.5505
   7   2.0000     -10.306481      -280.4536
   8   2.0000     -10.297529      -280.2100
   9   2.0000     -10.294274      -280.1214
  10   2.0000     -10.294208      -280.1196
  11   2.0000     -10.293404      -280.0978
  12   2.0000     -10.291058      -280.0339
  13   2.0000     -10.287868      -279.9471
  14   2.0000     -10.281613      -279.7769
  15   2.0000     -10.273762      -279.5633
  16   2.0000      -8.083287      -219.9574
  17   2.0000      -8.078406      -219.8246
  18   2.0000      -6.041731      -164.4038
  19   2.0000      -6.037728      -164.2949
  20   2.0000      -6.037193      -164.2804
  21   2.0000      -6.033920      -164.1913
  22   2.0000      -6.032851      -164.1622
  23   2.0000      -6.028796      -164.0519
  24   2.0000      -1.014828       -27.6149
  25   2.0000      -0.984272       -26.7834
  26   2.0000      -0.913675       -24.8624
  27   2.0000      -0.906886       -24.6776
  28   2.0000      -0.874090       -23.7852
  29   2.0000      -0.857219       -23.3261
  30   2.0000      -0.838575       -22.8188
  31   2.0000      -0.813944       -22.1485
  32   2.0000      -0.785581       -21.3767
  33   2.0000      -0.774586       -21.0775
  34   2.0000      -0.713739       -19.4218
  35   2.0000      -0.696334       -18.9482
  36   2.0000      -0.690112       -18.7789
  37   2.0000      -0.668556       -18.1923
  38   2.0000      -0.633174       -17.2296
  39   2.0000      -0.623025       -16.9534
  40   2.0000      -0.592554       -16.1242
  41   2.0000      -0.572971       -15.5913
  42   2.0000      -0.568687       -15.4748
  43   2.0000      -0.551573       -15.0091
  44   2.0000      -0.537729       -14.6323
  45   2.0000      -0.523572       -14.2471
  46   2.0000      -0.521350       -14.1867
  47   2.0000      -0.511932       -13.9304
  48   2.0000      -0.504675       -13.7329
  49   2.0000      -0.501944       -13.6586
  50   2.0000      -0.494652       -13.4602
  51   2.0000      -0.485636       -13.2148
  52   2.0000      -0.472165       -12.8483
  53   2.0000      -0.465878       -12.6772
  54   2.0000      -0.463438       -12.6108
  55   2.0000      -0.457221       -12.4416
  56   2.0000      -0.444293       -12.0898
  57   2.0000      -0.431135       -11.7318
  58   2.0000      -0.426162       -11.5965
  59   2.0000      -0.423822       -11.5328
  60   2.0000      -0.423048       -11.5117
  61   2.0000      -0.415872       -11.3164
  62   2.0000      -0.405601       -11.0370
  63   2.0000      -0.363404        -9.8887
  64   2.0000      -0.335695        -9.1347
  65   2.0000      -0.319865        -8.7040
  66   2.0000      -0.284425        -7.7396
  67   0.0000       0.023300         0.6340
  68   0.0000       0.083027         2.2593
  69   0.0000       0.100873         2.7449
  70   0.0000       0.112835         3.0704
  71   0.0000       0.127489         3.4692

MULLIKEN ATOMIC CHARGES
-----------------------
   0 S :    0.080381
   1 C :   -0.141079
   2 C :   -0.095446
   3 C :    0.011335
   4 C :   -0.084795
   5 H :   -0.032286
   6 C :    0.041300
   7 H :    0.016188
   8 H :    0.048005
   9 C :   -0.071227
  10 H :    0.012185
  11 H :    0.030737
  12 C :   -0.032308
  13 H :    0.052264
  14 H :    0.046227
  15 H :    0.019839
  16 S :    0.107642
  17 C :   -0.064255
  18 C :   -0.018284
  19 C :   -0.072625
  20 C :   -0.102761
  21 H :    0.005079
  22 C :    0.037857
  23 H :    0.013305
  24 H :    0.022794
  25 C :   -0.060439
  26 H :    0.047803
  27 H :    0.015030
  28 C :   -0.031850
  29 H :    0.022479
  30 H :    0.027422
  31 H :    0.030448
  32 H :    0.075905
  33 H :    0.043130
Sum of atomic charges:   -0.0000000

LOEWDIN ATOMIC CHARGES
----------------------
   0 S :    0.402426
   1 C :   -0.211317
   2 C :   -0.055875
   3 C :   -0.067602
   4 C :   -0.199192
   5 H :    0.008818
   6 C :   -0.031414
   7 H :    0.022934
   8 H :    0.042237
   9 C :   -0.045147
  10 H :    0.011877
  11 H :    0.034896
  12 C :   -0.071384
  13 H :    0.038419
  14 H :    0.034711
  15 H :    0.023666
  16 S :    0.425461
  17 C :   -0.181626
  18 C :   -0.062127
  19 C :   -0.050573
  20 C :   -0.206569
  21 H :    0.027770
  22 C :   -0.028336
  23 H :    0.023831
  24 H :    0.022922
  25 C :   -0.038946
  26 H :    0.032745
  27 H :    0.018860
  28 C :   -0.066346
  29 H :    0.021908
  30 H :    0.033497
  31 H :    0.020245
  32 H :    0.045998
  33 H :    0.023233

  Mayer bond orders larger than 0.100000
B(  0-S ,  1-C ) :   1.1193 B(  0-S ,  4-C ) :   1.1464 B(  1-C ,  2-C ) :   1.6254
B(  1-C , 32-H ) :   0.9561 B(  2-C ,  3-C ) :   1.2113 B(  2-C ,  6-C ) :   1.0287
B(  3-C ,  4-C ) :   1.5536 B(  3-C ,  5-H ) :   1.0025 B(  4-C , 20-C ) :   1.0929
B(  6-C ,  7-H ) :   0.9451 B(  6-C ,  8-H ) :   0.9343 B(  6-C ,  9-C ) :   1.0776
B(  9-C , 10-H ) :   0.9552 B(  9-C , 11-H ) :   0.9547 B(  9-C , 12-C ) :   1.0577
B( 12-C , 13-H ) :   0.9686 B( 12-C , 14-H ) :   0.9738 B( 12-C , 15-H ) :   0.9751
B( 16-S , 17-C ) :   1.1663 B( 16-S , 20-C ) :   1.1210 B( 17-C , 18-C ) :   1.6258
B( 17-C , 33-H ) :   0.9626 B( 18-C , 19-C ) :   1.2233 B( 18-C , 21-H ) :   1.0017
B( 19-C , 20-C ) :   1.6174 B( 19-C , 22-C ) :   1.0343 B( 22-C , 23-H ) :   0.9333
B( 22-C , 24-H ) :   0.9388 B( 22-C , 25-C ) :   1.0641 B( 25-C , 26-H ) :   0.9642
B( 25-C , 27-H ) :   0.9522 B( 25-C , 28-C ) :   1.0792 B( 28-C , 29-H ) :   0.9730
B( 28-C , 30-H ) :   0.9754 B( 28-C , 31-H ) :   0.9768

Dispersion correction           -0.014199243
FINAL SINGLE POINT ENERGY     -1339.855177290575

DIPOLE MOMENT
-------------
                                X             Y             Z
Electronic contribution:     -9.40342      30.55255       1.25012
Nuclear contribution   :      9.53068     -31.25706      -1.04977
                        -----------------------------------------
Total Dipole Moment    :      0.12726      -0.70451       0.20036
                        -----------------------------------------
Magnitude (a.u.)       :      0.74342
Magnitude (Debye)      :      1.88962

Rotational constants in cm-1:     0.016819     0.010110     0.006679
Rotational constants in MHz :   504.235161   303.085414   200.221657

                             ****ORCA TERMINATED NORMALLY****
TOTAL RUN TIME: 0 days 0 hours 0 minutes 22 seconds 14 msec
