                         Program Version 4.2.1 -  RELEASE  -
|  1> ! wB97X-D3 SP def2-SVP
|  2> %pal
|  3> nprocs 24
|  4> end
|  5>
|  6> * xyz 0 1
|  7> S 	 17.7092 	 -11.3325 	 -120.973
|  8> C 	 16.539 	 -11.5026 	 -122.272
|  9> C 	 15.2839 	 -11.8751 	 -121.821
| 10> C 	 15.3113 	 -12.1968 	 -120.416
| 11> C 	 16.5251 	 -11.8602 	 -119.8
| 12> H 	 14.4404 	 -12.5294 	 -119.906
| 13> C 	 14.08 	 -12.1538 	 -122.755
| 14> H 	 13.8863 	 -11.3104 	 -123.46
| 15> H 	 13.1319 	 -12.0119 	 -122.152
| 16> C 	 13.8747 	 -13.5841 	 -123.38
| 17> H 	 14.6023 	 -13.8903 	 -124.141
| 18> H 	 14.1214 	 -14.3808 	 -122.684
| 19> C 	 12.4711 	 -13.8915 	 -123.912
| 20> H 	 12.0367 	 -13.2148 	 -124.699
| 21> H 	 12.3663 	 -14.9045 	 -124.372
| 22> H 	 11.8491 	 -13.9907 	 -123
| 23> S 	 17.0053 	 -10.1701 	 -117.563
| 24> C 	 17.2633 	 -10.8634 	 -116.05
| 25> C 	 17.0691 	 -12.2557 	 -116.063
| 26> C 	 16.9298 	 -12.7727 	 -117.41
| 27> C 	 16.8271 	 -11.7705 	 -118.357
| 28> H 	 17.1438 	 -12.8288 	 -115.173
| 29> C 	 16.9855 	 -14.3368 	 -117.631
| 30> H 	 17.9019 	 -14.6206 	 -117.06
| 31> H 	 17.2404 	 -14.4507 	 -118.734
| 32> C 	 15.6896 	 -15.0431 	 -117.29
| 33> H 	 14.763 	 -14.5368 	 -117.596
| 34> H 	 15.6634 	 -15.1298 	 -116.209
| 35> C 	 15.8619 	 -16.5281 	 -117.665
| 36> H 	 16.1523 	 -16.6116 	 -118.74
| 37> H 	 14.9672 	 -17.1456 	 -117.607
| 38> H 	 16.7095 	 -16.9295 	 -117.055
| 39> H 	 16.8195 	 -11.4941 	 -123.32
| 40> H 	 17.3435 	 -10.3098 	 -115.126
| 41> *
| 42>
| 43>                          ****END OF INPUT****

CARTESIAN COORDINATES (ANGSTROEM)
---------------------------------
  S     17.709200  -11.332500  -120.973000
  C     16.539000  -11.502600  -122.272000
  C     15.283900  -11.875100  -121.821000
  C     15.311300  -12.196800  -120.416000
  C     16.525100  -11.860200  -119.800000
  H     14.440400  -12.529400  -119.906000
  C     14.080000  -12.153800  -122.755000
  H     13.886300  -11.310400  -123.460000
  H     13.131900  -12.011900  -122.152000
  C     13.874700  -13.584100  -123.380000
  H     14.602300  -13.890300  -124.141000
  H     14.121400  -14.380800  -122.684000
  C     12.471100  -13.891500  -123.912000
  H     12.036700  -13.214800  -124.699000
  H     12.366300  -14.904500  -124.372000
  H     11.849100  -13.990700  -123.000000
  S     17.005300  -10.170100  -117.563000
  C     17.263300  -10.863400  -116.050000
  C     17.069100  -12.255700  -116.063000
  C     16.929800  -12.772700  -117.410000
  C     16.827100  -11.770500  -118.357000
  H     17.143800  -12.828800  -115.173000
  C     16.985500  -14.336800  -117.631000
  H     17.901900  -14.620600  -117.060000
  H     17.240400  -14.450700  -118.734000
  C     15.689600  -15.043100  -117.290000
  H     14.763000  -14.536800  -117.596000
  H     15.663400  -15.129800  -116.209000
  C     15.861900  -16.528100  -117.665000
  H     16.152300  -16.611600  -118.740000
  H     14.967200  -17.145600  -117.607000
  H     16.709500  -16.929500  -117.055000
  H     16.819500  -11.494100  -123.320000
  H     17.343500  -10.309800  -115.126000

 Total Charge           Charge          ....    0
 Multiplicity           Mult            ....    1
 Number of Electrons    NEL             ....  134
 Basis Dimension        Dim             ....  322

ORBITAL ENERGIES
----------------

  NO   OCC          E(Eh)            E(eV)
   0   2.0000     -88.967813     -2420.9373
   1   2.0000     -88.964164     -2420.8380
   2   2.0000     -10.333197      -281.1806
   3   2.0000     -10.327080      -281.0141
   4   2.0000     -10.316139      -280.7164
   5   2.0000     -10.314415      -280.6695
   6   2.0000     -10.307172      -280.4724
   7   2.0000     -10.307122      -280.4711
   8   2.0000     -10.305055      -280.4148
   9   2.0000     -10.301579      -280.3202
  10   2.0000     -10.298838      -280.2456
  11   2.0000     -10.292606      -280.0760
  12   2.0000     -10.290854      -280.0284
  13   2.0000     -10.288894      -279.9751
  14   2.0000     -10.288640      -279.9681
  15   2.0000     -10.283124      -279.8180
  16   2.0000      -8.082464      -219.9350
  17   2.0000      -8.079387      -219.8513
  18   2.0000      -6.040929      -164.3820
  19   2.0000      -6.037821      -164.2974
  20   2.0000      -6.036890      -164.2721
  21   2.0000      -6.033788      -164.1877
  22   2.0000      -6.033366      -164.1762
  23   2.0000      -6.030229      -164.0909
  24   2.0000      -1.001216       -27.2445
  25   2.0000      -0.981373       -26.7045
  26   2.0000      -0.908658       -24.7258
  27   2.0000      -0.901684       -24.5361
  28   2.0000      -0.865285       -23.5456
  29   2.0000      -0.850142       -23.1335
  30   2.0000      -0.843891       -22.9634
  31   2.0000      -0.808027       -21.9875
  32   2.0000      -0.777947       -21.1690
  33   2.0000      -0.767847       -20.8942
  34   2.0000      -0.703196       -19.1349
  35   2.0000      -0.700209       -19.0537
  36   2.0000      -0.691911       -18.8279
  37   2.0000      -0.658085       -17.9074
  38   2.0000      -0.641914       -17.4674
  39   2.0000      -0.618908       -16.8413
  40   2.0000      -0.590414       -16.0660
  41   2.0000      -0.569415       -15.4946
  42   2.0000      -0.564803       -15.3691
  43   2.0000      -0.551440       -15.0054
  44   2.0000      -0.528634       -14.3849
  45   2.0000      -0.521856       -14.2004
  46   2.0000      -0.516136       -14.0448
  47   2.0000      -0.505641       -13.7592
  48   2.0000      -0.502334       -13.6692
  49   2.0000      -0.496099       -13.4995
  50   2.0000      -0.486464       -13.2373
  51   2.0000      -0.473469       -12.8838
  52   2.0000      -0.469132       -12.7657
  53   2.0000      -0.460805       -12.5391
  54   2.0000      -0.456237       -12.4148
  55   2.0000      -0.451179       -12.2772
  56   2.0000      -0.448361       -12.2005
  57   2.0000      -0.438800       -11.9403
  58   2.0000      -0.434817       -11.8320
  59   2.0000      -0.430214       -11.7067
  60   2.0000      -0.413530       -11.2527
  61   2.0000      -0.410331       -11.1657
  62   2.0000      -0.404852       -11.0166
  63   2.0000      -0.337059        -9.1719
  64   2.0000      -0.334964        -9.1148
  65   2.0000      -0.325452        -8.8560
  66   2.0000      -0.299910        -8.1610
  67   0.0000       0.037629         1.0239
  68   0.0000       0.060233         1.6390
  69   0.0000       0.118747         3.2313
  70   0.0000       0.121281         3.3002
  71   0.0000       0.125945         3.4271

MULLIKEN ATOMIC CHARGES
-----------------------
   0 S :    0.118073
   1 C :   -0.113550
   2 C :   -0.089824
   3 C :    0.070585
   4 C :   -0.184489
   5 H :    0.000941
   6 C :    0.034092
   7 H :    0.039822
   8 H :    0.018159
   9 C :   -0.042444
  10 H :    0.020883
  11 H :    0.019289
  12 C :   -0.101740
  13 H :    0.051038
  14 H :    0.037006
  15 H :    0.037530
  16 S :    0.119876
  17 C :   -0.089114
  18 C :   -0.033973
  19 C :   -0.034524
  20 C :   -0.167317
  21 H :    0.007609
  22 C :    0.014744
  23 H :    0.047291
  24 H :    0.041308
  25 C :   -0.050517
  26 H :    0.045772
  27 H :    0.024799
  28 C :   -0.060148
  29 H :    0.027405
  30 H :    0.037790
  31 H :    0.037373
  32 H :    0.055123
  33 H :    0.061133
Sum of atomic charges:   -0.0000000

LOEWDIN ATOMIC CHARGES
----------------------
   0 S :    0.411448
   1 C :   -0.188133
   2 C :   -0.067490
   3 C :   -0.047736
   4 C :   -0.198458
   5 H :    0.026537
   6 C :   -0.042416
   7 H :    0.036813
   8 H :    0.035128
   9 C :   -0.050922
  10 H :    0.021480
  11 H :    0.027241
  12 C :   -0.079318
  13 H :    0.030560
  14 H :    0.032565
  15 H :    0.027626
  16 S :    0.416532
  17 C :   -0.202526
  18 C :   -0.076207
  19 C :   -0.050708
  20 C :   -0.205926
  21 H :    0.022674
  22 C :   -0.030716
  23 H :    0.038396
  24 H :    0.034691
  25 C :   -0.045528
  26 H :    0.029050
  27 H :    0.025731
  28 C :   -0.069266
  29 H :    0.023786
  30 H :    0.023454
  31 H :    0.031768
  32 H :    0.029417
  33 H :    0.030450

  Mayer bond orders larger than 0.100000
B(  0-S ,  1-C ) :   1.1485 B(  0-S ,  4-C ) :   1.1620 B(  1-C ,  2-C ) :   1.6061
B(  1-C , 32-H ) :   0.9696 B(  2-C ,  3-C ) :   1.2565 B(  2-C ,  6-C ) :   1.0280
B(  3-C ,  4-C ) :   1.5611 B(  3-C ,  5-H ) :   0.9986 B(  4-C , 20-C ) :   1.0154
B(  6-C ,  7-H ) :   0.9452 B(  6-C ,  8-H ) :   0.9410 B(  6-C ,  9-C ) :   1.0365
B(  9-C , 10-H ) :   0.9559 B(  9-C , 11-H ) :   0.9530 B(  9-C , 12-C ) :   1.0801
B( 12-C , 13-H ) :   0.9769 B( 12-C , 14-H ) :   0.9715 B( 12-C , 15-H ) :   0.9755
B( 16-S , 17-C ) :   1.1834 B( 16-S , 20-C ) :   1.1299 B( 17-C , 18-C ) :   1.5932
B( 17-C , 33-H ) :   0.9650 B( 18-C , 19-C ) :   1.2435 B( 18-C , 21-H ) :   0.9933
B( 19-C , 20-C ) :   1.6227 B( 19-C , 22-C ) :   1.0150 B( 22-C , 23-H ) :   0.9427
B( 22-C , 24-H ) :   0.9415 B( 22-C , 25-C ) :   1.0570 B( 25-C , 26-H ) :   0.9602
B( 25-C , 27-H ) :   0.9519 B( 25-C , 28-C ) :   1.0713 B( 28-C , 29-H ) :   0.9770
B( 28-C , 30-H ) :   0.9752 B( 28-C , 31-H ) :   0.9729

Dispersion correction           -0.013628788
FINAL SINGLE POINT ENERGY     -1339.872731983236

DIPOLE MOMENT
-------------
                                X             Y             Z
Electronic contribution:     17.54609      24.53184       8.28567
Nuclear contribution   :    -17.94913     -25.10199      -8.27638
                        -----------------------------------------
Total Dipole Moment    :     -0.40304      -0.57015       0.00929
                        -----------------------------------------
Magnitude (a.u.)       :      0.69828
Magnitude (Debye)      :      1.77489

Rotational constants in cm-1:     0.017035     0.008255     0.006272
Rotational constants in MHz :   510.703363   247.490002   188.040137

                             ****ORCA TERMINATED NORMALLY****
TOTAL RUN TIME: 0 days 0 hours 0 minutes 20 seconds 959 msec
