                         Program Version 4.2.1 -  RELEASE  -
|  1> ! wB97X-D3 SP def2-SVP
|  2> %pal
|  3> nprocs 24
|  4> end
|  5>
|  6> * xyz 0 1
|  7> S 	 -27.722 	 13.3412 	 3.66404
|  8> C 	 -29.2721 	 12.9425 	 3.19893
|  9> C 	 -30.2222 	 13.6677 	 3.88272
| 10> C 	 -29.6662 	 14.4398 	 4.97195
| 11> C 	 -28.3027 	 14.3686 	 5.00805
| 12> H 	 -30.3365 	 15.023 	 5.65065
| 13> C 	 -31.6992 	 13.6899 	 3.48057
| 14> H 	 -31.8154 	 13.4566 	 2.41409
| 15> H 	 -32.2095 	 14.6701 	 3.56074
| 16> C 	 -32.6022 	 12.7342 	 4.31375
| 17> H 	 -32.3541 	 11.6783 	 4.12616
| 18> H 	 -32.4029 	 12.9281 	 5.3525
| 19> C 	 -34.0791 	 12.9295 	 4.14722
| 20> H 	 -34.3786 	 13.8155 	 4.57201
| 21> H 	 -34.4344 	 13.0095 	 3.14156
| 22> H 	 -34.6888 	 12.174 	 4.71603
| 23> S 	 -26.1368 	 16.0877 	 5.58149
| 24> C 	 -25.7036 	 16.3764 	 7.23494
| 25> C 	 -26.4684 	 15.6542 	 8.10572
| 26> C 	 -27.4754 	 14.8786 	 7.45594
| 27> C 	 -27.4143 	 14.9438 	 6.05617
| 28> H 	 -26.3025 	 15.6803 	 9.18219
| 29> C 	 -28.4502 	 14.0504 	 8.25874
| 30> H 	 -29.4233 	 14.4218 	 8.08178
| 31> H 	 -28.4027 	 14.2356 	 9.39245
| 32> C 	 -28.3955 	 12.5443 	 7.9864
| 33> H 	 -27.5104 	 12.1573 	 8.44073
| 34> H 	 -28.3381 	 12.3922 	 6.95917
| 35> C 	 -29.6171 	 11.7852 	 8.54314
| 36> H 	 -29.5945 	 10.7817 	 8.11219
| 37> H 	 -30.6324 	 12.2935 	 8.43413
| 38> H 	 -29.5522 	 11.5372 	 9.55593
| 39> H 	 -29.5487 	 12.3337 	 2.39396
| 40> H 	 -24.922 	 16.9965 	 7.64731
| 41> *
| 42>
| 43>                          ****END OF INPUT****

CARTESIAN COORDINATES (ANGSTROEM)
---------------------------------
  S    -27.722000   13.341200    3.664040
  C    -29.272100   12.942500    3.198930
  C    -30.222200   13.667700    3.882720
  C    -29.666200   14.439800    4.971950
  C    -28.302700   14.368600    5.008050
  H    -30.336500   15.023000    5.650650
  C    -31.699200   13.689900    3.480570
  H    -31.815400   13.456600    2.414090
  H    -32.209500   14.670100    3.560740
  C    -32.602200   12.734200    4.313750
  H    -32.354100   11.678300    4.126160
  H    -32.402900   12.928100    5.352500
  C    -34.079100   12.929500    4.147220
  H    -34.378600   13.815500    4.572010
  H    -34.434400   13.009500    3.141560
  H    -34.688800   12.174000    4.716030
  S    -26.136800   16.087700    5.581490
  C    -25.703600   16.376400    7.234940
  C    -26.468400   15.654200    8.105720
  C    -27.475400   14.878600    7.455940
  C    -27.414300   14.943800    6.056170
  H    -26.302500   15.680300    9.182190
  C    -28.450200   14.050400    8.258740
  H    -29.423300   14.421800    8.081780
  H    -28.402700   14.235600    9.392450
  C    -28.395500   12.544300    7.986400
  H    -27.510400   12.157300    8.440730
  H    -28.338100   12.392200    6.959170
  C    -29.617100   11.785200    8.543140
  H    -29.594500   10.781700    8.112190
  H    -30.632400   12.293500    8.434130
  H    -29.552200   11.537200    9.555930
  H    -29.548700   12.333700    2.393960
  H    -24.922000   16.996500    7.647310

 Total Charge           Charge          ....    0
 Multiplicity           Mult            ....    1
 Number of Electrons    NEL             ....  134
 Basis Dimension        Dim             ....  322

ORBITAL ENERGIES
----------------

  NO   OCC          E(Eh)            E(eV)
   0   2.0000     -88.968001     -2420.9424
   1   2.0000     -88.966416     -2420.8993
   2   2.0000     -10.335012      -281.2300
   3   2.0000     -10.331222      -281.1268
   4   2.0000     -10.314029      -280.6590
   5   2.0000     -10.307663      -280.4858
   6   2.0000     -10.304200      -280.3915
   7   2.0000     -10.301416      -280.3158
   8   2.0000     -10.301048      -280.3058
   9   2.0000     -10.296604      -280.1848
  10   2.0000     -10.289967      -280.0042
  11   2.0000     -10.288945      -279.9764
  12   2.0000     -10.283125      -279.8181
  13   2.0000     -10.274416      -279.5811
  14   2.0000     -10.274227      -279.5759
  15   2.0000     -10.270483      -279.4740
  16   2.0000      -8.083631      -219.9668
  17   2.0000      -8.080832      -219.8906
  18   2.0000      -6.042058      -164.4128
  19   2.0000      -6.039346      -164.3390
  20   2.0000      -6.037975      -164.3017
  21   2.0000      -6.035369      -164.2307
  22   2.0000      -6.034441      -164.2055
  23   2.0000      -6.031621      -164.1287
  24   2.0000      -1.007883       -27.4259
  25   2.0000      -0.987807       -26.8796
  26   2.0000      -0.909654       -24.7529
  27   2.0000      -0.906930       -24.6788
  28   2.0000      -0.871528       -23.7155
  29   2.0000      -0.853710       -23.2306
  30   2.0000      -0.847374       -23.0582
  31   2.0000      -0.818872       -22.2826
  32   2.0000      -0.780761       -21.2456
  33   2.0000      -0.769349       -20.9351
  34   2.0000      -0.710829       -19.3426
  35   2.0000      -0.699347       -19.0302
  36   2.0000      -0.693302       -18.8657
  37   2.0000      -0.658960       -17.9312
  38   2.0000      -0.644200       -17.5296
  39   2.0000      -0.624029       -16.9807
  40   2.0000      -0.596161       -16.2224
  41   2.0000      -0.572760       -15.5856
  42   2.0000      -0.563016       -15.3205
  43   2.0000      -0.560156       -15.2426
  44   2.0000      -0.525512       -14.2999
  45   2.0000      -0.521008       -14.1773
  46   2.0000      -0.515763       -14.0346
  47   2.0000      -0.508359       -13.8331
  48   2.0000      -0.504008       -13.7148
  49   2.0000      -0.498791       -13.5728
  50   2.0000      -0.494349       -13.4519
  51   2.0000      -0.488944       -13.3048
  52   2.0000      -0.471587       -12.8325
  53   2.0000      -0.462783       -12.5930
  54   2.0000      -0.456762       -12.4291
  55   2.0000      -0.451502       -12.2860
  56   2.0000      -0.444079       -12.0840
  57   2.0000      -0.437144       -11.8953
  58   2.0000      -0.431606       -11.7446
  59   2.0000      -0.426600       -11.6084
  60   2.0000      -0.422977       -11.5098
  61   2.0000      -0.417179       -11.3520
  62   2.0000      -0.410189       -11.1618
  63   2.0000      -0.350679        -9.5425
  64   2.0000      -0.331713        -9.0264
  65   2.0000      -0.327794        -8.9197
  66   2.0000      -0.295058        -8.0289
  67   0.0000       0.034268         0.9325
  68   0.0000       0.066450         1.8082
  69   0.0000       0.115601         3.1457
  70   0.0000       0.123903         3.3716
  71   0.0000       0.125896         3.4258

MULLIKEN ATOMIC CHARGES
-----------------------
   0 S :    0.126352
   1 C :   -0.077429
   2 C :   -0.099714
   3 C :    0.033416
   4 C :   -0.158310
   5 H :    0.034879
   6 C :    0.030353
   7 H :    0.022222
   8 H :    0.025270
   9 C :   -0.064520
  10 H :    0.028358
  11 H :    0.017944
  12 C :   -0.017054
  13 H :   -0.000188
  14 H :    0.020102
  15 H :    0.037878
  16 S :    0.109508
  17 C :   -0.072613
  18 C :   -0.050466
  19 C :   -0.019028
  20 C :   -0.162125
  21 H :    0.020752
  22 C :    0.056276
  23 H :    0.003391
  24 H :    0.022045
  25 C :   -0.024011
  26 H :    0.021782
  27 H :    0.030369
  28 C :   -0.056056
  29 H :    0.029700
  30 H :    0.039929
  31 H :    0.012544
  32 H :    0.027352
  33 H :    0.051090
Sum of atomic charges:   -0.0000000

LOEWDIN ATOMIC CHARGES
----------------------
   0 S :    0.426870
   1 C :   -0.207496
   2 C :   -0.066992
   3 C :   -0.056802
   4 C :   -0.191316
   5 H :    0.041784
   6 C :   -0.035344
   7 H :    0.028485
   8 H :    0.031938
   9 C :   -0.041146
  10 H :    0.022951
  11 H :    0.020978
  12 C :   -0.065236
  13 H :    0.011880
  14 H :    0.020292
  15 H :    0.036357
  16 S :    0.403852
  17 C :   -0.188809
  18 C :   -0.076230
  19 C :   -0.049720
  20 C :   -0.196869
  21 H :    0.033938
  22 C :   -0.035829
  23 H :    0.019569
  24 H :    0.035543
  25 C :   -0.026490
  26 H :    0.024687
  27 H :    0.017307
  28 C :   -0.069201
  29 H :    0.030710
  30 H :    0.031336
  31 H :    0.014403
  32 H :    0.021776
  33 H :    0.032825

  Mayer bond orders larger than 0.100000
B(  0-S ,  1-C ) :   1.1579 B(  0-S ,  4-C ) :   1.1423 B(  1-C ,  2-C ) :   1.6119
B(  1-C , 32-H ) :   0.9693 B(  2-C ,  3-C ) :   1.2447 B(  2-C ,  6-C ) :   1.0273
B(  3-C ,  4-C ) :   1.5787 B(  3-C ,  5-H ) :   0.9897 B(  4-C , 20-C ) :   1.0160
B(  6-C ,  7-H ) :   0.9423 B(  6-C ,  8-H ) :   0.9493 B(  6-C ,  9-C ) :   1.0529
B(  9-C , 10-H ) :   0.9577 B(  9-C , 11-H ) :   0.9577 B(  9-C , 12-C ) :   1.0886
B( 12-C , 13-H ) :   0.9681 B( 12-C , 14-H ) :   0.9732 B( 12-C , 15-H ) :   0.9704
B( 16-S , 17-C ) :   1.1586 B( 16-S , 20-C ) :   1.1360 B( 17-C , 18-C ) :   1.6114
B( 17-C , 33-H ) :   0.9630 B( 18-C , 19-C ) :   1.2615 B( 18-C , 21-H ) :   0.9881
B( 19-C , 20-C ) :   1.5873 B( 19-C , 22-C ) :   1.0363 B( 22-C , 23-H ) :   0.9275
B( 22-C , 24-H ) :   0.9389 B( 22-C , 25-C ) :   1.0630 B( 25-C , 26-H ) :   0.9500
B( 25-C , 27-H ) :   0.9618 B( 25-C , 28-C ) :   1.0820 B( 28-C , 29-H ) :   0.9718
B( 28-C , 30-H ) :   0.9756 B( 28-C , 31-H ) :   0.9739

Dispersion correction           -0.014596569
FINAL SINGLE POINT ENERGY     -1339.879834452070

DIPOLE MOMENT
-------------
                                X             Y             Z
Electronic contribution:     27.39766      13.00422     -10.00485
Nuclear contribution   :    -27.95132     -13.12350      10.35868
                        -----------------------------------------
Total Dipole Moment    :     -0.55367      -0.11927       0.35382
                        -----------------------------------------
Magnitude (a.u.)       :      0.66781
Magnitude (Debye)      :      1.69743

Rotational constants in cm-1:     0.019558     0.008509     0.006906
Rotational constants in MHz :   586.336709   255.096864   207.039346

                             ****ORCA TERMINATED NORMALLY****
TOTAL RUN TIME: 0 days 0 hours 0 minutes 21 seconds 938 msec
