                         Program Version 4.2.1 -  RELEASE  -
|  1> ! wB97X-D3 SP def2-SVP
|  2> %pal
|  3> nprocs 24
|  4> end
|  5>
|  6> * xyz 0 1
|  7> S 	 -60.7824 	 3.17917 	 -14.3947
|  8> C 	 -59.7563 	 3.13799 	 -12.9647
|  9> C 	 -58.4518 	 3.42532 	 -13.2856
| 10> C 	 -58.3547 	 3.82553 	 -14.6527
| 11> C 	 -59.5327 	 3.90367 	 -15.4027
| 12> H 	 -57.5066 	 4.18043 	 -15.2033
| 13> C 	 -57.2424 	 3.4001 	 -12.3987
| 14> H 	 -56.4834 	 4.11205 	 -12.7507
| 15> H 	 -56.6866 	 2.49219 	 -12.4702
| 16> C 	 -57.4699 	 3.78551 	 -10.9397
| 17> H 	 -57.9615 	 4.83348 	 -10.9868
| 18> H 	 -58.2748 	 3.14564 	 -10.521
| 19> C 	 -56.1361 	 3.82955 	 -10.1611
| 20> H 	 -55.8203 	 2.90447 	 -9.74008
| 21> H 	 -55.2841 	 4.12168 	 -10.773
| 22> H 	 -56.2687 	 4.6064 	 -9.44138
| 23> S 	 -58.6924 	 5.73833 	 -17.2372
| 24> C 	 -59.18 	 5.52611 	 -18.9107
| 25> C 	 -60.1057 	 4.54602 	 -19.1405
| 26> C 	 -60.3496 	 3.86345 	 -17.9078
| 27> C 	 -59.6445 	 4.3182 	 -16.8181
| 28> H 	 -60.5228 	 4.27072 	 -20.1278
| 29> C 	 -61.2349 	 2.58766 	 -17.8886
| 30> H 	 -61.9989 	 2.45381 	 -18.6954
| 31> H 	 -61.7949 	 2.72638 	 -16.9931
| 32> C 	 -60.4544 	 1.24194 	 -17.5897
| 33> H 	 -61.2668 	 0.520084 	 -17.2973
| 34> H 	 -59.7322 	 1.13399 	 -16.7817
| 35> C 	 -59.8797 	 0.777886 	 -18.8984
| 36> H 	 -60.5698 	 0.814584 	 -19.7699
| 37> H 	 -59.6754 	 -0.290962 	 -18.8269
| 38> H 	 -58.9152 	 1.22107 	 -19.1931
| 39> H 	 -60.0115 	 2.72707 	 -12.0267
| 40> H 	 -58.8189 	 6.13817 	 -19.7235
| 41> *
| 42>
| 43>                          ****END OF INPUT****

CARTESIAN COORDINATES (ANGSTROEM)
---------------------------------
  S    -60.782400    3.179170  -14.394700
  C    -59.756300    3.137990  -12.964700
  C    -58.451800    3.425320  -13.285600
  C    -58.354700    3.825530  -14.652700
  C    -59.532700    3.903670  -15.402700
  H    -57.506600    4.180430  -15.203300
  C    -57.242400    3.400100  -12.398700
  H    -56.483400    4.112050  -12.750700
  H    -56.686600    2.492190  -12.470200
  C    -57.469900    3.785510  -10.939700
  H    -57.961500    4.833480  -10.986800
  H    -58.274800    3.145640  -10.521000
  C    -56.136100    3.829550  -10.161100
  H    -55.820300    2.904470   -9.740080
  H    -55.284100    4.121680  -10.773000
  H    -56.268700    4.606400   -9.441380
  S    -58.692400    5.738330  -17.237200
  C    -59.180000    5.526110  -18.910700
  C    -60.105700    4.546020  -19.140500
  C    -60.349600    3.863450  -17.907800
  C    -59.644500    4.318200  -16.818100
  H    -60.522800    4.270720  -20.127800
  C    -61.234900    2.587660  -17.888600
  H    -61.998900    2.453810  -18.695400
  H    -61.794900    2.726380  -16.993100
  C    -60.454400    1.241940  -17.589700
  H    -61.266800    0.520084  -17.297300
  H    -59.732200    1.133990  -16.781700
  C    -59.879700    0.777886  -18.898400
  H    -60.569800    0.814584  -19.769900
  H    -59.675400   -0.290962  -18.826900
  H    -58.915200    1.221070  -19.193100
  H    -60.011500    2.727070  -12.026700
  H    -58.818900    6.138170  -19.723500

 Total Charge           Charge          ....    0
 Multiplicity           Mult            ....    1
 Number of Electrons    NEL             ....  134
 Basis Dimension        Dim             ....  322

ORBITAL ENERGIES
----------------

  NO   OCC          E(Eh)            E(eV)
   0   2.0000     -88.969460     -2420.9821
   1   2.0000     -88.966482     -2420.9011
   2   2.0000     -10.334208      -281.2081
   3   2.0000     -10.329275      -281.0739
   4   2.0000     -10.317191      -280.7450
   5   2.0000     -10.313297      -280.6391
   6   2.0000     -10.305129      -280.4168
   7   2.0000     -10.301778      -280.3256
   8   2.0000     -10.297050      -280.1970
   9   2.0000     -10.296451      -280.1807
  10   2.0000     -10.294032      -280.1148
  11   2.0000     -10.291043      -280.0335
  12   2.0000     -10.288234      -279.9571
  13   2.0000     -10.287944      -279.9492
  14   2.0000     -10.277537      -279.6660
  15   2.0000     -10.271379      -279.4984
  16   2.0000      -8.083792      -219.9712
  17   2.0000      -8.080207      -219.8736
  18   2.0000      -6.042354      -164.4208
  19   2.0000      -6.038916      -164.3273
  20   2.0000      -6.038488      -164.3156
  21   2.0000      -6.034798      -164.2152
  22   2.0000      -6.034398      -164.2043
  23   2.0000      -6.030883      -164.1087
  24   2.0000      -1.005768       -27.3683
  25   2.0000      -0.985336       -26.8123
  26   2.0000      -0.913708       -24.8633
  27   2.0000      -0.901836       -24.5402
  28   2.0000      -0.870952       -23.6998
  29   2.0000      -0.851197       -23.1622
  30   2.0000      -0.842925       -22.9372
  31   2.0000      -0.814690       -22.1688
  32   2.0000      -0.782880       -21.3032
  33   2.0000      -0.771366       -20.9899
  34   2.0000      -0.712026       -19.3752
  35   2.0000      -0.700204       -19.0535
  36   2.0000      -0.684946       -18.6383
  37   2.0000      -0.668002       -18.1773
  38   2.0000      -0.639273       -17.3955
  39   2.0000      -0.609708       -16.5910
  40   2.0000      -0.595096       -16.1934
  41   2.0000      -0.577316       -15.7096
  42   2.0000      -0.563288       -15.3279
  43   2.0000      -0.546894       -14.8818
  44   2.0000      -0.536773       -14.6063
  45   2.0000      -0.526961       -14.3393
  46   2.0000      -0.518086       -14.0978
  47   2.0000      -0.513541       -13.9742
  48   2.0000      -0.505788       -13.7632
  49   2.0000      -0.492011       -13.3883
  50   2.0000      -0.489967       -13.3327
  51   2.0000      -0.475007       -12.9256
  52   2.0000      -0.474202       -12.9037
  53   2.0000      -0.470817       -12.8116
  54   2.0000      -0.460959       -12.5433
  55   2.0000      -0.452628       -12.3166
  56   2.0000      -0.441893       -12.0245
  57   2.0000      -0.440996       -12.0001
  58   2.0000      -0.425566       -11.5802
  59   2.0000      -0.420135       -11.4325
  60   2.0000      -0.415865       -11.3163
  61   2.0000      -0.412420       -11.2225
  62   2.0000      -0.403595       -10.9824
  63   2.0000      -0.353490        -9.6190
  64   2.0000      -0.333474        -9.0743
  65   2.0000      -0.327662        -8.9161
  66   2.0000      -0.288680        -7.8554
  67   0.0000       0.024674         0.6714
  68   0.0000       0.077220         2.1013
  69   0.0000       0.102604         2.7920
  70   0.0000       0.116169         3.1611
  71   0.0000       0.130581         3.5533

MULLIKEN ATOMIC CHARGES
-----------------------
   0 S :    0.092759
   1 C :   -0.101607
   2 C :   -0.047459
   3 C :   -0.001550
   4 C :   -0.125931
   5 H :    0.000871
   6 C :    0.074241
   7 H :    0.018872
   8 H :    0.030817
   9 C :   -0.150859
  10 H :    0.045863
  11 H :    0.037653
  12 C :    0.000462
  13 H :    0.032377
  14 H :    0.021385
  15 H :    0.032361
  16 S :    0.108809
  17 C :   -0.084024
  18 C :   -0.031228
  19 C :   -0.044329
  20 C :   -0.151468
  21 H :    0.034063
  22 C :    0.046629
  23 H :    0.039959
  24 H :    0.013860
  25 C :   -0.076378
  26 H :    0.030642
  27 H :    0.048099
  28 C :   -0.056638
  29 H :    0.019795
  30 H :    0.018983
  31 H :    0.041145
  32 H :    0.031063
  33 H :    0.050765
Sum of atomic charges:   -0.0000000

LOEWDIN ATOMIC CHARGES
----------------------
   0 S :    0.398708
   1 C :   -0.186171
   2 C :   -0.061813
   3 C :   -0.068365
   4 C :   -0.189506
   5 H :    0.019310
   6 C :   -0.038488
   7 H :    0.031927
   8 H :    0.028683
   9 C :   -0.045838
  10 H :    0.034288
  11 H :    0.022016
  12 C :   -0.059486
  13 H :    0.023602
  14 H :    0.027133
  15 H :    0.028046
  16 S :    0.407663
  17 C :   -0.175376
  18 C :   -0.071906
  19 C :   -0.054698
  20 C :   -0.193251
  21 H :    0.042305
  22 C :   -0.033366
  23 H :    0.037299
  24 H :    0.017215
  25 C :   -0.041198
  26 H :    0.029981
  27 H :    0.029367
  28 C :   -0.076200
  29 H :    0.022915
  30 H :    0.022730
  31 H :    0.026590
  32 H :    0.020262
  33 H :    0.025620

  Mayer bond orders larger than 0.100000
B(  0-S ,  1-C ) :   1.1329 B(  0-S ,  4-C ) :   1.1339 B(  1-C ,  2-C ) :   1.6078
B(  1-C , 32-H ) :   0.9725 B(  2-C ,  3-C ) :   1.2424 B(  2-C ,  6-C ) :   1.0152
B(  3-C ,  4-C ) :   1.5711 B(  3-C ,  5-H ) :   0.9914 B(  4-C , 20-C ) :   1.0419
B(  6-C ,  7-H ) :   0.9432 B(  6-C ,  8-H ) :   0.9285 B(  6-C ,  9-C ) :   1.0639
B(  9-C , 10-H ) :   0.9649 B(  9-C , 11-H ) :   0.9534 B(  9-C , 12-C ) :   1.0653
B( 12-C , 13-H ) :   0.9748 B( 12-C , 14-H ) :   0.9734 B( 12-C , 15-H ) :   0.9756
B( 16-S , 17-C ) :   1.1530 B( 16-S , 20-C ) :   1.1260 B( 17-C , 18-C ) :   1.6206
B( 17-C , 33-H ) :   0.9631 B( 18-C , 19-C ) :   1.2321 B( 18-C , 21-H ) :   0.9891
B( 19-C , 20-C ) :   1.6185 B( 19-C , 22-C ) :   1.0247 B( 22-C , 23-H ) :   0.9492
B( 22-C , 24-H ) :   0.9295 B( 22-C , 25-C ) :   1.0642 B( 25-C , 26-H ) :   0.9546
B( 25-C , 27-H ) :   0.9572 B( 25-C , 28-C ) :   1.0774 B( 28-C , 29-H ) :   0.9747
B( 28-C , 30-H ) :   0.9714 B( 28-C , 31-H ) :   0.9756

Dispersion correction           -0.014310201
FINAL SINGLE POINT ENERGY     -1339.867487711974

DIPOLE MOMENT
-------------
                                X             Y             Z
Electronic contribution:     -8.18616      12.68776      -8.03383
Nuclear contribution   :      8.50386     -12.99403       8.02999
                        -----------------------------------------
Total Dipole Moment    :      0.31770      -0.30627      -0.00383
                        -----------------------------------------
Magnitude (a.u.)       :      0.44130
Magnitude (Debye)      :      1.12170

Rotational constants in cm-1:     0.023356     0.007330     0.006327
Rotational constants in MHz :   700.199652   219.755820   189.673964

                             ****ORCA TERMINATED NORMALLY****
TOTAL RUN TIME: 0 days 0 hours 0 minutes 21 seconds 310 msec
