                         Program Version 4.2.1 -  RELEASE  -
|  1> ! wB97X-D3 SP def2-SVP
|  2> %pal
|  3> nprocs 24
|  4> end
|  5>
|  6> * xyz 0 1
|  7> S 	 32.0195 	 -31.6742 	 -110.32
|  8> C 	 32.0555 	 -31.7436 	 -108.534
|  9> C 	 33.3203 	 -31.5104 	 -107.983
| 10> C 	 34.2089 	 -31.1406 	 -109.037
| 11> C 	 33.6896 	 -31.2408 	 -110.323
| 12> H 	 35.2226 	 -30.8339 	 -108.869
| 13> C 	 33.7521 	 -31.3049 	 -106.514
| 14> H 	 32.8725 	 -31.2734 	 -105.864
| 15> H 	 34.333 	 -30.4221 	 -106.49
| 16> C 	 34.5608 	 -32.5206 	 -106.056
| 17> H 	 35.4517 	 -32.5864 	 -106.762
| 18> H 	 34.9199 	 -32.3984 	 -105.002
| 19> C 	 33.661 	 -33.7816 	 -105.962
| 20> H 	 33.1635 	 -34.0742 	 -106.892
| 21> H 	 34.1669 	 -34.5995 	 -105.464
| 22> H 	 32.8263 	 -33.5827 	 -105.268
| 23> S 	 33.3448 	 -30.0871 	 -112.701
| 24> C 	 34.708 	 -29.8287 	 -113.807
| 25> C 	 35.8264 	 -30.4032 	 -113.287
| 26> C 	 35.5319 	 -31.1374 	 -112.062
| 27> C 	 34.3072 	 -30.9318 	 -111.572
| 28> H 	 36.6904 	 -30.3366 	 -113.908
| 29> C 	 36.6456 	 -31.9062 	 -111.399
| 30> H 	 37.0092 	 -32.5905 	 -112.172
| 31> H 	 36.2776 	 -32.5773 	 -110.601
| 32> C 	 37.8394 	 -31.1947 	 -110.692
| 33> H 	 37.532 	 -30.2449 	 -110.32
| 34> H 	 38.5436 	 -30.8814 	 -111.544
| 35> C 	 38.4028 	 -32.0444 	 -109.545
| 36> H 	 38.8941 	 -32.9716 	 -109.876
| 37> H 	 37.6607 	 -32.2286 	 -108.742
| 38> H 	 39.2417 	 -31.4472 	 -109.126
| 39> H 	 31.1972 	 -31.8893 	 -107.866
| 40> H 	 34.7555 	 -29.3112 	 -114.764
| 41> *
| 42>
| 43>                          ****END OF INPUT****

CARTESIAN COORDINATES (ANGSTROEM)
---------------------------------
  S     32.019500  -31.674200  -110.320000
  C     32.055500  -31.743600  -108.534000
  C     33.320300  -31.510400  -107.983000
  C     34.208900  -31.140600  -109.037000
  C     33.689600  -31.240800  -110.323000
  H     35.222600  -30.833900  -108.869000
  C     33.752100  -31.304900  -106.514000
  H     32.872500  -31.273400  -105.864000
  H     34.333000  -30.422100  -106.490000
  C     34.560800  -32.520600  -106.056000
  H     35.451700  -32.586400  -106.762000
  H     34.919900  -32.398400  -105.002000
  C     33.661000  -33.781600  -105.962000
  H     33.163500  -34.074200  -106.892000
  H     34.166900  -34.599500  -105.464000
  H     32.826300  -33.582700  -105.268000
  S     33.344800  -30.087100  -112.701000
  C     34.708000  -29.828700  -113.807000
  C     35.826400  -30.403200  -113.287000
  C     35.531900  -31.137400  -112.062000
  C     34.307200  -30.931800  -111.572000
  H     36.690400  -30.336600  -113.908000
  C     36.645600  -31.906200  -111.399000
  H     37.009200  -32.590500  -112.172000
  H     36.277600  -32.577300  -110.601000
  C     37.839400  -31.194700  -110.692000
  H     37.532000  -30.244900  -110.320000
  H     38.543600  -30.881400  -111.544000
  C     38.402800  -32.044400  -109.545000
  H     38.894100  -32.971600  -109.876000
  H     37.660700  -32.228600  -108.742000
  H     39.241700  -31.447200  -109.126000
  H     31.197200  -31.889300  -107.866000
  H     34.755500  -29.311200  -114.764000

 Total Charge           Charge          ....    0
 Multiplicity           Mult            ....    1
 Number of Electrons    NEL             ....  134
 Basis Dimension        Dim             ....  322

ORBITAL ENERGIES
----------------

  NO   OCC          E(Eh)            E(eV)
   0   2.0000     -88.971064     -2421.0257
   1   2.0000     -88.959966     -2420.7237
   2   2.0000     -10.327751      -281.0324
   3   2.0000     -10.320236      -280.8279
   4   2.0000     -10.317324      -280.7487
   5   2.0000     -10.316859      -280.7360
   6   2.0000     -10.305424      -280.4248
   7   2.0000     -10.298879      -280.2467
   8   2.0000     -10.298164      -280.2273
   9   2.0000     -10.296384      -280.1788
  10   2.0000     -10.293985      -280.1136
  11   2.0000     -10.292008      -280.0598
  12   2.0000     -10.291779      -280.0535
  13   2.0000     -10.288385      -279.9612
  14   2.0000     -10.286352      -279.9059
  15   2.0000     -10.278927      -279.7038
  16   2.0000      -8.085473      -220.0169
  17   2.0000      -8.075656      -219.7498
  18   2.0000      -6.044019      -164.4661
  19   2.0000      -6.040122      -164.3601
  20   2.0000      -6.036113      -164.2510
  21   2.0000      -6.034359      -164.2032
  22   2.0000      -6.030017      -164.0851
  23   2.0000      -6.026129      -163.9793
  24   2.0000      -1.015767       -27.6404
  25   2.0000      -0.984752       -26.7965
  26   2.0000      -0.916509       -24.9395
  27   2.0000      -0.904252       -24.6059
  28   2.0000      -0.874029       -23.7835
  29   2.0000      -0.851872       -23.1806
  30   2.0000      -0.842766       -22.9328
  31   2.0000      -0.814263       -22.1572
  32   2.0000      -0.785780       -21.3822
  33   2.0000      -0.771302       -20.9882
  34   2.0000      -0.710559       -19.3353
  35   2.0000      -0.696131       -18.9427
  36   2.0000      -0.693262       -18.8646
  37   2.0000      -0.664954       -18.0943
  38   2.0000      -0.637395       -17.3444
  39   2.0000      -0.625583       -17.0230
  40   2.0000      -0.594445       -16.1757
  41   2.0000      -0.571978       -15.5643
  42   2.0000      -0.562361       -15.3026
  43   2.0000      -0.555298       -15.1104
  44   2.0000      -0.548019       -14.9124
  45   2.0000      -0.522539       -14.2190
  46   2.0000      -0.518333       -14.1046
  47   2.0000      -0.510162       -13.8822
  48   2.0000      -0.504266       -13.7218
  49   2.0000      -0.490642       -13.3510
  50   2.0000      -0.486888       -13.2489
  51   2.0000      -0.483962       -13.1693
  52   2.0000      -0.469963       -12.7883
  53   2.0000      -0.468507       -12.7487
  54   2.0000      -0.459341       -12.4993
  55   2.0000      -0.452238       -12.3060
  56   2.0000      -0.443357       -12.0644
  57   2.0000      -0.437130       -11.8949
  58   2.0000      -0.430370       -11.7110
  59   2.0000      -0.427778       -11.6404
  60   2.0000      -0.422260       -11.4903
  61   2.0000      -0.417041       -11.3483
  62   2.0000      -0.407443       -11.0871
  63   2.0000      -0.354910        -9.6576
  64   2.0000      -0.335704        -9.1350
  65   2.0000      -0.325754        -8.8642
  66   2.0000      -0.291111        -7.9215
  67   0.0000       0.027881         0.7587
  68   0.0000       0.078503         2.1362
  69   0.0000       0.099381         2.7043
  70   0.0000       0.117670         3.2020
  71   0.0000       0.121535         3.3071

MULLIKEN ATOMIC CHARGES
-----------------------
   0 S :    0.117954
   1 C :   -0.125349
   2 C :   -0.100612
   3 C :    0.021325
   4 C :   -0.133384
   5 H :   -0.009397
   6 C :    0.101563
   7 H :    0.020527
   8 H :    0.031586
   9 C :   -0.106986
  10 H :    0.043918
  11 H :    0.038862
  12 C :   -0.061230
  13 H :    0.049401
  14 H :    0.036171
  15 H :    0.017058
  16 S :    0.085596
  17 C :   -0.089970
  18 C :   -0.029242
  19 C :   -0.047238
  20 C :   -0.099551
  21 H :    0.013543
  22 C :    0.027062
  23 H :    0.030870
  24 H :    0.016499
  25 C :   -0.069369
  26 H :    0.020756
  27 H :    0.035174
  28 C :   -0.071133
  29 H :    0.042740
  30 H :    0.049654
  31 H :    0.036765
  32 H :    0.048455
  33 H :    0.057980
Sum of atomic charges:   -0.0000000

LOEWDIN ATOMIC CHARGES
----------------------
   0 S :    0.406981
   1 C :   -0.192710
   2 C :   -0.056735
   3 C :   -0.059904
   4 C :   -0.193699
   5 H :    0.023933
   6 C :   -0.019822
   7 H :    0.029009
   8 H :    0.027683
   9 C :   -0.044758
  10 H :    0.026233
  11 H :    0.028357
  12 C :   -0.070717
  13 H :    0.026804
  14 H :    0.025934
  15 H :    0.025493
  16 S :    0.397406
  17 C :   -0.175117
  18 C :   -0.067006
  19 C :   -0.062257
  20 C :   -0.208865
  21 H :    0.029834
  22 C :   -0.043215
  23 H :    0.032520
  24 H :    0.027435
  25 C :   -0.045558
  26 H :    0.016182
  27 H :    0.031204
  28 C :   -0.069532
  29 H :    0.028670
  30 H :    0.028982
  31 H :    0.032411
  32 H :    0.029055
  33 H :    0.035768

  Mayer bond orders larger than 0.100000
B(  0-S ,  1-C ) :   1.1299 B(  0-S ,  4-C ) :   1.1454 B(  1-C ,  2-C ) :   1.6212
B(  1-C , 32-H ) :   0.9609 B(  2-C ,  3-C ) :   1.2370 B(  2-C ,  6-C ) :   1.0116
B(  3-C ,  4-C ) :   1.5738 B(  3-C ,  5-H ) :   0.9922 B(  4-C , 20-C ) :   1.0505
B(  6-C ,  7-H ) :   0.9429 B(  6-C ,  8-H ) :   0.9469 B(  6-C ,  9-C ) :   1.0677
B(  9-C , 10-H ) :   0.9558 B(  9-C , 11-H ) :   0.9559 B(  9-C , 12-C ) :   1.0657
B( 12-C , 13-H ) :   0.9748 B( 12-C , 14-H ) :   0.9756 B( 12-C , 15-H ) :   0.9705
B( 16-S , 17-C ) :   1.1280 B( 16-S , 20-C ) :   1.1102 B( 17-C , 18-C ) :   1.6688
B( 17-C , 33-H ) :   0.9654 B( 18-C , 19-C ) :   1.1742 B( 18-C , 21-H ) :   0.9955
B( 19-C , 20-C ) :   1.6510 B( 19-C , 22-C ) :   1.0631 B( 22-C , 23-H ) :   0.9264
B( 22-C , 24-H ) :   0.9421 B( 22-C , 25-C ) :   1.0419 B( 25-C , 26-H ) :   0.9585
B( 25-C , 27-H ) :   0.9505 B( 25-C , 28-C ) :   1.0840 B( 28-C , 29-H ) :   0.9756
B( 28-C , 30-H ) :   0.9698 B( 28-C , 31-H ) :   0.9712

Dispersion correction           -0.014868965
FINAL SINGLE POINT ENERGY     -1339.875683939766

DIPOLE MOMENT
-------------
                                X             Y             Z
Electronic contribution:    -20.09811       9.28112     -21.41934
Nuclear contribution   :     20.68981      -9.26581      21.80942
                        -----------------------------------------
Total Dipole Moment    :      0.59170       0.01531       0.39008
                        -----------------------------------------
Magnitude (a.u.)       :      0.70888
Magnitude (Debye)      :      1.80182

Rotational constants in cm-1:     0.018480     0.009879     0.006844
Rotational constants in MHz :   554.021110   296.153327   205.171340

                             ****ORCA TERMINATED NORMALLY****
TOTAL RUN TIME: 0 days 0 hours 0 minutes 22 seconds 331 msec
