                         Program Version 4.2.1 -  RELEASE  -
|  1> ! wB97X-D3 SP def2-SVP
|  2> %pal
|  3> nprocs 24
|  4> end
|  5>
|  6> * xyz 0 1
|  7> S 	 -103.509 	 1.02686 	 -121.377
|  8> C 	 -105.11 	 0.802731 	 -122.239
|  9> C 	 -105.569 	 -0.524063 	 -121.9
| 10> C 	 -104.729 	 -1.28004 	 -121.02
| 11> C 	 -103.612 	 -0.602548 	 -120.593
| 12> H 	 -104.932 	 -2.22864 	 -120.524
| 13> C 	 -106.839 	 -1.15561 	 -122.564
| 14> H 	 -106.684 	 -2.18423 	 -122.833
| 15> H 	 -106.992 	 -0.575151 	 -123.483
| 16> C 	 -107.975 	 -0.98191 	 -121.536
| 17> H 	 -107.758 	 -1.47757 	 -120.633
| 18> H 	 -108.067 	 0.045612 	 -121.223
| 19> C 	 -109.287 	 -1.63871 	 -121.881
| 20> H 	 -109.313 	 -2.69912 	 -121.727
| 21> H 	 -110.14 	 -1.24381 	 -121.309
| 22> H 	 -109.509 	 -1.45519 	 -122.944
| 23> S 	 -101.995 	 -2.77399 	 -120.072
| 24> C 	 -101.074 	 -2.97152 	 -118.591
| 25> C 	 -101.426 	 -1.93833 	 -117.732
| 26> C 	 -102.422 	 -1.0716 	 -118.305
| 27> C 	 -102.665 	 -1.2307 	 -119.644
| 28> H 	 -101.119 	 -1.89104 	 -116.706
| 29> C 	 -103.119 	 -0.0458354 	 -117.403
| 30> H 	 -102.743 	 0.968972 	 -117.546
| 31> H 	 -102.768 	 -0.437152 	 -116.406
| 32> C 	 -104.646 	 -0.0409298 	 -117.384
| 33> H 	 -105.115 	 -0.987816 	 -117.519
| 34> H 	 -104.931 	 0.552082 	 -118.237
| 35> C 	 -105.132 	 0.485867 	 -115.991
| 36> H 	 -105.01 	 -0.288584 	 -115.236
| 37> H 	 -106.233 	 0.58465 	 -116.06
| 38> H 	 -104.637 	 1.39726 	 -115.613
| 39> H 	 -105.521 	 1.54918 	 -122.966
| 40> H 	 -100.5 	 -3.86387 	 -118.297
| 41> *
| 42>
| 43>                          ****END OF INPUT****

CARTESIAN COORDINATES (ANGSTROEM)
---------------------------------
  S    -103.509000    1.026860  -121.377000
  C    -105.110000    0.802731  -122.239000
  C    -105.569000   -0.524063  -121.900000
  C    -104.729000   -1.280040  -121.020000
  C    -103.612000   -0.602548  -120.593000
  H    -104.932000   -2.228640  -120.524000
  C    -106.839000   -1.155610  -122.564000
  H    -106.684000   -2.184230  -122.833000
  H    -106.992000   -0.575151  -123.483000
  C    -107.975000   -0.981910  -121.536000
  H    -107.758000   -1.477570  -120.633000
  H    -108.067000    0.045612  -121.223000
  C    -109.287000   -1.638710  -121.881000
  H    -109.313000   -2.699120  -121.727000
  H    -110.140000   -1.243810  -121.309000
  H    -109.509000   -1.455190  -122.944000
  S    -101.995000   -2.773990  -120.072000
  C    -101.074000   -2.971520  -118.591000
  C    -101.426000   -1.938330  -117.732000
  C    -102.422000   -1.071600  -118.305000
  C    -102.665000   -1.230700  -119.644000
  H    -101.119000   -1.891040  -116.706000
  C    -103.119000   -0.045835  -117.403000
  H    -102.743000    0.968972  -117.546000
  H    -102.768000   -0.437152  -116.406000
  C    -104.646000   -0.040930  -117.384000
  H    -105.115000   -0.987816  -117.519000
  H    -104.931000    0.552082  -118.237000
  C    -105.132000    0.485867  -115.991000
  H    -105.010000   -0.288584  -115.236000
  H    -106.233000    0.584650  -116.060000
  H    -104.637000    1.397260  -115.613000
  H    -105.521000    1.549180  -122.966000
  H    -100.500000   -3.863870  -118.297000

 Total Charge           Charge          ....    0
 Multiplicity           Mult            ....    1
 Number of Electrons    NEL             ....  134
 Basis Dimension        Dim             ....  322

ORBITAL ENERGIES
----------------

  NO   OCC          E(Eh)            E(eV)
   0   2.0000     -88.971085     -2421.0263
   1   2.0000     -88.962714     -2420.7985
   2   2.0000     -10.339454      -281.3508
   3   2.0000     -10.335818      -281.2519
   4   2.0000     -10.325694      -280.9764
   5   2.0000     -10.323574      -280.9187
   6   2.0000     -10.316727      -280.7324
   7   2.0000     -10.301092      -280.3070
   8   2.0000     -10.298547      -280.2377
   9   2.0000     -10.296957      -280.1944
  10   2.0000     -10.295554      -280.1563
  11   2.0000     -10.289874      -280.0017
  12   2.0000     -10.280545      -279.7479
  13   2.0000     -10.279631      -279.7230
  14   2.0000     -10.278900      -279.7031
  15   2.0000     -10.274453      -279.5821
  16   2.0000      -8.083120      -219.9529
  17   2.0000      -8.077626      -219.8034
  18   2.0000      -6.041832      -164.4066
  19   2.0000      -6.037999      -164.3023
  20   2.0000      -6.036229      -164.2541
  21   2.0000      -6.033796      -164.1879
  22   2.0000      -6.031964      -164.1381
  23   2.0000      -6.028378      -164.0405
  24   2.0000      -1.004429       -27.3319
  25   2.0000      -0.974154       -26.5081
  26   2.0000      -0.909992       -24.7621
  27   2.0000      -0.903448       -24.5841
  28   2.0000      -0.868902       -23.6440
  29   2.0000      -0.845674       -23.0120
  30   2.0000      -0.841884       -22.9088
  31   2.0000      -0.815304       -22.1856
  32   2.0000      -0.775604       -21.1053
  33   2.0000      -0.765188       -20.8218
  34   2.0000      -0.707871       -19.2622
  35   2.0000      -0.701084       -19.0775
  36   2.0000      -0.690491       -18.7892
  37   2.0000      -0.666982       -18.1495
  38   2.0000      -0.639947       -17.4139
  39   2.0000      -0.613502       -16.6942
  40   2.0000      -0.593867       -16.1600
  41   2.0000      -0.569970       -15.5097
  42   2.0000      -0.561035       -15.2665
  43   2.0000      -0.558461       -15.1965
  44   2.0000      -0.527208       -14.3460
  45   2.0000      -0.522870       -14.2280
  46   2.0000      -0.519030       -14.1235
  47   2.0000      -0.512820       -13.9545
  48   2.0000      -0.507551       -13.8112
  49   2.0000      -0.500505       -13.6194
  50   2.0000      -0.489873       -13.3301
  51   2.0000      -0.477448       -12.9920
  52   2.0000      -0.470723       -12.8090
  53   2.0000      -0.463061       -12.6005
  54   2.0000      -0.460163       -12.5217
  55   2.0000      -0.448172       -12.1954
  56   2.0000      -0.442644       -12.0450
  57   2.0000      -0.441359       -12.0100
  58   2.0000      -0.434834       -11.8324
  59   2.0000      -0.419833       -11.4242
  60   2.0000      -0.411992       -11.2109
  61   2.0000      -0.409441       -11.1414
  62   2.0000      -0.401523       -10.9260
  63   2.0000      -0.341805        -9.3010
  64   2.0000      -0.332072        -9.0361
  65   2.0000      -0.323597        -8.8055
  66   2.0000      -0.301621        -8.2075
  67   0.0000       0.028693         0.7808
  68   0.0000       0.055593         1.5128
  69   0.0000       0.106234         2.8908
  70   0.0000       0.109505         2.9798
  71   0.0000       0.130164         3.5419

MULLIKEN ATOMIC CHARGES
-----------------------
   0 S :    0.092121
   1 C :   -0.150691
   2 C :   -0.106943
   3 C :    0.030943
   4 C :   -0.143790
   5 H :    0.032742
   6 C :    0.086626
   7 H :    0.028531
   8 H :    0.025516
   9 C :   -0.064879
  10 H :    0.011806
  11 H :    0.024151
  12 C :   -0.031708
  13 H :    0.027672
  14 H :    0.032387
  15 H :    0.020338
  16 S :    0.089811
  17 C :   -0.098590
  18 C :   -0.015121
  19 C :   -0.070386
  20 C :   -0.147005
  21 H :    0.019716
  22 C :    0.043559
  23 H :    0.049518
  24 H :    0.007854
  25 C :   -0.050124
  26 H :    0.019377
  27 H :    0.041074
  28 C :   -0.070163
  29 H :    0.029647
  30 H :    0.033806
  31 H :    0.042821
  32 H :    0.084959
  33 H :    0.074426
Sum of atomic charges:    0.0000000

LOEWDIN ATOMIC CHARGES
----------------------
   0 S :    0.353524
   1 C :   -0.191671
   2 C :   -0.048541
   3 C :   -0.067855
   4 C :   -0.174423
   5 H :    0.036024
   6 C :   -0.019980
   7 H :    0.027861
   8 H :    0.029793
   9 C :   -0.044729
  10 H :    0.020188
  11 H :    0.025239
  12 C :   -0.067263
  13 H :    0.020820
  14 H :    0.029973
  15 H :    0.021912
  16 S :    0.413034
  17 C :   -0.185676
  18 C :   -0.074603
  19 C :   -0.059816
  20 C :   -0.206302
  21 H :    0.028814
  22 C :   -0.032773
  23 H :    0.034149
  24 H :    0.028801
  25 C :   -0.037321
  26 H :    0.020742
  27 H :    0.023860
  28 C :   -0.065943
  29 H :    0.023289
  30 H :    0.028446
  31 H :    0.026468
  32 H :    0.044302
  33 H :    0.039656

  Mayer bond orders larger than 0.100000
B(  0-S ,  1-C ) :   1.1177 B(  0-S ,  4-C ) :   1.1258 B(  1-C ,  2-C ) :   1.5996
B(  1-C ,  4-C ) :   0.1039 B(  1-C , 32-H ) :   0.9654 B(  2-C ,  3-C ) :   1.2332
B(  2-C ,  6-C ) :   1.0217 B(  3-C ,  4-C ) :   1.5958 B(  3-C ,  5-H ) :   0.9836
B(  4-C , 20-C ) :   1.0282 B(  6-C ,  7-H ) :   0.9492 B(  6-C ,  8-H ) :   0.9428
B(  6-C ,  9-C ) :   1.0565 B(  9-C , 10-H ) :   0.9584 B(  9-C , 11-H ) :   0.9553
B(  9-C , 12-C ) :   1.0795 B( 12-C , 13-H ) :   0.9769 B( 12-C , 14-H ) :   0.9719
B( 12-C , 15-H ) :   0.9736 B( 16-S , 17-C ) :   1.1707 B( 16-S , 20-C ) :   1.1259
B( 17-C , 18-C ) :   1.5723 B( 17-C , 33-H ) :   0.9652 B( 18-C , 19-C ) :   1.2833
B( 18-C , 21-H ) :   0.9860 B( 19-C , 20-C ) :   1.5795 B( 19-C , 22-C ) :   1.0200
B( 22-C , 23-H ) :   0.9372 B( 22-C , 24-H ) :   0.9434 B( 22-C , 25-C ) :   1.0587
B( 25-C , 26-H ) :   0.9596 B( 25-C , 27-H ) :   0.9513 B( 25-C , 28-C ) :   1.0787
B( 28-C , 29-H ) :   0.9750 B( 28-C , 30-H ) :   0.9747 B( 28-C , 31-H ) :   0.9769

Dispersion correction           -0.014548322
FINAL SINGLE POINT ENERGY     -1339.859138631401

DIPOLE MOMENT
-------------
                                X             Y             Z
Electronic contribution:     24.83432      -1.48086      -9.58009
Nuclear contribution   :    -25.40002       1.26710       9.91391
                        -----------------------------------------
Total Dipole Moment    :     -0.56570      -0.21376       0.33382
                        -----------------------------------------
Magnitude (a.u.)       :      0.69076
Magnitude (Debye)      :      1.75576

Rotational constants in cm-1:     0.017272     0.008368     0.007461
Rotational constants in MHz :   517.798222   250.860326   223.682588

                             ****ORCA TERMINATED NORMALLY****
TOTAL RUN TIME: 0 days 0 hours 0 minutes 21 seconds 325 msec
