                         Program Version 4.2.1 -  RELEASE  -
|  1> ! wB97X-D3 SP def2-SVP
|  2> %pal
|  3> nprocs 24
|  4> end
|  5>
|  6> * xyz 0 1
|  7> S 	 -38.2202 	 -3.48787 	 10.8962
|  8> C 	 -37.3896 	 -3.18665 	 12.3911
|  9> C 	 -36.8296 	 -4.35633 	 12.9437
| 10> C 	 -36.8445 	 -5.42901 	 11.9636
| 11> C 	 -37.5925 	 -5.18089 	 10.8692
| 12> H 	 -36.3749 	 -6.40122 	 12.015
| 13> C 	 -36.3076 	 -4.46872 	 14.3814
| 14> H 	 -37.1528 	 -4.48316 	 15.0851
| 15> H 	 -35.8194 	 -3.49785 	 14.628
| 16> C 	 -35.3266 	 -5.66862 	 14.6481
| 17> H 	 -35.1374 	 -5.54107 	 15.7245
| 18> H 	 -35.8377 	 -6.52795 	 14.5309
| 19> C 	 -34.0297 	 -5.79337 	 13.8979
| 20> H 	 -33.4304 	 -6.54129 	 14.3668
| 21> H 	 -34.1844 	 -6.01096 	 12.8235
| 22> H 	 -33.3934 	 -4.94552 	 13.9725
| 23> S 	 -37.3039 	 -5.67067 	 8.29887
| 24> C 	 -37.792 	 -7.15158 	 7.56957
| 25> C 	 -38.2978 	 -7.994 	 8.52431
| 26> C 	 -38.452 	 -7.41209 	 9.82581
| 27> C 	 -37.9759 	 -6.09789 	 9.83046
| 28> H 	 -38.6173 	 -8.9818 	 8.21498
| 29> C 	 -38.9337 	 -8.13529 	 11.0645
| 30> H 	 -39.9832 	 -8.23569 	 11.0575
| 31> H 	 -38.7843 	 -7.34501 	 11.8197
| 32> C 	 -38.0972 	 -9.32246 	 11.6615
| 33> H 	 -37.0407 	 -9.05779 	 11.9508
| 34> H 	 -38.1181 	 -10.23 	 11.0538
| 35> C 	 -38.7721 	 -9.97319 	 12.916
| 36> H 	 -39.7955 	 -10.1758 	 12.7591
| 37> H 	 -38.7378 	 -9.23648 	 13.7497
| 38> H 	 -38.1335 	 -10.8395 	 13.1306
| 39> H 	 -37.4483 	 -2.34157 	 13.0697
| 40> H 	 -37.5858 	 -7.26195 	 6.5337
| 41> *
| 42>
| 43>                          ****END OF INPUT****

CARTESIAN COORDINATES (ANGSTROEM)
---------------------------------
  S    -38.220200   -3.487870   10.896200
  C    -37.389600   -3.186650   12.391100
  C    -36.829600   -4.356330   12.943700
  C    -36.844500   -5.429010   11.963600
  C    -37.592500   -5.180890   10.869200
  H    -36.374900   -6.401220   12.015000
  C    -36.307600   -4.468720   14.381400
  H    -37.152800   -4.483160   15.085100
  H    -35.819400   -3.497850   14.628000
  C    -35.326600   -5.668620   14.648100
  H    -35.137400   -5.541070   15.724500
  H    -35.837700   -6.527950   14.530900
  C    -34.029700   -5.793370   13.897900
  H    -33.430400   -6.541290   14.366800
  H    -34.184400   -6.010960   12.823500
  H    -33.393400   -4.945520   13.972500
  S    -37.303900   -5.670670    8.298870
  C    -37.792000   -7.151580    7.569570
  C    -38.297800   -7.994000    8.524310
  C    -38.452000   -7.412090    9.825810
  C    -37.975900   -6.097890    9.830460
  H    -38.617300   -8.981800    8.214980
  C    -38.933700   -8.135290   11.064500
  H    -39.983200   -8.235690   11.057500
  H    -38.784300   -7.345010   11.819700
  C    -38.097200   -9.322460   11.661500
  H    -37.040700   -9.057790   11.950800
  H    -38.118100  -10.230000   11.053800
  C    -38.772100   -9.973190   12.916000
  H    -39.795500  -10.175800   12.759100
  H    -38.737800   -9.236480   13.749700
  H    -38.133500  -10.839500   13.130600
  H    -37.448300   -2.341570   13.069700
  H    -37.585800   -7.261950    6.533700

 Total Charge           Charge          ....    0
 Multiplicity           Mult            ....    1
 Number of Electrons    NEL             ....  134
 Basis Dimension        Dim             ....  322

ORBITAL ENERGIES
----------------

  NO   OCC          E(Eh)            E(eV)
   0   2.0000     -88.965252     -2420.8676
   1   2.0000     -88.958702     -2420.6893
   2   2.0000     -10.326150      -280.9888
   3   2.0000     -10.321603      -280.8651
   4   2.0000     -10.312646      -280.6214
   5   2.0000     -10.312299      -280.6119
   6   2.0000     -10.307421      -280.4792
   7   2.0000     -10.304856      -280.4094
   8   2.0000     -10.300546      -280.2921
   9   2.0000     -10.297285      -280.2034
  10   2.0000     -10.294018      -280.1145
  11   2.0000     -10.293619      -280.1036
  12   2.0000     -10.291517      -280.0464
  13   2.0000     -10.282373      -279.7976
  14   2.0000     -10.280431      -279.7447
  15   2.0000     -10.273465      -279.5552
  16   2.0000      -8.079202      -219.8462
  17   2.0000      -8.075039      -219.7330
  18   2.0000      -6.037795      -164.2968
  19   2.0000      -6.033923      -164.1914
  20   2.0000      -6.033379      -164.1766
  21   2.0000      -6.029808      -164.0794
  22   2.0000      -6.029122      -164.0608
  23   2.0000      -6.026072      -163.9778
  24   2.0000      -1.009376       -27.4665
  25   2.0000      -0.981088       -26.6968
  26   2.0000      -0.908634       -24.7252
  27   2.0000      -0.905037       -24.6273
  28   2.0000      -0.874421       -23.7942
  29   2.0000      -0.853975       -23.2378
  30   2.0000      -0.844363       -22.9763
  31   2.0000      -0.819969       -22.3125
  32   2.0000      -0.784672       -21.3520
  33   2.0000      -0.771916       -21.0049
  34   2.0000      -0.710450       -19.3323
  35   2.0000      -0.698188       -18.9987
  36   2.0000      -0.691510       -18.8170
  37   2.0000      -0.661146       -17.9907
  38   2.0000      -0.640972       -17.4417
  39   2.0000      -0.621571       -16.9138
  40   2.0000      -0.600450       -16.3391
  41   2.0000      -0.567318       -15.4375
  42   2.0000      -0.563153       -15.3242
  43   2.0000      -0.548878       -14.9357
  44   2.0000      -0.538499       -14.6533
  45   2.0000      -0.535836       -14.5808
  46   2.0000      -0.518550       -14.1105
  47   2.0000      -0.513803       -13.9813
  48   2.0000      -0.512001       -13.9322
  49   2.0000      -0.495093       -13.4722
  50   2.0000      -0.492522       -13.4022
  51   2.0000      -0.477343       -12.9892
  52   2.0000      -0.469162       -12.7665
  53   2.0000      -0.465540       -12.6680
  54   2.0000      -0.459531       -12.5045
  55   2.0000      -0.449150       -12.2220
  56   2.0000      -0.444737       -12.1019
  57   2.0000      -0.438984       -11.9454
  58   2.0000      -0.437384       -11.9018
  59   2.0000      -0.428630       -11.6636
  60   2.0000      -0.419495       -11.4150
  61   2.0000      -0.411572       -11.1994
  62   2.0000      -0.406525       -11.0621
  63   2.0000      -0.345431        -9.3997
  64   2.0000      -0.327907        -8.9228
  65   2.0000      -0.325278        -8.8513
  66   2.0000      -0.296136        -8.0583
  67   0.0000       0.033989         0.9249
  68   0.0000       0.065527         1.7831
  69   0.0000       0.113833         3.0976
  70   0.0000       0.118777         3.2321
  71   0.0000       0.124776         3.3953

MULLIKEN ATOMIC CHARGES
-----------------------
   0 S :    0.113648
   1 C :   -0.090275
   2 C :   -0.129777
   3 C :    0.036172
   4 C :   -0.159286
   5 H :    0.009569
   6 C :    0.046040
   7 H :    0.045115
   8 H :    0.026763
   9 C :   -0.053283
  10 H :    0.027923
  11 H :    0.007045
  12 C :   -0.021152
  13 H :    0.025025
  14 H :    0.040956
  15 H :    0.018010
  16 S :    0.098970
  17 C :   -0.085701
  18 C :   -0.027700
  19 C :   -0.027580
  20 C :   -0.163739
  21 H :    0.016000
  22 C :    0.083812
  23 H :    0.025905
  24 H :    0.018902
  25 C :   -0.099751
  26 H :    0.045924
  27 H :    0.032528
  28 C :   -0.055722
  29 H :    0.029126
  30 H :    0.027177
  31 H :    0.043659
  32 H :    0.042709
  33 H :    0.052991
Sum of atomic charges:   -0.0000000

LOEWDIN ATOMIC CHARGES
----------------------
   0 S :    0.386355
   1 C :   -0.207050
   2 C :   -0.062250
   3 C :   -0.063929
   4 C :   -0.185290
   5 H :    0.031235
   6 C :   -0.034208
   7 H :    0.036806
   8 H :    0.032974
   9 C :   -0.036334
  10 H :    0.031763
  11 H :    0.007650
  12 C :   -0.060878
  13 H :    0.027769
  14 H :    0.029847
  15 H :    0.021837
  16 S :    0.431723
  17 C :   -0.183566
  18 C :   -0.071363
  19 C :   -0.052880
  20 C :   -0.211295
  21 H :    0.030400
  22 C :   -0.038380
  23 H :    0.028032
  24 H :    0.037568
  25 C :   -0.039378
  26 H :    0.029445
  27 H :    0.021256
  28 C :   -0.059617
  29 H :    0.017354
  30 H :    0.021976
  31 H :    0.030514
  32 H :    0.029502
  33 H :    0.022412

  Mayer bond orders larger than 0.100000
B(  0-S ,  1-C ) :   1.1320 B(  0-S ,  4-C ) :   1.1217 B(  1-C ,  2-C ) :   1.6442
B(  1-C , 32-H ) :   0.9630 B(  2-C ,  3-C ) :   1.2010 B(  2-C ,  6-C ) :   1.0109
B(  3-C ,  4-C ) :   1.6278 B(  3-C ,  5-H ) :   0.9880 B(  4-C , 20-C ) :   1.0062
B(  6-C ,  7-H ) :   0.9381 B(  6-C ,  8-H ) :   0.9397 B(  6-C ,  9-C ) :   1.0788
B(  9-C , 10-H ) :   0.9513 B(  9-C , 11-H ) :   0.9484 B(  9-C , 12-C ) :   1.0905
B( 12-C , 13-H ) :   0.9681 B( 12-C , 14-H ) :   0.9718 B( 12-C , 15-H ) :   0.9714
B( 16-S , 17-C ) :   1.1736 B( 16-S , 20-C ) :   1.1749 B( 17-C , 18-C ) :   1.5688
B( 17-C , 20-C ) :   0.1006 B( 17-C , 33-H ) :   0.9800 B( 18-C , 19-C ) :   1.2381
B( 18-C , 21-H ) :   1.0005 B( 19-C , 20-C ) :   1.5764 B( 19-C , 22-C ) :   1.0443
B( 22-C , 23-H ) :   0.9317 B( 22-C , 24-H ) :   0.9292 B( 22-C , 25-C ) :   1.0505
B( 25-C , 26-H ) :   0.9571 B( 25-C , 27-H ) :   0.9633 B( 25-C , 28-C ) :   1.0653
B( 28-C , 29-H ) :   0.9774 B( 28-C , 30-H ) :   0.9783 B( 28-C , 31-H ) :   0.9778

Dispersion correction           -0.014483290
FINAL SINGLE POINT ENERGY     -1339.862317421183

DIPOLE MOMENT
-------------
                                X             Y             Z
Electronic contribution:     -7.30813      17.75349     -23.49788
Nuclear contribution   :      7.44398     -18.33199      24.06894
                        -----------------------------------------
Total Dipole Moment    :      0.13585      -0.57850       0.57106
                        -----------------------------------------
Magnitude (a.u.)       :      0.82415
Magnitude (Debye)      :      2.09482

Rotational constants in cm-1:     0.015268     0.010403     0.007452
Rotational constants in MHz :   457.711345   311.878764   223.416285

                             ****ORCA TERMINATED NORMALLY****
TOTAL RUN TIME: 0 days 0 hours 0 minutes 21 seconds 51 msec
