                         Program Version 4.2.1 -  RELEASE  -
|  1> ! wB97X-D3 SP def2-SVP
|  2> %pal
|  3> nprocs 24
|  4> end
|  5>
|  6> * xyz 0 1
|  7> S 	 -112.173 	 20.0662 	 -112.674
|  8> C 	 -113.032 	 21.0331 	 -113.871
|  9> C 	 -114.393 	 21.0291 	 -113.678
| 10> C 	 -114.679 	 20.4188 	 -112.408
| 11> C 	 -113.609 	 19.8877 	 -111.743
| 12> H 	 -115.666 	 20.3914 	 -112.078
| 13> C 	 -115.404 	 21.6591 	 -114.621
| 14> H 	 -115.796 	 20.8626 	 -115.307
| 15> H 	 -114.865 	 22.4817 	 -115.188
| 16> C 	 -116.681 	 22.3044 	 -113.976
| 17> H 	 -117.261 	 21.6152 	 -113.321
| 18> H 	 -116.393 	 23.191 	 -113.425
| 19> C 	 -117.776 	 22.6573 	 -115.038
| 20> H 	 -118.144 	 21.8139 	 -115.517
| 21> H 	 -118.497 	 23.2352 	 -114.447
| 22> H 	 -117.353 	 23.347 	 -115.733
| 23> S 	 -113.924 	 19.9022 	 -108.996
| 24> C 	 -113.661 	 18.3874 	 -108.135
| 25> C 	 -113.42 	 17.3377 	 -108.984
| 26> C 	 -113.481 	 17.7319 	 -110.374
| 27> C 	 -113.69 	 19.1105 	 -110.515
| 28> H 	 -113.179 	 16.3516 	 -108.451
| 29> C 	 -113.19 	 16.7604 	 -111.468
| 30> H 	 -113.47 	 17.0708 	 -112.473
| 31> H 	 -113.949 	 15.9658 	 -111.334
| 32> C 	 -111.925 	 15.8626 	 -111.508
| 33> H 	 -112.269 	 14.9834 	 -112.013
| 34> H 	 -111.664 	 15.4327 	 -110.549
| 35> C 	 -110.824 	 16.6118 	 -112.337
| 36> H 	 -111.138 	 16.869 	 -113.327
| 37> H 	 -109.959 	 15.9873 	 -112.536
| 38> H 	 -110.554 	 17.5026 	 -111.914
| 39> H 	 -112.529 	 21.4081 	 -114.769
| 40> H 	 -113.796 	 18.2679 	 -107.066
| 41> *
| 42>
| 43>                          ****END OF INPUT****

CARTESIAN COORDINATES (ANGSTROEM)
---------------------------------
  S    -112.173000   20.066200  -112.674000
  C    -113.032000   21.033100  -113.871000
  C    -114.393000   21.029100  -113.678000
  C    -114.679000   20.418800  -112.408000
  C    -113.609000   19.887700  -111.743000
  H    -115.666000   20.391400  -112.078000
  C    -115.404000   21.659100  -114.621000
  H    -115.796000   20.862600  -115.307000
  H    -114.865000   22.481700  -115.188000
  C    -116.681000   22.304400  -113.976000
  H    -117.261000   21.615200  -113.321000
  H    -116.393000   23.191000  -113.425000
  C    -117.776000   22.657300  -115.038000
  H    -118.144000   21.813900  -115.517000
  H    -118.497000   23.235200  -114.447000
  H    -117.353000   23.347000  -115.733000
  S    -113.924000   19.902200  -108.996000
  C    -113.661000   18.387400  -108.135000
  C    -113.420000   17.337700  -108.984000
  C    -113.481000   17.731900  -110.374000
  C    -113.690000   19.110500  -110.515000
  H    -113.179000   16.351600  -108.451000
  C    -113.190000   16.760400  -111.468000
  H    -113.470000   17.070800  -112.473000
  H    -113.949000   15.965800  -111.334000
  C    -111.925000   15.862600  -111.508000
  H    -112.269000   14.983400  -112.013000
  H    -111.664000   15.432700  -110.549000
  C    -110.824000   16.611800  -112.337000
  H    -111.138000   16.869000  -113.327000
  H    -109.959000   15.987300  -112.536000
  H    -110.554000   17.502600  -111.914000
  H    -112.529000   21.408100  -114.769000
  H    -113.796000   18.267900  -107.066000

 Total Charge           Charge          ....    0
 Multiplicity           Mult            ....    1
 Number of Electrons    NEL             ....  134
 Basis Dimension        Dim             ....  322

ORBITAL ENERGIES
----------------

  NO   OCC          E(Eh)            E(eV)
   0   2.0000     -88.965393     -2420.8714
   1   2.0000     -88.963866     -2420.8299
   2   2.0000     -10.322503      -280.8896
   3   2.0000     -10.322153      -280.8801
   4   2.0000     -10.314279      -280.6658
   5   2.0000     -10.312733      -280.6237
   6   2.0000     -10.305572      -280.4289
   7   2.0000     -10.305284      -280.4210
   8   2.0000     -10.299790      -280.2715
   9   2.0000     -10.298949      -280.2486
  10   2.0000     -10.292919      -280.0846
  11   2.0000     -10.286675      -279.9146
  12   2.0000     -10.286236      -279.9027
  13   2.0000     -10.285698      -279.8881
  14   2.0000     -10.274895      -279.5941
  15   2.0000     -10.263825      -279.2929
  16   2.0000      -8.080086      -219.8703
  17   2.0000      -8.078729      -219.8334
  18   2.0000      -6.038590      -164.3184
  19   2.0000      -6.037234      -164.2815
  20   2.0000      -6.034591      -164.2096
  21   2.0000      -6.033240      -164.1728
  22   2.0000      -6.030865      -164.1082
  23   2.0000      -6.029480      -164.0705
  24   2.0000      -1.006756       -27.3952
  25   2.0000      -0.983131       -26.7524
  26   2.0000      -0.906878       -24.6774
  27   2.0000      -0.904373       -24.6092
  28   2.0000      -0.869559       -23.6619
  29   2.0000      -0.848487       -23.0885
  30   2.0000      -0.843940       -22.9648
  31   2.0000      -0.814085       -22.1524
  32   2.0000      -0.784204       -21.3393
  33   2.0000      -0.770916       -20.9777
  34   2.0000      -0.713180       -19.4066
  35   2.0000      -0.701255       -19.0821
  36   2.0000      -0.686793       -18.6886
  37   2.0000      -0.652062       -17.7435
  38   2.0000      -0.637594       -17.3498
  39   2.0000      -0.621630       -16.9154
  40   2.0000      -0.598537       -16.2870
  41   2.0000      -0.575021       -15.6471
  42   2.0000      -0.563232       -15.3263
  43   2.0000      -0.546991       -14.8844
  44   2.0000      -0.529033       -14.3957
  45   2.0000      -0.524883       -14.2828
  46   2.0000      -0.514771       -14.0076
  47   2.0000      -0.511528       -13.9194
  48   2.0000      -0.499586       -13.5944
  49   2.0000      -0.495882       -13.4936
  50   2.0000      -0.492408       -13.3991
  51   2.0000      -0.480010       -13.0617
  52   2.0000      -0.467595       -12.7239
  53   2.0000      -0.462143       -12.5755
  54   2.0000      -0.460580       -12.5330
  55   2.0000      -0.448833       -12.2134
  56   2.0000      -0.445041       -12.1102
  57   2.0000      -0.437796       -11.9130
  58   2.0000      -0.435293       -11.8449
  59   2.0000      -0.425035       -11.5658
  60   2.0000      -0.422675       -11.5016
  61   2.0000      -0.415542       -11.3075
  62   2.0000      -0.407552       -11.0900
  63   2.0000      -0.335526        -9.1301
  64   2.0000      -0.330784        -9.0011
  65   2.0000      -0.321626        -8.7519
  66   2.0000      -0.301015        -8.1910
  67   0.0000       0.044879         1.2212
  68   0.0000       0.063541         1.7290
  69   0.0000       0.108553         2.9539
  70   0.0000       0.123724         3.3667
  71   0.0000       0.131383         3.5751

MULLIKEN ATOMIC CHARGES
-----------------------
   0 S :    0.118257
   1 C :   -0.148936
   2 C :   -0.060010
   3 C :    0.054254
   4 C :   -0.147062
   5 H :   -0.023181
   6 C :    0.042734
   7 H :    0.048036
   8 H :    0.042621
   9 C :   -0.139407
  10 H :    0.042102
  11 H :    0.039771
  12 C :   -0.016139
  13 H :    0.029761
  14 H :    0.036293
  15 H :    0.019500
  16 S :    0.116329
  17 C :   -0.109758
  18 C :   -0.063742
  19 C :    0.016995
  20 C :   -0.173168
  21 H :    0.050936
  22 C :    0.013004
  23 H :    0.020757
  24 H :    0.019399
  25 C :   -0.025082
  26 H :    0.012748
  27 H :    0.018130
  28 C :    0.005670
  29 H :    0.010201
  30 H :    0.024055
  31 H :    0.016811
  32 H :    0.050956
  33 H :    0.057165
Sum of atomic charges:    0.0000000

LOEWDIN ATOMIC CHARGES
----------------------
   0 S :    0.422424
   1 C :   -0.194801
   2 C :   -0.066674
   3 C :   -0.052467
   4 C :   -0.206438
   5 H :    0.018080
   6 C :   -0.038365
   7 H :    0.039041
   8 H :    0.039890
   9 C :   -0.041868
  10 H :    0.025123
  11 H :    0.023033
  12 C :   -0.052359
  13 H :    0.015071
  14 H :    0.032527
  15 H :    0.018545
  16 S :    0.409252
  17 C :   -0.185243
  18 C :   -0.080270
  19 C :   -0.055386
  20 C :   -0.211855
  21 H :    0.048653
  22 C :   -0.044981
  23 H :    0.030115
  24 H :    0.039343
  25 C :   -0.028364
  26 H :    0.022413
  27 H :    0.021615
  28 C :   -0.056840
  29 H :    0.021750
  30 H :    0.023802
  31 H :    0.008615
  32 H :    0.027747
  33 H :    0.028873

  Mayer bond orders larger than 0.100000
B(  0-S ,  1-C ) :   1.1441 B(  0-S ,  4-C ) :   1.1491 B(  1-C ,  2-C ) :   1.6164
B(  1-C , 32-H ) :   0.9656 B(  2-C ,  3-C ) :   1.2507 B(  2-C ,  6-C ) :   1.0127
B(  3-C ,  4-C ) :   1.5739 B(  3-C ,  5-H ) :   1.0056 B(  4-C , 20-C ) :   1.0165
B(  6-C ,  7-H ) :   0.9332 B(  6-C ,  8-H ) :   0.9470 B(  6-C ,  9-C ) :   1.0662
B(  9-C , 10-H ) :   0.9545 B(  9-C , 11-H ) :   0.9616 B(  9-C , 12-C ) :   1.0779
B( 12-C , 13-H ) :   0.9785 B( 12-C , 14-H ) :   0.9749 B( 12-C , 15-H ) :   0.9759
B( 16-S , 17-C ) :   1.1469 B( 16-S , 20-C ) :   1.1475 B( 17-C , 18-C ) :   1.6464
B( 17-C , 33-H ) :   0.9644 B( 18-C , 19-C ) :   1.2047 B( 18-C , 21-H ) :   0.9761
B( 19-C , 20-C ) :   1.5920 B( 19-C , 22-C ) :   1.0639 B( 22-C , 23-H ) :   0.9328
B( 22-C , 24-H ) :   0.9218 B( 22-C , 25-C ) :   1.0745 B( 25-C , 26-H ) :   0.9531
B( 25-C , 27-H ) :   0.9536 B( 25-C , 28-C ) :   1.0680 B( 28-C , 29-H ) :   0.9719
B( 28-C , 30-H ) :   0.9734 B( 28-C , 31-H ) :   0.9789

Dispersion correction           -0.014489275
FINAL SINGLE POINT ENERGY     -1339.869147916677

DIPOLE MOMENT
-------------
                                X             Y             Z
Electronic contribution:      7.88879       3.74407      15.91874
Nuclear contribution   :     -8.24624      -4.00775     -16.26371
                        -----------------------------------------
Total Dipole Moment    :     -0.35745      -0.26368      -0.34497
                        -----------------------------------------
Magnitude (a.u.)       :      0.56241
Magnitude (Debye)      :      1.42952

Rotational constants in cm-1:     0.020443     0.007933     0.006600
Rotational constants in MHz :   612.875672   237.816480   197.866441

                             ****ORCA TERMINATED NORMALLY****
TOTAL RUN TIME: 0 days 0 hours 0 minutes 20 seconds 228 msec
