                         Program Version 4.2.1 -  RELEASE  -
|  1> ! wB97X-D3 SP def2-SVP
|  2> %pal
|  3> nprocs 24
|  4> end
|  5>
|  6> * xyz 0 1
|  7> S 	 -59.3891 	 8.94752 	 -18.1228
|  8> C 	 -58.6213 	 7.42611 	 -18.4428
|  9> C 	 -58.8895 	 6.44181 	 -17.5732
| 10> C 	 -59.7724 	 6.90218 	 -16.5796
| 11> C 	 -60.2339 	 8.22189 	 -16.7506
| 12> H 	 -60.1691 	 6.39548 	 -15.684
| 13> C 	 -58.2613 	 5.07003 	 -17.4748
| 14> H 	 -58.1147 	 4.86546 	 -16.3843
| 15> H 	 -57.3343 	 5.00412 	 -17.9559
| 16> C 	 -59.1447 	 3.93123 	 -17.9549
| 17> H 	 -60.119 	 3.86892 	 -17.4418
| 18> H 	 -59.3717 	 4.22647 	 -18.9875
| 19> C 	 -58.3442 	 2.56066 	 -17.8484
| 20> H 	 -57.9373 	 2.41451 	 -16.9073
| 21> H 	 -58.8147 	 1.67573 	 -18.192
| 22> H 	 -57.4052 	 2.61685 	 -18.3974
| 23> S 	 -61.0762 	 8.91156 	 -14.3414
| 24> C 	 -62.3602 	 10.0795 	 -14.0585
| 25> C 	 -62.8817 	 10.4938 	 -15.2584
| 26> C 	 -62.2494 	 9.85706 	 -16.3609
| 27> C 	 -61.2021 	 9.06415 	 -16.0078
| 28> H 	 -63.769 	 11.145 	 -15.2905
| 29> C 	 -62.7629 	 10.0286 	 -17.7613
| 30> H 	 -62.3064 	 9.3087 	 -18.421
| 31> H 	 -62.44 	 11.0663 	 -17.9306
| 32> C 	 -64.3102 	 9.9298 	 -18.025
| 33> H 	 -64.5806 	 10.2189 	 -18.9629
| 34> H 	 -64.7952 	 10.5816 	 -17.2984
| 35> C 	 -64.8106 	 8.49953 	 -17.8641
| 36> H 	 -64.7542 	 8.32369 	 -16.8442
| 37> H 	 -64.3013 	 7.83721 	 -18.3973
| 38> H 	 -65.8402 	 8.42071 	 -18.0452
| 39> H 	 -57.9302 	 7.22439 	 -19.217
| 40> H 	 -62.8722 	 10.1642 	 -13.0863
| 41> *
| 42>
| 43>                          ****END OF INPUT****

CARTESIAN COORDINATES (ANGSTROEM)
---------------------------------
  S    -59.389100    8.947520  -18.122800
  C    -58.621300    7.426110  -18.442800
  C    -58.889500    6.441810  -17.573200
  C    -59.772400    6.902180  -16.579600
  C    -60.233900    8.221890  -16.750600
  H    -60.169100    6.395480  -15.684000
  C    -58.261300    5.070030  -17.474800
  H    -58.114700    4.865460  -16.384300
  H    -57.334300    5.004120  -17.955900
  C    -59.144700    3.931230  -17.954900
  H    -60.119000    3.868920  -17.441800
  H    -59.371700    4.226470  -18.987500
  C    -58.344200    2.560660  -17.848400
  H    -57.937300    2.414510  -16.907300
  H    -58.814700    1.675730  -18.192000
  H    -57.405200    2.616850  -18.397400
  S    -61.076200    8.911560  -14.341400
  C    -62.360200   10.079500  -14.058500
  C    -62.881700   10.493800  -15.258400
  C    -62.249400    9.857060  -16.360900
  C    -61.202100    9.064150  -16.007800
  H    -63.769000   11.145000  -15.290500
  C    -62.762900   10.028600  -17.761300
  H    -62.306400    9.308700  -18.421000
  H    -62.440000   11.066300  -17.930600
  C    -64.310200    9.929800  -18.025000
  H    -64.580600   10.218900  -18.962900
  H    -64.795200   10.581600  -17.298400
  C    -64.810600    8.499530  -17.864100
  H    -64.754200    8.323690  -16.844200
  H    -64.301300    7.837210  -18.397300
  H    -65.840200    8.420710  -18.045200
  H    -57.930200    7.224390  -19.217000
  H    -62.872200   10.164200  -13.086300

 Total Charge           Charge          ....    0
 Multiplicity           Mult            ....    1
 Number of Electrons    NEL             ....  134
 Basis Dimension        Dim             ....  322

ORBITAL ENERGIES
----------------

  NO   OCC          E(Eh)            E(eV)
   0   2.0000     -88.967170     -2420.9198
   1   2.0000     -88.960866     -2420.7482
   2   2.0000     -10.333970      -281.2016
   3   2.0000     -10.320565      -280.8369
   4   2.0000     -10.317848      -280.7629
   5   2.0000     -10.305699      -280.4323
   6   2.0000     -10.298654      -280.2406
   7   2.0000     -10.297116      -280.1988
   8   2.0000     -10.296083      -280.1707
   9   2.0000     -10.295333      -280.1503
  10   2.0000     -10.291832      -280.0550
  11   2.0000     -10.290941      -280.0307
  12   2.0000     -10.286796      -279.9180
  13   2.0000     -10.277533      -279.6659
  14   2.0000     -10.274069      -279.5716
  15   2.0000     -10.250771      -278.9377
  16   2.0000      -8.081600      -219.9115
  17   2.0000      -8.077171      -219.7910
  18   2.0000      -6.040030      -164.3576
  19   2.0000      -6.036166      -164.2524
  20   2.0000      -6.035582      -164.2365
  21   2.0000      -6.032447      -164.1512
  22   2.0000      -6.031440      -164.1238
  23   2.0000      -6.027947      -164.0288
  24   2.0000      -1.015318       -27.6282
  25   2.0000      -0.992600       -27.0100
  26   2.0000      -0.913890       -24.8682
  27   2.0000      -0.910309       -24.7708
  28   2.0000      -0.872398       -23.7392
  29   2.0000      -0.856608       -23.3095
  30   2.0000      -0.846205       -23.0264
  31   2.0000      -0.816083       -22.2067
  32   2.0000      -0.787237       -21.4218
  33   2.0000      -0.776283       -21.1237
  34   2.0000      -0.711371       -19.3574
  35   2.0000      -0.706739       -19.2314
  36   2.0000      -0.695867       -18.9355
  37   2.0000      -0.668697       -18.1962
  38   2.0000      -0.638673       -17.3792
  39   2.0000      -0.620521       -16.8852
  40   2.0000      -0.598922       -16.2975
  41   2.0000      -0.574592       -15.6354
  42   2.0000      -0.561009       -15.2658
  43   2.0000      -0.555284       -15.1100
  44   2.0000      -0.551163       -14.9979
  45   2.0000      -0.526965       -14.3394
  46   2.0000      -0.522484       -14.2175
  47   2.0000      -0.513414       -13.9707
  48   2.0000      -0.502621       -13.6770
  49   2.0000      -0.497420       -13.5355
  50   2.0000      -0.490801       -13.3554
  51   2.0000      -0.482684       -13.1345
  52   2.0000      -0.473102       -12.8738
  53   2.0000      -0.465662       -12.6713
  54   2.0000      -0.461951       -12.5703
  55   2.0000      -0.447731       -12.1834
  56   2.0000      -0.445713       -12.1285
  57   2.0000      -0.443135       -12.0583
  58   2.0000      -0.435156       -11.8412
  59   2.0000      -0.429766       -11.6945
  60   2.0000      -0.421863       -11.4795
  61   2.0000      -0.417708       -11.3664
  62   2.0000      -0.414907       -11.2902
  63   2.0000      -0.351106        -9.5541
  64   2.0000      -0.333775        -9.0825
  65   2.0000      -0.326365        -8.8808
  66   2.0000      -0.292517        -7.9598
  67   0.0000       0.032057         0.8723
  68   0.0000       0.078606         2.1390
  69   0.0000       0.110239         2.9997
  70   0.0000       0.114711         3.1214
  71   0.0000       0.137229         3.7342

MULLIKEN ATOMIC CHARGES
-----------------------
   0 S :    0.118808
   1 C :   -0.098545
   2 C :   -0.055572
   3 C :    0.019205
   4 C :   -0.180182
   5 H :    0.018750
   6 C :    0.067596
   7 H :    0.032403
   8 H :    0.006749
   9 C :   -0.083809
  10 H :    0.039377
  11 H :    0.026748
  12 C :    0.003233
  13 H :    0.004989
  14 H :    0.034352
  15 H :    0.009776
  16 S :    0.094423
  17 C :   -0.103545
  18 C :   -0.047015
  19 C :   -0.054512
  20 C :   -0.135404
  21 H :    0.032794
  22 C :    0.051221
  23 H :    0.024261
  24 H :    0.041915
  25 C :   -0.041754
  26 H :    0.007294
  27 H :    0.012516
  28 C :    0.040546
  29 H :    0.008265
  30 H :    0.002875
  31 H :    0.012159
  32 H :    0.017984
  33 H :    0.072096
Sum of atomic charges:    0.0000000

LOEWDIN ATOMIC CHARGES
----------------------
   0 S :    0.412910
   1 C :   -0.191586
   2 C :   -0.069652
   3 C :   -0.065232
   4 C :   -0.186457
   5 H :    0.031594
   6 C :   -0.024403
   7 H :    0.036845
   8 H :    0.020735
   9 C :   -0.034757
  10 H :    0.025858
  11 H :    0.022929
  12 C :   -0.062128
  13 H :    0.016247
  14 H :    0.022763
  15 H :    0.027034
  16 S :    0.432489
  17 C :   -0.188154
  18 C :   -0.071549
  19 C :   -0.067859
  20 C :   -0.226172
  21 H :    0.036959
  22 C :   -0.029852
  23 H :    0.021348
  24 H :    0.038634
  25 C :   -0.020776
  26 H :    0.009470
  27 H :    0.018681
  28 C :   -0.041192
  29 H :    0.021145
  30 H :    0.006611
  31 H :    0.022147
  32 H :    0.019700
  33 H :    0.035669

  Mayer bond orders larger than 0.100000
B(  0-S ,  1-C ) :   1.1378 B(  0-S ,  4-C ) :   1.1531 B(  1-C ,  2-C ) :   1.6447
B(  1-C , 32-H ) :   0.9618 B(  2-C ,  3-C ) :   1.2311 B(  2-C ,  6-C ) :   1.0165
B(  3-C ,  4-C ) :   1.5934 B(  3-C ,  5-H ) :   0.9836 B(  4-C , 20-C ) :   0.9950
B(  6-C ,  7-H ) :   0.9408 B(  6-C ,  8-H ) :   0.9440 B(  6-C ,  9-C ) :   1.0519
B(  9-C , 10-H ) :   0.9604 B(  9-C , 11-H ) :   0.9579 B(  9-C , 12-C ) :   1.0672
B( 12-C , 13-H ) :   0.9722 B( 12-C , 14-H ) :   0.9778 B( 12-C , 15-H ) :   0.9696
B( 16-S , 17-C ) :   1.1623 B( 16-S , 20-C ) :   1.1562 B( 17-C , 18-C ) :   1.5999
B( 17-C , 33-H ) :   0.9635 B( 18-C , 19-C ) :   1.2433 B( 18-C , 21-H ) :   0.9864
B( 19-C , 20-C ) :   1.5961 B( 19-C , 22-C ) :   1.0288 B( 22-C , 23-H ) :   0.9393
B( 22-C , 24-H ) :   0.9302 B( 22-C , 25-C ) :   1.0818 B( 25-C , 26-H ) :   0.9560
B( 25-C , 27-H ) :   0.9549 B( 25-C , 28-C ) :   1.0782 B( 28-C , 29-H ) :   0.9730
B( 28-C , 30-H ) :   0.9742 B( 28-C , 31-H ) :   0.9685

Dispersion correction           -0.013981993
FINAL SINGLE POINT ENERGY     -1339.856855030953

DIPOLE MOMENT
-------------
                                X             Y             Z
Electronic contribution:      7.43559      17.11245       9.75186
Nuclear contribution   :     -7.70289     -17.46572      -9.86468
                        -----------------------------------------
Total Dipole Moment    :     -0.26730      -0.35327      -0.11282
                        -----------------------------------------
Magnitude (a.u.)       :      0.45714
Magnitude (Debye)      :      1.16196

Rotational constants in cm-1:     0.021089     0.007268     0.006821
Rotational constants in MHz :   632.237668   217.896244   204.486302

                             ****ORCA TERMINATED NORMALLY****
TOTAL RUN TIME: 0 days 0 hours 0 minutes 21 seconds 264 msec
