                         Program Version 4.2.1 -  RELEASE  -
|  1> ! wB97X-D3 SP def2-SVP
|  2> %pal
|  3> nprocs 24
|  4> end
|  5>
|  6> * xyz 0 1
|  7> S 	 -43.4625 	 -50.1235 	 -71.0946
|  8> C 	 -42.1923 	 -48.9339 	 -71.1766
|  9> C 	 -41.4578 	 -48.7736 	 -70
| 10> C 	 -42.0573 	 -49.5466 	 -68.956
| 11> C 	 -43.0664 	 -50.3775 	 -69.3894
| 12> H 	 -41.7399 	 -49.5088 	 -67.9059
| 13> C 	 -40.2694 	 -47.749 	 -69.8498
| 14> H 	 -39.6257 	 -47.8266 	 -70.7107
| 15> H 	 -39.6114 	 -48.068 	 -68.9902
| 16> C 	 -40.7879 	 -46.2659 	 -69.6274
| 17> H 	 -39.8352 	 -45.6952 	 -69.6274
| 18> H 	 -41.4042 	 -45.9066 	 -70.4566
| 19> C 	 -41.5065 	 -46.1793 	 -68.2776
| 20> H 	 -40.7855 	 -45.6439 	 -67.6615
| 21> H 	 -42.4406 	 -45.6416 	 -68.3414
| 22> H 	 -41.709 	 -47.0774 	 -67.7609
| 23> S 	 -44.1041 	 -52.8943 	 -69.1465
| 24> C 	 -44.9707 	 -53.306 	 -67.7245
| 25> C 	 -45.0272 	 -52.2498 	 -66.7735
| 26> C 	 -44.3839 	 -51.0763 	 -67.2584
| 27> C 	 -43.8827 	 -51.2493 	 -68.5642
| 28> H 	 -45.4296 	 -52.4992 	 -65.8109
| 29> C 	 -44.4327 	 -49.7662 	 -66.4362
| 30> H 	 -43.5571 	 -49.2751 	 -66.6089
| 31> H 	 -44.4482 	 -49.9993 	 -65.3288
| 32> C 	 -45.6537 	 -48.8942 	 -66.5484
| 33> H 	 -45.7913 	 -48.2183 	 -65.7019
| 34> H 	 -46.5162 	 -49.5172 	 -66.4303
| 35> C 	 -45.6593 	 -48.1435 	 -67.9076
| 36> H 	 -44.9643 	 -47.3 	 -68.0975
| 37> H 	 -46.6408 	 -47.6935 	 -68.0722
| 38> H 	 -45.5358 	 -48.8692 	 -68.7962
| 39> H 	 -41.9677 	 -48.461 	 -72.1185
| 40> H 	 -45.3285 	 -54.2589 	 -67.401
| 41> *
| 42>
| 43>                          ****END OF INPUT****

CARTESIAN COORDINATES (ANGSTROEM)
---------------------------------
  S    -43.462500  -50.123500  -71.094600
  C    -42.192300  -48.933900  -71.176600
  C    -41.457800  -48.773600  -70.000000
  C    -42.057300  -49.546600  -68.956000
  C    -43.066400  -50.377500  -69.389400
  H    -41.739900  -49.508800  -67.905900
  C    -40.269400  -47.749000  -69.849800
  H    -39.625700  -47.826600  -70.710700
  H    -39.611400  -48.068000  -68.990200
  C    -40.787900  -46.265900  -69.627400
  H    -39.835200  -45.695200  -69.627400
  H    -41.404200  -45.906600  -70.456600
  C    -41.506500  -46.179300  -68.277600
  H    -40.785500  -45.643900  -67.661500
  H    -42.440600  -45.641600  -68.341400
  H    -41.709000  -47.077400  -67.760900
  S    -44.104100  -52.894300  -69.146500
  C    -44.970700  -53.306000  -67.724500
  C    -45.027200  -52.249800  -66.773500
  C    -44.383900  -51.076300  -67.258400
  C    -43.882700  -51.249300  -68.564200
  H    -45.429600  -52.499200  -65.810900
  C    -44.432700  -49.766200  -66.436200
  H    -43.557100  -49.275100  -66.608900
  H    -44.448200  -49.999300  -65.328800
  C    -45.653700  -48.894200  -66.548400
  H    -45.791300  -48.218300  -65.701900
  H    -46.516200  -49.517200  -66.430300
  C    -45.659300  -48.143500  -67.907600
  H    -44.964300  -47.300000  -68.097500
  H    -46.640800  -47.693500  -68.072200
  H    -45.535800  -48.869200  -68.796200
  H    -41.967700  -48.461000  -72.118500
  H    -45.328500  -54.258900  -67.401000

 Total Charge           Charge          ....    0
 Multiplicity           Mult            ....    1
 Number of Electrons    NEL             ....  134
 Basis Dimension        Dim             ....  322

ORBITAL ENERGIES
----------------

  NO   OCC          E(Eh)            E(eV)
   0   2.0000     -88.970726     -2421.0165
   1   2.0000     -88.968496     -2420.9559
   2   2.0000     -10.328044      -281.0404
   3   2.0000     -10.327370      -281.0220
   4   2.0000     -10.314359      -280.6680
   5   2.0000     -10.313259      -280.6380
   6   2.0000     -10.307579      -280.4835
   7   2.0000     -10.305801      -280.4351
   8   2.0000     -10.303709      -280.3782
   9   2.0000     -10.296663      -280.1864
  10   2.0000     -10.294088      -280.1164
  11   2.0000     -10.294005      -280.1141
  12   2.0000     -10.286589      -279.9123
  13   2.0000     -10.283548      -279.8296
  14   2.0000     -10.276368      -279.6342
  15   2.0000     -10.272411      -279.5265
  16   2.0000      -8.085480      -220.0171
  17   2.0000      -8.082960      -219.9485
  18   2.0000      -6.043815      -164.4606
  19   2.0000      -6.041331      -164.3930
  20   2.0000      -6.039944      -164.3552
  21   2.0000      -6.037609      -164.2917
  22   2.0000      -6.036476      -164.2609
  23   2.0000      -6.033790      -164.1878
  24   2.0000      -1.004634       -27.3375
  25   2.0000      -0.980749       -26.6875
  26   2.0000      -0.908743       -24.7281
  27   2.0000      -0.903872       -24.5956
  28   2.0000      -0.865214       -23.5437
  29   2.0000      -0.849653       -23.1202
  30   2.0000      -0.842706       -22.9312
  31   2.0000      -0.808341       -21.9961
  32   2.0000      -0.782251       -21.2861
  33   2.0000      -0.769708       -20.9448
  34   2.0000      -0.705250       -19.1908
  35   2.0000      -0.701034       -19.0761
  36   2.0000      -0.693208       -18.8632
  37   2.0000      -0.659626       -17.9493
  38   2.0000      -0.639705       -17.4073
  39   2.0000      -0.618671       -16.8349
  40   2.0000      -0.591843       -16.1049
  41   2.0000      -0.570079       -15.5126
  42   2.0000      -0.548746       -14.9321
  43   2.0000      -0.546109       -14.8604
  44   2.0000      -0.540333       -14.7032
  45   2.0000      -0.530241       -14.4286
  46   2.0000      -0.512205       -13.9378
  47   2.0000      -0.508400       -13.8343
  48   2.0000      -0.503995       -13.7144
  49   2.0000      -0.495388       -13.4802
  50   2.0000      -0.490322       -13.3423
  51   2.0000      -0.475137       -12.9291
  52   2.0000      -0.468340       -12.7442
  53   2.0000      -0.463973       -12.6253
  54   2.0000      -0.457008       -12.4358
  55   2.0000      -0.447903       -12.1881
  56   2.0000      -0.444810       -12.1039
  57   2.0000      -0.436292       -11.8721
  58   2.0000      -0.433890       -11.8068
  59   2.0000      -0.431002       -11.7282
  60   2.0000      -0.417718       -11.3667
  61   2.0000      -0.411073       -11.1859
  62   2.0000      -0.405800       -11.0424
  63   2.0000      -0.346473        -9.4280
  64   2.0000      -0.335127        -9.1193
  65   2.0000      -0.333201        -9.0669
  66   2.0000      -0.284077        -7.7301
  67   0.0000       0.028580         0.7777
  68   0.0000       0.066720         1.8155
  69   0.0000       0.107384         2.9221
  70   0.0000       0.114773         3.1231
  71   0.0000       0.129718         3.5298

MULLIKEN ATOMIC CHARGES
-----------------------
   0 S :    0.115181
   1 C :   -0.125370
   2 C :   -0.078826
   3 C :    0.003394
   4 C :   -0.143757
   5 H :    0.029065
   6 C :    0.027943
   7 H :    0.027946
   8 H :    0.035829
   9 C :   -0.071961
  10 H :    0.040679
  11 H :    0.038514
  12 C :   -0.031798
  13 H :    0.028565
  14 H :    0.039507
  15 H :    0.017982
  16 S :    0.128267
  17 C :   -0.080008
  18 C :   -0.060612
  19 C :   -0.035514
  20 C :   -0.156412
  21 H :    0.015633
  22 C :    0.110599
  23 H :   -0.023718
  24 H :    0.020786
  25 C :   -0.014338
  26 H :    0.025995
  27 H :    0.013221
  28 C :   -0.090989
  29 H :    0.038402
  30 H :    0.021765
  31 H :    0.046991
  32 H :    0.043925
  33 H :    0.043114
Sum of atomic charges:   -0.0000000

LOEWDIN ATOMIC CHARGES
----------------------
   0 S :    0.401861
   1 C :   -0.194411
   2 C :   -0.060750
   3 C :   -0.064810
   4 C :   -0.192976
   5 H :    0.033425
   6 C :   -0.028686
   7 H :    0.025146
   8 H :    0.033933
   9 C :   -0.035056
  10 H :    0.026945
  11 H :    0.024056
  12 C :   -0.064892
  13 H :    0.031275
  14 H :    0.028251
  15 H :    0.017109
  16 S :    0.428997
  17 C :   -0.199367
  18 C :   -0.068359
  19 C :   -0.050315
  20 C :   -0.203288
  21 H :    0.029420
  22 C :   -0.024895
  23 H :    0.007629
  24 H :    0.038868
  25 C :   -0.036751
  26 H :    0.025824
  27 H :    0.023558
  28 C :   -0.080051
  29 H :    0.026552
  30 H :    0.021424
  31 H :    0.035322
  32 H :    0.020909
  33 H :    0.024101

  Mayer bond orders larger than 0.100000
B(  0-S ,  1-C ) :   1.1458 B(  0-S ,  4-C ) :   1.1420 B(  1-C ,  2-C ) :   1.6113
B(  1-C ,  4-C ) :   0.1014 B(  1-C , 32-H ) :   0.9682 B(  2-C ,  3-C ) :   1.2440
B(  2-C ,  6-C ) :   1.0137 B(  3-C ,  4-C ) :   1.5885 B(  3-C ,  5-H ) :   0.9827
B(  4-C , 20-C ) :   1.0348 B(  6-C ,  7-H ) :   0.9448 B(  6-C ,  8-H ) :   0.9499
B(  6-C ,  9-C ) :   1.0606 B(  9-C , 10-H ) :   0.9672 B(  9-C , 11-H ) :   0.9645
B(  9-C , 12-C ) :   1.0443 B( 12-C , 13-H ) :   0.9751 B( 12-C , 14-H ) :   0.9763
B( 12-C , 15-H ) :   0.9845 B( 16-S , 17-C ) :   1.1721 B( 16-S , 20-C ) :   1.1531
B( 17-C , 18-C ) :   1.5942 B( 17-C , 20-C ) :   0.1064 B( 17-C , 33-H ) :   0.9669
B( 18-C , 19-C ) :   1.2551 B( 18-C , 21-H ) :   0.9930 B( 19-C , 20-C ) :   1.5657
B( 19-C , 22-C ) :   1.0418 B( 22-C , 23-H ) :   0.9287 B( 22-C , 24-H ) :   0.9311
B( 22-C , 25-C ) :   1.0787 B( 25-C , 26-H ) :   0.9527 B( 25-C , 27-H ) :   0.9476
B( 25-C , 28-C ) :   1.0714 B( 28-C , 29-H ) :   0.9773 B( 28-C , 30-H ) :   0.9732
B( 28-C , 31-H ) :   0.9718

Dispersion correction           -0.016239211
FINAL SINGLE POINT ENERGY     -1339.873614964002

DIPOLE MOMENT
-------------
                                X             Y             Z
Electronic contribution:     -3.00954     -24.95394     -12.47235
Nuclear contribution   :      3.22364      25.38682      12.91408
                        -----------------------------------------
Total Dipole Moment    :      0.21410       0.43288       0.44172
                        -----------------------------------------
Magnitude (a.u.)       :      0.65448
Magnitude (Debye)      :      1.66356

Rotational constants in cm-1:     0.020349     0.009799     0.007727
Rotational constants in MHz :   610.045787   293.758312   231.657236

                             ****ORCA TERMINATED NORMALLY****
TOTAL RUN TIME: 0 days 0 hours 0 minutes 23 seconds 91 msec
