                         Program Version 4.2.1 -  RELEASE  -
|  1> ! wB97X-D3 SP def2-SVP
|  2> %pal
|  3> nprocs 24
|  4> end
|  5>
|  6> * xyz 0 1
|  7> S 	 -53.4011 	 20.517 	 33.3255
|  8> C 	 -52.0626 	 21.6067 	 33.6668
|  9> C 	 -50.9375 	 20.9114 	 34.0978
| 10> C 	 -51.1387 	 19.4563 	 34.089
| 11> C 	 -52.3353 	 19.0786 	 33.6168
| 12> H 	 -50.3082 	 18.7755 	 34.1829
| 13> C 	 -49.6519 	 21.554 	 34.6551
| 14> H 	 -49.0266 	 20.7709 	 35.1549
| 15> H 	 -49.8279 	 22.1263 	 35.5861
| 16> C 	 -48.8744 	 22.4316 	 33.7204
| 17> H 	 -49.4346 	 23.2032 	 33.3045
| 18> H 	 -47.9857 	 22.904 	 34.195
| 19> C 	 -48.25 	 21.655 	 32.5138
| 20> H 	 -47.2646 	 22.0351 	 32.1445
| 21> H 	 -48.0774 	 20.6018 	 32.8443
| 22> H 	 -49.033 	 21.4926 	 31.7726
| 23> S 	 -54.0298 	 16.9185 	 34.2884
| 24> C 	 -54.072 	 15.487 	 33.2635
| 25> C 	 -53.0627 	 15.5748 	 32.312
| 26> C 	 -52.4128 	 16.8643 	 32.2965
| 27> C 	 -52.8219 	 17.7196 	 33.2884
| 28> H 	 -52.921 	 14.7229 	 31.5236
| 29> C 	 -51.3591 	 17.1175 	 31.2548
| 30> H 	 -50.4358 	 16.5441 	 31.4925
| 31> H 	 -51.0208 	 18.1018 	 31.409
| 32> C 	 -51.8507 	 17.0905 	 29.8085
| 33> H 	 -52.7059 	 17.7473 	 29.6106
| 34> H 	 -52.0957 	 16.0464 	 29.4438
| 35> C 	 -50.7632 	 17.6041 	 28.8662
| 36> H 	 -50.488 	 18.6154 	 29.1666
| 37> H 	 -51.0319 	 17.8014 	 27.8602
| 38> H 	 -49.8754 	 16.9305 	 28.8516
| 39> H 	 -52.0797 	 22.7005 	 33.412
| 40> H 	 -54.6345 	 14.6395 	 33.4691
| 41> *
| 42>
| 43>                          ****END OF INPUT****

CARTESIAN COORDINATES (ANGSTROEM)
---------------------------------
  S    -53.401100   20.517000   33.325500
  C    -52.062600   21.606700   33.666800
  C    -50.937500   20.911400   34.097800
  C    -51.138700   19.456300   34.089000
  C    -52.335300   19.078600   33.616800
  H    -50.308200   18.775500   34.182900
  C    -49.651900   21.554000   34.655100
  H    -49.026600   20.770900   35.154900
  H    -49.827900   22.126300   35.586100
  C    -48.874400   22.431600   33.720400
  H    -49.434600   23.203200   33.304500
  H    -47.985700   22.904000   34.195000
  C    -48.250000   21.655000   32.513800
  H    -47.264600   22.035100   32.144500
  H    -48.077400   20.601800   32.844300
  H    -49.033000   21.492600   31.772600
  S    -54.029800   16.918500   34.288400
  C    -54.072000   15.487000   33.263500
  C    -53.062700   15.574800   32.312000
  C    -52.412800   16.864300   32.296500
  C    -52.821900   17.719600   33.288400
  H    -52.921000   14.722900   31.523600
  C    -51.359100   17.117500   31.254800
  H    -50.435800   16.544100   31.492500
  H    -51.020800   18.101800   31.409000
  C    -51.850700   17.090500   29.808500
  H    -52.705900   17.747300   29.610600
  H    -52.095700   16.046400   29.443800
  C    -50.763200   17.604100   28.866200
  H    -50.488000   18.615400   29.166600
  H    -51.031900   17.801400   27.860200
  H    -49.875400   16.930500   28.851600
  H    -52.079700   22.700500   33.412000
  H    -54.634500   14.639500   33.469100

 Total Charge           Charge          ....    0
 Multiplicity           Mult            ....    1
 Number of Electrons    NEL             ....  134
 Basis Dimension        Dim             ....  322

ORBITAL ENERGIES
----------------

  NO   OCC          E(Eh)            E(eV)
   0   2.0000     -88.965789     -2420.8822
   1   2.0000     -88.963403     -2420.8173
   2   2.0000     -10.335165      -281.2341
   3   2.0000     -10.328276      -281.0467
   4   2.0000     -10.324536      -280.9449
   5   2.0000     -10.317498      -280.7534
   6   2.0000     -10.310277      -280.5569
   7   2.0000     -10.302756      -280.3522
   8   2.0000     -10.302444      -280.3437
   9   2.0000     -10.299090      -280.2525
  10   2.0000     -10.298968      -280.2492
  11   2.0000     -10.290799      -280.0269
  12   2.0000     -10.286922      -279.9214
  13   2.0000     -10.285231      -279.8754
  14   2.0000     -10.280697      -279.7520
  15   2.0000     -10.273749      -279.5629
  16   2.0000      -8.079752      -219.8612
  17   2.0000      -8.077941      -219.8119
  18   2.0000      -6.038460      -164.3149
  19   2.0000      -6.036524      -164.2622
  20   2.0000      -6.034441      -164.2055
  21   2.0000      -6.032421      -164.1505
  22   2.0000      -6.030252      -164.0915
  23   2.0000      -6.028678      -164.0487
  24   2.0000      -1.001932       -27.2640
  25   2.0000      -0.980269       -26.6745
  26   2.0000      -0.910451       -24.7746
  27   2.0000      -0.910296       -24.7704
  28   2.0000      -0.867964       -23.6185
  29   2.0000      -0.848032       -23.0761
  30   2.0000      -0.843372       -22.9493
  31   2.0000      -0.815221       -22.1833
  32   2.0000      -0.779800       -21.2194
  33   2.0000      -0.770656       -20.9706
  34   2.0000      -0.704274       -19.1643
  35   2.0000      -0.700069       -19.0498
  36   2.0000      -0.697850       -18.9895
  37   2.0000      -0.655286       -17.8312
  38   2.0000      -0.641750       -17.4629
  39   2.0000      -0.616594       -16.7784
  40   2.0000      -0.599192       -16.3048
  41   2.0000      -0.575292       -15.6545
  42   2.0000      -0.566529       -15.4160
  43   2.0000      -0.547234       -14.8910
  44   2.0000      -0.540611       -14.7108
  45   2.0000      -0.524608       -14.2753
  46   2.0000      -0.516085       -14.0434
  47   2.0000      -0.510260       -13.8849
  48   2.0000      -0.505963       -13.7680
  49   2.0000      -0.497187       -13.5292
  50   2.0000      -0.493282       -13.4229
  51   2.0000      -0.474111       -12.9012
  52   2.0000      -0.466648       -12.6981
  53   2.0000      -0.462394       -12.5824
  54   2.0000      -0.458968       -12.4891
  55   2.0000      -0.443982       -12.0814
  56   2.0000      -0.440669       -11.9912
  57   2.0000      -0.432896       -11.7797
  58   2.0000      -0.432380       -11.7657
  59   2.0000      -0.418989       -11.4013
  60   2.0000      -0.416493       -11.3333
  61   2.0000      -0.415373       -11.3029
  62   2.0000      -0.412366       -11.2210
  63   2.0000      -0.343541        -9.3482
  64   2.0000      -0.329791        -8.9741
  65   2.0000      -0.327994        -8.9252
  66   2.0000      -0.306558        -8.3419
  67   0.0000       0.038961         1.0602
  68   0.0000       0.053906         1.4669
  69   0.0000       0.110457         3.0057
  70   0.0000       0.118767         3.2318
  71   0.0000       0.122402         3.3307

MULLIKEN ATOMIC CHARGES
-----------------------
   0 S :    0.098907
   1 C :   -0.136162
   2 C :   -0.107723
   3 C :    0.073425
   4 C :   -0.169165
   5 H :    0.019730
   6 C :    0.040160
   7 H :    0.021164
   8 H :    0.041729
   9 C :   -0.050218
  10 H :    0.019550
  11 H :    0.031132
  12 C :   -0.086600
  13 H :    0.050875
  14 H :    0.015672
  15 H :    0.038152
  16 S :    0.097677
  17 C :   -0.075217
  18 C :   -0.056721
  19 C :   -0.043512
  20 C :   -0.154330
  21 H :    0.059663
  22 C :    0.101317
  23 H :    0.041219
  24 H :   -0.007358
  25 C :   -0.084896
  26 H :    0.041734
  27 H :    0.035375
  28 C :   -0.047910
  29 H :    0.017896
  30 H :    0.021707
  31 H :    0.033864
  32 H :    0.078481
  33 H :    0.040384
Sum of atomic charges:   -0.0000000

LOEWDIN ATOMIC CHARGES
----------------------
   0 S :    0.371664
   1 C :   -0.193415
   2 C :   -0.065159
   3 C :   -0.053791
   4 C :   -0.170363
   5 H :    0.034247
   6 C :   -0.042714
   7 H :    0.034049
   8 H :    0.038813
   9 C :   -0.041538
  10 H :    0.013622
  11 H :    0.030617
  12 C :   -0.075238
  13 H :    0.031146
  14 H :    0.023244
  15 H :    0.024631
  16 S :    0.394830
  17 C :   -0.168923
  18 C :   -0.079681
  19 C :   -0.055697
  20 C :   -0.204898
  21 H :    0.049107
  22 C :   -0.035316
  23 H :    0.040202
  24 H :    0.022345
  25 C :   -0.038772
  26 H :    0.032104
  27 H :    0.024900
  28 C :   -0.068397
  29 H :    0.022755
  30 H :    0.019620
  31 H :    0.026788
  32 H :    0.041826
  33 H :    0.017395

  Mayer bond orders larger than 0.100000
B(  0-S ,  1-C ) :   1.1333 B(  0-S ,  4-C ) :   1.1190 B(  1-C ,  2-C ) :   1.6491
B(  1-C , 32-H ) :   0.9593 B(  2-C ,  3-C ) :   1.2001 B(  2-C ,  6-C ) :   1.0039
B(  3-C ,  4-C ) :   1.6513 B(  3-C ,  5-H ) :   0.9896 B(  4-C , 20-C ) :   1.0010
B(  6-C ,  7-H ) :   0.9435 B(  6-C ,  8-H ) :   0.9403 B(  6-C ,  9-C ) :   1.0843
B(  9-C , 10-H ) :   0.9623 B(  9-C , 11-H ) :   0.9558 B(  9-C , 12-C ) :   1.0581
B( 12-C , 13-H ) :   0.9786 B( 12-C , 14-H ) :   0.9780 B( 12-C , 15-H ) :   0.9745
B( 16-S , 17-C ) :   1.1565 B( 16-S , 20-C ) :   1.1309 B( 17-C , 18-C ) :   1.6137
B( 17-C , 33-H ) :   0.9765 B( 18-C , 19-C ) :   1.2288 B( 18-C , 21-H ) :   0.9714
B( 19-C , 20-C ) :   1.6250 B( 19-C , 22-C ) :   1.0503 B( 22-C , 23-H ) :   0.9310
B( 22-C , 24-H ) :   0.9208 B( 22-C , 25-C ) :   1.0582 B( 25-C , 26-H ) :   0.9550
B( 25-C , 27-H ) :   0.9540 B( 25-C , 28-C ) :   1.0908 B( 28-C , 29-H ) :   0.9714
B( 28-C , 30-H ) :   0.9741 B( 28-C , 31-H ) :   0.9741

Dispersion correction           -0.014453018
FINAL SINGLE POINT ENERGY     -1339.870601362423

DIPOLE MOMENT
-------------
                                X             Y             Z
Electronic contribution:    -24.22400      -5.97879      15.73498
Nuclear contribution   :     24.86264       5.99692     -16.02030
                        -----------------------------------------
Total Dipole Moment    :      0.63864       0.01814      -0.28532
                        -----------------------------------------
Magnitude (a.u.)       :      0.69971
Magnitude (Debye)      :      1.77853

Rotational constants in cm-1:     0.017821     0.008920     0.006857
Rotational constants in MHz :   534.258889   267.405935   205.560380

                             ****ORCA TERMINATED NORMALLY****
TOTAL RUN TIME: 0 days 0 hours 0 minutes 21 seconds 503 msec
