                         Program Version 4.2.1 -  RELEASE  -
|  1> ! wB97X-D3 SP def2-SVP
|  2> %pal
|  3> nprocs 24
|  4> end
|  5>
|  6> * xyz 0 1
|  7> S 	 -37.9947 	 -51.7491 	 -72.3781
|  8> C 	 -37.9686 	 -50.5368 	 -73.6945
|  9> C 	 -37.9351 	 -49.2148 	 -73.1919
| 10> C 	 -38.0004 	 -49.2142 	 -71.7629
| 11> C 	 -38.1648 	 -50.4516 	 -71.2091
| 12> H 	 -38.0043 	 -48.345 	 -71.1224
| 13> C 	 -37.8005 	 -47.9734 	 -73.9334
| 14> H 	 -36.9062 	 -48.026 	 -74.5057
| 15> H 	 -37.467 	 -47.1828 	 -73.1983
| 16> C 	 -38.9718 	 -47.4936 	 -74.8872
| 17> H 	 -38.6149 	 -46.5432 	 -75.248
| 18> H 	 -39.1071 	 -48.137 	 -75.7543
| 19> C 	 -40.3294 	 -47.2107 	 -74.1985
| 20> H 	 -40.6095 	 -47.8934 	 -73.3775
| 21> H 	 -40.2322 	 -46.1968 	 -73.7391
| 22> H 	 -41.2119 	 -47.197 	 -74.8556
| 23> S 	 -38.2269 	 -52.6064 	 -69.4757
| 24> C 	 -38.8583 	 -52.3759 	 -67.8204
| 25> C 	 -39.172 	 -51.0855 	 -67.6098
| 26> C 	 -38.8303 	 -50.1847 	 -68.6628
| 27> C 	 -38.4164 	 -50.8765 	 -69.846
| 28> H 	 -39.6003 	 -50.7552 	 -66.6542
| 29> C 	 -39.2965 	 -48.7286 	 -68.5607
| 30> H 	 -38.5054 	 -48.0261 	 -68.8544
| 31> H 	 -39.3025 	 -48.564 	 -67.4837
| 32> C 	 -40.6518 	 -48.4122 	 -69.2748
| 33> H 	 -41.4017 	 -48.9314 	 -68.7508
| 34> H 	 -40.6916 	 -48.8136 	 -70.2684
| 35> C 	 -40.7893 	 -46.9276 	 -69.362
| 36> H 	 -39.9556 	 -46.6497 	 -70.0627
| 37> H 	 -40.5988 	 -46.4694 	 -68.3578
| 38> H 	 -41.7128 	 -46.62 	 -69.805
| 39> H 	 -37.8979 	 -50.7758 	 -74.7644
| 40> H 	 -39.2362 	 -53.2141 	 -67.2349
| 41> *
| 42>
| 43>                          ****END OF INPUT****

CARTESIAN COORDINATES (ANGSTROEM)
---------------------------------
  S    -37.994700  -51.749100  -72.378100
  C    -37.968600  -50.536800  -73.694500
  C    -37.935100  -49.214800  -73.191900
  C    -38.000400  -49.214200  -71.762900
  C    -38.164800  -50.451600  -71.209100
  H    -38.004300  -48.345000  -71.122400
  C    -37.800500  -47.973400  -73.933400
  H    -36.906200  -48.026000  -74.505700
  H    -37.467000  -47.182800  -73.198300
  C    -38.971800  -47.493600  -74.887200
  H    -38.614900  -46.543200  -75.248000
  H    -39.107100  -48.137000  -75.754300
  C    -40.329400  -47.210700  -74.198500
  H    -40.609500  -47.893400  -73.377500
  H    -40.232200  -46.196800  -73.739100
  H    -41.211900  -47.197000  -74.855600
  S    -38.226900  -52.606400  -69.475700
  C    -38.858300  -52.375900  -67.820400
  C    -39.172000  -51.085500  -67.609800
  C    -38.830300  -50.184700  -68.662800
  C    -38.416400  -50.876500  -69.846000
  H    -39.600300  -50.755200  -66.654200
  C    -39.296500  -48.728600  -68.560700
  H    -38.505400  -48.026100  -68.854400
  H    -39.302500  -48.564000  -67.483700
  C    -40.651800  -48.412200  -69.274800
  H    -41.401700  -48.931400  -68.750800
  H    -40.691600  -48.813600  -70.268400
  C    -40.789300  -46.927600  -69.362000
  H    -39.955600  -46.649700  -70.062700
  H    -40.598800  -46.469400  -68.357800
  H    -41.712800  -46.620000  -69.805000
  H    -37.897900  -50.775800  -74.764400
  H    -39.236200  -53.214100  -67.234900

 Total Charge           Charge          ....    0
 Multiplicity           Mult            ....    1
 Number of Electrons    NEL             ....  134
 Basis Dimension        Dim             ....  322

ORBITAL ENERGIES
----------------

  NO   OCC          E(Eh)            E(eV)
   0   2.0000     -88.967352     -2420.9247
   1   2.0000     -88.963712     -2420.8257
   2   2.0000     -10.334585      -281.2183
   3   2.0000     -10.329989      -281.0933
   4   2.0000     -10.320456      -280.8339
   5   2.0000     -10.316228      -280.7188
   6   2.0000     -10.306348      -280.4500
   7   2.0000     -10.303263      -280.3660
   8   2.0000     -10.295406      -280.1522
   9   2.0000     -10.294559      -280.1292
  10   2.0000     -10.294252      -280.1208
  11   2.0000     -10.293637      -280.1041
  12   2.0000     -10.293143      -280.0907
  13   2.0000     -10.282980      -279.8141
  14   2.0000     -10.281384      -279.7707
  15   2.0000     -10.279948      -279.7316
  16   2.0000      -8.081518      -219.9093
  17   2.0000      -8.077755      -219.8069
  18   2.0000      -6.040170      -164.3614
  19   2.0000      -6.036476      -164.2609
  20   2.0000      -6.036237      -164.2544
  21   2.0000      -6.032415      -164.1503
  22   2.0000      -6.032037      -164.1401
  23   2.0000      -6.028293      -164.0382
  24   2.0000      -1.003814       -27.3152
  25   2.0000      -0.978207       -26.6184
  26   2.0000      -0.913455       -24.8564
  27   2.0000      -0.910051       -24.7638
  28   2.0000      -0.867387       -23.6028
  29   2.0000      -0.853373       -23.2215
  30   2.0000      -0.845378       -23.0039
  31   2.0000      -0.816892       -22.2288
  32   2.0000      -0.781049       -21.2534
  33   2.0000      -0.766140       -20.8477
  34   2.0000      -0.710362       -19.3299
  35   2.0000      -0.708462       -19.2782
  36   2.0000      -0.695244       -18.9186
  37   2.0000      -0.661635       -18.0040
  38   2.0000      -0.635060       -17.2809
  39   2.0000      -0.618003       -16.8167
  40   2.0000      -0.596505       -16.2317
  41   2.0000      -0.570618       -15.5273
  42   2.0000      -0.565796       -15.3961
  43   2.0000      -0.548496       -14.9253
  44   2.0000      -0.538755       -14.6603
  45   2.0000      -0.531122       -14.4526
  46   2.0000      -0.513798       -13.9811
  47   2.0000      -0.510273       -13.8852
  48   2.0000      -0.505274       -13.7492
  49   2.0000      -0.497440       -13.5360
  50   2.0000      -0.488737       -13.2992
  51   2.0000      -0.479947       -13.0600
  52   2.0000      -0.469406       -12.7732
  53   2.0000      -0.461157       -12.5487
  54   2.0000      -0.454288       -12.3618
  55   2.0000      -0.448813       -12.2128
  56   2.0000      -0.446169       -12.1409
  57   2.0000      -0.443372       -12.0648
  58   2.0000      -0.431936       -11.7536
  59   2.0000      -0.427652       -11.6370
  60   2.0000      -0.425154       -11.5690
  61   2.0000      -0.419162       -11.4060
  62   2.0000      -0.408105       -11.1051
  63   2.0000      -0.359296        -9.7769
  64   2.0000      -0.339378        -9.2349
  65   2.0000      -0.325184        -8.8487
  66   2.0000      -0.277251        -7.5444
  67   0.0000       0.009959         0.2710
  68   0.0000       0.072597         1.9755
  69   0.0000       0.091707         2.4955
  70   0.0000       0.119168         3.2427
  71   0.0000       0.123605         3.3635

MULLIKEN ATOMIC CHARGES
-----------------------
   0 S :    0.090105
   1 C :   -0.115665
   2 C :   -0.071978
   3 C :   -0.011502
   4 C :   -0.089228
   5 H :   -0.005518
   6 C :    0.039269
   7 H :    0.026230
   8 H :    0.023311
   9 C :   -0.040674
  10 H :    0.027066
  11 H :    0.034484
  12 C :   -0.082460
  13 H :    0.044896
  14 H :    0.030267
  15 H :    0.039229
  16 S :    0.065797
  17 C :   -0.078139
  18 C :   -0.040262
  19 C :   -0.052478
  20 C :   -0.114696
  21 H :    0.026775
  22 C :   -0.002449
  23 H :    0.024181
  24 H :    0.015700
  25 C :   -0.009625
  26 H :    0.012803
  27 H :    0.031099
  28 C :   -0.037119
  29 H :    0.027771
  30 H :    0.037841
  31 H :    0.033961
  32 H :    0.052428
  33 H :    0.068579
Sum of atomic charges:   -0.0000000

LOEWDIN ATOMIC CHARGES
----------------------
   0 S :    0.385756
   1 C :   -0.187810
   2 C :   -0.061409
   3 C :   -0.066818
   4 C :   -0.178415
   5 H :    0.028586
   6 C :   -0.041082
   7 H :    0.032876
   8 H :    0.038489
   9 C :   -0.031388
  10 H :    0.024966
  11 H :    0.023012
  12 C :   -0.076292
  13 H :    0.026838
  14 H :    0.028579
  15 H :    0.028342
  16 S :    0.366577
  17 C :   -0.177399
  18 C :   -0.072135
  19 C :   -0.061797
  20 C :   -0.178865
  21 H :    0.036006
  22 C :   -0.035222
  23 H :    0.025016
  24 H :    0.029723
  25 C :   -0.032177
  26 H :    0.016826
  27 H :    0.025018
  28 C :   -0.061334
  29 H :    0.029745
  30 H :    0.029056
  31 H :    0.021462
  32 H :    0.030359
  33 H :    0.034909

  Mayer bond orders larger than 0.100000
B(  0-S ,  1-C ) :   1.1251 B(  0-S ,  4-C ) :   1.1334 B(  1-C ,  2-C ) :   1.6014
B(  1-C , 32-H ) :   0.9690 B(  2-C ,  3-C ) :   1.2259 B(  2-C ,  6-C ) :   1.0325
B(  3-C ,  4-C ) :   1.5768 B(  3-C ,  5-H ) :   0.9920 B(  4-C , 20-C ) :   1.0991
B(  6-C ,  7-H ) :   0.9250 B(  6-C ,  8-H ) :   0.9419 B(  6-C ,  9-C ) :   1.0655
B(  9-C , 10-H ) :   0.9587 B(  9-C , 11-H ) :   0.9616 B(  9-C , 12-C ) :   1.0605
B( 12-C , 13-H ) :   0.9803 B( 12-C , 14-H ) :   0.9783 B( 12-C , 15-H ) :   0.9761
B( 16-S , 17-C ) :   1.1232 B( 16-S , 20-C ) :   1.1376 B( 17-C , 18-C ) :   1.6387
B( 17-C , 33-H ) :   0.9611 B( 18-C , 19-C ) :   1.2517 B( 18-C , 21-H ) :   0.9787
B( 19-C , 20-C ) :   1.5514 B( 19-C , 22-C ) :   1.0538 B( 22-C , 23-H ) :   0.9386
B( 22-C , 24-H ) :   0.9279 B( 22-C , 25-C ) :   1.0413 B( 25-C , 26-H ) :   0.9497
B( 25-C , 27-H ) :   0.9585 B( 25-C , 28-C ) :   1.0770 B( 28-C , 29-H ) :   0.9756
B( 28-C , 30-H ) :   0.9726 B( 28-C , 31-H ) :   0.9704

Dispersion correction           -0.015092773
FINAL SINGLE POINT ENERGY     -1339.874161418820

DIPOLE MOMENT
-------------
                                X             Y             Z
Electronic contribution:     12.08979     -28.86193       5.51088
Nuclear contribution   :    -12.42346      29.54974      -5.56292
                        -----------------------------------------
Total Dipole Moment    :     -0.33367       0.68781      -0.05203
                        -----------------------------------------
Magnitude (a.u.)       :      0.76624
Magnitude (Debye)      :      1.94764

Rotational constants in cm-1:     0.018752     0.010018     0.006948
Rotational constants in MHz :   562.185105   300.337401   208.294735

                             ****ORCA TERMINATED NORMALLY****
TOTAL RUN TIME: 0 days 0 hours 0 minutes 22 seconds 647 msec
