                         Program Version 4.2.1 -  RELEASE  -
|  1> ! wB97X-D3 SP def2-SVP
|  2> %pal
|  3> nprocs 24
|  4> end
|  5>
|  6> * xyz 0 1
|  7> S 	 -85.8089 	 -29.1507 	 -78.9819
|  8> C 	 -85.1202 	 -29.2189 	 -80.5763
|  9> C 	 -85.9102 	 -29.8667 	 -81.5034
| 10> C 	 -86.922 	 -30.6321 	 -80.8239
| 11> C 	 -87.0431 	 -30.3478 	 -79.4394
| 12> H 	 -87.5949 	 -31.2128 	 -81.3788
| 13> C 	 -85.5794 	 -30.1806 	 -83.0036
| 14> H 	 -85.8472 	 -31.2019 	 -83.2292
| 15> H 	 -84.5446 	 -30.1572 	 -83.1925
| 16> C 	 -86.3191 	 -29.3227 	 -84.092
| 17> H 	 -86.1013 	 -29.8229 	 -85.0345
| 18> H 	 -87.356 	 -29.2983 	 -83.9366
| 19> C 	 -85.7509 	 -27.8564 	 -84.1573
| 20> H 	 -86.4111 	 -27.3287 	 -84.8934
| 21> H 	 -85.7994 	 -27.4152 	 -83.1622
| 22> H 	 -84.709 	 -27.8227 	 -84.5164
| 23> S 	 -87.2456 	 -31.6621 	 -77.0434
| 24> C 	 -88.9064 	 -31.8519 	 -76.4757
| 25> C 	 -89.9386 	 -31.4256 	 -77.2582
| 26> C 	 -89.3867 	 -30.9172 	 -78.5327
| 27> C 	 -87.9628 	 -30.972 	 -78.5211
| 28> H 	 -90.9859 	 -31.4953 	 -76.9265
| 29> C 	 -90.2888 	 -30.2826 	 -79.5613
| 30> H 	 -89.7406 	 -29.9172 	 -80.4461
| 31> H 	 -90.6101 	 -29.3574 	 -79.09
| 32> C 	 -91.5496 	 -31.0168 	 -79.882
| 33> H 	 -92.3078 	 -30.9072 	 -79.1097
| 34> H 	 -91.2731 	 -32.0623 	 -79.8991
| 35> C 	 -92.1163 	 -30.6147 	 -81.2159
| 36> H 	 -92.5468 	 -29.5727 	 -81.0989
| 37> H 	 -92.8912 	 -31.2757 	 -81.5083
| 38> H 	 -91.344 	 -30.6865 	 -81.9726
| 39> H 	 -84.2615 	 -28.6204 	 -80.8487
| 40> H 	 -89.0235 	 -32.1547 	 -75.486
| 41> *
| 42>
| 43>                          ****END OF INPUT****

CARTESIAN COORDINATES (ANGSTROEM)
---------------------------------
  S    -85.808900  -29.150700  -78.981900
  C    -85.120200  -29.218900  -80.576300
  C    -85.910200  -29.866700  -81.503400
  C    -86.922000  -30.632100  -80.823900
  C    -87.043100  -30.347800  -79.439400
  H    -87.594900  -31.212800  -81.378800
  C    -85.579400  -30.180600  -83.003600
  H    -85.847200  -31.201900  -83.229200
  H    -84.544600  -30.157200  -83.192500
  C    -86.319100  -29.322700  -84.092000
  H    -86.101300  -29.822900  -85.034500
  H    -87.356000  -29.298300  -83.936600
  C    -85.750900  -27.856400  -84.157300
  H    -86.411100  -27.328700  -84.893400
  H    -85.799400  -27.415200  -83.162200
  H    -84.709000  -27.822700  -84.516400
  S    -87.245600  -31.662100  -77.043400
  C    -88.906400  -31.851900  -76.475700
  C    -89.938600  -31.425600  -77.258200
  C    -89.386700  -30.917200  -78.532700
  C    -87.962800  -30.972000  -78.521100
  H    -90.985900  -31.495300  -76.926500
  C    -90.288800  -30.282600  -79.561300
  H    -89.740600  -29.917200  -80.446100
  H    -90.610100  -29.357400  -79.090000
  C    -91.549600  -31.016800  -79.882000
  H    -92.307800  -30.907200  -79.109700
  H    -91.273100  -32.062300  -79.899100
  C    -92.116300  -30.614700  -81.215900
  H    -92.546800  -29.572700  -81.098900
  H    -92.891200  -31.275700  -81.508300
  H    -91.344000  -30.686500  -81.972600
  H    -84.261500  -28.620400  -80.848700
  H    -89.023500  -32.154700  -75.486000

 Total Charge           Charge          ....    0
 Multiplicity           Mult            ....    1
 Number of Electrons    NEL             ....  134
 Basis Dimension        Dim             ....  322

ORBITAL ENERGIES
----------------

  NO   OCC          E(Eh)            E(eV)
   0   2.0000     -88.966860     -2420.9113
   1   2.0000     -88.966819     -2420.9102
   2   2.0000     -10.329339      -281.0756
   3   2.0000     -10.327582      -281.0278
   4   2.0000     -10.314456      -280.6706
   5   2.0000     -10.313563      -280.6463
   6   2.0000     -10.312117      -280.6070
   7   2.0000     -10.301447      -280.3166
   8   2.0000     -10.301219      -280.3104
   9   2.0000     -10.291519      -280.0465
  10   2.0000     -10.290985      -280.0319
  11   2.0000     -10.288043      -279.9519
  12   2.0000     -10.286054      -279.8978
  13   2.0000     -10.281319      -279.7689
  14   2.0000     -10.281135      -279.7639
  15   2.0000     -10.279012      -279.7061
  16   2.0000      -8.081226      -219.9013
  17   2.0000      -8.081152      -219.8993
  18   2.0000      -6.039680      -164.3480
  19   2.0000      -6.039501      -164.3432
  20   2.0000      -6.036118      -164.2511
  21   2.0000      -6.035887      -164.2448
  22   2.0000      -6.031948      -164.1377
  23   2.0000      -6.031706      -164.1311
  24   2.0000      -0.997651       -27.1475
  25   2.0000      -0.975735       -26.5511
  26   2.0000      -0.919963       -25.0335
  27   2.0000      -0.900971       -24.5167
  28   2.0000      -0.865928       -23.5631
  29   2.0000      -0.853384       -23.2218
  30   2.0000      -0.842755       -22.9325
  31   2.0000      -0.808566       -22.0022
  32   2.0000      -0.782521       -21.2935
  33   2.0000      -0.770807       -20.9747
  34   2.0000      -0.705423       -19.1955
  35   2.0000      -0.697092       -18.9688
  36   2.0000      -0.693663       -18.8755
  37   2.0000      -0.655420       -17.8349
  38   2.0000      -0.637774       -17.3547
  39   2.0000      -0.620881       -16.8950
  40   2.0000      -0.601975       -16.3806
  41   2.0000      -0.577622       -15.7179
  42   2.0000      -0.565007       -15.3746
  43   2.0000      -0.541361       -14.7312
  44   2.0000      -0.537468       -14.6252
  45   2.0000      -0.526443       -14.3252
  46   2.0000      -0.519440       -14.1347
  47   2.0000      -0.510250       -13.8846
  48   2.0000      -0.497777       -13.5452
  49   2.0000      -0.488213       -13.2850
  50   2.0000      -0.485287       -13.2053
  51   2.0000      -0.476135       -12.9563
  52   2.0000      -0.472312       -12.8523
  53   2.0000      -0.461933       -12.5698
  54   2.0000      -0.460704       -12.5364
  55   2.0000      -0.454451       -12.3662
  56   2.0000      -0.444874       -12.1056
  57   2.0000      -0.438072       -11.9205
  58   2.0000      -0.436361       -11.8740
  59   2.0000      -0.431454       -11.7405
  60   2.0000      -0.418929       -11.3996
  61   2.0000      -0.417293       -11.3551
  62   2.0000      -0.415198       -11.2981
  63   2.0000      -0.340554        -9.2669
  64   2.0000      -0.330879        -9.0037
  65   2.0000      -0.328554        -8.9404
  66   2.0000      -0.287709        -7.8289
  67   0.0000       0.028541         0.7767
  68   0.0000       0.067898         1.8476
  69   0.0000       0.105754         2.8777
  70   0.0000       0.115949         3.1551
  71   0.0000       0.117801         3.2055

MULLIKEN ATOMIC CHARGES
-----------------------
   0 S :    0.117147
   1 C :   -0.128882
   2 C :   -0.071255
   3 C :    0.050156
   4 C :   -0.158754
   5 H :   -0.007675
   6 C :    0.053505
   7 H :    0.020754
   8 H :    0.011754
   9 C :   -0.057930
  10 H :    0.028974
  11 H :    0.021742
  12 C :   -0.081520
  13 H :    0.043234
  14 H :    0.042016
  15 H :    0.035026
  16 S :    0.104082
  17 C :   -0.065202
  18 C :   -0.031338
  19 C :   -0.041107
  20 C :   -0.166512
  21 H :    0.038589
  22 C :    0.079018
  23 H :    0.022404
  24 H :    0.030655
  25 C :   -0.096194
  26 H :    0.029197
  27 H :    0.027230
  28 C :   -0.025440
  29 H :    0.039597
  30 H :    0.026493
  31 H :    0.028491
  32 H :    0.049592
  33 H :    0.032153
Sum of atomic charges:    0.0000000

LOEWDIN ATOMIC CHARGES
----------------------
   0 S :    0.398679
   1 C :   -0.197910
   2 C :   -0.066589
   3 C :   -0.050905
   4 C :   -0.193687
   5 H :    0.018051
   6 C :   -0.023328
   7 H :    0.028933
   8 H :    0.022111
   9 C :   -0.031005
  10 H :    0.024046
  11 H :    0.014510
  12 C :   -0.070009
  13 H :    0.030591
  14 H :    0.024219
  15 H :    0.024534
  16 S :    0.382679
  17 C :   -0.158160
  18 C :   -0.070039
  19 C :   -0.032425
  20 C :   -0.201434
  21 H :    0.041302
  22 C :   -0.039707
  23 H :    0.031944
  24 H :    0.038587
  25 C :   -0.045894
  26 H :    0.022431
  27 H :    0.022158
  28 C :   -0.056786
  29 H :    0.033687
  30 H :    0.021261
  31 H :    0.023466
  32 H :    0.024723
  33 H :    0.009964

  Mayer bond orders larger than 0.100000
B(  0-S ,  1-C ) :   1.1491 B(  0-S ,  4-C ) :   1.1380 B(  1-C ,  2-C ) :   1.6032
B(  1-C , 32-H ) :   0.9623 B(  2-C ,  3-C ) :   1.2555 B(  2-C ,  6-C ) :   1.0129
B(  3-C ,  4-C ) :   1.5578 B(  3-C ,  5-H ) :   0.9932 B(  4-C , 20-C ) :   1.0762
B(  6-C ,  7-H ) :   0.9502 B(  6-C ,  8-H ) :   0.9513 B(  6-C ,  9-C ) :   1.0646
B(  9-C , 10-H ) :   0.9574 B(  9-C , 11-H ) :   0.9610 B(  9-C , 12-C ) :   1.0719
B( 12-C , 13-H ) :   0.9769 B( 12-C , 14-H ) :   0.9781 B( 12-C , 15-H ) :   0.9772
B( 16-S , 17-C ) :   1.1429 B( 16-S , 20-C ) :   1.1173 B( 17-C , 18-C ) :   1.6654
B( 17-C , 33-H ) :   0.9683 B( 18-C , 19-C ) :   1.1793 B( 18-C , 21-H ) :   0.9846
B( 19-C , 20-C ) :   1.6163 B( 19-C , 22-C ) :   1.0570 B( 22-C , 23-H ) :   0.9369
B( 22-C , 24-H ) :   0.9167 B( 22-C , 25-C ) :   1.0487 B( 25-C , 26-H ) :   0.9434
B( 25-C , 27-H ) :   0.9629 B( 25-C , 28-C ) :   1.1027 B( 28-C , 29-H ) :   0.9712
B( 28-C , 30-H ) :   0.9719 B( 28-C , 31-H ) :   0.9750

Dispersion correction           -0.013803811
FINAL SINGLE POINT ENERGY     -1339.869802546800

DIPOLE MOMENT
-------------
                                X             Y             Z
Electronic contribution:     13.41842      -5.12946      26.59984
Nuclear contribution   :    -13.92742       5.14295     -27.00419
                        -----------------------------------------
Total Dipole Moment    :     -0.50900       0.01349      -0.40436
                        -----------------------------------------
Magnitude (a.u.)       :      0.65020
Magnitude (Debye)      :      1.65269

Rotational constants in cm-1:     0.017339     0.008783     0.006278
Rotational constants in MHz :   519.813217   263.295716   188.201165

                             ****ORCA TERMINATED NORMALLY****
TOTAL RUN TIME: 0 days 0 hours 0 minutes 21 seconds 251 msec
