                         Program Version 4.2.1 -  RELEASE  -
|  1> ! wB97X-D3 SP def2-SVP
|  2> %pal
|  3> nprocs 24
|  4> end
|  5>
|  6> * xyz 0 1
|  7> S 	 -50.5423 	 16.2343 	 -100.4
|  8> C 	 -51.8629 	 17.3649 	 -100.384
|  9> C 	 -51.3872 	 18.6396 	 -100.552
| 10> C 	 -49.9905 	 18.7308 	 -100.295
| 11> C 	 -49.3551 	 17.505 	 -100.307
| 12> H 	 -49.4455 	 19.5999 	 -100.165
| 13> C 	 -52.2753 	 19.8689 	 -100.7
| 14> H 	 -53.1288 	 19.6548 	 -101.302
| 15> H 	 -51.6258 	 20.6528 	 -101.181
| 16> C 	 -52.6449 	 20.4756 	 -99.2929
| 17> H 	 -51.7274 	 20.623 	 -98.7541
| 18> H 	 -53.0902 	 21.5009 	 -99.5409
| 19> C 	 -53.6524 	 19.6641 	 -98.5189
| 20> H 	 -54.545 	 19.578 	 -99.1063
| 21> H 	 -53.2981 	 18.6241 	 -98.351
| 22> H 	 -53.8873 	 20.1244 	 -97.5571
| 23> S 	 -47.2925 	 16.3829 	 -98.7614
| 24> C 	 -45.6117 	 16.8882 	 -99.1543
| 25> C 	 -45.5667 	 17.6132 	 -100.347
| 26> C 	 -46.8583 	 17.6968 	 -100.975
| 27> C 	 -47.9277 	 17.2393 	 -100.139
| 28> H 	 -44.5762 	 17.9266 	 -100.712
| 29> C 	 -47.1203 	 18.447 	 -102.227
| 30> H 	 -48.1393 	 18.7755 	 -102.285
| 31> H 	 -47.0806 	 17.6576 	 -102.983
| 32> C 	 -46.0622 	 19.5729 	 -102.53
| 33> H 	 -46.3427 	 19.9388 	 -103.502
| 34> H 	 -45.1013 	 19.0984 	 -102.745
| 35> C 	 -46.2142 	 20.8204 	 -101.579
| 36> H 	 -46.1918 	 20.5673 	 -100.49
| 37> H 	 -47.2124 	 21.2399 	 -101.865
| 38> H 	 -45.558 	 21.7054 	 -101.82
| 39> H 	 -52.881 	 17.0668 	 -100.517
| 40> H 	 -44.7856 	 16.5646 	 -98.5955
| 41> *
| 42>
| 43>                          ****END OF INPUT****

CARTESIAN COORDINATES (ANGSTROEM)
---------------------------------
  S    -50.542300   16.234300  -100.400000
  C    -51.862900   17.364900  -100.384000
  C    -51.387200   18.639600  -100.552000
  C    -49.990500   18.730800  -100.295000
  C    -49.355100   17.505000  -100.307000
  H    -49.445500   19.599900  -100.165000
  C    -52.275300   19.868900  -100.700000
  H    -53.128800   19.654800  -101.302000
  H    -51.625800   20.652800  -101.181000
  C    -52.644900   20.475600  -99.292900
  H    -51.727400   20.623000  -98.754100
  H    -53.090200   21.500900  -99.540900
  C    -53.652400   19.664100  -98.518900
  H    -54.545000   19.578000  -99.106300
  H    -53.298100   18.624100  -98.351000
  H    -53.887300   20.124400  -97.557100
  S    -47.292500   16.382900  -98.761400
  C    -45.611700   16.888200  -99.154300
  C    -45.566700   17.613200  -100.347000
  C    -46.858300   17.696800  -100.975000
  C    -47.927700   17.239300  -100.139000
  H    -44.576200   17.926600  -100.712000
  C    -47.120300   18.447000  -102.227000
  H    -48.139300   18.775500  -102.285000
  H    -47.080600   17.657600  -102.983000
  C    -46.062200   19.572900  -102.530000
  H    -46.342700   19.938800  -103.502000
  H    -45.101300   19.098400  -102.745000
  C    -46.214200   20.820400  -101.579000
  H    -46.191800   20.567300  -100.490000
  H    -47.212400   21.239900  -101.865000
  H    -45.558000   21.705400  -101.820000
  H    -52.881000   17.066800  -100.517000
  H    -44.785600   16.564600  -98.595500

 Total Charge           Charge          ....    0
 Multiplicity           Mult            ....    1
 Number of Electrons    NEL             ....  134
 Basis Dimension        Dim             ....  322

ORBITAL ENERGIES
----------------

  NO   OCC          E(Eh)            E(eV)
   0   2.0000     -88.965336     -2420.8699
   1   2.0000     -88.962285     -2420.7869
   2   2.0000     -10.328013      -281.0395
   3   2.0000     -10.326346      -280.9942
   4   2.0000     -10.320449      -280.8337
   5   2.0000     -10.309676      -280.5405
   6   2.0000     -10.306384      -280.4510
   7   2.0000     -10.301266      -280.3117
   8   2.0000     -10.298598      -280.2391
   9   2.0000     -10.295480      -280.1543
  10   2.0000     -10.293225      -280.0929
  11   2.0000     -10.293036      -280.0877
  12   2.0000     -10.290883      -280.0292
  13   2.0000     -10.288770      -279.9717
  14   2.0000     -10.286494      -279.9097
  15   2.0000     -10.274241      -279.5763
  16   2.0000      -8.079278      -219.8483
  17   2.0000      -8.077574      -219.8020
  18   2.0000      -6.037782      -164.2964
  19   2.0000      -6.036039      -164.2490
  20   2.0000      -6.033829      -164.1888
  21   2.0000      -6.031915      -164.1368
  22   2.0000      -6.030164      -164.0891
  23   2.0000      -6.028457      -164.0427
  24   2.0000      -1.005633       -27.3647
  25   2.0000      -0.980305       -26.6755
  26   2.0000      -0.909475       -24.7481
  27   2.0000      -0.903975       -24.5984
  28   2.0000      -0.867594       -23.6084
  29   2.0000      -0.848196       -23.0806
  30   2.0000      -0.839950       -22.8562
  31   2.0000      -0.816377       -22.2148
  32   2.0000      -0.781917       -21.2771
  33   2.0000      -0.768750       -20.9187
  34   2.0000      -0.709288       -19.3007
  35   2.0000      -0.702516       -19.1164
  36   2.0000      -0.690646       -18.7934
  37   2.0000      -0.651455       -17.7270
  38   2.0000      -0.646448       -17.5908
  39   2.0000      -0.622102       -16.9283
  40   2.0000      -0.597396       -16.2560
  41   2.0000      -0.569139       -15.4871
  42   2.0000      -0.549998       -14.9662
  43   2.0000      -0.545871       -14.8539
  44   2.0000      -0.537872       -14.6362
  45   2.0000      -0.534450       -14.5431
  46   2.0000      -0.524000       -14.2588
  47   2.0000      -0.516168       -14.0456
  48   2.0000      -0.505450       -13.7540
  49   2.0000      -0.488361       -13.2890
  50   2.0000      -0.484461       -13.1829
  51   2.0000      -0.480115       -13.0646
  52   2.0000      -0.469563       -12.7775
  53   2.0000      -0.464659       -12.6440
  54   2.0000      -0.460294       -12.5252
  55   2.0000      -0.444863       -12.1053
  56   2.0000      -0.442610       -12.0440
  57   2.0000      -0.440225       -11.9791
  58   2.0000      -0.435941       -11.8626
  59   2.0000      -0.428911       -11.6713
  60   2.0000      -0.424100       -11.5404
  61   2.0000      -0.411794       -11.2055
  62   2.0000      -0.409321       -11.1382
  63   2.0000      -0.341250        -9.2859
  64   2.0000      -0.328128        -8.9288
  65   2.0000      -0.323269        -8.7966
  66   2.0000      -0.294029        -8.0009
  67   0.0000       0.030789         0.8378
  68   0.0000       0.063925         1.7395
  69   0.0000       0.110013         2.9936
  70   0.0000       0.122330         3.3288
  71   0.0000       0.130072         3.5394

MULLIKEN ATOMIC CHARGES
-----------------------
   0 S :    0.108223
   1 C :   -0.108392
   2 C :   -0.103927
   3 C :    0.066733
   4 C :   -0.175184
   5 H :   -0.017268
   6 C :    0.051242
   7 H :    0.023228
   8 H :    0.031680
   9 C :   -0.081322
  10 H :    0.027517
  11 H :    0.038174
  12 C :   -0.036794
  13 H :    0.017106
  14 H :    0.040275
  15 H :    0.039508
  16 S :    0.109535
  17 C :   -0.085926
  18 C :   -0.039026
  19 C :   -0.049717
  20 C :   -0.152849
  21 H :    0.035850
  22 C :    0.071745
  23 H :    0.017003
  24 H :    0.033996
  25 C :   -0.053818
  26 H :    0.016178
  27 H :    0.030057
  28 C :   -0.084043
  29 H :    0.063078
  30 H :    0.029961
  31 H :    0.047929
  32 H :    0.045705
  33 H :    0.043541
Sum of atomic charges:   -0.0000000

LOEWDIN ATOMIC CHARGES
----------------------
   0 S :    0.410126
   1 C :   -0.199058
   2 C :   -0.064449
   3 C :   -0.050557
   4 C :   -0.194894
   5 H :    0.018972
   6 C :   -0.028693
   7 H :    0.023127
   8 H :    0.036605
   9 C :   -0.037076
  10 H :    0.019986
  11 H :    0.029261
  12 C :   -0.068625
  13 H :    0.019976
  14 H :    0.029289
  15 H :    0.028791
  16 S :    0.394542
  17 C :   -0.160301
  18 C :   -0.073287
  19 C :   -0.048649
  20 C :   -0.218083
  21 H :    0.038803
  22 C :   -0.034305
  23 H :    0.026463
  24 H :    0.040316
  25 C :   -0.041133
  26 H :    0.023326
  27 H :    0.021368
  28 C :   -0.077017
  29 H :    0.030607
  30 H :    0.030108
  31 H :    0.033171
  32 H :    0.023215
  33 H :    0.018073

  Mayer bond orders larger than 0.100000
B(  0-S ,  1-C ) :   1.1433 B(  0-S ,  4-C ) :   1.1598 B(  1-C ,  2-C ) :   1.6004
B(  1-C , 32-H ) :   0.9676 B(  2-C ,  3-C ) :   1.2281 B(  2-C ,  6-C ) :   1.0389
B(  3-C ,  4-C ) :   1.5758 B(  3-C ,  5-H ) :   1.0024 B(  4-C , 20-C ) :   1.0374
B(  6-C ,  7-H ) :   0.9447 B(  6-C ,  8-H ) :   0.9388 B(  6-C ,  9-C ) :   1.0617
B(  9-C , 10-H ) :   0.9559 B(  9-C , 11-H ) :   0.9551 B(  9-C , 12-C ) :   1.0849
B( 12-C , 13-H ) :   0.9732 B( 12-C , 14-H ) :   0.9689 B( 12-C , 15-H ) :   0.9710
B( 16-S , 17-C ) :   1.1586 B( 16-S , 20-C ) :   1.1439 B( 17-C , 18-C ) :   1.5924
B( 17-C , 20-C ) :   0.1056 B( 17-C , 33-H ) :   0.9731 B( 18-C , 19-C ) :   1.2494
B( 18-C , 21-H ) :   0.9844 B( 19-C , 20-C ) :   1.5469 B( 19-C , 22-C ) :   1.0441
B( 22-C , 23-H ) :   0.9341 B( 22-C , 24-H ) :   0.9113 B( 22-C , 25-C ) :   1.0880
B( 25-C , 26-H ) :   0.9539 B( 25-C , 27-H ) :   0.9506 B( 25-C , 28-C ) :   1.0473
B( 28-C , 29-H ) :   0.9783 B( 28-C , 30-H ) :   0.9726 B( 28-C , 31-H ) :   0.9759

Dispersion correction           -0.015064615
FINAL SINGLE POINT ENERGY     -1339.876781020178

DIPOLE MOMENT
-------------
                                X             Y             Z
Electronic contribution:      5.73677     -23.29531       5.81379
Nuclear contribution   :     -5.69305      23.91737      -6.16538
                        -----------------------------------------
Total Dipole Moment    :      0.04371       0.62205      -0.35160
                        -----------------------------------------
Magnitude (a.u.)       :      0.71588
Magnitude (Debye)      :      1.81962

Rotational constants in cm-1:     0.020041     0.008487     0.006987
Rotational constants in MHz :   600.822227   254.418908   209.469120

                             ****ORCA TERMINATED NORMALLY****
TOTAL RUN TIME: 0 days 0 hours 0 minutes 22 seconds 82 msec
