                         Program Version 4.2.1 -  RELEASE  -
|  1> ! wB97X-D3 SP def2-SVP
|  2> %pal
|  3> nprocs 24
|  4> end
|  5>
|  6> * xyz 0 1
|  7> S 	 -107 	 38.1553 	 -12.3727
|  8> C 	 -107.741 	 37.8296 	 -13.9415
|  9> C 	 -106.693 	 37.5553 	 -14.8859
| 10> C 	 -105.381 	 37.5987 	 -14.3055
| 11> C 	 -105.393 	 37.7344 	 -12.9187
| 12> H 	 -104.463 	 37.5175 	 -14.8169
| 13> C 	 -106.924 	 37.3844 	 -16.3631
| 14> H 	 -106.143 	 38.0455 	 -16.8056
| 15> H 	 -107.932 	 37.8492 	 -16.5736
| 16> C 	 -107.073 	 35.9282 	 -16.7597
| 17> H 	 -106.328 	 35.3227 	 -16.2402
| 18> H 	 -108.053 	 35.5314 	 -16.3598
| 19> C 	 -106.863 	 35.7659 	 -18.2571
| 20> H 	 -106.108 	 36.427 	 -18.7279
| 21> H 	 -106.718 	 34.7301 	 -18.5648
| 22> H 	 -107.777 	 36.0819 	 -18.75
| 23> S 	 -103.601 	 39.046 	 -11.1748
| 24> C 	 -102.144 	 38.2251 	 -10.6918
| 25> C 	 -102.034 	 36.9608 	 -11.2234
| 26> C 	 -103.183 	 36.6232 	 -12.0347
| 27> C 	 -104.134 	 37.6563 	 -12.1392
| 28> H 	 -101.103 	 36.3713 	 -10.992
| 29> C 	 -103.299 	 35.2262 	 -12.5788
| 30> H 	 -104.343 	 34.9912 	 -12.8018
| 31> H 	 -102.845 	 34.6224 	 -11.7505
| 32> C 	 -102.425 	 34.9925 	 -13.8419
| 33> H 	 -101.415 	 35.3493 	 -13.5133
| 34> H 	 -102.836 	 35.6839 	 -14.5557
| 35> C 	 -102.289 	 33.5706 	 -14.4181
| 36> H 	 -103.305 	 33.2113 	 -14.4881
| 37> H 	 -101.813 	 32.9026 	 -13.6217
| 38> H 	 -101.699 	 33.5671 	 -15.3011
| 39> H 	 -108.78 	 37.8405 	 -14.0684
| 40> H 	 -101.479 	 38.7403 	 -10.093
| 41> *
| 42>
| 43>                          ****END OF INPUT****

CARTESIAN COORDINATES (ANGSTROEM)
---------------------------------
  S    -107.000000   38.155300  -12.372700
  C    -107.741000   37.829600  -13.941500
  C    -106.693000   37.555300  -14.885900
  C    -105.381000   37.598700  -14.305500
  C    -105.393000   37.734400  -12.918700
  H    -104.463000   37.517500  -14.816900
  C    -106.924000   37.384400  -16.363100
  H    -106.143000   38.045500  -16.805600
  H    -107.932000   37.849200  -16.573600
  C    -107.073000   35.928200  -16.759700
  H    -106.328000   35.322700  -16.240200
  H    -108.053000   35.531400  -16.359800
  C    -106.863000   35.765900  -18.257100
  H    -106.108000   36.427000  -18.727900
  H    -106.718000   34.730100  -18.564800
  H    -107.777000   36.081900  -18.750000
  S    -103.601000   39.046000  -11.174800
  C    -102.144000   38.225100  -10.691800
  C    -102.034000   36.960800  -11.223400
  C    -103.183000   36.623200  -12.034700
  C    -104.134000   37.656300  -12.139200
  H    -101.103000   36.371300  -10.992000
  C    -103.299000   35.226200  -12.578800
  H    -104.343000   34.991200  -12.801800
  H    -102.845000   34.622400  -11.750500
  C    -102.425000   34.992500  -13.841900
  H    -101.415000   35.349300  -13.513300
  H    -102.836000   35.683900  -14.555700
  C    -102.289000   33.570600  -14.418100
  H    -103.305000   33.211300  -14.488100
  H    -101.813000   32.902600  -13.621700
  H    -101.699000   33.567100  -15.301100
  H    -108.780000   37.840500  -14.068400
  H    -101.479000   38.740300  -10.093000

 Total Charge           Charge          ....    0
 Multiplicity           Mult            ....    1
 Number of Electrons    NEL             ....  134
 Basis Dimension        Dim             ....  322

ORBITAL ENERGIES
----------------

  NO   OCC          E(Eh)            E(eV)
   0   2.0000     -88.968575     -2420.9580
   1   2.0000     -88.962654     -2420.7969
   2   2.0000     -10.333469      -281.1880
   3   2.0000     -10.332183      -281.1530
   4   2.0000     -10.319400      -280.8051
   5   2.0000     -10.314094      -280.6608
   6   2.0000     -10.308729      -280.5148
   7   2.0000     -10.307217      -280.4736
   8   2.0000     -10.300842      -280.3002
   9   2.0000     -10.296075      -280.1704
  10   2.0000     -10.293545      -280.1016
  11   2.0000     -10.292265      -280.0668
  12   2.0000     -10.291538      -280.0470
  13   2.0000     -10.286699      -279.9153
  14   2.0000     -10.282223      -279.7935
  15   2.0000     -10.278753      -279.6991
  16   2.0000      -8.082720      -219.9420
  17   2.0000      -8.077574      -219.8020
  18   2.0000      -6.041278      -164.3915
  19   2.0000      -6.037149      -164.2792
  20   2.0000      -6.035991      -164.2477
  21   2.0000      -6.033643      -164.1838
  22   2.0000      -6.032051      -164.1405
  23   2.0000      -6.028442      -164.0423
  24   2.0000      -1.000436       -27.2233
  25   2.0000      -0.980343       -26.6765
  26   2.0000      -0.914612       -24.8879
  27   2.0000      -0.907213       -24.6865
  28   2.0000      -0.866435       -23.5769
  29   2.0000      -0.850775       -23.1508
  30   2.0000      -0.847140       -23.0518
  31   2.0000      -0.814608       -22.1666
  32   2.0000      -0.779883       -21.2217
  33   2.0000      -0.767961       -20.8973
  34   2.0000      -0.702914       -19.1273
  35   2.0000      -0.701646       -19.0928
  36   2.0000      -0.690102       -18.7786
  37   2.0000      -0.659861       -17.9557
  38   2.0000      -0.647889       -17.6300
  39   2.0000      -0.617974       -16.8159
  40   2.0000      -0.596718       -16.2375
  41   2.0000      -0.566212       -15.4074
  42   2.0000      -0.563749       -15.3404
  43   2.0000      -0.558501       -15.1976
  44   2.0000      -0.533622       -14.5206
  45   2.0000      -0.528013       -14.3680
  46   2.0000      -0.520756       -14.1705
  47   2.0000      -0.516180       -14.0460
  48   2.0000      -0.502912       -13.6849
  49   2.0000      -0.500478       -13.6187
  50   2.0000      -0.496239       -13.5033
  51   2.0000      -0.476886       -12.9767
  52   2.0000      -0.468189       -12.7401
  53   2.0000      -0.463081       -12.6011
  54   2.0000      -0.458737       -12.4829
  55   2.0000      -0.454905       -12.3786
  56   2.0000      -0.448779       -12.2119
  57   2.0000      -0.441781       -12.0215
  58   2.0000      -0.427891       -11.6435
  59   2.0000      -0.419492       -11.4150
  60   2.0000      -0.414080       -11.2677
  61   2.0000      -0.412918       -11.2361
  62   2.0000      -0.410304       -11.1649
  63   2.0000      -0.342108        -9.3092
  64   2.0000      -0.328519        -8.9395
  65   2.0000      -0.326815        -8.8931
  66   2.0000      -0.294783        -8.0214
  67   0.0000       0.029592         0.8052
  68   0.0000       0.064782         1.7628
  69   0.0000       0.110639         3.0107
  70   0.0000       0.119425         3.2497
  71   0.0000       0.127633         3.4731

MULLIKEN ATOMIC CHARGES
-----------------------
   0 S :    0.113643
   1 C :   -0.108890
   2 C :   -0.096230
   3 C :    0.036317
   4 C :   -0.146384
   5 H :    0.009109
   6 C :    0.023198
   7 H :    0.047754
   8 H :    0.028934
   9 C :   -0.065927
  10 H :    0.026075
  11 H :    0.037803
  12 C :   -0.032200
  13 H :    0.035983
  14 H :    0.035845
  15 H :    0.018109
  16 S :    0.093186
  17 C :   -0.071402
  18 C :   -0.046985
  19 C :   -0.042187
  20 C :   -0.162858
  21 H :    0.048140
  22 C :    0.058149
  23 H :    0.035664
  24 H :    0.030735
  25 C :   -0.112578
  26 H :    0.022502
  27 H :    0.016744
  28 C :   -0.008399
  29 H :    0.028426
  30 H :    0.032156
  31 H :    0.045827
  32 H :    0.037594
  33 H :    0.032147
Sum of atomic charges:    0.0000000

LOEWDIN ATOMIC CHARGES
----------------------
   0 S :    0.406965
   1 C :   -0.191167
   2 C :   -0.055901
   3 C :   -0.058266
   4 C :   -0.198533
   5 H :    0.024700
   6 C :   -0.041069
   7 H :    0.038726
   8 H :    0.035591
   9 C :   -0.043897
  10 H :    0.019573
  11 H :    0.033915
  12 C :   -0.070256
  13 H :    0.030045
  14 H :    0.025795
  15 H :    0.024109
  16 S :    0.394218
  17 C :   -0.166367
  18 C :   -0.080709
  19 C :   -0.050936
  20 C :   -0.196258
  21 H :    0.045627
  22 C :   -0.033239
  23 H :    0.028959
  24 H :    0.035807
  25 C :   -0.043702
  26 H :    0.022169
  27 H :    0.015375
  28 C :   -0.062517
  29 H :    0.024591
  30 H :    0.032822
  31 H :    0.025344
  32 H :    0.017184
  33 H :    0.011303

  Mayer bond orders larger than 0.100000
B(  0-S ,  1-C ) :   1.1460 B(  0-S ,  4-C ) :   1.1646 B(  1-C ,  2-C ) :   1.5569
B(  1-C ,  4-C ) :   0.1044 B(  1-C , 32-H ) :   0.9824 B(  2-C ,  3-C ) :   1.2598
B(  2-C ,  6-C ) :   1.0255 B(  3-C ,  4-C ) :   1.5347 B(  3-C ,  5-H ) :   0.9997
B(  4-C , 20-C ) :   1.0401 B(  6-C ,  7-H ) :   0.9505 B(  6-C ,  8-H ) :   0.9407
B(  6-C ,  9-C ) :   1.0468 B(  9-C , 10-H ) :   0.9652 B(  9-C , 11-H ) :   0.9508
B(  9-C , 12-C ) :   1.0718 B( 12-C , 13-H ) :   0.9770 B( 12-C , 14-H ) :   0.9754
B( 12-C , 15-H ) :   0.9705 B( 16-S , 17-C ) :   1.1674 B( 16-S , 20-C ) :   1.1302
B( 17-C , 18-C ) :   1.6110 B( 17-C , 33-H ) :   0.9776 B( 18-C , 19-C ) :   1.2234
B( 18-C , 21-H ) :   0.9804 B( 19-C , 20-C ) :   1.6014 B( 19-C , 22-C ) :   1.0493
B( 22-C , 23-H ) :   0.9312 B( 22-C , 24-H ) :   0.9339 B( 22-C , 25-C ) :   1.0597
B( 25-C , 26-H ) :   0.9581 B( 25-C , 27-H ) :   0.9527 B( 25-C , 28-C ) :   1.0792
B( 28-C , 29-H ) :   0.9724 B( 28-C , 30-H ) :   0.9728 B( 28-C , 31-H ) :   0.9735

Dispersion correction           -0.014189419
FINAL SINGLE POINT ENERGY     -1339.874591551707

DIPOLE MOMENT
-------------
                                X             Y             Z
Electronic contribution:     -3.51733      21.08163      24.50035
Nuclear contribution   :      3.71245     -21.46158     -24.99465
                        -----------------------------------------
Total Dipole Moment    :      0.19511      -0.37995      -0.49430
                        -----------------------------------------
Magnitude (a.u.)       :      0.65327
Magnitude (Debye)      :      1.66048

Rotational constants in cm-1:     0.016690     0.009331     0.006486
Rotational constants in MHz :   500.351620   279.734691   194.434184

                             ****ORCA TERMINATED NORMALLY****
TOTAL RUN TIME: 0 days 0 hours 0 minutes 21 seconds 542 msec
