                         Program Version 4.2.1 -  RELEASE  -
|  1> ! wB97X-D3 SP def2-SVP
|  2> %pal
|  3> nprocs 24
|  4> end
|  5>
|  6> * xyz 0 1
|  7> S 	 -48.7954 	 10.4708 	 -18.657
|  8> C 	 -49.7456 	 9.71216 	 -17.4023
|  9> C 	 -50.4326 	 8.5567 	 -17.8514
| 10> C 	 -50.2638 	 8.30911 	 -19.265
| 11> C 	 -49.4056 	 9.24349 	 -19.8331
| 12> H 	 -50.6545 	 7.55897 	 -19.8866
| 13> C 	 -51.2511 	 7.70662 	 -16.858
| 14> H 	 -52.1687 	 7.23491 	 -17.3842
| 15> H 	 -51.6586 	 8.30887 	 -16.0454
| 16> C 	 -50.4161 	 6.59643 	 -16.2506
| 17> H 	 -51.1412 	 6.03653 	 -15.58
| 18> H 	 -50.0809 	 5.76872 	 -16.9843
| 19> C 	 -49.2944 	 7.06284 	 -15.2969
| 20> H 	 -48.3626 	 7.44018 	 -15.7599
| 21> H 	 -49.6501 	 7.72121 	 -14.581
| 22> H 	 -49.0098 	 6.21265 	 -14.6161
| 23> S 	 -47.3681 	 9.00393 	 -21.643
| 24> C 	 -47.5369 	 9.39734 	 -23.3925
| 25> C 	 -48.8856 	 9.82833 	 -23.548
| 26> C 	 -49.6455 	 9.91336 	 -22.3366
| 27> C 	 -48.9619 	 9.47099 	 -21.1986
| 28> H 	 -49.235 	 10.2091 	 -24.4796
| 29> C 	 -51.1229 	 10.3703 	 -22.4017
| 30> H 	 -51.1002 	 11.4666 	 -22.7086
| 31> H 	 -51.6078 	 10.1535 	 -21.4278
| 32> C 	 -51.9273 	 9.70544 	 -23.5677
| 33> H 	 -51.4452 	 8.73353 	 -23.823
| 34> H 	 -51.7783 	 10.3186 	 -24.4651
| 35> C 	 -53.4119 	 9.65671 	 -23.2709
| 36> H 	 -53.9892 	 9.33746 	 -24.1607
| 37> H 	 -53.8463 	 10.6213 	 -23.0838
| 38> H 	 -53.6736 	 9.01125 	 -22.4378
| 39> H 	 -49.7854 	 10.0921 	 -16.4078
| 40> H 	 -46.817 	 9.39449 	 -24.1651
| 41> *
| 42>
| 43>                          ****END OF INPUT****

CARTESIAN COORDINATES (ANGSTROEM)
---------------------------------
  S    -48.795400   10.470800  -18.657000
  C    -49.745600    9.712160  -17.402300
  C    -50.432600    8.556700  -17.851400
  C    -50.263800    8.309110  -19.265000
  C    -49.405600    9.243490  -19.833100
  H    -50.654500    7.558970  -19.886600
  C    -51.251100    7.706620  -16.858000
  H    -52.168700    7.234910  -17.384200
  H    -51.658600    8.308870  -16.045400
  C    -50.416100    6.596430  -16.250600
  H    -51.141200    6.036530  -15.580000
  H    -50.080900    5.768720  -16.984300
  C    -49.294400    7.062840  -15.296900
  H    -48.362600    7.440180  -15.759900
  H    -49.650100    7.721210  -14.581000
  H    -49.009800    6.212650  -14.616100
  S    -47.368100    9.003930  -21.643000
  C    -47.536900    9.397340  -23.392500
  C    -48.885600    9.828330  -23.548000
  C    -49.645500    9.913360  -22.336600
  C    -48.961900    9.470990  -21.198600
  H    -49.235000   10.209100  -24.479600
  C    -51.122900   10.370300  -22.401700
  H    -51.100200   11.466600  -22.708600
  H    -51.607800   10.153500  -21.427800
  C    -51.927300    9.705440  -23.567700
  H    -51.445200    8.733530  -23.823000
  H    -51.778300   10.318600  -24.465100
  C    -53.411900    9.656710  -23.270900
  H    -53.989200    9.337460  -24.160700
  H    -53.846300   10.621300  -23.083800
  H    -53.673600    9.011250  -22.437800
  H    -49.785400   10.092100  -16.407800
  H    -46.817000    9.394490  -24.165100

 Total Charge           Charge          ....    0
 Multiplicity           Mult            ....    1
 Number of Electrons    NEL             ....  134
 Basis Dimension        Dim             ....  322

ORBITAL ENERGIES
----------------

  NO   OCC          E(Eh)            E(eV)
   0   2.0000     -88.966367     -2420.8979
   1   2.0000     -88.964000     -2420.8335
   2   2.0000     -10.334575      -281.2181
   3   2.0000     -10.324740      -280.9505
   4   2.0000     -10.324693      -280.9492
   5   2.0000     -10.316552      -280.7277
   6   2.0000     -10.309946      -280.5479
   7   2.0000     -10.303671      -280.3771
   8   2.0000     -10.302991      -280.3586
   9   2.0000     -10.301851      -280.3276
  10   2.0000     -10.297471      -280.2084
  11   2.0000     -10.297221      -280.2016
  12   2.0000     -10.295915      -280.1661
  13   2.0000     -10.288412      -279.9619
  14   2.0000     -10.277217      -279.6573
  15   2.0000     -10.276672      -279.6425
  16   2.0000      -8.080413      -219.8792
  17   2.0000      -8.078227      -219.8197
  18   2.0000      -6.038823      -164.3247
  19   2.0000      -6.036852      -164.2711
  20   2.0000      -6.035039      -164.2218
  21   2.0000      -6.032500      -164.1527
  22   2.0000      -6.031300      -164.1200
  23   2.0000      -6.029160      -164.0618
  24   2.0000      -0.999823       -27.2066
  25   2.0000      -0.974844       -26.5269
  26   2.0000      -0.907633       -24.6979
  27   2.0000      -0.902219       -24.5506
  28   2.0000      -0.864542       -23.5254
  29   2.0000      -0.847758       -23.0687
  30   2.0000      -0.843240       -22.9457
  31   2.0000      -0.813147       -22.1268
  32   2.0000      -0.779737       -21.2177
  33   2.0000      -0.766655       -20.8617
  34   2.0000      -0.705066       -19.1858
  35   2.0000      -0.697448       -18.9785
  36   2.0000      -0.686208       -18.6727
  37   2.0000      -0.657118       -17.8811
  38   2.0000      -0.650700       -17.7064
  39   2.0000      -0.616968       -16.7885
  40   2.0000      -0.588572       -16.0159
  41   2.0000      -0.566304       -15.4099
  42   2.0000      -0.565521       -15.3886
  43   2.0000      -0.544080       -14.8052
  44   2.0000      -0.539688       -14.6856
  45   2.0000      -0.525298       -14.2941
  46   2.0000      -0.514942       -14.0123
  47   2.0000      -0.509982       -13.8773
  48   2.0000      -0.506368       -13.7790
  49   2.0000      -0.494404       -13.4534
  50   2.0000      -0.488138       -13.2829
  51   2.0000      -0.483294       -13.1511
  52   2.0000      -0.476507       -12.9664
  53   2.0000      -0.461362       -12.5543
  54   2.0000      -0.456836       -12.4312
  55   2.0000      -0.444083       -12.0841
  56   2.0000      -0.439716       -11.9653
  57   2.0000      -0.432432       -11.7671
  58   2.0000      -0.428109       -11.6494
  59   2.0000      -0.425633       -11.5821
  60   2.0000      -0.415546       -11.3076
  61   2.0000      -0.410771       -11.1776
  62   2.0000      -0.406917       -11.0728
  63   2.0000      -0.341022        -9.2797
  64   2.0000      -0.329015        -8.9530
  65   2.0000      -0.319410        -8.6916
  66   2.0000      -0.301122        -8.1940
  67   0.0000       0.037464         1.0194
  68   0.0000       0.051720         1.4074
  69   0.0000       0.111598         3.0367
  70   0.0000       0.117676         3.2021
  71   0.0000       0.120756         3.2859

MULLIKEN ATOMIC CHARGES
-----------------------
   0 S :    0.110969
   1 C :   -0.100946
   2 C :   -0.091038
   3 C :    0.091323
   4 C :   -0.195832
   5 H :    0.000458
   6 C :    0.045099
   7 H :    0.040272
   8 H :    0.028061
   9 C :   -0.110942
  10 H :    0.030503
  11 H :    0.048465
  12 C :   -0.041168
  13 H :    0.057185
  14 H :    0.004300
  15 H :    0.030426
  16 S :    0.106473
  17 C :   -0.080751
  18 C :   -0.032852
  19 C :   -0.035437
  20 C :   -0.168850
  21 H :    0.011539
  22 C :    0.053468
  23 H :    0.049788
  24 H :    0.042230
  25 C :   -0.107038
  26 H :    0.043218
  27 H :    0.025257
  28 C :   -0.035528
  29 H :    0.031008
  30 H :    0.023128
  31 H :    0.036213
  32 H :    0.041981
  33 H :    0.049016
Sum of atomic charges:    0.0000000

LOEWDIN ATOMIC CHARGES
----------------------
   0 S :    0.392524
   1 C :   -0.190553
   2 C :   -0.060426
   3 C :   -0.043905
   4 C :   -0.174022
   5 H :    0.030327
   6 C :   -0.039466
   7 H :    0.039232
   8 H :    0.029933
   9 C :   -0.052389
  10 H :    0.028463
  11 H :    0.033016
  12 C :   -0.071914
  13 H :    0.030528
  14 H :    0.012288
  15 H :    0.034928
  16 S :    0.409965
  17 C :   -0.170631
  18 C :   -0.067538
  19 C :   -0.061485
  20 C :   -0.230492
  21 H :    0.023784
  22 C :   -0.033960
  23 H :    0.043775
  24 H :    0.031377
  25 C :   -0.048853
  26 H :    0.026129
  27 H :    0.022166
  28 C :   -0.067069
  29 H :    0.030389
  30 H :    0.023853
  31 H :    0.024523
  32 H :    0.020572
  33 H :    0.024932

  Mayer bond orders larger than 0.100000
B(  0-S ,  1-C ) :   1.1479 B(  0-S ,  4-C ) :   1.1493 B(  1-C ,  2-C ) :   1.6080
B(  1-C ,  4-C ) :   0.1052 B(  1-C , 32-H ) :   0.9717 B(  2-C ,  3-C ) :   1.2093
B(  2-C ,  6-C ) :   1.0195 B(  3-C ,  4-C ) :   1.6025 B(  3-C ,  5-H ) :   1.0069
B(  4-C , 20-C ) :   0.9990 B(  6-C ,  7-H ) :   0.9436 B(  6-C ,  8-H ) :   0.9441
B(  6-C ,  9-C ) :   1.0757 B(  9-C , 10-H ) :   0.9532 B(  9-C , 11-H ) :   0.9559
B(  9-C , 12-C ) :   1.0753 B( 12-C , 13-H ) :   0.9737 B( 12-C , 14-H ) :   0.9692
B( 12-C , 15-H ) :   0.9712 B( 16-S , 17-C ) :   1.1570 B( 16-S , 20-C ) :   1.1592
B( 17-C , 18-C ) :   1.5660 B( 17-C , 20-C ) :   0.1099 B( 17-C , 33-H ) :   0.9776
B( 18-C , 19-C ) :   1.2736 B( 18-C , 21-H ) :   0.9871 B( 19-C , 20-C ) :   1.5675
B( 19-C , 22-C ) :   1.0431 B( 22-C , 23-H ) :   0.9293 B( 22-C , 24-H ) :   0.9496
B( 22-C , 25-C ) :   1.0448 B( 25-C , 26-H ) :   0.9645 B( 25-C , 27-H ) :   0.9480
B( 25-C , 28-C ) :   1.0929 B( 28-C , 29-H ) :   0.9714 B( 28-C , 30-H ) :   0.9695
B( 28-C , 31-H ) :   0.9759

Dispersion correction           -0.014115678
FINAL SINGLE POINT ENERGY     -1339.872230800280

DIPOLE MOMENT
-------------
                                X             Y             Z
Electronic contribution:     19.87160       8.26996      -4.40987
Nuclear contribution   :    -20.45038      -8.39399       4.39515
                        -----------------------------------------
Total Dipole Moment    :     -0.57878      -0.12403      -0.01471
                        -----------------------------------------
Magnitude (a.u.)       :      0.59210
Magnitude (Debye)      :      1.50501

Rotational constants in cm-1:     0.019772     0.007897     0.006477
Rotational constants in MHz :   592.762340   236.756015   194.182177

                             ****ORCA TERMINATED NORMALLY****
TOTAL RUN TIME: 0 days 0 hours 0 minutes 21 seconds 242 msec
