                         Program Version 4.2.1 -  RELEASE  -
|  1> ! wB97X-D3 SP def2-SVP
|  2> %pal
|  3> nprocs 24
|  4> end
|  5>
|  6> * xyz 0 1
|  7> S 	 -50.877 	 -47.4578 	 -78.3449
|  8> C 	 -49.4685 	 -48.2403 	 -79.0468
|  9> C 	 -49.8037 	 -49.5693 	 -79.2732
| 10> C 	 -51.127 	 -49.9259 	 -78.8703
| 11> C 	 -51.8828 	 -48.8542 	 -78.4198
| 12> H 	 -51.5764 	 -50.9288 	 -78.8703
| 13> C 	 -48.8754 	 -50.6574 	 -79.9129
| 14> H 	 -48.9942 	 -51.4784 	 -79.2823
| 15> H 	 -47.829 	 -50.2734 	 -79.8064
| 16> C 	 -49.2247 	 -50.9866 	 -81.3608
| 17> H 	 -50.0786 	 -51.6714 	 -81.4705
| 18> H 	 -49.3841 	 -50.0696 	 -81.8328
| 19> C 	 -47.9925 	 -51.7285 	 -82.0937
| 20> H 	 -47.1576 	 -51.0128 	 -82.2572
| 21> H 	 -47.5806 	 -52.5294 	 -81.5026
| 22> H 	 -48.3045 	 -52.2499 	 -83.0019
| 23> S 	 -53.8685 	 -48.37 	 -76.5489
| 24> C 	 -55.501 	 -48.908 	 -76.9457
| 25> C 	 -55.5979 	 -49.3283 	 -78.2703
| 26> C 	 -54.3131 	 -49.3028 	 -78.9662
| 27> C 	 -53.2864 	 -48.834 	 -78.1029
| 28> H 	 -56.5332 	 -49.6175 	 -78.6466
| 29> C 	 -54.1157 	 -49.7564 	 -80.4081
| 30> H 	 -54.1814 	 -50.8433 	 -80.4855
| 31> H 	 -53.1211 	 -49.5555 	 -80.8521
| 32> C 	 -54.9949 	 -49.0354 	 -81.4166
| 33> H 	 -55.1631 	 -47.9677 	 -81.2052
| 34> H 	 -56.0902 	 -49.4941 	 -81.4067
| 35> C 	 -54.4341 	 -49.2349 	 -82.8946
| 36> H 	 -55.029 	 -48.804 	 -83.689
| 37> H 	 -54.3299 	 -50.2944 	 -83.0171
| 38> H 	 -53.4698 	 -48.8467 	 -82.8469
| 39> H 	 -48.4951 	 -47.8565 	 -79.271
| 40> H 	 -56.3173 	 -48.8477 	 -76.263
| 41> *
| 42>
| 43>                          ****END OF INPUT****

CARTESIAN COORDINATES (ANGSTROEM)
---------------------------------
  S    -50.877000  -47.457800  -78.344900
  C    -49.468500  -48.240300  -79.046800
  C    -49.803700  -49.569300  -79.273200
  C    -51.127000  -49.925900  -78.870300
  C    -51.882800  -48.854200  -78.419800
  H    -51.576400  -50.928800  -78.870300
  C    -48.875400  -50.657400  -79.912900
  H    -48.994200  -51.478400  -79.282300
  H    -47.829000  -50.273400  -79.806400
  C    -49.224700  -50.986600  -81.360800
  H    -50.078600  -51.671400  -81.470500
  H    -49.384100  -50.069600  -81.832800
  C    -47.992500  -51.728500  -82.093700
  H    -47.157600  -51.012800  -82.257200
  H    -47.580600  -52.529400  -81.502600
  H    -48.304500  -52.249900  -83.001900
  S    -53.868500  -48.370000  -76.548900
  C    -55.501000  -48.908000  -76.945700
  C    -55.597900  -49.328300  -78.270300
  C    -54.313100  -49.302800  -78.966200
  C    -53.286400  -48.834000  -78.102900
  H    -56.533200  -49.617500  -78.646600
  C    -54.115700  -49.756400  -80.408100
  H    -54.181400  -50.843300  -80.485500
  H    -53.121100  -49.555500  -80.852100
  C    -54.994900  -49.035400  -81.416600
  H    -55.163100  -47.967700  -81.205200
  H    -56.090200  -49.494100  -81.406700
  C    -54.434100  -49.234900  -82.894600
  H    -55.029000  -48.804000  -83.689000
  H    -54.329900  -50.294400  -83.017100
  H    -53.469800  -48.846700  -82.846900
  H    -48.495100  -47.856500  -79.271000
  H    -56.317300  -48.847700  -76.263000

 Total Charge           Charge          ....    0
 Multiplicity           Mult            ....    1
 Number of Electrons    NEL             ....  134
 Basis Dimension        Dim             ....  322

ORBITAL ENERGIES
----------------

  NO   OCC          E(Eh)            E(eV)
   0   2.0000     -88.969436     -2420.9814
   1   2.0000     -88.964303     -2420.8418
   2   2.0000     -10.327712      -281.0313
   3   2.0000     -10.325753      -280.9780
   4   2.0000     -10.320649      -280.8391
   5   2.0000     -10.314233      -280.6645
   6   2.0000     -10.313313      -280.6395
   7   2.0000     -10.301492      -280.3179
   8   2.0000     -10.298728      -280.2426
   9   2.0000     -10.296234      -280.1748
  10   2.0000     -10.294660      -280.1320
  11   2.0000     -10.292995      -280.0866
  12   2.0000     -10.291948      -280.0581
  13   2.0000     -10.289087      -279.9803
  14   2.0000     -10.283297      -279.8227
  15   2.0000     -10.274014      -279.5701
  16   2.0000      -8.084266      -219.9841
  17   2.0000      -8.079256      -219.8477
  18   2.0000      -6.042761      -164.4319
  19   2.0000      -6.038682      -164.3209
  20   2.0000      -6.037768      -164.2960
  21   2.0000      -6.035130      -164.2242
  22   2.0000      -6.033580      -164.1820
  23   2.0000      -6.030129      -164.0881
  24   2.0000      -1.007265       -27.4091
  25   2.0000      -0.982159       -26.7259
  26   2.0000      -0.907235       -24.6871
  27   2.0000      -0.906102       -24.6563
  28   2.0000      -0.869727       -23.6665
  29   2.0000      -0.847881       -23.0720
  30   2.0000      -0.839619       -22.8472
  31   2.0000      -0.813240       -22.1294
  32   2.0000      -0.781225       -21.2582
  33   2.0000      -0.771226       -20.9861
  34   2.0000      -0.707350       -19.2480
  35   2.0000      -0.701226       -19.0813
  36   2.0000      -0.695236       -18.9183
  37   2.0000      -0.658583       -17.9209
  38   2.0000      -0.640496       -17.4288
  39   2.0000      -0.617825       -16.8119
  40   2.0000      -0.600984       -16.3536
  41   2.0000      -0.572568       -15.5804
  42   2.0000      -0.564261       -15.3543
  43   2.0000      -0.560432       -15.2501
  44   2.0000      -0.526464       -14.3258
  45   2.0000      -0.521634       -14.1944
  46   2.0000      -0.518603       -14.1119
  47   2.0000      -0.510127       -13.8813
  48   2.0000      -0.503415       -13.6986
  49   2.0000      -0.501377       -13.6432
  50   2.0000      -0.491415       -13.3721
  51   2.0000      -0.477912       -13.0047
  52   2.0000      -0.471920       -12.8416
  53   2.0000      -0.465613       -12.6700
  54   2.0000      -0.460260       -12.5243
  55   2.0000      -0.453839       -12.3496
  56   2.0000      -0.446731       -12.1562
  57   2.0000      -0.439816       -11.9680
  58   2.0000      -0.437215       -11.8972
  59   2.0000      -0.426716       -11.6115
  60   2.0000      -0.420947       -11.4546
  61   2.0000      -0.407089       -11.0775
  62   2.0000      -0.404534       -11.0079
  63   2.0000      -0.345455        -9.4003
  64   2.0000      -0.330298        -8.9879
  65   2.0000      -0.327870        -8.9218
  66   2.0000      -0.295960        -8.0535
  67   0.0000       0.031921         0.8686
  68   0.0000       0.068953         1.8763
  69   0.0000       0.113847         3.0979
  70   0.0000       0.123236         3.3534
  71   0.0000       0.129679         3.5288

MULLIKEN ATOMIC CHARGES
-----------------------
   0 S :    0.109025
   1 C :   -0.101915
   2 C :   -0.130643
   3 C :    0.026021
   4 C :   -0.161820
   5 H :    0.021334
   6 C :    0.081538
   7 H :    0.016471
   8 H :    0.022927
   9 C :   -0.045032
  10 H :    0.036388
  11 H :    0.026180
  12 C :   -0.078370
  13 H :    0.041075
  14 H :    0.024193
  15 H :    0.036824
  16 S :    0.122037
  17 C :   -0.094531
  18 C :   -0.003618
  19 C :   -0.023405
  20 C :   -0.152547
  21 H :    0.003943
  22 C :    0.061930
  23 H :    0.038322
  24 H :    0.030005
  25 C :   -0.147160
  26 H :    0.048313
  27 H :    0.032901
  28 C :   -0.019570
  29 H :    0.044402
  30 H :    0.021346
  31 H :    0.023837
  32 H :    0.037595
  33 H :    0.052007
Sum of atomic charges:    0.0000000

LOEWDIN ATOMIC CHARGES
----------------------
   0 S :    0.416226
   1 C :   -0.203617
   2 C :   -0.063296
   3 C :   -0.070144
   4 C :   -0.202773
   5 H :    0.035237
   6 C :   -0.024386
   7 H :    0.021180
   8 H :    0.031841
   9 C :   -0.030210
  10 H :    0.026849
  11 H :    0.017373
  12 C :   -0.069892
  13 H :    0.027697
  14 H :    0.020463
  15 H :    0.025711
  16 S :    0.416860
  17 C :   -0.175282
  18 C :   -0.057211
  19 C :   -0.042993
  20 C :   -0.216823
  21 H :    0.023920
  22 C :   -0.042716
  23 H :    0.033640
  24 H :    0.035206
  25 C :   -0.044993
  26 H :    0.025398
  27 H :    0.023986
  28 C :   -0.056271
  29 H :    0.027814
  30 H :    0.022437
  31 H :    0.015937
  32 H :    0.028693
  33 H :    0.024141

  Mayer bond orders larger than 0.100000
B(  0-S ,  1-C ) :   1.1316 B(  0-S ,  4-C ) :   1.1695 B(  1-C ,  2-C ) :   1.6003
B(  1-C ,  4-C ) :   0.1008 B(  1-C , 32-H ) :   0.9753 B(  2-C ,  3-C ) :   1.2464
B(  2-C ,  6-C ) :   1.0161 B(  3-C ,  4-C ) :   1.5542 B(  3-C ,  5-H ) :   0.9968
B(  4-C , 20-C ) :   1.0383 B(  6-C ,  7-H ) :   0.9356 B(  6-C ,  8-H ) :   0.9487
B(  6-C ,  9-C ) :   1.0628 B(  9-C , 10-H ) :   0.9564 B(  9-C , 11-H ) :   0.9615
B(  9-C , 12-C ) :   1.0730 B( 12-C , 13-H ) :   0.9787 B( 12-C , 14-H ) :   0.9770
B( 12-C , 15-H ) :   0.9785 B( 16-S , 17-C ) :   1.1530 B( 16-S , 20-C ) :   1.1530
B( 17-C , 18-C ) :   1.6053 B( 17-C , 33-H ) :   0.9727 B( 18-C , 19-C ) :   1.2270
B( 18-C , 21-H ) :   1.0006 B( 19-C , 20-C ) :   1.5720 B( 19-C , 22-C ) :   1.0445
B( 22-C , 23-H ) :   0.9277 B( 22-C , 24-H ) :   0.9401 B( 22-C , 25-C ) :   1.0409
B( 25-C , 26-H ) :   0.9647 B( 25-C , 27-H ) :   0.9509 B( 25-C , 28-C ) :   1.0720
B( 28-C , 29-H ) :   0.9757 B( 28-C , 30-H ) :   0.9745 B( 28-C , 31-H ) :   0.9766

Dispersion correction           -0.014099491
FINAL SINGLE POINT ENERGY     -1339.874491265598

DIPOLE MOMENT
-------------
                                X             Y             Z
Electronic contribution:     -5.85996      15.17973      27.58039
Nuclear contribution   :      5.79931     -15.69888     -28.06495
                        -----------------------------------------
Total Dipole Moment    :     -0.06065      -0.51915      -0.48455
                        -----------------------------------------
Magnitude (a.u.)       :      0.71273
Magnitude (Debye)      :      1.81162

Rotational constants in cm-1:     0.017415     0.008834     0.006680
Rotational constants in MHz :   522.098800   264.832037   200.264152

                             ****ORCA TERMINATED NORMALLY****
TOTAL RUN TIME: 0 days 0 hours 0 minutes 20 seconds 348 msec
