                         Program Version 4.2.1 -  RELEASE  -
|  1> ! wB97X-D3 SP def2-SVP
|  2> %pal
|  3> nprocs 24
|  4> end
|  5>
|  6> * xyz 0 1
|  7> S 	 -137.907 	 8.44762 	 4.24384
|  8> C 	 -137.398 	 8.78789 	 2.57302
|  9> C 	 -138.473 	 9.25058 	 1.82767
| 10> C 	 -139.681 	 9.34092 	 2.62186
| 11> C 	 -139.534 	 8.96299 	 3.95861
| 12> H 	 -140.642 	 9.59179 	 2.25242
| 13> C 	 -138.296 	 9.53647 	 0.293864
| 14> H 	 -137.727 	 8.71107 	 -0.179071
| 15> H 	 -137.779 	 10.461 	 0.0519708
| 16> C 	 -139.637 	 9.59571 	 -0.518998
| 17> H 	 -140.073 	 8.64308 	 -0.336412
| 18> H 	 -140.337 	 10.3809 	 -0.150831
| 19> C 	 -139.603 	 9.81563 	 -1.98878
| 20> H 	 -139.314 	 10.8613 	 -2.23189
| 21> H 	 -139.118 	 9.01828 	 -2.52192
| 22> H 	 -140.655 	 9.84285 	 -2.47624
| 23> S 	 -141.074 	 6.98755 	 5.15342
| 24> C 	 -142.25 	 7.45262 	 6.28206
| 25> C 	 -142.561 	 8.79411 	 6.15514
| 26> C 	 -141.612 	 9.50105 	 5.40174
| 27> C 	 -140.614 	 8.70688 	 4.87392
| 28> H 	 -143.393 	 9.17179 	 6.7599
| 29> C 	 -141.612 	 10.9856 	 5.18404
| 30> H 	 -142.02 	 11.2054 	 4.20254
| 31> H 	 -140.574 	 11.1526 	 5.22849
| 32> C 	 -142.37 	 11.8411 	 6.23022
| 33> H 	 -142.13 	 11.5493 	 7.20055
| 34> H 	 -143.437 	 11.6963 	 6.09554
| 35> C 	 -142.211 	 13.3316 	 5.89755
| 36> H 	 -142.387 	 13.5769 	 4.85056
| 37> H 	 -141.197 	 13.6325 	 6.23443
| 38> H 	 -142.915 	 13.8683 	 6.64814
| 39> H 	 -136.369 	 8.64967 	 2.09994
| 40> H 	 -142.741 	 6.8672 	 7.03435
| 41> *
| 42>
| 43>                          ****END OF INPUT****

CARTESIAN COORDINATES (ANGSTROEM)
---------------------------------
  S    -137.907000    8.447620    4.243840
  C    -137.398000    8.787890    2.573020
  C    -138.473000    9.250580    1.827670
  C    -139.681000    9.340920    2.621860
  C    -139.534000    8.962990    3.958610
  H    -140.642000    9.591790    2.252420
  C    -138.296000    9.536470    0.293864
  H    -137.727000    8.711070   -0.179071
  H    -137.779000   10.461000    0.051971
  C    -139.637000    9.595710   -0.518998
  H    -140.073000    8.643080   -0.336412
  H    -140.337000   10.380900   -0.150831
  C    -139.603000    9.815630   -1.988780
  H    -139.314000   10.861300   -2.231890
  H    -139.118000    9.018280   -2.521920
  H    -140.655000    9.842850   -2.476240
  S    -141.074000    6.987550    5.153420
  C    -142.250000    7.452620    6.282060
  C    -142.561000    8.794110    6.155140
  C    -141.612000    9.501050    5.401740
  C    -140.614000    8.706880    4.873920
  H    -143.393000    9.171790    6.759900
  C    -141.612000   10.985600    5.184040
  H    -142.020000   11.205400    4.202540
  H    -140.574000   11.152600    5.228490
  C    -142.370000   11.841100    6.230220
  H    -142.130000   11.549300    7.200550
  H    -143.437000   11.696300    6.095540
  C    -142.211000   13.331600    5.897550
  H    -142.387000   13.576900    4.850560
  H    -141.197000   13.632500    6.234430
  H    -142.915000   13.868300    6.648140
  H    -136.369000    8.649670    2.099940
  H    -142.741000    6.867200    7.034350

 Total Charge           Charge          ....    0
 Multiplicity           Mult            ....    1
 Number of Electrons    NEL             ....  134
 Basis Dimension        Dim             ....  322

ORBITAL ENERGIES
----------------

  NO   OCC          E(Eh)            E(eV)
   0   2.0000     -88.968663     -2420.9604
   1   2.0000     -88.960224     -2420.7308
   2   2.0000     -10.328036      -281.0401
   3   2.0000     -10.324311      -280.9388
   4   2.0000     -10.320880      -280.8454
   5   2.0000     -10.310378      -280.5596
   6   2.0000     -10.310189      -280.5545
   7   2.0000     -10.302510      -280.3456
   8   2.0000     -10.298450      -280.2351
   9   2.0000     -10.297990      -280.2225
  10   2.0000     -10.287319      -279.9322
  11   2.0000     -10.286633      -279.9135
  12   2.0000     -10.285276      -279.8766
  13   2.0000     -10.285147      -279.8731
  14   2.0000     -10.282478      -279.8005
  15   2.0000     -10.280459      -279.7455
  16   2.0000      -8.082965      -219.9486
  17   2.0000      -8.075453      -219.7443
  18   2.0000      -6.041533      -164.3985
  19   2.0000      -6.037337      -164.2843
  20   2.0000      -6.033857      -164.1896
  21   2.0000      -6.033797      -164.1880
  22   2.0000      -6.030083      -164.0869
  23   2.0000      -6.026141      -163.9796
  24   2.0000      -1.007111       -27.4049
  25   2.0000      -0.983689       -26.7675
  26   2.0000      -0.911469       -24.8023
  27   2.0000      -0.908688       -24.7266
  28   2.0000      -0.873150       -23.7596
  29   2.0000      -0.852880       -23.2080
  30   2.0000      -0.842990       -22.9389
  31   2.0000      -0.812403       -22.1066
  32   2.0000      -0.782527       -21.2936
  33   2.0000      -0.769133       -20.9292
  34   2.0000      -0.708498       -19.2792
  35   2.0000      -0.704077       -19.1589
  36   2.0000      -0.683877       -18.6092
  37   2.0000      -0.647476       -17.6187
  38   2.0000      -0.640443       -17.4273
  39   2.0000      -0.616636       -16.7795
  40   2.0000      -0.593954       -16.1623
  41   2.0000      -0.578942       -15.7538
  42   2.0000      -0.576539       -15.6884
  43   2.0000      -0.567201       -15.4343
  44   2.0000      -0.528779       -14.3888
  45   2.0000      -0.519174       -14.1274
  46   2.0000      -0.514034       -13.9876
  47   2.0000      -0.507069       -13.7981
  48   2.0000      -0.503472       -13.7002
  49   2.0000      -0.503232       -13.6936
  50   2.0000      -0.492656       -13.4059
  51   2.0000      -0.479791       -13.0558
  52   2.0000      -0.475187       -12.9305
  53   2.0000      -0.468663       -12.7530
  54   2.0000      -0.459227       -12.4962
  55   2.0000      -0.454959       -12.3801
  56   2.0000      -0.444697       -12.1008
  57   2.0000      -0.435681       -11.8555
  58   2.0000      -0.428967       -11.6728
  59   2.0000      -0.422787       -11.5046
  60   2.0000      -0.414485       -11.2787
  61   2.0000      -0.413077       -11.2404
  62   2.0000      -0.403141       -10.9700
  63   2.0000      -0.336744        -9.1633
  64   2.0000      -0.329034        -8.9535
  65   2.0000      -0.326044        -8.8721
  66   2.0000      -0.299497        -8.1497
  67   0.0000       0.025882         0.7043
  68   0.0000       0.064116         1.7447
  69   0.0000       0.115572         3.1449
  70   0.0000       0.126193         3.4339
  71   0.0000       0.129088         3.5127

MULLIKEN ATOMIC CHARGES
-----------------------
   0 S :    0.122369
   1 C :   -0.147278
   2 C :   -0.074943
   3 C :    0.053786
   4 C :   -0.187055
   5 H :    0.000603
   6 C :    0.059358
   7 H :    0.035694
   8 H :    0.039412
   9 C :   -0.115255
  10 H :    0.025282
  11 H :    0.037080
  12 C :   -0.057900
  13 H :    0.033681
  14 H :    0.034113
  15 H :    0.034999
  16 S :    0.109907
  17 C :   -0.071926
  18 C :   -0.070901
  19 C :   -0.033272
  20 C :   -0.160574
  21 H :    0.022306
  22 C :    0.097741
  23 H :    0.031092
  24 H :    0.027102
  25 C :   -0.075723
  26 H :    0.018893
  27 H :    0.025658
  28 C :   -0.060015
  29 H :    0.044243
  30 H :    0.033151
  31 H :    0.042226
  32 H :    0.077143
  33 H :    0.049003
Sum of atomic charges:   -0.0000000

LOEWDIN ATOMIC CHARGES
----------------------
   0 S :    0.414478
   1 C :   -0.198115
   2 C :   -0.065844
   3 C :   -0.047599
   4 C :   -0.216290
   5 H :    0.024171
   6 C :   -0.028734
   7 H :    0.034453
   8 H :    0.028554
   9 C :   -0.053736
  10 H :    0.019357
  11 H :    0.026940
  12 C :   -0.073646
  13 H :    0.027671
  14 H :    0.020752
  15 H :    0.038929
  16 S :    0.406020
  17 C :   -0.191061
  18 C :   -0.085210
  19 C :   -0.051922
  20 C :   -0.196818
  21 H :    0.033700
  22 C :   -0.026403
  23 H :    0.032153
  24 H :    0.029633
  25 C :   -0.037596
  26 H :    0.014952
  27 H :    0.022265
  28 C :   -0.065374
  29 H :    0.026179
  30 H :    0.024935
  31 H :    0.035847
  32 H :    0.048542
  33 H :    0.028815

  Mayer bond orders larger than 0.100000
B(  0-S ,  1-C ) :   1.1469 B(  0-S ,  4-C ) :   1.1541 B(  1-C ,  2-C ) :   1.6119
B(  1-C , 32-H ) :   0.9606 B(  2-C ,  3-C ) :   1.2602 B(  2-C ,  6-C ) :   0.9986
B(  3-C ,  4-C ) :   1.5415 B(  3-C ,  5-H ) :   0.9990 B(  4-C , 20-C ) :   1.0487
B(  6-C ,  7-H ) :   0.9497 B(  6-C ,  8-H ) :   0.9443 B(  6-C ,  9-C ) :   1.0650
B(  9-C , 10-H ) :   0.9569 B(  9-C , 11-H ) :   0.9501 B(  9-C , 12-C ) :   1.1056
B( 12-C , 13-H ) :   0.9700 B( 12-C , 14-H ) :   0.9724 B( 12-C , 15-H ) :   0.9676
B( 16-S , 17-C ) :   1.1793 B( 16-S , 20-C ) :   1.1248 B( 17-C , 18-C ) :   1.5848
B( 17-C , 20-C ) :   0.1064 B( 17-C , 33-H ) :   0.9654 B( 18-C , 19-C ) :   1.2509
B( 18-C , 21-H ) :   0.9906 B( 19-C , 20-C ) :   1.5922 B( 19-C , 22-C ) :   1.0269
B( 22-C , 23-H ) :   0.9202 B( 22-C , 24-H ) :   0.9328 B( 22-C , 25-C ) :   1.0902
B( 25-C , 26-H ) :   0.9594 B( 25-C , 27-H ) :   0.9464 B( 25-C , 28-C ) :   1.0812
B( 28-C , 29-H ) :   0.9721 B( 28-C , 30-H ) :   0.9768 B( 28-C , 31-H ) :   0.9746

Dispersion correction           -0.013356435
FINAL SINGLE POINT ENERGY     -1339.858039884777

DIPOLE MOMENT
-------------
                                X             Y             Z
Electronic contribution:      8.35294     -20.63519      15.34444
Nuclear contribution   :     -8.64983      21.00407     -15.71850
                        -----------------------------------------
Total Dipole Moment    :     -0.29689       0.36888      -0.37406
                        -----------------------------------------
Magnitude (a.u.)       :      0.60344
Magnitude (Debye)      :      1.53382

Rotational constants in cm-1:     0.016415     0.007832     0.006569
Rotational constants in MHz :   492.096461   234.791442   196.947503

                             ****ORCA TERMINATED NORMALLY****
TOTAL RUN TIME: 0 days 0 hours 0 minutes 20 seconds 970 msec
