                         Program Version 4.2.1 -  RELEASE  -
|  1> ! wB97X-D3 SP def2-SVP
|  2> %pal
|  3> nprocs 24
|  4> end
|  5>
|  6> * xyz 0 1
|  7> S 	 -112.342 	 33.9953 	 -117.478
|  8> C 	 -111.399 	 32.6611 	 -118.095
|  9> C 	 -111.886 	 32.2679 	 -119.321
| 10> C 	 -113.092 	 32.9423 	 -119.727
| 11> C 	 -113.458 	 33.99 	 -118.864
| 12> H 	 -113.684 	 32.8271 	 -120.658
| 13> C 	 -111.315 	 31.0379 	 -120.068
| 14> H 	 -110.567 	 30.5689 	 -119.446
| 15> H 	 -110.89 	 31.4247 	 -120.977
| 16> C 	 -112.444 	 30.077 	 -120.576
| 17> H 	 -112.944 	 29.8 	 -119.601
| 18> H 	 -113.129 	 30.6269 	 -121.273
| 19> C 	 -111.752 	 28.8425 	 -121.253
| 20> H 	 -112.387 	 28.0308 	 -121.528
| 21> H 	 -111.279 	 29.1506 	 -122.205
| 22> H 	 -110.806 	 28.4557 	 -120.713
| 23> S 	 -114.146 	 36.5985 	 -119.504
| 24> C 	 -115.742 	 37.1597 	 -119.564
| 25> C 	 -116.606 	 36.1226 	 -119.278
| 26> C 	 -115.937 	 34.8764 	 -118.982
| 27> C 	 -114.542 	 34.9598 	 -119.029
| 28> H 	 -117.674 	 36.2688 	 -119.372
| 29> C 	 -116.771 	 33.6303 	 -118.664
| 30> H 	 -117.724 	 33.9196 	 -118.267
| 31> H 	 -116.523 	 33.1487 	 -117.703
| 32> C 	 -116.818 	 32.6174 	 -119.754
| 33> H 	 -117.381 	 31.7782 	 -119.44
| 34> H 	 -115.808 	 32.1789 	 -119.838
| 35> C 	 -117.438 	 33.1375 	 -121.028
| 36> H 	 -118.445 	 33.3101 	 -120.86
| 37> H 	 -117.446 	 32.4609 	 -121.834
| 38> H 	 -117.028 	 34.1563 	 -121.391
| 39> H 	 -110.564 	 32.151 	 -117.561
| 40> H 	 -116.076 	 38.1933 	 -119.629
| 41> *
| 42>
| 43>                          ****END OF INPUT****

CARTESIAN COORDINATES (ANGSTROEM)
---------------------------------
  S    -112.342000   33.995300  -117.478000
  C    -111.399000   32.661100  -118.095000
  C    -111.886000   32.267900  -119.321000
  C    -113.092000   32.942300  -119.727000
  C    -113.458000   33.990000  -118.864000
  H    -113.684000   32.827100  -120.658000
  C    -111.315000   31.037900  -120.068000
  H    -110.567000   30.568900  -119.446000
  H    -110.890000   31.424700  -120.977000
  C    -112.444000   30.077000  -120.576000
  H    -112.944000   29.800000  -119.601000
  H    -113.129000   30.626900  -121.273000
  C    -111.752000   28.842500  -121.253000
  H    -112.387000   28.030800  -121.528000
  H    -111.279000   29.150600  -122.205000
  H    -110.806000   28.455700  -120.713000
  S    -114.146000   36.598500  -119.504000
  C    -115.742000   37.159700  -119.564000
  C    -116.606000   36.122600  -119.278000
  C    -115.937000   34.876400  -118.982000
  C    -114.542000   34.959800  -119.029000
  H    -117.674000   36.268800  -119.372000
  C    -116.771000   33.630300  -118.664000
  H    -117.724000   33.919600  -118.267000
  H    -116.523000   33.148700  -117.703000
  C    -116.818000   32.617400  -119.754000
  H    -117.381000   31.778200  -119.440000
  H    -115.808000   32.178900  -119.838000
  C    -117.438000   33.137500  -121.028000
  H    -118.445000   33.310100  -120.860000
  H    -117.446000   32.460900  -121.834000
  H    -117.028000   34.156300  -121.391000
  H    -110.564000   32.151000  -117.561000
  H    -116.076000   38.193300  -119.629000

 Total Charge           Charge          ....    0
 Multiplicity           Mult            ....    1
 Number of Electrons    NEL             ....  134
 Basis Dimension        Dim             ....  322

ORBITAL ENERGIES
----------------

  NO   OCC          E(Eh)            E(eV)
   0   2.0000     -88.965816     -2420.8829
   1   2.0000     -88.962616     -2420.7958
   2   2.0000     -10.336570      -281.2724
   3   2.0000     -10.328949      -281.0650
   4   2.0000     -10.318836      -280.7898
   5   2.0000     -10.314554      -280.6733
   6   2.0000     -10.307338      -280.4769
   7   2.0000     -10.303737      -280.3789
   8   2.0000     -10.303461      -280.3714
   9   2.0000     -10.302071      -280.3336
  10   2.0000     -10.293003      -280.0868
  11   2.0000     -10.292270      -280.0669
  12   2.0000     -10.288201      -279.9562
  13   2.0000     -10.284947      -279.8676
  14   2.0000     -10.277776      -279.6725
  15   2.0000     -10.268525      -279.4208
  16   2.0000      -8.080028      -219.8687
  17   2.0000      -8.078417      -219.8249
  18   2.0000      -6.038577      -164.3180
  19   2.0000      -6.036849      -164.2710
  20   2.0000      -6.034442      -164.2055
  21   2.0000      -6.032496      -164.1526
  22   2.0000      -6.030918      -164.1096
  23   2.0000      -6.029444      -164.0695
  24   2.0000      -1.005571       -27.3630
  25   2.0000      -0.984618       -26.7928
  26   2.0000      -0.914860       -24.8946
  27   2.0000      -0.905434       -24.6381
  28   2.0000      -0.869264       -23.6539
  29   2.0000      -0.845186       -22.9987
  30   2.0000      -0.839872       -22.8541
  31   2.0000      -0.814607       -22.1666
  32   2.0000      -0.785902       -21.3855
  33   2.0000      -0.770786       -20.9742
  34   2.0000      -0.713341       -19.4110
  35   2.0000      -0.699316       -19.0294
  36   2.0000      -0.686076       -18.6691
  37   2.0000      -0.658482       -17.9182
  38   2.0000      -0.641426       -17.4541
  39   2.0000      -0.616181       -16.7671
  40   2.0000      -0.597583       -16.2611
  41   2.0000      -0.570508       -15.5243
  42   2.0000      -0.563994       -15.3470
  43   2.0000      -0.554040       -15.0762
  44   2.0000      -0.546212       -14.8632
  45   2.0000      -0.521159       -14.1815
  46   2.0000      -0.514779       -14.0079
  47   2.0000      -0.510253       -13.8847
  48   2.0000      -0.505222       -13.7478
  49   2.0000      -0.491606       -13.3773
  50   2.0000      -0.487430       -13.2636
  51   2.0000      -0.478067       -13.0089
  52   2.0000      -0.476686       -12.9713
  53   2.0000      -0.471833       -12.8392
  54   2.0000      -0.456774       -12.4295
  55   2.0000      -0.449420       -12.2293
  56   2.0000      -0.442611       -12.0441
  57   2.0000      -0.436830       -11.8867
  58   2.0000      -0.427744       -11.6395
  59   2.0000      -0.418889       -11.3985
  60   2.0000      -0.417681       -11.3657
  61   2.0000      -0.413699       -11.2573
  62   2.0000      -0.404321       -11.0021
  63   2.0000      -0.336881        -9.1670
  64   2.0000      -0.329168        -8.9571
  65   2.0000      -0.325204        -8.8492
  66   2.0000      -0.307559        -8.3691
  67   0.0000       0.037000         1.0068
  68   0.0000       0.058058         1.5798
  69   0.0000       0.122249         3.3266
  70   0.0000       0.127626         3.4729
  71   0.0000       0.129225         3.5164

MULLIKEN ATOMIC CHARGES
-----------------------
   0 S :    0.114502
   1 C :   -0.138407
   2 C :   -0.091547
   3 C :    0.042976
   4 C :   -0.179767
   5 H :    0.039414
   6 C :    0.075132
   7 H :    0.020276
   8 H :    0.027547
   9 C :   -0.123315
  10 H :    0.051700
  11 H :    0.054779
  12 C :   -0.055348
  13 H :    0.038909
  14 H :    0.022126
  15 H :    0.038432
  16 S :    0.116598
  17 C :   -0.087988
  18 C :   -0.054576
  19 C :   -0.029967
  20 C :   -0.174671
  21 H :    0.021323
  22 C :    0.073110
  23 H :   -0.004608
  24 H :    0.022403
  25 C :   -0.026906
  26 H :    0.009452
  27 H :    0.019489
  28 C :   -0.024677
  29 H :    0.002483
  30 H :    0.017922
  31 H :    0.048396
  32 H :    0.068700
  33 H :    0.066109
Sum of atomic charges:    0.0000000

LOEWDIN ATOMIC CHARGES
----------------------
   0 S :    0.400556
   1 C :   -0.205603
   2 C :   -0.069593
   3 C :   -0.060581
   4 C :   -0.191638
   5 H :    0.038696
   6 C :   -0.025019
   7 H :    0.025007
   8 H :    0.027603
   9 C :   -0.043121
  10 H :    0.030958
  11 H :    0.030106
  12 C :   -0.077424
  13 H :    0.020603
  14 H :    0.026311
  15 H :    0.035705
  16 S :    0.437030
  17 C :   -0.205862
  18 C :   -0.080652
  19 C :   -0.047523
  20 C :   -0.211545
  21 H :    0.030155
  22 C :   -0.038813
  23 H :    0.024326
  24 H :    0.038120
  25 C :   -0.040686
  26 H :    0.021910
  27 H :    0.024786
  28 C :   -0.063854
  29 H :    0.015742
  30 H :    0.018589
  31 H :    0.036724
  32 H :    0.041473
  33 H :    0.037512

  Mayer bond orders larger than 0.100000
B(  0-S ,  1-C ) :   1.1394 B(  0-S ,  4-C ) :   1.1546 B(  1-C ,  2-C ) :   1.6162
B(  1-C ,  4-C ) :   0.1002 B(  1-C , 32-H ) :   0.9625 B(  2-C ,  3-C ) :   1.2327
B(  2-C ,  6-C ) :   1.0185 B(  3-C ,  4-C ) :   1.5841 B(  3-C ,  5-H ) :   0.9762
B(  4-C , 20-C ) :   1.0282 B(  6-C ,  7-H ) :   0.9538 B(  6-C ,  8-H ) :   0.9309
B(  6-C ,  9-C ) :   1.0533 B(  9-C , 10-H ) :   0.9642 B(  9-C , 11-H ) :   0.9494
B(  9-C , 12-C ) :   1.0681 B( 12-C , 13-H ) :   0.9769 B( 12-C , 14-H ) :   0.9718
B( 12-C , 15-H ) :   0.9747 B( 16-S , 17-C ) :   1.1878 B( 16-S , 20-C ) :   1.1564
B( 17-C , 18-C ) :   1.5715 B( 17-C , 33-H ) :   0.9652 B( 18-C , 19-C ) :   1.2708
B( 18-C , 21-H ) :   0.9915 B( 19-C , 20-C ) :   1.5703 B( 19-C , 22-C ) :   1.0342
B( 22-C , 23-H ) :   0.9305 B( 22-C , 24-H ) :   0.9276 B( 22-C , 25-C ) :   1.0859
B( 25-C , 26-H ) :   0.9424 B( 25-C , 27-H ) :   0.9504 B( 25-C , 28-C ) :   1.0734
B( 28-C , 29-H ) :   0.9678 B( 28-C , 30-H ) :   0.9719 B( 28-C , 31-H ) :   0.9733

Dispersion correction           -0.014929003
FINAL SINGLE POINT ENERGY     -1339.872071409028

DIPOLE MOMENT
-------------
                                X             Y             Z
Electronic contribution:      7.70072      24.92438      13.01933
Nuclear contribution   :     -7.99095     -25.44016     -13.26774
                        -----------------------------------------
Total Dipole Moment    :     -0.29024      -0.51578      -0.24841
                        -----------------------------------------
Magnitude (a.u.)       :      0.64185
Magnitude (Debye)      :      1.63145

Rotational constants in cm-1:     0.019089     0.008848     0.006862
Rotational constants in MHz :   572.288812   265.266688   205.705996

                             ****ORCA TERMINATED NORMALLY****
TOTAL RUN TIME: 0 days 0 hours 0 minutes 21 seconds 955 msec
