                         Program Version 4.2.1 -  RELEASE  -
|  1> ! wB97X-D3 SP def2-SVP
|  2> %pal
|  3> nprocs 24
|  4> end
|  5>
|  6> * xyz 0 1
|  7> S 	 -120.424 	 60.1152 	 -39.1973
|  8> C 	 -121.717 	 59.0571 	 -39.6391
|  9> C 	 -122.301 	 58.4984 	 -38.5076
| 10> C 	 -121.723 	 58.9707 	 -37.2708
| 11> C 	 -120.545 	 59.7012 	 -37.5143
| 12> H 	 -121.939 	 58.7557 	 -36.2358
| 13> C 	 -123.597 	 57.7459 	 -38.5111
| 14> H 	 -124.325 	 58.0788 	 -39.2696
| 15> H 	 -124.138 	 57.9731 	 -37.53
| 16> C 	 -123.357 	 56.2122 	 -38.7382
| 17> H 	 -124.246 	 55.7021 	 -38.8579
| 18> H 	 -122.847 	 56.0409 	 -39.7029
| 19> C 	 -122.692 	 55.4491 	 -37.5394
| 20> H 	 -123.245 	 55.5174 	 -36.7014
| 21> H 	 -122.618 	 54.328 	 -37.6757
| 22> H 	 -121.669 	 55.7598 	 -37.305
| 23> S 	 -117.847 	 59.6187 	 -36.8249
| 24> C 	 -117.366 	 60.1972 	 -35.2233
| 25> C 	 -118.438 	 60.7608 	 -34.5961
| 26> C 	 -119.688 	 60.6787 	 -35.296
| 27> C 	 -119.552 	 60.0743 	 -36.5226
| 28> H 	 -118.137 	 61.2014 	 -33.6629
| 29> C 	 -120.833 	 61.4737 	 -34.7297
| 30> H 	 -121.76 	 61.3481 	 -35.3118
| 31> H 	 -120.567 	 62.5191 	 -34.9315
| 32> C 	 -121.181 	 61.1465 	 -33.2626
| 33> H 	 -122.074 	 61.73 	 -32.9189
| 34> H 	 -120.34 	 61.5062 	 -32.6216
| 35> C 	 -121.525 	 59.6303 	 -33.1394
| 36> H 	 -122.201 	 59.4488 	 -33.9982
| 37> H 	 -121.996 	 59.4317 	 -32.2684
| 38> H 	 -120.647 	 59.0165 	 -33.1965
| 39> H 	 -122.089 	 58.8211 	 -40.638
| 40> H 	 -116.407 	 60.1822 	 -34.7696
| 41> *
| 42>
| 43>                          ****END OF INPUT****

CARTESIAN COORDINATES (ANGSTROEM)
---------------------------------
  S    -120.424000   60.115200  -39.197300
  C    -121.717000   59.057100  -39.639100
  C    -122.301000   58.498400  -38.507600
  C    -121.723000   58.970700  -37.270800
  C    -120.545000   59.701200  -37.514300
  H    -121.939000   58.755700  -36.235800
  C    -123.597000   57.745900  -38.511100
  H    -124.325000   58.078800  -39.269600
  H    -124.138000   57.973100  -37.530000
  C    -123.357000   56.212200  -38.738200
  H    -124.246000   55.702100  -38.857900
  H    -122.847000   56.040900  -39.702900
  C    -122.692000   55.449100  -37.539400
  H    -123.245000   55.517400  -36.701400
  H    -122.618000   54.328000  -37.675700
  H    -121.669000   55.759800  -37.305000
  S    -117.847000   59.618700  -36.824900
  C    -117.366000   60.197200  -35.223300
  C    -118.438000   60.760800  -34.596100
  C    -119.688000   60.678700  -35.296000
  C    -119.552000   60.074300  -36.522600
  H    -118.137000   61.201400  -33.662900
  C    -120.833000   61.473700  -34.729700
  H    -121.760000   61.348100  -35.311800
  H    -120.567000   62.519100  -34.931500
  C    -121.181000   61.146500  -33.262600
  H    -122.074000   61.730000  -32.918900
  H    -120.340000   61.506200  -32.621600
  C    -121.525000   59.630300  -33.139400
  H    -122.201000   59.448800  -33.998200
  H    -121.996000   59.431700  -32.268400
  H    -120.647000   59.016500  -33.196500
  H    -122.089000   58.821100  -40.638000
  H    -116.407000   60.182200  -34.769600

 Total Charge           Charge          ....    0
 Multiplicity           Mult            ....    1
 Number of Electrons    NEL             ....  134
 Basis Dimension        Dim             ....  322

ORBITAL ENERGIES
----------------

  NO   OCC          E(Eh)            E(eV)
   0   2.0000     -88.968412     -2420.9536
   1   2.0000     -88.963050     -2420.8077
   2   2.0000     -10.329675      -281.0847
   3   2.0000     -10.328867      -281.0628
   4   2.0000     -10.314882      -280.6822
   5   2.0000     -10.313842      -280.6539
   6   2.0000     -10.304718      -280.4056
   7   2.0000     -10.302023      -280.3323
   8   2.0000     -10.298476      -280.2358
   9   2.0000     -10.296566      -280.1838
  10   2.0000     -10.294963      -280.1402
  11   2.0000     -10.292800      -280.0813
  12   2.0000     -10.289660      -279.9959
  13   2.0000     -10.284753      -279.8624
  14   2.0000     -10.272628      -279.5324
  15   2.0000     -10.270770      -279.4819
  16   2.0000      -8.083388      -219.9602
  17   2.0000      -8.077031      -219.7872
  18   2.0000      -6.041886      -164.4081
  19   2.0000      -6.037769      -164.2960
  20   2.0000      -6.035735      -164.2407
  21   2.0000      -6.034240      -164.2000
  22   2.0000      -6.031682      -164.1304
  23   2.0000      -6.027576      -164.0187
  24   2.0000      -1.005387       -27.3580
  25   2.0000      -0.983328       -26.7577
  26   2.0000      -0.909188       -24.7403
  27   2.0000      -0.905013       -24.6266
  28   2.0000      -0.869665       -23.6648
  29   2.0000      -0.846976       -23.0474
  30   2.0000      -0.842135       -22.9157
  31   2.0000      -0.816053       -22.2059
  32   2.0000      -0.782898       -21.3037
  33   2.0000      -0.773704       -21.0536
  34   2.0000      -0.709310       -19.3013
  35   2.0000      -0.706296       -19.2193
  36   2.0000      -0.695314       -18.9205
  37   2.0000      -0.656940       -17.8762
  38   2.0000      -0.640631       -17.4325
  39   2.0000      -0.612366       -16.6633
  40   2.0000      -0.595682       -16.2093
  41   2.0000      -0.573246       -15.5988
  42   2.0000      -0.563194       -15.3253
  43   2.0000      -0.543533       -14.7903
  44   2.0000      -0.540255       -14.7011
  45   2.0000      -0.535128       -14.5616
  46   2.0000      -0.517790       -14.0898
  47   2.0000      -0.509608       -13.8671
  48   2.0000      -0.505867       -13.7653
  49   2.0000      -0.492461       -13.4006
  50   2.0000      -0.487918       -13.2769
  51   2.0000      -0.478018       -13.0075
  52   2.0000      -0.466527       -12.6949
  53   2.0000      -0.465864       -12.6768
  54   2.0000      -0.459378       -12.5003
  55   2.0000      -0.446182       -12.1412
  56   2.0000      -0.443424       -12.0662
  57   2.0000      -0.436542       -11.8789
  58   2.0000      -0.431310       -11.7365
  59   2.0000      -0.424166       -11.5421
  60   2.0000      -0.420047       -11.4301
  61   2.0000      -0.417548       -11.3621
  62   2.0000      -0.414907       -11.2902
  63   2.0000      -0.347644        -9.4599
  64   2.0000      -0.329342        -8.9619
  65   2.0000      -0.327346        -8.9075
  66   2.0000      -0.292066        -7.9475
  67   0.0000       0.029256         0.7961
  68   0.0000       0.069222         1.8836
  69   0.0000       0.106763         2.9052
  70   0.0000       0.121042         3.2937
  71   0.0000       0.129075         3.5123

MULLIKEN ATOMIC CHARGES
-----------------------
   0 S :    0.128114
   1 C :   -0.107858
   2 C :   -0.068551
   3 C :    0.056390
   4 C :   -0.184432
   5 H :   -0.001242
   6 C :    0.001819
   7 H :    0.035559
   8 H :    0.037922
   9 C :   -0.033209
  10 H :    0.007186
  11 H :    0.029542
  12 C :   -0.050932
  13 H :    0.003050
  14 H :    0.031955
  15 H :    0.040635
  16 S :    0.096577
  17 C :   -0.085653
  18 C :   -0.045389
  19 C :   -0.005685
  20 C :   -0.150520
  21 H :    0.014264
  22 C :    0.040850
  23 H :    0.021310
  24 H :    0.049060
  25 C :   -0.115168
  26 H :    0.038738
  27 H :    0.036234
  28 C :   -0.000625
  29 H :    0.030058
  30 H :    0.011192
  31 H :    0.043503
  32 H :    0.050889
  33 H :    0.044415
Sum of atomic charges:   -0.0000000

LOEWDIN ATOMIC CHARGES
----------------------
   0 S :    0.426517
   1 C :   -0.208493
   2 C :   -0.064421
   3 C :   -0.057367
   4 C :   -0.200043
   5 H :    0.027947
   6 C :   -0.036848
   7 H :    0.032019
   8 H :    0.037340
   9 C :   -0.032810
  10 H :    0.012065
  11 H :    0.026529
  12 C :   -0.063960
  13 H :    0.005945
  14 H :    0.033987
  15 H :    0.026161
  16 S :    0.375445
  17 C :   -0.170106
  18 C :   -0.072440
  19 C :   -0.058128
  20 C :   -0.185648
  21 H :    0.030906
  22 C :   -0.036610
  23 H :    0.027924
  24 H :    0.039042
  25 C :   -0.042199
  26 H :    0.028848
  27 H :    0.021349
  28 C :   -0.050271
  29 H :    0.028908
  30 H :    0.010137
  31 H :    0.027803
  32 H :    0.033458
  33 H :    0.027012

  Mayer bond orders larger than 0.100000
B(  0-S ,  1-C ) :   1.1402 B(  0-S ,  4-C ) :   1.1694 B(  1-C ,  2-C ) :   1.6011
B(  1-C , 32-H ) :   0.9662 B(  2-C ,  3-C ) :   1.2435 B(  2-C ,  6-C ) :   1.0144
B(  3-C ,  4-C ) :   1.5525 B(  3-C ,  5-H ) :   0.9916 B(  4-C , 20-C ) :   1.0461
B(  6-C ,  7-H ) :   0.9499 B(  6-C ,  8-H ) :   0.9531 B(  6-C ,  9-C ) :   1.0630
B(  9-C , 10-H ) :   0.9553 B(  9-C , 11-H ) :   0.9596 B(  9-C , 12-C ) :   1.0678
B( 12-C , 13-H ) :   0.9756 B( 12-C , 14-H ) :   0.9751 B( 12-C , 15-H ) :   0.9776
B( 16-S , 17-C ) :   1.1310 B( 16-S , 20-C ) :   1.1186 B( 17-C , 18-C ) :   1.6707
B( 17-C , 33-H ) :   0.9684 B( 18-C , 19-C ) :   1.1752 B( 18-C , 21-H ) :   0.9908
B( 19-C , 20-C ) :   1.6236 B( 19-C , 22-C ) :   1.0347 B( 22-C , 23-H ) :   0.9358
B( 22-C , 24-H ) :   0.9417 B( 22-C , 25-C ) :   1.0654 B( 25-C , 26-H ) :   0.9591
B( 25-C , 27-H ) :   0.9548 B( 25-C , 28-C ) :   1.0651 B( 28-C , 29-H ) :   0.9722
B( 28-C , 30-H ) :   0.9709 B( 28-C , 31-H ) :   0.9716

Dispersion correction           -0.015117421
FINAL SINGLE POINT ENERGY     -1339.867337637231

DIPOLE MOMENT
-------------
                                X             Y             Z
Electronic contribution:     18.79818      10.73280     -13.88970
Nuclear contribution   :    -19.25559     -10.72682      14.37339
                        -----------------------------------------
Total Dipole Moment    :     -0.45740       0.00598       0.48368
                        -----------------------------------------
Magnitude (a.u.)       :      0.66574
Magnitude (Debye)      :      1.69217

Rotational constants in cm-1:     0.018503     0.008997     0.007442
Rotational constants in MHz :   554.707709   269.714633   223.109481

                             ****ORCA TERMINATED NORMALLY****
TOTAL RUN TIME: 0 days 0 hours 0 minutes 22 seconds 116 msec
