                         Program Version 4.2.1 -  RELEASE  -
|  1> ! wB97X-D3 SP def2-SVP
|  2> %pal
|  3> nprocs 24
|  4> end
|  5>
|  6> * xyz 0 1
|  7> S 	 -56.726 	 18.5173 	 -90.4816
|  8> C 	 -55.739 	 19.3189 	 -89.2463
|  9> C 	 -55.2471 	 18.4157 	 -88.3235
| 10> C 	 -55.8451 	 17.0915 	 -88.5513
| 11> C 	 -56.6378 	 17.0007 	 -89.7109
| 12> H 	 -55.741 	 16.2638 	 -87.9388
| 13> C 	 -54.3786 	 18.644 	 -87.1545
| 14> H 	 -54.5948 	 17.7943 	 -86.4228
| 15> H 	 -54.6127 	 19.6505 	 -86.829
| 16> C 	 -52.8902 	 18.5746 	 -87.4581
| 17> H 	 -52.7157 	 18.9803 	 -88.4696
| 18> H 	 -52.4076 	 19.3143 	 -86.8502
| 19> C 	 -52.3435 	 17.1584 	 -87.2181
| 20> H 	 -52.6252 	 16.643 	 -86.2774
| 21> H 	 -52.6567 	 16.4057 	 -87.9464
| 22> H 	 -51.2583 	 17.1479 	 -87.2316
| 23> S 	 -59.1073 	 15.9478 	 -90.3841
| 24> C 	 -59.2034 	 14.2809 	 -90.8541
| 25> C 	 -58.0266 	 13.611 	 -90.6388
| 26> C 	 -56.9643 	 14.4891 	 -90.3208
| 27> C 	 -57.3861 	 15.8146 	 -90.1458
| 28> H 	 -57.9845 	 12.4888 	 -90.8346
| 29> C 	 -55.5255 	 14.0355 	 -90.0643
| 30> H 	 -55.5209 	 12.9908 	 -89.9406
| 31> H 	 -55.0375 	 14.5418 	 -89.1015
| 32> C 	 -54.6196 	 14.4644 	 -91.1889
| 33> H 	 -54.5907 	 15.5726 	 -91.3549
| 34> H 	 -54.883 	 14.0074 	 -92.1401
| 35> C 	 -53.2105 	 13.9725 	 -90.9675
| 36> H 	 -53.0636 	 12.8657 	 -90.9895
| 37> H 	 -52.908 	 13.99 	 -89.9611
| 38> H 	 -52.3468 	 14.4341 	 -91.5147
| 39> H 	 -55.4244 	 20.3727 	 -89.198
| 40> H 	 -60.1484 	 13.781 	 -91.1967
| 41> *
| 42>
| 43>                          ****END OF INPUT****

CARTESIAN COORDINATES (ANGSTROEM)
---------------------------------
  S    -56.726000   18.517300  -90.481600
  C    -55.739000   19.318900  -89.246300
  C    -55.247100   18.415700  -88.323500
  C    -55.845100   17.091500  -88.551300
  C    -56.637800   17.000700  -89.710900
  H    -55.741000   16.263800  -87.938800
  C    -54.378600   18.644000  -87.154500
  H    -54.594800   17.794300  -86.422800
  H    -54.612700   19.650500  -86.829000
  C    -52.890200   18.574600  -87.458100
  H    -52.715700   18.980300  -88.469600
  H    -52.407600   19.314300  -86.850200
  C    -52.343500   17.158400  -87.218100
  H    -52.625200   16.643000  -86.277400
  H    -52.656700   16.405700  -87.946400
  H    -51.258300   17.147900  -87.231600
  S    -59.107300   15.947800  -90.384100
  C    -59.203400   14.280900  -90.854100
  C    -58.026600   13.611000  -90.638800
  C    -56.964300   14.489100  -90.320800
  C    -57.386100   15.814600  -90.145800
  H    -57.984500   12.488800  -90.834600
  C    -55.525500   14.035500  -90.064300
  H    -55.520900   12.990800  -89.940600
  H    -55.037500   14.541800  -89.101500
  C    -54.619600   14.464400  -91.188900
  H    -54.590700   15.572600  -91.354900
  H    -54.883000   14.007400  -92.140100
  C    -53.210500   13.972500  -90.967500
  H    -53.063600   12.865700  -90.989500
  H    -52.908000   13.990000  -89.961100
  H    -52.346800   14.434100  -91.514700
  H    -55.424400   20.372700  -89.198000
  H    -60.148400   13.781000  -91.196700

 Total Charge           Charge          ....    0
 Multiplicity           Mult            ....    1
 Number of Electrons    NEL             ....  134
 Basis Dimension        Dim             ....  322

ORBITAL ENERGIES
----------------

  NO   OCC          E(Eh)            E(eV)
   0   2.0000     -88.968521     -2420.9565
   1   2.0000     -88.967599     -2420.9314
   2   2.0000     -10.329093      -281.0689
   3   2.0000     -10.326965      -281.0110
   4   2.0000     -10.319117      -280.7975
   5   2.0000     -10.316427      -280.7243
   6   2.0000     -10.304805      -280.4080
   7   2.0000     -10.301197      -280.3098
   8   2.0000     -10.299152      -280.2542
   9   2.0000     -10.297472      -280.2085
  10   2.0000     -10.293037      -280.0878
  11   2.0000     -10.290785      -280.0265
  12   2.0000     -10.288333      -279.9598
  13   2.0000     -10.282785      -279.8088
  14   2.0000     -10.282339      -279.7967
  15   2.0000     -10.271629      -279.5052
  16   2.0000      -8.083299      -219.9577
  17   2.0000      -8.082660      -219.9404
  18   2.0000      -6.041901      -164.4085
  19   2.0000      -6.041029      -164.3847
  20   2.0000      -6.037670      -164.2934
  21   2.0000      -6.037118      -164.2783
  22   2.0000      -6.034082      -164.1957
  23   2.0000      -6.033552      -164.1813
  24   2.0000      -1.008130       -27.4326
  25   2.0000      -0.985472       -26.8160
  26   2.0000      -0.920086       -25.0368
  27   2.0000      -0.912869       -24.8404
  28   2.0000      -0.868009       -23.6197
  29   2.0000      -0.851492       -23.1703
  30   2.0000      -0.844300       -22.9746
  31   2.0000      -0.811426       -22.0800
  32   2.0000      -0.783842       -21.3294
  33   2.0000      -0.771192       -20.9852
  34   2.0000      -0.710474       -19.3330
  35   2.0000      -0.705887       -19.2081
  36   2.0000      -0.690219       -18.7818
  37   2.0000      -0.659054       -17.9338
  38   2.0000      -0.638133       -17.3645
  39   2.0000      -0.615412       -16.7462
  40   2.0000      -0.593978       -16.1630
  41   2.0000      -0.574127       -15.6228
  42   2.0000      -0.563787       -15.3414
  43   2.0000      -0.558754       -15.2045
  44   2.0000      -0.537132       -14.6161
  45   2.0000      -0.523212       -14.2373
  46   2.0000      -0.512294       -13.9402
  47   2.0000      -0.509454       -13.8629
  48   2.0000      -0.502044       -13.6613
  49   2.0000      -0.496790       -13.5183
  50   2.0000      -0.490576       -13.3493
  51   2.0000      -0.482676       -13.1343
  52   2.0000      -0.473671       -12.8892
  53   2.0000      -0.463061       -12.6005
  54   2.0000      -0.456234       -12.4148
  55   2.0000      -0.447813       -12.1856
  56   2.0000      -0.441627       -12.0173
  57   2.0000      -0.439645       -11.9634
  58   2.0000      -0.435859       -11.8603
  59   2.0000      -0.427339       -11.6285
  60   2.0000      -0.422207       -11.4888
  61   2.0000      -0.414875       -11.2893
  62   2.0000      -0.404935       -11.0189
  63   2.0000      -0.343414        -9.3448
  64   2.0000      -0.332941        -9.0598
  65   2.0000      -0.326525        -8.8852
  66   2.0000      -0.293532        -7.9874
  67   0.0000       0.027886         0.7588
  68   0.0000       0.073596         2.0026
  69   0.0000       0.111989         3.0474
  70   0.0000       0.117299         3.1919
  71   0.0000       0.122886         3.3439

MULLIKEN ATOMIC CHARGES
-----------------------
   0 S :    0.122789
   1 C :   -0.131328
   2 C :   -0.086936
   3 C :    0.040303
   4 C :   -0.154751
   5 H :   -0.013267
   6 C :    0.046517
   7 H :    0.041569
   8 H :    0.021162
   9 C :   -0.021673
  10 H :    0.027933
  11 H :    0.020610
  12 C :   -0.072682
  13 H :    0.029155
  14 H :    0.035225
  15 H :    0.033629
  16 S :    0.123744
  17 C :   -0.121476
  18 C :   -0.057281
  19 C :   -0.013458
  20 C :   -0.165060
  21 H :    0.046721
  22 C :    0.051829
  23 H :    0.006175
  24 H :    0.042649
  25 C :   -0.058161
  26 H :    0.053996
  27 H :    0.028115
  28 C :   -0.042807
  29 H :    0.011003
  30 H :   -0.012268
  31 H :    0.044928
  32 H :    0.049304
  33 H :    0.073791
Sum of atomic charges:    0.0000000

LOEWDIN ATOMIC CHARGES
----------------------
   0 S :    0.421159
   1 C :   -0.205741
   2 C :   -0.058111
   3 C :   -0.057527
   4 C :   -0.212650
   5 H :    0.012651
   6 C :   -0.035003
   7 H :    0.041998
   8 H :    0.031990
   9 C :   -0.037388
  10 H :    0.029645
  11 H :    0.021973
  12 C :   -0.073697
  13 H :    0.027730
  14 H :    0.027091
  15 H :    0.026055
  16 S :    0.422643
  17 C :   -0.198592
  18 C :   -0.084442
  19 C :   -0.054642
  20 C :   -0.205760
  21 H :    0.046675
  22 C :   -0.028156
  23 H :    0.020640
  24 H :    0.042834
  25 C :   -0.044050
  26 H :    0.035376
  27 H :    0.025419
  28 C :   -0.084576
  29 H :    0.028052
  30 H :    0.011782
  31 H :    0.032933
  32 H :    0.033726
  33 H :    0.039961

  Mayer bond orders larger than 0.100000
B(  0-S ,  1-C ) :   1.1268 B(  0-S ,  4-C ) :   1.1636 B(  1-C ,  2-C ) :   1.6161
B(  1-C , 32-H ) :   0.9625 B(  2-C ,  3-C ) :   1.2308 B(  2-C ,  6-C ) :   1.0382
B(  3-C ,  4-C ) :   1.5605 B(  3-C ,  5-H ) :   0.9950 B(  4-C , 20-C ) :   1.0332
B(  6-C ,  7-H ) :   0.9456 B(  6-C ,  8-H ) :   0.9308 B(  6-C ,  9-C ) :   1.0643
B(  9-C , 10-H ) :   0.9529 B(  9-C , 11-H ) :   0.9557 B(  9-C , 12-C ) :   1.0710
B( 12-C , 13-H ) :   0.9746 B( 12-C , 14-H ) :   0.9745 B( 12-C , 15-H ) :   0.9740
B( 16-S , 17-C ) :   1.1703 B( 16-S , 20-C ) :   1.1570 B( 17-C , 18-C ) :   1.5945
B( 17-C , 20-C ) :   0.1020 B( 17-C , 33-H ) :   0.9595 B( 18-C , 19-C ) :   1.2702
B( 18-C , 21-H ) :   0.9773 B( 19-C , 20-C ) :   1.5703 B( 19-C , 22-C ) :   1.0361
B( 22-C , 23-H ) :   0.9336 B( 22-C , 24-H ) :   0.9352 B( 22-C , 25-C ) :   1.0643
B( 25-C , 26-H ) :   0.9555 B( 25-C , 27-H ) :   0.9517 B( 25-C , 28-C ) :   1.0768
B( 28-C , 29-H ) :   0.9635 B( 28-C , 30-H ) :   0.9614 B( 28-C , 31-H ) :   0.9744

Dispersion correction           -0.015077996
FINAL SINGLE POINT ENERGY     -1339.868325967457

DIPOLE MOMENT
-------------
                                X             Y             Z
Electronic contribution:    -28.72162       8.08160      -8.71911
Nuclear contribution   :     29.20150      -8.35817       9.06094
                        -----------------------------------------
Total Dipole Moment    :      0.47988      -0.27657       0.34183
                        -----------------------------------------
Magnitude (a.u.)       :      0.65087
Magnitude (Debye)      :      1.65437

Rotational constants in cm-1:     0.018458     0.009836     0.007311
Rotational constants in MHz :   553.357602   294.885932   219.183752

                             ****ORCA TERMINATED NORMALLY****
TOTAL RUN TIME: 0 days 0 hours 0 minutes 22 seconds 545 msec
