                         Program Version 4.2.1 -  RELEASE  -
|  1> ! wB97X-D3 SP def2-SVP
|  2> %pal
|  3> nprocs 24
|  4> end
|  5>
|  6> * xyz 0 1
|  7> S 	 -49.0368 	 7.1954 	 -22.648
|  8> C 	 -49.4067 	 7.96845 	 -21.1931
|  9> C 	 -48.9034 	 9.26281 	 -21.1733
| 10> C 	 -48.3141 	 9.7054 	 -22.4098
| 11> C 	 -48.2206 	 8.63066 	 -23.2922
| 12> H 	 -47.8459 	 10.6652 	 -22.5727
| 13> C 	 -48.8737 	 10.0854 	 -19.8897
| 14> H 	 -48.7172 	 9.29782 	 -19.1538
| 15> H 	 -49.9113 	 10.5447 	 -19.9195
| 16> C 	 -47.7895 	 11.1482 	 -19.8166
| 17> H 	 -47.9256 	 11.9507 	 -20.4988
| 18> H 	 -47.7873 	 11.8084 	 -18.8909
| 19> C 	 -46.2796 	 10.7119 	 -19.7956
| 20> H 	 -46.1262 	 10.2054 	 -18.8507
| 21> H 	 -46.026 	 10.0098 	 -20.6455
| 22> H 	 -45.6237 	 11.5769 	 -19.6778
| 23> S 	 -48.8134 	 8.2541 	 -25.9791
| 24> C 	 -47.5592 	 8.05151 	 -27.1715
| 25> C 	 -46.3349 	 8.30309 	 -26.5909
| 26> C 	 -46.4188 	 8.5151 	 -25.176
| 27> C 	 -47.6932 	 8.63914 	 -24.6638
| 28> H 	 -45.4102 	 8.46936 	 -27.0751
| 29> C 	 -45.1578 	 8.68841 	 -24.3972
| 30> H 	 -44.576 	 7.78699 	 -24.5115
| 31> H 	 -45.44 	 8.73608 	 -23.3348
| 32> C 	 -44.3312 	 9.90642 	 -24.8209
| 33> H 	 -45.0352 	 10.706 	 -24.9727
| 34> H 	 -43.8138 	 9.73035 	 -25.7512
| 35> C 	 -43.2807 	 10.391 	 -23.7796
| 36> H 	 -42.5237 	 11.0051 	 -24.2041
| 37> H 	 -42.7624 	 9.58152 	 -23.3179
| 38> H 	 -43.8574 	 10.9676 	 -23.0719
| 39> H 	 -49.817 	 7.38474 	 -20.3949
| 40> H 	 -47.6164 	 7.72971 	 -28.2268
| 41> *
| 42>
| 43>                          ****END OF INPUT****

CARTESIAN COORDINATES (ANGSTROEM)
---------------------------------
  S    -49.036800    7.195400  -22.648000
  C    -49.406700    7.968450  -21.193100
  C    -48.903400    9.262810  -21.173300
  C    -48.314100    9.705400  -22.409800
  C    -48.220600    8.630660  -23.292200
  H    -47.845900   10.665200  -22.572700
  C    -48.873700   10.085400  -19.889700
  H    -48.717200    9.297820  -19.153800
  H    -49.911300   10.544700  -19.919500
  C    -47.789500   11.148200  -19.816600
  H    -47.925600   11.950700  -20.498800
  H    -47.787300   11.808400  -18.890900
  C    -46.279600   10.711900  -19.795600
  H    -46.126200   10.205400  -18.850700
  H    -46.026000   10.009800  -20.645500
  H    -45.623700   11.576900  -19.677800
  S    -48.813400    8.254100  -25.979100
  C    -47.559200    8.051510  -27.171500
  C    -46.334900    8.303090  -26.590900
  C    -46.418800    8.515100  -25.176000
  C    -47.693200    8.639140  -24.663800
  H    -45.410200    8.469360  -27.075100
  C    -45.157800    8.688410  -24.397200
  H    -44.576000    7.786990  -24.511500
  H    -45.440000    8.736080  -23.334800
  C    -44.331200    9.906420  -24.820900
  H    -45.035200   10.706000  -24.972700
  H    -43.813800    9.730350  -25.751200
  C    -43.280700   10.391000  -23.779600
  H    -42.523700   11.005100  -24.204100
  H    -42.762400    9.581520  -23.317900
  H    -43.857400   10.967600  -23.071900
  H    -49.817000    7.384740  -20.394900
  H    -47.616400    7.729710  -28.226800

 Total Charge           Charge          ....    0
 Multiplicity           Mult            ....    1
 Number of Electrons    NEL             ....  134
 Basis Dimension        Dim             ....  322

ORBITAL ENERGIES
----------------

  NO   OCC          E(Eh)            E(eV)
   0   2.0000     -88.965022     -2420.8613
   1   2.0000     -88.960711     -2420.7440
   2   2.0000     -10.332903      -281.1726
   3   2.0000     -10.323486      -280.9163
   4   2.0000     -10.321041      -280.8498
   5   2.0000     -10.308592      -280.5111
   6   2.0000     -10.301582      -280.3203
   7   2.0000     -10.298987      -280.2497
   8   2.0000     -10.298582      -280.2387
   9   2.0000     -10.296661      -280.1864
  10   2.0000     -10.292053      -280.0610
  11   2.0000     -10.286935      -279.9217
  12   2.0000     -10.284701      -279.8609
  13   2.0000     -10.284283      -279.8496
  14   2.0000     -10.283103      -279.8175
  15   2.0000     -10.272242      -279.5219
  16   2.0000      -8.080550      -219.8829
  17   2.0000      -8.075395      -219.7427
  18   2.0000      -6.038871      -164.3260
  19   2.0000      -6.034848      -164.2166
  20   2.0000      -6.034109      -164.1965
  21   2.0000      -6.031545      -164.1267
  22   2.0000      -6.029710      -164.0768
  23   2.0000      -6.026102      -163.9786
  24   2.0000      -1.006226       -27.3808
  25   2.0000      -0.986144       -26.8344
  26   2.0000      -0.909608       -24.7517
  27   2.0000      -0.908158       -24.7122
  28   2.0000      -0.870252       -23.6808
  29   2.0000      -0.848547       -23.0901
  30   2.0000      -0.845692       -23.0124
  31   2.0000      -0.818930       -22.2842
  32   2.0000      -0.780408       -21.2360
  33   2.0000      -0.768426       -20.9099
  34   2.0000      -0.710056       -19.3216
  35   2.0000      -0.700815       -19.0701
  36   2.0000      -0.690235       -18.7822
  37   2.0000      -0.659944       -17.9580
  38   2.0000      -0.646762       -17.5993
  39   2.0000      -0.617734       -16.8094
  40   2.0000      -0.592328       -16.1181
  41   2.0000      -0.571099       -15.5404
  42   2.0000      -0.563551       -15.3350
  43   2.0000      -0.556499       -15.1431
  44   2.0000      -0.538891       -14.6640
  45   2.0000      -0.523975       -14.2581
  46   2.0000      -0.520306       -14.1582
  47   2.0000      -0.513723       -13.9791
  48   2.0000      -0.508431       -13.8351
  49   2.0000      -0.501344       -13.6423
  50   2.0000      -0.491180       -13.3657
  51   2.0000      -0.479615       -13.0510
  52   2.0000      -0.471592       -12.8327
  53   2.0000      -0.461079       -12.5466
  54   2.0000      -0.457653       -12.4534
  55   2.0000      -0.450714       -12.2646
  56   2.0000      -0.447096       -12.1661
  57   2.0000      -0.438455       -11.9310
  58   2.0000      -0.432837       -11.7781
  59   2.0000      -0.429159       -11.6780
  60   2.0000      -0.419473       -11.4144
  61   2.0000      -0.411959       -11.2100
  62   2.0000      -0.398915       -10.8550
  63   2.0000      -0.341963        -9.3053
  64   2.0000      -0.326934        -8.8963
  65   2.0000      -0.321891        -8.7591
  66   2.0000      -0.300460        -8.1759
  67   0.0000       0.038044         1.0352
  68   0.0000       0.059518         1.6196
  69   0.0000       0.119433         3.2499
  70   0.0000       0.125425         3.4130
  71   0.0000       0.125608         3.4180

MULLIKEN ATOMIC CHARGES
-----------------------
   0 S :    0.129836
   1 C :   -0.129613
   2 C :   -0.139981
   3 C :    0.053968
   4 C :   -0.167779
   5 H :    0.020980
   6 C :    0.116070
   7 H :    0.030656
   8 H :    0.061703
   9 C :   -0.115354
  10 H :    0.017011
  11 H :    0.026529
  12 C :   -0.074774
  13 H :    0.025811
  14 H :    0.061179
  15 H :    0.036749
  16 S :    0.092697
  17 C :   -0.084431
  18 C :   -0.013436
  19 C :   -0.072439
  20 C :   -0.157771
  21 H :    0.006109
  22 C :    0.085602
  23 H :    0.025875
  24 H :    0.022081
  25 C :   -0.099257
  26 H :    0.028620
  27 H :    0.027175
  28 C :   -0.015128
  29 H :    0.024707
  30 H :    0.025261
  31 H :    0.030376
  32 H :    0.049020
  33 H :    0.071950
Sum of atomic charges:   -0.0000000

LOEWDIN ATOMIC CHARGES
----------------------
   0 S :    0.431284
   1 C :   -0.219342
   2 C :   -0.067662
   3 C :   -0.055043
   4 C :   -0.191160
   5 H :    0.035131
   6 C :   -0.034670
   7 H :    0.033133
   8 H :    0.050768
   9 C :   -0.057991
  10 H :    0.014774
  11 H :    0.035498
  12 C :   -0.071140
  13 H :    0.023396
  14 H :    0.029052
  15 H :    0.029050
  16 S :    0.399244
  17 C :   -0.184918
  18 C :   -0.074362
  19 C :   -0.052452
  20 C :   -0.208158
  21 H :    0.023737
  22 C :   -0.033475
  23 H :    0.030423
  24 H :    0.029768
  25 C :   -0.035525
  26 H :    0.022236
  27 H :    0.017992
  28 C :   -0.056091
  29 H :    0.022268
  30 H :    0.021175
  31 H :    0.025631
  32 H :    0.024945
  33 H :    0.042483

  Mayer bond orders larger than 0.100000
B(  0-S ,  1-C ) :   1.1605 B(  0-S ,  4-C ) :   1.1759 B(  1-C ,  2-C ) :   1.5917
B(  1-C , 32-H ) :   0.9747 B(  2-C ,  3-C ) :   1.2590 B(  2-C ,  6-C ) :   0.9811
B(  3-C ,  4-C ) :   1.5489 B(  3-C ,  5-H ) :   0.9911 B(  4-C , 20-C ) :   1.0158
B(  6-C ,  7-H ) :   0.9529 B(  6-C ,  8-H ) :   0.9302 B(  6-C ,  9-C ) :   1.0817
B(  9-C , 10-H ) :   0.9501 B(  9-C , 11-H ) :   0.9522 B(  9-C , 12-C ) :   1.0685
B( 12-C , 13-H ) :   0.9742 B( 12-C , 14-H ) :   0.9736 B( 12-C , 15-H ) :   0.9729
B( 16-S , 17-C ) :   1.1661 B( 16-S , 20-C ) :   1.1168 B( 17-C , 18-C ) :   1.5893
B( 17-C , 33-H ) :   0.9619 B( 18-C , 19-C ) :   1.2518 B( 18-C , 21-H ) :   0.9931
B( 19-C , 20-C ) :   1.6080 B( 19-C , 22-C ) :   1.0567 B( 22-C , 23-H ) :   0.9202
B( 22-C , 24-H ) :   0.9379 B( 22-C , 25-C ) :   1.0557 B( 25-C , 26-H ) :   0.9646
B( 25-C , 27-H ) :   0.9523 B( 25-C , 28-C ) :   1.0848 B( 28-C , 29-H ) :   0.9756
B( 28-C , 30-H ) :   0.9752 B( 28-C , 31-H ) :   0.9787

Dispersion correction           -0.014760468
FINAL SINGLE POINT ENERGY     -1339.872335546647

DIPOLE MOMENT
-------------
                                X             Y             Z
Electronic contribution:    -21.52284     -16.10663     -14.92874
Nuclear contribution   :     22.07909      16.39733      15.26059
                        -----------------------------------------
Total Dipole Moment    :      0.55625       0.29070       0.33185
                        -----------------------------------------
Magnitude (a.u.)       :      0.70996
Magnitude (Debye)      :      1.80458

Rotational constants in cm-1:     0.016599     0.010398     0.007005
Rotational constants in MHz :   497.619319   311.715747   210.003739

                             ****ORCA TERMINATED NORMALLY****
TOTAL RUN TIME: 0 days 0 hours 0 minutes 22 seconds 116 msec
