                         Program Version 4.2.1 -  RELEASE  -
|  1> ! wB97X-D3 SP def2-SVP
|  2> %pal
|  3> nprocs 24
|  4> end
|  5>
|  6> * xyz 0 1
|  7> S 	 3.85229 	 -15.2767 	 -107.669
|  8> C 	 3.09371 	 -15.4501 	 -109.228
|  9> C 	 1.73178 	 -15.5498 	 -109.09
| 10> C 	 1.31049 	 -15.3759 	 -107.708
| 11> C 	 2.36197 	 -15.1432 	 -106.807
| 12> H 	 0.232023 	 -15.4462 	 -107.518
| 13> C 	 0.772765 	 -15.7425 	 -110.232
| 14> H 	 1.25366 	 -15.2959 	 -111.159
| 15> H 	 -0.192092 	 -15.1808 	 -109.977
| 16> C 	 0.439501 	 -17.2217 	 -110.689
| 17> H 	 1.39265 	 -17.6831 	 -110.832
| 18> H 	 0.0181134 	 -17.812 	 -109.9
| 19> C 	 -0.525998 	 -17.2561 	 -111.858
| 20> H 	 -0.47149 	 -18.2461 	 -112.293
| 21> H 	 -1.51722 	 -17.083 	 -111.512
| 22> H 	 -0.242619 	 -16.5882 	 -112.635
| 23> S 	 3.93906 	 -15.0529 	 -104.571
| 24> C 	 3.09978 	 -14.5493 	 -103.132
| 25> C 	 1.75231 	 -14.2081 	 -103.345
| 26> C 	 1.3363 	 -14.3596 	 -104.665
| 27> C 	 2.32006 	 -14.964 	 -105.382
| 28> H 	 1.29188 	 -13.9117 	 -102.446
| 29> C 	 -0.0264307 	 -13.8438 	 -105.167
| 30> H 	 -0.117032 	 -13.8826 	 -106.268
| 31> H 	 0.093851 	 -12.7501 	 -104.984
| 32> C 	 -1.27162 	 -14.4442 	 -104.39
| 33> H 	 -2.20985 	 -13.9297 	 -104.543
| 34> H 	 -0.993399 	 -14.4062 	 -103.319
| 35> C 	 -1.43954 	 -15.904 	 -104.846
| 36> H 	 -1.63404 	 -16.0729 	 -105.918
| 37> H 	 -2.32277 	 -16.389 	 -104.382
| 38> H 	 -0.534923 	 -16.5152 	 -104.7
| 39> H 	 3.63716 	 -15.5079 	 -110.177
| 40> H 	 3.6309 	 -14.3119 	 -102.163
| 41> *
| 42>
| 43>                          ****END OF INPUT****

CARTESIAN COORDINATES (ANGSTROEM)
---------------------------------
  S      3.852290  -15.276700  -107.669000
  C      3.093710  -15.450100  -109.228000
  C      1.731780  -15.549800  -109.090000
  C      1.310490  -15.375900  -107.708000
  C      2.361970  -15.143200  -106.807000
  H      0.232023  -15.446200  -107.518000
  C      0.772765  -15.742500  -110.232000
  H      1.253660  -15.295900  -111.159000
  H     -0.192092  -15.180800  -109.977000
  C      0.439501  -17.221700  -110.689000
  H      1.392650  -17.683100  -110.832000
  H      0.018113  -17.812000  -109.900000
  C     -0.525998  -17.256100  -111.858000
  H     -0.471490  -18.246100  -112.293000
  H     -1.517220  -17.083000  -111.512000
  H     -0.242619  -16.588200  -112.635000
  S      3.939060  -15.052900  -104.571000
  C      3.099780  -14.549300  -103.132000
  C      1.752310  -14.208100  -103.345000
  C      1.336300  -14.359600  -104.665000
  C      2.320060  -14.964000  -105.382000
  H      1.291880  -13.911700  -102.446000
  C     -0.026431  -13.843800  -105.167000
  H     -0.117032  -13.882600  -106.268000
  H      0.093851  -12.750100  -104.984000
  C     -1.271620  -14.444200  -104.390000
  H     -2.209850  -13.929700  -104.543000
  H     -0.993399  -14.406200  -103.319000
  C     -1.439540  -15.904000  -104.846000
  H     -1.634040  -16.072900  -105.918000
  H     -2.322770  -16.389000  -104.382000
  H     -0.534923  -16.515200  -104.700000
  H      3.637160  -15.507900  -110.177000
  H      3.630900  -14.311900  -102.163000

 Total Charge           Charge          ....    0
 Multiplicity           Mult            ....    1
 Number of Electrons    NEL             ....  134
 Basis Dimension        Dim             ....  322

ORBITAL ENERGIES
----------------

  NO   OCC          E(Eh)            E(eV)
   0   2.0000     -88.970057     -2420.9983
   1   2.0000     -88.962645     -2420.7966
   2   2.0000     -10.328569      -281.0546
   3   2.0000     -10.326881      -281.0087
   4   2.0000     -10.323817      -280.9253
   5   2.0000     -10.310497      -280.5629
   6   2.0000     -10.306973      -280.4670
   7   2.0000     -10.303842      -280.3818
   8   2.0000     -10.301457      -280.3169
   9   2.0000     -10.298691      -280.2416
  10   2.0000     -10.297589      -280.2116
  11   2.0000     -10.293725      -280.1065
  12   2.0000     -10.292515      -280.0736
  13   2.0000     -10.282454      -279.7998
  14   2.0000     -10.280758      -279.7536
  15   2.0000     -10.272731      -279.5352
  16   2.0000      -8.084255      -219.9838
  17   2.0000      -8.078044      -219.8148
  18   2.0000      -6.042629      -164.4283
  19   2.0000      -6.039279      -164.3371
  20   2.0000      -6.036705      -164.2671
  21   2.0000      -6.034745      -164.2137
  22   2.0000      -6.032449      -164.1513
  23   2.0000      -6.028631      -164.0474
  24   2.0000      -1.009793       -27.4779
  25   2.0000      -0.983801       -26.7706
  26   2.0000      -0.908392       -24.7186
  27   2.0000      -0.905599       -24.6426
  28   2.0000      -0.871549       -23.7160
  29   2.0000      -0.856607       -23.3095
  30   2.0000      -0.843575       -22.9548
  31   2.0000      -0.808431       -21.9985
  32   2.0000      -0.783272       -21.3139
  33   2.0000      -0.769947       -20.9513
  34   2.0000      -0.710520       -19.3342
  35   2.0000      -0.701709       -19.0945
  36   2.0000      -0.697702       -18.9854
  37   2.0000      -0.661701       -18.0058
  38   2.0000      -0.630532       -17.1576
  39   2.0000      -0.624330       -16.9889
  40   2.0000      -0.594959       -16.1897
  41   2.0000      -0.566680       -15.4201
  42   2.0000      -0.562157       -15.2971
  43   2.0000      -0.554453       -15.0874
  44   2.0000      -0.538711       -14.6591
  45   2.0000      -0.522914       -14.2292
  46   2.0000      -0.512069       -13.9341
  47   2.0000      -0.510603       -13.8942
  48   2.0000      -0.499623       -13.5954
  49   2.0000      -0.494794       -13.4640
  50   2.0000      -0.490818       -13.3558
  51   2.0000      -0.477913       -13.0047
  52   2.0000      -0.468554       -12.7500
  53   2.0000      -0.467198       -12.7131
  54   2.0000      -0.458269       -12.4701
  55   2.0000      -0.456134       -12.4120
  56   2.0000      -0.446262       -12.1434
  57   2.0000      -0.438590       -11.9347
  58   2.0000      -0.431712       -11.7475
  59   2.0000      -0.426863       -11.6155
  60   2.0000      -0.421595       -11.4722
  61   2.0000      -0.417416       -11.3585
  62   2.0000      -0.413074       -11.2403
  63   2.0000      -0.360946        -9.8218
  64   2.0000      -0.339479        -9.2377
  65   2.0000      -0.322998        -8.7892
  66   2.0000      -0.277820        -7.5599
  67   0.0000       0.018391         0.5004
  68   0.0000       0.075408         2.0519
  69   0.0000       0.091845         2.4992
  70   0.0000       0.116236         3.1629
  71   0.0000       0.131608         3.5812

MULLIKEN ATOMIC CHARGES
-----------------------
   0 S :    0.085551
   1 C :   -0.125434
   2 C :   -0.075010
   3 C :   -0.002079
   4 C :   -0.110826
   5 H :    0.004829
   6 C :   -0.016431
   7 H :    0.033165
   8 H :    0.036117
   9 C :   -0.054568
  10 H :    0.015280
  11 H :    0.018266
  12 C :   -0.002353
  13 H :    0.030225
  14 H :    0.030793
  15 H :    0.020522
  16 S :    0.093154
  17 C :   -0.115589
  18 C :   -0.034488
  19 C :   -0.042731
  20 C :   -0.099976
  21 H :    0.003195
  22 C :    0.038484
  23 H :    0.029511
  24 H :    0.045997
  25 C :   -0.036671
  26 H :    0.039209
  27 H :    0.040749
  28 C :   -0.087951
  29 H :    0.027264
  30 H :    0.036621
  31 H :    0.047743
  32 H :    0.052331
  33 H :    0.075100
Sum of atomic charges:    0.0000000

LOEWDIN ATOMIC CHARGES
----------------------
   0 S :    0.407347
   1 C :   -0.205895
   2 C :   -0.069860
   3 C :   -0.080276
   4 C :   -0.191773
   5 H :    0.026768
   6 C :   -0.040915
   7 H :    0.036067
   8 H :    0.033452
   9 C :   -0.037126
  10 H :    0.018377
  11 H :    0.020061
  12 C :   -0.055673
  13 H :    0.030318
  14 H :    0.024055
  15 H :    0.019829
  16 S :    0.378584
  17 C :   -0.186936
  18 C :   -0.069403
  19 C :   -0.049546
  20 C :   -0.173459
  21 H :    0.025511
  22 C :   -0.028867
  23 H :    0.030781
  24 H :    0.040525
  25 C :   -0.032514
  26 H :    0.025646
  27 H :    0.029106
  28 C :   -0.077350
  29 H :    0.023070
  30 H :    0.027765
  31 H :    0.030634
  32 H :    0.032477
  33 H :    0.039219

  Mayer bond orders larger than 0.100000
B(  0-S ,  1-C ) :   1.1287 B(  0-S ,  4-C ) :   1.1523 B(  1-C ,  2-C ) :   1.6035
B(  1-C , 32-H ) :   0.9678 B(  2-C ,  3-C ) :   1.2723 B(  2-C ,  6-C ) :   1.0309
B(  3-C ,  4-C ) :   1.5219 B(  3-C ,  5-H ) :   0.9852 B(  4-C , 20-C ) :   1.1016
B(  6-C ,  7-H ) :   0.9427 B(  6-C ,  8-H ) :   0.9438 B(  6-C ,  9-C ) :   1.0522
B(  9-C , 10-H ) :   0.9557 B(  9-C , 11-H ) :   0.9551 B(  9-C , 12-C ) :   1.0820
B( 12-C , 13-H ) :   0.9710 B( 12-C , 14-H ) :   0.9758 B( 12-C , 15-H ) :   0.9745
B( 16-S , 17-C ) :   1.1518 B( 16-S , 20-C ) :   1.1123 B( 17-C , 18-C ) :   1.6344
B( 17-C , 33-H ) :   0.9567 B( 18-C , 19-C ) :   1.2052 B( 18-C , 21-H ) :   1.0006
B( 19-C , 20-C ) :   1.6130 B( 19-C , 22-C ) :   1.0148 B( 22-C , 23-H ) :   0.9407
B( 22-C , 24-H ) :   0.9321 B( 22-C , 25-C ) :   1.0549 B( 25-C , 26-H ) :   0.9586
B( 25-C , 27-H ) :   0.9571 B( 25-C , 28-C ) :   1.0679 B( 28-C , 29-H ) :   0.9713
B( 28-C , 30-H ) :   0.9727 B( 28-C , 31-H ) :   0.9761

Dispersion correction           -0.014254411
FINAL SINGLE POINT ENERGY     -1339.872465844288

DIPOLE MOMENT
-------------
                                X             Y             Z
Electronic contribution:     27.29563       5.75342      12.56894
Nuclear contribution   :    -27.93990      -5.62725     -12.61774
                        -----------------------------------------
Total Dipole Moment    :     -0.64427       0.12617      -0.04880
                        -----------------------------------------
Magnitude (a.u.)       :      0.65832
Magnitude (Debye)      :      1.67332

Rotational constants in cm-1:     0.019736     0.008593     0.006319
Rotational constants in MHz :   591.660211   257.621234   189.431834

                             ****ORCA TERMINATED NORMALLY****
TOTAL RUN TIME: 0 days 0 hours 0 minutes 21 seconds 690 msec
