                         Program Version 4.2.1 -  RELEASE  -
|  1> ! wB97X-D3 SP def2-SVP
|  2> %pal
|  3> nprocs 24
|  4> end
|  5>
|  6> * xyz 0 1
|  7> S 	 42.3956 	 -17.2065 	 -107.763
|  8> C 	 42.0096 	 -18.5425 	 -108.8
|  9> C 	 41.5662 	 -19.6884 	 -108.071
| 10> C 	 41.2578 	 -19.2373 	 -106.755
| 11> C 	 41.7518 	 -18.0043 	 -106.336
| 12> H 	 40.8404 	 -19.9446 	 -106.071
| 13> C 	 41.2947 	 -21.0414 	 -108.593
| 14> H 	 41.9442 	 -21.8294 	 -108.11
| 15> H 	 41.5314 	 -21.0218 	 -109.65
| 16> C 	 39.8317 	 -21.4032 	 -108.344
| 17> H 	 39.6305 	 -22.4442 	 -108.492
| 18> H 	 39.6583 	 -21.3647 	 -107.281
| 19> C 	 38.7396 	 -20.4991 	 -108.98
| 20> H 	 38.3915 	 -20.7952 	 -109.929
| 21> H 	 37.8676 	 -20.7038 	 -108.326
| 22> H 	 39.0745 	 -19.436 	 -109.081
| 23> S 	 40.6854 	 -15.9694 	 -104.946
| 24> C 	 41.0622 	 -15.8281 	 -103.272
| 25> C 	 41.9878 	 -16.7294 	 -102.794
| 26> C 	 42.3423 	 -17.6512 	 -103.86
| 27> C 	 41.6626 	 -17.3675 	 -105.035
| 28> H 	 42.2899 	 -16.7865 	 -101.757
| 29> C 	 43.2577 	 -18.7895 	 -103.621
| 30> H 	 44.1172 	 -18.4014 	 -103.026
| 31> H 	 43.7269 	 -18.8749 	 -104.552
| 32> C 	 42.6533 	 -20.1449 	 -103.098
| 33> H 	 42.1021 	 -20.4859 	 -103.937
| 34> H 	 41.967 	 -19.9408 	 -102.219
| 35> C 	 43.6299 	 -21.3172 	 -102.722
| 36> H 	 43.0543 	 -22.244 	 -102.595
| 37> H 	 44.295 	 -21.1749 	 -101.884
| 38> H 	 44.3118 	 -21.4496 	 -103.562
| 39> H 	 42.1604 	 -18.6185 	 -109.889
| 40> H 	 40.5629 	 -15.1837 	 -102.559
| 41> *
| 42>
| 43>                          ****END OF INPUT****

CARTESIAN COORDINATES (ANGSTROEM)
---------------------------------
  S     42.395600  -17.206500  -107.763000
  C     42.009600  -18.542500  -108.800000
  C     41.566200  -19.688400  -108.071000
  C     41.257800  -19.237300  -106.755000
  C     41.751800  -18.004300  -106.336000
  H     40.840400  -19.944600  -106.071000
  C     41.294700  -21.041400  -108.593000
  H     41.944200  -21.829400  -108.110000
  H     41.531400  -21.021800  -109.650000
  C     39.831700  -21.403200  -108.344000
  H     39.630500  -22.444200  -108.492000
  H     39.658300  -21.364700  -107.281000
  C     38.739600  -20.499100  -108.980000
  H     38.391500  -20.795200  -109.929000
  H     37.867600  -20.703800  -108.326000
  H     39.074500  -19.436000  -109.081000
  S     40.685400  -15.969400  -104.946000
  C     41.062200  -15.828100  -103.272000
  C     41.987800  -16.729400  -102.794000
  C     42.342300  -17.651200  -103.860000
  C     41.662600  -17.367500  -105.035000
  H     42.289900  -16.786500  -101.757000
  C     43.257700  -18.789500  -103.621000
  H     44.117200  -18.401400  -103.026000
  H     43.726900  -18.874900  -104.552000
  C     42.653300  -20.144900  -103.098000
  H     42.102100  -20.485900  -103.937000
  H     41.967000  -19.940800  -102.219000
  C     43.629900  -21.317200  -102.722000
  H     43.054300  -22.244000  -102.595000
  H     44.295000  -21.174900  -101.884000
  H     44.311800  -21.449600  -103.562000
  H     42.160400  -18.618500  -109.889000
  H     40.562900  -15.183700  -102.559000

 Total Charge           Charge          ....    0
 Multiplicity           Mult            ....    1
 Number of Electrons    NEL             ....  134
 Basis Dimension        Dim             ....  322

ORBITAL ENERGIES
----------------

  NO   OCC          E(Eh)            E(eV)
   0   2.0000     -88.967460     -2420.9277
   1   2.0000     -88.967220     -2420.9211
   2   2.0000     -10.328012      -281.0395
   3   2.0000     -10.320448      -280.8337
   4   2.0000     -10.318155      -280.7713
   5   2.0000     -10.313414      -280.6423
   6   2.0000     -10.301915      -280.3294
   7   2.0000     -10.300466      -280.2899
   8   2.0000     -10.296182      -280.1734
   9   2.0000     -10.294838      -280.1368
  10   2.0000     -10.292931      -280.0849
  11   2.0000     -10.290185      -280.0102
  12   2.0000     -10.285160      -279.8734
  13   2.0000     -10.283785      -279.8360
  14   2.0000     -10.281381      -279.7706
  15   2.0000     -10.276257      -279.6312
  16   2.0000      -8.083230      -219.9559
  17   2.0000      -8.081953      -219.9211
  18   2.0000      -6.041574      -164.3996
  19   2.0000      -6.040411      -164.3679
  20   2.0000      -6.037619      -164.2920
  21   2.0000      -6.036419      -164.2593
  22   2.0000      -6.034016      -164.1939
  23   2.0000      -6.032847      -164.1621
  24   2.0000      -1.010425       -27.4951
  25   2.0000      -0.985511       -26.8171
  26   2.0000      -0.916811       -24.9477
  27   2.0000      -0.904675       -24.6175
  28   2.0000      -0.867350       -23.6018
  29   2.0000      -0.851268       -23.1642
  30   2.0000      -0.842870       -22.9357
  31   2.0000      -0.814732       -22.1700
  32   2.0000      -0.785947       -21.3867
  33   2.0000      -0.770702       -20.9719
  34   2.0000      -0.712436       -19.3864
  35   2.0000      -0.702808       -19.1244
  36   2.0000      -0.689129       -18.7522
  37   2.0000      -0.663063       -18.0429
  38   2.0000      -0.636577       -17.3221
  39   2.0000      -0.624669       -16.9981
  40   2.0000      -0.591520       -16.0961
  41   2.0000      -0.569084       -15.4856
  42   2.0000      -0.556771       -15.1505
  43   2.0000      -0.553315       -15.0565
  44   2.0000      -0.531889       -14.4734
  45   2.0000      -0.526881       -14.3372
  46   2.0000      -0.518092       -14.0980
  47   2.0000      -0.515305       -14.0221
  48   2.0000      -0.505302       -13.7500
  49   2.0000      -0.498501       -13.5649
  50   2.0000      -0.489272       -13.3138
  51   2.0000      -0.475432       -12.9372
  52   2.0000      -0.469088       -12.7645
  53   2.0000      -0.465204       -12.6588
  54   2.0000      -0.457507       -12.4494
  55   2.0000      -0.453248       -12.3335
  56   2.0000      -0.444727       -12.1016
  57   2.0000      -0.439051       -11.9472
  58   2.0000      -0.431239       -11.7346
  59   2.0000      -0.426740       -11.6122
  60   2.0000      -0.424264       -11.5448
  61   2.0000      -0.414375       -11.2757
  62   2.0000      -0.410476       -11.1696
  63   2.0000      -0.340335        -9.2610
  64   2.0000      -0.327419        -8.9095
  65   2.0000      -0.324490        -8.8298
  66   2.0000      -0.298558        -8.1242
  67   0.0000       0.039288         1.0691
  68   0.0000       0.061493         1.6733
  69   0.0000       0.112313         3.0562
  70   0.0000       0.120388         3.2759
  71   0.0000       0.127176         3.4606

MULLIKEN ATOMIC CHARGES
-----------------------
   0 S :    0.127071
   1 C :   -0.128540
   2 C :   -0.141802
   3 C :    0.040459
   4 C :   -0.167780
   5 H :    0.002516
   6 C :    0.111004
   7 H :    0.049259
   8 H :    0.013467
   9 C :   -0.090774
  10 H :    0.013064
  11 H :    0.015553
  12 C :   -0.040059
  13 H :    0.017028
  14 H :    0.033647
  15 H :    0.057372
  16 S :    0.138367
  17 C :   -0.081814
  18 C :   -0.035471
  19 C :   -0.056309
  20 C :   -0.179392
  21 H :    0.021963
  22 C :    0.093769
  23 H :    0.018826
  24 H :    0.006947
  25 C :   -0.057839
  26 H :    0.019371
  27 H :    0.041280
  28 C :   -0.046330
  29 H :    0.041946
  30 H :    0.032810
  31 H :    0.024175
  32 H :    0.055440
  33 H :    0.050771
Sum of atomic charges:    0.0000000

LOEWDIN ATOMIC CHARGES
----------------------
   0 S :    0.414491
   1 C :   -0.211876
   2 C :   -0.064549
   3 C :   -0.059354
   4 C :   -0.204475
   5 H :    0.020130
   6 C :   -0.033782
   7 H :    0.044434
   8 H :    0.028043
   9 C :   -0.043640
  10 H :    0.020454
  11 H :    0.020129
  12 C :   -0.065595
  13 H :    0.014234
  14 H :    0.034768
  15 H :    0.035581
  16 S :    0.441770
  17 C :   -0.190690
  18 C :   -0.067598
  19 C :   -0.046369
  20 C :   -0.223867
  21 H :    0.033827
  22 C :   -0.041170
  23 H :    0.033927
  24 H :    0.024782
  25 C :   -0.032916
  26 H :    0.019395
  27 H :    0.029606
  28 C :   -0.066608
  29 H :    0.031060
  30 H :    0.021712
  31 H :    0.025273
  32 H :    0.031456
  33 H :    0.027415

  Mayer bond orders larger than 0.100000
B(  0-S ,  1-C ) :   1.1679 B(  0-S ,  4-C ) :   1.1420 B(  1-C ,  2-C ) :   1.5609
B(  1-C ,  4-C ) :   0.1053 B(  1-C , 32-H ) :   0.9581 B(  2-C ,  3-C ) :   1.2696
B(  2-C ,  6-C ) :   1.0434 B(  3-C ,  4-C ) :   1.5701 B(  3-C ,  5-H ) :   0.9849
B(  4-C , 20-C ) :   1.0298 B(  6-C ,  7-H ) :   0.9281 B(  6-C ,  8-H ) :   0.9366
B(  6-C ,  9-C ) :   1.0714 B(  9-C , 10-H ) :   0.9493 B(  9-C , 11-H ) :   0.9609
B(  9-C , 12-C ) :   1.0607 B( 12-C , 13-H ) :   0.9778 B( 12-C , 14-H ) :   0.9753
B( 12-C , 15-H ) :   0.9737 B( 16-S , 17-C ) :   1.1626 B( 16-S , 20-C ) :   1.1525
B( 17-C , 18-C ) :   1.6214 B( 17-C , 33-H ) :   0.9624 B( 18-C , 19-C ) :   1.2285
B( 18-C , 21-H ) :   0.9913 B( 19-C , 20-C ) :   1.6024 B( 19-C , 22-C ) :   1.0573
B( 22-C , 23-H ) :   0.9298 B( 22-C , 24-H ) :   0.9119 B( 22-C , 25-C ) :   1.0454
B( 25-C , 26-H ) :   0.9514 B( 25-C , 27-H ) :   0.9622 B( 25-C , 28-C ) :   1.0782
B( 28-C , 29-H ) :   0.9754 B( 28-C , 30-H ) :   0.9785 B( 28-C , 31-H ) :   0.9740

Dispersion correction           -0.014635040
FINAL SINGLE POINT ENERGY     -1339.870217883115

DIPOLE MOMENT
-------------
                                X             Y             Z
Electronic contribution:      1.36067      25.96064      -2.75157
Nuclear contribution   :     -1.37160     -26.61366       2.96797
                        -----------------------------------------
Total Dipole Moment    :     -0.01093      -0.65302       0.21640
                        -----------------------------------------
Magnitude (a.u.)       :      0.68802
Magnitude (Debye)      :      1.74882

Rotational constants in cm-1:     0.016767     0.009447     0.007352
Rotational constants in MHz :   502.670522   283.221696   220.408305

                             ****ORCA TERMINATED NORMALLY****
TOTAL RUN TIME: 0 days 0 hours 0 minutes 21 seconds 851 msec
