                         Program Version 4.2.1 -  RELEASE  -
|  1> ! wB97X-D3 SP def2-SVP
|  2> %pal
|  3> nprocs 24
|  4> end
|  5>
|  6> * xyz 0 1
|  7> S 	 -131.57 	 66.3131 	 -57.9387
|  8> C 	 -131.153 	 67.916 	 -58.4707
|  9> C 	 -131.346 	 68.028 	 -59.8103
| 10> C 	 -132.017 	 66.91 	 -60.3975
| 11> C 	 -131.99 	 65.7623 	 -59.5812
| 12> H 	 -132.254 	 66.784 	 -61.4111
| 13> C 	 -131.108 	 69.2773 	 -60.5892
| 14> H 	 -130.884 	 70.1704 	 -59.8598
| 15> H 	 -132.04 	 69.6238 	 -61.1481
| 16> C 	 -130.036 	 69.1217 	 -61.716
| 17> H 	 -130.362 	 68.2031 	 -62.2806
| 18> H 	 -130.118 	 69.85 	 -62.5119
| 19> C 	 -128.583 	 68.9083 	 -61.3226
| 20> H 	 -128.02 	 68.5411 	 -62.2703
| 21> H 	 -128.092 	 69.7665 	 -60.8517
| 22> H 	 -128.474 	 68.1521 	 -60.5184
| 23> S 	 -133.459 	 63.4882 	 -58.8712
| 24> C 	 -133.413 	 62.1124 	 -59.9074
| 25> C 	 -132.599 	 62.3658 	 -60.9737
| 26> C 	 -132.017 	 63.6683 	 -61.061
| 27> C 	 -132.328 	 64.3929 	 -59.9207
| 28> H 	 -132.617 	 61.6109 	 -61.7085
| 29> C 	 -131.083 	 64.1299 	 -62.1798
| 30> H 	 -131.523 	 65.0142 	 -62.7124
| 31> H 	 -131.179 	 63.4295 	 -62.9679
| 32> C 	 -129.567 	 64.1581 	 -61.9502
| 33> H 	 -129.123 	 63.174 	 -62.026
| 34> H 	 -129.444 	 64.6763 	 -61.0019
| 35> C 	 -128.695 	 64.9981 	 -62.8596
| 36> H 	 -128.856 	 64.7668 	 -63.9087
| 37> H 	 -127.634 	 64.949 	 -62.5359
| 38> H 	 -128.945 	 66.1124 	 -62.7872
| 39> H 	 -130.742 	 68.6825 	 -57.834
| 40> H 	 -133.833 	 61.1612 	 -59.7256
| 41> *
| 42>
| 43>                          ****END OF INPUT****

CARTESIAN COORDINATES (ANGSTROEM)
---------------------------------
  S    -131.570000   66.313100  -57.938700
  C    -131.153000   67.916000  -58.470700
  C    -131.346000   68.028000  -59.810300
  C    -132.017000   66.910000  -60.397500
  C    -131.990000   65.762300  -59.581200
  H    -132.254000   66.784000  -61.411100
  C    -131.108000   69.277300  -60.589200
  H    -130.884000   70.170400  -59.859800
  H    -132.040000   69.623800  -61.148100
  C    -130.036000   69.121700  -61.716000
  H    -130.362000   68.203100  -62.280600
  H    -130.118000   69.850000  -62.511900
  C    -128.583000   68.908300  -61.322600
  H    -128.020000   68.541100  -62.270300
  H    -128.092000   69.766500  -60.851700
  H    -128.474000   68.152100  -60.518400
  S    -133.459000   63.488200  -58.871200
  C    -133.413000   62.112400  -59.907400
  C    -132.599000   62.365800  -60.973700
  C    -132.017000   63.668300  -61.061000
  C    -132.328000   64.392900  -59.920700
  H    -132.617000   61.610900  -61.708500
  C    -131.083000   64.129900  -62.179800
  H    -131.523000   65.014200  -62.712400
  H    -131.179000   63.429500  -62.967900
  C    -129.567000   64.158100  -61.950200
  H    -129.123000   63.174000  -62.026000
  H    -129.444000   64.676300  -61.001900
  C    -128.695000   64.998100  -62.859600
  H    -128.856000   64.766800  -63.908700
  H    -127.634000   64.949000  -62.535900
  H    -128.945000   66.112400  -62.787200
  H    -130.742000   68.682500  -57.834000
  H    -133.833000   61.161200  -59.725600

 Total Charge           Charge          ....    0
 Multiplicity           Mult            ....    1
 Number of Electrons    NEL             ....  134
 Basis Dimension        Dim             ....  322

ORBITAL ENERGIES
----------------

  NO   OCC          E(Eh)            E(eV)
   0   2.0000     -88.966572     -2420.9035
   1   2.0000     -88.964254     -2420.8404
   2   2.0000     -10.336198      -281.2622
   3   2.0000     -10.332142      -281.1519
   4   2.0000     -10.313946      -280.6567
   5   2.0000     -10.313638      -280.6484
   6   2.0000     -10.310330      -280.5583
   7   2.0000     -10.305710      -280.4326
   8   2.0000     -10.299236      -280.2565
   9   2.0000     -10.295679      -280.1597
  10   2.0000     -10.294283      -280.1217
  11   2.0000     -10.291836      -280.0551
  12   2.0000     -10.290202      -280.0106
  13   2.0000     -10.285731      -279.8890
  14   2.0000     -10.284118      -279.8451
  15   2.0000     -10.283381      -279.8250
  16   2.0000      -8.081328      -219.9041
  17   2.0000      -8.078821      -219.8359
  18   2.0000      -6.039824      -164.3520
  19   2.0000      -6.037380      -164.2855
  20   2.0000      -6.035773      -164.2417
  21   2.0000      -6.033298      -164.1744
  22   2.0000      -6.032145      -164.1430
  23   2.0000      -6.029578      -164.0732
  24   2.0000      -1.007183       -27.4068
  25   2.0000      -0.987552       -26.8727
  26   2.0000      -0.911082       -24.7918
  27   2.0000      -0.907300       -24.6889
  28   2.0000      -0.873140       -23.7593
  29   2.0000      -0.855327       -23.2746
  30   2.0000      -0.843847       -22.9622
  31   2.0000      -0.817740       -22.2518
  32   2.0000      -0.785588       -21.3769
  33   2.0000      -0.772697       -21.0261
  34   2.0000      -0.713932       -19.4271
  35   2.0000      -0.693107       -18.8604
  36   2.0000      -0.690992       -18.8028
  37   2.0000      -0.663303       -18.0494
  38   2.0000      -0.643374       -17.5071
  39   2.0000      -0.620759       -16.8917
  40   2.0000      -0.597377       -16.2555
  41   2.0000      -0.572097       -15.5676
  42   2.0000      -0.568854       -15.4793
  43   2.0000      -0.545803       -14.8521
  44   2.0000      -0.532974       -14.5029
  45   2.0000      -0.528539       -14.3823
  46   2.0000      -0.521405       -14.1882
  47   2.0000      -0.516692       -14.0599
  48   2.0000      -0.507303       -13.8044
  49   2.0000      -0.504845       -13.7375
  50   2.0000      -0.492787       -13.4094
  51   2.0000      -0.488588       -13.2952
  52   2.0000      -0.473841       -12.8939
  53   2.0000      -0.465478       -12.6663
  54   2.0000      -0.459597       -12.5063
  55   2.0000      -0.442835       -12.0502
  56   2.0000      -0.436738       -11.8842
  57   2.0000      -0.432132       -11.7589
  58   2.0000      -0.428232       -11.6528
  59   2.0000      -0.422768       -11.5041
  60   2.0000      -0.419226       -11.4077
  61   2.0000      -0.409529       -11.1438
  62   2.0000      -0.407353       -11.0846
  63   2.0000      -0.351588        -9.5672
  64   2.0000      -0.335264        -9.1230
  65   2.0000      -0.328802        -8.9472
  66   2.0000      -0.293224        -7.9790
  67   0.0000       0.020384         0.5547
  68   0.0000       0.073825         2.0089
  69   0.0000       0.111182         3.0254
  70   0.0000       0.116489         3.1698
  71   0.0000       0.120064         3.2671

MULLIKEN ATOMIC CHARGES
-----------------------
   0 S :    0.098981
   1 C :   -0.109499
   2 C :   -0.065858
   3 C :    0.068501
   4 C :   -0.165128
   5 H :   -0.007245
   6 C :   -0.000045
   7 H :    0.035637
   8 H :    0.046979
   9 C :   -0.075087
  10 H :    0.015965
  11 H :    0.025172
  12 C :   -0.074062
  13 H :    0.054458
  14 H :    0.032947
  15 H :    0.036694
  16 S :    0.107752
  17 C :   -0.069655
  18 C :   -0.030677
  19 C :   -0.022002
  20 C :   -0.151882
  21 H :   -0.001167
  22 C :    0.078491
  23 H :    0.032060
  24 H :   -0.007894
  25 C :   -0.041915
  26 H :    0.037616
  27 H :    0.039264
  28 C :   -0.082424
  29 H :    0.026564
  30 H :    0.048400
  31 H :    0.024253
  32 H :    0.050022
  33 H :    0.044784
Sum of atomic charges:    0.0000000

LOEWDIN ATOMIC CHARGES
----------------------
   0 S :    0.392389
   1 C :   -0.192549
   2 C :   -0.074764
   3 C :   -0.050620
   4 C :   -0.178664
   5 H :    0.018730
   6 C :   -0.042130
   7 H :    0.034311
   8 H :    0.041940
   9 C :   -0.052327
  10 H :    0.025130
  11 H :    0.021529
  12 C :   -0.078589
  13 H :    0.039060
  14 H :    0.023494
  15 H :    0.027408
  16 S :    0.402399
  17 C :   -0.183316
  18 C :   -0.068839
  19 C :   -0.049350
  20 C :   -0.185633
  21 H :    0.023023
  22 C :   -0.038923
  23 H :    0.036087
  24 H :    0.024933
  25 C :   -0.039459
  26 H :    0.027987
  27 H :    0.029890
  28 C :   -0.070059
  29 H :    0.017717
  30 H :    0.034431
  31 H :    0.027159
  32 H :    0.031050
  33 H :    0.026552

  Mayer bond orders larger than 0.100000
B(  0-S ,  1-C ) :   1.1319 B(  0-S ,  4-C ) :   1.1444 B(  1-C ,  2-C ) :   1.6095
B(  1-C , 32-H ) :   0.9702 B(  2-C ,  3-C ) :   1.2324 B(  2-C ,  6-C ) :   1.0307
B(  3-C ,  4-C ) :   1.5597 B(  3-C ,  5-H ) :   0.9899 B(  4-C , 20-C ) :   1.0754
B(  6-C ,  7-H ) :   0.9518 B(  6-C ,  8-H ) :   0.9405 B(  6-C ,  9-C ) :   1.0552
B(  9-C , 10-H ) :   0.9505 B(  9-C , 11-H ) :   0.9546 B(  9-C , 12-C ) :   1.0753
B( 12-C , 13-H ) :   0.9686 B( 12-C , 14-H ) :   0.9727 B( 12-C , 15-H ) :   0.9735
B( 16-S , 17-C ) :   1.1496 B( 16-S , 20-C ) :   1.1412 B( 17-C , 18-C ) :   1.6273
B( 17-C , 33-H ) :   0.9689 B( 18-C , 19-C ) :   1.2402 B( 18-C , 21-H ) :   0.9914
B( 19-C , 20-C ) :   1.5807 B( 19-C , 22-C ) :   1.0494 B( 22-C , 23-H ) :   0.9332
B( 22-C , 24-H ) :   0.9133 B( 22-C , 25-C ) :   1.0522 B( 25-C , 26-H ) :   0.9565
B( 25-C , 27-H ) :   0.9602 B( 25-C , 28-C ) :   1.0856 B( 28-C , 29-H ) :   0.9727
B( 28-C , 30-H ) :   0.9705 B( 28-C , 31-H ) :   0.9719

Dispersion correction           -0.015864225
FINAL SINGLE POINT ENERGY     -1339.870640083657

DIPOLE MOMENT
-------------
                                X             Y             Z
Electronic contribution:    -20.01523     -12.37514      22.05440
Nuclear contribution   :     20.24006      12.42173     -22.72086
                        -----------------------------------------
Total Dipole Moment    :      0.22483       0.04659      -0.66647
                        -----------------------------------------
Magnitude (a.u.)       :      0.70491
Magnitude (Debye)      :      1.79174

Rotational constants in cm-1:     0.019194     0.010125     0.007332
Rotational constants in MHz :   575.418716   303.532099   219.797744

                             ****ORCA TERMINATED NORMALLY****
TOTAL RUN TIME: 0 days 0 hours 0 minutes 23 seconds 55 msec
