                         Program Version 4.2.1 -  RELEASE  -
|  1> ! wB97X-D3 SP def2-SVP
|  2> %pal
|  3> nprocs 24
|  4> end
|  5>
|  6> * xyz 0 1
|  7> S 	 -108.603 	 53.2362 	 -88.569
|  8> C 	 -109.275 	 51.7642 	 -87.8866
|  9> C 	 -110.451 	 51.9539 	 -87.1846
| 10> C 	 -110.821 	 53.3597 	 -87.2671
| 11> C 	 -109.983 	 54.1513 	 -88.0212
| 12> H 	 -111.741 	 53.632 	 -86.763
| 13> C 	 -111.36 	 50.9373 	 -86.4618
| 14> H 	 -111.678 	 51.2581 	 -85.4877
| 15> H 	 -110.611 	 50.0974 	 -86.3264
| 16> C 	 -112.578 	 50.4367 	 -87.2383
| 17> H 	 -112.198 	 50.178 	 -88.2926
| 18> H 	 -112.985 	 49.5173 	 -86.8012
| 19> C 	 -113.859 	 51.3412 	 -87.2959
| 20> H 	 -113.555 	 52.2861 	 -87.571
| 21> H 	 -114.455 	 51.15 	 -88.1823
| 22> H 	 -114.311 	 51.4268 	 -86.3073
| 23> S 	 -108.852 	 56.5635 	 -88.1775
| 24> C 	 -109.78 	 58.0239 	 -88.3988
| 25> C 	 -111.107 	 57.755 	 -88.7624
| 26> C 	 -111.345 	 56.3502 	 -88.6804
| 27> C 	 -110.243 	 55.566 	 -88.38
| 28> H 	 -111.748 	 58.6013 	 -88.8875
| 29> C 	 -112.739 	 55.8167 	 -89.067
| 30> H 	 -112.826 	 54.7252 	 -88.9422
| 31> H 	 -112.862 	 56.1054 	 -90.0898
| 32> C 	 -113.857 	 56.4224 	 -88.137
| 33> H 	 -114.027 	 57.4785 	 -88.2788
| 34> H 	 -113.533 	 56.2832 	 -87.0561
| 35> C 	 -115.134 	 55.6866 	 -88.2796
| 36> H 	 -115.018 	 54.6497 	 -88.2427
| 37> H 	 -115.741 	 55.8455 	 -89.197
| 38> H 	 -115.737 	 56.0441 	 -87.3733
| 39> H 	 -108.821 	 50.7556 	 -87.9586
| 40> H 	 -109.362 	 58.9888 	 -88.2511
| 41> *
| 42>
| 43>                          ****END OF INPUT****

CARTESIAN COORDINATES (ANGSTROEM)
---------------------------------
  S    -108.603000   53.236200  -88.569000
  C    -109.275000   51.764200  -87.886600
  C    -110.451000   51.953900  -87.184600
  C    -110.821000   53.359700  -87.267100
  C    -109.983000   54.151300  -88.021200
  H    -111.741000   53.632000  -86.763000
  C    -111.360000   50.937300  -86.461800
  H    -111.678000   51.258100  -85.487700
  H    -110.611000   50.097400  -86.326400
  C    -112.578000   50.436700  -87.238300
  H    -112.198000   50.178000  -88.292600
  H    -112.985000   49.517300  -86.801200
  C    -113.859000   51.341200  -87.295900
  H    -113.555000   52.286100  -87.571000
  H    -114.455000   51.150000  -88.182300
  H    -114.311000   51.426800  -86.307300
  S    -108.852000   56.563500  -88.177500
  C    -109.780000   58.023900  -88.398800
  C    -111.107000   57.755000  -88.762400
  C    -111.345000   56.350200  -88.680400
  C    -110.243000   55.566000  -88.380000
  H    -111.748000   58.601300  -88.887500
  C    -112.739000   55.816700  -89.067000
  H    -112.826000   54.725200  -88.942200
  H    -112.862000   56.105400  -90.089800
  C    -113.857000   56.422400  -88.137000
  H    -114.027000   57.478500  -88.278800
  H    -113.533000   56.283200  -87.056100
  C    -115.134000   55.686600  -88.279600
  H    -115.018000   54.649700  -88.242700
  H    -115.741000   55.845500  -89.197000
  H    -115.737000   56.044100  -87.373300
  H    -108.821000   50.755600  -87.958600
  H    -109.362000   58.988800  -88.251100

 Total Charge           Charge          ....    0
 Multiplicity           Mult            ....    1
 Number of Electrons    NEL             ....  134
 Basis Dimension        Dim             ....  322

ORBITAL ENERGIES
----------------

  NO   OCC          E(Eh)            E(eV)
   0   2.0000     -88.970943     -2421.0225
   1   2.0000     -88.962285     -2420.7869
   2   2.0000     -10.333351      -281.1848
   3   2.0000     -10.326108      -280.9877
   4   2.0000     -10.318949      -280.7929
   5   2.0000     -10.317403      -280.7508
   6   2.0000     -10.306603      -280.4569
   7   2.0000     -10.303722      -280.3785
   8   2.0000     -10.302179      -280.3366
   9   2.0000     -10.296585      -280.1843
  10   2.0000     -10.296385      -280.1789
  11   2.0000     -10.292249      -280.0663
  12   2.0000     -10.291747      -280.0527
  13   2.0000     -10.288638      -279.9681
  14   2.0000     -10.276969      -279.6505
  15   2.0000     -10.276761      -279.6449
  16   2.0000      -8.085520      -220.0182
  17   2.0000      -8.078005      -219.8137
  18   2.0000      -6.044243      -164.4722
  19   2.0000      -6.040121      -164.3600
  20   2.0000      -6.036379      -164.2582
  21   2.0000      -6.035988      -164.2476
  22   2.0000      -6.032306      -164.1474
  23   2.0000      -6.028926      -164.0554
  24   2.0000      -1.007726       -27.4216
  25   2.0000      -0.984452       -26.7883
  26   2.0000      -0.910404       -24.7733
  27   2.0000      -0.907387       -24.6913
  28   2.0000      -0.868399       -23.6303
  29   2.0000      -0.853664       -23.2294
  30   2.0000      -0.845329       -23.0026
  31   2.0000      -0.815311       -22.1857
  32   2.0000      -0.787262       -21.4225
  33   2.0000      -0.770562       -20.9680
  34   2.0000      -0.701071       -19.0771
  35   2.0000      -0.699717       -19.0403
  36   2.0000      -0.694073       -18.8867
  37   2.0000      -0.665098       -18.0982
  38   2.0000      -0.632641       -17.2150
  39   2.0000      -0.622430       -16.9372
  40   2.0000      -0.594318       -16.1722
  41   2.0000      -0.578894       -15.7525
  42   2.0000      -0.568916       -15.4810
  43   2.0000      -0.550756       -14.9868
  44   2.0000      -0.539685       -14.6856
  45   2.0000      -0.529120       -14.3981
  46   2.0000      -0.520955       -14.1759
  47   2.0000      -0.509012       -13.8509
  48   2.0000      -0.503884       -13.7114
  49   2.0000      -0.498100       -13.5540
  50   2.0000      -0.492432       -13.3997
  51   2.0000      -0.484304       -13.1786
  52   2.0000      -0.474523       -12.9124
  53   2.0000      -0.464529       -12.6405
  54   2.0000      -0.456861       -12.4318
  55   2.0000      -0.449043       -12.2191
  56   2.0000      -0.439472       -11.9586
  57   2.0000      -0.438163       -11.9230
  58   2.0000      -0.435722       -11.8566
  59   2.0000      -0.427602       -11.6356
  60   2.0000      -0.417824       -11.3696
  61   2.0000      -0.411022       -11.1845
  62   2.0000      -0.407311       -11.0835
  63   2.0000      -0.351662        -9.5692
  64   2.0000      -0.333184        -9.0664
  65   2.0000      -0.328951        -8.9512
  66   2.0000      -0.290266        -7.8985
  67   0.0000       0.032963         0.8970
  68   0.0000       0.069813         1.8997
  69   0.0000       0.105024         2.8579
  70   0.0000       0.116673         3.1748
  71   0.0000       0.123967         3.3733

MULLIKEN ATOMIC CHARGES
-----------------------
   0 S :    0.121007
   1 C :   -0.135741
   2 C :   -0.113796
   3 C :    0.012395
   4 C :   -0.103351
   5 H :    0.004902
   6 C :    0.066261
   7 H :    0.027717
   8 H :    0.032079
   9 C :   -0.099209
  10 H :    0.036325
  11 H :    0.037489
  12 C :   -0.002235
  13 H :   -0.019821
  14 H :    0.036152
  15 H :    0.041733
  16 S :    0.088924
  17 C :   -0.091610
  18 C :   -0.023388
  19 C :   -0.060628
  20 C :   -0.120702
  21 H :    0.021430
  22 C :    0.079139
  23 H :    0.021772
  24 H :    0.037311
  25 C :   -0.115107
  26 H :    0.031787
  27 H :    0.040149
  28 C :   -0.041323
  29 H :    0.012323
  30 H :    0.034632
  31 H :    0.040765
  32 H :    0.054145
  33 H :    0.048474
Sum of atomic charges:   -0.0000000

LOEWDIN ATOMIC CHARGES
----------------------
   0 S :    0.405429
   1 C :   -0.201922
   2 C :   -0.064020
   3 C :   -0.066218
   4 C :   -0.197756
   5 H :    0.025950
   6 C :   -0.033221
   7 H :    0.026648
   8 H :    0.040726
   9 C :   -0.044234
  10 H :    0.032149
  11 H :    0.025024
  12 C :   -0.067924
  13 H :    0.007755
  14 H :    0.036461
  15 H :    0.029860
  16 S :    0.416034
  17 C :   -0.173010
  18 C :   -0.068848
  19 C :   -0.056248
  20 C :   -0.206034
  21 H :    0.032627
  22 C :   -0.024503
  23 H :    0.027324
  24 H :    0.030042
  25 C :   -0.045525
  26 H :    0.020023
  27 H :    0.032782
  28 C :   -0.070954
  29 H :    0.012018
  30 H :    0.027127
  31 H :    0.037916
  32 H :    0.034037
  33 H :    0.020486

  Mayer bond orders larger than 0.100000
B(  0-S ,  1-C ) :   1.1298 B(  0-S ,  4-C ) :   1.1418 B(  1-C ,  2-C ) :   1.6465
B(  1-C , 32-H ) :   0.9561 B(  2-C ,  3-C ) :   1.2350 B(  2-C ,  6-C ) :   1.0173
B(  3-C ,  4-C ) :   1.5773 B(  3-C ,  5-H ) :   0.9955 B(  4-C , 20-C ) :   1.0056
B(  6-C ,  7-H ) :   0.9448 B(  6-C ,  8-H ) :   0.9363 B(  6-C ,  9-C ) :   1.0657
B(  9-C , 10-H ) :   0.9537 B(  9-C , 11-H ) :   0.9594 B(  9-C , 12-C ) :   1.0741
B( 12-C , 13-H ) :   0.9698 B( 12-C , 14-H ) :   0.9657 B( 12-C , 15-H ) :   0.9728
B( 16-S , 17-C ) :   1.1821 B( 16-S , 20-C ) :   1.1392 B( 17-C , 18-C ) :   1.5882
B( 17-C , 20-C ) :   0.1001 B( 17-C , 33-H ) :   0.9729 B( 18-C , 19-C ) :   1.2274
B( 18-C , 21-H ) :   1.0003 B( 19-C , 20-C ) :   1.6143 B( 19-C , 22-C ) :   1.0346
B( 22-C , 23-H ) :   0.9457 B( 22-C , 24-H ) :   0.9370 B( 22-C , 25-C ) :   1.0513
B( 25-C , 26-H ) :   0.9519 B( 25-C , 27-H ) :   0.9593 B( 25-C , 28-C ) :   1.0958
B( 28-C , 29-H ) :   0.9717 B( 28-C , 30-H ) :   0.9690 B( 28-C , 31-H ) :   0.9728

Dispersion correction           -0.014808225
FINAL SINGLE POINT ENERGY     -1339.865941415668

DIPOLE MOMENT
-------------
                                X             Y             Z
Electronic contribution:     31.26079       9.36170      -4.20082
Nuclear contribution   :    -31.94341      -9.39872       4.34606
                        -----------------------------------------
Total Dipole Moment    :     -0.68261      -0.03702       0.14524
                        -----------------------------------------
Magnitude (a.u.)       :      0.69888
Magnitude (Debye)      :      1.77640

Rotational constants in cm-1:     0.015948     0.010813     0.006761
Rotational constants in MHz :   478.106300   324.177469   202.679434

                             ****ORCA TERMINATED NORMALLY****
TOTAL RUN TIME: 0 days 0 hours 0 minutes 22 seconds 290 msec
