                         Program Version 4.2.1 -  RELEASE  -
|  1> ! wB97X-D3 SP def2-SVP
|  2> %pal
|  3> nprocs 24
|  4> end
|  5>
|  6> * xyz 0 1
|  7> S 	 -102.32 	 2.13108 	 -103.405
|  8> C 	 -103.064 	 1.20281 	 -102.096
|  9> C 	 -102.295 	 0.0695025 	 -101.84
| 10> C 	 -101.111 	 -0.0254436 	 -102.615
| 11> C 	 -100.857 	 1.12096 	 -103.333
| 12> H 	 -100.337 	 -0.832711 	 -102.755
| 13> C 	 -102.745 	 -1.04378 	 -100.952
| 14> H 	 -103.382 	 -0.557805 	 -100.175
| 15> H 	 -101.895 	 -1.33181 	 -100.331
| 16> C 	 -103.272 	 -2.2559 	 -101.602
| 17> H 	 -104.032 	 -1.94882 	 -102.338
| 18> H 	 -102.528 	 -2.70996 	 -102.256
| 19> C 	 -103.846 	 -3.26791 	 -100.605
| 20> H 	 -104.122 	 -4.22888 	 -101.105
| 21> H 	 -103.193 	 -3.57977 	 -99.7542
| 22> H 	 -104.809 	 -2.90316 	 -100.235
| 23> S 	 -100.099 	 1.34662 	 -106.034
| 24> C 	 -98.4824 	 1.78077 	 -106.39
| 25> C 	 -97.7763 	 1.92493 	 -105.198
| 26> C 	 -98.471 	 1.58117 	 -103.953
| 27> C 	 -99.7585 	 1.29462 	 -104.257
| 28> H 	 -96.751 	 2.21136 	 -105.205
| 29> C 	 -97.9137 	 1.89996 	 -102.574
| 30> H 	 -98.721 	 2.13186 	 -101.913
| 31> H 	 -97.2723 	 2.78239 	 -102.63
| 32> C 	 -96.9952 	 0.841165 	 -101.932
| 33> H 	 -96.2069 	 0.555019 	 -102.563
| 34> H 	 -97.5176 	 -0.0607241 	 -101.838
| 35> C 	 -96.3492 	 1.31628 	 -100.528
| 36> H 	 -95.5388 	 2.05821 	 -100.711
| 37> H 	 -95.7923 	 0.439121 	 -100.038
| 38> H 	 -97.15 	 1.68034 	 -99.8859
| 39> H 	 -104.04 	 1.39008 	 -101.812
| 40> H 	 -98.2073 	 2.24111 	 -107.327
| 41> *
| 42>
| 43>                          ****END OF INPUT****

CARTESIAN COORDINATES (ANGSTROEM)
---------------------------------
  S    -102.320000    2.131080  -103.405000
  C    -103.064000    1.202810  -102.096000
  C    -102.295000    0.069502  -101.840000
  C    -101.111000   -0.025444  -102.615000
  C    -100.857000    1.120960  -103.333000
  H    -100.337000   -0.832711  -102.755000
  C    -102.745000   -1.043780  -100.952000
  H    -103.382000   -0.557805  -100.175000
  H    -101.895000   -1.331810  -100.331000
  C    -103.272000   -2.255900  -101.602000
  H    -104.032000   -1.948820  -102.338000
  H    -102.528000   -2.709960  -102.256000
  C    -103.846000   -3.267910  -100.605000
  H    -104.122000   -4.228880  -101.105000
  H    -103.193000   -3.579770  -99.754200
  H    -104.809000   -2.903160  -100.235000
  S    -100.099000    1.346620  -106.034000
  C    -98.482400    1.780770  -106.390000
  C    -97.776300    1.924930  -105.198000
  C    -98.471000    1.581170  -103.953000
  C    -99.758500    1.294620  -104.257000
  H    -96.751000    2.211360  -105.205000
  C    -97.913700    1.899960  -102.574000
  H    -98.721000    2.131860  -101.913000
  H    -97.272300    2.782390  -102.630000
  C    -96.995200    0.841165  -101.932000
  H    -96.206900    0.555019  -102.563000
  H    -97.517600   -0.060724  -101.838000
  C    -96.349200    1.316280  -100.528000
  H    -95.538800    2.058210  -100.711000
  H    -95.792300    0.439121  -100.038000
  H    -97.150000    1.680340  -99.885900
  H    -104.040000    1.390080  -101.812000
  H    -98.207300    2.241110  -107.327000

 Total Charge           Charge          ....    0
 Multiplicity           Mult            ....    1
 Number of Electrons    NEL             ....  134
 Basis Dimension        Dim             ....  322

ORBITAL ENERGIES
----------------

  NO   OCC          E(Eh)            E(eV)
   0   2.0000     -88.964450     -2420.8457
   1   2.0000     -88.961977     -2420.7785
   2   2.0000     -10.326720      -281.0043
   3   2.0000     -10.325036      -280.9585
   4   2.0000     -10.316403      -280.7236
   5   2.0000     -10.314868      -280.6818
   6   2.0000     -10.304575      -280.4017
   7   2.0000     -10.302971      -280.3581
   8   2.0000     -10.298963      -280.2490
   9   2.0000     -10.294924      -280.1391
  10   2.0000     -10.292553      -280.0746
  11   2.0000     -10.292363      -280.0694
  12   2.0000     -10.286460      -279.9088
  13   2.0000     -10.286003      -279.8964
  14   2.0000     -10.285293      -279.8770
  15   2.0000     -10.281797      -279.7819
  16   2.0000      -8.078614      -219.8303
  17   2.0000      -8.076907      -219.7838
  18   2.0000      -6.037090      -164.2776
  19   2.0000      -6.035477      -164.2337
  20   2.0000      -6.033340      -164.1755
  21   2.0000      -6.031429      -164.1235
  22   2.0000      -6.029291      -164.0653
  23   2.0000      -6.027534      -164.0175
  24   2.0000      -1.004947       -27.3460
  25   2.0000      -0.982262       -26.7287
  26   2.0000      -0.918046       -24.9813
  27   2.0000      -0.905508       -24.6401
  28   2.0000      -0.871178       -23.7060
  29   2.0000      -0.848565       -23.0906
  30   2.0000      -0.842769       -22.9329
  31   2.0000      -0.811431       -22.0802
  32   2.0000      -0.780625       -21.2419
  33   2.0000      -0.771122       -20.9833
  34   2.0000      -0.709291       -19.3008
  35   2.0000      -0.703896       -19.1540
  36   2.0000      -0.699295       -19.0288
  37   2.0000      -0.661027       -17.9875
  38   2.0000      -0.649419       -17.6716
  39   2.0000      -0.614174       -16.7125
  40   2.0000      -0.598204       -16.2780
  41   2.0000      -0.569998       -15.5104
  42   2.0000      -0.564004       -15.3473
  43   2.0000      -0.553299       -15.0560
  44   2.0000      -0.527581       -14.3562
  45   2.0000      -0.524665       -14.2769
  46   2.0000      -0.520294       -14.1579
  47   2.0000      -0.509611       -13.8672
  48   2.0000      -0.505343       -13.7511
  49   2.0000      -0.503711       -13.7067
  50   2.0000      -0.492160       -13.3924
  51   2.0000      -0.471620       -12.8334
  52   2.0000      -0.470392       -12.8000
  53   2.0000      -0.462930       -12.5970
  54   2.0000      -0.459130       -12.4936
  55   2.0000      -0.446882       -12.1603
  56   2.0000      -0.442681       -12.0460
  57   2.0000      -0.439559       -11.9610
  58   2.0000      -0.438045       -11.9198
  59   2.0000      -0.423404       -11.5214
  60   2.0000      -0.420556       -11.4439
  61   2.0000      -0.418508       -11.3882
  62   2.0000      -0.409193       -11.1347
  63   2.0000      -0.340554        -9.2669
  64   2.0000      -0.332833        -9.0568
  65   2.0000      -0.322142        -8.7659
  66   2.0000      -0.303156        -8.2493
  67   0.0000       0.028096         0.7645
  68   0.0000       0.060891         1.6569
  69   0.0000       0.113555         3.0900
  70   0.0000       0.117829         3.2063
  71   0.0000       0.125252         3.4083

MULLIKEN ATOMIC CHARGES
-----------------------
   0 S :    0.092482
   1 C :   -0.086871
   2 C :   -0.076980
   3 C :    0.009055
   4 C :   -0.173121
   5 H :    0.047112
   6 C :    0.061756
   7 H :    0.018831
   8 H :    0.014636
   9 C :   -0.043837
  10 H :    0.024358
  11 H :    0.024187
  12 C :   -0.059605
  13 H :    0.034056
  14 H :    0.041721
  15 H :    0.031437
  16 S :    0.099290
  17 C :   -0.080302
  18 C :   -0.041124
  19 C :    0.005836
  20 C :   -0.193028
  21 H :    0.008033
  22 C :    0.071086
  23 H :    0.032284
  24 H :    0.022946
  25 C :   -0.046491
  26 H :    0.012279
  27 H :    0.008096
  28 C :   -0.096154
  29 H :    0.044587
  30 H :    0.048252
  31 H :    0.047562
  32 H :    0.027894
  33 H :    0.069742
Sum of atomic charges:   -0.0000000

LOEWDIN ATOMIC CHARGES
----------------------
   0 S :    0.384467
   1 C :   -0.174203
   2 C :   -0.061664
   3 C :   -0.061294
   4 C :   -0.187321
   5 H :    0.046830
   6 C :   -0.042933
   7 H :    0.033086
   8 H :    0.029053
   9 C :   -0.045386
  10 H :    0.028220
  11 H :    0.025077
  12 C :   -0.069703
  13 H :    0.030480
  14 H :    0.029685
  15 H :    0.025901
  16 S :    0.386639
  17 C :   -0.199975
  18 C :   -0.063001
  19 C :   -0.051876
  20 C :   -0.182769
  21 H :    0.020911
  22 C :   -0.023366
  23 H :    0.029563
  24 H :    0.033475
  25 C :   -0.032435
  26 H :    0.015797
  27 H :    0.012436
  28 C :   -0.071657
  29 H :    0.027934
  30 H :    0.036103
  31 H :    0.025051
  32 H :    0.013472
  33 H :    0.033402

  Mayer bond orders larger than 0.100000
B(  0-S ,  1-C ) :   1.1365 B(  0-S ,  4-C ) :   1.1400 B(  1-C ,  2-C ) :   1.5940
B(  1-C , 32-H ) :   0.9827 B(  2-C ,  3-C ) :   1.2259 B(  2-C ,  6-C ) :   1.0339
B(  3-C ,  4-C ) :   1.5900 B(  3-C ,  5-H ) :   0.9821 B(  4-C , 20-C ) :   1.0445
B(  6-C ,  7-H ) :   0.9403 B(  6-C ,  8-H ) :   0.9266 B(  6-C ,  9-C ) :   1.0672
B(  9-C , 10-H ) :   0.9501 B(  9-C , 11-H ) :   0.9483 B(  9-C , 12-C ) :   1.0808
B( 12-C , 13-H ) :   0.9734 B( 12-C , 14-H ) :   0.9750 B( 12-C , 15-H ) :   0.9752
B( 16-S , 17-C ) :   1.1407 B( 16-S , 20-C ) :   1.1295 B( 17-C , 18-C ) :   1.6350
B( 17-C , 33-H ) :   0.9649 B( 18-C , 19-C ) :   1.2119 B( 18-C , 21-H ) :   0.9860
B( 19-C , 20-C ) :   1.6302 B( 19-C , 22-C ) :   1.0464 B( 22-C , 23-H ) :   0.9312
B( 22-C , 24-H ) :   0.9429 B( 22-C , 25-C ) :   1.0539 B( 25-C , 26-H ) :   0.9576
B( 25-C , 27-H ) :   0.9542 B( 25-C , 28-C ) :   1.0697 B( 28-C , 29-H ) :   0.9774
B( 28-C , 30-H ) :   0.9761 B( 28-C , 31-H ) :   0.9781

Dispersion correction           -0.013744896
FINAL SINGLE POINT ENERGY     -1339.869824111891

DIPOLE MOMENT
-------------
                                X             Y             Z
Electronic contribution:     -6.16273      14.85411     -22.20539
Nuclear contribution   :      6.35066     -15.11028      22.56993
                        -----------------------------------------
Total Dipole Moment    :      0.18793      -0.25617       0.36454
                        -----------------------------------------
Magnitude (a.u.)       :      0.48356
Magnitude (Debye)      :      1.22912

Rotational constants in cm-1:     0.016826     0.008252     0.006538
Rotational constants in MHz :   504.422131   247.399271   196.009082

                             ****ORCA TERMINATED NORMALLY****
TOTAL RUN TIME: 0 days 0 hours 0 minutes 20 seconds 979 msec
