                         Program Version 4.2.1 -  RELEASE  -
|  1> ! wB97X-D3 SP def2-SVP
|  2> %pal
|  3> nprocs 24
|  4> end
|  5>
|  6> * xyz 0 1
|  7> S 	 -40.2956 	 -8.58153 	 18.1317
|  8> C 	 -38.9757 	 -9.73803 	 18.2063
|  9> C 	 -39.3382 	 -10.9199 	 18.8253
| 10> C 	 -40.5921 	 -10.7953 	 19.4858
| 11> C 	 -41.2538 	 -9.61839 	 19.2015
| 12> H 	 -41.0483 	 -11.6132 	 20.0802
| 13> C 	 -38.4963 	 -12.1892 	 18.9399
| 14> H 	 -37.812 	 -12.3371 	 18.1445
| 15> H 	 -39.2127 	 -13.0067 	 18.7227
| 16> C 	 -37.8029 	 -12.323 	 20.3112
| 17> H 	 -37.0263 	 -11.521 	 20.1383
| 18> H 	 -38.3676 	 -12.0113 	 21.175
| 19> C 	 -37.1202 	 -13.6604 	 20.6005
| 20> H 	 -36.3551 	 -13.4497 	 21.3226
| 21> H 	 -37.756 	 -14.4453 	 21.049
| 22> H 	 -36.5888 	 -14.0376 	 19.78
| 23> S 	 -42.155 	 -7.90143 	 21.1297
| 24> C 	 -43.8275 	 -7.79734 	 21.6219
| 25> C 	 -44.3935 	 -8.94122 	 21.0754
| 26> C 	 -43.56 	 -9.74221 	 20.2332
| 27> C 	 -42.3703 	 -9.12918 	 19.9321
| 28> H 	 -45.4108 	 -9.14344 	 21.2504
| 29> C 	 -44.1672 	 -10.9658 	 19.472
| 30> H 	 -45.0557 	 -11.3204 	 20.0128
| 31> H 	 -43.4306 	 -11.8002 	 19.6207
| 32> C 	 -44.641 	 -10.7497 	 18.0635
| 33> H 	 -43.8453 	 -10.1821 	 17.485
| 34> H 	 -45.5388 	 -10.1421 	 17.9825
| 35> C 	 -44.9195 	 -12.0502 	 17.3691
| 36> H 	 -45.8179 	 -12.4648 	 17.7592
| 37> H 	 -44.0984 	 -12.7637 	 17.2872
| 38> H 	 -45.2233 	 -11.7637 	 16.3279
| 39> H 	 -38.0356 	 -9.47294 	 17.8082
| 40> H 	 -44.3805 	 -7.07878 	 22.2186
| 41> *
| 42>
| 43>                          ****END OF INPUT****

CARTESIAN COORDINATES (ANGSTROEM)
---------------------------------
  S    -40.295600   -8.581530   18.131700
  C    -38.975700   -9.738030   18.206300
  C    -39.338200  -10.919900   18.825300
  C    -40.592100  -10.795300   19.485800
  C    -41.253800   -9.618390   19.201500
  H    -41.048300  -11.613200   20.080200
  C    -38.496300  -12.189200   18.939900
  H    -37.812000  -12.337100   18.144500
  H    -39.212700  -13.006700   18.722700
  C    -37.802900  -12.323000   20.311200
  H    -37.026300  -11.521000   20.138300
  H    -38.367600  -12.011300   21.175000
  C    -37.120200  -13.660400   20.600500
  H    -36.355100  -13.449700   21.322600
  H    -37.756000  -14.445300   21.049000
  H    -36.588800  -14.037600   19.780000
  S    -42.155000   -7.901430   21.129700
  C    -43.827500   -7.797340   21.621900
  C    -44.393500   -8.941220   21.075400
  C    -43.560000   -9.742210   20.233200
  C    -42.370300   -9.129180   19.932100
  H    -45.410800   -9.143440   21.250400
  C    -44.167200  -10.965800   19.472000
  H    -45.055700  -11.320400   20.012800
  H    -43.430600  -11.800200   19.620700
  C    -44.641000  -10.749700   18.063500
  H    -43.845300  -10.182100   17.485000
  H    -45.538800  -10.142100   17.982500
  C    -44.919500  -12.050200   17.369100
  H    -45.817900  -12.464800   17.759200
  H    -44.098400  -12.763700   17.287200
  H    -45.223300  -11.763700   16.327900
  H    -38.035600   -9.472940   17.808200
  H    -44.380500   -7.078780   22.218600

 Total Charge           Charge          ....    0
 Multiplicity           Mult            ....    1
 Number of Electrons    NEL             ....  134
 Basis Dimension        Dim             ....  322

ORBITAL ENERGIES
----------------

  NO   OCC          E(Eh)            E(eV)
   0   2.0000     -88.966834     -2420.9106
   1   2.0000     -88.956914     -2420.6407
   2   2.0000     -10.327107      -281.0149
   3   2.0000     -10.318726      -280.7868
   4   2.0000     -10.315519      -280.6996
   5   2.0000     -10.315433      -280.6972
   6   2.0000     -10.303697      -280.3778
   7   2.0000     -10.299276      -280.2576
   8   2.0000     -10.297949      -280.2214
   9   2.0000     -10.293948      -280.1126
  10   2.0000     -10.292511      -280.0735
  11   2.0000     -10.291485      -280.0456
  12   2.0000     -10.286022      -279.8969
  13   2.0000     -10.283030      -279.8155
  14   2.0000     -10.275259      -279.6040
  15   2.0000     -10.273631      -279.5597
  16   2.0000      -8.081363      -219.9051
  17   2.0000      -8.072213      -219.6561
  18   2.0000      -6.039792      -164.3511
  19   2.0000      -6.035944      -164.2464
  20   2.0000      -6.032174      -164.1438
  21   2.0000      -6.030788      -164.1061
  22   2.0000      -6.026570      -163.9913
  23   2.0000      -6.022854      -163.8902
  24   2.0000      -1.010491       -27.4968
  25   2.0000      -0.985238       -26.8097
  26   2.0000      -0.911538       -24.8042
  27   2.0000      -0.909148       -24.7392
  28   2.0000      -0.874300       -23.7909
  29   2.0000      -0.852601       -23.2005
  30   2.0000      -0.843252       -22.9460
  31   2.0000      -0.814359       -22.1598
  32   2.0000      -0.783341       -21.3158
  33   2.0000      -0.771027       -20.9807
  34   2.0000      -0.708044       -19.2669
  35   2.0000      -0.702399       -19.1133
  36   2.0000      -0.688405       -18.7324
  37   2.0000      -0.661535       -18.0013
  38   2.0000      -0.645978       -17.5780
  39   2.0000      -0.624042       -16.9810
  40   2.0000      -0.589191       -16.0327
  41   2.0000      -0.568681       -15.4746
  42   2.0000      -0.566560       -15.4169
  43   2.0000      -0.560007       -15.2386
  44   2.0000      -0.530600       -14.4384
  45   2.0000      -0.524913       -14.2836
  46   2.0000      -0.519761       -14.1434
  47   2.0000      -0.513111       -13.9625
  48   2.0000      -0.506442       -13.7810
  49   2.0000      -0.498595       -13.5675
  50   2.0000      -0.498000       -13.5513
  51   2.0000      -0.480912       -13.0863
  52   2.0000      -0.475456       -12.9378
  53   2.0000      -0.469017       -12.7626
  54   2.0000      -0.457972       -12.4620
  55   2.0000      -0.452252       -12.3064
  56   2.0000      -0.445680       -12.1276
  57   2.0000      -0.437742       -11.9116
  58   2.0000      -0.428521       -11.6607
  59   2.0000      -0.424219       -11.5436
  60   2.0000      -0.410113       -11.1598
  61   2.0000      -0.405955       -11.0466
  62   2.0000      -0.402860       -10.9624
  63   2.0000      -0.343600        -9.3498
  64   2.0000      -0.327381        -8.9085
  65   2.0000      -0.320293        -8.7156
  66   2.0000      -0.299076        -8.1383
  67   0.0000       0.023960         0.6520
  68   0.0000       0.070066         1.9066
  69   0.0000       0.106359         2.8942
  70   0.0000       0.120363         3.2753
  71   0.0000       0.135551         3.6885

MULLIKEN ATOMIC CHARGES
-----------------------
   0 S :    0.112673
   1 C :   -0.123899
   2 C :   -0.075130
   3 C :    0.021584
   4 C :   -0.172785
   5 H :    0.035061
   6 C :    0.082797
   7 H :    0.010499
   8 H :    0.022276
   9 C :   -0.101608
  10 H :    0.029221
  11 H :    0.037183
  12 C :   -0.005127
  13 H :    0.024328
  14 H :    0.042386
  15 H :    0.013865
  16 S :    0.098995
  17 C :   -0.083475
  18 C :   -0.033318
  19 C :   -0.030907
  20 C :   -0.124488
  21 H :   -0.004101
  22 C :    0.046502
  23 H :    0.011350
  24 H :    0.022534
  25 C :   -0.064546
  26 H :    0.035730
  27 H :    0.027261
  28 C :   -0.039303
  29 H :    0.018932
  30 H :    0.041717
  31 H :    0.027849
  32 H :    0.035742
  33 H :    0.060202
Sum of atomic charges:    0.0000000

LOEWDIN ATOMIC CHARGES
----------------------
   0 S :    0.397251
   1 C :   -0.177723
   2 C :   -0.062459
   3 C :   -0.045562
   4 C :   -0.198051
   5 H :    0.039307
   6 C :   -0.032369
   7 H :    0.023020
   8 H :    0.029530
   9 C :   -0.041026
  10 H :    0.032615
  11 H :    0.024515
  12 C :   -0.063974
  13 H :    0.028719
  14 H :    0.030277
  15 H :    0.017417
  16 S :    0.416150
  17 C :   -0.193053
  18 C :   -0.070473
  19 C :   -0.063114
  20 C :   -0.208124
  21 H :    0.018003
  22 C :   -0.037173
  23 H :    0.028015
  24 H :    0.030239
  25 C :   -0.045626
  26 H :    0.028389
  27 H :    0.026742
  28 C :   -0.063001
  29 H :    0.018508
  30 H :    0.025350
  31 H :    0.032546
  32 H :    0.017160
  33 H :    0.037974

  Mayer bond orders larger than 0.100000
B(  0-S ,  1-C ) :   1.1510 B(  0-S ,  4-C ) :   1.1336 B(  1-C ,  2-C ) :   1.5944
B(  1-C , 32-H ) :   0.9783 B(  2-C ,  3-C ) :   1.2477 B(  2-C ,  6-C ) :   1.0236
B(  3-C ,  4-C ) :   1.5839 B(  3-C ,  5-H ) :   0.9804 B(  4-C , 20-C ) :   1.0504
B(  6-C ,  7-H ) :   0.9426 B(  6-C ,  8-H ) :   0.9385 B(  6-C ,  9-C ) :   1.0407
B(  9-C , 10-H ) :   0.9561 B(  9-C , 11-H ) :   0.9641 B(  9-C , 12-C ) :   1.0823
B( 12-C , 13-H ) :   0.9707 B( 12-C , 14-H ) :   0.9746 B( 12-C , 15-H ) :   0.9709
B( 16-S , 17-C ) :   1.1527 B( 16-S , 20-C ) :   1.1541 B( 17-C , 18-C ) :   1.5784
B( 17-C , 20-C ) :   0.1086 B( 17-C , 33-H ) :   0.9742 B( 18-C , 19-C ) :   1.2627
B( 18-C , 21-H ) :   0.9956 B( 19-C , 20-C ) :   1.5564 B( 19-C , 22-C ) :   1.0428
B( 22-C , 23-H ) :   0.9340 B( 22-C , 24-H ) :   0.9361 B( 22-C , 25-C ) :   1.0670
B( 25-C , 26-H ) :   0.9558 B( 25-C , 27-H ) :   0.9503 B( 25-C , 28-C ) :   1.0883
B( 28-C , 29-H ) :   0.9726 B( 28-C , 30-H ) :   0.9760 B( 28-C , 31-H ) :   0.9696

Dispersion correction           -0.013963667
FINAL SINGLE POINT ENERGY     -1339.860985519141

DIPOLE MOMENT
-------------
                                X             Y             Z
Electronic contribution:     -0.89589      24.93359       3.33236
Nuclear contribution   :      0.90787     -25.57607      -3.31122
                        -----------------------------------------
Total Dipole Moment    :      0.01198      -0.64248       0.02114
                        -----------------------------------------
Magnitude (a.u.)       :      0.64294
Magnitude (Debye)      :      1.63423

Rotational constants in cm-1:     0.017078     0.008252     0.007202
Rotational constants in MHz :   511.971164   247.396246   215.896178

                             ****ORCA TERMINATED NORMALLY****
TOTAL RUN TIME: 0 days 0 hours 0 minutes 21 seconds 286 msec
