                         Program Version 4.2.1 -  RELEASE  -
|  1> ! wB97X-D3 SP def2-SVP
|  2> %pal
|  3> nprocs 24
|  4> end
|  5>
|  6> * xyz 0 1
|  7> S 	 -16.4927 	 -30.9663 	 -101.757
|  8> C 	 -16.7494 	 -29.5996 	 -100.692
|  9> C 	 -17.6174 	 -29.8152 	 -99.6706
| 10> C 	 -18.2668 	 -31.0927 	 -99.85
| 11> C 	 -17.8035 	 -31.7817 	 -100.932
| 12> H 	 -19.0534 	 -31.5948 	 -99.1786
| 13> C 	 -17.8744 	 -28.9891 	 -98.4278
| 14> H 	 -18.9281 	 -29.0263 	 -98.0931
| 15> H 	 -17.6799 	 -28.0337 	 -98.6898
| 16> C 	 -17.0267 	 -29.3252 	 -97.1746
| 17> H 	 -17.2315 	 -28.6169 	 -96.3599
| 18> H 	 -17.3813 	 -30.2564 	 -96.7512
| 19> C 	 -15.5199 	 -29.4626 	 -97.3604
| 20> H 	 -15.2871 	 -30.0141 	 -98.226
| 21> H 	 -14.9872 	 -28.5299 	 -97.5678
| 22> H 	 -14.935 	 -29.9089 	 -96.5145
| 23> S 	 -19.0108 	 -32.806 	 -103.062
| 24> C 	 -19.3692 	 -34.5025 	 -103.162
| 25> C 	 -19.2422 	 -35.1308 	 -101.922
| 26> C 	 -18.6138 	 -34.2962 	 -100.94
| 27> C 	 -18.2872 	 -33.049 	 -101.466
| 28> H 	 -19.554 	 -36.1371 	 -101.795
| 29> C 	 -18.2309 	 -34.7744 	 -99.5567
| 30> H 	 -18.9395 	 -35.4784 	 -99.2117
| 31> H 	 -18.3405 	 -33.9426 	 -98.8814
| 32> C 	 -16.8644 	 -35.3912 	 -99.5608
| 33> H 	 -16.7482 	 -36.2268 	 -100.25
| 34> H 	 -16.7236 	 -35.8157 	 -98.5368
| 35> C 	 -15.6981 	 -34.4556 	 -99.7853
| 36> H 	 -15.5145 	 -33.7671 	 -98.9674
| 37> H 	 -15.9085 	 -33.9444 	 -100.714
| 38> H 	 -14.7839 	 -34.9973 	 -99.7833
| 39> H 	 -16.031 	 -28.8 	 -100.587
| 40> H 	 -19.914 	 -34.8433 	 -104.05
| 41> *
| 42>
| 43>                          ****END OF INPUT****

CARTESIAN COORDINATES (ANGSTROEM)
---------------------------------
  S    -16.492700  -30.966300  -101.757000
  C    -16.749400  -29.599600  -100.692000
  C    -17.617400  -29.815200  -99.670600
  C    -18.266800  -31.092700  -99.850000
  C    -17.803500  -31.781700  -100.932000
  H    -19.053400  -31.594800  -99.178600
  C    -17.874400  -28.989100  -98.427800
  H    -18.928100  -29.026300  -98.093100
  H    -17.679900  -28.033700  -98.689800
  C    -17.026700  -29.325200  -97.174600
  H    -17.231500  -28.616900  -96.359900
  H    -17.381300  -30.256400  -96.751200
  C    -15.519900  -29.462600  -97.360400
  H    -15.287100  -30.014100  -98.226000
  H    -14.987200  -28.529900  -97.567800
  H    -14.935000  -29.908900  -96.514500
  S    -19.010800  -32.806000  -103.062000
  C    -19.369200  -34.502500  -103.162000
  C    -19.242200  -35.130800  -101.922000
  C    -18.613800  -34.296200  -100.940000
  C    -18.287200  -33.049000  -101.466000
  H    -19.554000  -36.137100  -101.795000
  C    -18.230900  -34.774400  -99.556700
  H    -18.939500  -35.478400  -99.211700
  H    -18.340500  -33.942600  -98.881400
  C    -16.864400  -35.391200  -99.560800
  H    -16.748200  -36.226800  -100.250000
  H    -16.723600  -35.815700  -98.536800
  C    -15.698100  -34.455600  -99.785300
  H    -15.514500  -33.767100  -98.967400
  H    -15.908500  -33.944400  -100.714000
  H    -14.783900  -34.997300  -99.783300
  H    -16.031000  -28.800000  -100.587000
  H    -19.914000  -34.843300  -104.050000

 Total Charge           Charge          ....    0
 Multiplicity           Mult            ....    1
 Number of Electrons    NEL             ....  134
 Basis Dimension        Dim             ....  322

ORBITAL ENERGIES
----------------

  NO   OCC          E(Eh)            E(eV)
   0   2.0000     -88.967921     -2420.9402
   1   2.0000     -88.960700     -2420.7437
   2   2.0000     -10.325929      -280.9828
   3   2.0000     -10.323685      -280.9218
   4   2.0000     -10.317557      -280.7550
   5   2.0000     -10.310770      -280.5703
   6   2.0000     -10.305217      -280.4192
   7   2.0000     -10.301732      -280.3244
   8   2.0000     -10.297737      -280.2157
   9   2.0000     -10.295026      -280.1419
  10   2.0000     -10.290042      -280.0063
  11   2.0000     -10.289341      -279.9872
  12   2.0000     -10.285895      -279.8934
  13   2.0000     -10.281543      -279.7750
  14   2.0000     -10.273924      -279.5677
  15   2.0000     -10.262643      -279.2607
  16   2.0000      -8.082540      -219.9371
  17   2.0000      -8.075855      -219.7552
  18   2.0000      -6.041054      -164.3854
  19   2.0000      -6.037254      -164.2820
  20   2.0000      -6.034181      -164.1984
  21   2.0000      -6.033082      -164.1685
  22   2.0000      -6.030419      -164.0961
  23   2.0000      -6.026652      -163.9935
  24   2.0000      -1.008523       -27.4433
  25   2.0000      -0.984048       -26.7773
  26   2.0000      -0.916020       -24.9262
  27   2.0000      -0.912577       -24.8325
  28   2.0000      -0.867640       -23.6097
  29   2.0000      -0.849846       -23.1255
  30   2.0000      -0.845089       -22.9960
  31   2.0000      -0.811372       -22.0786
  32   2.0000      -0.791208       -21.5299
  33   2.0000      -0.779993       -21.2247
  34   2.0000      -0.708716       -19.2851
  35   2.0000      -0.697550       -18.9813
  36   2.0000      -0.689250       -18.7554
  37   2.0000      -0.662932       -18.0393
  38   2.0000      -0.639601       -17.4044
  39   2.0000      -0.617338       -16.7986
  40   2.0000      -0.600177       -16.3317
  41   2.0000      -0.566671       -15.4199
  42   2.0000      -0.558929       -15.2092
  43   2.0000      -0.548736       -14.9319
  44   2.0000      -0.547246       -14.8913
  45   2.0000      -0.535782       -14.5794
  46   2.0000      -0.519813       -14.1448
  47   2.0000      -0.509761       -13.8713
  48   2.0000      -0.502031       -13.6610
  49   2.0000      -0.489498       -13.3199
  50   2.0000      -0.486026       -13.2254
  51   2.0000      -0.485123       -13.2009
  52   2.0000      -0.470830       -12.8119
  53   2.0000      -0.463344       -12.6082
  54   2.0000      -0.457558       -12.4508
  55   2.0000      -0.447839       -12.1863
  56   2.0000      -0.440105       -11.9759
  57   2.0000      -0.436917       -11.8891
  58   2.0000      -0.436408       -11.8753
  59   2.0000      -0.432068       -11.7572
  60   2.0000      -0.424139       -11.5414
  61   2.0000      -0.414780       -11.2867
  62   2.0000      -0.406492       -11.0612
  63   2.0000      -0.342997        -9.3334
  64   2.0000      -0.333688        -9.0801
  65   2.0000      -0.325575        -8.8594
  66   2.0000      -0.297349        -8.0913
  67   0.0000       0.033539         0.9126
  68   0.0000       0.063588         1.7303
  69   0.0000       0.104939         2.8555
  70   0.0000       0.105946         2.8829
  71   0.0000       0.130067         3.5393

MULLIKEN ATOMIC CHARGES
-----------------------
   0 S :    0.123114
   1 C :   -0.100610
   2 C :   -0.124348
   3 C :    0.023003
   4 C :   -0.183284
   5 H :    0.043008
   6 C :    0.129822
   7 H :    0.034442
   8 H :   -0.007878
   9 C :   -0.055474
  10 H :    0.032016
  11 H :    0.017402
  12 C :   -0.066468
  13 H :    0.027546
  14 H :    0.018121
  15 H :    0.040997
  16 S :    0.099592
  17 C :   -0.094334
  18 C :   -0.030518
  19 C :   -0.061777
  20 C :   -0.171592
  21 H :    0.008348
  22 C :    0.155293
  23 H :    0.005569
  24 H :    0.004743
  25 C :   -0.086504
  26 H :    0.027944
  27 H :    0.022689
  28 C :   -0.013655
  29 H :    0.021614
  30 H :    0.035159
  31 H :    0.019701
  32 H :    0.039185
  33 H :    0.067135
Sum of atomic charges:   -0.0000000

LOEWDIN ATOMIC CHARGES
----------------------
   0 S :    0.406218
   1 C :   -0.195211
   2 C :   -0.060040
   3 C :   -0.067615
   4 C :   -0.201113
   5 H :    0.044706
   6 C :   -0.020234
   7 H :    0.040273
   8 H :    0.014113
   9 C :   -0.037119
  10 H :    0.027668
  11 H :    0.020664
  12 C :   -0.075097
  13 H :    0.018627
  14 H :    0.022353
  15 H :    0.034325
  16 S :    0.407849
  17 C :   -0.187758
  18 C :   -0.067312
  19 C :   -0.051346
  20 C :   -0.200512
  21 H :    0.026296
  22 C :   -0.025509
  23 H :    0.027842
  24 H :    0.027553
  25 C :   -0.038911
  26 H :    0.025009
  27 H :    0.025100
  28 C :   -0.061201
  29 H :    0.023711
  30 H :    0.021727
  31 H :    0.022860
  32 H :    0.023076
  33 H :    0.029009

  Mayer bond orders larger than 0.100000
B(  0-S ,  1-C ) :   1.1206 B(  0-S ,  4-C ) :   1.1468 B(  1-C ,  2-C ) :   1.6659
B(  1-C , 32-H ) :   0.9567 B(  2-C ,  3-C ) :   1.1935 B(  2-C ,  6-C ) :   1.0300
B(  3-C ,  4-C ) :   1.6321 B(  3-C ,  5-H ) :   0.9768 B(  4-C , 20-C ) :   1.0025
B(  6-C ,  7-H ) :   0.9404 B(  6-C ,  8-H ) :   0.9281 B(  6-C ,  9-C ) :   1.0652
B(  9-C , 10-H ) :   0.9564 B(  9-C , 11-H ) :   0.9559 B(  9-C , 12-C ) :   1.0745
B( 12-C , 13-H ) :   0.9720 B( 12-C , 14-H ) :   0.9737 B( 12-C , 15-H ) :   0.9740
B( 16-S , 17-C ) :   1.1669 B( 16-S , 20-C ) :   1.1575 B( 17-C , 18-C ) :   1.5860
B( 17-C , 20-C ) :   0.1061 B( 17-C , 33-H ) :   0.9674 B( 18-C , 19-C ) :   1.2343
B( 18-C , 21-H ) :   0.9996 B( 19-C , 20-C ) :   1.5982 B( 19-C , 22-C ) :   1.0445
B( 22-C , 23-H ) :   0.9189 B( 22-C , 24-H ) :   0.9258 B( 22-C , 25-C ) :   1.0811
B( 25-C , 26-H ) :   0.9542 B( 25-C , 27-H ) :   0.9495 B( 25-C , 28-C ) :   1.0929
B( 28-C , 29-H ) :   0.9721 B( 28-C , 30-H ) :   0.9698 B( 28-C , 31-H ) :   0.9685

Dispersion correction           -0.015904817
FINAL SINGLE POINT ENERGY     -1339.876466823413

DIPOLE MOMENT
-------------
                                X             Y             Z
Electronic contribution:     -9.10296       0.79054     -24.03774
Nuclear contribution   :      8.99032      -0.96220      24.71606
                        -----------------------------------------
Total Dipole Moment    :     -0.11264      -0.17166       0.67832
                        -----------------------------------------
Magnitude (a.u.)       :      0.70871
Magnitude (Debye)      :      1.80139

Rotational constants in cm-1:     0.021707     0.009241     0.007747
Rotational constants in MHz :   650.746152   277.046842   232.250885

                             ****ORCA TERMINATED NORMALLY****
TOTAL RUN TIME: 0 days 0 hours 0 minutes 22 seconds 945 msec
