                         Program Version 4.2.1 -  RELEASE  -
|  1> ! wB97X-D3 SP def2-SVP
|  2> %pal
|  3> nprocs 24
|  4> end
|  5>
|  6> * xyz 0 1
|  7> S 	 -43.8192 	 -53.3703 	 -71.3068
|  8> C 	 -42.672 	 -54.4546 	 -70.4238
|  9> C 	 -41.4681 	 -53.8395 	 -70.1283
| 10> C 	 -41.5059 	 -52.4727 	 -70.5912
| 11> C 	 -42.6258 	 -52.1104 	 -71.2978
| 12> H 	 -40.7485 	 -51.7767 	 -70.3461
| 13> C 	 -40.2962 	 -54.2633 	 -69.3241
| 14> H 	 -39.3567 	 -54.5648 	 -69.8681
| 15> H 	 -40.6283 	 -55.2159 	 -68.8875
| 16> C 	 -39.942 	 -53.2994 	 -68.2533
| 17> H 	 -39.4005 	 -52.4724 	 -68.7535
| 18> H 	 -40.8315 	 -52.7404 	 -67.9695
| 19> C 	 -39.2374 	 -53.8154 	 -66.9627
| 20> H 	 -38.8177 	 -53.0311 	 -66.3978
| 21> H 	 -39.9068 	 -54.3741 	 -66.3336
| 22> H 	 -38.3124 	 -54.3716 	 -67.0913
| 23> S 	 -41.9802 	 -49.9887 	 -73.0087
| 24> C 	 -43.0909 	 -48.5939 	 -73.0681
| 25> C 	 -44.0164 	 -48.5991 	 -72.0457
| 26> C 	 -44.0738 	 -49.9237 	 -71.4197
| 27> C 	 -42.9819 	 -50.7445 	 -71.7666
| 28> H 	 -44.5592 	 -47.7297 	 -72.0127
| 29> C 	 -45.1625 	 -50.4037 	 -70.4426
| 30> H 	 -44.8124 	 -50.7696 	 -69.5203
| 31> H 	 -45.7591 	 -51.2953 	 -70.8741
| 32> C 	 -46.1361 	 -49.3192 	 -70.0399
| 33> H 	 -46.7056 	 -49.0803 	 -70.9746
| 34> H 	 -45.6574 	 -48.4909 	 -69.6569
| 35> C 	 -47.2608 	 -49.7179 	 -68.9624
| 36> H 	 -47.7732 	 -50.6752 	 -69.0724
| 37> H 	 -48.0235 	 -48.9593 	 -68.913
| 38> H 	 -46.7356 	 -49.6844 	 -67.9989
| 39> H 	 -42.9721 	 -55.386 	 -70.013
| 40> H 	 -42.9396 	 -47.7385 	 -73.751
| 41> *
| 42>
| 43>                          ****END OF INPUT****

CARTESIAN COORDINATES (ANGSTROEM)
---------------------------------
  S    -43.819200  -53.370300  -71.306800
  C    -42.672000  -54.454600  -70.423800
  C    -41.468100  -53.839500  -70.128300
  C    -41.505900  -52.472700  -70.591200
  C    -42.625800  -52.110400  -71.297800
  H    -40.748500  -51.776700  -70.346100
  C    -40.296200  -54.263300  -69.324100
  H    -39.356700  -54.564800  -69.868100
  H    -40.628300  -55.215900  -68.887500
  C    -39.942000  -53.299400  -68.253300
  H    -39.400500  -52.472400  -68.753500
  H    -40.831500  -52.740400  -67.969500
  C    -39.237400  -53.815400  -66.962700
  H    -38.817700  -53.031100  -66.397800
  H    -39.906800  -54.374100  -66.333600
  H    -38.312400  -54.371600  -67.091300
  S    -41.980200  -49.988700  -73.008700
  C    -43.090900  -48.593900  -73.068100
  C    -44.016400  -48.599100  -72.045700
  C    -44.073800  -49.923700  -71.419700
  C    -42.981900  -50.744500  -71.766600
  H    -44.559200  -47.729700  -72.012700
  C    -45.162500  -50.403700  -70.442600
  H    -44.812400  -50.769600  -69.520300
  H    -45.759100  -51.295300  -70.874100
  C    -46.136100  -49.319200  -70.039900
  H    -46.705600  -49.080300  -70.974600
  H    -45.657400  -48.490900  -69.656900
  C    -47.260800  -49.717900  -68.962400
  H    -47.773200  -50.675200  -69.072400
  H    -48.023500  -48.959300  -68.913000
  H    -46.735600  -49.684400  -67.998900
  H    -42.972100  -55.386000  -70.013000
  H    -42.939600  -47.738500  -73.751000

 Total Charge           Charge          ....    0
 Multiplicity           Mult            ....    1
 Number of Electrons    NEL             ....  134
 Basis Dimension        Dim             ....  322

ORBITAL ENERGIES
----------------

  NO   OCC          E(Eh)            E(eV)
   0   2.0000     -88.967295     -2420.9232
   1   2.0000     -88.965425     -2420.8723
   2   2.0000     -10.330174      -281.0983
   3   2.0000     -10.329602      -281.0828
   4   2.0000     -10.321582      -280.8645
   5   2.0000     -10.317884      -280.7639
   6   2.0000     -10.315034      -280.6863
   7   2.0000     -10.302890      -280.3559
   8   2.0000     -10.296576      -280.1841
   9   2.0000     -10.293299      -280.0949
  10   2.0000     -10.291310      -280.0408
  11   2.0000     -10.288497      -279.9642
  12   2.0000     -10.288111      -279.9537
  13   2.0000     -10.283714      -279.8341
  14   2.0000     -10.280394      -279.7437
  15   2.0000     -10.278315      -279.6872
  16   2.0000      -8.081057      -219.8967
  17   2.0000      -8.079347      -219.8502
  18   2.0000      -6.039716      -164.3490
  19   2.0000      -6.037862      -164.2986
  20   2.0000      -6.035755      -164.2412
  21   2.0000      -6.034015      -164.1939
  22   2.0000      -6.031675      -164.1302
  23   2.0000      -6.030110      -164.0876
  24   2.0000      -0.999924       -27.2093
  25   2.0000      -0.977592       -26.6016
  26   2.0000      -0.919539       -25.0219
  27   2.0000      -0.903180       -24.5768
  28   2.0000      -0.867163       -23.5967
  29   2.0000      -0.846891       -23.0451
  30   2.0000      -0.837692       -22.7948
  31   2.0000      -0.816672       -22.2228
  32   2.0000      -0.789321       -21.4785
  33   2.0000      -0.773202       -21.0399
  34   2.0000      -0.713229       -19.4079
  35   2.0000      -0.700789       -19.0694
  36   2.0000      -0.690734       -18.7958
  37   2.0000      -0.652988       -17.7687
  38   2.0000      -0.638094       -17.3634
  39   2.0000      -0.627252       -17.0684
  40   2.0000      -0.596854       -16.2412
  41   2.0000      -0.576410       -15.6849
  42   2.0000      -0.570656       -15.5283
  43   2.0000      -0.560282       -15.2460
  44   2.0000      -0.524277       -14.2663
  45   2.0000      -0.521071       -14.1791
  46   2.0000      -0.515216       -14.0197
  47   2.0000      -0.507445       -13.8083
  48   2.0000      -0.504347       -13.7240
  49   2.0000      -0.498049       -13.5526
  50   2.0000      -0.484135       -13.1740
  51   2.0000      -0.478273       -13.0145
  52   2.0000      -0.471965       -12.8428
  53   2.0000      -0.467627       -12.7248
  54   2.0000      -0.459828       -12.5126
  55   2.0000      -0.452052       -12.3010
  56   2.0000      -0.450079       -12.2473
  57   2.0000      -0.439858       -11.9692
  58   2.0000      -0.431770       -11.7491
  59   2.0000      -0.424912       -11.5624
  60   2.0000      -0.417810       -11.3692
  61   2.0000      -0.410469       -11.1694
  62   2.0000      -0.407945       -11.1008
  63   2.0000      -0.341927        -9.3043
  64   2.0000      -0.330697        -8.9987
  65   2.0000      -0.327532        -8.9126
  66   2.0000      -0.295481        -8.0405
  67   0.0000       0.032252         0.8776
  68   0.0000       0.066831         1.8186
  69   0.0000       0.106402         2.8954
  70   0.0000       0.112757         3.0683
  71   0.0000       0.125407         3.4125

MULLIKEN ATOMIC CHARGES
-----------------------
   0 S :    0.098706
   1 C :   -0.119976
   2 C :   -0.075885
   3 C :    0.018986
   4 C :   -0.129445
   5 H :   -0.003961
   6 C :    0.102082
   7 H :    0.052978
   8 H :    0.004342
   9 C :   -0.135697
  10 H :    0.033710
  11 H :    0.035037
  12 C :    0.000388
  13 H :    0.016104
  14 H :    0.036583
  15 H :    0.021827
  16 S :    0.104034
  17 C :   -0.116908
  18 C :   -0.005140
  19 C :   -0.024505
  20 C :   -0.143410
  21 H :   -0.003478
  22 C :    0.061378
  23 H :    0.018710
  24 H :    0.051216
  25 C :   -0.110698
  26 H :    0.034846
  27 H :    0.023316
  28 C :   -0.044007
  29 H :    0.038260
  30 H :    0.028850
  31 H :    0.030564
  32 H :    0.033060
  33 H :    0.068134
Sum of atomic charges:   -0.0000000

LOEWDIN ATOMIC CHARGES
----------------------
   0 S :    0.398286
   1 C :   -0.172823
   2 C :   -0.055531
   3 C :   -0.059053
   4 C :   -0.193171
   5 H :    0.022825
   6 C :   -0.040202
   7 H :    0.042142
   8 H :    0.028109
   9 C :   -0.048361
  10 H :    0.025801
  11 H :    0.027606
  12 C :   -0.061254
  13 H :    0.025166
  14 H :    0.025843
  15 H :    0.026886
  16 S :    0.385536
  17 C :   -0.172150
  18 C :   -0.063119
  19 C :   -0.047593
  20 C :   -0.196905
  21 H :    0.022353
  22 C :   -0.042916
  23 H :    0.021642
  24 H :    0.037915
  25 C :   -0.036421
  26 H :    0.025685
  27 H :    0.012015
  28 C :   -0.064223
  29 H :    0.025036
  30 H :    0.023646
  31 H :    0.025236
  32 H :    0.018424
  33 H :    0.033567

  Mayer bond orders larger than 0.100000
B(  0-S ,  1-C ) :   1.1259 B(  0-S ,  4-C ) :   1.1400 B(  1-C ,  2-C ) :   1.6399
B(  1-C , 32-H ) :   0.9668 B(  2-C ,  3-C ) :   1.2113 B(  2-C ,  6-C ) :   1.0280
B(  3-C ,  4-C ) :   1.6130 B(  3-C ,  5-H ) :   0.9960 B(  4-C , 20-C ) :   1.0043
B(  6-C ,  7-H ) :   0.9267 B(  6-C ,  8-H ) :   0.9368 B(  6-C ,  9-C ) :   1.0599
B(  9-C , 10-H ) :   0.9435 B(  9-C , 11-H ) :   0.9605 B(  9-C , 12-C ) :   1.0817
B( 12-C , 13-H ) :   0.9692 B( 12-C , 14-H ) :   0.9751 B( 12-C , 15-H ) :   0.9723
B( 16-S , 17-C ) :   1.1479 B( 16-S , 20-C ) :   1.1380 B( 17-C , 18-C ) :   1.6445
B( 17-C , 33-H ) :   0.9580 B( 18-C , 19-C ) :   1.1897 B( 18-C , 21-H ) :   1.0033
B( 19-C , 20-C ) :   1.6146 B( 19-C , 22-C ) :   1.0281 B( 22-C , 23-H ) :   0.9334
B( 22-C , 24-H ) :   0.9308 B( 22-C , 25-C ) :   1.0862 B( 25-C , 26-H ) :   0.9540
B( 25-C , 27-H ) :   0.9555 B( 25-C , 28-C ) :   1.0738 B( 28-C , 29-H ) :   0.9785
B( 28-C , 30-H ) :   0.9763 B( 28-C , 31-H ) :   0.9772

Dispersion correction           -0.013623660
FINAL SINGLE POINT ENERGY     -1339.854409138492

DIPOLE MOMENT
-------------
                                X             Y             Z
Electronic contribution:      1.65472       0.14794     -22.68299
Nuclear contribution   :     -1.62105       0.05326      23.30519
                        -----------------------------------------
Total Dipole Moment    :      0.03367       0.20119       0.62220
                        -----------------------------------------
Magnitude (a.u.)       :      0.65479
Magnitude (Debye)      :      1.66434

Rotational constants in cm-1:     0.017348     0.007810     0.006739
Rotational constants in MHz :   520.082496   234.132836   202.027998

                             ****ORCA TERMINATED NORMALLY****
TOTAL RUN TIME: 0 days 0 hours 0 minutes 20 seconds 802 msec
