                         Program Version 4.2.1 -  RELEASE  -
|  1> ! wB97X-D3 SP def2-SVP
|  2> %pal
|  3> nprocs 24
|  4> end
|  5>
|  6> * xyz 0 1
|  7> S 	 -48.5533 	 15.2582 	 25.9438
|  8> C 	 -48.6055 	 16.4453 	 24.6493
|  9> C 	 -47.6763 	 17.4827 	 24.9569
| 10> C 	 -46.8566 	 17.169 	 26.0654
| 11> C 	 -47.1802 	 15.9617 	 26.6958
| 12> H 	 -45.9673 	 17.7121 	 26.3623
| 13> C 	 -47.371 	 18.7025 	 24.0752
| 14> H 	 -48.2376 	 18.8575 	 23.448
| 15> H 	 -46.5372 	 18.4038 	 23.3604
| 16> C 	 -47.1231 	 20.091 	 24.7898
| 17> H 	 -46.3493 	 19.9863 	 25.4834
| 18> H 	 -46.8393 	 20.9667 	 24.1693
| 19> C 	 -48.4087 	 20.589 	 25.542
| 20> H 	 -49.1256 	 21.1137 	 24.936
| 21> H 	 -48.7707 	 19.7503 	 26.1856
| 22> H 	 -48.1527 	 21.4359 	 26.1924
| 23> S 	 -46.1926 	 13.7909 	 27.963
| 24> C 	 -45.608 	 13.823 	 29.6311
| 25> C 	 -45.7238 	 15.0985 	 30.1817
| 26> C 	 -46.2685 	 16.054 	 29.1952
| 27> C 	 -46.5676 	 15.4885 	 27.9473
| 28> H 	 -45.4096 	 15.2462 	 31.2629
| 29> C 	 -46.5054 	 17.5373 	 29.5288
| 30> H 	 -46.1963 	 18.1768 	 28.703
| 31> H 	 -45.9367 	 17.7108 	 30.4465
| 32> C 	 -47.9382 	 17.9443 	 29.8581
| 33> H 	 -48.6734 	 17.7234 	 29.0889
| 34> H 	 -48.035 	 19.0124 	 30.1063
| 35> C 	 -48.3153 	 17.129 	 31.1234
| 36> H 	 -47.6453 	 17.1697 	 31.9822
| 37> H 	 -48.3337 	 16.0156 	 30.9602
| 38> H 	 -49.2553 	 17.4144 	 31.5221
| 39> H 	 -49.2814 	 16.5332 	 23.8716
| 40> H 	 -45.1393 	 13.0502 	 30.2012
| 41> *
| 42>
| 43>                          ****END OF INPUT****

CARTESIAN COORDINATES (ANGSTROEM)
---------------------------------
  S    -48.553300   15.258200   25.943800
  C    -48.605500   16.445300   24.649300
  C    -47.676300   17.482700   24.956900
  C    -46.856600   17.169000   26.065400
  C    -47.180200   15.961700   26.695800
  H    -45.967300   17.712100   26.362300
  C    -47.371000   18.702500   24.075200
  H    -48.237600   18.857500   23.448000
  H    -46.537200   18.403800   23.360400
  C    -47.123100   20.091000   24.789800
  H    -46.349300   19.986300   25.483400
  H    -46.839300   20.966700   24.169300
  C    -48.408700   20.589000   25.542000
  H    -49.125600   21.113700   24.936000
  H    -48.770700   19.750300   26.185600
  H    -48.152700   21.435900   26.192400
  S    -46.192600   13.790900   27.963000
  C    -45.608000   13.823000   29.631100
  C    -45.723800   15.098500   30.181700
  C    -46.268500   16.054000   29.195200
  C    -46.567600   15.488500   27.947300
  H    -45.409600   15.246200   31.262900
  C    -46.505400   17.537300   29.528800
  H    -46.196300   18.176800   28.703000
  H    -45.936700   17.710800   30.446500
  C    -47.938200   17.944300   29.858100
  H    -48.673400   17.723400   29.088900
  H    -48.035000   19.012400   30.106300
  C    -48.315300   17.129000   31.123400
  H    -47.645300   17.169700   31.982200
  H    -48.333700   16.015600   30.960200
  H    -49.255300   17.414400   31.522100
  H    -49.281400   16.533200   23.871600
  H    -45.139300   13.050200   30.201200

 Total Charge           Charge          ....    0
 Multiplicity           Mult            ....    1
 Number of Electrons    NEL             ....  134
 Basis Dimension        Dim             ....  322

ORBITAL ENERGIES
----------------

  NO   OCC          E(Eh)            E(eV)
   0   2.0000     -88.974241     -2421.1122
   1   2.0000     -88.966364     -2420.8978
   2   2.0000     -10.334029      -281.2032
   3   2.0000     -10.332092      -281.1505
   4   2.0000     -10.320771      -280.8424
   5   2.0000     -10.317419      -280.7513
   6   2.0000     -10.314683      -280.6768
   7   2.0000     -10.308517      -280.5090
   8   2.0000     -10.308363      -280.5048
   9   2.0000     -10.301520      -280.3186
  10   2.0000     -10.293881      -280.1108
  11   2.0000     -10.292376      -280.0698
  12   2.0000     -10.290678      -280.0236
  13   2.0000     -10.285516      -279.8831
  14   2.0000     -10.279761      -279.7265
  15   2.0000     -10.269852      -279.4569
  16   2.0000      -8.088714      -220.1051
  17   2.0000      -8.080972      -219.8944
  18   2.0000      -6.047193      -164.5525
  19   2.0000      -6.043012      -164.4387
  20   2.0000      -6.039750      -164.3500
  21   2.0000      -6.039581      -164.3454
  22   2.0000      -6.035345      -164.2301
  23   2.0000      -6.031774      -164.1329
  24   2.0000      -1.007327       -27.4108
  25   2.0000      -0.981767       -26.7153
  26   2.0000      -0.907709       -24.7000
  27   2.0000      -0.904048       -24.6004
  28   2.0000      -0.868446       -23.6316
  29   2.0000      -0.847758       -23.0687
  30   2.0000      -0.837175       -22.7807
  31   2.0000      -0.815404       -22.1883
  32   2.0000      -0.778866       -21.1940
  33   2.0000      -0.769934       -20.9510
  34   2.0000      -0.713344       -19.4111
  35   2.0000      -0.701940       -19.1008
  36   2.0000      -0.690593       -18.7920
  37   2.0000      -0.660271       -17.9669
  38   2.0000      -0.640157       -17.4196
  39   2.0000      -0.623412       -16.9639
  40   2.0000      -0.585038       -15.9197
  41   2.0000      -0.569054       -15.4847
  42   2.0000      -0.555800       -15.1241
  43   2.0000      -0.551327       -15.0024
  44   2.0000      -0.543655       -14.7936
  45   2.0000      -0.537749       -14.6329
  46   2.0000      -0.515952       -14.0398
  47   2.0000      -0.514201       -13.9921
  48   2.0000      -0.506186       -13.7740
  49   2.0000      -0.486903       -13.2493
  50   2.0000      -0.484583       -13.1862
  51   2.0000      -0.476795       -12.9743
  52   2.0000      -0.469661       -12.7801
  53   2.0000      -0.462683       -12.5902
  54   2.0000      -0.461141       -12.5483
  55   2.0000      -0.447874       -12.1873
  56   2.0000      -0.440834       -11.9957
  57   2.0000      -0.435464       -11.8496
  58   2.0000      -0.432287       -11.7631
  59   2.0000      -0.421660       -11.4740
  60   2.0000      -0.418220       -11.3803
  61   2.0000      -0.416898       -11.3444
  62   2.0000      -0.411063       -11.1856
  63   2.0000      -0.348726        -9.4893
  64   2.0000      -0.333952        -9.0873
  65   2.0000      -0.328844        -8.9483
  66   2.0000      -0.293197        -7.9783
  67   0.0000       0.024597         0.6693
  68   0.0000       0.067003         1.8232
  69   0.0000       0.110939         3.0188
  70   0.0000       0.114933         3.1275
  71   0.0000       0.125842         3.4243

MULLIKEN ATOMIC CHARGES
-----------------------
   0 S :    0.135839
   1 C :   -0.082659
   2 C :   -0.113009
   3 C :    0.003444
   4 C :   -0.116162
   5 H :    0.025933
   6 C :    0.050862
   7 H :    0.013285
   8 H :    0.064035
   9 C :   -0.061791
  10 H :    0.016578
  11 H :    0.037634
  12 C :   -0.086710
  13 H :    0.031647
  14 H :    0.057763
  15 H :    0.023167
  16 S :    0.100734
  17 C :   -0.082187
  18 C :   -0.068474
  19 C :   -0.062133
  20 C :   -0.164606
  21 H :    0.052420
  22 C :    0.078336
  23 H :    0.025182
  24 H :    0.018786
  25 C :   -0.042068
  26 H :    0.042946
  27 H :    0.036269
  28 C :   -0.086061
  29 H :    0.012068
  30 H :    0.047940
  31 H :    0.017769
  32 H :    0.022173
  33 H :    0.051053
Sum of atomic charges:    0.0000000

LOEWDIN ATOMIC CHARGES
----------------------
   0 S :    0.436041
   1 C :   -0.192941
   2 C :   -0.059434
   3 C :   -0.070409
   4 C :   -0.210200
   5 H :    0.031876
   6 C :   -0.036185
   7 H :    0.024835
   8 H :    0.044191
   9 C :   -0.038014
  10 H :    0.010245
  11 H :    0.032214
  12 C :   -0.073459
  13 H :    0.022468
  14 H :    0.032493
  15 H :    0.026929
  16 S :    0.407066
  17 C :   -0.182642
  18 C :   -0.079445
  19 C :   -0.052272
  20 C :   -0.201973
  21 H :    0.046833
  22 C :   -0.031997
  23 H :    0.026367
  24 H :    0.030835
  25 C :   -0.033815
  26 H :    0.027154
  27 H :    0.027750
  28 C :   -0.074590
  29 H :    0.018132
  30 H :    0.032870
  31 H :    0.015362
  32 H :    0.015131
  33 H :    0.028584

  Mayer bond orders larger than 0.100000
B(  0-S ,  1-C ) :   1.1501 B(  0-S ,  4-C ) :   1.1807 B(  1-C ,  2-C ) :   1.5559
B(  1-C ,  4-C ) :   0.1105 B(  1-C , 32-H ) :   0.9784 B(  2-C ,  3-C ) :   1.2769
B(  2-C ,  6-C ) :   1.0216 B(  3-C ,  4-C ) :   1.5270 B(  3-C ,  5-H ) :   0.9944
B(  4-C , 20-C ) :   1.0316 B(  6-C ,  7-H ) :   0.9423 B(  6-C ,  8-H ) :   0.9457
B(  6-C ,  9-C ) :   1.0520 B(  9-C , 10-H ) :   0.9619 B(  9-C , 11-H ) :   0.9597
B(  9-C , 12-C ) :   1.0749 B( 12-C , 13-H ) :   0.9763 B( 12-C , 14-H ) :   0.9760
B( 12-C , 15-H ) :   0.9721 B( 16-S , 17-C ) :   1.1525 B( 16-S , 20-C ) :   1.1384
B( 17-C , 18-C ) :   1.6299 B( 17-C , 33-H ) :   0.9672 B( 18-C , 19-C ) :   1.2247
B( 18-C , 21-H ) :   0.9759 B( 19-C , 20-C ) :   1.5973 B( 19-C , 22-C ) :   1.0365
B( 22-C , 23-H ) :   0.9385 B( 22-C , 24-H ) :   0.9352 B( 22-C , 25-C ) :   1.0773
B( 25-C , 26-H ) :   0.9546 B( 25-C , 27-H ) :   0.9568 B( 25-C , 28-C ) :   1.0642
B( 28-C , 29-H ) :   0.9763 B( 28-C , 30-H ) :   0.9724 B( 28-C , 31-H ) :   0.9738

Dispersion correction           -0.015346196
FINAL SINGLE POINT ENERGY     -1339.869210510548

DIPOLE MOMENT
-------------
                                X             Y             Z
Electronic contribution:      3.60349     -26.61811      -5.71014
Nuclear contribution   :     -3.50127      27.23844       5.85753
                        -----------------------------------------
Total Dipole Moment    :      0.10223       0.62033       0.14739
                        -----------------------------------------
Magnitude (a.u.)       :      0.64575
Magnitude (Debye)      :      1.64135

Rotational constants in cm-1:     0.019449     0.009464     0.007422
Rotational constants in MHz :   583.057709   283.734394   222.514369

                             ****ORCA TERMINATED NORMALLY****
TOTAL RUN TIME: 0 days 0 hours 0 minutes 22 seconds 440 msec
