                         Program Version 4.2.1 -  RELEASE  -
|  1> ! wB97X-D3 SP def2-SVP
|  2> %pal
|  3> nprocs 24
|  4> end
|  5>
|  6> * xyz 0 1
|  7> S 	 -118.376 	 62.867 	 -81.7632
|  8> C 	 -119.128 	 63.433 	 -80.3444
|  9> C 	 -118.347 	 63.3265 	 -79.1938
| 10> C 	 -117.082 	 62.7419 	 -79.4989
| 11> C 	 -116.963 	 62.4129 	 -80.858
| 12> H 	 -116.285 	 62.5152 	 -78.7406
| 13> C 	 -118.71 	 63.7625 	 -77.8196
| 14> H 	 -119.302 	 64.7099 	 -77.8719
| 15> H 	 -117.835 	 64.0369 	 -77.2981
| 16> C 	 -119.417 	 62.64 	 -77.0071
| 17> H 	 -119.866 	 63.1719 	 -76.1888
| 18> H 	 -120.362 	 62.2622 	 -77.546
| 19> C 	 -118.619 	 61.4109 	 -76.6002
| 20> H 	 -119.071 	 60.7034 	 -75.9537
| 21> H 	 -118.308 	 60.8362 	 -77.4943
| 22> H 	 -117.796 	 61.7502 	 -76.053
| 23> S 	 -115.053 	 62.732 	 -82.736
| 24> C 	 -113.544 	 61.7942 	 -82.6284
| 25> C 	 -113.559 	 60.8758 	 -81.6186
| 26> C 	 -114.79 	 60.9514 	 -80.8946
| 27> C 	 -115.686 	 61.8396 	 -81.4303
| 28> H 	 -112.552 	 60.3657 	 -81.5263
| 29> C 	 -115.004 	 59.9503 	 -79.7498
| 30> H 	 -114.76 	 60.5356 	 -78.8053
| 31> H 	 -114.193 	 59.2324 	 -79.7423
| 32> C 	 -116.342 	 59.1528 	 -79.8266
| 33> H 	 -116.521 	 58.6686 	 -80.7968
| 34> H 	 -117.228 	 59.8276 	 -79.5977
| 35> C 	 -116.446 	 58.1199 	 -78.7235
| 36> H 	 -115.568 	 57.5016 	 -78.6739
| 37> H 	 -117.431 	 57.5646 	 -78.7959
| 38> H 	 -116.359 	 58.6742 	 -77.8058
| 39> H 	 -120.03 	 64.0421 	 -80.3848
| 40> H 	 -112.749 	 61.9629 	 -83.3018
| 41> *
| 42>
| 43>                          ****END OF INPUT****

CARTESIAN COORDINATES (ANGSTROEM)
---------------------------------
  S    -118.376000   62.867000  -81.763200
  C    -119.128000   63.433000  -80.344400
  C    -118.347000   63.326500  -79.193800
  C    -117.082000   62.741900  -79.498900
  C    -116.963000   62.412900  -80.858000
  H    -116.285000   62.515200  -78.740600
  C    -118.710000   63.762500  -77.819600
  H    -119.302000   64.709900  -77.871900
  H    -117.835000   64.036900  -77.298100
  C    -119.417000   62.640000  -77.007100
  H    -119.866000   63.171900  -76.188800
  H    -120.362000   62.262200  -77.546000
  C    -118.619000   61.410900  -76.600200
  H    -119.071000   60.703400  -75.953700
  H    -118.308000   60.836200  -77.494300
  H    -117.796000   61.750200  -76.053000
  S    -115.053000   62.732000  -82.736000
  C    -113.544000   61.794200  -82.628400
  C    -113.559000   60.875800  -81.618600
  C    -114.790000   60.951400  -80.894600
  C    -115.686000   61.839600  -81.430300
  H    -112.552000   60.365700  -81.526300
  C    -115.004000   59.950300  -79.749800
  H    -114.760000   60.535600  -78.805300
  H    -114.193000   59.232400  -79.742300
  C    -116.342000   59.152800  -79.826600
  H    -116.521000   58.668600  -80.796800
  H    -117.228000   59.827600  -79.597700
  C    -116.446000   58.119900  -78.723500
  H    -115.568000   57.501600  -78.673900
  H    -117.431000   57.564600  -78.795900
  H    -116.359000   58.674200  -77.805800
  H    -120.030000   64.042100  -80.384800
  H    -112.749000   61.962900  -83.301800

 Total Charge           Charge          ....    0
 Multiplicity           Mult            ....    1
 Number of Electrons    NEL             ....  134
 Basis Dimension        Dim             ....  322

ORBITAL ENERGIES
----------------

  NO   OCC          E(Eh)            E(eV)
   0   2.0000     -88.970789     -2421.0183
   1   2.0000     -88.961211     -2420.7576
   2   2.0000     -10.330610      -281.1102
   3   2.0000     -10.323418      -280.9145
   4   2.0000     -10.311208      -280.5822
   5   2.0000     -10.308866      -280.5185
   6   2.0000     -10.302898      -280.3561
   7   2.0000     -10.298474      -280.2357
   8   2.0000     -10.297553      -280.2107
   9   2.0000     -10.297136      -280.1993
  10   2.0000     -10.295914      -280.1661
  11   2.0000     -10.292513      -280.0735
  12   2.0000     -10.290473      -280.0180
  13   2.0000     -10.287113      -279.9266
  14   2.0000     -10.273617      -279.5593
  15   2.0000     -10.273344      -279.5519
  16   2.0000      -8.086110      -220.0342
  17   2.0000      -8.076825      -219.7816
  18   2.0000      -6.044491      -164.4790
  19   2.0000      -6.040485      -164.3699
  20   2.0000      -6.037059      -164.2767
  21   2.0000      -6.035175      -164.2255
  22   2.0000      -6.031322      -164.1206
  23   2.0000      -6.027581      -164.0188
  24   2.0000      -1.008474       -27.4420
  25   2.0000      -0.987870       -26.8813
  26   2.0000      -0.912470       -24.8296
  27   2.0000      -0.903221       -24.5779
  28   2.0000      -0.866799       -23.5868
  29   2.0000      -0.852705       -23.2033
  30   2.0000      -0.848416       -23.0866
  31   2.0000      -0.814931       -22.1754
  32   2.0000      -0.783744       -21.3268
  33   2.0000      -0.768028       -20.8991
  34   2.0000      -0.703588       -19.1456
  35   2.0000      -0.699526       -19.0351
  36   2.0000      -0.684439       -18.6245
  37   2.0000      -0.661727       -18.0065
  38   2.0000      -0.636510       -17.3203
  39   2.0000      -0.614630       -16.7249
  40   2.0000      -0.589304       -16.0358
  41   2.0000      -0.572269       -15.5722
  42   2.0000      -0.560571       -15.2539
  43   2.0000      -0.548489       -14.9251
  44   2.0000      -0.538607       -14.6562
  45   2.0000      -0.528123       -14.3710
  46   2.0000      -0.516313       -14.0496
  47   2.0000      -0.507855       -13.8194
  48   2.0000      -0.504490       -13.7279
  49   2.0000      -0.491116       -13.3640
  50   2.0000      -0.489335       -13.3155
  51   2.0000      -0.481565       -13.1041
  52   2.0000      -0.477650       -12.9975
  53   2.0000      -0.463749       -12.6192
  54   2.0000      -0.454506       -12.3677
  55   2.0000      -0.450622       -12.2621
  56   2.0000      -0.444510       -12.0957
  57   2.0000      -0.438970       -11.9450
  58   2.0000      -0.432362       -11.7652
  59   2.0000      -0.422435       -11.4950
  60   2.0000      -0.416002       -11.3200
  61   2.0000      -0.413720       -11.2579
  62   2.0000      -0.406713       -11.0672
  63   2.0000      -0.349205        -9.5024
  64   2.0000      -0.332544        -9.0490
  65   2.0000      -0.325587        -8.8597
  66   2.0000      -0.290435        -7.9031
  67   0.0000       0.034366         0.9351
  68   0.0000       0.076576         2.0837
  69   0.0000       0.109934         2.9915
  70   0.0000       0.121929         3.3179
  71   0.0000       0.128470         3.4959

MULLIKEN ATOMIC CHARGES
-----------------------
   0 S :    0.131640
   1 C :   -0.126081
   2 C :   -0.097099
   3 C :    0.001385
   4 C :   -0.156214
   5 H :    0.029734
   6 C :    0.078015
   7 H :    0.033580
   8 H :    0.009922
   9 C :   -0.082458
  10 H :    0.020416
  11 H :    0.029934
  12 C :   -0.016221
  13 H :    0.028090
  14 H :    0.042599
  15 H :    0.010203
  16 S :    0.094495
  17 C :   -0.100864
  18 C :   -0.047045
  19 C :   -0.056700
  20 C :   -0.115145
  21 H :    0.049526
  22 C :    0.051761
  23 H :    0.039126
  24 H :    0.007562
  25 C :   -0.089623
  26 H :    0.042623
  27 H :    0.052931
  28 C :   -0.033784
  29 H :    0.014672
  30 H :    0.053016
  31 H :    0.012361
  32 H :    0.049583
  33 H :    0.038059
Sum of atomic charges:   -0.0000000

LOEWDIN ATOMIC CHARGES
----------------------
   0 S :    0.436099
   1 C :   -0.220572
   2 C :   -0.064353
   3 C :   -0.067418
   4 C :   -0.203686
   5 H :    0.039361
   6 C :   -0.030382
   7 H :    0.039177
   8 H :    0.023878
   9 C :   -0.040487
  10 H :    0.018906
  11 H :    0.029398
  12 C :   -0.063018
  13 H :    0.026207
  14 H :    0.032340
  15 H :    0.016131
  16 S :    0.406383
  17 C :   -0.167844
  18 C :   -0.079621
  19 C :   -0.064869
  20 C :   -0.207784
  21 H :    0.052188
  22 C :   -0.034596
  23 H :    0.037467
  24 H :    0.024995
  25 C :   -0.044583
  26 H :    0.027839
  27 H :    0.031976
  28 C :   -0.069408
  29 H :    0.016152
  30 H :    0.036680
  31 H :    0.019579
  32 H :    0.027680
  33 H :    0.016186

  Mayer bond orders larger than 0.100000
B(  0-S ,  1-C ) :   1.1552 B(  0-S ,  4-C ) :   1.1777 B(  1-C ,  2-C ) :   1.5861
B(  1-C , 32-H ) :   0.9622 B(  2-C ,  3-C ) :   1.2812 B(  2-C ,  6-C ) :   1.0336
B(  3-C ,  4-C ) :   1.5402 B(  3-C ,  5-H ) :   0.9833 B(  4-C , 20-C ) :   0.9947
B(  6-C ,  7-H ) :   0.9374 B(  6-C ,  8-H ) :   0.9365 B(  6-C ,  9-C ) :   1.0638
B(  9-C , 10-H ) :   0.9557 B(  9-C , 11-H ) :   0.9565 B(  9-C , 12-C ) :   1.0771
B( 12-C , 13-H ) :   0.9690 B( 12-C , 14-H ) :   0.9691 B( 12-C , 15-H ) :   0.9712
B( 16-S , 17-C ) :   1.1508 B( 16-S , 20-C ) :   1.1513 B( 17-C , 18-C ) :   1.6446
B( 17-C , 33-H ) :   0.9711 B( 18-C , 19-C ) :   1.2098 B( 18-C , 21-H ) :   0.9826
B( 19-C , 20-C ) :   1.6359 B( 19-C , 22-C ) :   1.0276 B( 22-C , 23-H ) :   0.9251
B( 22-C , 24-H ) :   0.9414 B( 22-C , 25-C ) :   1.0554 B( 25-C , 26-H ) :   0.9579
B( 25-C , 27-H ) :   0.9470 B( 25-C , 28-C ) :   1.0867 B( 28-C , 29-H ) :   0.9722
B( 28-C , 30-H ) :   0.9729 B( 28-C , 31-H ) :   0.9706

Dispersion correction           -0.015845767
FINAL SINGLE POINT ENERGY     -1339.873646028436

DIPOLE MOMENT
-------------
                                X             Y             Z
Electronic contribution:      5.13914      14.24987     -26.52014
Nuclear contribution   :     -4.95661     -14.33403      27.13998
                        -----------------------------------------
Total Dipole Moment    :      0.18253      -0.08415       0.61984
                        -----------------------------------------
Magnitude (a.u.)       :      0.65162
Magnitude (Debye)      :      1.65627

Rotational constants in cm-1:     0.018001     0.010417     0.007526
Rotational constants in MHz :   539.671125   312.294011   225.615063

                             ****ORCA TERMINATED NORMALLY****
TOTAL RUN TIME: 0 days 0 hours 0 minutes 22 seconds 983 msec
