                         Program Version 4.2.1 -  RELEASE  -
|  1> ! wB97X-D3 SP def2-SVP
|  2> %pal
|  3> nprocs 24
|  4> end
|  5>
|  6> * xyz 0 1
|  7> S 	 -96.8392 	 -23.0825 	 -66.9011
|  8> C 	 -96.9038 	 -21.3486 	 -66.7517
|  9> C 	 -96.1731 	 -20.8638 	 -65.6934
| 10> C 	 -95.5088 	 -21.9549 	 -65.0118
| 11> C 	 -95.7648 	 -23.1858 	 -65.5431
| 12> H 	 -94.842 	 -21.9257 	 -64.1196
| 13> C 	 -96.1548 	 -19.4647 	 -65.2815
| 14> H 	 -96.0851 	 -18.9594 	 -66.2174
| 15> H 	 -95.2032 	 -19.3471 	 -64.7189
| 16> C 	 -97.3457 	 -19.0593 	 -64.3654
| 17> H 	 -97.3343 	 -18.0219 	 -64.0611
| 18> H 	 -98.2826 	 -19.0157 	 -64.8313
| 19> C 	 -97.4689 	 -19.8285 	 -63.0254
| 20> H 	 -98.3495 	 -19.3746 	 -62.5876
| 21> H 	 -97.5773 	 -20.8383 	 -63.2686
| 22> H 	 -96.6572 	 -19.6984 	 -62.3138
| 23> S 	 -94.2366 	 -25.0699 	 -66.6854
| 24> C 	 -93.6053 	 -26.379 	 -65.8292
| 25> C 	 -93.9284 	 -26.3305 	 -64.5354
| 26> C 	 -94.6869 	 -25.165 	 -64.2243
| 27> C 	 -95.0516 	 -24.4374 	 -65.3431
| 28> H 	 -93.3735 	 -27.0531 	 -63.9095
| 29> C 	 -95.2525 	 -24.8376 	 -62.8318
| 30> H 	 -96.3442 	 -24.7926 	 -62.8149
| 31> H 	 -95.0461 	 -23.7703 	 -62.6727
| 32> C 	 -94.6858 	 -25.5803 	 -61.6646
| 33> H 	 -93.6023 	 -25.292 	 -61.6285
| 34> H 	 -94.5904 	 -26.5923 	 -61.9374
| 35> C 	 -95.4307 	 -25.3884 	 -60.3514
| 36> H 	 -96.4597 	 -25.595 	 -60.5865
| 37> H 	 -95.1859 	 -24.4374 	 -59.8702
| 38> H 	 -95.0877 	 -26.2653 	 -59.7852
| 39> H 	 -97.4634 	 -20.6986 	 -67.4479
| 40> H 	 -93.0169 	 -27.1319 	 -66.2977
| 41> *
| 42>
| 43>                          ****END OF INPUT****

CARTESIAN COORDINATES (ANGSTROEM)
---------------------------------
  S    -96.839200  -23.082500  -66.901100
  C    -96.903800  -21.348600  -66.751700
  C    -96.173100  -20.863800  -65.693400
  C    -95.508800  -21.954900  -65.011800
  C    -95.764800  -23.185800  -65.543100
  H    -94.842000  -21.925700  -64.119600
  C    -96.154800  -19.464700  -65.281500
  H    -96.085100  -18.959400  -66.217400
  H    -95.203200  -19.347100  -64.718900
  C    -97.345700  -19.059300  -64.365400
  H    -97.334300  -18.021900  -64.061100
  H    -98.282600  -19.015700  -64.831300
  C    -97.468900  -19.828500  -63.025400
  H    -98.349500  -19.374600  -62.587600
  H    -97.577300  -20.838300  -63.268600
  H    -96.657200  -19.698400  -62.313800
  S    -94.236600  -25.069900  -66.685400
  C    -93.605300  -26.379000  -65.829200
  C    -93.928400  -26.330500  -64.535400
  C    -94.686900  -25.165000  -64.224300
  C    -95.051600  -24.437400  -65.343100
  H    -93.373500  -27.053100  -63.909500
  C    -95.252500  -24.837600  -62.831800
  H    -96.344200  -24.792600  -62.814900
  H    -95.046100  -23.770300  -62.672700
  C    -94.685800  -25.580300  -61.664600
  H    -93.602300  -25.292000  -61.628500
  H    -94.590400  -26.592300  -61.937400
  C    -95.430700  -25.388400  -60.351400
  H    -96.459700  -25.595000  -60.586500
  H    -95.185900  -24.437400  -59.870200
  H    -95.087700  -26.265300  -59.785200
  H    -97.463400  -20.698600  -67.447900
  H    -93.016900  -27.131900  -66.297700

 Total Charge           Charge          ....    0
 Multiplicity           Mult            ....    1
 Number of Electrons    NEL             ....  134
 Basis Dimension        Dim             ....  322

ORBITAL ENERGIES
----------------

  NO   OCC          E(Eh)            E(eV)
   0   2.0000     -88.964605     -2420.8500
   1   2.0000     -88.958536     -2420.6848
   2   2.0000     -10.324916      -280.9552
   3   2.0000     -10.317147      -280.7439
   4   2.0000     -10.312905      -280.6284
   5   2.0000     -10.302907      -280.3564
   6   2.0000     -10.301401      -280.3154
   7   2.0000     -10.298250      -280.2296
   8   2.0000     -10.296186      -280.1735
   9   2.0000     -10.290667      -280.0233
  10   2.0000     -10.288626      -279.9677
  11   2.0000     -10.284125      -279.8453
  12   2.0000     -10.282997      -279.8146
  13   2.0000     -10.278911      -279.7034
  14   2.0000     -10.277639      -279.6688
  15   2.0000     -10.271532      -279.5026
  16   2.0000      -8.079919      -219.8658
  17   2.0000      -8.075922      -219.7570
  18   2.0000      -6.038341      -164.3116
  19   2.0000      -6.034324      -164.2023
  20   2.0000      -6.034123      -164.1968
  21   2.0000      -6.030759      -164.1053
  22   2.0000      -6.029933      -164.0828
  23   2.0000      -6.026933      -164.0012
  24   2.0000      -1.020157       -27.7599
  25   2.0000      -0.993562       -27.0362
  26   2.0000      -0.917158       -24.9571
  27   2.0000      -0.913366       -24.8540
  28   2.0000      -0.874517       -23.7968
  29   2.0000      -0.853217       -23.2172
  30   2.0000      -0.847219       -23.0540
  31   2.0000      -0.822664       -22.3858
  32   2.0000      -0.785170       -21.3656
  33   2.0000      -0.773436       -21.0463
  34   2.0000      -0.712249       -19.3813
  35   2.0000      -0.702793       -19.1240
  36   2.0000      -0.700048       -19.0493
  37   2.0000      -0.651128       -17.7181
  38   2.0000      -0.636900       -17.3309
  39   2.0000      -0.617610       -16.8060
  40   2.0000      -0.600969       -16.3532
  41   2.0000      -0.572267       -15.5722
  42   2.0000      -0.568785       -15.4774
  43   2.0000      -0.561337       -15.2748
  44   2.0000      -0.546130       -14.8609
  45   2.0000      -0.527141       -14.3442
  46   2.0000      -0.514758       -14.0073
  47   2.0000      -0.512307       -13.9406
  48   2.0000      -0.506288       -13.7768
  49   2.0000      -0.496931       -13.5222
  50   2.0000      -0.486050       -13.2261
  51   2.0000      -0.483549       -13.1580
  52   2.0000      -0.476211       -12.9584
  53   2.0000      -0.471333       -12.8256
  54   2.0000      -0.464847       -12.6491
  55   2.0000      -0.449755       -12.2384
  56   2.0000      -0.444216       -12.0877
  57   2.0000      -0.438909       -11.9433
  58   2.0000      -0.431750       -11.7485
  59   2.0000      -0.429090       -11.6761
  60   2.0000      -0.414400       -11.2764
  61   2.0000      -0.410888       -11.1808
  62   2.0000      -0.410537       -11.1713
  63   2.0000      -0.351299        -9.5593
  64   2.0000      -0.328380        -8.9357
  65   2.0000      -0.326873        -8.8947
  66   2.0000      -0.295201        -8.0328
  67   0.0000       0.036771         1.0006
  68   0.0000       0.075979         2.0675
  69   0.0000       0.121190         3.2977
  70   0.0000       0.125404         3.4124
  71   0.0000       0.134037         3.6473

MULLIKEN ATOMIC CHARGES
-----------------------
   0 S :    0.112532
   1 C :   -0.131669
   2 C :   -0.118059
   3 C :    0.027853
   4 C :   -0.174354
   5 H :    0.026494
   6 C :    0.109180
   7 H :    0.024701
   8 H :    0.025664
   9 C :   -0.050765
  10 H :    0.013421
  11 H :    0.008535
  12 C :   -0.043076
  13 H :    0.030074
  14 H :    0.040244
  15 H :    0.030029
  16 S :    0.119281
  17 C :   -0.083218
  18 C :   -0.057746
  19 C :   -0.041394
  20 C :   -0.135264
  21 H :    0.034551
  22 C :    0.068175
  23 H :    0.029124
  24 H :    0.002601
  25 C :   -0.113542
  26 H :    0.022090
  27 H :    0.014011
  28 C :    0.001581
  29 H :    0.029594
  30 H :    0.051778
  31 H :    0.032054
  32 H :    0.052914
  33 H :    0.042607
Sum of atomic charges:    0.0000000

LOEWDIN ATOMIC CHARGES
----------------------
   0 S :    0.413783
   1 C :   -0.200457
   2 C :   -0.068167
   3 C :   -0.065256
   4 C :   -0.201169
   5 H :    0.036853
   6 C :   -0.032334
   7 H :    0.032366
   8 H :    0.036760
   9 C :   -0.035451
  10 H :    0.022756
  11 H :    0.017358
  12 C :   -0.054415
  13 H :    0.030026
  14 H :    0.017334
  15 H :    0.023048
  16 S :    0.456434
  17 C :   -0.197708
  18 C :   -0.088452
  19 C :   -0.056906
  20 C :   -0.223431
  21 H :    0.040962
  22 C :   -0.040447
  23 H :    0.029658
  24 H :    0.027865
  25 C :   -0.050582
  26 H :    0.027428
  27 H :    0.012175
  28 C :   -0.057073
  29 H :    0.026237
  30 H :    0.030528
  31 H :    0.034379
  32 H :    0.031641
  33 H :    0.024257

  Mayer bond orders larger than 0.100000
B(  0-S ,  1-C ) :   1.1395 B(  0-S ,  4-C ) :   1.1533 B(  1-C ,  2-C ) :   1.6181
B(  1-C , 32-H ) :   0.9637 B(  2-C ,  3-C ) :   1.2205 B(  2-C ,  6-C ) :   1.0239
B(  3-C ,  4-C ) :   1.6030 B(  3-C ,  5-H ) :   0.9816 B(  4-C , 20-C ) :   1.0067
B(  6-C ,  7-H ) :   0.9335 B(  6-C ,  8-H ) :   0.9378 B(  6-C ,  9-C ) :   1.0622
B(  9-C , 10-H ) :   0.9552 B(  9-C , 11-H ) :   0.9567 B(  9-C , 12-C ) :   1.0732
B( 12-C , 13-H ) :   0.9724 B( 12-C , 14-H ) :   0.9778 B( 12-C , 15-H ) :   0.9779
B( 16-S , 17-C ) :   1.1857 B( 16-S , 20-C ) :   1.1738 B( 17-C , 18-C ) :   1.5991
B( 17-C , 33-H ) :   0.9662 B( 18-C , 19-C ) :   1.2520 B( 18-C , 21-H ) :   0.9850
B( 19-C , 20-C ) :   1.5822 B( 19-C , 22-C ) :   1.0300 B( 22-C , 23-H ) :   0.9377
B( 22-C , 24-H ) :   0.9213 B( 22-C , 25-C ) :   1.0779 B( 25-C , 26-H ) :   0.9487
B( 25-C , 27-H ) :   0.9508 B( 25-C , 28-C ) :   1.0775 B( 28-C , 29-H ) :   0.9719
B( 28-C , 30-H ) :   0.9753 B( 28-C , 31-H ) :   0.9718

Dispersion correction           -0.014085112
FINAL SINGLE POINT ENERGY     -1339.868804769866

DIPOLE MOMENT
-------------
                                X             Y             Z
Electronic contribution:      3.95299     -10.40774     -26.59960
Nuclear contribution   :     -3.84721      10.68990      27.04778
                        -----------------------------------------
Total Dipole Moment    :      0.10578       0.28216       0.44819
                        -----------------------------------------
Magnitude (a.u.)       :      0.54007
Magnitude (Debye)      :      1.37275

Rotational constants in cm-1:     0.017358     0.009436     0.006568
Rotational constants in MHz :   520.378144   282.878690   196.899431

                             ****ORCA TERMINATED NORMALLY****
TOTAL RUN TIME: 0 days 0 hours 0 minutes 21 seconds 677 msec
