                         Program Version 4.2.1 -  RELEASE  -
|  1> ! wB97X-D3 SP def2-SVP
|  2> %pal
|  3> nprocs 24
|  4> end
|  5>
|  6> * xyz 0 1
|  7> S 	 -65.4082 	 16.9958 	 -111.389
|  8> C 	 -67.0205 	 16.7032 	 -112.003
|  9> C 	 -67.0366 	 16.9065 	 -113.381
| 10> C 	 -65.7999 	 17.4716 	 -113.86
| 11> C 	 -64.8676 	 17.6982 	 -112.924
| 12> H 	 -65.6833 	 17.7984 	 -114.853
| 13> C 	 -68.3183 	 16.8424 	 -114.292
| 14> H 	 -68.1223 	 17.2044 	 -115.3
| 15> H 	 -69.1138 	 17.5093 	 -113.778
| 16> C 	 -68.8173 	 15.3978 	 -114.34
| 17> H 	 -67.995 	 14.6446 	 -114.597
| 18> H 	 -68.9108 	 14.9772 	 -113.333
| 19> C 	 -70.1805 	 15.1289 	 -115.046
| 20> H 	 -70.6034 	 16.0576 	 -115.255
| 21> H 	 -70.106 	 14.6701 	 -115.996
| 22> H 	 -70.8967 	 14.5077 	 -114.507
| 23> S 	 -62.7493 	 18.188 	 -114.515
| 24> C 	 -61.4972 	 19.3386 	 -114.048
| 25> C 	 -61.7275 	 19.7855 	 -112.783
| 26> C 	 -62.8774 	 19.2262 	 -112.155
| 27> C 	 -63.6256 	 18.4383 	 -113.047
| 28> H 	 -61.0547 	 20.5049 	 -112.254
| 29> C 	 -63.372 	 19.573 	 -110.795
| 30> H 	 -62.663 	 20.2098 	 -110.427
| 31> H 	 -63.4103 	 18.6909 	 -110.144
| 32> C 	 -64.7046 	 20.3418 	 -110.714
| 33> H 	 -65.4313 	 19.5857 	 -110.961
| 34> H 	 -64.6651 	 21.0648 	 -111.529
| 35> C 	 -65.0531 	 20.9085 	 -109.384
| 36> H 	 -66.0748 	 20.7418 	 -109.158
| 37> H 	 -64.6254 	 21.9252 	 -109.417
| 38> H 	 -64.5511 	 20.2785 	 -108.687
| 39> H 	 -67.8362 	 16.3188 	 -111.458
| 40> H 	 -60.6415 	 19.6318 	 -114.583
| 41> *
| 42>
| 43>                          ****END OF INPUT****

CARTESIAN COORDINATES (ANGSTROEM)
---------------------------------
  S    -65.408200   16.995800  -111.389000
  C    -67.020500   16.703200  -112.003000
  C    -67.036600   16.906500  -113.381000
  C    -65.799900   17.471600  -113.860000
  C    -64.867600   17.698200  -112.924000
  H    -65.683300   17.798400  -114.853000
  C    -68.318300   16.842400  -114.292000
  H    -68.122300   17.204400  -115.300000
  H    -69.113800   17.509300  -113.778000
  C    -68.817300   15.397800  -114.340000
  H    -67.995000   14.644600  -114.597000
  H    -68.910800   14.977200  -113.333000
  C    -70.180500   15.128900  -115.046000
  H    -70.603400   16.057600  -115.255000
  H    -70.106000   14.670100  -115.996000
  H    -70.896700   14.507700  -114.507000
  S    -62.749300   18.188000  -114.515000
  C    -61.497200   19.338600  -114.048000
  C    -61.727500   19.785500  -112.783000
  C    -62.877400   19.226200  -112.155000
  C    -63.625600   18.438300  -113.047000
  H    -61.054700   20.504900  -112.254000
  C    -63.372000   19.573000  -110.795000
  H    -62.663000   20.209800  -110.427000
  H    -63.410300   18.690900  -110.144000
  C    -64.704600   20.341800  -110.714000
  H    -65.431300   19.585700  -110.961000
  H    -64.665100   21.064800  -111.529000
  C    -65.053100   20.908500  -109.384000
  H    -66.074800   20.741800  -109.158000
  H    -64.625400   21.925200  -109.417000
  H    -64.551100   20.278500  -108.687000
  H    -67.836200   16.318800  -111.458000
  H    -60.641500   19.631800  -114.583000

 Total Charge           Charge          ....    0
 Multiplicity           Mult            ....    1
 Number of Electrons    NEL             ....  134
 Basis Dimension        Dim             ....  322

ORBITAL ENERGIES
----------------

  NO   OCC          E(Eh)            E(eV)
   0   2.0000     -88.967193     -2420.9204
   1   2.0000     -88.966677     -2420.9064
   2   2.0000     -10.330311      -281.1021
   3   2.0000     -10.326482      -280.9979
   4   2.0000     -10.315242      -280.6920
   5   2.0000     -10.314338      -280.6674
   6   2.0000     -10.307404      -280.4787
   7   2.0000     -10.307232      -280.4740
   8   2.0000     -10.301118      -280.3077
   9   2.0000     -10.296760      -280.1891
  10   2.0000     -10.290944      -280.0308
  11   2.0000     -10.289491      -279.9913
  12   2.0000     -10.277046      -279.6526
  13   2.0000     -10.270981      -279.4876
  14   2.0000     -10.267997      -279.4064
  15   2.0000     -10.266302      -279.3603
  16   2.0000      -8.081877      -219.9191
  17   2.0000      -8.080477      -219.8810
  18   2.0000      -6.040403      -164.3677
  19   2.0000      -6.039151      -164.3336
  20   2.0000      -6.036342      -164.2572
  21   2.0000      -6.035136      -164.2244
  22   2.0000      -6.032675      -164.1574
  23   2.0000      -6.031094      -164.1144
  24   2.0000      -1.010809       -27.5055
  25   2.0000      -0.986292       -26.8384
  26   2.0000      -0.914782       -24.8925
  27   2.0000      -0.905066       -24.6281
  28   2.0000      -0.874566       -23.7982
  29   2.0000      -0.855262       -23.2729
  30   2.0000      -0.845368       -23.0036
  31   2.0000      -0.819812       -22.3082
  32   2.0000      -0.783996       -21.3336
  33   2.0000      -0.771664       -20.9980
  34   2.0000      -0.709061       -19.2945
  35   2.0000      -0.703970       -19.1560
  36   2.0000      -0.688056       -18.7230
  37   2.0000      -0.669721       -18.2240
  38   2.0000      -0.641589       -17.4585
  39   2.0000      -0.619034       -16.8448
  40   2.0000      -0.596434       -16.2298
  41   2.0000      -0.578627       -15.7452
  42   2.0000      -0.569907       -15.5080
  43   2.0000      -0.549005       -14.9392
  44   2.0000      -0.528477       -14.3806
  45   2.0000      -0.521403       -14.1881
  46   2.0000      -0.521236       -14.1835
  47   2.0000      -0.518191       -14.1007
  48   2.0000      -0.511957       -13.9310
  49   2.0000      -0.502866       -13.6837
  50   2.0000      -0.491871       -13.3845
  51   2.0000      -0.487119       -13.2552
  52   2.0000      -0.472747       -12.8641
  53   2.0000      -0.471598       -12.8328
  54   2.0000      -0.460020       -12.5178
  55   2.0000      -0.447784       -12.1848
  56   2.0000      -0.445446       -12.1212
  57   2.0000      -0.441783       -12.0215
  58   2.0000      -0.426893       -11.6163
  59   2.0000      -0.421992       -11.4830
  60   2.0000      -0.417258       -11.3542
  61   2.0000      -0.403391       -10.9768
  62   2.0000      -0.400753       -10.9050
  63   2.0000      -0.359915        -9.7938
  64   2.0000      -0.332634        -9.0514
  65   2.0000      -0.327805        -8.9200
  66   2.0000      -0.287969        -7.8360
  67   0.0000       0.019377         0.5273
  68   0.0000       0.082478         2.2443
  69   0.0000       0.112101         3.0504
  70   0.0000       0.117647         3.2013
  71   0.0000       0.130885         3.5616

MULLIKEN ATOMIC CHARGES
-----------------------
   0 S :    0.087040
   1 C :   -0.107020
   2 C :   -0.089820
   3 C :    0.026906
   4 C :   -0.112188
   5 H :   -0.005699
   6 C :    0.067110
   7 H :    0.033248
   8 H :    0.058952
   9 C :   -0.144147
  10 H :    0.035741
  11 H :    0.016276
  12 C :    0.011348
  13 H :    0.006710
  14 H :    0.023029
  15 H :    0.034118
  16 S :    0.105042
  17 C :   -0.059290
  18 C :   -0.046163
  19 C :   -0.074924
  20 C :   -0.134053
  21 H :    0.032290
  22 C :    0.096857
  23 H :   -0.025968
  24 H :    0.034846
  25 C :   -0.100336
  26 H :    0.023586
  27 H :    0.024972
  28 C :    0.026788
  29 H :    0.026142
  30 H :    0.045117
  31 H :    0.007559
  32 H :    0.038480
  33 H :    0.037451
Sum of atomic charges:   -0.0000000

LOEWDIN ATOMIC CHARGES
----------------------
   0 S :    0.406461
   1 C :   -0.188549
   2 C :   -0.054671
   3 C :   -0.063281
   4 C :   -0.178651
   5 H :    0.022020
   6 C :   -0.029158
   7 H :    0.027669
   8 H :    0.044485
   9 C :   -0.062712
  10 H :    0.034233
  11 H :    0.022258
  12 C :   -0.063804
  13 H :    0.017881
  14 H :    0.022799
  15 H :    0.029555
  16 S :    0.419659
  17 C :   -0.179104
  18 C :   -0.071255
  19 C :   -0.057920
  20 C :   -0.196737
  21 H :    0.039459
  22 C :   -0.036848
  23 H :    0.012933
  24 H :    0.027148
  25 C :   -0.043526
  26 H :    0.008258
  27 H :    0.020337
  28 C :   -0.058361
  29 H :    0.027011
  30 H :    0.034927
  31 H :    0.022834
  32 H :    0.020676
  33 H :    0.023974

  Mayer bond orders larger than 0.100000
B(  0-S ,  1-C ) :   1.1288 B(  0-S ,  4-C ) :   1.1207 B(  1-C ,  2-C ) :   1.6174
B(  1-C , 32-H ) :   0.9741 B(  2-C ,  3-C ) :   1.2341 B(  2-C ,  6-C ) :   1.0100
B(  3-C ,  4-C ) :   1.5894 B(  3-C ,  5-H ) :   1.0010 B(  4-C , 20-C ) :   1.0558
B(  6-C ,  7-H ) :   0.9490 B(  6-C ,  8-H ) :   0.9439 B(  6-C ,  9-C ) :   1.0514
B(  9-C , 10-H ) :   0.9554 B(  9-C , 11-H ) :   0.9629 B(  9-C , 12-C ) :   1.0521
B( 12-C , 13-H ) :   0.9739 B( 12-C , 14-H ) :   0.9742 B( 12-C , 15-H ) :   0.9787
B( 16-S , 17-C ) :   1.1439 B( 16-S , 20-C ) :   1.1582 B( 17-C , 18-C ) :   1.6031
B( 17-C , 33-H ) :   0.9725 B( 18-C , 19-C ) :   1.2745 B( 18-C , 21-H ) :   0.9765
B( 19-C , 20-C ) :   1.5312 B( 19-C , 22-C ) :   1.0605 B( 22-C , 23-H ) :   0.9146
B( 22-C , 24-H ) :   0.9142 B( 22-C , 25-C ) :   1.0704 B( 25-C , 26-H ) :   0.9439
B( 25-C , 27-H ) :   0.9599 B( 25-C , 28-C ) :   1.0875 B( 28-C , 29-H ) :   0.9689
B( 28-C , 30-H ) :   0.9763 B( 28-C , 31-H ) :   0.9672

Dispersion correction           -0.014228566
FINAL SINGLE POINT ENERGY     -1339.858425819757

DIPOLE MOMENT
-------------
                                X             Y             Z
Electronic contribution:     19.28265      -2.19763      -3.94535
Nuclear contribution   :    -19.55384       2.38184       3.94193
                        -----------------------------------------
Total Dipole Moment    :     -0.27119       0.18422      -0.00342
                        -----------------------------------------
Magnitude (a.u.)       :      0.32786
Magnitude (Debye)      :      0.83334

Rotational constants in cm-1:     0.021417     0.007907     0.006279
Rotational constants in MHz :   642.055969   237.060140   188.226440

                             ****ORCA TERMINATED NORMALLY****
TOTAL RUN TIME: 0 days 0 hours 0 minutes 20 seconds 297 msec
