                         Program Version 4.2.1 -  RELEASE  -
|  1> ! wB97X-D3 SP def2-SVP
|  2> %pal
|  3> nprocs 24
|  4> end
|  5>
|  6> * xyz 0 1
|  7> S 	 -87.6623 	 -1.53417 	 -62.087
|  8> C 	 -87.7101 	 0.0504414 	 -62.9169
|  9> C 	 -86.7684 	 0.242668 	 -63.8945
| 10> C 	 -85.8196 	 -0.837574 	 -63.8498
| 11> C 	 -86.0559 	 -1.68672 	 -62.8187
| 12> H 	 -84.9245 	 -0.877099 	 -64.4337
| 13> C 	 -86.6264 	 1.57461 	 -64.7085
| 14> H 	 -86.2306 	 2.32467 	 -64.0374
| 15> H 	 -87.6459 	 1.9807 	 -64.7834
| 16> C 	 -85.8664 	 1.54352 	 -66.0499
| 17> H 	 -85.7667 	 2.6612 	 -66.3535
| 18> H 	 -84.8464 	 1.20169 	 -65.875
| 19> C 	 -86.4915 	 0.771722 	 -67.2419
| 20> H 	 -87.4425 	 1.15963 	 -67.3925
| 21> H 	 -85.8923 	 1.04663 	 -68.1535
| 22> H 	 -86.4784 	 -0.333588 	 -67.0432
| 23> S 	 -86.1643 	 -4.43646 	 -62.5854
| 24> C 	 -84.6478 	 -5.29122 	 -62.5384
| 25> C 	 -83.5568 	 -4.49428 	 -62.4511
| 26> C 	 -83.937 	 -3.13233 	 -62.5437
| 27> C 	 -85.3138 	 -2.89019 	 -62.5709
| 28> H 	 -82.5899 	 -4.96482 	 -62.4228
| 29> C 	 -82.8968 	 -2.03746 	 -62.4938
| 30> H 	 -82.3148 	 -2.34001 	 -61.6258
| 31> H 	 -83.3701 	 -1.10915 	 -62.3132
| 32> C 	 -81.8706 	 -1.97613 	 -63.6498
| 33> H 	 -82.3957 	 -1.77518 	 -64.5618
| 34> H 	 -81.3768 	 -2.94445 	 -63.8837
| 35> C 	 -80.7844 	 -0.87249 	 -63.3864
| 36> H 	 -80.37 	 -0.953941 	 -62.3399
| 37> H 	 -81.1913 	 0.0605331 	 -63.489
| 38> H 	 -80.0685 	 -1.10413 	 -64.1483
| 39> H 	 -88.4506 	 0.762477 	 -62.643
| 40> H 	 -84.4931 	 -6.36604 	 -62.434
| 41> *
| 42>
| 43>                          ****END OF INPUT****

CARTESIAN COORDINATES (ANGSTROEM)
---------------------------------
  S    -87.662300   -1.534170  -62.087000
  C    -87.710100    0.050441  -62.916900
  C    -86.768400    0.242668  -63.894500
  C    -85.819600   -0.837574  -63.849800
  C    -86.055900   -1.686720  -62.818700
  H    -84.924500   -0.877099  -64.433700
  C    -86.626400    1.574610  -64.708500
  H    -86.230600    2.324670  -64.037400
  H    -87.645900    1.980700  -64.783400
  C    -85.866400    1.543520  -66.049900
  H    -85.766700    2.661200  -66.353500
  H    -84.846400    1.201690  -65.875000
  C    -86.491500    0.771722  -67.241900
  H    -87.442500    1.159630  -67.392500
  H    -85.892300    1.046630  -68.153500
  H    -86.478400   -0.333588  -67.043200
  S    -86.164300   -4.436460  -62.585400
  C    -84.647800   -5.291220  -62.538400
  C    -83.556800   -4.494280  -62.451100
  C    -83.937000   -3.132330  -62.543700
  C    -85.313800   -2.890190  -62.570900
  H    -82.589900   -4.964820  -62.422800
  C    -82.896800   -2.037460  -62.493800
  H    -82.314800   -2.340010  -61.625800
  H    -83.370100   -1.109150  -62.313200
  C    -81.870600   -1.976130  -63.649800
  H    -82.395700   -1.775180  -64.561800
  H    -81.376800   -2.944450  -63.883700
  C    -80.784400   -0.872490  -63.386400
  H    -80.370000   -0.953941  -62.339900
  H    -81.191300    0.060533  -63.489000
  H    -80.068500   -1.104130  -64.148300
  H    -88.450600    0.762477  -62.643000
  H    -84.493100   -6.366040  -62.434000

 Total Charge           Charge          ....    0
 Multiplicity           Mult            ....    1
 Number of Electrons    NEL             ....  134
 Basis Dimension        Dim             ....  322

ORBITAL ENERGIES
----------------

  NO   OCC          E(Eh)            E(eV)
   0   2.0000     -88.965987     -2420.8876
   1   2.0000     -88.962209     -2420.7848
   2   2.0000     -10.326217      -280.9907
   3   2.0000     -10.319593      -280.8104
   4   2.0000     -10.311599      -280.5929
   5   2.0000     -10.311222      -280.5826
   6   2.0000     -10.305283      -280.4210
   7   2.0000     -10.300368      -280.2873
   8   2.0000     -10.300315      -280.2858
   9   2.0000     -10.298041      -280.2239
  10   2.0000     -10.293355      -280.0964
  11   2.0000     -10.288297      -279.9588
  12   2.0000     -10.286444      -279.9084
  13   2.0000     -10.283296      -279.8227
  14   2.0000     -10.282875      -279.8113
  15   2.0000     -10.276293      -279.6322
  16   2.0000      -8.080334      -219.8771
  17   2.0000      -8.077031      -219.7872
  18   2.0000      -6.038790      -164.3238
  19   2.0000      -6.035645      -164.2383
  20   2.0000      -6.035463      -164.2333
  21   2.0000      -6.031636      -164.1292
  22   2.0000      -6.030604      -164.1011
  23   2.0000      -6.027566      -164.0184
  24   2.0000      -1.007097       -27.4045
  25   2.0000      -0.982172       -26.7263
  26   2.0000      -0.906544       -24.6683
  27   2.0000      -0.904970       -24.6255
  28   2.0000      -0.871371       -23.7112
  29   2.0000      -0.851941       -23.1825
  30   2.0000      -0.844100       -22.9691
  31   2.0000      -0.818141       -22.2628
  32   2.0000      -0.786759       -21.4088
  33   2.0000      -0.769351       -20.9351
  34   2.0000      -0.710311       -19.3286
  35   2.0000      -0.698905       -19.0182
  36   2.0000      -0.689566       -18.7641
  37   2.0000      -0.657736       -17.8979
  38   2.0000      -0.640404       -17.4263
  39   2.0000      -0.626647       -17.0519
  40   2.0000      -0.591779       -16.1031
  41   2.0000      -0.568580       -15.4718
  42   2.0000      -0.559912       -15.2360
  43   2.0000      -0.546785       -14.8788
  44   2.0000      -0.540315       -14.7027
  45   2.0000      -0.530269       -14.4293
  46   2.0000      -0.519385       -14.1332
  47   2.0000      -0.509682       -13.8691
  48   2.0000      -0.502770       -13.6811
  49   2.0000      -0.492819       -13.4103
  50   2.0000      -0.485352       -13.2071
  51   2.0000      -0.479132       -13.0378
  52   2.0000      -0.473334       -12.8801
  53   2.0000      -0.465993       -12.6803
  54   2.0000      -0.458476       -12.4758
  55   2.0000      -0.455642       -12.3987
  56   2.0000      -0.442874       -12.0512
  57   2.0000      -0.442070       -12.0293
  58   2.0000      -0.437521       -11.9056
  59   2.0000      -0.427892       -11.6435
  60   2.0000      -0.423852       -11.5336
  61   2.0000      -0.415839       -11.3156
  62   2.0000      -0.409540       -11.1442
  63   2.0000      -0.350245        -9.5307
  64   2.0000      -0.333809        -9.0834
  65   2.0000      -0.326387        -8.8815
  66   2.0000      -0.284124        -7.7314
  67   0.0000       0.028589         0.7779
  68   0.0000       0.067080         1.8253
  69   0.0000       0.098119         2.6699
  70   0.0000       0.122397         3.3306
  71   0.0000       0.126113         3.4317

MULLIKEN ATOMIC CHARGES
-----------------------
   0 S :    0.090396
   1 C :   -0.114860
   2 C :   -0.056174
   3 C :    0.016715
   4 C :   -0.139028
   5 H :    0.003972
   6 C :    0.065423
   7 H :    0.040029
   8 H :    0.016674
   9 C :   -0.122848
  10 H :    0.040730
  11 H :    0.032949
  12 C :   -0.031538
  13 H :    0.020900
  14 H :    0.043221
  15 H :    0.056989
  16 S :    0.094595
  17 C :   -0.083935
  18 C :   -0.034063
  19 C :   -0.049799
  20 C :   -0.125122
  21 H :    0.016827
  22 C :    0.076486
  23 H :    0.022466
  24 H :    0.016885
  25 C :   -0.102735
  26 H :    0.015106
  27 H :    0.027208
  28 C :   -0.010657
  29 H :    0.037817
  30 H :    0.017993
  31 H :    0.035325
  32 H :    0.030200
  33 H :    0.051853
Sum of atomic charges:   -0.0000000

LOEWDIN ATOMIC CHARGES
----------------------
   0 S :    0.367465
   1 C :   -0.170890
   2 C :   -0.057325
   3 C :   -0.054515
   4 C :   -0.175271
   5 H :    0.028037
   6 C :   -0.036588
   7 H :    0.036340
   8 H :    0.031475
   9 C :   -0.050007
  10 H :    0.036744
  11 H :    0.019892
  12 C :   -0.062274
  13 H :    0.015087
  14 H :    0.035817
  15 H :    0.034833
  16 S :    0.392019
  17 C :   -0.182743
  18 C :   -0.074771
  19 C :   -0.055887
  20 C :   -0.201200
  21 H :    0.034231
  22 C :   -0.031552
  23 H :    0.033361
  24 H :    0.021942
  25 C :   -0.037748
  26 H :    0.014845
  27 H :    0.023747
  28 C :   -0.052606
  29 H :    0.032360
  30 H :    0.011131
  31 H :    0.026955
  32 H :    0.015368
  33 H :    0.031726

  Mayer bond orders larger than 0.100000
B(  0-S ,  1-C ) :   1.1119 B(  0-S ,  4-C ) :   1.1209 B(  1-C ,  2-C ) :   1.6641
B(  1-C , 32-H ) :   0.9732 B(  2-C ,  3-C ) :   1.1929 B(  2-C ,  6-C ) :   0.9970
B(  3-C ,  4-C ) :   1.6118 B(  3-C ,  5-H ) :   0.9969 B(  4-C , 20-C ) :   1.0537
B(  6-C ,  7-H ) :   0.9416 B(  6-C ,  8-H ) :   0.9365 B(  6-C ,  9-C ) :   1.0740
B(  9-C , 10-H ) :   0.9537 B(  9-C , 11-H ) :   0.9525 B(  9-C , 12-C ) :   1.0730
B( 12-C , 13-H ) :   0.9751 B( 12-C , 14-H ) :   0.9735 B( 12-C , 15-H ) :   0.9752
B( 16-S , 17-C ) :   1.1508 B( 16-S , 20-C ) :   1.1118 B( 17-C , 18-C ) :   1.6451
B( 17-C , 33-H ) :   0.9571 B( 18-C , 19-C ) :   1.2183 B( 18-C , 21-H ) :   0.9940
B( 19-C , 20-C ) :   1.6132 B( 19-C , 22-C ) :   1.0479 B( 22-C , 23-H ) :   0.9299
B( 22-C , 24-H ) :   0.9393 B( 22-C , 25-C ) :   1.0585 B( 25-C , 26-H ) :   0.9522
B( 25-C , 27-H ) :   0.9589 B( 25-C , 28-C ) :   1.0719 B( 28-C , 29-H ) :   0.9763
B( 28-C , 30-H ) :   0.9779 B( 28-C , 31-H ) :   0.9769

Dispersion correction           -0.014125325
FINAL SINGLE POINT ENERGY     -1339.864770208462

DIPOLE MOMENT
-------------
                                X             Y             Z
Electronic contribution:    -18.80736     -17.85005      15.99623
Nuclear contribution   :     19.33830      18.33071     -16.37454
                        -----------------------------------------
Total Dipole Moment    :      0.53094       0.48066      -0.37830
                        -----------------------------------------
Magnitude (a.u.)       :      0.80996
Magnitude (Debye)      :      2.05877

Rotational constants in cm-1:     0.015439     0.009939     0.007060
Rotational constants in MHz :   462.841227   297.955139   211.640692

                             ****ORCA TERMINATED NORMALLY****
TOTAL RUN TIME: 0 days 0 hours 0 minutes 21 seconds 735 msec
