                         Program Version 4.2.1 -  RELEASE  -
|  1> ! wB97X-D3 SP def2-SVP
|  2> %pal
|  3> nprocs 24
|  4> end
|  5>
|  6> * xyz 0 1
|  7> S 	 -135.001 	 70.3189 	 -66.6236
|  8> C 	 -133.39 	 69.8956 	 -66.8439
|  9> C 	 -132.65 	 70.1248 	 -65.7214
| 10> C 	 -133.417 	 70.5937 	 -64.6403
| 11> C 	 -134.713 	 70.8512 	 -64.9966
| 12> H 	 -133.129 	 70.9107 	 -63.6179
| 13> C 	 -131.144 	 69.8691 	 -65.6631
| 14> H 	 -130.772 	 69.4351 	 -66.6023
| 15> H 	 -130.898 	 69.1428 	 -64.8752
| 16> C 	 -130.347 	 71.1496 	 -65.4703
| 17> H 	 -130.649 	 71.8223 	 -64.6254
| 18> H 	 -129.371 	 70.9533 	 -65.1357
| 19> C 	 -130.209 	 72.0394 	 -66.6929
| 20> H 	 -129.695 	 73.0096 	 -66.4615
| 21> H 	 -129.592 	 71.4671 	 -67.2984
| 22> H 	 -131.17 	 72.3121 	 -67.1353
| 23> S 	 -137.163 	 70.1517 	 -63.858
| 24> C 	 -137.807 	 71.0745 	 -62.6143
| 25> C 	 -137.072 	 72.2104 	 -62.4076
| 26> C 	 -135.808 	 72.2287 	 -63.1169
| 27> C 	 -135.792 	 71.264 	 -64.1396
| 28> H 	 -137.25 	 72.8487 	 -61.5753
| 29> C 	 -134.773 	 73.3717 	 -62.9879
| 30> H 	 -133.725 	 72.9935 	 -63.1196
| 31> H 	 -134.759 	 73.5948 	 -61.8596
| 32> C 	 -135.135 	 74.5697 	 -63.8581
| 33> H 	 -134.441 	 75.4093 	 -63.7999
| 34> H 	 -136.14 	 74.9639 	 -63.5514
| 35> C 	 -134.972 	 74.2929 	 -65.3996
| 36> H 	 -133.999 	 73.764 	 -65.7105
| 37> H 	 -134.803 	 75.1833 	 -66.0071
| 38> H 	 -135.862 	 73.7757 	 -65.8505
| 39> H 	 -132.976 	 69.5737 	 -67.7595
| 40> H 	 -138.698 	 70.7764 	 -62.1819
| 41> *
| 42>
| 43>                          ****END OF INPUT****

CARTESIAN COORDINATES (ANGSTROEM)
---------------------------------
  S    -135.001000   70.318900  -66.623600
  C    -133.390000   69.895600  -66.843900
  C    -132.650000   70.124800  -65.721400
  C    -133.417000   70.593700  -64.640300
  C    -134.713000   70.851200  -64.996600
  H    -133.129000   70.910700  -63.617900
  C    -131.144000   69.869100  -65.663100
  H    -130.772000   69.435100  -66.602300
  H    -130.898000   69.142800  -64.875200
  C    -130.347000   71.149600  -65.470300
  H    -130.649000   71.822300  -64.625400
  H    -129.371000   70.953300  -65.135700
  C    -130.209000   72.039400  -66.692900
  H    -129.695000   73.009600  -66.461500
  H    -129.592000   71.467100  -67.298400
  H    -131.170000   72.312100  -67.135300
  S    -137.163000   70.151700  -63.858000
  C    -137.807000   71.074500  -62.614300
  C    -137.072000   72.210400  -62.407600
  C    -135.808000   72.228700  -63.116900
  C    -135.792000   71.264000  -64.139600
  H    -137.250000   72.848700  -61.575300
  C    -134.773000   73.371700  -62.987900
  H    -133.725000   72.993500  -63.119600
  H    -134.759000   73.594800  -61.859600
  C    -135.135000   74.569700  -63.858100
  H    -134.441000   75.409300  -63.799900
  H    -136.140000   74.963900  -63.551400
  C    -134.972000   74.292900  -65.399600
  H    -133.999000   73.764000  -65.710500
  H    -134.803000   75.183300  -66.007100
  H    -135.862000   73.775700  -65.850500
  H    -132.976000   69.573700  -67.759500
  H    -138.698000   70.776400  -62.181900

 Total Charge           Charge          ....    0
 Multiplicity           Mult            ....    1
 Number of Electrons    NEL             ....  134
 Basis Dimension        Dim             ....  322

ORBITAL ENERGIES
----------------

  NO   OCC          E(Eh)            E(eV)
   0   2.0000     -88.962859     -2420.8025
   1   2.0000     -88.961401     -2420.7628
   2   2.0000     -10.325892      -280.9818
   3   2.0000     -10.322357      -280.8856
   4   2.0000     -10.309545      -280.5370
   5   2.0000     -10.308115      -280.4981
   6   2.0000     -10.304995      -280.4132
   7   2.0000     -10.303153      -280.3630
   8   2.0000     -10.296462      -280.1810
   9   2.0000     -10.294999      -280.1412
  10   2.0000     -10.294534      -280.1285
  11   2.0000     -10.291740      -280.0525
  12   2.0000     -10.291277      -280.0399
  13   2.0000     -10.281876      -279.7841
  14   2.0000     -10.279541      -279.7205
  15   2.0000     -10.271911      -279.5129
  16   2.0000      -8.079292      -219.8487
  17   2.0000      -8.077326      -219.7952
  18   2.0000      -6.037528      -164.2895
  19   2.0000      -6.035680      -164.2392
  20   2.0000      -6.033522      -164.1805
  21   2.0000      -6.031535      -164.1264
  22   2.0000      -6.030288      -164.0925
  23   2.0000      -6.028290      -164.0381
  24   2.0000      -1.015507       -27.6333
  25   2.0000      -0.992325       -27.0025
  26   2.0000      -0.914498       -24.8847
  27   2.0000      -0.904243       -24.6057
  28   2.0000      -0.874512       -23.7967
  29   2.0000      -0.852638       -23.2015
  30   2.0000      -0.840691       -22.8764
  31   2.0000      -0.814357       -22.1598
  32   2.0000      -0.782981       -21.3060
  33   2.0000      -0.772529       -21.0216
  34   2.0000      -0.708299       -19.2738
  35   2.0000      -0.695686       -18.9306
  36   2.0000      -0.691834       -18.8258
  37   2.0000      -0.658612       -17.9217
  38   2.0000      -0.647018       -17.6063
  39   2.0000      -0.620647       -16.8887
  40   2.0000      -0.600292       -16.3348
  41   2.0000      -0.571771       -15.5587
  42   2.0000      -0.554403       -15.0861
  43   2.0000      -0.550329       -14.9752
  44   2.0000      -0.544288       -14.8108
  45   2.0000      -0.535693       -14.5769
  46   2.0000      -0.517898       -14.0927
  47   2.0000      -0.510098       -13.8805
  48   2.0000      -0.499244       -13.5851
  49   2.0000      -0.496650       -13.5145
  50   2.0000      -0.486338       -13.2339
  51   2.0000      -0.479356       -13.0439
  52   2.0000      -0.470856       -12.8126
  53   2.0000      -0.468843       -12.7579
  54   2.0000      -0.464625       -12.6431
  55   2.0000      -0.444674       -12.1002
  56   2.0000      -0.441599       -12.0165
  57   2.0000      -0.432209       -11.7610
  58   2.0000      -0.428323       -11.6553
  59   2.0000      -0.424935       -11.5631
  60   2.0000      -0.418044       -11.3755
  61   2.0000      -0.410390       -11.1673
  62   2.0000      -0.400713       -10.9040
  63   2.0000      -0.352306        -9.5867
  64   2.0000      -0.331720        -9.0266
  65   2.0000      -0.329127        -8.9560
  66   2.0000      -0.291789        -7.9400
  67   0.0000       0.034538         0.9398
  68   0.0000       0.072250         1.9660
  69   0.0000       0.112796         3.0693
  70   0.0000       0.126643         3.4461
  71   0.0000       0.129469         3.5230

MULLIKEN ATOMIC CHARGES
-----------------------
   0 S :    0.117623
   1 C :   -0.094596
   2 C :   -0.083381
   3 C :    0.027402
   4 C :   -0.177364
   5 H :    0.024255
   6 C :    0.093874
   7 H :    0.010666
   8 H :    0.039955
   9 C :   -0.080132
  10 H :    0.018541
  11 H :    0.004180
  12 C :   -0.042062
  13 H :    0.035969
  14 H :    0.013465
  15 H :    0.041039
  16 S :    0.103837
  17 C :   -0.062040
  18 C :   -0.000272
  19 C :   -0.094294
  20 C :   -0.120728
  21 H :    0.010475
  22 C :    0.030834
  23 H :    0.028397
  24 H :    0.034681
  25 C :   -0.033315
  26 H :    0.030614
  27 H :    0.040601
  28 C :   -0.109735
  29 H :    0.044971
  30 H :    0.026897
  31 H :    0.054090
  32 H :    0.027711
  33 H :    0.037841
Sum of atomic charges:   -0.0000000

LOEWDIN ATOMIC CHARGES
----------------------
   0 S :    0.438969
   1 C :   -0.210609
   2 C :   -0.067526
   3 C :   -0.061238
   4 C :   -0.198087
   5 H :    0.037206
   6 C :   -0.025229
   7 H :    0.028843
   8 H :    0.036104
   9 C :   -0.048831
  10 H :    0.022731
  11 H :    0.015129
  12 C :   -0.060091
  13 H :    0.032714
  14 H :    0.012929
  15 H :    0.024775
  16 S :    0.423136
  17 C :   -0.186881
  18 C :   -0.076503
  19 C :   -0.050226
  20 C :   -0.197438
  21 H :    0.024653
  22 C :   -0.041576
  23 H :    0.030991
  24 H :    0.037523
  25 C :   -0.042334
  26 H :    0.026579
  27 H :    0.032245
  28 C :   -0.083855
  29 H :    0.037034
  30 H :    0.023023
  31 H :    0.028899
  32 H :    0.020761
  33 H :    0.016182

  Mayer bond orders larger than 0.100000
B(  0-S ,  1-C ) :   1.1549 B(  0-S ,  4-C ) :   1.1645 B(  1-C ,  2-C ) :   1.5957
B(  1-C , 32-H ) :   0.9738 B(  2-C ,  3-C ) :   1.2465 B(  2-C ,  6-C ) :   1.0261
B(  3-C ,  4-C ) :   1.5761 B(  3-C ,  5-H ) :   0.9854 B(  4-C , 20-C ) :   1.0370
B(  6-C ,  7-H ) :   0.9429 B(  6-C ,  8-H ) :   0.9375 B(  6-C ,  9-C ) :   1.0654
B(  9-C , 10-H ) :   0.9567 B(  9-C , 11-H ) :   0.9525 B(  9-C , 12-C ) :   1.0724
B( 12-C , 13-H ) :   0.9722 B( 12-C , 14-H ) :   0.9772 B( 12-C , 15-H ) :   0.9784
B( 16-S , 17-C ) :   1.1905 B( 16-S , 20-C ) :   1.1423 B( 17-C , 18-C ) :   1.5739
B( 17-C , 33-H ) :   0.9783 B( 18-C , 19-C ) :   1.2566 B( 18-C , 21-H ) :   0.9874
B( 19-C , 20-C ) :   1.5774 B( 19-C , 22-C ) :   1.0437 B( 22-C , 23-H ) :   0.9406
B( 22-C , 24-H ) :   0.9341 B( 22-C , 25-C ) :   1.0689 B( 25-C , 26-H ) :   0.9578
B( 25-C , 27-H ) :   0.9557 B( 25-C , 28-C ) :   1.0584 B( 28-C , 29-H ) :   0.9704
B( 28-C , 30-H ) :   0.9772 B( 28-C , 31-H ) :   0.9745

Dispersion correction           -0.016025995
FINAL SINGLE POINT ENERGY     -1339.873593861615

DIPOLE MOMENT
-------------
                                X             Y             Z
Electronic contribution:    -21.83136     -16.19445       1.17394
Nuclear contribution   :     22.33215      16.47761      -0.87967
                        -----------------------------------------
Total Dipole Moment    :      0.50080       0.28316       0.29427
                        -----------------------------------------
Magnitude (a.u.)       :      0.64620
Magnitude (Debye)      :      1.64250

Rotational constants in cm-1:     0.021313     0.009410     0.007787
Rotational constants in MHz :   638.944973   282.098955   233.437770

                             ****ORCA TERMINATED NORMALLY****
TOTAL RUN TIME: 0 days 0 hours 0 minutes 21 seconds 899 msec
