                         Program Version 4.2.1 -  RELEASE  -
|  1> ! wB97X-D3 SP def2-SVP
|  2> %pal
|  3> nprocs 24
|  4> end
|  5>
|  6> * xyz 0 1
|  7> S 	 -63.9797 	 9.38443 	 -76.5614
|  8> C 	 -63.2933 	 7.7845 	 -76.4268
|  9> C 	 -64.2367 	 6.76655 	 -76.5666
| 10> C 	 -65.5867 	 7.3172 	 -76.545
| 11> C 	 -65.6163 	 8.73701 	 -76.5926
| 12> H 	 -66.4772 	 6.66302 	 -76.6144
| 13> C 	 -63.9389 	 5.25828 	 -76.6469
| 14> H 	 -63.3108 	 5.00317 	 -75.8032
| 15> H 	 -63.2453 	 5.10372 	 -77.5083
| 16> C 	 -65.1467 	 4.21807 	 -76.8204
| 17> H 	 -66.0205 	 4.48461 	 -76.2312
| 18> H 	 -65.3261 	 4.21527 	 -77.893
| 19> C 	 -64.6644 	 2.78855 	 -76.4612
| 20> H 	 -65.3342 	 2.00678 	 -76.9198
| 21> H 	 -63.7129 	 2.67925 	 -77.0072
| 22> H 	 -64.4155 	 2.7131 	 -75.3847
| 23> S 	 -67.2721 	 10.0736 	 -78.258
| 24> C 	 -68.8101 	 10.7401 	 -77.6333
| 25> C 	 -68.8208 	 10.5955 	 -76.2407
| 26> C 	 -67.7351 	 9.88852 	 -75.7135
| 27> C 	 -66.7899 	 9.56142 	 -76.6342
| 28> H 	 -69.6513 	 10.9285 	 -75.6819
| 29> C 	 -67.6644 	 9.55045 	 -74.2135
| 30> H 	 -67.4089 	 8.49048 	 -74.1153
| 31> H 	 -68.6626 	 9.6436 	 -73.847
| 32> C 	 -66.7889 	 10.4728 	 -73.3314
| 33> H 	 -67.1126 	 11.4651 	 -73.5057
| 34> H 	 -65.7915 	 10.4875 	 -73.73
| 35> C 	 -67.0176 	 10.2957 	 -71.8511
| 36> H 	 -68.1189 	 10.1916 	 -71.6938
| 37> H 	 -66.8363 	 11.1444 	 -71.2311
| 38> H 	 -66.4884 	 9.41873 	 -71.5072
| 39> H 	 -62.2032 	 7.60117 	 -76.4295
| 40> H 	 -69.6712 	 11.2224 	 -78.1696
| 41> *
| 42>
| 43>                          ****END OF INPUT****

CARTESIAN COORDINATES (ANGSTROEM)
---------------------------------
  S    -63.979700    9.384430  -76.561400
  C    -63.293300    7.784500  -76.426800
  C    -64.236700    6.766550  -76.566600
  C    -65.586700    7.317200  -76.545000
  C    -65.616300    8.737010  -76.592600
  H    -66.477200    6.663020  -76.614400
  C    -63.938900    5.258280  -76.646900
  H    -63.310800    5.003170  -75.803200
  H    -63.245300    5.103720  -77.508300
  C    -65.146700    4.218070  -76.820400
  H    -66.020500    4.484610  -76.231200
  H    -65.326100    4.215270  -77.893000
  C    -64.664400    2.788550  -76.461200
  H    -65.334200    2.006780  -76.919800
  H    -63.712900    2.679250  -77.007200
  H    -64.415500    2.713100  -75.384700
  S    -67.272100   10.073600  -78.258000
  C    -68.810100   10.740100  -77.633300
  C    -68.820800   10.595500  -76.240700
  C    -67.735100    9.888520  -75.713500
  C    -66.789900    9.561420  -76.634200
  H    -69.651300   10.928500  -75.681900
  C    -67.664400    9.550450  -74.213500
  H    -67.408900    8.490480  -74.115300
  H    -68.662600    9.643600  -73.847000
  C    -66.788900   10.472800  -73.331400
  H    -67.112600   11.465100  -73.505700
  H    -65.791500   10.487500  -73.730000
  C    -67.017600   10.295700  -71.851100
  H    -68.118900   10.191600  -71.693800
  H    -66.836300   11.144400  -71.231100
  H    -66.488400    9.418730  -71.507200
  H    -62.203200    7.601170  -76.429500
  H    -69.671200   11.222400  -78.169600

 Total Charge           Charge          ....    0
 Multiplicity           Mult            ....    1
 Number of Electrons    NEL             ....  134
 Basis Dimension        Dim             ....  322

ORBITAL ENERGIES
----------------

  NO   OCC          E(Eh)            E(eV)
   0   2.0000     -88.969813     -2420.9917
   1   2.0000     -88.963890     -2420.8305
   2   2.0000     -10.331095      -281.1234
   3   2.0000     -10.324371      -280.9404
   4   2.0000     -10.320598      -280.8378
   5   2.0000     -10.316303      -280.7209
   6   2.0000     -10.307710      -280.4871
   7   2.0000     -10.302795      -280.3533
   8   2.0000     -10.301744      -280.3247
   9   2.0000     -10.297532      -280.2101
  10   2.0000     -10.296485      -280.1816
  11   2.0000     -10.289232      -279.9842
  12   2.0000     -10.288362      -279.9606
  13   2.0000     -10.286943      -279.9220
  14   2.0000     -10.274524      -279.5840
  15   2.0000     -10.273846      -279.5656
  16   2.0000      -8.083930      -219.9749
  17   2.0000      -8.077695      -219.8053
  18   2.0000      -6.042459      -164.4237
  19   2.0000      -6.038451      -164.3146
  20   2.0000      -6.036320      -164.2566
  21   2.0000      -6.034787      -164.2149
  22   2.0000      -6.032219      -164.1450
  23   2.0000      -6.028475      -164.0431
  24   2.0000      -1.001903       -27.2632
  25   2.0000      -0.977491       -26.5989
  26   2.0000      -0.905743       -24.6465
  27   2.0000      -0.903524       -24.5861
  28   2.0000      -0.868845       -23.6425
  29   2.0000      -0.849807       -23.1244
  30   2.0000      -0.845051       -22.9950
  31   2.0000      -0.807734       -21.9796
  32   2.0000      -0.778149       -21.1745
  33   2.0000      -0.766996       -20.8710
  34   2.0000      -0.711394       -19.3580
  35   2.0000      -0.699446       -19.0329
  36   2.0000      -0.687954       -18.7202
  37   2.0000      -0.664391       -18.0790
  38   2.0000      -0.635381       -17.2896
  39   2.0000      -0.615959       -16.7611
  40   2.0000      -0.589122       -16.0308
  41   2.0000      -0.571353       -15.5473
  42   2.0000      -0.566352       -15.4112
  43   2.0000      -0.558954       -15.2099
  44   2.0000      -0.523914       -14.2564
  45   2.0000      -0.521242       -14.1837
  46   2.0000      -0.515516       -14.0279
  47   2.0000      -0.505477       -13.7547
  48   2.0000      -0.503867       -13.7109
  49   2.0000      -0.494369       -13.4525
  50   2.0000      -0.494057       -13.4440
  51   2.0000      -0.474767       -12.9191
  52   2.0000      -0.466140       -12.6843
  53   2.0000      -0.463457       -12.6113
  54   2.0000      -0.457884       -12.4597
  55   2.0000      -0.451275       -12.2798
  56   2.0000      -0.448831       -12.2133
  57   2.0000      -0.434329       -11.8187
  58   2.0000      -0.427318       -11.6279
  59   2.0000      -0.425161       -11.5692
  60   2.0000      -0.422049       -11.4845
  61   2.0000      -0.419649       -11.4192
  62   2.0000      -0.410186       -11.1617
  63   2.0000      -0.336607        -9.1595
  64   2.0000      -0.327561        -8.9134
  65   2.0000      -0.321472        -8.7477
  66   2.0000      -0.303841        -8.2679
  67   0.0000       0.041565         1.1311
  68   0.0000       0.048411         1.3173
  69   0.0000       0.117572         3.1993
  70   0.0000       0.119081         3.2404
  71   0.0000       0.126165         3.4331

MULLIKEN ATOMIC CHARGES
-----------------------
   0 S :    0.127929
   1 C :   -0.139459
   2 C :   -0.082127
   3 C :    0.039392
   4 C :   -0.177488
   5 H :    0.029845
   6 C :    0.007984
   7 H :    0.032983
   8 H :    0.041037
   9 C :   -0.081438
  10 H :    0.048771
  11 H :    0.041758
  12 C :   -0.074287
  13 H :    0.052094
  14 H :    0.024615
  15 H :    0.049615
  16 S :    0.104860
  17 C :   -0.112797
  18 C :   -0.033821
  19 C :   -0.016950
  20 C :   -0.185461
  21 H :    0.001573
  22 C :    0.097518
  23 H :    0.028724
  24 H :   -0.009215
  25 C :   -0.028477
  26 H :    0.001207
  27 H :    0.022442
  28 C :   -0.029166
  29 H :    0.018176
  30 H :    0.029299
  31 H :    0.037578
  32 H :    0.056973
  33 H :    0.076314
Sum of atomic charges:    0.0000000

LOEWDIN ATOMIC CHARGES
----------------------
   0 S :    0.414524
   1 C :   -0.208792
   2 C :   -0.063667
   3 C :   -0.057026
   4 C :   -0.206925
   5 H :    0.035988
   6 C :   -0.039480
   7 H :    0.028680
   8 H :    0.038172
   9 C :   -0.038145
  10 H :    0.021126
  11 H :    0.028529
  12 C :   -0.071613
  13 H :    0.035210
  14 H :    0.025318
  15 H :    0.029307
  16 S :    0.390693
  17 C :   -0.184886
  18 C :   -0.070055
  19 C :   -0.054685
  20 C :   -0.200153
  21 H :    0.023739
  22 C :   -0.021226
  23 H :    0.030824
  24 H :    0.019944
  25 C :   -0.038948
  26 H :    0.019788
  27 H :    0.020412
  28 C :   -0.062043
  29 H :    0.030268
  30 H :    0.023951
  31 H :    0.024475
  32 H :    0.032057
  33 H :    0.044643

  Mayer bond orders larger than 0.100000
B(  0-S ,  1-C ) :   1.1496 B(  0-S ,  4-C ) :   1.1544 B(  1-C ,  2-C ) :   1.6074
B(  1-C ,  4-C ) :   0.1047 B(  1-C , 32-H ) :   0.9665 B(  2-C ,  3-C ) :   1.2656
B(  2-C ,  6-C ) :   0.9957 B(  3-C ,  4-C ) :   1.5600 B(  3-C ,  5-H ) :   0.9803
B(  4-C , 20-C ) :   1.0225 B(  6-C ,  7-H ) :   0.9505 B(  6-C ,  8-H ) :   0.9388
B(  6-C ,  9-C ) :   1.0565 B(  9-C , 10-H ) :   0.9573 B(  9-C , 11-H ) :   0.9568
B(  9-C , 12-C ) :   1.0823 B( 12-C , 13-H ) :   0.9721 B( 12-C , 14-H ) :   0.9725
B( 12-C , 15-H ) :   0.9771 B( 16-S , 17-C ) :   1.1516 B( 16-S , 20-C ) :   1.1364
B( 17-C , 18-C ) :   1.6021 B( 17-C , 20-C ) :   0.1086 B( 17-C , 33-H ) :   0.9603
B( 18-C , 19-C ) :   1.2579 B( 18-C , 21-H ) :   0.9897 B( 19-C , 20-C ) :   1.6171
B( 19-C , 22-C ) :   1.0392 B( 22-C , 23-H ) :   0.9298 B( 22-C , 24-H ) :   0.9244
B( 22-C , 25-C ) :   1.0703 B( 25-C , 26-H ) :   0.9473 B( 25-C , 27-H ) :   0.9553
B( 25-C , 28-C ) :   1.0801 B( 28-C , 29-H ) :   0.9677 B( 28-C , 30-H ) :   0.9754
B( 28-C , 31-H ) :   0.9778

Dispersion correction           -0.013745722
FINAL SINGLE POINT ENERGY     -1339.873930122077

DIPOLE MOMENT
-------------
                                X             Y             Z
Electronic contribution:      1.32756      17.82450     -16.83331
Nuclear contribution   :     -1.48651     -18.31694      17.10027
                        -----------------------------------------
Total Dipole Moment    :     -0.15896      -0.49243       0.26696
                        -----------------------------------------
Magnitude (a.u.)       :      0.58226
Magnitude (Debye)      :      1.47999

Rotational constants in cm-1:     0.016815     0.007825     0.006999
Rotational constants in MHz :   504.087483   234.577319   209.835531

                             ****ORCA TERMINATED NORMALLY****
TOTAL RUN TIME: 0 days 0 hours 0 minutes 19 seconds 950 msec
