                         Program Version 4.2.1 -  RELEASE  -
|  1> ! wB97X-D3 SP def2-SVP
|  2> %pal
|  3> nprocs 24
|  4> end
|  5>
|  6> * xyz 0 1
|  7> S 	 -134.326 	 25.3659 	 -17.8802
|  8> C 	 -133.525 	 25.9745 	 -16.3535
|  9> C 	 -132.38 	 25.1791 	 -16.1765
| 10> C 	 -132.158 	 24.2743 	 -17.2029
| 11> C 	 -133.053 	 24.2442 	 -18.24
| 12> H 	 -131.267 	 23.6415 	 -17.2367
| 13> C 	 -131.287 	 25.3229 	 -15.038
| 14> H 	 -131.675 	 26.2057 	 -14.4181
| 15> H 	 -130.362 	 25.5874 	 -15.5081
| 16> C 	 -130.978 	 24.0113 	 -14.249
| 17> H 	 -131.811 	 23.512 	 -13.9169
| 18> H 	 -130.536 	 23.3275 	 -15.0004
| 19> C 	 -129.984 	 24.1423 	 -13.1136
| 20> H 	 -129.142 	 24.7435 	 -13.4764
| 21> H 	 -130.417 	 24.6851 	 -12.2764
| 22> H 	 -129.694 	 23.1771 	 -12.7553
| 23> S 	 -133.766 	 24.183 	 -20.9217
| 24> C 	 -133.464 	 22.7421 	 -21.8319
| 25> C 	 -132.882 	 21.7579 	 -21.0903
| 26> C 	 -132.756 	 22.127 	 -19.7
| 27> C 	 -133.159 	 23.4242 	 -19.4428
| 28> H 	 -132.631 	 20.8792 	 -21.5252
| 29> C 	 -132.134 	 21.1405 	 -18.7639
| 30> H 	 -132.132 	 21.5722 	 -17.7516
| 31> H 	 -131.029 	 20.9221 	 -18.9677
| 32> C 	 -133.016 	 19.9241 	 -18.6873
| 33> H 	 -133.316 	 19.527 	 -19.6515
| 34> H 	 -134.001 	 20.2433 	 -18.2507
| 35> C 	 -132.428 	 18.7659 	 -17.8658
| 36> H 	 -131.41 	 18.4496 	 -18.0647
| 37> H 	 -133.056 	 17.8949 	 -17.9766
| 38> H 	 -132.396 	 19.009 	 -16.7975
| 39> H 	 -133.726 	 26.7492 	 -15.6029
| 40> H 	 -133.733 	 22.604 	 -22.8493
| 41> *
| 42>
| 43>                          ****END OF INPUT****

CARTESIAN COORDINATES (ANGSTROEM)
---------------------------------
  S    -134.326000   25.365900  -17.880200
  C    -133.525000   25.974500  -16.353500
  C    -132.380000   25.179100  -16.176500
  C    -132.158000   24.274300  -17.202900
  C    -133.053000   24.244200  -18.240000
  H    -131.267000   23.641500  -17.236700
  C    -131.287000   25.322900  -15.038000
  H    -131.675000   26.205700  -14.418100
  H    -130.362000   25.587400  -15.508100
  C    -130.978000   24.011300  -14.249000
  H    -131.811000   23.512000  -13.916900
  H    -130.536000   23.327500  -15.000400
  C    -129.984000   24.142300  -13.113600
  H    -129.142000   24.743500  -13.476400
  H    -130.417000   24.685100  -12.276400
  H    -129.694000   23.177100  -12.755300
  S    -133.766000   24.183000  -20.921700
  C    -133.464000   22.742100  -21.831900
  C    -132.882000   21.757900  -21.090300
  C    -132.756000   22.127000  -19.700000
  C    -133.159000   23.424200  -19.442800
  H    -132.631000   20.879200  -21.525200
  C    -132.134000   21.140500  -18.763900
  H    -132.132000   21.572200  -17.751600
  H    -131.029000   20.922100  -18.967700
  C    -133.016000   19.924100  -18.687300
  H    -133.316000   19.527000  -19.651500
  H    -134.001000   20.243300  -18.250700
  C    -132.428000   18.765900  -17.865800
  H    -131.410000   18.449600  -18.064700
  H    -133.056000   17.894900  -17.976600
  H    -132.396000   19.009000  -16.797500
  H    -133.726000   26.749200  -15.602900
  H    -133.733000   22.604000  -22.849300

 Total Charge           Charge          ....    0
 Multiplicity           Mult            ....    1
 Number of Electrons    NEL             ....  134
 Basis Dimension        Dim             ....  322

ORBITAL ENERGIES
----------------

  NO   OCC          E(Eh)            E(eV)
   0   2.0000     -88.967732     -2420.9351
   1   2.0000     -88.966444     -2420.9000
   2   2.0000     -10.331712      -281.1402
   3   2.0000     -10.331367      -281.1308
   4   2.0000     -10.323382      -280.9135
   5   2.0000     -10.314748      -280.6786
   6   2.0000     -10.305182      -280.4183
   7   2.0000     -10.304016      -280.3865
   8   2.0000     -10.302173      -280.3364
   9   2.0000     -10.295094      -280.1437
  10   2.0000     -10.288166      -279.9552
  11   2.0000     -10.287999      -279.9507
  12   2.0000     -10.286952      -279.9222
  13   2.0000     -10.284005      -279.8420
  14   2.0000     -10.277754      -279.6719
  15   2.0000     -10.276261      -279.6313
  16   2.0000      -8.081363      -219.9051
  17   2.0000      -8.081254      -219.9021
  18   2.0000      -6.039994      -164.3566
  19   2.0000      -6.039942      -164.3552
  20   2.0000      -6.035882      -164.2447
  21   2.0000      -6.035829      -164.2433
  22   2.0000      -6.031981      -164.1385
  23   2.0000      -6.031894      -164.1362
  24   2.0000      -1.008640       -27.4465
  25   2.0000      -0.984433       -26.7878
  26   2.0000      -0.915369       -24.9085
  27   2.0000      -0.908797       -24.7296
  28   2.0000      -0.873809       -23.7776
  29   2.0000      -0.851986       -23.1837
  30   2.0000      -0.842294       -22.9200
  31   2.0000      -0.816830       -22.2271
  32   2.0000      -0.784311       -21.3422
  33   2.0000      -0.774638       -21.0790
  34   2.0000      -0.710847       -19.3431
  35   2.0000      -0.700110       -19.0510
  36   2.0000      -0.697838       -18.9891
  37   2.0000      -0.665422       -18.1071
  38   2.0000      -0.639706       -17.4073
  39   2.0000      -0.620388       -16.8816
  40   2.0000      -0.603696       -16.4274
  41   2.0000      -0.576428       -15.6854
  42   2.0000      -0.564282       -15.3549
  43   2.0000      -0.556800       -15.1513
  44   2.0000      -0.533853       -14.5269
  45   2.0000      -0.527545       -14.3552
  46   2.0000      -0.516896       -14.0655
  47   2.0000      -0.510669       -13.8960
  48   2.0000      -0.509813       -13.8727
  49   2.0000      -0.500341       -13.6150
  50   2.0000      -0.488500       -13.2928
  51   2.0000      -0.485433       -13.2093
  52   2.0000      -0.473548       -12.8859
  53   2.0000      -0.461321       -12.5532
  54   2.0000      -0.458709       -12.4821
  55   2.0000      -0.454768       -12.3749
  56   2.0000      -0.444541       -12.0966
  57   2.0000      -0.441388       -12.0108
  58   2.0000      -0.439633       -11.9630
  59   2.0000      -0.421000       -11.4560
  60   2.0000      -0.419360       -11.4114
  61   2.0000      -0.413378       -11.2486
  62   2.0000      -0.410914       -11.1815
  63   2.0000      -0.354135        -9.6365
  64   2.0000      -0.333217        -9.0673
  65   2.0000      -0.331450        -9.0192
  66   2.0000      -0.290934        -7.9167
  67   0.0000       0.023024         0.6265
  68   0.0000       0.079373         2.1598
  69   0.0000       0.102332         2.7846
  70   0.0000       0.116039         3.1576
  71   0.0000       0.128720         3.5026

MULLIKEN ATOMIC CHARGES
-----------------------
   0 S :    0.093075
   1 C :   -0.119140
   2 C :   -0.096215
   3 C :   -0.003881
   4 C :   -0.119569
   5 H :    0.013542
   6 C :    0.048338
   7 H :    0.029549
   8 H :    0.033698
   9 C :   -0.078148
  10 H :    0.014453
  11 H :    0.024041
  12 C :   -0.017184
  13 H :    0.025639
  14 H :    0.029232
  15 H :    0.031914
  16 S :    0.104553
  17 C :   -0.066070
  18 C :    0.006240
  19 C :   -0.053608
  20 C :   -0.116921
  21 H :   -0.021621
  22 C :    0.064486
  23 H :    0.015162
  24 H :    0.051361
  25 C :   -0.109072
  26 H :    0.025506
  27 H :    0.038702
  28 C :   -0.025084
  29 H :    0.023926
  30 H :    0.030690
  31 H :    0.024925
  32 H :    0.050933
  33 H :    0.046549
Sum of atomic charges:    0.0000000

LOEWDIN ATOMIC CHARGES
----------------------
   0 S :    0.390549
   1 C :   -0.192724
   2 C :   -0.063666
   3 C :   -0.081308
   4 C :   -0.187147
   5 H :    0.029172
   6 C :   -0.024753
   7 H :    0.032213
   8 H :    0.027941
   9 C :   -0.038617
  10 H :    0.011872
  11 H :    0.025317
  12 C :   -0.057278
  13 H :    0.026020
  14 H :    0.024643
  15 H :    0.024859
  16 S :    0.401983
  17 C :   -0.173545
  18 C :   -0.055198
  19 C :   -0.048222
  20 C :   -0.195258
  21 H :    0.013873
  22 C :   -0.041694
  23 H :    0.030297
  24 H :    0.039434
  25 C :   -0.042136
  26 H :    0.018072
  27 H :    0.036348
  28 C :   -0.068157
  29 H :    0.022188
  30 H :    0.026083
  31 H :    0.025292
  32 H :    0.038510
  33 H :    0.025038

  Mayer bond orders larger than 0.100000
B(  0-S ,  1-C ) :   1.1187 B(  0-S ,  4-C ) :   1.1511 B(  1-C ,  2-C ) :   1.6085
B(  1-C ,  4-C ) :   0.1140 B(  1-C , 32-H ) :   0.9635 B(  2-C ,  3-C ) :   1.2688
B(  2-C ,  6-C ) :   1.0129 B(  3-C ,  4-C ) :   1.5711 B(  3-C ,  5-H ) :   0.9889
B(  4-C , 20-C ) :   1.0370 B(  6-C ,  7-H ) :   0.9475 B(  6-C ,  8-H ) :   0.9433
B(  6-C ,  9-C ) :   1.0517 B(  9-C , 10-H ) :   0.9596 B(  9-C , 11-H ) :   0.9500
B(  9-C , 12-C ) :   1.0953 B( 12-C , 13-H ) :   0.9722 B( 12-C , 14-H ) :   0.9749
B( 12-C , 15-H ) :   0.9726 B( 16-S , 17-C ) :   1.1510 B( 16-S , 20-C ) :   1.1228
B( 17-C , 18-C ) :   1.6259 B( 17-C , 33-H ) :   0.9688 B( 18-C , 19-C ) :   1.2087
B( 18-C , 21-H ) :   1.0081 B( 19-C , 20-C ) :   1.6111 B( 19-C , 22-C ) :   1.0550
B( 22-C , 23-H ) :   0.9253 B( 22-C , 24-H ) :   0.9382 B( 22-C , 25-C ) :   1.0498
B( 25-C , 26-H ) :   0.9664 B( 25-C , 27-H ) :   0.9462 B( 25-C , 28-C ) :   1.0813
B( 28-C , 29-H ) :   0.9750 B( 28-C , 30-H ) :   0.9738 B( 28-C , 31-H ) :   0.9723

Dispersion correction           -0.013422995
FINAL SINGLE POINT ENERGY     -1339.873714873709

DIPOLE MOMENT
-------------
                                X             Y             Z
Electronic contribution:    -15.82533      17.83049     -21.54947
Nuclear contribution   :     16.32668     -18.39033      21.81882
                        -----------------------------------------
Total Dipole Moment    :      0.50135      -0.55983       0.26935
                        -----------------------------------------
Magnitude (a.u.)       :      0.79832
Magnitude (Debye)      :      2.02917

Rotational constants in cm-1:     0.016599     0.008898     0.006260
Rotational constants in MHz :   497.624147   266.750962   187.663936

                             ****ORCA TERMINATED NORMALLY****
TOTAL RUN TIME: 0 days 0 hours 0 minutes 21 seconds 388 msec
