                         Program Version 4.2.1 -  RELEASE  -
|  1> ! wB97X-D3 SP def2-SVP
|  2> %pal
|  3> nprocs 24
|  4> end
|  5>
|  6> * xyz 0 1
|  7> S 	 22.2722 	 -8.49797 	 -112.255
|  8> C 	 22.1339 	 -8.71297 	 -110.511
|  9> C 	 20.8312 	 -8.82249 	 -110.116
| 10> C 	 19.9163 	 -8.69829 	 -111.196
| 11> C 	 20.5217 	 -8.50943 	 -112.416
| 12> H 	 18.8717 	 -8.70326 	 -111.051
| 13> C 	 20.4246 	 -9.13746 	 -108.752
| 14> H 	 19.3331 	 -9.22618 	 -108.809
| 15> H 	 20.6781 	 -8.26387 	 -108.082
| 16> C 	 20.9238 	 -10.5269 	 -108.354
| 17> H 	 22.0055 	 -10.5117 	 -108.112
| 18> H 	 20.4858 	 -10.7987 	 -107.357
| 19> C 	 20.5753 	 -11.757 	 -109.32
| 20> H 	 20.6992 	 -12.7034 	 -108.777
| 21> H 	 19.5425 	 -11.7361 	 -109.555
| 22> H 	 21.1397 	 -11.7215 	 -110.282
| 23> S 	 19.9622 	 -9.72394 	 -114.827
| 24> C 	 18.9513 	 -8.94448 	 -116.035
| 25> C 	 18.3345 	 -7.85125 	 -115.51
| 26> C 	 18.7242 	 -7.58352 	 -114.155
| 27> C 	 19.7845 	 -8.42906 	 -113.716
| 28> H 	 17.6163 	 -7.26298 	 -116.057
| 29> C 	 18.0932 	 -6.49649 	 -113.311
| 30> H 	 18.0364 	 -5.6082 	 -113.894
| 31> H 	 18.6606 	 -6.31654 	 -112.385
| 32> C 	 16.6432 	 -6.87595 	 -112.909
| 33> H 	 16.6865 	 -7.63189 	 -112.169
| 34> H 	 16.1184 	 -7.31764 	 -113.797
| 35> C 	 15.672 	 -5.70863 	 -112.478
| 36> H 	 14.6527 	 -5.99782 	 -112.186
| 37> H 	 15.6133 	 -4.90204 	 -113.223
| 38> H 	 16.0208 	 -5.22632 	 -111.508
| 39> H 	 22.9684 	 -8.90185 	 -109.809
| 40> H 	 18.6595 	 -9.28319 	 -116.973
| 41> *
| 42>
| 43>                          ****END OF INPUT****

CARTESIAN COORDINATES (ANGSTROEM)
---------------------------------
  S     22.272200   -8.497970  -112.255000
  C     22.133900   -8.712970  -110.511000
  C     20.831200   -8.822490  -110.116000
  C     19.916300   -8.698290  -111.196000
  C     20.521700   -8.509430  -112.416000
  H     18.871700   -8.703260  -111.051000
  C     20.424600   -9.137460  -108.752000
  H     19.333100   -9.226180  -108.809000
  H     20.678100   -8.263870  -108.082000
  C     20.923800  -10.526900  -108.354000
  H     22.005500  -10.511700  -108.112000
  H     20.485800  -10.798700  -107.357000
  C     20.575300  -11.757000  -109.320000
  H     20.699200  -12.703400  -108.777000
  H     19.542500  -11.736100  -109.555000
  H     21.139700  -11.721500  -110.282000
  S     19.962200   -9.723940  -114.827000
  C     18.951300   -8.944480  -116.035000
  C     18.334500   -7.851250  -115.510000
  C     18.724200   -7.583520  -114.155000
  C     19.784500   -8.429060  -113.716000
  H     17.616300   -7.262980  -116.057000
  C     18.093200   -6.496490  -113.311000
  H     18.036400   -5.608200  -113.894000
  H     18.660600   -6.316540  -112.385000
  C     16.643200   -6.875950  -112.909000
  H     16.686500   -7.631890  -112.169000
  H     16.118400   -7.317640  -113.797000
  C     15.672000   -5.708630  -112.478000
  H     14.652700   -5.997820  -112.186000
  H     15.613300   -4.902040  -113.223000
  H     16.020800   -5.226320  -111.508000
  H     22.968400   -8.901850  -109.809000
  H     18.659500   -9.283190  -116.973000

 Total Charge           Charge          ....    0
 Multiplicity           Mult            ....    1
 Number of Electrons    NEL             ....  134
 Basis Dimension        Dim             ....  322

ORBITAL ENERGIES
----------------

  NO   OCC          E(Eh)            E(eV)
   0   2.0000     -88.969426     -2420.9812
   1   2.0000     -88.964863     -2420.8570
   2   2.0000     -10.333006      -281.1754
   3   2.0000     -10.329189      -281.0715
   4   2.0000     -10.312859      -280.6272
   5   2.0000     -10.310974      -280.5759
   6   2.0000     -10.305927      -280.4385
   7   2.0000     -10.297036      -280.1966
   8   2.0000     -10.294167      -280.1185
   9   2.0000     -10.292122      -280.0629
  10   2.0000     -10.291564      -280.0477
  11   2.0000     -10.290959      -280.0312
  12   2.0000     -10.290483      -280.0183
  13   2.0000     -10.289934      -280.0033
  14   2.0000     -10.288173      -279.9554
  15   2.0000     -10.282346      -279.7969
  16   2.0000      -8.083528      -219.9640
  17   2.0000      -8.079940      -219.8663
  18   2.0000      -6.042125      -164.4146
  19   2.0000      -6.038464      -164.3149
  20   2.0000      -6.038113      -164.3054
  21   2.0000      -6.034362      -164.2033
  22   2.0000      -6.034244      -164.2001
  23   2.0000      -6.030694      -164.1035
  24   2.0000      -1.006614       -27.3914
  25   2.0000      -0.987749       -26.8780
  26   2.0000      -0.914692       -24.8900
  27   2.0000      -0.903815       -24.5941
  28   2.0000      -0.865801       -23.5596
  29   2.0000      -0.845735       -23.0136
  30   2.0000      -0.841163       -22.8892
  31   2.0000      -0.817364       -22.2416
  32   2.0000      -0.782503       -21.2930
  33   2.0000      -0.769806       -20.9475
  34   2.0000      -0.708403       -19.2766
  35   2.0000      -0.701914       -19.1000
  36   2.0000      -0.695391       -18.9226
  37   2.0000      -0.661284       -17.9945
  38   2.0000      -0.637614       -17.3503
  39   2.0000      -0.615364       -16.7449
  40   2.0000      -0.593942       -16.1620
  41   2.0000      -0.575575       -15.6622
  42   2.0000      -0.564414       -15.3585
  43   2.0000      -0.555590       -15.1184
  44   2.0000      -0.538607       -14.6563
  45   2.0000      -0.514805       -14.0086
  46   2.0000      -0.512996       -13.9593
  47   2.0000      -0.508980       -13.8501
  48   2.0000      -0.506814       -13.7911
  49   2.0000      -0.495074       -13.4717
  50   2.0000      -0.492198       -13.3934
  51   2.0000      -0.473714       -12.8904
  52   2.0000      -0.469576       -12.7778
  53   2.0000      -0.465320       -12.6620
  54   2.0000      -0.459832       -12.5127
  55   2.0000      -0.454698       -12.3730
  56   2.0000      -0.447583       -12.1794
  57   2.0000      -0.440180       -11.9779
  58   2.0000      -0.437016       -11.8918
  59   2.0000      -0.422936       -11.5087
  60   2.0000      -0.420293       -11.4368
  61   2.0000      -0.413582       -11.2541
  62   2.0000      -0.412580       -11.2269
  63   2.0000      -0.344724        -9.3804
  64   2.0000      -0.331716        -9.0265
  65   2.0000      -0.324445        -8.8286
  66   2.0000      -0.298363        -8.1189
  67   0.0000       0.033153         0.9022
  68   0.0000       0.067101         1.8259
  69   0.0000       0.116314         3.1651
  70   0.0000       0.117933         3.2091
  71   0.0000       0.127668         3.4740

MULLIKEN ATOMIC CHARGES
-----------------------
   0 S :    0.121114
   1 C :   -0.132868
   2 C :   -0.115962
   3 C :    0.060032
   4 C :   -0.154396
   5 H :   -0.010737
   6 C :    0.087916
   7 H :    0.011679
   8 H :    0.060200
   9 C :   -0.120077
  10 H :    0.032058
  11 H :    0.029819
  12 C :   -0.047512
  13 H :    0.040785
  14 H :    0.018697
  15 H :    0.059746
  16 S :    0.114152
  17 C :   -0.050566
  18 C :   -0.031189
  19 C :   -0.054218
  20 C :   -0.162724
  21 H :    0.015846
  22 C :    0.103264
  23 H :    0.013478
  24 H :    0.035279
  25 C :   -0.090197
  26 H :    0.019313
  27 H :    0.033550
  28 C :   -0.073625
  29 H :    0.038425
  30 H :    0.037357
  31 H :    0.028169
  32 H :    0.055935
  33 H :    0.027256
Sum of atomic charges:   -0.0000000

LOEWDIN ATOMIC CHARGES
----------------------
   0 S :    0.404884
   1 C :   -0.197141
   2 C :   -0.072856
   3 C :   -0.056099
   4 C :   -0.193571
   5 H :    0.023263
   6 C :   -0.041391
   7 H :    0.029258
   8 H :    0.046089
   9 C :   -0.043384
  10 H :    0.020669
  11 H :    0.025597
  12 C :   -0.064108
  13 H :    0.031353
  14 H :    0.018124
  15 H :    0.034301
  16 S :    0.421175
  17 C :   -0.176250
  18 C :   -0.066601
  19 C :   -0.052510
  20 C :   -0.212437
  21 H :    0.030738
  22 C :   -0.028071
  23 H :    0.024837
  24 H :    0.033669
  25 C :   -0.037523
  26 H :    0.014285
  27 H :    0.027207
  28 C :   -0.076670
  29 H :    0.027873
  30 H :    0.024047
  31 H :    0.027048
  32 H :    0.035324
  33 H :    0.018870

  Mayer bond orders larger than 0.100000
B(  0-S ,  1-C ) :   1.1307 B(  0-S ,  4-C ) :   1.1601 B(  1-C ,  2-C ) :   1.6100
B(  1-C , 32-H ) :   0.9642 B(  2-C ,  3-C ) :   1.2573 B(  2-C ,  6-C ) :   1.0212
B(  3-C ,  4-C ) :   1.5578 B(  3-C ,  5-H ) :   1.0015 B(  4-C , 20-C ) :   1.0066
B(  6-C ,  7-H ) :   0.9357 B(  6-C ,  8-H ) :   0.9339 B(  6-C ,  9-C ) :   1.0688
B(  9-C , 10-H ) :   0.9579 B(  9-C , 11-H ) :   0.9588 B(  9-C , 12-C ) :   1.0616
B( 12-C , 13-H ) :   0.9761 B( 12-C , 14-H ) :   0.9764 B( 12-C , 15-H ) :   0.9731
B( 16-S , 17-C ) :   1.1482 B( 16-S , 20-C ) :   1.1684 B( 17-C , 18-C ) :   1.6060
B( 17-C , 33-H ) :   0.9737 B( 18-C , 19-C ) :   1.2553 B( 18-C , 21-H ) :   0.9886
B( 19-C , 20-C ) :   1.5657 B( 19-C , 22-C ) :   1.0608 B( 22-C , 23-H ) :   0.9337
B( 22-C , 24-H ) :   0.9333 B( 22-C , 25-C ) :   1.0474 B( 25-C , 26-H ) :   0.9569
B( 25-C , 27-H ) :   0.9617 B( 25-C , 28-C ) :   1.0702 B( 28-C , 29-H ) :   0.9761
B( 28-C , 30-H ) :   0.9767 B( 28-C , 31-H ) :   0.9747

Dispersion correction           -0.014836931
FINAL SINGLE POINT ENERGY     -1339.880626183632

DIPOLE MOMENT
-------------
                                X             Y             Z
Electronic contribution:     16.81776      -2.63567     -17.36512
Nuclear contribution   :    -17.37534       2.67633      17.78103
                        -----------------------------------------
Total Dipole Moment    :     -0.55758       0.04066       0.41591
                        -----------------------------------------
Magnitude (a.u.)       :      0.69680
Magnitude (Debye)      :      1.77112

Rotational constants in cm-1:     0.018073     0.008751     0.007049
Rotational constants in MHz :   541.809992   262.352935   211.326756

                             ****ORCA TERMINATED NORMALLY****
TOTAL RUN TIME: 0 days 0 hours 0 minutes 21 seconds 840 msec
