                         Program Version 4.2.1 -  RELEASE  -
|  1> ! wB97X-D3 SP def2-SVP
|  2> %pal
|  3> nprocs 24
|  4> end
|  5>
|  6> * xyz 0 1
|  7> S 	 -104.81 	 57.5227 	 -88.4155
|  8> C 	 -103.097 	 57.7556 	 -88.234
|  9> C 	 -102.309 	 56.9954 	 -89.0889
| 10> C 	 -103.225 	 56.2166 	 -89.9153
| 11> C 	 -104.542 	 56.4056 	 -89.743
| 12> H 	 -102.783 	 55.5005 	 -90.6154
| 13> C 	 -100.757 	 57.0169 	 -89.1432
| 14> H 	 -100.424 	 56.0884 	 -89.5131
| 15> H 	 -100.316 	 57.2684 	 -88.1531
| 16> C 	 -100.149 	 57.9308 	 -90.1938
| 17> H 	 -100.159 	 57.5065 	 -91.2167
| 18> H 	 -100.815 	 58.7886 	 -90.2445
| 19> C 	 -98.6544 	 58.4561 	 -89.8635
| 20> H 	 -98.5909 	 58.9663 	 -88.8953
| 21> H 	 -98.1098 	 57.5085 	 -89.5867
| 22> H 	 -98.2353 	 58.9592 	 -90.7306
| 23> S 	 -106.755 	 54.8416 	 -89.9225
| 24> C 	 -107.671 	 54.8268 	 -91.4084
| 25> C 	 -107.238 	 55.6655 	 -92.4206
| 26> C 	 -105.983 	 56.339 	 -91.9609
| 27> C 	 -105.638 	 55.9767 	 -90.5879
| 28> H 	 -107.774 	 55.7467 	 -93.3314
| 29> C 	 -105.366 	 57.343 	 -92.8076
| 30> H 	 -104.982 	 58.1898 	 -92.2235
| 31> H 	 -106.122 	 57.8487 	 -93.4486
| 32> C 	 -104.131 	 56.8467 	 -93.5691
| 33> H 	 -104.52 	 56.1021 	 -94.2823
| 34> H 	 -103.456 	 56.2942 	 -92.88
| 35> C 	 -103.406 	 57.9891 	 -94.2154
| 36> H 	 -102.565 	 57.7201 	 -94.8114
| 37> H 	 -102.94 	 58.6623 	 -93.4747
| 38> H 	 -104.112 	 58.4312 	 -94.8983
| 39> H 	 -102.712 	 58.5976 	 -87.7197
| 40> H 	 -108.617 	 54.3357 	 -91.5389
| 41> *
| 42>
| 43>                          ****END OF INPUT****

CARTESIAN COORDINATES (ANGSTROEM)
---------------------------------
  S    -104.810000   57.522700  -88.415500
  C    -103.097000   57.755600  -88.234000
  C    -102.309000   56.995400  -89.088900
  C    -103.225000   56.216600  -89.915300
  C    -104.542000   56.405600  -89.743000
  H    -102.783000   55.500500  -90.615400
  C    -100.757000   57.016900  -89.143200
  H    -100.424000   56.088400  -89.513100
  H    -100.316000   57.268400  -88.153100
  C    -100.149000   57.930800  -90.193800
  H    -100.159000   57.506500  -91.216700
  H    -100.815000   58.788600  -90.244500
  C    -98.654400   58.456100  -89.863500
  H    -98.590900   58.966300  -88.895300
  H    -98.109800   57.508500  -89.586700
  H    -98.235300   58.959200  -90.730600
  S    -106.755000   54.841600  -89.922500
  C    -107.671000   54.826800  -91.408400
  C    -107.238000   55.665500  -92.420600
  C    -105.983000   56.339000  -91.960900
  C    -105.638000   55.976700  -90.587900
  H    -107.774000   55.746700  -93.331400
  C    -105.366000   57.343000  -92.807600
  H    -104.982000   58.189800  -92.223500
  H    -106.122000   57.848700  -93.448600
  C    -104.131000   56.846700  -93.569100
  H    -104.520000   56.102100  -94.282300
  H    -103.456000   56.294200  -92.880000
  C    -103.406000   57.989100  -94.215400
  H    -102.565000   57.720100  -94.811400
  H    -102.940000   58.662300  -93.474700
  H    -104.112000   58.431200  -94.898300
  H    -102.712000   58.597600  -87.719700
  H    -108.617000   54.335700  -91.538900

 Total Charge           Charge          ....    0
 Multiplicity           Mult            ....    1
 Number of Electrons    NEL             ....  134
 Basis Dimension        Dim             ....  322

ORBITAL ENERGIES
----------------

  NO   OCC          E(Eh)            E(eV)
   0   2.0000     -88.967959     -2420.9412
   1   2.0000     -88.964292     -2420.8415
   2   2.0000     -10.328870      -281.0629
   3   2.0000     -10.325268      -280.9648
   4   2.0000     -10.314435      -280.6700
   5   2.0000     -10.312915      -280.6287
   6   2.0000     -10.312091      -280.6062
   7   2.0000     -10.307275      -280.4752
   8   2.0000     -10.299016      -280.2505
   9   2.0000     -10.297679      -280.2141
  10   2.0000     -10.295977      -280.1678
  11   2.0000     -10.291884      -280.0564
  12   2.0000     -10.291800      -280.0541
  13   2.0000     -10.284596      -279.8581
  14   2.0000     -10.283724      -279.8344
  15   2.0000     -10.272458      -279.5278
  16   2.0000      -8.082958      -219.9485
  17   2.0000      -8.079573      -219.8564
  18   2.0000      -6.041416      -164.3953
  19   2.0000      -6.038000      -164.3023
  20   2.0000      -6.037383      -164.2855
  21   2.0000      -6.034084      -164.1958
  22   2.0000      -6.033826      -164.1888
  23   2.0000      -6.030282      -164.0923
  24   2.0000      -1.005272       -27.3549
  25   2.0000      -0.979649       -26.6576
  26   2.0000      -0.915146       -24.9024
  27   2.0000      -0.909539       -24.7498
  28   2.0000      -0.869101       -23.6494
  29   2.0000      -0.851385       -23.1674
  30   2.0000      -0.843384       -22.9496
  31   2.0000      -0.817024       -22.2323
  32   2.0000      -0.784548       -21.3486
  33   2.0000      -0.765327       -20.8256
  34   2.0000      -0.705519       -19.1982
  35   2.0000      -0.697673       -18.9846
  36   2.0000      -0.687315       -18.7028
  37   2.0000      -0.660166       -17.9640
  38   2.0000      -0.645198       -17.5567
  39   2.0000      -0.624346       -16.9893
  40   2.0000      -0.597721       -16.2648
  41   2.0000      -0.575411       -15.6577
  42   2.0000      -0.569954       -15.5092
  43   2.0000      -0.557940       -15.1823
  44   2.0000      -0.531686       -14.4679
  45   2.0000      -0.527013       -14.3408
  46   2.0000      -0.513092       -13.9619
  47   2.0000      -0.511225       -13.9111
  48   2.0000      -0.501340       -13.6422
  49   2.0000      -0.497127       -13.5275
  50   2.0000      -0.489194       -13.3116
  51   2.0000      -0.483192       -13.1483
  52   2.0000      -0.473626       -12.8880
  53   2.0000      -0.461929       -12.5697
  54   2.0000      -0.458268       -12.4701
  55   2.0000      -0.451084       -12.2746
  56   2.0000      -0.442695       -12.0464
  57   2.0000      -0.437031       -11.8922
  58   2.0000      -0.431813       -11.7502
  59   2.0000      -0.427126       -11.6227
  60   2.0000      -0.423787       -11.5318
  61   2.0000      -0.410581       -11.1725
  62   2.0000      -0.409606       -11.1459
  63   2.0000      -0.340927        -9.2771
  64   2.0000      -0.331388        -9.0175
  65   2.0000      -0.323855        -8.8126
  66   2.0000      -0.296114        -8.0577
  67   0.0000       0.039603         1.0777
  68   0.0000       0.057140         1.5549
  69   0.0000       0.111721         3.0401
  70   0.0000       0.116485         3.1697
  71   0.0000       0.125114         3.4045

MULLIKEN ATOMIC CHARGES
-----------------------
   0 S :    0.114453
   1 C :   -0.108186
   2 C :   -0.124762
   3 C :    0.035502
   4 C :   -0.143571
   5 H :    0.018278
   6 C :    0.101207
   7 H :    0.014149
   8 H :    0.038995
   9 C :   -0.106167
  10 H :    0.034403
  11 H :    0.026030
  12 C :   -0.075319
  13 H :    0.039173
  14 H :    0.029699
  15 H :    0.057735
  16 S :    0.123796
  17 C :   -0.079988
  18 C :   -0.029058
  19 C :   -0.012986
  20 C :   -0.169848
  21 H :    0.016518
  22 C :    0.028408
  23 H :    0.019695
  24 H :    0.027634
  25 C :   -0.082420
  26 H :    0.023594
  27 H :    0.023398
  28 C :   -0.011057
  29 H :    0.019228
  30 H :    0.037320
  31 H :    0.025251
  32 H :    0.041038
  33 H :    0.047858
Sum of atomic charges:   -0.0000000

LOEWDIN ATOMIC CHARGES
----------------------
   0 S :    0.405350
   1 C :   -0.189066
   2 C :   -0.060662
   3 C :   -0.057028
   4 C :   -0.206290
   5 H :    0.031118
   6 C :   -0.028977
   7 H :    0.027280
   8 H :    0.037756
   9 C :   -0.044248
  10 H :    0.024299
  11 H :    0.016219
  12 C :   -0.070019
  13 H :    0.026036
  14 H :    0.028816
  15 H :    0.029877
  16 S :    0.424932
  17 C :   -0.186460
  18 C :   -0.063561
  19 C :   -0.036616
  20 C :   -0.219396
  21 H :    0.030021
  22 C :   -0.048714
  23 H :    0.032478
  24 H :    0.034334
  25 C :   -0.038988
  26 H :    0.022718
  27 H :    0.023007
  28 C :   -0.065334
  29 H :    0.021388
  30 H :    0.031083
  31 H :    0.025357
  32 H :    0.019139
  33 H :    0.024150

  Mayer bond orders larger than 0.100000
B(  0-S ,  1-C ) :   1.1528 B(  0-S ,  4-C ) :   1.1300 B(  1-C ,  2-C ) :   1.6278
B(  1-C , 32-H ) :   0.9649 B(  2-C ,  3-C ) :   1.2282 B(  2-C ,  6-C ) :   1.0342
B(  3-C ,  4-C ) :   1.6228 B(  3-C ,  5-H ) :   0.9901 B(  4-C , 20-C ) :   1.0161
B(  6-C ,  7-H ) :   0.9306 B(  6-C ,  8-H ) :   0.9501 B(  6-C ,  9-C ) :   1.0439
B(  9-C , 10-H ) :   0.9597 B(  9-C , 11-H ) :   0.9634 B(  9-C , 12-C ) :   1.0663
B( 12-C , 13-H ) :   0.9765 B( 12-C , 14-H ) :   0.9762 B( 12-C , 15-H ) :   0.9761
B( 16-S , 17-C ) :   1.1599 B( 16-S , 20-C ) :   1.1529 B( 17-C , 18-C ) :   1.6318
B( 17-C , 33-H ) :   0.9622 B( 18-C , 19-C ) :   1.2190 B( 18-C , 21-H ) :   0.9929
B( 19-C , 20-C ) :   1.5689 B( 19-C , 22-C ) :   1.0749 B( 22-C , 23-H ) :   0.9275
B( 22-C , 24-H ) :   0.9344 B( 22-C , 25-C ) :   1.0470 B( 25-C , 26-H ) :   0.9520
B( 25-C , 27-H ) :   0.9533 B( 25-C , 28-C ) :   1.0912 B( 28-C , 29-H ) :   0.9703
B( 28-C , 30-H ) :   0.9701 B( 28-C , 31-H ) :   0.9695

Dispersion correction           -0.014449484
FINAL SINGLE POINT ENERGY     -1339.862328408414

DIPOLE MOMENT
-------------
                                X             Y             Z
Electronic contribution:    -25.81158     -10.80776      16.49592
Nuclear contribution   :     26.24787      11.04736     -17.00593
                        -----------------------------------------
Total Dipole Moment    :      0.43629       0.23961      -0.51001
                        -----------------------------------------
Magnitude (a.u.)       :      0.71265
Magnitude (Debye)      :      1.81141

Rotational constants in cm-1:     0.019420     0.008653     0.006570
Rotational constants in MHz :   582.198152   259.415909   196.969412

                             ****ORCA TERMINATED NORMALLY****
TOTAL RUN TIME: 0 days 0 hours 0 minutes 21 seconds 652 msec
