                         Program Version 4.2.1 -  RELEASE  -
|  1> ! wB97X-D3 SP def2-SVP
|  2> %pal
|  3> nprocs 24
|  4> end
|  5>
|  6> * xyz 0 1
|  7> S 	 -98.942 	 -26.2564 	 -65.8669
|  8> C 	 -99.1508 	 -24.4934 	 -66.1481
|  9> C 	 -99.0306 	 -23.735 	 -64.985
| 10> C 	 -98.6618 	 -24.5754 	 -63.9369
| 11> C 	 -98.4332 	 -25.9255 	 -64.2555
| 12> H 	 -98.2895 	 -24.2823 	 -62.9689
| 13> C 	 -99.1883 	 -22.2229 	 -64.8715
| 14> H 	 -99.7086 	 -21.9606 	 -63.9583
| 15> H 	 -99.7997 	 -21.8855 	 -65.6744
| 16> C 	 -97.8609 	 -21.4104 	 -64.8657
| 17> H 	 -97.3003 	 -21.5056 	 -65.801
| 18> H 	 -98.0486 	 -20.3529 	 -64.8774
| 19> C 	 -96.9467 	 -21.6357 	 -63.6912
| 20> H 	 -96.2934 	 -20.8146 	 -63.4227
| 21> H 	 -97.5733 	 -21.7159 	 -62.7993
| 22> H 	 -96.4496 	 -22.6226 	 -63.7311
| 23> S 	 -99.1948 	 -28.4552 	 -63.3638
| 24> C 	 -98.3038 	 -29.2356 	 -62.0629
| 25> C 	 -97.3133 	 -28.4039 	 -61.6204
| 26> C 	 -97.2699 	 -27.1751 	 -62.2555
| 27> C 	 -98.1906 	 -27.0552 	 -63.3154
| 28> H 	 -96.6018 	 -28.774 	 -60.904
| 29> C 	 -96.1143 	 -26.1649 	 -62.152
| 30> H 	 -96.2211 	 -25.7835 	 -61.2155
| 31> H 	 -96.2639 	 -25.2527 	 -62.7437
| 32> C 	 -94.6582 	 -26.6871 	 -62.2464
| 33> H 	 -94.3859 	 -27.106 	 -63.2078
| 34> H 	 -94.5937 	 -27.4962 	 -61.5759
| 35> C 	 -93.6241 	 -25.5356 	 -61.9663
| 36> H 	 -93.8321 	 -24.6213 	 -62.5601
| 37> H 	 -92.5894 	 -25.9518 	 -62.161
| 38> H 	 -93.6643 	 -25.2864 	 -60.9387
| 39> H 	 -99.3872 	 -24.0388 	 -67.1766
| 40> H 	 -98.4564 	 -30.154 	 -61.5125
| 41> *
| 42>
| 43>                          ****END OF INPUT****

CARTESIAN COORDINATES (ANGSTROEM)
---------------------------------
  S    -98.942000  -26.256400  -65.866900
  C    -99.150800  -24.493400  -66.148100
  C    -99.030600  -23.735000  -64.985000
  C    -98.661800  -24.575400  -63.936900
  C    -98.433200  -25.925500  -64.255500
  H    -98.289500  -24.282300  -62.968900
  C    -99.188300  -22.222900  -64.871500
  H    -99.708600  -21.960600  -63.958300
  H    -99.799700  -21.885500  -65.674400
  C    -97.860900  -21.410400  -64.865700
  H    -97.300300  -21.505600  -65.801000
  H    -98.048600  -20.352900  -64.877400
  C    -96.946700  -21.635700  -63.691200
  H    -96.293400  -20.814600  -63.422700
  H    -97.573300  -21.715900  -62.799300
  H    -96.449600  -22.622600  -63.731100
  S    -99.194800  -28.455200  -63.363800
  C    -98.303800  -29.235600  -62.062900
  C    -97.313300  -28.403900  -61.620400
  C    -97.269900  -27.175100  -62.255500
  C    -98.190600  -27.055200  -63.315400
  H    -96.601800  -28.774000  -60.904000
  C    -96.114300  -26.164900  -62.152000
  H    -96.221100  -25.783500  -61.215500
  H    -96.263900  -25.252700  -62.743700
  C    -94.658200  -26.687100  -62.246400
  H    -94.385900  -27.106000  -63.207800
  H    -94.593700  -27.496200  -61.575900
  C    -93.624100  -25.535600  -61.966300
  H    -93.832100  -24.621300  -62.560100
  H    -92.589400  -25.951800  -62.161000
  H    -93.664300  -25.286400  -60.938700
  H    -99.387200  -24.038800  -67.176600
  H    -98.456400  -30.154000  -61.512500

 Total Charge           Charge          ....    0
 Multiplicity           Mult            ....    1
 Number of Electrons    NEL             ....  134
 Basis Dimension        Dim             ....  322

ORBITAL ENERGIES
----------------

  NO   OCC          E(Eh)            E(eV)
   0   2.0000     -88.971122     -2421.0273
   1   2.0000     -88.968935     -2420.9678
   2   2.0000     -10.332295      -281.1560
   3   2.0000     -10.328346      -281.0486
   4   2.0000     -10.325128      -280.9610
   5   2.0000     -10.314240      -280.6647
   6   2.0000     -10.304937      -280.4116
   7   2.0000     -10.298438      -280.2347
   8   2.0000     -10.297246      -280.2023
   9   2.0000     -10.292267      -280.0668
  10   2.0000     -10.287888      -279.9477
  11   2.0000     -10.286502      -279.9099
  12   2.0000     -10.283509      -279.8285
  13   2.0000     -10.283179      -279.8195
  14   2.0000     -10.282138      -279.7912
  15   2.0000     -10.278138      -279.6823
  16   2.0000      -8.085392      -220.0147
  17   2.0000      -8.083472      -219.9625
  18   2.0000      -6.043791      -164.4599
  19   2.0000      -6.041958      -164.4100
  20   2.0000      -6.040009      -164.3570
  21   2.0000      -6.037847      -164.2982
  22   2.0000      -6.036255      -164.2549
  23   2.0000      -6.034419      -164.2049
  24   2.0000      -1.009128       -27.4598
  25   2.0000      -0.987162       -26.8620
  26   2.0000      -0.914980       -24.8979
  27   2.0000      -0.904142       -24.6030
  28   2.0000      -0.870945       -23.6996
  29   2.0000      -0.848705       -23.0944
  30   2.0000      -0.847063       -23.0497
  31   2.0000      -0.814868       -22.1737
  32   2.0000      -0.788121       -21.4459
  33   2.0000      -0.770272       -20.9602
  34   2.0000      -0.707535       -19.2530
  35   2.0000      -0.704881       -19.1808
  36   2.0000      -0.699217       -19.0267
  37   2.0000      -0.657677       -17.8963
  38   2.0000      -0.638411       -17.3721
  39   2.0000      -0.618749       -16.8370
  40   2.0000      -0.594566       -16.1790
  41   2.0000      -0.577139       -15.7047
  42   2.0000      -0.560591       -15.2545
  43   2.0000      -0.553186       -15.0530
  44   2.0000      -0.544923       -14.8281
  45   2.0000      -0.520273       -14.1573
  46   2.0000      -0.518552       -14.1105
  47   2.0000      -0.506842       -13.7919
  48   2.0000      -0.502167       -13.6647
  49   2.0000      -0.492329       -13.3969
  50   2.0000      -0.488342       -13.2885
  51   2.0000      -0.482384       -13.1263
  52   2.0000      -0.471940       -12.8421
  53   2.0000      -0.467147       -12.7117
  54   2.0000      -0.463914       -12.6238
  55   2.0000      -0.447381       -12.1739
  56   2.0000      -0.444323       -12.0907
  57   2.0000      -0.438151       -11.9227
  58   2.0000      -0.436709       -11.8835
  59   2.0000      -0.433100       -11.7853
  60   2.0000      -0.427752       -11.6397
  61   2.0000      -0.416649       -11.3376
  62   2.0000      -0.406496       -11.0613
  63   2.0000      -0.350455        -9.5364
  64   2.0000      -0.338022        -9.1980
  65   2.0000      -0.332366        -9.0442
  66   2.0000      -0.285219        -7.7612
  67   0.0000       0.025272         0.6877
  68   0.0000       0.070706         1.9240
  69   0.0000       0.103722         2.8224
  70   0.0000       0.124283         3.3819
  71   0.0000       0.130730         3.5573

MULLIKEN ATOMIC CHARGES
-----------------------
   0 S :    0.108868
   1 C :   -0.159751
   2 C :   -0.064185
   3 C :    0.031333
   4 C :   -0.161151
   5 H :    0.004622
   6 C :    0.101195
   7 H :    0.031256
   8 H :    0.015071
   9 C :   -0.059510
  10 H :    0.024525
  11 H :    0.019302
  12 C :   -0.065540
  13 H :    0.039101
  14 H :    0.010389
  15 H :    0.050742
  16 S :    0.114786
  17 C :   -0.087173
  18 C :   -0.063319
  19 C :   -0.018500
  20 C :   -0.146535
  21 H :    0.016773
  22 C :    0.089113
  23 H :   -0.009183
  24 H :    0.010560
  25 C :   -0.038419
  26 H :    0.030414
  27 H :    0.009012
  28 C :   -0.073012
  29 H :    0.046003
  30 H :    0.044790
  31 H :    0.023567
  32 H :    0.072443
  33 H :    0.052415
Sum of atomic charges:    0.0000000

LOEWDIN ATOMIC CHARGES
----------------------
   0 S :    0.406672
   1 C :   -0.193806
   2 C :   -0.063711
   3 C :   -0.064636
   4 C :   -0.198112
   5 H :    0.025026
   6 C :   -0.019235
   7 H :    0.033450
   8 H :    0.028881
   9 C :   -0.041830
  10 H :    0.024308
  11 H :    0.023472
  12 C :   -0.072555
  13 H :    0.029124
  14 H :    0.021466
  15 H :    0.027635
  16 S :    0.419298
  17 C :   -0.191235
  18 C :   -0.072961
  19 C :   -0.063101
  20 C :   -0.204447
  21 H :    0.031112
  22 C :   -0.029920
  23 H :    0.016479
  24 H :    0.027638
  25 C :   -0.029192
  26 H :    0.022756
  27 H :    0.013573
  28 C :   -0.063727
  29 H :    0.030128
  30 H :    0.034310
  31 H :    0.016194
  32 H :    0.041597
  33 H :    0.035350

  Mayer bond orders larger than 0.100000
B(  0-S ,  1-C ) :   1.1467 B(  0-S ,  4-C ) :   1.1645 B(  1-C ,  2-C ) :   1.5906
B(  1-C ,  4-C ) :   0.1074 B(  1-C , 32-H ) :   0.9559 B(  2-C ,  3-C ) :   1.2742
B(  2-C ,  6-C ) :   1.0226 B(  3-C ,  4-C ) :   1.5431 B(  3-C ,  5-H ) :   0.9856
B(  4-C , 20-C ) :   1.0288 B(  6-C ,  7-H ) :   0.9415 B(  6-C ,  8-H ) :   0.9330
B(  6-C ,  9-C ) :   1.0786 B(  9-C , 10-H ) :   0.9524 B(  9-C , 11-H ) :   0.9531
B(  9-C , 12-C ) :   1.0852 B( 12-C , 13-H ) :   0.9701 B( 12-C , 14-H ) :   0.9681
B( 12-C , 15-H ) :   0.9708 B( 16-S , 17-C ) :   1.1530 B( 16-S , 20-C ) :   1.1610
B( 17-C , 18-C ) :   1.5961 B( 17-C , 20-C ) :   0.1034 B( 17-C , 33-H ) :   0.9647
B( 18-C , 19-C ) :   1.2891 B( 18-C , 21-H ) :   0.9891 B( 19-C , 20-C ) :   1.5557
B( 19-C , 22-C ) :   1.0338 B( 22-C , 23-H ) :   0.9158 B( 22-C , 24-H ) :   0.9359
B( 22-C , 25-C ) :   1.0622 B( 25-C , 26-H ) :   0.9610 B( 25-C , 27-H ) :   0.9513
B( 25-C , 28-C ) :   1.0734 B( 28-C , 29-H ) :   0.9777 B( 28-C , 30-H ) :   0.9758
B( 28-C , 31-H ) :   0.9785

Dispersion correction           -0.014509784
FINAL SINGLE POINT ENERGY     -1339.867618229397

DIPOLE MOMENT
-------------
                                X             Y             Z
Electronic contribution:    -19.82704     -22.23863      -9.07325
Nuclear contribution   :     20.17227      22.77154       9.38790
                        -----------------------------------------
Total Dipole Moment    :      0.34523       0.53292       0.31464
                        -----------------------------------------
Magnitude (a.u.)       :      0.70865
Magnitude (Debye)      :      1.80124

Rotational constants in cm-1:     0.016455     0.010031     0.006898
Rotational constants in MHz :   493.319436   300.727913   206.799400

                             ****ORCA TERMINATED NORMALLY****
TOTAL RUN TIME: 0 days 0 hours 0 minutes 22 seconds 190 msec
