                         Program Version 4.2.1 -  RELEASE  -
|  1> ! wB97X-D3 SP def2-SVP
|  2> %pal
|  3> nprocs 24
|  4> end
|  5>
|  6> * xyz 0 1
|  7> S 	 -56.1719 	 -58.1368 	 -83.5946
|  8> C 	 -56.7787 	 -56.7192 	 -82.8288
|  9> C 	 -58.1111 	 -56.7073 	 -82.4827
| 10> C 	 -58.7064 	 -57.9065 	 -82.9873
| 11> C 	 -57.8339 	 -58.7197 	 -83.6489
| 12> H 	 -59.739 	 -58.1486 	 -82.9025
| 13> C 	 -58.8072 	 -55.4998 	 -81.8898
| 14> H 	 -58.1403 	 -54.6745 	 -81.8196
| 15> H 	 -59.0395 	 -55.751 	 -80.8323
| 16> C 	 -60.1273 	 -55.099 	 -82.5149
| 17> H 	 -60.0485 	 -54.788 	 -83.5901
| 18> H 	 -60.8227 	 -55.9512 	 -82.4408
| 19> C 	 -60.6913 	 -53.882 	 -81.7567
| 20> H 	 -61.0659 	 -54.088 	 -80.7622
| 21> H 	 -59.9292 	 -53.1101 	 -81.7398
| 22> H 	 -61.5545 	 -53.5142 	 -82.2842
| 23> S 	 -57.1178 	 -61.4076 	 -83.4891
| 24> C 	 -58.3205 	 -62.5965 	 -84.0259
| 25> C 	 -59.364 	 -62.0152 	 -84.6748
| 26> C 	 -59.3686 	 -60.5831 	 -84.6425
| 27> C 	 -58.1941 	 -60.0862 	 -84.0366
| 28> H 	 -60.0882 	 -62.6336 	 -85.1379
| 29> C 	 -60.5705 	 -59.7672 	 -85.2033
| 30> H 	 -60.2234 	 -58.6836 	 -85.1876
| 31> H 	 -61.4553 	 -59.8464 	 -84.5471
| 32> C 	 -60.922 	 -60.0484 	 -86.6316
| 33> H 	 -61.7845 	 -59.3992 	 -86.8552
| 34> H 	 -61.2761 	 -61.0615 	 -86.6968
| 35> C 	 -59.7974 	 -59.6949 	 -87.6612
| 36> H 	 -58.8465 	 -60.204 	 -87.4856
| 37> H 	 -59.4876 	 -58.6384 	 -87.5949
| 38> H 	 -60.0342 	 -60.077 	 -88.6528
| 39> H 	 -56.0117 	 -55.9402 	 -82.7037
| 40> H 	 -58.2507 	 -63.6829 	 -83.8802
| 41> *
| 42>
| 43>                          ****END OF INPUT****

CARTESIAN COORDINATES (ANGSTROEM)
---------------------------------
  S    -56.171900  -58.136800  -83.594600
  C    -56.778700  -56.719200  -82.828800
  C    -58.111100  -56.707300  -82.482700
  C    -58.706400  -57.906500  -82.987300
  C    -57.833900  -58.719700  -83.648900
  H    -59.739000  -58.148600  -82.902500
  C    -58.807200  -55.499800  -81.889800
  H    -58.140300  -54.674500  -81.819600
  H    -59.039500  -55.751000  -80.832300
  C    -60.127300  -55.099000  -82.514900
  H    -60.048500  -54.788000  -83.590100
  H    -60.822700  -55.951200  -82.440800
  C    -60.691300  -53.882000  -81.756700
  H    -61.065900  -54.088000  -80.762200
  H    -59.929200  -53.110100  -81.739800
  H    -61.554500  -53.514200  -82.284200
  S    -57.117800  -61.407600  -83.489100
  C    -58.320500  -62.596500  -84.025900
  C    -59.364000  -62.015200  -84.674800
  C    -59.368600  -60.583100  -84.642500
  C    -58.194100  -60.086200  -84.036600
  H    -60.088200  -62.633600  -85.137900
  C    -60.570500  -59.767200  -85.203300
  H    -60.223400  -58.683600  -85.187600
  H    -61.455300  -59.846400  -84.547100
  C    -60.922000  -60.048400  -86.631600
  H    -61.784500  -59.399200  -86.855200
  H    -61.276100  -61.061500  -86.696800
  C    -59.797400  -59.694900  -87.661200
  H    -58.846500  -60.204000  -87.485600
  H    -59.487600  -58.638400  -87.594900
  H    -60.034200  -60.077000  -88.652800
  H    -56.011700  -55.940200  -82.703700
  H    -58.250700  -63.682900  -83.880200

 Total Charge           Charge          ....    0
 Multiplicity           Mult            ....    1
 Number of Electrons    NEL             ....  134
 Basis Dimension        Dim             ....  322

ORBITAL ENERGIES
----------------

  NO   OCC          E(Eh)            E(eV)
   0   2.0000     -88.966625     -2420.9050
   1   2.0000     -88.963538     -2420.8210
   2   2.0000     -10.329923      -281.0915
   3   2.0000     -10.325473      -280.9704
   4   2.0000     -10.315199      -280.6908
   5   2.0000     -10.312189      -280.6089
   6   2.0000     -10.304501      -280.3997
   7   2.0000     -10.301393      -280.3152
   8   2.0000     -10.297338      -280.2048
   9   2.0000     -10.292921      -280.0846
  10   2.0000     -10.292776      -280.0807
  11   2.0000     -10.291105      -280.0352
  12   2.0000     -10.287534      -279.9380
  13   2.0000     -10.286292      -279.9042
  14   2.0000     -10.277708      -279.6707
  15   2.0000     -10.276614      -279.6409
  16   2.0000      -8.082055      -219.9239
  17   2.0000      -8.077400      -219.7972
  18   2.0000      -6.040372      -164.3669
  19   2.0000      -6.036732      -164.2678
  20   2.0000      -6.036088      -164.2503
  21   2.0000      -6.032727      -164.1589
  22   2.0000      -6.032156      -164.1433
  23   2.0000      -6.027902      -164.0276
  24   2.0000      -1.005397       -27.3582
  25   2.0000      -0.978911       -26.6375
  26   2.0000      -0.916248       -24.9324
  27   2.0000      -0.906017       -24.6540
  28   2.0000      -0.868912       -23.6443
  29   2.0000      -0.855220       -23.2717
  30   2.0000      -0.838218       -22.8091
  31   2.0000      -0.812369       -22.1057
  32   2.0000      -0.782829       -21.3019
  33   2.0000      -0.771147       -20.9840
  34   2.0000      -0.709721       -19.3125
  35   2.0000      -0.694374       -18.8949
  36   2.0000      -0.687053       -18.6957
  37   2.0000      -0.656160       -17.8550
  38   2.0000      -0.641991       -17.4694
  39   2.0000      -0.625835       -17.0298
  40   2.0000      -0.593096       -16.1390
  41   2.0000      -0.572808       -15.5869
  42   2.0000      -0.562327       -15.3017
  43   2.0000      -0.555405       -15.1133
  44   2.0000      -0.534527       -14.5452
  45   2.0000      -0.521175       -14.1819
  46   2.0000      -0.517656       -14.0861
  47   2.0000      -0.510620       -13.8947
  48   2.0000      -0.502357       -13.6698
  49   2.0000      -0.492134       -13.3917
  50   2.0000      -0.488054       -13.2806
  51   2.0000      -0.475540       -12.9401
  52   2.0000      -0.467501       -12.7213
  53   2.0000      -0.463804       -12.6208
  54   2.0000      -0.457519       -12.4497
  55   2.0000      -0.450335       -12.2542
  56   2.0000      -0.441502       -12.0139
  57   2.0000      -0.438350       -11.9281
  58   2.0000      -0.433899       -11.8070
  59   2.0000      -0.431406       -11.7392
  60   2.0000      -0.422695       -11.5021
  61   2.0000      -0.421602       -11.4724
  62   2.0000      -0.409690       -11.1482
  63   2.0000      -0.353654        -9.6234
  64   2.0000      -0.332980        -9.0608
  65   2.0000      -0.328459        -8.9378
  66   2.0000      -0.283997        -7.7279
  67   0.0000       0.032488         0.8840
  68   0.0000       0.071369         1.9421
  69   0.0000       0.106627         2.9015
  70   0.0000       0.125634         3.4187
  71   0.0000       0.132809         3.6139

MULLIKEN ATOMIC CHARGES
-----------------------
   0 S :    0.107615
   1 C :   -0.156265
   2 C :   -0.027422
   3 C :    0.008751
   4 C :   -0.136666
   5 H :    0.005142
   6 C :    0.083550
   7 H :    0.006168
   8 H :    0.034073
   9 C :   -0.109389
  10 H :    0.044303
  11 H :    0.034275
  12 C :   -0.029466
  13 H :    0.029407
  14 H :    0.028254
  15 H :    0.025678
  16 S :    0.089849
  17 C :   -0.101110
  18 C :   -0.017983
  19 C :   -0.044720
  20 C :   -0.144256
  21 H :    0.004184
  22 C :    0.021902
  23 H :    0.031722
  24 H :    0.048586
  25 C :   -0.054128
  26 H :    0.032732
  27 H :    0.022885
  28 C :   -0.058682
  29 H :    0.033812
  30 H :    0.039764
  31 H :    0.033718
  32 H :    0.052658
  33 H :    0.061060
Sum of atomic charges:   -0.0000000

LOEWDIN ATOMIC CHARGES
----------------------
   0 S :    0.403266
   1 C :   -0.196649
   2 C :   -0.061943
   3 C :   -0.050576
   4 C :   -0.191459
   5 H :    0.026476
   6 C :   -0.031649
   7 H :    0.023796
   8 H :    0.039333
   9 C :   -0.041733
  10 H :    0.030510
  11 H :    0.023580
  12 C :   -0.059698
  13 H :    0.023145
  14 H :    0.023804
  15 H :    0.024505
  16 S :    0.370206
  17 C :   -0.179719
  18 C :   -0.069474
  19 C :   -0.060312
  20 C :   -0.178680
  21 H :    0.025349
  22 C :   -0.038795
  23 H :    0.034829
  24 H :    0.033410
  25 C :   -0.041935
  26 H :    0.029800
  27 H :    0.017361
  28 C :   -0.070679
  29 H :    0.027896
  30 H :    0.031031
  31 H :    0.027186
  32 H :    0.023585
  33 H :    0.034232

  Mayer bond orders larger than 0.100000
B(  0-S ,  1-C ) :   1.1487 B(  0-S ,  4-C ) :   1.1383 B(  1-C ,  2-C ) :   1.6096
B(  1-C , 32-H ) :   0.9642 B(  2-C ,  3-C ) :   1.2307 B(  2-C ,  6-C ) :   1.0214
B(  3-C ,  4-C ) :   1.5807 B(  3-C ,  5-H ) :   0.9971 B(  4-C , 20-C ) :   1.0435
B(  6-C ,  7-H ) :   0.9454 B(  6-C ,  8-H ) :   0.9252 B(  6-C ,  9-C ) :   1.0699
B(  9-C , 10-H ) :   0.9576 B(  9-C , 11-H ) :   0.9481 B(  9-C , 12-C ) :   1.0879
B( 12-C , 13-H ) :   0.9745 B( 12-C , 14-H ) :   0.9749 B( 12-C , 15-H ) :   0.9732
B( 16-S , 17-C ) :   1.1277 B( 16-S , 20-C ) :   1.1294 B( 17-C , 18-C ) :   1.6515
B( 17-C , 33-H ) :   0.9629 B( 18-C , 19-C ) :   1.2111 B( 18-C , 21-H ) :   0.9935
B( 19-C , 20-C ) :   1.6177 B( 19-C , 22-C ) :   1.0234 B( 22-C , 23-H ) :   0.9336
B( 22-C , 24-H ) :   0.9391 B( 22-C , 25-C ) :   1.0825 B( 25-C , 26-H ) :   0.9522
B( 25-C , 27-H ) :   0.9529 B( 25-C , 28-C ) :   1.0688 B( 28-C , 29-H ) :   0.9741
B( 28-C , 30-H ) :   0.9733 B( 28-C , 31-H ) :   0.9744

Dispersion correction           -0.014062777
FINAL SINGLE POINT ENERGY     -1339.889950571365

DIPOLE MOMENT
-------------
                                X             Y             Z
Electronic contribution:     22.10243     -16.63426       5.55978
Nuclear contribution   :    -22.75018      16.96629      -5.53000
                        -----------------------------------------
Total Dipole Moment    :     -0.64775       0.33203       0.02978
                        -----------------------------------------
Magnitude (a.u.)       :      0.72850
Magnitude (Debye)      :      1.85170

Rotational constants in cm-1:     0.018177     0.008522     0.006743
Rotational constants in MHz :   544.946749   255.468458   202.145220

                             ****ORCA TERMINATED NORMALLY****
TOTAL RUN TIME: 0 days 0 hours 0 minutes 21 seconds 574 msec
