                         Program Version 4.2.1 -  RELEASE  -
|  1> ! wB97X-D3 SP def2-SVP
|  2> %pal
|  3> nprocs 24
|  4> end
|  5>
|  6> * xyz 0 1
|  7> S 	 -43.7699 	 -5.07149 	 -15.5312
|  8> C 	 -44.7557 	 -4.14668 	 -14.4998
|  9> C 	 -44.0536 	 -3.17948 	 -13.7496
| 10> C 	 -42.6537 	 -3.23198 	 -14.116
| 11> C 	 -42.2658 	 -4.14115 	 -15.0836
| 12> H 	 -41.8628 	 -2.61618 	 -13.7135
| 13> C 	 -44.5782 	 -2.25505 	 -12.6981
| 14> H 	 -44.1481 	 -1.25873 	 -12.9444
| 15> H 	 -44.0094 	 -2.57004 	 -11.7972
| 16> C 	 -46.1451 	 -2.22108 	 -12.3978
| 17> H 	 -46.3688 	 -3.29874 	 -12.2294
| 18> H 	 -46.2284 	 -1.7236 	 -11.4147
| 19> C 	 -46.9039 	 -1.53037 	 -13.5454
| 20> H 	 -46.7777 	 -0.442512 	 -13.7285
| 21> H 	 -46.7049 	 -1.9371 	 -14.5402
| 22> H 	 -47.9942 	 -1.71643 	 -13.3444
| 23> S 	 -39.6147 	 -4.67649 	 -14.7809
| 24> C 	 -38.4276 	 -4.2254 	 -16.0211
| 25> C 	 -39.1477 	 -3.81628 	 -17.1343
| 26> C 	 -40.5547 	 -3.72174 	 -16.9844
| 27> C 	 -40.992 	 -4.18867 	 -15.7485
| 28> H 	 -38.5841 	 -3.52302 	 -17.9747
| 29> C 	 -41.4078 	 -3.26399 	 -18.0823
| 30> H 	 -42.1684 	 -2.66316 	 -17.6039
| 31> H 	 -42.0101 	 -4.1002 	 -18.4869
| 32> C 	 -40.7618 	 -2.43206 	 -19.2066
| 33> H 	 -39.9271 	 -1.72932 	 -18.9136
| 34> H 	 -41.4688 	 -1.77953 	 -19.7036
| 35> C 	 -40.1252 	 -3.31958 	 -20.219
| 36> H 	 -39.889 	 -4.34194 	 -19.8918
| 37> H 	 -39.3271 	 -2.904 	 -20.8507
| 38> H 	 -40.9646 	 -3.55409 	 -20.9261
| 39> H 	 -45.7822 	 -4.16979 	 -14.339
| 40> H 	 -37.3572 	 -4.29686 	 -16.0024
| 41> *
| 42>
| 43>                          ****END OF INPUT****

CARTESIAN COORDINATES (ANGSTROEM)
---------------------------------
  S    -43.769900   -5.071490  -15.531200
  C    -44.755700   -4.146680  -14.499800
  C    -44.053600   -3.179480  -13.749600
  C    -42.653700   -3.231980  -14.116000
  C    -42.265800   -4.141150  -15.083600
  H    -41.862800   -2.616180  -13.713500
  C    -44.578200   -2.255050  -12.698100
  H    -44.148100   -1.258730  -12.944400
  H    -44.009400   -2.570040  -11.797200
  C    -46.145100   -2.221080  -12.397800
  H    -46.368800   -3.298740  -12.229400
  H    -46.228400   -1.723600  -11.414700
  C    -46.903900   -1.530370  -13.545400
  H    -46.777700   -0.442512  -13.728500
  H    -46.704900   -1.937100  -14.540200
  H    -47.994200   -1.716430  -13.344400
  S    -39.614700   -4.676490  -14.780900
  C    -38.427600   -4.225400  -16.021100
  C    -39.147700   -3.816280  -17.134300
  C    -40.554700   -3.721740  -16.984400
  C    -40.992000   -4.188670  -15.748500
  H    -38.584100   -3.523020  -17.974700
  C    -41.407800   -3.263990  -18.082300
  H    -42.168400   -2.663160  -17.603900
  H    -42.010100   -4.100200  -18.486900
  C    -40.761800   -2.432060  -19.206600
  H    -39.927100   -1.729320  -18.913600
  H    -41.468800   -1.779530  -19.703600
  C    -40.125200   -3.319580  -20.219000
  H    -39.889000   -4.341940  -19.891800
  H    -39.327100   -2.904000  -20.850700
  H    -40.964600   -3.554090  -20.926100
  H    -45.782200   -4.169790  -14.339000
  H    -37.357200   -4.296860  -16.002400

 Total Charge           Charge          ....    0
 Multiplicity           Mult            ....    1
 Number of Electrons    NEL             ....  134
 Basis Dimension        Dim             ....  322

ORBITAL ENERGIES
----------------

  NO   OCC          E(Eh)            E(eV)
   0   2.0000     -88.965266     -2420.8680
   1   2.0000     -88.963186     -2420.8114
   2   2.0000     -10.331203      -281.1263
   3   2.0000     -10.324636      -280.9476
   4   2.0000     -10.318621      -280.7839
   5   2.0000     -10.310145      -280.5533
   6   2.0000     -10.304811      -280.4082
   7   2.0000     -10.303177      -280.3637
   8   2.0000     -10.300673      -280.2956
   9   2.0000     -10.299148      -280.2541
  10   2.0000     -10.295787      -280.1626
  11   2.0000     -10.289845      -280.0009
  12   2.0000     -10.288455      -279.9631
  13   2.0000     -10.288261      -279.9578
  14   2.0000     -10.287299      -279.9316
  15   2.0000     -10.276517      -279.6382
  16   2.0000      -8.079393      -219.8515
  17   2.0000      -8.077318      -219.7950
  18   2.0000      -6.037993      -164.3021
  19   2.0000      -6.035949      -164.2465
  20   2.0000      -6.033871      -164.1900
  21   2.0000      -6.031699      -164.1309
  22   2.0000      -6.030211      -164.0904
  23   2.0000      -6.028171      -164.0349
  24   2.0000      -1.002643       -27.2833
  25   2.0000      -0.980792       -26.6887
  26   2.0000      -0.915499       -24.9120
  27   2.0000      -0.906166       -24.6580
  28   2.0000      -0.872264       -23.7355
  29   2.0000      -0.851712       -23.1763
  30   2.0000      -0.847515       -23.0621
  31   2.0000      -0.813912       -22.1477
  32   2.0000      -0.780616       -21.2416
  33   2.0000      -0.770312       -20.9613
  34   2.0000      -0.713353       -19.4113
  35   2.0000      -0.706012       -19.2116
  36   2.0000      -0.698265       -19.0008
  37   2.0000      -0.660314       -17.9681
  38   2.0000      -0.638742       -17.3811
  39   2.0000      -0.608020       -16.5451
  40   2.0000      -0.597261       -16.2523
  41   2.0000      -0.576095       -15.6763
  42   2.0000      -0.557598       -15.1730
  43   2.0000      -0.546534       -14.8720
  44   2.0000      -0.536735       -14.6053
  45   2.0000      -0.531173       -14.4540
  46   2.0000      -0.522194       -14.2096
  47   2.0000      -0.514572       -14.0022
  48   2.0000      -0.508133       -13.8270
  49   2.0000      -0.504913       -13.7394
  50   2.0000      -0.493843       -13.4382
  51   2.0000      -0.478284       -13.0148
  52   2.0000      -0.475824       -12.9478
  53   2.0000      -0.468585       -12.7508
  54   2.0000      -0.462935       -12.5971
  55   2.0000      -0.444602       -12.0982
  56   2.0000      -0.442506       -12.0412
  57   2.0000      -0.435265       -11.8442
  58   2.0000      -0.428536       -11.6611
  59   2.0000      -0.424657       -11.5555
  60   2.0000      -0.420107       -11.4317
  61   2.0000      -0.411847       -11.2069
  62   2.0000      -0.402052       -10.9404
  63   2.0000      -0.340167        -9.2564
  64   2.0000      -0.330030        -8.9806
  65   2.0000      -0.316054        -8.6003
  66   2.0000      -0.298088        -8.1114
  67   0.0000       0.033020         0.8985
  68   0.0000       0.062033         1.6880
  69   0.0000       0.115267         3.1366
  70   0.0000       0.122505         3.3335
  71   0.0000       0.131673         3.5830

MULLIKEN ATOMIC CHARGES
-----------------------
   0 S :    0.111617
   1 C :   -0.074617
   2 C :   -0.114991
   3 C :    0.043047
   4 C :   -0.179344
   5 H :    0.009897
   6 C :    0.009087
   7 H :    0.037055
   8 H :    0.046753
   9 C :   -0.060819
  10 H :    0.043299
  11 H :    0.044257
  12 C :   -0.076028
  13 H :    0.045822
  14 H :    0.035116
  15 H :    0.044549
  16 S :    0.100775
  17 C :   -0.084163
  18 C :   -0.037425
  19 C :   -0.001139
  20 C :   -0.173184
  21 H :    0.005280
  22 C :    0.072444
  23 H :    0.026921
  24 H :    0.045264
  25 C :   -0.073965
  26 H :    0.036109
  27 H :    0.031959
  28 C :   -0.092021
  29 H :    0.042803
  30 H :    0.041888
  31 H :    0.023074
  32 H :    0.018442
  33 H :    0.052237
Sum of atomic charges:    0.0000000

LOEWDIN ATOMIC CHARGES
----------------------
   0 S :    0.392286
   1 C :   -0.207234
   2 C :   -0.067537
   3 C :   -0.047103
   4 C :   -0.190589
   5 H :    0.029190
   6 C :   -0.044106
   7 H :    0.034394
   8 H :    0.039840
   9 C :   -0.041160
  10 H :    0.030918
  11 H :    0.033432
  12 C :   -0.078646
  13 H :    0.033594
  14 H :    0.026046
  15 H :    0.033508
  16 S :    0.403858
  17 C :   -0.176988
  18 C :   -0.069670
  19 C :   -0.050281
  20 C :   -0.204850
  21 H :    0.024207
  22 C :   -0.035039
  23 H :    0.036455
  24 H :    0.041835
  25 C :   -0.048172
  26 H :    0.029855
  27 H :    0.026075
  28 C :   -0.083021
  29 H :    0.026451
  30 H :    0.026264
  31 H :    0.030262
  32 H :    0.015012
  33 H :    0.030914

  Mayer bond orders larger than 0.100000
B(  0-S ,  1-C ) :   1.1522 B(  0-S ,  4-C ) :   1.0989 B(  1-C ,  2-C ) :   1.6056
B(  1-C , 32-H ) :   0.9596 B(  2-C ,  3-C ) :   1.2421 B(  2-C ,  6-C ) :   1.0067
B(  3-C ,  4-C ) :   1.6082 B(  3-C ,  5-H ) :   0.9885 B(  4-C , 20-C ) :   1.0413
B(  6-C ,  7-H ) :   0.9393 B(  6-C ,  8-H ) :   0.9386 B(  6-C ,  9-C ) :   1.0657
B(  9-C , 10-H ) :   0.9547 B(  9-C , 11-H ) :   0.9553 B(  9-C , 12-C ) :   1.0582
B( 12-C , 13-H ) :   0.9746 B( 12-C , 14-H ) :   0.9770 B( 12-C , 15-H ) :   0.9756
B( 16-S , 17-C ) :   1.1568 B( 16-S , 20-C ) :   1.1431 B( 17-C , 18-C ) :   1.5898
B( 17-C , 20-C ) :   0.1037 B( 17-C , 33-H ) :   0.9680 B( 18-C , 19-C ) :   1.2640
B( 18-C , 21-H ) :   0.9867 B( 19-C , 20-C ) :   1.5605 B( 19-C , 22-C ) :   1.0557
B( 22-C , 23-H ) :   0.9117 B( 22-C , 24-H ) :   0.9262 B( 22-C , 25-C ) :   1.0664
B( 25-C , 26-H ) :   0.9637 B( 25-C , 27-H ) :   0.9617 B( 25-C , 28-C ) :   1.0487
B( 28-C , 29-H ) :   0.9764 B( 28-C , 30-H ) :   0.9757 B( 28-C , 31-H ) :   0.9714

Dispersion correction           -0.014265784
FINAL SINGLE POINT ENERGY     -1339.865741783878

DIPOLE MOMENT
-------------
                                X             Y             Z
Electronic contribution:     10.87418     -15.19288       7.59114
Nuclear contribution   :    -11.04634      15.82745      -7.68139
                        -----------------------------------------
Total Dipole Moment    :     -0.17217       0.63457      -0.09025
                        -----------------------------------------
Magnitude (a.u.)       :      0.66368
Magnitude (Debye)      :      1.68694

Rotational constants in cm-1:     0.023031     0.007050     0.006167
Rotational constants in MHz :   690.455982   211.348504   184.883238

                             ****ORCA TERMINATED NORMALLY****
TOTAL RUN TIME: 0 days 0 hours 0 minutes 21 seconds 268 msec
