                         Program Version 4.2.1 -  RELEASE  -
|  1> ! wB97X-D3 SP def2-SVP
|  2> %pal
|  3> nprocs 24
|  4> end
|  5>
|  6> * xyz 0 1
|  7> S 	 -135.817 	 22.0225 	 -19.4066
|  8> C 	 -137.525 	 21.7996 	 -19.4508
|  9> C 	 -138.042 	 21.9044 	 -18.1519
| 10> C 	 -137.042 	 22.3149 	 -17.2216
| 11> C 	 -135.828 	 22.5973 	 -17.7614
| 12> H 	 -137.231 	 22.4827 	 -16.1966
| 13> C 	 -139.468 	 21.5882 	 -17.6446
| 14> H 	 -139.539 	 21.9286 	 -16.6459
| 15> H 	 -139.621 	 20.5352 	 -17.4655
| 16> C 	 -140.711 	 22.232 	 -18.4401
| 17> H 	 -140.782 	 23.326 	 -18.3568
| 18> H 	 -140.509 	 22.0894 	 -19.524
| 19> C 	 -142.08 	 21.6627 	 -17.9785
| 20> H 	 -142.885 	 21.9798 	 -18.6928
| 21> H 	 -141.989 	 20.6179 	 -18.0928
| 22> H 	 -142.398 	 21.79 	 -16.9686
| 23> S 	 -133.792 	 24.3739 	 -17.9231
| 24> C 	 -132.941 	 24.794 	 -16.4821
| 25> C 	 -133.231 	 23.9743 	 -15.4308
| 26> C 	 -134.177 	 22.9203 	 -15.8272
| 27> C 	 -134.684 	 23.1228 	 -17.0941
| 28> H 	 -132.652 	 24.0471 	 -14.5111
| 29> C 	 -134.671 	 21.9036 	 -14.8901
| 30> H 	 -133.983 	 21.0692 	 -14.8767
| 31> H 	 -135.565 	 21.4575 	 -15.4785
| 32> C 	 -135.071 	 22.3458 	 -13.4424
| 33> H 	 -134.325 	 23.0375 	 -13.012
| 34> H 	 -135.147 	 21.5004 	 -12.8201
| 35> C 	 -136.468 	 23.028 	 -13.2561
| 36> H 	 -136.883 	 23.1635 	 -12.2026
| 37> H 	 -137.216 	 22.3302 	 -13.6506
| 38> H 	 -136.552 	 23.9514 	 -13.8279
| 39> H 	 -138.078 	 21.4726 	 -20.2963
| 40> H 	 -132.356 	 25.6412 	 -16.354
| 41> *
| 42>
| 43>                          ****END OF INPUT****

CARTESIAN COORDINATES (ANGSTROEM)
---------------------------------
  S    -135.817000   22.022500  -19.406600
  C    -137.525000   21.799600  -19.450800
  C    -138.042000   21.904400  -18.151900
  C    -137.042000   22.314900  -17.221600
  C    -135.828000   22.597300  -17.761400
  H    -137.231000   22.482700  -16.196600
  C    -139.468000   21.588200  -17.644600
  H    -139.539000   21.928600  -16.645900
  H    -139.621000   20.535200  -17.465500
  C    -140.711000   22.232000  -18.440100
  H    -140.782000   23.326000  -18.356800
  H    -140.509000   22.089400  -19.524000
  C    -142.080000   21.662700  -17.978500
  H    -142.885000   21.979800  -18.692800
  H    -141.989000   20.617900  -18.092800
  H    -142.398000   21.790000  -16.968600
  S    -133.792000   24.373900  -17.923100
  C    -132.941000   24.794000  -16.482100
  C    -133.231000   23.974300  -15.430800
  C    -134.177000   22.920300  -15.827200
  C    -134.684000   23.122800  -17.094100
  H    -132.652000   24.047100  -14.511100
  C    -134.671000   21.903600  -14.890100
  H    -133.983000   21.069200  -14.876700
  H    -135.565000   21.457500  -15.478500
  C    -135.071000   22.345800  -13.442400
  H    -134.325000   23.037500  -13.012000
  H    -135.147000   21.500400  -12.820100
  C    -136.468000   23.028000  -13.256100
  H    -136.883000   23.163500  -12.202600
  H    -137.216000   22.330200  -13.650600
  H    -136.552000   23.951400  -13.827900
  H    -138.078000   21.472600  -20.296300
  H    -132.356000   25.641200  -16.354000

 Total Charge           Charge          ....    0
 Multiplicity           Mult            ....    1
 Number of Electrons    NEL             ....  134
 Basis Dimension        Dim             ....  322

ORBITAL ENERGIES
----------------

  NO   OCC          E(Eh)            E(eV)
   0   2.0000     -88.964950     -2420.8594
   1   2.0000     -88.963108     -2420.8093
   2   2.0000     -10.324367      -280.9403
   3   2.0000     -10.322752      -280.8964
   4   2.0000     -10.312696      -280.6227
   5   2.0000     -10.311108      -280.5795
   6   2.0000     -10.304356      -280.3958
   7   2.0000     -10.304272      -280.3935
   8   2.0000     -10.296942      -280.1940
   9   2.0000     -10.295432      -280.1530
  10   2.0000     -10.295188      -280.1463
  11   2.0000     -10.294162      -280.1184
  12   2.0000     -10.292664      -280.0776
  13   2.0000     -10.286097      -279.8989
  14   2.0000     -10.285555      -279.8842
  15   2.0000     -10.278244      -279.6852
  16   2.0000      -8.080307      -219.8763
  17   2.0000      -8.078722      -219.8332
  18   2.0000      -6.038812      -164.3244
  19   2.0000      -6.037244      -164.2818
  20   2.0000      -6.034761      -164.2142
  21   2.0000      -6.033089      -164.1687
  22   2.0000      -6.031001      -164.1119
  23   2.0000      -6.029423      -164.0690
  24   2.0000      -1.013691       -27.5839
  25   2.0000      -0.988116       -26.8880
  26   2.0000      -0.907327       -24.6896
  27   2.0000      -0.900367       -24.5002
  28   2.0000      -0.875028       -23.8107
  29   2.0000      -0.852389       -23.1947
  30   2.0000      -0.845947       -23.0194
  31   2.0000      -0.818730       -22.2788
  32   2.0000      -0.781914       -21.2770
  33   2.0000      -0.771669       -20.9982
  34   2.0000      -0.712062       -19.3762
  35   2.0000      -0.708802       -19.2875
  36   2.0000      -0.699052       -19.0222
  37   2.0000      -0.661295       -17.9947
  38   2.0000      -0.645459       -17.5638
  39   2.0000      -0.621162       -16.9027
  40   2.0000      -0.597225       -16.2513
  41   2.0000      -0.568860       -15.4795
  42   2.0000      -0.553557       -15.0630
  43   2.0000      -0.551573       -15.0091
  44   2.0000      -0.538536       -14.6543
  45   2.0000      -0.526412       -14.3244
  46   2.0000      -0.518775       -14.1166
  47   2.0000      -0.513752       -13.9799
  48   2.0000      -0.509827       -13.8731
  49   2.0000      -0.500997       -13.6328
  50   2.0000      -0.490445       -13.3457
  51   2.0000      -0.482070       -13.1178
  52   2.0000      -0.474299       -12.9063
  53   2.0000      -0.463963       -12.6251
  54   2.0000      -0.458163       -12.4672
  55   2.0000      -0.455497       -12.3947
  56   2.0000      -0.445231       -12.1154
  57   2.0000      -0.441486       -12.0134
  58   2.0000      -0.432114       -11.7584
  59   2.0000      -0.426387       -11.6026
  60   2.0000      -0.422461       -11.4958
  61   2.0000      -0.409812       -11.1515
  62   2.0000      -0.408858       -11.1256
  63   2.0000      -0.354924        -9.6580
  64   2.0000      -0.329974        -8.9791
  65   2.0000      -0.326472        -8.8838
  66   2.0000      -0.289499        -7.8777
  67   0.0000       0.027742         0.7549
  68   0.0000       0.073082         1.9887
  69   0.0000       0.107465         2.9243
  70   0.0000       0.125577         3.4171
  71   0.0000       0.132300         3.6001

MULLIKEN ATOMIC CHARGES
-----------------------
   0 S :    0.113919
   1 C :   -0.114136
   2 C :   -0.074310
   3 C :    0.023592
   4 C :   -0.129880
   5 H :   -0.018218
   6 C :    0.082694
   7 H :    0.001712
   8 H :    0.032080
   9 C :   -0.101328
  10 H :    0.039387
  11 H :    0.032376
  12 C :   -0.042909
  13 H :    0.043180
  14 H :    0.013611
  15 H :    0.034618
  16 S :    0.110476
  17 C :   -0.050200
  18 C :   -0.050796
  19 C :   -0.035086
  20 C :   -0.155006
  21 H :    0.031754
  22 C :    0.029751
  23 H :    0.038382
  24 H :    0.028362
  25 C :   -0.042870
  26 H :    0.038086
  27 H :    0.021964
  28 C :   -0.098528
  29 H :    0.048426
  30 H :    0.026721
  31 H :    0.048420
  32 H :    0.040585
  33 H :    0.033172
Sum of atomic charges:   -0.0000000

LOEWDIN ATOMIC CHARGES
----------------------
   0 S :    0.419401
   1 C :   -0.201744
   2 C :   -0.058534
   3 C :   -0.064370
   4 C :   -0.196119
   5 H :    0.021830
   6 C :   -0.030895
   7 H :    0.022748
   8 H :    0.030568
   9 C :   -0.038312
  10 H :    0.025423
  11 H :    0.024277
  12 C :   -0.067879
  13 H :    0.035803
  14 H :    0.017735
  15 H :    0.022515
  16 S :    0.413829
  17 C :   -0.174370
  18 C :   -0.072696
  19 C :   -0.053362
  20 C :   -0.203453
  21 H :    0.034745
  22 C :   -0.044053
  23 H :    0.036394
  24 H :    0.044941
  25 C :   -0.034035
  26 H :    0.025133
  27 H :    0.020563
  28 C :   -0.078053
  29 H :    0.036914
  30 H :    0.020389
  31 H :    0.024287
  32 H :    0.022750
  33 H :    0.017632

  Mayer bond orders larger than 0.100000
B(  0-S ,  1-C ) :   1.1456 B(  0-S ,  4-C ) :   1.1546 B(  1-C ,  2-C ) :   1.5772
B(  1-C ,  4-C ) :   0.1000 B(  1-C , 32-H ) :   0.9777 B(  2-C ,  3-C ) :   1.2736
B(  2-C ,  6-C ) :   1.0158 B(  3-C ,  4-C ) :   1.5569 B(  3-C ,  5-H ) :   0.9978
B(  4-C , 20-C ) :   1.0530 B(  6-C ,  7-H ) :   0.9401 B(  6-C ,  8-H ) :   0.9416
B(  6-C ,  9-C ) :   1.0419 B(  9-C , 10-H ) :   0.9626 B(  9-C , 11-H ) :   0.9628
B(  9-C , 12-C ) :   1.0708 B( 12-C , 13-H ) :   0.9732 B( 12-C , 14-H ) :   0.9757
B( 12-C , 15-H ) :   0.9789 B( 16-S , 17-C ) :   1.1525 B( 16-S , 20-C ) :   1.1243
B( 17-C , 18-C ) :   1.6455 B( 17-C , 33-H ) :   0.9708 B( 18-C , 19-C ) :   1.1944
B( 18-C , 21-H ) :   0.9863 B( 19-C , 20-C ) :   1.6028 B( 19-C , 22-C ) :   1.0557
B( 22-C , 23-H ) :   0.9174 B( 22-C , 24-H ) :   0.9375 B( 22-C , 25-C ) :   1.0589
B( 25-C , 26-H ) :   0.9579 B( 25-C , 27-H ) :   0.9542 B( 25-C , 28-C ) :   1.0727
B( 28-C , 29-H ) :   0.9731 B( 28-C , 30-H ) :   0.9671 B( 28-C , 31-H ) :   0.9777

Dispersion correction           -0.014236403
FINAL SINGLE POINT ENERGY     -1339.865378503153

DIPOLE MOMENT
-------------
                                X             Y             Z
Electronic contribution:     24.32175       6.06584     -17.47967
Nuclear contribution   :    -24.67396      -6.25350      18.11346
                        -----------------------------------------
Total Dipole Moment    :     -0.35222      -0.18766       0.63379
                        -----------------------------------------
Magnitude (a.u.)       :      0.74897
Magnitude (Debye)      :      1.90374

Rotational constants in cm-1:     0.019433     0.008240     0.006340
Rotational constants in MHz :   582.597337   247.022438   190.066523

                             ****ORCA TERMINATED NORMALLY****
TOTAL RUN TIME: 0 days 0 hours 0 minutes 21 seconds 573 msec
