                         Program Version 4.2.1 -  RELEASE  -
|  1> ! wB97X-D3 SP def2-SVP
|  2> %pal
|  3> nprocs 24
|  4> end
|  5>
|  6> * xyz 0 1
|  7> S 	 -126.57 	 67.0544 	 -51.4222
|  8> C 	 -126.739 	 66.7633 	 -53.1386
|  9> C 	 -126.061 	 67.6771 	 -53.9166
| 10> C 	 -125.508 	 68.614 	 -53.0302
| 11> C 	 -125.726 	 68.5425 	 -51.6373
| 12> H 	 -124.982 	 69.4255 	 -53.4933
| 13> C 	 -126.086 	 67.8152 	 -55.4171
| 14> H 	 -126.168 	 66.8298 	 -55.8327
| 15> H 	 -125.006 	 67.9899 	 -55.7064
| 16> C 	 -126.914 	 68.9358 	 -55.9404
| 17> H 	 -126.466 	 69.8209 	 -55.5789
| 18> H 	 -126.81 	 69.088 	 -56.9778
| 19> C 	 -128.427 	 68.9818 	 -55.6057
| 20> H 	 -129.009 	 69.5249 	 -56.255
| 21> H 	 -128.855 	 68.0043 	 -55.6345
| 22> H 	 -128.551 	 69.5386 	 -54.7032
| 23> S 	 -126.673 	 70.2209 	 -49.7408
| 24> C 	 -125.59 	 70.9523 	 -48.5243
| 25> C 	 -124.318 	 70.8944 	 -48.9446
| 26> C 	 -124.204 	 70.0186 	 -50.1263
| 27> C 	 -125.359 	 69.3805 	 -50.5469
| 28> H 	 -123.489 	 71.4381 	 -48.4368
| 29> C 	 -122.891 	 69.6546 	 -50.7434
| 30> H 	 -122.893 	 70.3015 	 -51.5862
| 31> H 	 -122.908 	 68.608 	 -51.0718
| 32> C 	 -121.61 	 70.0625 	 -50.0146
| 33> H 	 -121.593 	 69.5768 	 -49.1063
| 34> H 	 -121.399 	 71.1017 	 -49.8566
| 35> C 	 -120.351 	 69.675 	 -50.7878
| 36> H 	 -120.334 	 70.2374 	 -51.6397
| 37> H 	 -120.251 	 68.6127 	 -50.97
| 38> H 	 -119.384 	 69.9574 	 -50.4575
| 39> H 	 -127.185 	 65.8273 	 -53.5295
| 40> H 	 -125.913 	 71.5668 	 -47.6865
| 41> *
| 42>
| 43>                          ****END OF INPUT****

CARTESIAN COORDINATES (ANGSTROEM)
---------------------------------
  S    -126.570000   67.054400  -51.422200
  C    -126.739000   66.763300  -53.138600
  C    -126.061000   67.677100  -53.916600
  C    -125.508000   68.614000  -53.030200
  C    -125.726000   68.542500  -51.637300
  H    -124.982000   69.425500  -53.493300
  C    -126.086000   67.815200  -55.417100
  H    -126.168000   66.829800  -55.832700
  H    -125.006000   67.989900  -55.706400
  C    -126.914000   68.935800  -55.940400
  H    -126.466000   69.820900  -55.578900
  H    -126.810000   69.088000  -56.977800
  C    -128.427000   68.981800  -55.605700
  H    -129.009000   69.524900  -56.255000
  H    -128.855000   68.004300  -55.634500
  H    -128.551000   69.538600  -54.703200
  S    -126.673000   70.220900  -49.740800
  C    -125.590000   70.952300  -48.524300
  C    -124.318000   70.894400  -48.944600
  C    -124.204000   70.018600  -50.126300
  C    -125.359000   69.380500  -50.546900
  H    -123.489000   71.438100  -48.436800
  C    -122.891000   69.654600  -50.743400
  H    -122.893000   70.301500  -51.586200
  H    -122.908000   68.608000  -51.071800
  C    -121.610000   70.062500  -50.014600
  H    -121.593000   69.576800  -49.106300
  H    -121.399000   71.101700  -49.856600
  C    -120.351000   69.675000  -50.787800
  H    -120.334000   70.237400  -51.639700
  H    -120.251000   68.612700  -50.970000
  H    -119.384000   69.957400  -50.457500
  H    -127.185000   65.827300  -53.529500
  H    -125.913000   71.566800  -47.686500

 Total Charge           Charge          ....    0
 Multiplicity           Mult            ....    1
 Number of Electrons    NEL             ....  134
 Basis Dimension        Dim             ....  322

ORBITAL ENERGIES
----------------

  NO   OCC          E(Eh)            E(eV)
   0   2.0000     -88.964948     -2420.8593
   1   2.0000     -88.954638     -2420.5787
   2   2.0000     -10.329619      -281.0832
   3   2.0000     -10.322360      -280.8857
   4   2.0000     -10.317039      -280.7409
   5   2.0000     -10.316678      -280.7311
   6   2.0000     -10.306482      -280.4536
   7   2.0000     -10.298000      -280.2228
   8   2.0000     -10.297314      -280.2042
   9   2.0000     -10.297049      -280.1970
  10   2.0000     -10.292497      -280.0731
  11   2.0000     -10.284180      -279.8468
  12   2.0000     -10.279828      -279.7283
  13   2.0000     -10.277410      -279.6625
  14   2.0000     -10.264356      -279.3073
  15   2.0000     -10.263400      -279.2813
  16   2.0000      -8.080134      -219.8716
  17   2.0000      -8.069437      -219.5805
  18   2.0000      -6.038470      -164.3151
  19   2.0000      -6.034442      -164.2055
  20   2.0000      -6.031156      -164.1161
  21   2.0000      -6.028184      -164.0352
  22   2.0000      -6.024108      -163.9243
  23   2.0000      -6.019724      -163.8050
  24   2.0000      -1.009296       -27.4643
  25   2.0000      -0.985885       -26.8273
  26   2.0000      -0.920408       -25.0456
  27   2.0000      -0.912924       -24.8419
  28   2.0000      -0.877044       -23.8656
  29   2.0000      -0.851472       -23.1697
  30   2.0000      -0.844826       -22.9889
  31   2.0000      -0.814771       -22.1710
  32   2.0000      -0.794103       -21.6086
  33   2.0000      -0.771780       -21.0012
  34   2.0000      -0.720622       -19.6091
  35   2.0000      -0.709432       -19.3046
  36   2.0000      -0.698808       -19.0155
  37   2.0000      -0.651026       -17.7153
  38   2.0000      -0.638459       -17.3733
  39   2.0000      -0.626141       -17.0382
  40   2.0000      -0.593890       -16.1606
  41   2.0000      -0.582875       -15.8608
  42   2.0000      -0.573478       -15.6051
  43   2.0000      -0.557550       -15.1717
  44   2.0000      -0.548397       -14.9226
  45   2.0000      -0.528294       -14.3756
  46   2.0000      -0.520986       -14.1768
  47   2.0000      -0.516047       -14.0423
  48   2.0000      -0.504629       -13.7316
  49   2.0000      -0.500884       -13.6297
  50   2.0000      -0.489157       -13.3106
  51   2.0000      -0.478804       -13.0289
  52   2.0000      -0.469305       -12.7704
  53   2.0000      -0.464093       -12.6286
  54   2.0000      -0.459500       -12.5036
  55   2.0000      -0.456115       -12.4115
  56   2.0000      -0.449841       -12.2408
  57   2.0000      -0.432654       -11.7731
  58   2.0000      -0.430544       -11.7157
  59   2.0000      -0.419328       -11.4105
  60   2.0000      -0.417711       -11.3665
  61   2.0000      -0.412572       -11.2267
  62   2.0000      -0.406395       -11.0586
  63   2.0000      -0.343177        -9.3383
  64   2.0000      -0.334052        -9.0900
  65   2.0000      -0.316756        -8.6194
  66   2.0000      -0.297116        -8.0849
  67   0.0000       0.028361         0.7717
  68   0.0000       0.068232         1.8567
  69   0.0000       0.111729         3.0403
  70   0.0000       0.121061         3.2942
  71   0.0000       0.137497         3.7415

MULLIKEN ATOMIC CHARGES
-----------------------
   0 S :    0.122607
   1 C :   -0.138657
   2 C :   -0.100609
   3 C :    0.030673
   4 C :   -0.174292
   5 H :   -0.011274
   6 C :    0.082211
   7 H :    0.012013
   8 H :    0.028331
   9 C :   -0.023263
  10 H :    0.005154
  11 H :    0.014918
  12 C :    0.004650
  13 H :    0.002434
  14 H :    0.025093
  15 H :    0.033807
  16 S :    0.076743
  17 C :   -0.068154
  18 C :   -0.035015
  19 C :   -0.065745
  20 C :   -0.130499
  21 H :    0.040407
  22 C :    0.077245
  23 H :    0.018793
  24 H :    0.049145
  25 C :   -0.054479
  26 H :    0.014139
  27 H :    0.026824
  28 C :   -0.009866
  29 H :   -0.003353
  30 H :    0.027422
  31 H :    0.007538
  32 H :    0.057320
  33 H :    0.057740
Sum of atomic charges:    0.0000000

LOEWDIN ATOMIC CHARGES
----------------------
   0 S :    0.431178
   1 C :   -0.191557
   2 C :   -0.074033
   3 C :   -0.055226
   4 C :   -0.221574
   5 H :    0.019303
   6 C :   -0.031714
   7 H :    0.026311
   8 H :    0.043492
   9 C :   -0.036427
  10 H :    0.021939
  11 H :    0.021633
  12 C :   -0.054404
  13 H :    0.016809
  14 H :    0.024334
  15 H :    0.029754
  16 S :    0.376424
  17 C :   -0.163965
  18 C :   -0.080601
  19 C :   -0.043946
  20 C :   -0.209110
  21 H :    0.042854
  22 C :   -0.032534
  23 H :    0.032807
  24 H :    0.040164
  25 C :   -0.034560
  26 H :    0.011591
  27 H :    0.025867
  28 C :   -0.059268
  29 H :    0.013416
  30 H :    0.023550
  31 H :    0.023151
  32 H :    0.031498
  33 H :    0.032843

  Mayer bond orders larger than 0.100000
B(  0-S ,  1-C ) :   1.1804 B(  0-S ,  4-C ) :   1.1600 B(  1-C ,  2-C ) :   1.5580
B(  1-C ,  4-C ) :   0.1104 B(  1-C , 32-H ) :   0.9590 B(  2-C ,  3-C ) :   1.3094
B(  2-C ,  6-C ) :   1.0224 B(  3-C ,  4-C ) :   1.5108 B(  3-C ,  5-H ) :   0.9998
B(  4-C , 20-C ) :   1.0557 B(  6-C ,  7-H ) :   0.9367 B(  6-C ,  8-H ) :   0.9298
B(  6-C ,  9-C ) :   1.0782 B(  9-C , 10-H ) :   0.9485 B(  9-C , 11-H ) :   0.9519
B(  9-C , 12-C ) :   1.0726 B( 12-C , 13-H ) :   0.9700 B( 12-C , 14-H ) :   0.9779
B( 12-C , 15-H ) :   0.9745 B( 16-S , 17-C ) :   1.1399 B( 16-S , 20-C ) :   1.1069
B( 17-C , 18-C ) :   1.6347 B( 17-C , 33-H ) :   0.9625 B( 18-C , 19-C ) :   1.2008
B( 18-C , 21-H ) :   0.9830 B( 19-C , 20-C ) :   1.6232 B( 19-C , 22-C ) :   1.0414
B( 22-C , 23-H ) :   0.9083 B( 22-C , 24-H ) :   0.9440 B( 22-C , 25-C ) :   1.0821
B( 25-C , 26-H ) :   0.9534 B( 25-C , 27-H ) :   0.9479 B( 25-C , 28-C ) :   1.0834
B( 28-C , 29-H ) :   0.9703 B( 28-C , 30-H ) :   0.9750 B( 28-C , 31-H ) :   0.9692

Dispersion correction           -0.013909172
FINAL SINGLE POINT ENERGY     -1339.833592498470

DIPOLE MOMENT
-------------
                                X             Y             Z
Electronic contribution:    -14.03628      -4.42952      16.24645
Nuclear contribution   :     14.57015       4.73768     -16.79314
                        -----------------------------------------
Total Dipole Moment    :      0.53387       0.30816      -0.54668
                        -----------------------------------------
Magnitude (a.u.)       :      0.82392
Magnitude (Debye)      :      2.09424

Rotational constants in cm-1:     0.018820     0.008011     0.006752
Rotational constants in MHz :   564.196770   240.169865   202.430226

                             ****ORCA TERMINATED NORMALLY****
TOTAL RUN TIME: 0 days 0 hours 0 minutes 21 seconds 287 msec
