                         Program Version 4.2.1 -  RELEASE  -
|  1> ! wB97X-D3 SP def2-SVP
|  2> %pal
|  3> nprocs 24
|  4> end
|  5>
|  6> * xyz 0 1
|  7> S 	 -100.09 	 2.70464 	 -123.057
|  8> C 	 -100.029 	 3.45648 	 -121.513
|  9> C 	 -100.129 	 2.49083 	 -120.491
| 10> C 	 -100.021 	 1.11831 	 -121.02
| 11> C 	 -99.8252 	 1.07815 	 -122.388
| 12> H 	 -100.007 	 0.154867 	 -120.439
| 13> C 	 -100.463 	 2.82843 	 -119.061
| 14> H 	 -100.069 	 3.86436 	 -118.906
| 15> H 	 -99.9163 	 2.09694 	 -118.402
| 16> C 	 -101.982 	 2.78922 	 -118.837
| 17> H 	 -102.417 	 3.63778 	 -119.294
| 18> H 	 -102.321 	 1.85754 	 -119.209
| 19> C 	 -102.374 	 2.6515 	 -117.294
| 20> H 	 -101.873 	 1.87774 	 -116.796
| 21> H 	 -101.962 	 3.43706 	 -116.71
| 22> H 	 -103.409 	 2.63932 	 -117.023
| 23> S 	 -100.591 	 -0.0450276 	 -124.704
| 24> C 	 -99.9161 	 -1.60733 	 -125.16
| 25> C 	 -99.0808 	 -2.07838 	 -124.211
| 26> C 	 -98.96 	 -1.17911 	 -123.122
| 27> C 	 -99.7133 	 -0.0884708 	 -123.237
| 28> H 	 -98.5664 	 -3.06927 	 -124.346
| 29> C 	 -98.0334 	 -1.44506 	 -121.937
| 30> H 	 -97.5702 	 -2.42901 	 -122.045
| 31> H 	 -98.6553 	 -1.50186 	 -121.035
| 32> C 	 -96.9273 	 -0.386163 	 -121.75
| 33> H 	 -96.4577 	 -0.829492 	 -120.752
| 34> H 	 -97.3301 	 0.654079 	 -121.535
| 35> C 	 -95.8779 	 -0.274842 	 -122.888
| 36> H 	 -95.2369 	 0.534519 	 -122.776
| 37> H 	 -96.4326 	 -0.206 	 -123.83
| 38> H 	 -95.1377 	 -1.0181 	 -123.003
| 39> H 	 -100.236 	 4.52518 	 -121.423
| 40> H 	 -100.235 	 -2.18581 	 -126.061
| 41> *
| 42>
| 43>                          ****END OF INPUT****

CARTESIAN COORDINATES (ANGSTROEM)
---------------------------------
  S    -100.090000    2.704640  -123.057000
  C    -100.029000    3.456480  -121.513000
  C    -100.129000    2.490830  -120.491000
  C    -100.021000    1.118310  -121.020000
  C    -99.825200    1.078150  -122.388000
  H    -100.007000    0.154867  -120.439000
  C    -100.463000    2.828430  -119.061000
  H    -100.069000    3.864360  -118.906000
  H    -99.916300    2.096940  -118.402000
  C    -101.982000    2.789220  -118.837000
  H    -102.417000    3.637780  -119.294000
  H    -102.321000    1.857540  -119.209000
  C    -102.374000    2.651500  -117.294000
  H    -101.873000    1.877740  -116.796000
  H    -101.962000    3.437060  -116.710000
  H    -103.409000    2.639320  -117.023000
  S    -100.591000   -0.045028  -124.704000
  C    -99.916100   -1.607330  -125.160000
  C    -99.080800   -2.078380  -124.211000
  C    -98.960000   -1.179110  -123.122000
  C    -99.713300   -0.088471  -123.237000
  H    -98.566400   -3.069270  -124.346000
  C    -98.033400   -1.445060  -121.937000
  H    -97.570200   -2.429010  -122.045000
  H    -98.655300   -1.501860  -121.035000
  C    -96.927300   -0.386163  -121.750000
  H    -96.457700   -0.829492  -120.752000
  H    -97.330100    0.654079  -121.535000
  C    -95.877900   -0.274842  -122.888000
  H    -95.236900    0.534519  -122.776000
  H    -96.432600   -0.206000  -123.830000
  H    -95.137700   -1.018100  -123.003000
  H    -100.236000    4.525180  -121.423000
  H    -100.235000   -2.185810  -126.061000

 Total Charge           Charge          ....    0
 Multiplicity           Mult            ....    1
 Number of Electrons    NEL             ....  134
 Basis Dimension        Dim             ....  322

ORBITAL ENERGIES
----------------

  NO   OCC          E(Eh)            E(eV)
   0   2.0000     -88.964215     -2420.8394
   1   2.0000     -88.963215     -2420.8122
   2   2.0000     -10.331872      -281.1445
   3   2.0000     -10.317681      -280.7584
   4   2.0000     -10.316892      -280.7369
   5   2.0000     -10.316613      -280.7293
   6   2.0000     -10.309726      -280.5419
   7   2.0000     -10.303671      -280.3772
   8   2.0000     -10.298992      -280.2498
   9   2.0000     -10.296848      -280.1915
  10   2.0000     -10.294758      -280.1346
  11   2.0000     -10.293675      -280.1051
  12   2.0000     -10.292840      -280.0824
  13   2.0000     -10.287114      -279.9266
  14   2.0000     -10.270313      -279.4694
  15   2.0000     -10.264714      -279.3171
  16   2.0000      -8.079191      -219.8460
  17   2.0000      -8.079007      -219.8410
  18   2.0000      -6.037778      -164.2963
  19   2.0000      -6.037507      -164.2889
  20   2.0000      -6.033755      -164.1868
  21   2.0000      -6.033486      -164.1795
  22   2.0000      -6.029762      -164.0782
  23   2.0000      -6.029586      -164.0734
  24   2.0000      -1.016474       -27.6597
  25   2.0000      -0.986010       -26.8307
  26   2.0000      -0.910322       -24.7711
  27   2.0000      -0.903321       -24.5806
  28   2.0000      -0.873677       -23.7740
  29   2.0000      -0.847825       -23.0705
  30   2.0000      -0.840697       -22.8765
  31   2.0000      -0.818591       -22.2750
  32   2.0000      -0.785457       -21.3734
  33   2.0000      -0.772786       -21.0286
  34   2.0000      -0.711158       -19.3516
  35   2.0000      -0.703189       -19.1348
  36   2.0000      -0.682831       -18.5808
  37   2.0000      -0.666407       -18.1339
  38   2.0000      -0.640327       -17.4242
  39   2.0000      -0.615532       -16.7495
  40   2.0000      -0.592370       -16.1192
  41   2.0000      -0.569741       -15.5034
  42   2.0000      -0.559164       -15.2156
  43   2.0000      -0.548814       -14.9340
  44   2.0000      -0.537983       -14.6393
  45   2.0000      -0.520664       -14.1680
  46   2.0000      -0.517152       -14.0724
  47   2.0000      -0.510807       -13.8998
  48   2.0000      -0.505460       -13.7543
  49   2.0000      -0.499700       -13.5975
  50   2.0000      -0.487343       -13.2613
  51   2.0000      -0.478869       -13.0307
  52   2.0000      -0.476501       -12.9663
  53   2.0000      -0.464396       -12.6369
  54   2.0000      -0.453712       -12.3461
  55   2.0000      -0.451534       -12.2869
  56   2.0000      -0.444618       -12.0987
  57   2.0000      -0.442454       -12.0398
  58   2.0000      -0.436239       -11.8707
  59   2.0000      -0.425672       -11.5831
  60   2.0000      -0.418802       -11.3962
  61   2.0000      -0.412300       -11.2193
  62   2.0000      -0.400502       -10.8982
  63   2.0000      -0.358491        -9.7550
  64   2.0000      -0.335170        -9.1204
  65   2.0000      -0.323421        -8.8007
  66   2.0000      -0.290316        -7.8999
  67   0.0000       0.027237         0.7412
  68   0.0000       0.072180         1.9641
  69   0.0000       0.103651         2.8205
  70   0.0000       0.121435         3.3044
  71   0.0000       0.134403         3.6573

MULLIKEN ATOMIC CHARGES
-----------------------
   0 S :    0.096962
   1 C :   -0.110612
   2 C :   -0.116028
   3 C :    0.004724
   4 C :   -0.148560
   5 H :    0.036476
   6 C :    0.028427
   7 H :    0.033519
   8 H :    0.034556
   9 C :   -0.017640
  10 H :    0.028392
  11 H :    0.027284
  12 C :   -0.025106
  13 H :    0.007011
  14 H :    0.002352
  15 H :    0.035382
  16 S :    0.098069
  17 C :   -0.109189
  18 C :   -0.042641
  19 C :   -0.068062
  20 C :   -0.128792
  21 H :    0.038024
  22 C :    0.084558
  23 H :    0.013293
  24 H :    0.031611
  25 C :   -0.139194
  26 H :    0.035818
  27 H :    0.072843
  28 C :    0.001386
  29 H :    0.014154
  30 H :    0.041059
  31 H :    0.008949
  32 H :    0.061337
  33 H :    0.069637
Sum of atomic charges:   -0.0000000

LOEWDIN ATOMIC CHARGES
----------------------
   0 S :    0.399350
   1 C :   -0.213015
   2 C :   -0.060538
   3 C :   -0.070645
   4 C :   -0.181451
   5 H :    0.040242
   6 C :   -0.036663
   7 H :    0.034786
   8 H :    0.033370
   9 C :   -0.020315
  10 H :    0.021401
  11 H :    0.022040
  12 C :   -0.067970
  13 H :    0.018301
  14 H :    0.019332
  15 H :    0.024707
  16 S :    0.408269
  17 C :   -0.183133
  18 C :   -0.077971
  19 C :   -0.069952
  20 C :   -0.206806
  21 H :    0.044145
  22 C :   -0.032180
  23 H :    0.029170
  24 H :    0.029761
  25 C :   -0.046839
  26 H :    0.032553
  27 H :    0.035593
  28 C :   -0.066607
  29 H :    0.020666
  30 H :    0.031678
  31 H :    0.018616
  32 H :    0.031100
  33 H :    0.039002

  Mayer bond orders larger than 0.100000
B(  0-S ,  1-C ) :   1.1423 B(  0-S ,  4-C ) :   1.1425 B(  1-C ,  2-C ) :   1.5980
B(  1-C , 32-H ) :   0.9666 B(  2-C ,  3-C ) :   1.2237 B(  2-C ,  6-C ) :   1.0416
B(  3-C ,  4-C ) :   1.5729 B(  3-C ,  5-H ) :   0.9829 B(  4-C , 20-C ) :   1.0529
B(  6-C ,  7-H ) :   0.9374 B(  6-C ,  8-H ) :   0.9433 B(  6-C ,  9-C ) :   1.0563
B(  9-C , 10-H ) :   0.9593 B(  9-C , 11-H ) :   0.9625 B(  9-C , 12-C ) :   1.0659
B( 12-C , 13-H ) :   0.9736 B( 12-C , 14-H ) :   0.9700 B( 12-C , 15-H ) :   0.9790
B( 16-S , 17-C ) :   1.1440 B( 16-S , 20-C ) :   1.1282 B( 17-C , 18-C ) :   1.6354
B( 17-C , 33-H ) :   0.9606 B( 18-C , 19-C ) :   1.2287 B( 18-C , 21-H ) :   0.9833
B( 19-C , 20-C ) :   1.6423 B( 19-C , 22-C ) :   1.0298 B( 22-C , 23-H ) :   0.9329
B( 22-C , 24-H ) :   0.9370 B( 22-C , 25-C ) :   1.0609 B( 25-C , 26-H ) :   0.9553
B( 25-C , 27-H ) :   0.9533 B( 25-C , 28-C ) :   1.0648 B( 28-C , 29-H ) :   0.9717
B( 28-C , 30-H ) :   0.9744 B( 28-C , 31-H ) :   0.9722

Dispersion correction           -0.014971636
FINAL SINGLE POINT ENERGY     -1339.865762809030

DIPOLE MOMENT
-------------
                                X             Y             Z
Electronic contribution:     -6.63631       0.86893     -23.13492
Nuclear contribution   :      6.69587      -1.13676      23.61361
                        -----------------------------------------
Total Dipole Moment    :      0.05956      -0.26783       0.47869
                        -----------------------------------------
Magnitude (a.u.)       :      0.55175
Magnitude (Debye)      :      1.40243

Rotational constants in cm-1:     0.021294     0.008093     0.007263
Rotational constants in MHz :   638.372045   242.622898   217.746947

                             ****ORCA TERMINATED NORMALLY****
TOTAL RUN TIME: 0 days 0 hours 0 minutes 22 seconds 91 msec
