                         Program Version 4.2.1 -  RELEASE  -
|  1> ! wB97X-D3 SP def2-SVP
|  2> %pal
|  3> nprocs 24
|  4> end
|  5>
|  6> * xyz 0 1
|  7> S 	 -128.917 	 59.7862 	 -54.148
|  8> C 	 -130.378 	 60.2522 	 -55.1007
|  9> C 	 -130.16 	 61.2422 	 -56.016
| 10> C 	 -128.787 	 61.586 	 -55.9364
| 11> C 	 -127.995 	 61.0309 	 -54.923
| 12> H 	 -128.279 	 62.3211 	 -56.5244
| 13> C 	 -131.134 	 61.7001 	 -57.0253
| 14> H 	 -132.158 	 61.6713 	 -56.592
| 15> H 	 -131.177 	 61.0152 	 -57.8826
| 16> C 	 -130.915 	 63.2275 	 -57.4374
| 17> H 	 -131.294 	 63.8563 	 -56.6047
| 18> H 	 -129.95 	 63.4245 	 -57.7384
| 19> C 	 -131.871 	 63.4584 	 -58.5988
| 20> H 	 -132.882 	 63.2109 	 -58.3974
| 21> H 	 -131.889 	 64.5146 	 -58.835
| 22> H 	 -131.527 	 62.9174 	 -59.4549
| 23> S 	 -126.142 	 62.5693 	 -53.5605
| 24> C 	 -124.423 	 62.0081 	 -53.5452
| 25> C 	 -124.24 	 60.8444 	 -54.2252
| 26> C 	 -125.473 	 60.3859 	 -54.8322
| 27> C 	 -126.571 	 61.2161 	 -54.6047
| 28> H 	 -123.247 	 60.3218 	 -54.2329
| 29> C 	 -125.522 	 59.1406 	 -55.6493
| 30> H 	 -126.366 	 59.2337 	 -56.3533
| 31> H 	 -125.9 	 58.3365 	 -55.0498
| 32> C 	 -124.199 	 58.6909 	 -56.3196
| 33> H 	 -123.707 	 58.0579 	 -55.6062
| 34> H 	 -123.539 	 59.5308 	 -56.6134
| 35> C 	 -124.378 	 57.9452 	 -57.6592
| 36> H 	 -124.966 	 58.3569 	 -58.4729
| 37> H 	 -124.729 	 56.8959 	 -57.532
| 38> H 	 -123.384 	 57.8214 	 -58.1087
| 39> H 	 -131.349 	 59.7508 	 -55.016
| 40> H 	 -123.745 	 62.7154 	 -53.1674
| 41> *
| 42>
| 43>                          ****END OF INPUT****

CARTESIAN COORDINATES (ANGSTROEM)
---------------------------------
  S    -128.917000   59.786200  -54.148000
  C    -130.378000   60.252200  -55.100700
  C    -130.160000   61.242200  -56.016000
  C    -128.787000   61.586000  -55.936400
  C    -127.995000   61.030900  -54.923000
  H    -128.279000   62.321100  -56.524400
  C    -131.134000   61.700100  -57.025300
  H    -132.158000   61.671300  -56.592000
  H    -131.177000   61.015200  -57.882600
  C    -130.915000   63.227500  -57.437400
  H    -131.294000   63.856300  -56.604700
  H    -129.950000   63.424500  -57.738400
  C    -131.871000   63.458400  -58.598800
  H    -132.882000   63.210900  -58.397400
  H    -131.889000   64.514600  -58.835000
  H    -131.527000   62.917400  -59.454900
  S    -126.142000   62.569300  -53.560500
  C    -124.423000   62.008100  -53.545200
  C    -124.240000   60.844400  -54.225200
  C    -125.473000   60.385900  -54.832200
  C    -126.571000   61.216100  -54.604700
  H    -123.247000   60.321800  -54.232900
  C    -125.522000   59.140600  -55.649300
  H    -126.366000   59.233700  -56.353300
  H    -125.900000   58.336500  -55.049800
  C    -124.199000   58.690900  -56.319600
  H    -123.707000   58.057900  -55.606200
  H    -123.539000   59.530800  -56.613400
  C    -124.378000   57.945200  -57.659200
  H    -124.966000   58.356900  -58.472900
  H    -124.729000   56.895900  -57.532000
  H    -123.384000   57.821400  -58.108700
  H    -131.349000   59.750800  -55.016000
  H    -123.745000   62.715400  -53.167400

 Total Charge           Charge          ....    0
 Multiplicity           Mult            ....    1
 Number of Electrons    NEL             ....  134
 Basis Dimension        Dim             ....  322

ORBITAL ENERGIES
----------------

  NO   OCC          E(Eh)            E(eV)
   0   2.0000     -88.964066     -2420.8353
   1   2.0000     -88.959603     -2420.7139
   2   2.0000     -10.326919      -281.0097
   3   2.0000     -10.325465      -280.9702
   4   2.0000     -10.317649      -280.7575
   5   2.0000     -10.314420      -280.6696
   6   2.0000     -10.305087      -280.4157
   7   2.0000     -10.300547      -280.2921
   8   2.0000     -10.298330      -280.2318
   9   2.0000     -10.297004      -280.1957
  10   2.0000     -10.291460      -280.0449
  11   2.0000     -10.291013      -280.0327
  12   2.0000     -10.287135      -279.9272
  13   2.0000     -10.285049      -279.8704
  14   2.0000     -10.279625      -279.7228
  15   2.0000     -10.270197      -279.4663
  16   2.0000      -8.078119      -219.8168
  17   2.0000      -8.073778      -219.6987
  18   2.0000      -6.036638      -164.2653
  19   2.0000      -6.032682      -164.1576
  20   2.0000      -6.032320      -164.1478
  21   2.0000      -6.028948      -164.0560
  22   2.0000      -6.028433      -164.0420
  23   2.0000      -6.024478      -163.9344
  24   2.0000      -1.000157       -27.2157
  25   2.0000      -0.978559       -26.6279
  26   2.0000      -0.914297       -24.8793
  27   2.0000      -0.904420       -24.6105
  28   2.0000      -0.872089       -23.7307
  29   2.0000      -0.845882       -23.0176
  30   2.0000      -0.843635       -22.9565
  31   2.0000      -0.812904       -22.1202
  32   2.0000      -0.782007       -21.2795
  33   2.0000      -0.768566       -20.9137
  34   2.0000      -0.712158       -19.3788
  35   2.0000      -0.705443       -19.1961
  36   2.0000      -0.689726       -18.7684
  37   2.0000      -0.654627       -17.8133
  38   2.0000      -0.638536       -17.3755
  39   2.0000      -0.616722       -16.7818
  40   2.0000      -0.601763       -16.3748
  41   2.0000      -0.577391       -15.7116
  42   2.0000      -0.568015       -15.4565
  43   2.0000      -0.562148       -15.2968
  44   2.0000      -0.529549       -14.4098
  45   2.0000      -0.523504       -14.2453
  46   2.0000      -0.511381       -13.9154
  47   2.0000      -0.509649       -13.8683
  48   2.0000      -0.499405       -13.5895
  49   2.0000      -0.496832       -13.5195
  50   2.0000      -0.483364       -13.1530
  51   2.0000      -0.479618       -13.0511
  52   2.0000      -0.473817       -12.8932
  53   2.0000      -0.468715       -12.7544
  54   2.0000      -0.454103       -12.3568
  55   2.0000      -0.450027       -12.2458
  56   2.0000      -0.443805       -12.0765
  57   2.0000      -0.435911       -11.8617
  58   2.0000      -0.430471       -11.7137
  59   2.0000      -0.426307       -11.6004
  60   2.0000      -0.425893       -11.5891
  61   2.0000      -0.413799       -11.2600
  62   2.0000      -0.409917       -11.1544
  63   2.0000      -0.336128        -9.1465
  64   2.0000      -0.330001        -8.9798
  65   2.0000      -0.316715        -8.6183
  66   2.0000      -0.305053        -8.3009
  67   0.0000       0.039427         1.0729
  68   0.0000       0.058123         1.5816
  69   0.0000       0.114179         3.1070
  70   0.0000       0.115278         3.1369
  71   0.0000       0.127486         3.4691

MULLIKEN ATOMIC CHARGES
-----------------------
   0 S :    0.111234
   1 C :   -0.142270
   2 C :   -0.016459
   3 C :    0.040453
   4 C :   -0.194392
   5 H :   -0.006335
   6 C :    0.017306
   7 H :    0.028358
   8 H :    0.049963
   9 C :   -0.077853
  10 H :    0.047238
  11 H :    0.029762
  12 C :   -0.017055
  13 H :    0.016659
  14 H :    0.024128
  15 H :    0.023516
  16 S :    0.083112
  17 C :   -0.086744
  18 C :   -0.028889
  19 C :   -0.053790
  20 C :   -0.163698
  21 H :    0.049627
  22 C :    0.097849
  23 H :    0.027235
  24 H :    0.027794
  25 C :   -0.086402
  26 H :    0.034507
  27 H :    0.045623
  28 C :   -0.068827
  29 H :    0.039993
  30 H :    0.030428
  31 H :    0.024585
  32 H :    0.043665
  33 H :    0.049678
Sum of atomic charges:    0.0000000

LOEWDIN ATOMIC CHARGES
----------------------
   0 S :    0.393663
   1 C :   -0.175809
   2 C :   -0.073135
   3 C :   -0.056848
   4 C :   -0.208765
   5 H :    0.022590
   6 C :   -0.031302
   7 H :    0.036835
   8 H :    0.035660
   9 C :   -0.023089
  10 H :    0.034263
  11 H :    0.011337
  12 C :   -0.058179
  13 H :    0.018144
  14 H :    0.023776
  15 H :    0.021061
  16 S :    0.372187
  17 C :   -0.149398
  18 C :   -0.075770
  19 C :   -0.049390
  20 C :   -0.207290
  21 H :    0.046770
  22 C :   -0.040605
  23 H :    0.034996
  24 H :    0.033634
  25 C :   -0.039634
  26 H :    0.025249
  27 H :    0.030211
  28 C :   -0.072479
  29 H :    0.025362
  30 H :    0.025574
  31 H :    0.026952
  32 H :    0.027324
  33 H :    0.016102

  Mayer bond orders larger than 0.100000
B(  0-S ,  1-C ) :   1.1439 B(  0-S ,  4-C ) :   1.1421 B(  1-C ,  2-C ) :   1.6119
B(  1-C , 32-H ) :   0.9649 B(  2-C ,  3-C ) :   1.2290 B(  2-C ,  6-C ) :   1.0208
B(  3-C ,  4-C ) :   1.6000 B(  3-C ,  5-H ) :   0.9924 B(  4-C , 20-C ) :   1.0076
B(  6-C ,  7-H ) :   0.9377 B(  6-C ,  8-H ) :   0.9441 B(  6-C ,  9-C ) :   1.0599
B(  9-C , 10-H ) :   0.9581 B(  9-C , 11-H ) :   0.9587 B(  9-C , 12-C ) :   1.0952
B( 12-C , 13-H ) :   0.9711 B( 12-C , 14-H ) :   0.9710 B( 12-C , 15-H ) :   0.9759
B( 16-S , 17-C ) :   1.1481 B( 16-S , 20-C ) :   1.1325 B( 17-C , 18-C ) :   1.6146
B( 17-C , 33-H ) :   0.9735 B( 18-C , 19-C ) :   1.2161 B( 18-C , 21-H ) :   0.9801
B( 19-C , 20-C ) :   1.6240 B( 19-C , 22-C ) :   1.0528 B( 22-C , 23-H ) :   0.9333
B( 22-C , 24-H ) :   0.9152 B( 22-C , 25-C ) :   1.0468 B( 25-C , 26-H ) :   0.9474
B( 25-C , 27-H ) :   0.9678 B( 25-C , 28-C ) :   1.0861 B( 28-C , 29-H ) :   0.9772
B( 28-C , 30-H ) :   0.9745 B( 28-C , 31-H ) :   0.9746

Dispersion correction           -0.013490191
FINAL SINGLE POINT ENERGY     -1339.870893453426

DIPOLE MOMENT
-------------
                                X             Y             Z
Electronic contribution:      3.47652       3.14451      22.83283
Nuclear contribution   :     -3.45561      -3.27306     -23.43203
                        -----------------------------------------
Total Dipole Moment    :      0.02091      -0.12856      -0.59920
                        -----------------------------------------
Magnitude (a.u.)       :      0.61320
Magnitude (Debye)      :      1.55862

Rotational constants in cm-1:     0.018206     0.007347     0.006549
Rotational constants in MHz :   545.815921   220.263731   196.326632

                             ****ORCA TERMINATED NORMALLY****
TOTAL RUN TIME: 0 days 0 hours 0 minutes 20 seconds 587 msec
