                         Program Version 4.2.1 -  RELEASE  -
|  1> ! wB97X-D3 SP def2-SVP
|  2> %pal
|  3> nprocs 24
|  4> end
|  5>
|  6> * xyz 0 1
|  7> S 	 -61.0952 	 21.8629 	 20.6021
|  8> C 	 -62.236 	 21.1309 	 21.8068
|  9> C 	 -61.4952 	 20.3478 	 22.714
| 10> C 	 -60.0927 	 20.4401 	 22.5036
| 11> C 	 -59.6945 	 21.1579 	 21.3508
| 12> H 	 -59.2652 	 19.9623 	 23.0065
| 13> C 	 -62.0256 	 19.6057 	 23.8502
| 14> H 	 -61.1221 	 19.2236 	 24.3715
| 15> H 	 -62.6403 	 18.7659 	 23.494
| 16> C 	 -62.7131 	 20.4096 	 24.9094
| 17> H 	 -62.071 	 20.9348 	 25.5555
| 18> H 	 -63.3621 	 21.2651 	 24.5461
| 19> C 	 -63.6132 	 19.4433 	 25.8239
| 20> H 	 -64.6229 	 19.4856 	 25.5002
| 21> H 	 -63.154 	 18.4239 	 25.9974
| 22> H 	 -63.7393 	 19.9478 	 26.8037
| 23> S 	 -58.0694 	 21.9195 	 19.2351
| 24> C 	 -56.3428 	 22.1828 	 19.4046
| 25> C 	 -55.9494 	 21.6078 	 20.6385
| 26> C 	 -57.0365 	 21.1501 	 21.485
| 27> C 	 -58.308 	 21.3815 	 20.906
| 28> H 	 -54.8622 	 21.7038 	 20.8335
| 29> C 	 -56.6982 	 20.4972 	 22.8225
| 30> H 	 -57.3708 	 20.7805 	 23.7176
| 31> H 	 -55.7506 	 20.9379 	 23.1803
| 32> C 	 -56.6359 	 18.9708 	 22.7494
| 33> H 	 -57.5556 	 18.7025 	 22.2715
| 34> H 	 -56.6284 	 18.6158 	 23.7833
| 35> C 	 -55.4854 	 18.5344 	 21.9538
| 36> H 	 -55.3976 	 19.0477 	 21.0062
| 37> H 	 -55.388 	 17.3999 	 21.954
| 38> H 	 -54.6408 	 18.864 	 22.5889
| 39> H 	 -63.2721 	 21.3006 	 21.8841
| 40> H 	 -55.7697 	 22.5168 	 18.5399
| 41> *
| 42>
| 43>                          ****END OF INPUT****

CARTESIAN COORDINATES (ANGSTROEM)
---------------------------------
  S    -61.095200   21.862900   20.602100
  C    -62.236000   21.130900   21.806800
  C    -61.495200   20.347800   22.714000
  C    -60.092700   20.440100   22.503600
  C    -59.694500   21.157900   21.350800
  H    -59.265200   19.962300   23.006500
  C    -62.025600   19.605700   23.850200
  H    -61.122100   19.223600   24.371500
  H    -62.640300   18.765900   23.494000
  C    -62.713100   20.409600   24.909400
  H    -62.071000   20.934800   25.555500
  H    -63.362100   21.265100   24.546100
  C    -63.613200   19.443300   25.823900
  H    -64.622900   19.485600   25.500200
  H    -63.154000   18.423900   25.997400
  H    -63.739300   19.947800   26.803700
  S    -58.069400   21.919500   19.235100
  C    -56.342800   22.182800   19.404600
  C    -55.949400   21.607800   20.638500
  C    -57.036500   21.150100   21.485000
  C    -58.308000   21.381500   20.906000
  H    -54.862200   21.703800   20.833500
  C    -56.698200   20.497200   22.822500
  H    -57.370800   20.780500   23.717600
  H    -55.750600   20.937900   23.180300
  C    -56.635900   18.970800   22.749400
  H    -57.555600   18.702500   22.271500
  H    -56.628400   18.615800   23.783300
  C    -55.485400   18.534400   21.953800
  H    -55.397600   19.047700   21.006200
  H    -55.388000   17.399900   21.954000
  H    -54.640800   18.864000   22.588900
  H    -63.272100   21.300600   21.884100
  H    -55.769700   22.516800   18.539900

 Total Charge           Charge          ....    0
 Multiplicity           Mult            ....    1
 Number of Electrons    NEL             ....  134
 Basis Dimension        Dim             ....  322

ORBITAL ENERGIES
----------------

  NO   OCC          E(Eh)            E(eV)
   0   2.0000     -88.970599     -2421.0131
   1   2.0000     -88.964805     -2420.8554
   2   2.0000     -10.340868      -281.3893
   3   2.0000     -10.336785      -281.2782
   4   2.0000     -10.326242      -280.9913
   5   2.0000     -10.319216      -280.8001
   6   2.0000     -10.316481      -280.7257
   7   2.0000     -10.307782      -280.4890
   8   2.0000     -10.302826      -280.3541
   9   2.0000     -10.300816      -280.2994
  10   2.0000     -10.294033      -280.1149
  11   2.0000     -10.290090      -280.0076
  12   2.0000     -10.289378      -279.9882
  13   2.0000     -10.284775      -279.8630
  14   2.0000     -10.281279      -279.7678
  15   2.0000     -10.276761      -279.6449
  16   2.0000      -8.084001      -219.9768
  17   2.0000      -8.079374      -219.8509
  18   2.0000      -6.042669      -164.4294
  19   2.0000      -6.038552      -164.3174
  20   2.0000      -6.037886      -164.2992
  21   2.0000      -6.034794      -164.2151
  22   2.0000      -6.033801      -164.1881
  23   2.0000      -6.030240      -164.0912
  24   2.0000      -1.001281       -27.2462
  25   2.0000      -0.979075       -26.6420
  26   2.0000      -0.921264       -25.0689
  27   2.0000      -0.917159       -24.9572
  28   2.0000      -0.864844       -23.5336
  29   2.0000      -0.851315       -23.1655
  30   2.0000      -0.841604       -22.9012
  31   2.0000      -0.810426       -22.0528
  32   2.0000      -0.781177       -21.2569
  33   2.0000      -0.773733       -21.0543
  34   2.0000      -0.711481       -19.3604
  35   2.0000      -0.704502       -19.1705
  36   2.0000      -0.688752       -18.7419
  37   2.0000      -0.664814       -18.0905
  38   2.0000      -0.640369       -17.4253
  39   2.0000      -0.616904       -16.7868
  40   2.0000      -0.600636       -16.3441
  41   2.0000      -0.574218       -15.6253
  42   2.0000      -0.562545       -15.3076
  43   2.0000      -0.556102       -15.1323
  44   2.0000      -0.545048       -14.8315
  45   2.0000      -0.521100       -14.1799
  46   2.0000      -0.518191       -14.1007
  47   2.0000      -0.515711       -14.0332
  48   2.0000      -0.509038       -13.8516
  49   2.0000      -0.496080       -13.4990
  50   2.0000      -0.494404       -13.4534
  51   2.0000      -0.490416       -13.3449
  52   2.0000      -0.478980       -13.0337
  53   2.0000      -0.462713       -12.5911
  54   2.0000      -0.456350       -12.4179
  55   2.0000      -0.445485       -12.1223
  56   2.0000      -0.437012       -11.8917
  57   2.0000      -0.432671       -11.7736
  58   2.0000      -0.428497       -11.6600
  59   2.0000      -0.420084       -11.4311
  60   2.0000      -0.418277       -11.3819
  61   2.0000      -0.414875       -11.2893
  62   2.0000      -0.404885       -11.0175
  63   2.0000      -0.358467        -9.7544
  64   2.0000      -0.333509        -9.0752
  65   2.0000      -0.329001        -8.9526
  66   2.0000      -0.281397        -7.6572
  67   0.0000       0.010225         0.2782
  68   0.0000       0.078186         2.1275
  69   0.0000       0.096054         2.6138
  70   0.0000       0.115263         3.1365
  71   0.0000       0.132464         3.6045

MULLIKEN ATOMIC CHARGES
-----------------------
   0 S :    0.107198
   1 C :   -0.107756
   2 C :   -0.064680
   3 C :   -0.003450
   4 C :   -0.113783
   5 H :   -0.010041
   6 C :    0.077249
   7 H :    0.028120
   8 H :    0.050856
   9 C :   -0.086409
  10 H :    0.018136
  11 H :    0.029926
  12 C :   -0.074252
  13 H :    0.033589
  14 H :    0.055241
  15 H :    0.023901
  16 S :    0.080755
  17 C :   -0.113362
  18 C :   -0.055173
  19 C :   -0.044615
  20 C :   -0.113102
  21 H :    0.043276
  22 C :   -0.037573
  23 H :    0.047891
  24 H :    0.020970
  25 C :   -0.025977
  26 H :    0.027680
  27 H :    0.030693
  28 C :   -0.046281
  29 H :    0.051704
  30 H :    0.045811
  31 H :    0.010951
  32 H :    0.035623
  33 H :    0.076881
Sum of atomic charges:    0.0000000

LOEWDIN ATOMIC CHARGES
----------------------
   0 S :    0.397097
   1 C :   -0.177076
   2 C :   -0.057822
   3 C :   -0.071294
   4 C :   -0.193180
   5 H :    0.026694
   6 C :   -0.042164
   7 H :    0.040250
   8 H :    0.039623
   9 C :   -0.037511
  10 H :    0.016309
  11 H :    0.026690
  12 C :   -0.072852
  13 H :    0.021322
  14 H :    0.033693
  15 H :    0.027997
  16 S :    0.393376
  17 C :   -0.188774
  18 C :   -0.078113
  19 C :   -0.061652
  20 C :   -0.180970
  21 H :    0.039148
  22 C :   -0.043438
  23 H :    0.037566
  24 H :    0.027305
  25 C :   -0.043279
  26 H :    0.018383
  27 H :    0.026763
  28 C :   -0.068185
  29 H :    0.028228
  30 H :    0.034817
  31 H :    0.025738
  32 H :    0.020834
  33 H :    0.034478

  Mayer bond orders larger than 0.100000
B(  0-S ,  1-C ) :   1.1271 B(  0-S ,  4-C ) :   1.1582 B(  1-C ,  2-C ) :   1.5616
B(  1-C ,  4-C ) :   0.1070 B(  1-C , 32-H ) :   0.9800 B(  2-C ,  3-C ) :   1.2716
B(  2-C ,  6-C ) :   1.0321 B(  3-C ,  4-C ) :   1.5415 B(  3-C ,  5-H ) :   0.9824
B(  4-C , 20-C ) :   1.0843 B(  6-C ,  7-H ) :   0.9336 B(  6-C ,  8-H ) :   0.9357
B(  6-C ,  9-C ) :   1.0561 B(  9-C , 10-H ) :   0.9614 B(  9-C , 11-H ) :   0.9627
B(  9-C , 12-C ) :   1.0619 B( 12-C , 13-H ) :   0.9790 B( 12-C , 14-H ) :   0.9751
B( 12-C , 15-H ) :   0.9752 B( 16-S , 17-C ) :   1.1622 B( 16-S , 20-C ) :   1.1498
B( 17-C , 18-C ) :   1.5716 B( 17-C , 20-C ) :   0.1062 B( 17-C , 33-H ) :   0.9700
B( 18-C , 19-C ) :   1.2549 B( 18-C , 21-H ) :   0.9826 B( 19-C , 20-C ) :   1.5526
B( 19-C , 22-C ) :   1.0339 B( 22-C , 23-H ) :   0.9415 B( 22-C , 24-H ) :   0.9376
B( 22-C , 25-C ) :   1.0558 B( 25-C , 26-H ) :   0.9446 B( 25-C , 27-H ) :   0.9539
B( 25-C , 28-C ) :   1.0858 B( 28-C , 29-H ) :   0.9697 B( 28-C , 30-H ) :   0.9681
B( 28-C , 31-H ) :   0.9699

Dispersion correction           -0.014093229
FINAL SINGLE POINT ENERGY     -1339.854965357796

DIPOLE MOMENT
-------------
                                X             Y             Z
Electronic contribution:     -0.20076      15.36515     -24.54829
Nuclear contribution   :      0.40583     -15.64291      25.16917
                        -----------------------------------------
Total Dipole Moment    :      0.20507      -0.27776       0.62088
                        -----------------------------------------
Magnitude (a.u.)       :      0.71042
Magnitude (Debye)      :      1.80575

Rotational constants in cm-1:     0.021116     0.007996     0.006081
Rotational constants in MHz :   633.040493   239.701187   182.304913

                             ****ORCA TERMINATED NORMALLY****
TOTAL RUN TIME: 0 days 0 hours 0 minutes 21 seconds 565 msec
