                         Program Version 4.2.1 -  RELEASE  -
|  1> ! wB97X-D3 SP def2-SVP
|  2> %pal
|  3> nprocs 24
|  4> end
|  5>
|  6> * xyz 0 1
|  7> S 	 -72.1776 	 -43.4101 	 -93.5111
|  8> C 	 -72.2549 	 -41.7495 	 -93.0484
|  9> C 	 -72.7131 	 -40.9797 	 -94.1388
| 10> C 	 -72.7561 	 -41.6864 	 -95.3434
| 11> C 	 -72.5562 	 -42.9843 	 -95.184
| 12> H 	 -73.0041 	 -41.2754 	 -96.2698
| 13> C 	 -73.0118 	 -39.4855 	 -93.9639
| 14> H 	 -73.488 	 -39.3632 	 -92.9916
| 15> H 	 -73.8036 	 -39.133 	 -94.5748
| 16> C 	 -71.7914 	 -38.5495 	 -94.1615
| 17> H 	 -72.0777 	 -37.5434 	 -93.8155
| 18> H 	 -70.9587 	 -38.9236 	 -93.5411
| 19> C 	 -71.2466 	 -38.3912 	 -95.5706
| 20> H 	 -70.3114 	 -37.832 	 -95.4909
| 21> H 	 -70.8001 	 -39.3115 	 -96.0356
| 22> H 	 -71.9475 	 -37.9293 	 -96.2999
| 23> S 	 -71.1354 	 -45.0106 	 -96.4762
| 24> C 	 -71.8724 	 -45.6948 	 -97.8883
| 25> C 	 -73.1806 	 -45.2112 	 -98.0383
| 26> C 	 -73.5598 	 -44.0975 	 -97.1627
| 27> C 	 -72.5723 	 -43.9401 	 -96.2364
| 28> H 	 -73.7262 	 -45.4995 	 -98.9749
| 29> C 	 -74.8577 	 -43.3015 	 -97.2706
| 30> H 	 -75.4798 	 -43.6925 	 -98.0313
| 31> H 	 -74.775 	 -42.1772 	 -97.5619
| 32> C 	 -75.7235 	 -43.4271 	 -96.0145
| 33> H 	 -76.6232 	 -42.7883 	 -96.0115
| 34> H 	 -75.1871 	 -43.1003 	 -95.1089
| 35> C 	 -76.1482 	 -44.9835 	 -95.837
| 36> H 	 -76.8773 	 -45.0155 	 -94.9589
| 37> H 	 -75.2663 	 -45.5661 	 -95.5925
| 38> H 	 -76.7452 	 -45.4207 	 -96.5877
| 39> H 	 -72.1313 	 -41.5349 	 -91.9881
| 40> H 	 -71.5213 	 -46.5498 	 -98.4525
| 41> *
| 42>
| 43>                          ****END OF INPUT****

CARTESIAN COORDINATES (ANGSTROEM)
---------------------------------
  S    -72.177600  -43.410100  -93.511100
  C    -72.254900  -41.749500  -93.048400
  C    -72.713100  -40.979700  -94.138800
  C    -72.756100  -41.686400  -95.343400
  C    -72.556200  -42.984300  -95.184000
  H    -73.004100  -41.275400  -96.269800
  C    -73.011800  -39.485500  -93.963900
  H    -73.488000  -39.363200  -92.991600
  H    -73.803600  -39.133000  -94.574800
  C    -71.791400  -38.549500  -94.161500
  H    -72.077700  -37.543400  -93.815500
  H    -70.958700  -38.923600  -93.541100
  C    -71.246600  -38.391200  -95.570600
  H    -70.311400  -37.832000  -95.490900
  H    -70.800100  -39.311500  -96.035600
  H    -71.947500  -37.929300  -96.299900
  S    -71.135400  -45.010600  -96.476200
  C    -71.872400  -45.694800  -97.888300
  C    -73.180600  -45.211200  -98.038300
  C    -73.559800  -44.097500  -97.162700
  C    -72.572300  -43.940100  -96.236400
  H    -73.726200  -45.499500  -98.974900
  C    -74.857700  -43.301500  -97.270600
  H    -75.479800  -43.692500  -98.031300
  H    -74.775000  -42.177200  -97.561900
  C    -75.723500  -43.427100  -96.014500
  H    -76.623200  -42.788300  -96.011500
  H    -75.187100  -43.100300  -95.108900
  C    -76.148200  -44.983500  -95.837000
  H    -76.877300  -45.015500  -94.958900
  H    -75.266300  -45.566100  -95.592500
  H    -76.745200  -45.420700  -96.587700
  H    -72.131300  -41.534900  -91.988100
  H    -71.521300  -46.549800  -98.452500

 Total Charge           Charge          ....    0
 Multiplicity           Mult            ....    1
 Number of Electrons    NEL             ....  134
 Basis Dimension        Dim             ....  322

ORBITAL ENERGIES
----------------

  NO   OCC          E(Eh)            E(eV)
   0   2.0000     -88.966423     -2420.8994
   1   2.0000     -88.963677     -2420.8247
   2   2.0000     -10.323871      -280.9268
   3   2.0000     -10.319316      -280.8029
   4   2.0000     -10.318015      -280.7675
   5   2.0000     -10.315579      -280.7012
   6   2.0000     -10.308103      -280.4977
   7   2.0000     -10.302204      -280.3372
   8   2.0000     -10.301061      -280.3061
   9   2.0000     -10.300213      -280.2830
  10   2.0000     -10.289716      -279.9974
  11   2.0000     -10.289310      -279.9864
  12   2.0000     -10.287892      -279.9478
  13   2.0000     -10.281919      -279.7852
  14   2.0000     -10.280552      -279.7480
  15   2.0000     -10.276363      -279.6341
  16   2.0000      -8.080667      -219.8861
  17   2.0000      -8.078903      -219.8381
  18   2.0000      -6.039227      -164.3357
  19   2.0000      -6.037256      -164.2821
  20   2.0000      -6.035319      -164.2294
  21   2.0000      -6.033354      -164.1759
  22   2.0000      -6.031307      -164.1202
  23   2.0000      -6.029795      -164.0791
  24   2.0000      -1.011556       -27.5258
  25   2.0000      -0.982024       -26.7222
  26   2.0000      -0.907094       -24.6833
  27   2.0000      -0.904416       -24.6104
  28   2.0000      -0.871748       -23.7215
  29   2.0000      -0.851638       -23.1742
  30   2.0000      -0.837005       -22.7761
  31   2.0000      -0.812667       -22.1138
  32   2.0000      -0.782068       -21.2811
  33   2.0000      -0.769895       -20.9499
  34   2.0000      -0.707573       -19.2540
  35   2.0000      -0.695292       -18.9199
  36   2.0000      -0.687854       -18.7175
  37   2.0000      -0.662969       -18.0403
  38   2.0000      -0.647838       -17.6286
  39   2.0000      -0.622402       -16.9364
  40   2.0000      -0.593625       -16.1533
  41   2.0000      -0.569380       -15.4936
  42   2.0000      -0.545602       -14.8466
  43   2.0000      -0.544747       -14.8233
  44   2.0000      -0.536836       -14.6081
  45   2.0000      -0.534020       -14.5314
  46   2.0000      -0.518625       -14.1125
  47   2.0000      -0.508756       -13.8440
  48   2.0000      -0.501676       -13.6513
  49   2.0000      -0.492014       -13.3884
  50   2.0000      -0.488897       -13.3036
  51   2.0000      -0.482248       -13.1226
  52   2.0000      -0.472661       -12.8618
  53   2.0000      -0.462190       -12.5768
  54   2.0000      -0.459652       -12.5078
  55   2.0000      -0.440927       -11.9982
  56   2.0000      -0.438551       -11.9336
  57   2.0000      -0.434603       -11.8261
  58   2.0000      -0.428815       -11.6687
  59   2.0000      -0.421338       -11.4652
  60   2.0000      -0.419436       -11.4134
  61   2.0000      -0.413360       -11.2481
  62   2.0000      -0.411053       -11.1853
  63   2.0000      -0.350382        -9.5344
  64   2.0000      -0.334060        -9.0902
  65   2.0000      -0.327022        -8.8987
  66   2.0000      -0.291514        -7.9325
  67   0.0000       0.029412         0.8004
  68   0.0000       0.066545         1.8108
  69   0.0000       0.109434         2.9778
  70   0.0000       0.114934         3.1275
  71   0.0000       0.136146         3.7047

MULLIKEN ATOMIC CHARGES
-----------------------
   0 S :    0.108007
   1 C :   -0.140160
   2 C :   -0.085716
   3 C :    0.057886
   4 C :   -0.161929
   5 H :   -0.017217
   6 C :    0.094391
   7 H :    0.017847
   8 H :    0.002958
   9 C :   -0.060718
  10 H :    0.031623
  11 H :    0.030486
  12 C :   -0.080297
  13 H :    0.030786
  14 H :    0.037576
  15 H :    0.040834
  16 S :    0.113280
  17 C :   -0.092860
  18 C :   -0.053544
  19 C :   -0.037740
  20 C :   -0.152849
  21 H :    0.036043
  22 C :    0.074156
  23 H :    0.006833
  24 H :    0.053989
  25 C :   -0.094767
  26 H :    0.029067
  27 H :    0.052666
  28 C :   -0.080086
  29 H :    0.030612
  30 H :    0.057891
  31 H :    0.025241
  32 H :    0.061317
  33 H :    0.064392
Sum of atomic charges:    0.0000000

LOEWDIN ATOMIC CHARGES
----------------------
   0 S :    0.403769
   1 C :   -0.201789
   2 C :   -0.057267
   3 C :   -0.052260
   4 C :   -0.187852
   5 H :    0.026129
   6 C :   -0.035235
   7 H :    0.031889
   8 H :    0.021533
   9 C :   -0.040052
  10 H :    0.025904
  11 H :    0.027532
  12 C :   -0.079824
  13 H :    0.030400
  14 H :    0.030593
  15 H :    0.025830
  16 S :    0.386867
  17 C :   -0.194714
  18 C :   -0.075643
  19 C :   -0.050995
  20 C :   -0.177204
  21 H :    0.035157
  22 C :   -0.037330
  23 H :    0.024518
  24 H :    0.041037
  25 C :   -0.038128
  26 H :    0.023237
  27 H :    0.026664
  28 C :   -0.068454
  29 H :    0.031721
  30 H :    0.027949
  31 H :    0.014547
  32 H :    0.028333
  33 H :    0.033137

  Mayer bond orders larger than 0.100000
B(  0-S ,  1-C ) :   1.1539 B(  0-S ,  4-C ) :   1.1422 B(  1-C ,  2-C ) :   1.5670
B(  1-C , 32-H ) :   0.9745 B(  2-C ,  3-C ) :   1.2456 B(  2-C ,  6-C ) :   1.0243
B(  3-C ,  4-C ) :   1.5748 B(  3-C ,  5-H ) :   1.0112 B(  4-C , 20-C ) :   1.0573
B(  6-C ,  7-H ) :   0.9378 B(  6-C ,  8-H ) :   0.9393 B(  6-C ,  9-C ) :   1.0683
B(  9-C , 10-H ) :   0.9532 B(  9-C , 11-H ) :   0.9551 B(  9-C , 12-C ) :   1.0893
B( 12-C , 13-H ) :   0.9688 B( 12-C , 14-H ) :   0.9688 B( 12-C , 15-H ) :   0.9742
B( 16-S , 17-C ) :   1.1383 B( 16-S , 20-C ) :   1.1237 B( 17-C , 18-C ) :   1.6518
B( 17-C , 33-H ) :   0.9631 B( 18-C , 19-C ) :   1.2101 B( 18-C , 21-H ) :   0.9703
B( 19-C , 20-C ) :   1.6259 B( 19-C , 22-C ) :   1.0369 B( 22-C , 23-H ) :   0.9320
B( 22-C , 24-H ) :   0.9362 B( 22-C , 25-C ) :   1.0632 B( 25-C , 26-H ) :   0.9586
B( 25-C , 27-H ) :   0.9575 B( 25-C , 28-C ) :   1.0575 B( 28-C , 29-H ) :   0.9763
B( 28-C , 30-H ) :   0.9766 B( 28-C , 31-H ) :   0.9797

Dispersion correction           -0.015752411
FINAL SINGLE POINT ENERGY     -1339.871588766416

DIPOLE MOMENT
-------------
                                X             Y             Z
Electronic contribution:     12.98317     -17.35448       2.58100
Nuclear contribution   :    -13.38968      17.79539      -2.76544
                        -----------------------------------------
Total Dipole Moment    :     -0.40651       0.44091      -0.18444
                        -----------------------------------------
Magnitude (a.u.)       :      0.62743
Magnitude (Debye)      :      1.59480

Rotational constants in cm-1:     0.019934     0.008893     0.008166
Rotational constants in MHz :   597.598971   266.615567   244.797075

                             ****ORCA TERMINATED NORMALLY****
TOTAL RUN TIME: 0 days 0 hours 0 minutes 22 seconds 906 msec
