                         Program Version 4.2.1 -  RELEASE  -
|  1> ! wB97X-D3 SP def2-SVP
|  2> %pal
|  3> nprocs 24
|  4> end
|  5>
|  6> * xyz 0 1
|  7> S 	 -103.774 	 45.0826 	 -88.3692
|  8> C 	 -103.629 	 43.3853 	 -88.4106
|  9> C 	 -104.666 	 42.7368 	 -87.7619
| 10> C 	 -105.629 	 43.6555 	 -87.3438
| 11> C 	 -105.316 	 44.9858 	 -87.5461
| 12> H 	 -106.626 	 43.4518 	 -86.8425
| 13> C 	 -104.728 	 41.2794 	 -87.4186
| 14> H 	 -105.067 	 40.6804 	 -88.2721
| 15> H 	 -105.556 	 41.1824 	 -86.6942
| 16> C 	 -103.449 	 40.579 	 -86.9747
| 17> H 	 -103.555 	 39.5667 	 -87.1348
| 18> H 	 -102.606 	 40.8521 	 -87.682
| 19> C 	 -102.965 	 40.9031 	 -85.5308
| 20> H 	 -103.604 	 40.3543 	 -84.8602
| 21> H 	 -101.907 	 40.6265 	 -85.4609
| 22> H 	 -102.904 	 41.9674 	 -85.4053
| 23> S 	 -106.282 	 47.5208 	 -88.1473
| 24> C 	 -107.131 	 48.336 	 -86.8915
| 25> C 	 -107.508 	 47.5179 	 -85.855
| 26> C 	 -106.92 	 46.2972 	 -85.9567
| 27> C 	 -106.038 	 46.1625 	 -87.0645
| 28> H 	 -108.014 	 47.9534 	 -84.9678
| 29> C 	 -107.146 	 45.2434 	 -84.7798
| 30> H 	 -106.886 	 45.6969 	 -83.7567
| 31> H 	 -106.499 	 44.4068 	 -84.8651
| 32> C 	 -108.525 	 44.6211 	 -84.7355
| 33> H 	 -108.692 	 44.0628 	 -85.6673
| 34> H 	 -109.277 	 45.392 	 -84.6886
| 35> C 	 -108.582 	 43.6154 	 -83.6016
| 36> H 	 -108.228 	 44.0268 	 -82.7123
| 37> H 	 -107.963 	 42.7242 	 -83.7388
| 38> H 	 -109.603 	 43.2226 	 -83.3874
| 39> H 	 -102.719 	 42.9519 	 -88.848
| 40> H 	 -107.38 	 49.3948 	 -86.9032
| 41> *
| 42>
| 43>                          ****END OF INPUT****

CARTESIAN COORDINATES (ANGSTROEM)
---------------------------------
  S    -103.774000   45.082600  -88.369200
  C    -103.629000   43.385300  -88.410600
  C    -104.666000   42.736800  -87.761900
  C    -105.629000   43.655500  -87.343800
  C    -105.316000   44.985800  -87.546100
  H    -106.626000   43.451800  -86.842500
  C    -104.728000   41.279400  -87.418600
  H    -105.067000   40.680400  -88.272100
  H    -105.556000   41.182400  -86.694200
  C    -103.449000   40.579000  -86.974700
  H    -103.555000   39.566700  -87.134800
  H    -102.606000   40.852100  -87.682000
  C    -102.965000   40.903100  -85.530800
  H    -103.604000   40.354300  -84.860200
  H    -101.907000   40.626500  -85.460900
  H    -102.904000   41.967400  -85.405300
  S    -106.282000   47.520800  -88.147300
  C    -107.131000   48.336000  -86.891500
  C    -107.508000   47.517900  -85.855000
  C    -106.920000   46.297200  -85.956700
  C    -106.038000   46.162500  -87.064500
  H    -108.014000   47.953400  -84.967800
  C    -107.146000   45.243400  -84.779800
  H    -106.886000   45.696900  -83.756700
  H    -106.499000   44.406800  -84.865100
  C    -108.525000   44.621100  -84.735500
  H    -108.692000   44.062800  -85.667300
  H    -109.277000   45.392000  -84.688600
  C    -108.582000   43.615400  -83.601600
  H    -108.228000   44.026800  -82.712300
  H    -107.963000   42.724200  -83.738800
  H    -109.603000   43.222600  -83.387400
  H    -102.719000   42.951900  -88.848000
  H    -107.380000   49.394800  -86.903200

 Total Charge           Charge          ....    0
 Multiplicity           Mult            ....    1
 Number of Electrons    NEL             ....  134
 Basis Dimension        Dim             ....  322

ORBITAL ENERGIES
----------------

  NO   OCC          E(Eh)            E(eV)
   0   2.0000     -88.969211     -2420.9753
   1   2.0000     -88.965380     -2420.8711
   2   2.0000     -10.329116      -281.0695
   3   2.0000     -10.325666      -280.9756
   4   2.0000     -10.313490      -280.6443
   5   2.0000     -10.312104      -280.6066
   6   2.0000     -10.304759      -280.4068
   7   2.0000     -10.297947      -280.2214
   8   2.0000     -10.295334      -280.1503
   9   2.0000     -10.293603      -280.1032
  10   2.0000     -10.291870      -280.0560
  11   2.0000     -10.289112      -279.9810
  12   2.0000     -10.285402      -279.8800
  13   2.0000     -10.285090      -279.8715
  14   2.0000     -10.275876      -279.6208
  15   2.0000     -10.275019      -279.5975
  16   2.0000      -8.084304      -219.9851
  17   2.0000      -8.081012      -219.8955
  18   2.0000      -6.042556      -164.4263
  19   2.0000      -6.039286      -164.3373
  20   2.0000      -6.038893      -164.3266
  21   2.0000      -6.035360      -164.2305
  22   2.0000      -6.035191      -164.2259
  23   2.0000      -6.032014      -164.1394
  24   2.0000      -1.012087       -27.5403
  25   2.0000      -0.993442       -27.0329
  26   2.0000      -0.913399       -24.8548
  27   2.0000      -0.911755       -24.8101
  28   2.0000      -0.868791       -23.6410
  29   2.0000      -0.856456       -23.3054
  30   2.0000      -0.850973       -23.1562
  31   2.0000      -0.809084       -22.0163
  32   2.0000      -0.785004       -21.3610
  33   2.0000      -0.771931       -21.0053
  34   2.0000      -0.707614       -19.2552
  35   2.0000      -0.702327       -19.1113
  36   2.0000      -0.693650       -18.8752
  37   2.0000      -0.660584       -17.9754
  38   2.0000      -0.637904       -17.3583
  39   2.0000      -0.614757       -16.7284
  40   2.0000      -0.597183       -16.2502
  41   2.0000      -0.578071       -15.7301
  42   2.0000      -0.567948       -15.4547
  43   2.0000      -0.548510       -14.9257
  44   2.0000      -0.543313       -14.7843
  45   2.0000      -0.519153       -14.1269
  46   2.0000      -0.516925       -14.0663
  47   2.0000      -0.511872       -13.9287
  48   2.0000      -0.504774       -13.7356
  49   2.0000      -0.494909       -13.4672
  50   2.0000      -0.490180       -13.3385
  51   2.0000      -0.478457       -13.0195
  52   2.0000      -0.475958       -12.9515
  53   2.0000      -0.469931       -12.7875
  54   2.0000      -0.460059       -12.5188
  55   2.0000      -0.451333       -12.2814
  56   2.0000      -0.439603       -11.9622
  57   2.0000      -0.436865       -11.8877
  58   2.0000      -0.432429       -11.7670
  59   2.0000      -0.430044       -11.7021
  60   2.0000      -0.426150       -11.5961
  61   2.0000      -0.416731       -11.3398
  62   2.0000      -0.414126       -11.2689
  63   2.0000      -0.351941        -9.5768
  64   2.0000      -0.337967        -9.1965
  65   2.0000      -0.331061        -9.0086
  66   2.0000      -0.282860        -7.6970
  67   0.0000       0.021668         0.5896
  68   0.0000       0.077276         2.1028
  69   0.0000       0.109001         2.9661
  70   0.0000       0.121001         3.2926
  71   0.0000       0.126823         3.4510

MULLIKEN ATOMIC CHARGES
-----------------------
   0 S :    0.116148
   1 C :   -0.151371
   2 C :   -0.054723
   3 C :   -0.016721
   4 C :   -0.157282
   5 H :    0.025074
   6 C :    0.074166
   7 H :    0.036422
   8 H :    0.013744
   9 C :   -0.078774
  10 H :    0.008175
  11 H :    0.022015
  12 C :   -0.022791
  13 H :    0.037601
  14 H :    0.027820
  15 H :    0.035708
  16 S :    0.118556
  17 C :   -0.093173
  18 C :   -0.047348
  19 C :   -0.010725
  20 C :   -0.132850
  21 H :    0.036593
  22 C :    0.006760
  23 H :    0.040734
  24 H :    0.006455
  25 C :   -0.051783
  26 H :    0.029979
  27 H :    0.024086
  28 C :   -0.025326
  29 H :    0.006440
  30 H :    0.025647
  31 H :    0.036177
  32 H :    0.059538
  33 H :    0.055028
Sum of atomic charges:   -0.0000000

LOEWDIN ATOMIC CHARGES
----------------------
   0 S :    0.427388
   1 C :   -0.210649
   2 C :   -0.072095
   3 C :   -0.070890
   4 C :   -0.201321
   5 H :    0.041606
   6 C :   -0.034619
   7 H :    0.037891
   8 H :    0.029337
   9 C :   -0.037874
  10 H :    0.012093
  11 H :    0.027146
  12 C :   -0.059839
  13 H :    0.023600
  14 H :    0.028780
  15 H :    0.026124
  16 S :    0.423429
  17 C :   -0.188315
  18 C :   -0.081314
  19 C :   -0.053414
  20 C :   -0.202621
  21 H :    0.043037
  22 C :   -0.029999
  23 H :    0.035213
  24 H :    0.016814
  25 C :   -0.039703
  26 H :    0.024818
  27 H :    0.019344
  28 C :   -0.062540
  29 H :    0.013717
  30 H :    0.026559
  31 H :    0.031167
  32 H :    0.028896
  33 H :    0.028232

  Mayer bond orders larger than 0.100000
B(  0-S ,  1-C ) :   1.1697 B(  0-S ,  4-C ) :   1.1620 B(  1-C ,  2-C ) :   1.5563
B(  1-C ,  4-C ) :   0.1013 B(  1-C , 32-H ) :   0.9670 B(  2-C ,  3-C ) :   1.2806
B(  2-C ,  6-C ) :   1.0211 B(  3-C ,  4-C ) :   1.5620 B(  3-C ,  5-H ) :   0.9755
B(  4-C , 20-C ) :   1.0459 B(  6-C ,  7-H ) :   0.9244 B(  6-C ,  8-H ) :   0.9437
B(  6-C ,  9-C ) :   1.0818 B(  9-C , 10-H ) :   0.9532 B(  9-C , 11-H ) :   0.9524
B(  9-C , 12-C ) :   1.0733 B( 12-C , 13-H ) :   0.9774 B( 12-C , 14-H ) :   0.9737
B( 12-C , 15-H ) :   0.9775 B( 16-S , 17-C ) :   1.1786 B( 16-S , 20-C ) :   1.1551
B( 17-C , 18-C ) :   1.5702 B( 17-C , 20-C ) :   0.1154 B( 17-C , 33-H ) :   0.9639
B( 18-C , 19-C ) :   1.2995 B( 18-C , 21-H ) :   0.9850 B( 19-C , 20-C ) :   1.5528
B( 19-C , 22-C ) :   1.0154 B( 22-C , 23-H ) :   0.9470 B( 22-C , 24-H ) :   0.9432
B( 22-C , 25-C ) :   1.0588 B( 25-C , 26-H ) :   0.9478 B( 25-C , 27-H ) :   0.9546
B( 25-C , 28-C ) :   1.0844 B( 28-C , 29-H ) :   0.9714 B( 28-C , 30-H ) :   0.9713
B( 28-C , 31-H ) :   0.9727

Dispersion correction           -0.014228232
FINAL SINGLE POINT ENERGY     -1339.874817182114

DIPOLE MOMENT
-------------
                                X             Y             Z
Electronic contribution:      4.70960      24.04959     -19.47072
Nuclear contribution   :     -4.87633     -24.46912      19.92185
                        -----------------------------------------
Total Dipole Moment    :     -0.16673      -0.41954       0.45113
                        -----------------------------------------
Magnitude (a.u.)       :      0.63822
Magnitude (Debye)      :      1.62223

Rotational constants in cm-1:     0.017592     0.009483     0.006571
Rotational constants in MHz :   527.391350   284.304738   196.992578

                             ****ORCA TERMINATED NORMALLY****
TOTAL RUN TIME: 0 days 0 hours 0 minutes 21 seconds 947 msec
