                         Program Version 4.2.1 -  RELEASE  -
|  1> ! wB97X-D3 SP def2-SVP
|  2> %pal
|  3> nprocs 24
|  4> end
|  5>
|  6> * xyz 0 1
|  7> S 	 -67.9502 	 10.6303 	 -72.275
|  8> C 	 -69.7813 	 10.4107 	 -72.2868
|  9> C 	 -70.1178 	 9.36243 	 -71.4983
| 10> C 	 -68.9774 	 8.69317 	 -70.8725
| 11> C 	 -67.7549 	 9.33722 	 -71.1103
| 12> H 	 -68.9803 	 7.81513 	 -70.3724
| 13> C 	 -71.5585 	 8.82574 	 -71.2994
| 14> H 	 -72.1699 	 9.68122 	 -71.1749
| 15> H 	 -71.6024 	 8.39132 	 -70.3196
| 16> C 	 -72.071 	 7.94832 	 -72.3403
| 17> H 	 -71.4738 	 7.09112 	 -72.094
| 18> H 	 -73.066 	 7.61283 	 -72.011
| 19> C 	 -72.1468 	 8.40241 	 -73.7837
| 20> H 	 -71.2083 	 8.7296 	 -74.234
| 21> H 	 -72.5378 	 7.64983 	 -74.4573
| 22> H 	 -72.82 	 9.20611 	 -73.922
| 23> S 	 -65.1967 	 10.2299 	 -70.3733
| 24> C 	 -64.1718 	 9.16795 	 -69.4252
| 25> C 	 -64.7066 	 7.89708 	 -69.4701
| 26> C 	 -66.0504 	 7.80834 	 -69.8999
| 27> C 	 -66.4572 	 8.98754 	 -70.5452
| 28> H 	 -64.1196 	 7.07082 	 -69.0607
| 29> C 	 -66.7976 	 6.51301 	 -69.7376
| 30> H 	 -67.7059 	 6.72212 	 -69.1422
| 31> H 	 -66.31 	 5.97347 	 -68.8376
| 32> C 	 -66.873 	 5.54319 	 -70.9001
| 33> H 	 -65.7995 	 5.27807 	 -71.1755
| 34> H 	 -67.2092 	 6.02373 	 -71.7309
| 35> C 	 -67.6131 	 4.26505 	 -70.4705
| 36> H 	 -68.7024 	 4.42857 	 -70.2241
| 37> H 	 -67.1046 	 3.8131 	 -69.5793
| 38> H 	 -67.6375 	 3.53555 	 -71.277
| 39> H 	 -70.5144 	 11.0135 	 -72.7586
| 40> H 	 -63.1385 	 9.34829 	 -69.1607
| 41> *
| 42>
| 43>                          ****END OF INPUT****

CARTESIAN COORDINATES (ANGSTROEM)
---------------------------------
  S    -67.950200   10.630300  -72.275000
  C    -69.781300   10.410700  -72.286800
  C    -70.117800    9.362430  -71.498300
  C    -68.977400    8.693170  -70.872500
  C    -67.754900    9.337220  -71.110300
  H    -68.980300    7.815130  -70.372400
  C    -71.558500    8.825740  -71.299400
  H    -72.169900    9.681220  -71.174900
  H    -71.602400    8.391320  -70.319600
  C    -72.071000    7.948320  -72.340300
  H    -71.473800    7.091120  -72.094000
  H    -73.066000    7.612830  -72.011000
  C    -72.146800    8.402410  -73.783700
  H    -71.208300    8.729600  -74.234000
  H    -72.537800    7.649830  -74.457300
  H    -72.820000    9.206110  -73.922000
  S    -65.196700   10.229900  -70.373300
  C    -64.171800    9.167950  -69.425200
  C    -64.706600    7.897080  -69.470100
  C    -66.050400    7.808340  -69.899900
  C    -66.457200    8.987540  -70.545200
  H    -64.119600    7.070820  -69.060700
  C    -66.797600    6.513010  -69.737600
  H    -67.705900    6.722120  -69.142200
  H    -66.310000    5.973470  -68.837600
  C    -66.873000    5.543190  -70.900100
  H    -65.799500    5.278070  -71.175500
  H    -67.209200    6.023730  -71.730900
  C    -67.613100    4.265050  -70.470500
  H    -68.702400    4.428570  -70.224100
  H    -67.104600    3.813100  -69.579300
  H    -67.637500    3.535550  -71.277000
  H    -70.514400   11.013500  -72.758600
  H    -63.138500    9.348290  -69.160700

 Total Charge           Charge          ....    0
 Multiplicity           Mult            ....    1
 Number of Electrons    NEL             ....  134
 Basis Dimension        Dim             ....  322

ORBITAL ENERGIES
----------------

  NO   OCC          E(Eh)            E(eV)
   0   2.0000     -88.967612     -2420.9318
   1   2.0000     -88.965479     -2420.8738
   2   2.0000     -10.335592      -281.2457
   3   2.0000     -10.334679      -281.2209
   4   2.0000     -10.318233      -280.7734
   5   2.0000     -10.315114      -280.6885
   6   2.0000     -10.305022      -280.4139
   7   2.0000     -10.302238      -280.3382
   8   2.0000     -10.299966      -280.2763
   9   2.0000     -10.294049      -280.1153
  10   2.0000     -10.290095      -280.0077
  11   2.0000     -10.289536      -279.9925
  12   2.0000     -10.288819      -279.9730
  13   2.0000     -10.284011      -279.8422
  14   2.0000     -10.281770      -279.7812
  15   2.0000     -10.274834      -279.5924
  16   2.0000      -8.081720      -219.9148
  17   2.0000      -8.078798      -219.8353
  18   2.0000      -6.040341      -164.3660
  19   2.0000      -6.037639      -164.2925
  20   2.0000      -6.036261      -164.2550
  21   2.0000      -6.033619      -164.1831
  22   2.0000      -6.032441      -164.1511
  23   2.0000      -6.029178      -164.0623
  24   2.0000      -1.002834       -27.2885
  25   2.0000      -0.977513       -26.5995
  26   2.0000      -0.922129       -25.0924
  27   2.0000      -0.913799       -24.8657
  28   2.0000      -0.869781       -23.6679
  29   2.0000      -0.853956       -23.2373
  30   2.0000      -0.838603       -22.8195
  31   2.0000      -0.812955       -22.1216
  32   2.0000      -0.794848       -21.6289
  33   2.0000      -0.776666       -21.1342
  34   2.0000      -0.716436       -19.4952
  35   2.0000      -0.704696       -19.1758
  36   2.0000      -0.699842       -19.0437
  37   2.0000      -0.662083       -18.0162
  38   2.0000      -0.638898       -17.3853
  39   2.0000      -0.620365       -16.8810
  40   2.0000      -0.598406       -16.2834
  41   2.0000      -0.571855       -15.5610
  42   2.0000      -0.564510       -15.3611
  43   2.0000      -0.556565       -15.1449
  44   2.0000      -0.544075       -14.8050
  45   2.0000      -0.529097       -14.3975
  46   2.0000      -0.514931       -14.0120
  47   2.0000      -0.513279       -13.9670
  48   2.0000      -0.505851       -13.7649
  49   2.0000      -0.499591       -13.5946
  50   2.0000      -0.495267       -13.4769
  51   2.0000      -0.486057       -13.2263
  52   2.0000      -0.470367       -12.7993
  53   2.0000      -0.464154       -12.6303
  54   2.0000      -0.457456       -12.4480
  55   2.0000      -0.454040       -12.3550
  56   2.0000      -0.448885       -12.2148
  57   2.0000      -0.444465       -12.0945
  58   2.0000      -0.438110       -11.9216
  59   2.0000      -0.423989       -11.5373
  60   2.0000      -0.414228       -11.2717
  61   2.0000      -0.407626       -11.0921
  62   2.0000      -0.402215       -10.9448
  63   2.0000      -0.359526        -9.7832
  64   2.0000      -0.333730        -9.0813
  65   2.0000      -0.328163        -8.9298
  66   2.0000      -0.284317        -7.7367
  67   0.0000       0.015324         0.4170
  68   0.0000       0.077562         2.1106
  69   0.0000       0.102025         2.7763
  70   0.0000       0.118448         3.2231
  71   0.0000       0.124836         3.3970

MULLIKEN ATOMIC CHARGES
-----------------------
   0 S :    0.082405
   1 C :   -0.107286
   2 C :   -0.097792
   3 C :    0.050026
   4 C :   -0.113239
   5 H :   -0.059988
   6 C :    0.089070
   7 H :    0.002673
   8 H :    0.013401
   9 C :   -0.019410
  10 H :    0.007429
  11 H :    0.021279
  12 C :   -0.021057
  13 H :    0.039629
  14 H :    0.030093
  15 H :    0.013383
  16 S :    0.098993
  17 C :   -0.087378
  18 C :   -0.036164
  19 C :   -0.063292
  20 C :   -0.094337
  21 H :    0.023991
  22 C :   -0.032897
  23 H :    0.039191
  24 H :    0.013640
  25 C :    0.016903
  26 H :    0.031824
  27 H :    0.011645
  28 C :   -0.063399
  29 H :    0.037628
  30 H :    0.040404
  31 H :    0.036819
  32 H :    0.032318
  33 H :    0.063497
Sum of atomic charges:   -0.0000000

LOEWDIN ATOMIC CHARGES
----------------------
   0 S :    0.359178
   1 C :   -0.167247
   2 C :   -0.049464
   3 C :   -0.059907
   4 C :   -0.174545
   5 H :    0.004913
   6 C :   -0.027578
   7 H :    0.019674
   8 H :    0.030782
   9 C :   -0.044260
  10 H :    0.023987
  11 H :    0.029312
  12 C :   -0.063403
  13 H :    0.028382
  14 H :    0.031212
  15 H :    0.020600
  16 S :    0.395667
  17 C :   -0.188438
  18 C :   -0.068326
  19 C :   -0.060224
  20 C :   -0.185098
  21 H :    0.032677
  22 C :   -0.050637
  23 H :    0.032888
  24 H :    0.037538
  25 C :   -0.031683
  26 H :    0.036807
  27 H :    0.011312
  28 C :   -0.067292
  29 H :    0.029538
  30 H :    0.031441
  31 H :    0.025312
  32 H :    0.024219
  33 H :    0.032663

  Mayer bond orders larger than 0.100000
B(  0-S ,  1-C ) :   1.0865 B(  0-S ,  4-C ) :   1.1325 B(  1-C ,  2-C ) :   1.6767
B(  1-C , 32-H ) :   0.9689 B(  2-C ,  3-C ) :   1.1981 B(  2-C ,  6-C ) :   1.0092
B(  3-C ,  4-C ) :   1.5803 B(  3-C ,  5-H ) :   1.0010 B(  4-C , 20-C ) :   1.0838
B(  6-C ,  7-H ) :   0.9311 B(  6-C ,  8-H ) :   0.9369 B(  6-C ,  9-C ) :   1.0850
B(  9-C , 10-H ) :   0.9493 B(  9-C , 11-H ) :   0.9440 B(  9-C , 12-C ) :   1.0794
B( 12-C , 13-H ) :   0.9709 B( 12-C , 14-H ) :   0.9694 B( 12-C , 15-H ) :   0.9700
B( 16-S , 17-C ) :   1.1497 B( 16-S , 20-C ) :   1.1339 B( 17-C , 18-C ) :   1.6053
B( 17-C , 20-C ) :   0.1033 B( 17-C , 33-H ) :   0.9631 B( 18-C , 19-C ) :   1.2754
B( 18-C , 21-H ) :   0.9794 B( 19-C , 20-C ) :   1.5607 B( 19-C , 22-C ) :   1.0432
B( 22-C , 23-H ) :   0.9245 B( 22-C , 24-H ) :   0.9246 B( 22-C , 25-C ) :   1.0496
B( 25-C , 26-H ) :   0.9472 B( 25-C , 27-H ) :   0.9567 B( 25-C , 28-C ) :   1.0716
B( 28-C , 29-H ) :   0.9754 B( 28-C , 30-H ) :   0.9739 B( 28-C , 31-H ) :   0.9742

Dispersion correction           -0.014411735
FINAL SINGLE POINT ENERGY     -1339.855669677583

DIPOLE MOMENT
-------------
                                X             Y             Z
Electronic contribution:     19.15685      23.51943       2.11199
Nuclear contribution   :    -19.50072     -24.27242      -1.94929
                        -----------------------------------------
Total Dipole Moment    :     -0.34387      -0.75299       0.16270
                        -----------------------------------------
Magnitude (a.u.)       :      0.84363
Magnitude (Debye)      :      2.14434

Rotational constants in cm-1:     0.018523     0.009203     0.006566
Rotational constants in MHz :   555.307350   275.884810   196.854704

                             ****ORCA TERMINATED NORMALLY****
TOTAL RUN TIME: 0 days 0 hours 0 minutes 21 seconds 883 msec
