                         Program Version 4.2.1 -  RELEASE  -
|  1> ! wB97X-D3 SP def2-SVP
|  2> %pal
|  3> nprocs 24
|  4> end
|  5>
|  6> * xyz 0 1
|  7> S 	 -66.1418 	 -46.3693 	 -91.3609
|  8> C 	 -65.3937 	 -46.6734 	 -92.9
|  9> C 	 -64.2662 	 -47.4864 	 -92.8076
| 10> C 	 -64.1226 	 -47.9773 	 -91.4389
| 11> C 	 -65.0362 	 -47.4372 	 -90.5912
| 12> H 	 -63.3592 	 -48.6633 	 -91.159
| 13> C 	 -63.2673 	 -48.0156 	 -93.7955
| 14> H 	 -63.6606 	 -47.6206 	 -94.7596
| 15> H 	 -63.3106 	 -49.1486 	 -93.7591
| 16> C 	 -61.8465 	 -47.4535 	 -93.6844
| 17> H 	 -61.8842 	 -46.4177 	 -93.3964
| 18> H 	 -61.3711 	 -47.9368 	 -92.8386
| 19> C 	 -61.1059 	 -47.5743 	 -95.0505
| 20> H 	 -60.9859 	 -48.6677 	 -95.2509
| 21> H 	 -61.6352 	 -47.0783 	 -95.8831
| 22> H 	 -60.0988 	 -47.1002 	 -95.127
| 23> S 	 -65.1896 	 -45.9853 	 -88.2491
| 24> C 	 -65.0981 	 -46.8548 	 -86.8027
| 25> C 	 -65.0777 	 -48.2297 	 -86.8942
| 26> C 	 -65.1491 	 -48.6706 	 -88.2635
| 27> C 	 -65.091 	 -47.5547 	 -89.1461
| 28> H 	 -65.035 	 -48.7925 	 -85.9411
| 29> C 	 -65.0112 	 -50.167 	 -88.6876
| 30> H 	 -64.5527 	 -50.7354 	 -87.8978
| 31> H 	 -64.2804 	 -50.2773 	 -89.6158
| 32> C 	 -66.4202 	 -50.805 	 -88.9297
| 33> H 	 -66.3583 	 -51.9008 	 -89.1181
| 34> H 	 -66.8318 	 -50.3651 	 -89.8506
| 35> C 	 -67.4065 	 -50.671 	 -87.7903
| 36> H 	 -68.2543 	 -51.3161 	 -88.0049
| 37> H 	 -67.8862 	 -49.7157 	 -87.5959
| 38> H 	 -66.981 	 -50.9478 	 -86.8248
| 39> H 	 -65.791 	 -46.1351 	 -93.7285
| 40> H 	 -65.0524 	 -46.3024 	 -85.8937
| 41> *
| 42>
| 43>                          ****END OF INPUT****

CARTESIAN COORDINATES (ANGSTROEM)
---------------------------------
  S    -66.141800  -46.369300  -91.360900
  C    -65.393700  -46.673400  -92.900000
  C    -64.266200  -47.486400  -92.807600
  C    -64.122600  -47.977300  -91.438900
  C    -65.036200  -47.437200  -90.591200
  H    -63.359200  -48.663300  -91.159000
  C    -63.267300  -48.015600  -93.795500
  H    -63.660600  -47.620600  -94.759600
  H    -63.310600  -49.148600  -93.759100
  C    -61.846500  -47.453500  -93.684400
  H    -61.884200  -46.417700  -93.396400
  H    -61.371100  -47.936800  -92.838600
  C    -61.105900  -47.574300  -95.050500
  H    -60.985900  -48.667700  -95.250900
  H    -61.635200  -47.078300  -95.883100
  H    -60.098800  -47.100200  -95.127000
  S    -65.189600  -45.985300  -88.249100
  C    -65.098100  -46.854800  -86.802700
  C    -65.077700  -48.229700  -86.894200
  C    -65.149100  -48.670600  -88.263500
  C    -65.091000  -47.554700  -89.146100
  H    -65.035000  -48.792500  -85.941100
  C    -65.011200  -50.167000  -88.687600
  H    -64.552700  -50.735400  -87.897800
  H    -64.280400  -50.277300  -89.615800
  C    -66.420200  -50.805000  -88.929700
  H    -66.358300  -51.900800  -89.118100
  H    -66.831800  -50.365100  -89.850600
  C    -67.406500  -50.671000  -87.790300
  H    -68.254300  -51.316100  -88.004900
  H    -67.886200  -49.715700  -87.595900
  H    -66.981000  -50.947800  -86.824800
  H    -65.791000  -46.135100  -93.728500
  H    -65.052400  -46.302400  -85.893700

 Total Charge           Charge          ....    0
 Multiplicity           Mult            ....    1
 Number of Electrons    NEL             ....  134
 Basis Dimension        Dim             ....  322

ORBITAL ENERGIES
----------------

  NO   OCC          E(Eh)            E(eV)
   0   2.0000     -88.965332     -2420.8698
   1   2.0000     -88.963086     -2420.8086
   2   2.0000     -10.329280      -281.0740
   3   2.0000     -10.321810      -280.8707
   4   2.0000     -10.313261      -280.6381
   5   2.0000     -10.312807      -280.6257
   6   2.0000     -10.309005      -280.5223
   7   2.0000     -10.305367      -280.4233
   8   2.0000     -10.303232      -280.3652
   9   2.0000     -10.298070      -280.2247
  10   2.0000     -10.296385      -280.1789
  11   2.0000     -10.288225      -279.9568
  12   2.0000     -10.288209      -279.9564
  13   2.0000     -10.287903      -279.9481
  14   2.0000     -10.287287      -279.9313
  15   2.0000     -10.271581      -279.5039
  16   2.0000      -8.080596      -219.8842
  17   2.0000      -8.079007      -219.8409
  18   2.0000      -6.038855      -164.3256
  19   2.0000      -6.037436      -164.2870
  20   2.0000      -6.035191      -164.2259
  21   2.0000      -6.033439      -164.1782
  22   2.0000      -6.031423      -164.1234
  23   2.0000      -6.029703      -164.0766
  24   2.0000      -1.006703       -27.3938
  25   2.0000      -0.981935       -26.7198
  26   2.0000      -0.912516       -24.8308
  27   2.0000      -0.902106       -24.5476
  28   2.0000      -0.865890       -23.5621
  29   2.0000      -0.851289       -23.1648
  30   2.0000      -0.844423       -22.9779
  31   2.0000      -0.807873       -21.9833
  32   2.0000      -0.782244       -21.2859
  33   2.0000      -0.768321       -20.9071
  34   2.0000      -0.707630       -19.2556
  35   2.0000      -0.699439       -19.0327
  36   2.0000      -0.683978       -18.6120
  37   2.0000      -0.658830       -17.9277
  38   2.0000      -0.643196       -17.5022
  39   2.0000      -0.622268       -16.9328
  40   2.0000      -0.589692       -16.0463
  41   2.0000      -0.571068       -15.5396
  42   2.0000      -0.556043       -15.1307
  43   2.0000      -0.547379       -14.8949
  44   2.0000      -0.538794       -14.6613
  45   2.0000      -0.522761       -14.2250
  46   2.0000      -0.515666       -14.0320
  47   2.0000      -0.503727       -13.7071
  48   2.0000      -0.501292       -13.6409
  49   2.0000      -0.490056       -13.3351
  50   2.0000      -0.484349       -13.1798
  51   2.0000      -0.481240       -13.0952
  52   2.0000      -0.475227       -12.9316
  53   2.0000      -0.465509       -12.6671
  54   2.0000      -0.455189       -12.3863
  55   2.0000      -0.452100       -12.3023
  56   2.0000      -0.439985       -11.9726
  57   2.0000      -0.435646       -11.8545
  58   2.0000      -0.433081       -11.7847
  59   2.0000      -0.423021       -11.5110
  60   2.0000      -0.421124       -11.4594
  61   2.0000      -0.415324       -11.3016
  62   2.0000      -0.412293       -11.2191
  63   2.0000      -0.346140        -9.4190
  64   2.0000      -0.333988        -9.0883
  65   2.0000      -0.326986        -8.8978
  66   2.0000      -0.287251        -7.8165
  67   0.0000       0.034573         0.9408
  68   0.0000       0.067307         1.8315
  69   0.0000       0.108563         2.9541
  70   0.0000       0.115585         3.1452
  71   0.0000       0.133117         3.6223

MULLIKEN ATOMIC CHARGES
-----------------------
   0 S :    0.103604
   1 C :   -0.131995
   2 C :   -0.069909
   3 C :    0.012168
   4 C :   -0.117999
   5 H :    0.002952
   6 C :    0.029351
   7 H :    0.014435
   8 H :    0.055013
   9 C :   -0.042784
  10 H :    0.029482
  11 H :    0.028691
  12 C :   -0.081402
  13 H :    0.039537
  14 H :    0.038527
  15 H :    0.041497
  16 S :    0.106943
  17 C :   -0.083970
  18 C :   -0.046585
  19 C :   -0.007981
  20 C :   -0.176079
  21 H :    0.033431
  22 C :    0.034204
  23 H :    0.021173
  24 H :    0.052316
  25 C :   -0.076401
  26 H :    0.034150
  27 H :    0.038793
  28 C :   -0.049426
  29 H :    0.029160
  30 H :    0.037937
  31 H :    0.018162
  32 H :    0.038531
  33 H :    0.044472
Sum of atomic charges:    0.0000000

LOEWDIN ATOMIC CHARGES
----------------------
   0 S :    0.415540
   1 C :   -0.198727
   2 C :   -0.057689
   3 C :   -0.060970
   4 C :   -0.202846
   5 H :    0.024077
   6 C :   -0.038512
   7 H :    0.030778
   8 H :    0.041051
   9 C :   -0.039404
  10 H :    0.025012
  11 H :    0.022412
  12 C :   -0.072899
  13 H :    0.029642
  14 H :    0.027460
  15 H :    0.029810
  16 S :    0.405012
  17 C :   -0.196051
  18 C :   -0.080323
  19 C :   -0.047434
  20 C :   -0.182651
  21 H :    0.039674
  22 C :   -0.034383
  23 H :    0.023759
  24 H :    0.043309
  25 C :   -0.043516
  26 H :    0.027574
  27 H :    0.027696
  28 C :   -0.071100
  29 H :    0.028866
  30 H :    0.026217
  31 H :    0.021187
  32 H :    0.018060
  33 H :    0.019367

  Mayer bond orders larger than 0.100000
B(  0-S ,  1-C ) :   1.1330 B(  0-S ,  4-C ) :   1.1523 B(  1-C ,  2-C ) :   1.6135
B(  1-C , 32-H ) :   0.9772 B(  2-C ,  3-C ) :   1.2073 B(  2-C ,  6-C ) :   1.0319
B(  3-C ,  4-C ) :   1.5994 B(  3-C ,  5-H ) :   0.9996 B(  4-C , 20-C ) :   1.0351
B(  6-C ,  7-H ) :   0.9415 B(  6-C ,  8-H ) :   0.9383 B(  6-C ,  9-C ) :   1.0519
B(  9-C , 10-H ) :   0.9562 B(  9-C , 11-H ) :   0.9531 B(  9-C , 12-C ) :   1.0771
B( 12-C , 13-H ) :   0.9760 B( 12-C , 14-H ) :   0.9754 B( 12-C , 15-H ) :   0.9761
B( 16-S , 17-C ) :   1.1696 B( 16-S , 20-C ) :   1.1391 B( 17-C , 18-C ) :   1.6203
B( 17-C , 20-C ) :   0.1007 B( 17-C , 33-H ) :   0.9669 B( 18-C , 19-C ) :   1.2176
B( 18-C , 21-H ) :   0.9864 B( 19-C , 20-C ) :   1.5933 B( 19-C , 22-C ) :   1.0216
B( 22-C , 23-H ) :   0.9413 B( 22-C , 24-H ) :   0.9491 B( 22-C , 25-C ) :   1.0582
B( 25-C , 26-H ) :   0.9591 B( 25-C , 27-H ) :   0.9569 B( 25-C , 28-C ) :   1.0793
B( 28-C , 29-H ) :   0.9722 B( 28-C , 30-H ) :   0.9704 B( 28-C , 31-H ) :   0.9742

Dispersion correction           -0.014180946
FINAL SINGLE POINT ENERGY     -1339.880281411631

DIPOLE MOMENT
-------------
                                X             Y             Z
Electronic contribution:     -9.02215      17.87682       9.80300
Nuclear contribution   :      9.32937     -18.23994      -9.86530
                        -----------------------------------------
Total Dipole Moment    :      0.30722      -0.36312      -0.06230
                        -----------------------------------------
Magnitude (a.u.)       :      0.47971
Magnitude (Debye)      :      1.21932

Rotational constants in cm-1:     0.020862     0.007548     0.006815
Rotational constants in MHz :   625.417716   226.296610   204.296184

                             ****ORCA TERMINATED NORMALLY****
TOTAL RUN TIME: 0 days 0 hours 0 minutes 21 seconds 207 msec
