                         Program Version 4.2.1 -  RELEASE  -
|  1> ! wB97X-D3 SP def2-SVP
|  2> %pal
|  3> nprocs 24
|  4> end
|  5>
|  6> * xyz 0 1
|  7> S 	 -104.742 	 58.6123 	 -99.5033
|  8> C 	 -105.909 	 58.1863 	 -100.735
|  9> C 	 -105.347 	 57.4006 	 -101.72
| 10> C 	 -103.961 	 57.2042 	 -101.529
| 11> C 	 -103.439 	 57.8934 	 -100.476
| 12> H 	 -103.29 	 56.6186 	 -102.128
| 13> C 	 -106.075 	 56.8766 	 -102.827
| 14> H 	 -107.133 	 56.6995 	 -102.624
| 15> H 	 -105.761 	 55.8449 	 -102.864
| 16> C 	 -105.849 	 57.6309 	 -104.195
| 17> H 	 -104.787 	 57.5159 	 -104.447
| 18> H 	 -106.448 	 57.1332 	 -104.978
| 19> C 	 -106.144 	 59.0844 	 -104.176
| 20> H 	 -107.086 	 59.3354 	 -103.611
| 21> H 	 -105.307 	 59.5817 	 -103.67
| 22> H 	 -106.216 	 59.5201 	 -105.235
| 23> S 	 -101.849 	 57.511 	 -98.2665
| 24> C 	 -100.132 	 57.6206 	 -98.4338
| 25> C 	 -99.7418 	 57.7375 	 -99.7349
| 26> C 	 -100.82 	 57.8695 	 -100.674
| 27> C 	 -102.036 	 57.748 	 -100.003
| 28> H 	 -98.7382 	 57.6757 	 -100.06
| 29> C 	 -100.55 	 58.0961 	 -102.117
| 30> H 	 -99.9691 	 58.9643 	 -102.158
| 31> H 	 -101.5 	 58.3458 	 -102.554
| 32> C 	 -100.034 	 56.8282 	 -102.964
| 33> H 	 -100.759 	 56.0593 	 -102.899
| 34> H 	 -99.1169 	 56.4292 	 -102.562
| 35> C 	 -99.7388 	 57.1701 	 -104.398
| 36> H 	 -99.4829 	 56.2059 	 -104.908
| 37> H 	 -98.8423 	 57.7794 	 -104.576
| 38> H 	 -100.594 	 57.6306 	 -104.885
| 39> H 	 -106.981 	 58.3803 	 -100.667
| 40> H 	 -99.3929 	 57.4958 	 -97.6804
| 41> *
| 42>
| 43>                          ****END OF INPUT****

CARTESIAN COORDINATES (ANGSTROEM)
---------------------------------
  S    -104.742000   58.612300  -99.503300
  C    -105.909000   58.186300  -100.735000
  C    -105.347000   57.400600  -101.720000
  C    -103.961000   57.204200  -101.529000
  C    -103.439000   57.893400  -100.476000
  H    -103.290000   56.618600  -102.128000
  C    -106.075000   56.876600  -102.827000
  H    -107.133000   56.699500  -102.624000
  H    -105.761000   55.844900  -102.864000
  C    -105.849000   57.630900  -104.195000
  H    -104.787000   57.515900  -104.447000
  H    -106.448000   57.133200  -104.978000
  C    -106.144000   59.084400  -104.176000
  H    -107.086000   59.335400  -103.611000
  H    -105.307000   59.581700  -103.670000
  H    -106.216000   59.520100  -105.235000
  S    -101.849000   57.511000  -98.266500
  C    -100.132000   57.620600  -98.433800
  C    -99.741800   57.737500  -99.734900
  C    -100.820000   57.869500  -100.674000
  C    -102.036000   57.748000  -100.003000
  H    -98.738200   57.675700  -100.060000
  C    -100.550000   58.096100  -102.117000
  H    -99.969100   58.964300  -102.158000
  H    -101.500000   58.345800  -102.554000
  C    -100.034000   56.828200  -102.964000
  H    -100.759000   56.059300  -102.899000
  H    -99.116900   56.429200  -102.562000
  C    -99.738800   57.170100  -104.398000
  H    -99.482900   56.205900  -104.908000
  H    -98.842300   57.779400  -104.576000
  H    -100.594000   57.630600  -104.885000
  H    -106.981000   58.380300  -100.667000
  H    -99.392900   57.495800  -97.680400

 Total Charge           Charge          ....    0
 Multiplicity           Mult            ....    1
 Number of Electrons    NEL             ....  134
 Basis Dimension        Dim             ....  322

ORBITAL ENERGIES
----------------

  NO   OCC          E(Eh)            E(eV)
   0   2.0000     -88.965832     -2420.8834
   1   2.0000     -88.965644     -2420.8782
   2   2.0000     -10.329209      -281.0721
   3   2.0000     -10.328314      -281.0477
   4   2.0000     -10.312215      -280.6096
   5   2.0000     -10.310414      -280.5606
   6   2.0000     -10.300145      -280.2812
   7   2.0000     -10.292822      -280.0819
   8   2.0000     -10.290531      -280.0196
   9   2.0000     -10.289111      -279.9809
  10   2.0000     -10.288858      -279.9741
  11   2.0000     -10.288441      -279.9627
  12   2.0000     -10.285756      -279.8897
  13   2.0000     -10.285050      -279.8704
  14   2.0000     -10.282267      -279.7947
  15   2.0000     -10.281653      -279.7780
  16   2.0000      -8.080711      -219.8873
  17   2.0000      -8.079935      -219.8662
  18   2.0000      -6.039245      -164.3362
  19   2.0000      -6.038528      -164.3167
  20   2.0000      -6.035312      -164.2292
  21   2.0000      -6.034609      -164.2100
  22   2.0000      -6.031329      -164.1208
  23   2.0000      -6.030529      -164.0990
  24   2.0000      -1.006806       -27.3966
  25   2.0000      -0.986820       -26.8527
  26   2.0000      -0.916671       -24.9439
  27   2.0000      -0.910051       -24.7637
  28   2.0000      -0.867193       -23.5975
  29   2.0000      -0.859843       -23.3975
  30   2.0000      -0.850748       -23.1500
  31   2.0000      -0.818881       -22.2829
  32   2.0000      -0.783146       -21.3105
  33   2.0000      -0.770134       -20.9564
  34   2.0000      -0.708985       -19.2924
  35   2.0000      -0.699702       -19.0399
  36   2.0000      -0.692066       -18.8321
  37   2.0000      -0.663065       -18.0429
  38   2.0000      -0.641494       -17.4559
  39   2.0000      -0.622663       -16.9435
  40   2.0000      -0.596821       -16.2403
  41   2.0000      -0.571300       -15.5459
  42   2.0000      -0.568828       -15.4786
  43   2.0000      -0.547405       -14.8957
  44   2.0000      -0.543852       -14.7990
  45   2.0000      -0.527896       -14.3648
  46   2.0000      -0.520216       -14.1558
  47   2.0000      -0.511550       -13.9200
  48   2.0000      -0.509514       -13.8646
  49   2.0000      -0.496339       -13.5061
  50   2.0000      -0.492296       -13.3960
  51   2.0000      -0.476430       -12.9643
  52   2.0000      -0.474248       -12.9049
  53   2.0000      -0.462738       -12.5917
  54   2.0000      -0.459080       -12.4922
  55   2.0000      -0.458725       -12.4825
  56   2.0000      -0.444628       -12.0989
  57   2.0000      -0.437908       -11.9161
  58   2.0000      -0.433034       -11.7834
  59   2.0000      -0.425365       -11.5748
  60   2.0000      -0.422660       -11.5012
  61   2.0000      -0.419817       -11.4238
  62   2.0000      -0.411629       -11.2010
  63   2.0000      -0.351704        -9.5704
  64   2.0000      -0.330302        -8.9880
  65   2.0000      -0.328155        -8.9295
  66   2.0000      -0.289386        -7.8746
  67   0.0000       0.030034         0.8173
  68   0.0000       0.076124         2.0714
  69   0.0000       0.105532         2.8717
  70   0.0000       0.122627         3.3369
  71   0.0000       0.129781         3.5315

MULLIKEN ATOMIC CHARGES
-----------------------
   0 S :    0.100375
   1 C :   -0.121377
   2 C :   -0.073758
   3 C :    0.017309
   4 C :   -0.123100
   5 H :    0.000586
   6 C :    0.065544
   7 H :    0.014464
   8 H :    0.018682
   9 C :   -0.058699
  10 H :    0.024814
  11 H :    0.034150
  12 C :   -0.081959
  13 H :    0.036196
  14 H :    0.046027
  15 H :    0.047763
  16 S :    0.107801
  17 C :   -0.060815
  18 C :   -0.022058
  19 C :   -0.059580
  20 C :   -0.169068
  21 H :   -0.001493
  22 C :    0.093453
  23 H :    0.020967
  24 H :    0.005155
  25 C :   -0.045411
  26 H :    0.022629
  27 H :    0.021112
  28 C :   -0.055606
  29 H :    0.035713
  30 H :    0.036356
  31 H :    0.032255
  32 H :    0.050188
  33 H :    0.041382
Sum of atomic charges:    0.0000000

LOEWDIN ATOMIC CHARGES
----------------------
   0 S :    0.387717
   1 C :   -0.194412
   2 C :   -0.070841
   3 C :   -0.060684
   4 C :   -0.180936
   5 H :    0.028266
   6 C :   -0.040826
   7 H :    0.029977
   8 H :    0.035172
   9 C :   -0.039934
  10 H :    0.023802
  11 H :    0.024888
  12 C :   -0.076838
  13 H :    0.027358
  14 H :    0.029017
  15 H :    0.036502
  16 S :    0.404933
  17 C :   -0.186552
  18 C :   -0.064565
  19 C :   -0.056803
  20 C :   -0.188318
  21 H :    0.022987
  22 C :   -0.027235
  23 H :    0.027085
  24 H :    0.026480
  25 C :   -0.026759
  26 H :    0.019008
  27 H :    0.021152
  28 C :   -0.068286
  29 H :    0.033313
  30 H :    0.026919
  31 H :    0.022434
  32 H :    0.030884
  33 H :    0.025095

  Mayer bond orders larger than 0.100000
B(  0-S ,  1-C ) :   1.1269 B(  0-S ,  4-C ) :   1.1415 B(  1-C ,  2-C ) :   1.5978
B(  1-C , 32-H ) :   0.9669 B(  2-C ,  3-C ) :   1.2278 B(  2-C ,  6-C ) :   1.0524
B(  3-C ,  4-C ) :   1.5738 B(  3-C ,  5-H ) :   0.9996 B(  4-C , 20-C ) :   1.0317
B(  6-C ,  7-H ) :   0.9350 B(  6-C ,  8-H ) :   0.9263 B(  6-C ,  9-C ) :   1.0584
B(  9-C , 10-H ) :   0.9563 B(  9-C , 11-H ) :   0.9576 B(  9-C , 12-C ) :   1.0794
B( 12-C , 13-H ) :   0.9744 B( 12-C , 14-H ) :   0.9704 B( 12-C , 15-H ) :   0.9711
B( 16-S , 17-C ) :   1.1405 B( 16-S , 20-C ) :   1.1372 B( 17-C , 18-C ) :   1.6274
B( 17-C , 33-H ) :   0.9677 B( 18-C , 19-C ) :   1.2345 B( 18-C , 21-H ) :   0.9928
B( 19-C , 20-C ) :   1.6044 B( 19-C , 22-C ) :   1.0574 B( 22-C , 23-H ) :   0.9305
B( 22-C , 24-H ) :   0.9212 B( 22-C , 25-C ) :   1.0501 B( 25-C , 26-H ) :   0.9546
B( 25-C , 27-H ) :   0.9560 B( 25-C , 28-C ) :   1.0926 B( 28-C , 29-H ) :   0.9711
B( 28-C , 30-H ) :   0.9751 B( 28-C , 31-H ) :   0.9736

Dispersion correction           -0.014562683
FINAL SINGLE POINT ENERGY     -1339.884498200953

DIPOLE MOMENT
-------------
                                X             Y             Z
Electronic contribution:     -1.53982       2.12902      30.53965
Nuclear contribution   :      1.75513      -2.41823     -31.21433
                        -----------------------------------------
Total Dipole Moment    :      0.21531      -0.28921      -0.67468
                        -----------------------------------------
Magnitude (a.u.)       :      0.76498
Magnitude (Debye)      :      1.94443

Rotational constants in cm-1:     0.016734     0.010072     0.006719
Rotational constants in MHz :   501.672094   301.956401   201.424196

                             ****ORCA TERMINATED NORMALLY****
TOTAL RUN TIME: 0 days 0 hours 0 minutes 22 seconds 231 msec
