                         Program Version 4.2.1 -  RELEASE  -
|  1> ! wB97X-D3 SP def2-SVP
|  2> %pal
|  3> nprocs 24
|  4> end
|  5>
|  6> * xyz 0 1
|  7> S 	 -143.203 	 9.77236 	 -9.31283
|  8> C 	 -141.589 	 10.3539 	 -9.89264
|  9> C 	 -140.671 	 10.2296 	 -8.81571
| 10> C 	 -141.327 	 9.71092 	 -7.67943
| 11> C 	 -142.692 	 9.41272 	 -7.72262
| 12> H 	 -140.654 	 9.59908 	 -6.75357
| 13> C 	 -139.238 	 10.388 	 -8.86216
| 14> H 	 -139.055 	 10.3347 	 -7.84889
| 15> H 	 -138.897 	 11.3744 	 -9.07906
| 16> C 	 -138.516 	 9.27649 	 -9.56796
| 17> H 	 -139.004 	 8.35854 	 -9.20101
| 18> H 	 -138.772 	 9.29384 	 -10.6406
| 19> C 	 -136.978 	 9.46959 	 -9.27158
| 20> H 	 -136.448 	 8.55022 	 -9.60582
| 21> H 	 -136.55 	 10.3654 	 -9.69251
| 22> H 	 -136.925 	 9.49449 	 -8.19282
| 23> S 	 -143.392 	 7.38258 	 -6.18849
| 24> C 	 -144.817 	 7.29607 	 -5.26242
| 25> C 	 -145.582 	 8.42416 	 -5.40619
| 26> C 	 -144.85 	 9.49491 	 -6.15746
| 27> C 	 -143.681 	 8.96224 	 -6.70852
| 28> H 	 -146.634 	 8.57195 	 -4.9232
| 29> C 	 -145.437 	 10.8651 	 -6.41587
| 30> H 	 -146.455 	 10.9254 	 -5.91003
| 31> H 	 -145.652 	 11.0285 	 -7.50382
| 32> C 	 -144.475 	 12.0503 	 -6.01242
| 33> H 	 -143.5 	 11.9286 	 -6.54499
| 34> H 	 -144.27 	 11.8156 	 -4.93665
| 35> C 	 -145.167 	 13.4176 	 -6.06041
| 36> H 	 -144.434 	 14.1843 	 -5.99816
| 37> H 	 -145.967 	 13.5639 	 -5.31861
| 38> H 	 -145.687 	 13.4515 	 -7.08396
| 39> H 	 -141.354 	 10.7953 	 -10.8407
| 40> H 	 -145.002 	 6.44936 	 -4.66552
| 41> *
| 42>
| 43>                          ****END OF INPUT****

CARTESIAN COORDINATES (ANGSTROEM)
---------------------------------
  S    -143.203000    9.772360   -9.312830
  C    -141.589000   10.353900   -9.892640
  C    -140.671000   10.229600   -8.815710
  C    -141.327000    9.710920   -7.679430
  C    -142.692000    9.412720   -7.722620
  H    -140.654000    9.599080   -6.753570
  C    -139.238000   10.388000   -8.862160
  H    -139.055000   10.334700   -7.848890
  H    -138.897000   11.374400   -9.079060
  C    -138.516000    9.276490   -9.567960
  H    -139.004000    8.358540   -9.201010
  H    -138.772000    9.293840  -10.640600
  C    -136.978000    9.469590   -9.271580
  H    -136.448000    8.550220   -9.605820
  H    -136.550000   10.365400   -9.692510
  H    -136.925000    9.494490   -8.192820
  S    -143.392000    7.382580   -6.188490
  C    -144.817000    7.296070   -5.262420
  C    -145.582000    8.424160   -5.406190
  C    -144.850000    9.494910   -6.157460
  C    -143.681000    8.962240   -6.708520
  H    -146.634000    8.571950   -4.923200
  C    -145.437000   10.865100   -6.415870
  H    -146.455000   10.925400   -5.910030
  H    -145.652000   11.028500   -7.503820
  C    -144.475000   12.050300   -6.012420
  H    -143.500000   11.928600   -6.544990
  H    -144.270000   11.815600   -4.936650
  C    -145.167000   13.417600   -6.060410
  H    -144.434000   14.184300   -5.998160
  H    -145.967000   13.563900   -5.318610
  H    -145.687000   13.451500   -7.083960
  H    -141.354000   10.795300  -10.840700
  H    -145.002000    6.449360   -4.665520

 Total Charge           Charge          ....    0
 Multiplicity           Mult            ....    1
 Number of Electrons    NEL             ....  134
 Basis Dimension        Dim             ....  322

ORBITAL ENERGIES
----------------

  NO   OCC          E(Eh)            E(eV)
   0   2.0000     -88.967329     -2420.9241
   1   2.0000     -88.962083     -2420.7813
   2   2.0000     -10.334601      -281.2188
   3   2.0000     -10.327667      -281.0301
   4   2.0000     -10.320488      -280.8348
   5   2.0000     -10.312403      -280.6147
   6   2.0000     -10.312038      -280.6048
   7   2.0000     -10.308024      -280.4956
   8   2.0000     -10.299196      -280.2554
   9   2.0000     -10.298396      -280.2336
  10   2.0000     -10.297793      -280.2172
  11   2.0000     -10.290358      -280.0149
  12   2.0000     -10.288869      -279.9744
  13   2.0000     -10.284310      -279.8503
  14   2.0000     -10.281083      -279.7625
  15   2.0000     -10.274980      -279.5964
  16   2.0000      -8.081319      -219.9039
  17   2.0000      -8.079185      -219.8458
  18   2.0000      -6.039781      -164.3508
  19   2.0000      -6.037560      -164.2904
  20   2.0000      -6.035624      -164.2377
  21   2.0000      -6.033128      -164.1697
  22   2.0000      -6.032450      -164.1513
  23   2.0000      -6.030159      -164.0890
  24   2.0000      -1.012065       -27.5397
  25   2.0000      -0.988120       -26.8881
  26   2.0000      -0.927197       -25.2303
  27   2.0000      -0.900590       -24.5063
  28   2.0000      -0.867223       -23.5983
  29   2.0000      -0.847411       -23.0592
  30   2.0000      -0.843281       -22.9469
  31   2.0000      -0.809374       -22.0242
  32   2.0000      -0.782342       -21.2886
  33   2.0000      -0.769081       -20.9277
  34   2.0000      -0.713610       -19.4183
  35   2.0000      -0.701077       -19.0773
  36   2.0000      -0.684345       -18.6220
  37   2.0000      -0.663555       -18.0562
  38   2.0000      -0.637065       -17.3354
  39   2.0000      -0.621021       -16.8988
  40   2.0000      -0.594562       -16.1789
  41   2.0000      -0.571007       -15.5379
  42   2.0000      -0.562967       -15.3191
  43   2.0000      -0.554732       -15.0950
  44   2.0000      -0.527097       -14.3430
  45   2.0000      -0.524575       -14.2744
  46   2.0000      -0.521295       -14.1852
  47   2.0000      -0.514090       -13.9891
  48   2.0000      -0.502766       -13.6810
  49   2.0000      -0.496928       -13.5221
  50   2.0000      -0.489567       -13.3218
  51   2.0000      -0.485521       -13.2117
  52   2.0000      -0.464893       -12.6504
  53   2.0000      -0.460691       -12.5360
  54   2.0000      -0.453955       -12.3528
  55   2.0000      -0.451960       -12.2985
  56   2.0000      -0.450421       -12.2566
  57   2.0000      -0.437829       -11.9139
  58   2.0000      -0.428803       -11.6683
  59   2.0000      -0.425614       -11.5816
  60   2.0000      -0.422159       -11.4875
  61   2.0000      -0.408377       -11.1125
  62   2.0000      -0.404371       -11.0035
  63   2.0000      -0.337307        -9.1786
  64   2.0000      -0.331091        -9.0095
  65   2.0000      -0.322742        -8.7822
  66   2.0000      -0.303768        -8.2660
  67   0.0000       0.033044         0.8992
  68   0.0000       0.066563         1.8113
  69   0.0000       0.117192         3.1889
  70   0.0000       0.118035         3.2119
  71   0.0000       0.125041         3.4025

MULLIKEN ATOMIC CHARGES
-----------------------
   0 S :    0.112461
   1 C :   -0.125155
   2 C :   -0.133128
   3 C :    0.009408
   4 C :   -0.151136
   5 H :    0.031712
   6 C :    0.124104
   7 H :   -0.026161
   8 H :    0.015417
   9 C :   -0.074073
  10 H :    0.033604
  11 H :    0.030426
  12 C :   -0.031585
  13 H :    0.044258
  14 H :    0.041190
  15 H :    0.025370
  16 S :    0.124522
  17 C :   -0.078211
  18 C :   -0.060919
  19 C :   -0.036174
  20 C :   -0.157776
  21 H :    0.059580
  22 C :    0.012402
  23 H :    0.026388
  24 H :    0.043691
  25 C :   -0.122628
  26 H :    0.062562
  27 H :    0.032722
  28 C :   -0.030240
  29 H :    0.034674
  30 H :    0.039594
  31 H :    0.031132
  32 H :    0.045214
  33 H :    0.046756
Sum of atomic charges:    0.0000000

LOEWDIN ATOMIC CHARGES
----------------------
   0 S :    0.418616
   1 C :   -0.182839
   2 C :   -0.063595
   3 C :   -0.082943
   4 C :   -0.221666
   5 H :    0.038168
   6 C :   -0.039880
   7 H :    0.019874
   8 H :    0.028145
   9 C :   -0.031870
  10 H :    0.030431
  11 H :    0.022631
  12 C :   -0.059462
  13 H :    0.031408
  14 H :    0.026026
  15 H :    0.024078
  16 S :    0.459292
  17 C :   -0.196927
  18 C :   -0.080571
  19 C :   -0.055147
  20 C :   -0.224796
  21 H :    0.049016
  22 C :   -0.045991
  23 H :    0.033931
  24 H :    0.031346
  25 C :   -0.047607
  26 H :    0.033545
  27 H :    0.025433
  28 C :   -0.066776
  29 H :    0.022255
  30 H :    0.028161
  31 H :    0.031494
  32 H :    0.025500
  33 H :    0.020721

  Mayer bond orders larger than 0.100000
B(  0-S ,  1-C ) :   1.1553 B(  0-S ,  4-C ) :   1.1796 B(  1-C ,  2-C ) :   1.5311
B(  1-C ,  4-C ) :   0.1164 B(  1-C , 32-H ) :   0.9768 B(  2-C ,  3-C ) :   1.3251
B(  2-C ,  6-C ) :   1.0285 B(  3-C ,  4-C ) :   1.5245 B(  3-C ,  5-H ) :   0.9715
B(  4-C , 20-C ) :   0.9780 B(  6-C ,  7-H ) :   0.9220 B(  6-C ,  8-H ) :   0.9198
B(  6-C ,  9-C ) :   1.0549 B(  9-C , 10-H ) :   0.9536 B(  9-C , 11-H ) :   0.9575
B(  9-C , 12-C ) :   1.0618 B( 12-C , 13-H ) :   0.9759 B( 12-C , 14-H ) :   0.9761
B( 12-C , 15-H ) :   0.9777 B( 16-S , 17-C ) :   1.1727 B( 16-S , 20-C ) :   1.1828
B( 17-C , 18-C ) :   1.5942 B( 17-C , 33-H ) :   0.9780 B( 18-C , 19-C ) :   1.2381
B( 18-C , 21-H ) :   0.9716 B( 19-C , 20-C ) :   1.5827 B( 19-C , 22-C ) :   1.0563
B( 22-C , 23-H ) :   0.9388 B( 22-C , 24-H ) :   0.9324 B( 22-C , 25-C ) :   1.0404
B( 25-C , 26-H ) :   0.9568 B( 25-C , 27-H ) :   0.9579 B( 25-C , 28-C ) :   1.0766
B( 28-C , 29-H ) :   0.9741 B( 28-C , 30-H ) :   0.9745 B( 28-C , 31-H ) :   0.9726

Dispersion correction           -0.014201959
FINAL SINGLE POINT ENERGY     -1339.857884424525

DIPOLE MOMENT
-------------
                                X             Y             Z
Electronic contribution:    -11.73457     -15.26856      -0.23590
Nuclear contribution   :     11.97691      15.51407       0.38096
                        -----------------------------------------
Total Dipole Moment    :      0.24233       0.24550       0.14506
                        -----------------------------------------
Magnitude (a.u.)       :      0.37422
Magnitude (Debye)      :      0.95119

Rotational constants in cm-1:     0.019984     0.007899     0.006531
Rotational constants in MHz :   599.093670   236.805290   195.806263

                             ****ORCA TERMINATED NORMALLY****
TOTAL RUN TIME: 0 days 0 hours 0 minutes 21 seconds 260 msec
