                         Program Version 4.2.1 -  RELEASE  -
|  1> ! wB97X-D3 SP def2-SVP
|  2> %pal
|  3> nprocs 24
|  4> end
|  5>
|  6> * xyz 0 1
|  7> S 	 45.7227 	 -20.9489 	 -111.631
|  8> C 	 46.4249 	 -19.7566 	 -110.613
|  9> C 	 46.0715 	 -19.87 	 -109.266
| 10> C 	 45.2752 	 -21.0109 	 -109.062
| 11> C 	 44.8807 	 -21.6852 	 -110.215
| 12> H 	 44.9037 	 -21.3593 	 -108.095
| 13> C 	 46.6154 	 -18.9073 	 -108.187
| 14> H 	 45.8599 	 -18.7052 	 -107.434
| 15> H 	 46.7923 	 -17.9401 	 -108.744
| 16> C 	 47.9518 	 -19.312 	 -107.511
| 17> H 	 48.8963 	 -19.4328 	 -108.158
| 18> H 	 48.2789 	 -18.557 	 -106.822
| 19> C 	 47.774 	 -20.6186 	 -106.736
| 20> H 	 47.8729 	 -21.4002 	 -107.472
| 21> H 	 48.6093 	 -20.8151 	 -106.032
| 22> H 	 46.8218 	 -20.6786 	 -106.226
| 23> S 	 42.1898 	 -22.3889 	 -110.44
| 24> C 	 41.908 	 -24.0059 	 -110.929
| 25> C 	 42.8721 	 -24.8784 	 -110.46
| 26> C 	 44.0351 	 -24.0937 	 -110.223
| 27> C 	 43.8966 	 -22.7623 	 -110.422
| 28> H 	 42.6456 	 -25.912 	 -110.566
| 29> C 	 45.2715 	 -24.7836 	 -109.763
| 30> H 	 45.0742 	 -25.5245 	 -108.901
| 31> H 	 45.9304 	 -24.012 	 -109.371
| 32> C 	 46.322 	 -25.3674 	 -110.798
| 33> H 	 45.9331 	 -26.3319 	 -111.129
| 34> H 	 47.2439 	 -25.682 	 -110.219
| 35> C 	 46.7659 	 -24.4512 	 -111.863
| 36> H 	 45.9625 	 -23.7891 	 -112.188
| 37> H 	 47.1826 	 -24.9508 	 -112.697
| 38> H 	 47.4712 	 -23.7729 	 -111.407
| 39> H 	 47.1307 	 -19.009 	 -110.852
| 40> H 	 41.0099 	 -24.4237 	 -111.344
| 41> *
| 42>
| 43>                          ****END OF INPUT****

CARTESIAN COORDINATES (ANGSTROEM)
---------------------------------
  S     45.722700  -20.948900  -111.631000
  C     46.424900  -19.756600  -110.613000
  C     46.071500  -19.870000  -109.266000
  C     45.275200  -21.010900  -109.062000
  C     44.880700  -21.685200  -110.215000
  H     44.903700  -21.359300  -108.095000
  C     46.615400  -18.907300  -108.187000
  H     45.859900  -18.705200  -107.434000
  H     46.792300  -17.940100  -108.744000
  C     47.951800  -19.312000  -107.511000
  H     48.896300  -19.432800  -108.158000
  H     48.278900  -18.557000  -106.822000
  C     47.774000  -20.618600  -106.736000
  H     47.872900  -21.400200  -107.472000
  H     48.609300  -20.815100  -106.032000
  H     46.821800  -20.678600  -106.226000
  S     42.189800  -22.388900  -110.440000
  C     41.908000  -24.005900  -110.929000
  C     42.872100  -24.878400  -110.460000
  C     44.035100  -24.093700  -110.223000
  C     43.896600  -22.762300  -110.422000
  H     42.645600  -25.912000  -110.566000
  C     45.271500  -24.783600  -109.763000
  H     45.074200  -25.524500  -108.901000
  H     45.930400  -24.012000  -109.371000
  C     46.322000  -25.367400  -110.798000
  H     45.933100  -26.331900  -111.129000
  H     47.243900  -25.682000  -110.219000
  C     46.765900  -24.451200  -111.863000
  H     45.962500  -23.789100  -112.188000
  H     47.182600  -24.950800  -112.697000
  H     47.471200  -23.772900  -111.407000
  H     47.130700  -19.009000  -110.852000
  H     41.009900  -24.423700  -111.344000

 Total Charge           Charge          ....    0
 Multiplicity           Mult            ....    1
 Number of Electrons    NEL             ....  134
 Basis Dimension        Dim             ....  322

ORBITAL ENERGIES
----------------

  NO   OCC          E(Eh)            E(eV)
   0   2.0000     -88.969278     -2420.9771
   1   2.0000     -88.961762     -2420.7726
   2   2.0000     -10.331742      -281.1410
   3   2.0000     -10.319164      -280.7987
   4   2.0000     -10.312514      -280.6178
   5   2.0000     -10.311056      -280.5781
   6   2.0000     -10.302778      -280.3528
   7   2.0000     -10.300648      -280.2949
   8   2.0000     -10.300331      -280.2863
   9   2.0000     -10.297721      -280.2152
  10   2.0000     -10.291921      -280.0574
  11   2.0000     -10.289255      -279.9849
  12   2.0000     -10.288895      -279.9751
  13   2.0000     -10.283316      -279.8232
  14   2.0000     -10.274862      -279.5932
  15   2.0000     -10.262106      -279.2461
  16   2.0000      -8.083023      -219.9502
  17   2.0000      -8.077746      -219.8066
  18   2.0000      -6.041405      -164.3950
  19   2.0000      -6.037582      -164.2909
  20   2.0000      -6.036092      -164.2504
  21   2.0000      -6.034052      -164.1949
  22   2.0000      -6.032726      -164.1588
  23   2.0000      -6.027927      -164.0282
  24   2.0000      -1.012104       -27.5408
  25   2.0000      -0.987480       -26.8707
  26   2.0000      -0.907865       -24.7043
  27   2.0000      -0.905057       -24.6279
  28   2.0000      -0.868197       -23.6249
  29   2.0000      -0.853155       -23.2155
  30   2.0000      -0.847369       -23.0581
  31   2.0000      -0.816973       -22.2310
  32   2.0000      -0.782543       -21.2941
  33   2.0000      -0.768010       -20.8986
  34   2.0000      -0.705003       -19.1841
  35   2.0000      -0.697931       -18.9917
  36   2.0000      -0.687367       -18.7042
  37   2.0000      -0.659384       -17.9427
  38   2.0000      -0.640479       -17.4283
  39   2.0000      -0.615526       -16.7493
  40   2.0000      -0.589347       -16.0369
  41   2.0000      -0.577038       -15.7020
  42   2.0000      -0.553160       -15.0523
  43   2.0000      -0.548747       -14.9322
  44   2.0000      -0.546834       -14.8801
  45   2.0000      -0.536021       -14.5859
  46   2.0000      -0.519214       -14.1285
  47   2.0000      -0.510944       -13.9035
  48   2.0000      -0.503585       -13.7032
  49   2.0000      -0.490749       -13.3540
  50   2.0000      -0.490034       -13.3345
  51   2.0000      -0.478048       -13.0084
  52   2.0000      -0.468936       -12.7604
  53   2.0000      -0.465314       -12.6618
  54   2.0000      -0.455705       -12.4004
  55   2.0000      -0.447713       -12.1829
  56   2.0000      -0.443105       -12.0575
  57   2.0000      -0.437432       -11.9031
  58   2.0000      -0.428582       -11.6623
  59   2.0000      -0.422812       -11.5053
  60   2.0000      -0.419228       -11.4078
  61   2.0000      -0.413495       -11.2518
  62   2.0000      -0.396755       -10.7963
  63   2.0000      -0.338825        -9.2199
  64   2.0000      -0.326464        -8.8835
  65   2.0000      -0.313028        -8.5179
  66   2.0000      -0.309179        -8.4132
  67   0.0000       0.035844         0.9754
  68   0.0000       0.046881         1.2757
  69   0.0000       0.093129         2.5342
  70   0.0000       0.115419         3.1407
  71   0.0000       0.128777         3.5042

MULLIKEN ATOMIC CHARGES
-----------------------
   0 S :    0.123622
   1 C :   -0.077969
   2 C :   -0.114110
   3 C :    0.064786
   4 C :   -0.219720
   5 H :    0.012459
   6 C :    0.050616
   7 H :    0.037168
   8 H :    0.033167
   9 C :   -0.074543
  10 H :    0.036899
  11 H :    0.025911
  12 C :   -0.067128
  13 H :    0.038145
  14 H :    0.034692
  15 H :    0.032072
  16 S :    0.123233
  17 C :   -0.082038
  18 C :   -0.021877
  19 C :   -0.005247
  20 C :   -0.153484
  21 H :    0.016833
  22 C :    0.019236
  23 H :    0.050230
  24 H :    0.013042
  25 C :   -0.078018
  26 H :    0.013028
  27 H :    0.029090
  28 C :   -0.003581
  29 H :    0.021541
  30 H :    0.031113
  31 H :    0.022702
  32 H :    0.026024
  33 H :    0.042106
Sum of atomic charges:    0.0000000

LOEWDIN ATOMIC CHARGES
----------------------
   0 S :    0.418157
   1 C :   -0.194644
   2 C :   -0.072592
   3 C :   -0.055055
   4 C :   -0.187224
   5 H :    0.033212
   6 C :   -0.029472
   7 H :    0.031585
   8 H :    0.037397
   9 C :   -0.046910
  10 H :    0.032890
  11 H :    0.018261
  12 C :   -0.069020
  13 H :    0.024819
  14 H :    0.028922
  15 H :    0.020064
  16 S :    0.412951
  17 C :   -0.170694
  18 C :   -0.066965
  19 C :   -0.050584
  20 C :   -0.217534
  21 H :    0.031878
  22 C :   -0.044992
  23 H :    0.043961
  24 H :    0.026080
  25 C :   -0.041024
  26 H :    0.011000
  27 H :    0.028849
  28 C :   -0.064806
  29 H :    0.017893
  30 H :    0.025127
  31 H :    0.025258
  32 H :    0.020588
  33 H :    0.022625

  Mayer bond orders larger than 0.100000
B(  0-S ,  1-C ) :   1.1694 B(  0-S ,  4-C ) :   1.1404 B(  1-C ,  2-C ) :   1.5972
B(  1-C ,  4-C ) :   0.1085 B(  1-C , 32-H ) :   0.9637 B(  2-C ,  3-C ) :   1.2609
B(  2-C ,  6-C ) :   1.0154 B(  3-C ,  4-C ) :   1.5768 B(  3-C ,  5-H ) :   0.9930
B(  4-C , 20-C ) :   1.0324 B(  6-C ,  7-H ) :   0.9451 B(  6-C ,  8-H ) :   0.9400
B(  6-C ,  9-C ) :   1.0678 B(  9-C , 10-H ) :   0.9580 B(  9-C , 11-H ) :   0.9577
B(  9-C , 12-C ) :   1.0718 B( 12-C , 13-H ) :   0.9762 B( 12-C , 14-H ) :   0.9721
B( 12-C , 15-H ) :   0.9757 B( 16-S , 17-C ) :   1.1705 B( 16-S , 20-C ) :   1.1181
B( 17-C , 18-C ) :   1.6216 B( 17-C , 33-H ) :   0.9697 B( 18-C , 19-C ) :   1.1864
B( 18-C , 21-H ) :   1.0082 B( 19-C , 20-C ) :   1.6117 B( 19-C , 22-C ) :   1.0612
B( 22-C , 23-H ) :   0.9425 B( 22-C , 24-H ) :   0.9225 B( 22-C , 25-C ) :   1.0610
B( 25-C , 26-H ) :   0.9587 B( 25-C , 27-H ) :   0.9572 B( 25-C , 28-C ) :   1.0765
B( 28-C , 29-H ) :   0.9708 B( 28-C , 30-H ) :   0.9681 B( 28-C , 31-H ) :   0.9707

Dispersion correction           -0.015811197
FINAL SINGLE POINT ENERGY     -1339.845956446081

DIPOLE MOMENT
-------------
                                X             Y             Z
Electronic contribution:    -19.94750       3.93716     -11.65519
Nuclear contribution   :     20.22168      -4.09867      12.07583
                        -----------------------------------------
Total Dipole Moment    :      0.27418      -0.16151       0.42063
                        -----------------------------------------
Magnitude (a.u.)       :      0.52744
Magnitude (Debye)      :      1.34064

Rotational constants in cm-1:     0.020132     0.008806     0.007959
Rotational constants in MHz :   603.548644   264.004854   238.597487

                             ****ORCA TERMINATED NORMALLY****
TOTAL RUN TIME: 0 days 0 hours 0 minutes 22 seconds 727 msec
