                         Program Version 4.2.1 -  RELEASE  -
|  1> ! wB97X-D3 SP def2-SVP
|  2> %pal
|  3> nprocs 24
|  4> end
|  5>
|  6> * xyz 0 1
|  7> S 	 -132.824 	 64.0746 	 -57.0816
|  8> C 	 -132.232 	 65.6232 	 -56.6073
|  9> C 	 -132.725 	 66.6355 	 -57.4544
| 10> C 	 -133.339 	 66.08 	 -58.6317
| 11> C 	 -133.438 	 64.7448 	 -58.5369
| 12> H 	 -133.715 	 66.6763 	 -59.442
| 13> C 	 -132.443 	 68.1004 	 -57.3791
| 14> H 	 -132.228 	 68.3437 	 -56.3619
| 15> H 	 -133.386 	 68.7286 	 -57.6078
| 16> C 	 -131.318 	 68.5209 	 -58.3619
| 17> H 	 -131.617 	 68.4647 	 -59.4158
| 18> H 	 -131.185 	 69.5693 	 -58.1146
| 19> C 	 -130.035 	 67.7329 	 -58.3819
| 20> H 	 -129.429 	 68.0252 	 -59.224
| 21> H 	 -129.427 	 67.7018 	 -57.4433
| 22> H 	 -130.108 	 66.6439 	 -58.5589
| 23> S 	 -135.663 	 63.3966 	 -59.2366
| 24> C 	 -135.775 	 62.8677 	 -60.8598
| 25> C 	 -134.644 	 62.9791 	 -61.5524
| 26> C 	 -133.603 	 63.5653 	 -60.7912
| 27> C 	 -134.07 	 63.9199 	 -59.5682
| 28> H 	 -134.576 	 62.6271 	 -62.554
| 29> C 	 -132.221 	 63.7452 	 -61.3921
| 30> H 	 -132.306 	 64.8164 	 -61.6141
| 31> H 	 -132.09 	 63.1755 	 -62.3182
| 32> C 	 -130.982 	 63.4166 	 -60.4623
| 33> H 	 -131.072 	 62.3036 	 -60.2137
| 34> H 	 -131.089 	 63.8704 	 -59.5098
| 35> C 	 -129.631 	 63.695 	 -61.1051
| 36> H 	 -129.486 	 63.2868 	 -62.0669
| 37> H 	 -128.913 	 63.1708 	 -60.472
| 38> H 	 -129.351 	 64.7087 	 -61.141
| 39> H 	 -131.517 	 65.7451 	 -55.8137
| 40> H 	 -136.67 	 62.3649 	 -61.1977
| 41> *
| 42>
| 43>                          ****END OF INPUT****

CARTESIAN COORDINATES (ANGSTROEM)
---------------------------------
  S    -132.824000   64.074600  -57.081600
  C    -132.232000   65.623200  -56.607300
  C    -132.725000   66.635500  -57.454400
  C    -133.339000   66.080000  -58.631700
  C    -133.438000   64.744800  -58.536900
  H    -133.715000   66.676300  -59.442000
  C    -132.443000   68.100400  -57.379100
  H    -132.228000   68.343700  -56.361900
  H    -133.386000   68.728600  -57.607800
  C    -131.318000   68.520900  -58.361900
  H    -131.617000   68.464700  -59.415800
  H    -131.185000   69.569300  -58.114600
  C    -130.035000   67.732900  -58.381900
  H    -129.429000   68.025200  -59.224000
  H    -129.427000   67.701800  -57.443300
  H    -130.108000   66.643900  -58.558900
  S    -135.663000   63.396600  -59.236600
  C    -135.775000   62.867700  -60.859800
  C    -134.644000   62.979100  -61.552400
  C    -133.603000   63.565300  -60.791200
  C    -134.070000   63.919900  -59.568200
  H    -134.576000   62.627100  -62.554000
  C    -132.221000   63.745200  -61.392100
  H    -132.306000   64.816400  -61.614100
  H    -132.090000   63.175500  -62.318200
  C    -130.982000   63.416600  -60.462300
  H    -131.072000   62.303600  -60.213700
  H    -131.089000   63.870400  -59.509800
  C    -129.631000   63.695000  -61.105100
  H    -129.486000   63.286800  -62.066900
  H    -128.913000   63.170800  -60.472000
  H    -129.351000   64.708700  -61.141000
  H    -131.517000   65.745100  -55.813700
  H    -136.670000   62.364900  -61.197700

 Total Charge           Charge          ....    0
 Multiplicity           Mult            ....    1
 Number of Electrons    NEL             ....  134
 Basis Dimension        Dim             ....  322

ORBITAL ENERGIES
----------------

  NO   OCC          E(Eh)            E(eV)
   0   2.0000     -88.964431     -2420.8453
   1   2.0000     -88.958462     -2420.6828
   2   2.0000     -10.317702      -280.7589
   3   2.0000     -10.311595      -280.5928
   4   2.0000     -10.310508      -280.5632
   5   2.0000     -10.302904      -280.3563
   6   2.0000     -10.299177      -280.2549
   7   2.0000     -10.295284      -280.1489
   8   2.0000     -10.293982      -280.1135
   9   2.0000     -10.292249      -280.0663
  10   2.0000     -10.289229      -279.9842
  11   2.0000     -10.285983      -279.8958
  12   2.0000     -10.285643      -279.8866
  13   2.0000     -10.279867      -279.7294
  14   2.0000     -10.277087      -279.6538
  15   2.0000     -10.268295      -279.4145
  16   2.0000      -8.080044      -219.8692
  17   2.0000      -8.075325      -219.7408
  18   2.0000      -6.038362      -164.3122
  19   2.0000      -6.034483      -164.2066
  20   2.0000      -6.033561      -164.1815
  21   2.0000      -6.030905      -164.1093
  22   2.0000      -6.029756      -164.0780
  23   2.0000      -6.026042      -163.9769
  24   2.0000      -1.017306       -27.6823
  25   2.0000      -0.993050       -27.0223
  26   2.0000      -0.912598       -24.8330
  27   2.0000      -0.901645       -24.5350
  28   2.0000      -0.869186       -23.6518
  29   2.0000      -0.855412       -23.2770
  30   2.0000      -0.849751       -23.1229
  31   2.0000      -0.815961       -22.2034
  32   2.0000      -0.784846       -21.3567
  33   2.0000      -0.772360       -21.0170
  34   2.0000      -0.708528       -19.2800
  35   2.0000      -0.699338       -19.0299
  36   2.0000      -0.686786       -18.6884
  37   2.0000      -0.661761       -18.0074
  38   2.0000      -0.643655       -17.5147
  39   2.0000      -0.622975       -16.9520
  40   2.0000      -0.595482       -16.2039
  41   2.0000      -0.564694       -15.3661
  42   2.0000      -0.561246       -15.2723
  43   2.0000      -0.547458       -14.8971
  44   2.0000      -0.537306       -14.6208
  45   2.0000      -0.526465       -14.3258
  46   2.0000      -0.520721       -14.1695
  47   2.0000      -0.510461       -13.8904
  48   2.0000      -0.502712       -13.6795
  49   2.0000      -0.496316       -13.5054
  50   2.0000      -0.493573       -13.4308
  51   2.0000      -0.485929       -13.2228
  52   2.0000      -0.471001       -12.8166
  53   2.0000      -0.465973       -12.6798
  54   2.0000      -0.459410       -12.5012
  55   2.0000      -0.453049       -12.3281
  56   2.0000      -0.446137       -12.1400
  57   2.0000      -0.441896       -12.0246
  58   2.0000      -0.429627       -11.6907
  59   2.0000      -0.422874       -11.5070
  60   2.0000      -0.419096       -11.4042
  61   2.0000      -0.412456       -11.2235
  62   2.0000      -0.407873       -11.0988
  63   2.0000      -0.340387        -9.2624
  64   2.0000      -0.328246        -8.9320
  65   2.0000      -0.320971        -8.7341
  66   2.0000      -0.300834        -8.1861
  67   0.0000       0.054307         1.4778
  68   0.0000       0.064898         1.7660
  69   0.0000       0.115650         3.1470
  70   0.0000       0.121577         3.3083
  71   0.0000       0.127497         3.4694

MULLIKEN ATOMIC CHARGES
-----------------------
   0 S :    0.123049
   1 C :   -0.129652
   2 C :   -0.089136
   3 C :    0.046468
   4 C :   -0.178846
   5 H :    0.011753
   6 C :    0.058001
   7 H :    0.014429
   8 H :    0.044923
   9 C :   -0.058167
  10 H :    0.030690
  11 H :    0.033557
  12 C :   -0.067872
  13 H :    0.029889
  14 H :    0.028357
  15 H :    0.035026
  16 S :    0.121999
  17 C :   -0.083960
  18 C :   -0.028290
  19 C :   -0.007445
  20 C :   -0.203649
  21 H :    0.000520
  22 C :    0.084705
  23 H :    0.034821
  24 H :    0.021962
  25 C :   -0.098304
  26 H :    0.035422
  27 H :    0.033862
  28 C :    0.001688
  29 H :    0.014470
  30 H :    0.026150
  31 H :    0.023851
  32 H :    0.044178
  33 H :    0.045549
Sum of atomic charges:   -0.0000000

LOEWDIN ATOMIC CHARGES
----------------------
   0 S :    0.426351
   1 C :   -0.209054
   2 C :   -0.057120
   3 C :   -0.057030
   4 C :   -0.205820
   5 H :    0.033151
   6 C :   -0.038240
   7 H :    0.023514
   8 H :    0.044403
   9 C :   -0.040905
  10 H :    0.028045
  11 H :    0.026749
  12 C :   -0.078401
  13 H :    0.027017
  14 H :    0.025034
  15 H :    0.029783
  16 S :    0.429267
  17 C :   -0.189328
  18 C :   -0.072147
  19 C :   -0.055055
  20 C :   -0.219285
  21 H :    0.028313
  22 C :   -0.031170
  23 H :    0.037007
  24 H :    0.029377
  25 C :   -0.038167
  26 H :    0.032162
  27 H :    0.014517
  28 C :   -0.058969
  29 H :    0.018685
  30 H :    0.031966
  31 H :    0.018670
  32 H :    0.022657
  33 H :    0.024025

  Mayer bond orders larger than 0.100000
B(  0-S ,  1-C ) :   1.1403 B(  0-S ,  4-C ) :   1.1630 B(  1-C ,  2-C ) :   1.5927
B(  1-C , 32-H ) :   0.9746 B(  2-C ,  3-C ) :   1.2131 B(  2-C ,  6-C ) :   1.0513
B(  3-C ,  4-C ) :   1.6088 B(  3-C ,  5-H ) :   1.0030 B(  4-C , 20-C ) :   0.9692
B(  6-C ,  7-H ) :   0.9388 B(  6-C ,  8-H ) :   0.9374 B(  6-C ,  9-C ) :   1.0572
B(  9-C , 10-H ) :   0.9559 B(  9-C , 11-H ) :   0.9554 B(  9-C , 12-C ) :   1.0795
B( 12-C , 13-H ) :   0.9715 B( 12-C , 14-H ) :   0.9731 B( 12-C , 15-H ) :   0.9650
B( 16-S , 17-C ) :   1.1563 B( 16-S , 20-C ) :   1.1599 B( 17-C , 18-C ) :   1.6264
B( 17-C , 33-H ) :   0.9662 B( 18-C , 19-C ) :   1.2262 B( 18-C , 21-H ) :   1.0010
B( 19-C , 20-C ) :   1.6339 B( 19-C , 22-C ) :   1.0203 B( 22-C , 23-H ) :   0.9257
B( 22-C , 24-H ) :   0.9403 B( 22-C , 25-C ) :   1.0588 B( 25-C , 26-H ) :   0.9568
B( 25-C , 27-H ) :   0.9532 B( 25-C , 28-C ) :   1.0907 B( 28-C , 29-H ) :   0.9713
B( 28-C , 30-H ) :   0.9711 B( 28-C , 31-H ) :   0.9748

Dispersion correction           -0.016110078
FINAL SINGLE POINT ENERGY     -1339.878363728950

DIPOLE MOMENT
-------------
                                X             Y             Z
Electronic contribution:    -23.07414     -12.77178       8.83515
Nuclear contribution   :     23.44302      13.10709      -9.20342
                        -----------------------------------------
Total Dipole Moment    :      0.36888       0.33531      -0.36827
                        -----------------------------------------
Magnitude (a.u.)       :      0.61978
Magnitude (Debye)      :      1.57535

Rotational constants in cm-1:     0.018603     0.010259     0.008177
Rotational constants in MHz :   557.700304   307.557020   245.141635

                             ****ORCA TERMINATED NORMALLY****
TOTAL RUN TIME: 0 days 0 hours 0 minutes 23 seconds 270 msec
