                         Program Version 4.2.1 -  RELEASE  -
|  1> ! wB97X-D3 SP def2-SVP
|  2> %pal
|  3> nprocs 24
|  4> end
|  5>
|  6> * xyz 0 1
|  7> S 	 17.71 	 -4.76151 	 -111.581
|  8> C 	 18.1249 	 -4.7314 	 -109.842
|  9> C 	 18.516 	 -6.03334 	 -109.41
| 10> C 	 18.4228 	 -7.01255 	 -110.547
| 11> C 	 18.123 	 -6.45109 	 -111.77
| 12> H 	 18.7416 	 -7.99946 	 -110.527
| 13> C 	 18.8365 	 -6.32693 	 -108.001
| 14> H 	 19.1387 	 -7.36203 	 -107.985
| 15> H 	 17.935 	 -6.27931 	 -107.392
| 16> C 	 19.9702 	 -5.44821 	 -107.416
| 17> H 	 19.7666 	 -4.42524 	 -107.709
| 18> H 	 19.8536 	 -5.47424 	 -106.353
| 19> C 	 21.3492 	 -5.88565 	 -107.89
| 20> H 	 22.201 	 -5.2883 	 -107.372
| 21> H 	 21.5337 	 -6.86138 	 -107.515
| 22> H 	 21.5322 	 -5.85446 	 -108.951
| 23> S 	 19.7925 	 -6.66229 	 -113.932
| 24> C 	 19.548 	 -7.87887 	 -115.172
| 25> C 	 18.5012 	 -8.73604 	 -114.844
| 26> C 	 17.7451 	 -8.22732 	 -113.747
| 27> C 	 18.3463 	 -7.12148 	 -113.084
| 28> H 	 18.2652 	 -9.62859 	 -115.325
| 29> C 	 16.4174 	 -8.76214 	 -113.384
| 30> H 	 16.0642 	 -8.29121 	 -112.427
| 31> H 	 16.5369 	 -9.90182 	 -113.255
| 32> C 	 15.2691 	 -8.56664 	 -114.477
| 33> H 	 15.6158 	 -9.33073 	 -115.252
| 34> H 	 15.3327 	 -7.64649 	 -115.011
| 35> C 	 13.8358 	 -8.81847 	 -114.014
| 36> H 	 13.0308 	 -8.76013 	 -114.742
| 37> H 	 13.6531 	 -8.04862 	 -113.247
| 38> H 	 13.9006 	 -9.74792 	 -113.437
| 39> H 	 18.0107 	 -3.83145 	 -109.291
| 40> H 	 20.2633 	 -8.06596 	 -115.96
| 41> *
| 42>
| 43>                          ****END OF INPUT****

CARTESIAN COORDINATES (ANGSTROEM)
---------------------------------
  S     17.710000   -4.761510  -111.581000
  C     18.124900   -4.731400  -109.842000
  C     18.516000   -6.033340  -109.410000
  C     18.422800   -7.012550  -110.547000
  C     18.123000   -6.451090  -111.770000
  H     18.741600   -7.999460  -110.527000
  C     18.836500   -6.326930  -108.001000
  H     19.138700   -7.362030  -107.985000
  H     17.935000   -6.279310  -107.392000
  C     19.970200   -5.448210  -107.416000
  H     19.766600   -4.425240  -107.709000
  H     19.853600   -5.474240  -106.353000
  C     21.349200   -5.885650  -107.890000
  H     22.201000   -5.288300  -107.372000
  H     21.533700   -6.861380  -107.515000
  H     21.532200   -5.854460  -108.951000
  S     19.792500   -6.662290  -113.932000
  C     19.548000   -7.878870  -115.172000
  C     18.501200   -8.736040  -114.844000
  C     17.745100   -8.227320  -113.747000
  C     18.346300   -7.121480  -113.084000
  H     18.265200   -9.628590  -115.325000
  C     16.417400   -8.762140  -113.384000
  H     16.064200   -8.291210  -112.427000
  H     16.536900   -9.901820  -113.255000
  C     15.269100   -8.566640  -114.477000
  H     15.615800   -9.330730  -115.252000
  H     15.332700   -7.646490  -115.011000
  C     13.835800   -8.818470  -114.014000
  H     13.030800   -8.760130  -114.742000
  H     13.653100   -8.048620  -113.247000
  H     13.900600   -9.747920  -113.437000
  H     18.010700   -3.831450  -109.291000
  H     20.263300   -8.065960  -115.960000

 Total Charge           Charge          ....    0
 Multiplicity           Mult            ....    1
 Number of Electrons    NEL             ....  134
 Basis Dimension        Dim             ....  322

ORBITAL ENERGIES
----------------

  NO   OCC          E(Eh)            E(eV)
   0   2.0000     -88.965943     -2420.8864
   1   2.0000     -88.963563     -2420.8216
   2   2.0000     -10.333268      -281.1825
   3   2.0000     -10.330465      -281.1063
   4   2.0000     -10.320952      -280.8474
   5   2.0000     -10.320564      -280.8368
   6   2.0000     -10.312581      -280.6196
   7   2.0000     -10.304959      -280.4122
   8   2.0000     -10.299887      -280.2742
   9   2.0000     -10.297384      -280.2061
  10   2.0000     -10.293611      -280.1034
  11   2.0000     -10.288771      -279.9717
  12   2.0000     -10.288577      -279.9664
  13   2.0000     -10.286491      -279.9096
  14   2.0000     -10.279518      -279.7199
  15   2.0000     -10.279196      -279.7111
  16   2.0000      -8.080765      -219.8888
  17   2.0000      -8.077784      -219.8077
  18   2.0000      -6.039232      -164.3359
  19   2.0000      -6.036340      -164.2571
  20   2.0000      -6.035095      -164.2233
  21   2.0000      -6.032282      -164.1467
  22   2.0000      -6.031718      -164.1314
  23   2.0000      -6.028603      -164.0466
  24   2.0000      -1.000655       -27.2292
  25   2.0000      -0.976531       -26.5728
  26   2.0000      -0.915556       -24.9135
  27   2.0000      -0.902174       -24.5494
  28   2.0000      -0.864677       -23.5290
  29   2.0000      -0.850950       -23.1555
  30   2.0000      -0.842598       -22.9282
  31   2.0000      -0.816246       -22.2112
  32   2.0000      -0.778265       -21.1777
  33   2.0000      -0.764518       -20.8036
  34   2.0000      -0.711347       -19.3567
  35   2.0000      -0.697673       -18.9846
  36   2.0000      -0.690482       -18.7890
  37   2.0000      -0.663220       -18.0471
  38   2.0000      -0.648477       -17.6459
  39   2.0000      -0.608797       -16.5662
  40   2.0000      -0.593991       -16.1633
  41   2.0000      -0.578683       -15.7468
  42   2.0000      -0.556671       -15.1478
  43   2.0000      -0.551839       -15.0163
  44   2.0000      -0.541349       -14.7309
  45   2.0000      -0.527629       -14.3575
  46   2.0000      -0.518457       -14.1079
  47   2.0000      -0.515661       -14.0319
  48   2.0000      -0.505751       -13.7622
  49   2.0000      -0.495565       -13.4850
  50   2.0000      -0.486923       -13.2498
  51   2.0000      -0.476151       -12.9567
  52   2.0000      -0.469216       -12.7680
  53   2.0000      -0.462196       -12.5770
  54   2.0000      -0.458290       -12.4707
  55   2.0000      -0.451430       -12.2840
  56   2.0000      -0.441205       -12.0058
  57   2.0000      -0.436538       -11.8788
  58   2.0000      -0.432793       -11.7769
  59   2.0000      -0.424608       -11.5542
  60   2.0000      -0.422533       -11.4977
  61   2.0000      -0.417106       -11.3500
  62   2.0000      -0.401380       -10.9221
  63   2.0000      -0.339644        -9.2422
  64   2.0000      -0.325510        -8.8576
  65   2.0000      -0.319692        -8.6993
  66   2.0000      -0.301691        -8.2094
  67   0.0000       0.036177         0.9844
  68   0.0000       0.055096         1.4992
  69   0.0000       0.111334         3.0296
  70   0.0000       0.113746         3.0952
  71   0.0000       0.128695         3.5020

MULLIKEN ATOMIC CHARGES
-----------------------
   0 S :    0.099660
   1 C :   -0.127818
   2 C :   -0.120781
   3 C :    0.097210
   4 C :   -0.173636
   5 H :   -0.008944
   6 C :    0.066022
   7 H :    0.006819
   8 H :    0.045834
   9 C :   -0.043003
  10 H :    0.021605
  11 H :    0.020966
  12 C :   -0.055201
  13 H :    0.039063
  14 H :    0.016674
  15 H :    0.048248
  16 S :    0.115372
  17 C :   -0.091086
  18 C :    0.002187
  19 C :   -0.043868
  20 C :   -0.152418
  21 H :    0.002436
  22 C :    0.007110
  23 H :    0.035443
  24 H :    0.041820
  25 C :   -0.097498
  26 H :    0.023066
  27 H :    0.030886
  28 C :   -0.028573
  29 H :    0.049280
  30 H :    0.030307
  31 H :    0.027239
  32 H :    0.054206
  33 H :    0.061371
Sum of atomic charges:    0.0000000

LOEWDIN ATOMIC CHARGES
----------------------
   0 S :    0.388508
   1 C :   -0.181343
   2 C :   -0.054079
   3 C :   -0.049976
   4 C :   -0.204229
   5 H :    0.020043
   6 C :   -0.037418
   7 H :    0.026228
   8 H :    0.036944
   9 C :   -0.032318
  10 H :    0.019942
  11 H :    0.022090
  12 C :   -0.065399
  13 H :    0.036975
  14 H :    0.018337
  15 H :    0.027253
  16 S :    0.421281
  17 C :   -0.179207
  18 C :   -0.060244
  19 C :   -0.058860
  20 C :   -0.208797
  21 H :    0.022719
  22 C :   -0.040577
  23 H :    0.030803
  24 H :    0.038685
  25 C :   -0.044035
  26 H :    0.022409
  27 H :    0.017240
  28 C :   -0.067375
  29 H :    0.029610
  30 H :    0.028840
  31 H :    0.027443
  32 H :    0.020550
  33 H :    0.027957

  Mayer bond orders larger than 0.100000
B(  0-S ,  1-C ) :   1.1373 B(  0-S ,  4-C ) :   1.1489 B(  1-C ,  2-C ) :   1.5881
B(  1-C , 32-H ) :   0.9768 B(  2-C ,  3-C ) :   1.2155 B(  2-C ,  6-C ) :   1.0340
B(  3-C ,  4-C ) :   1.5991 B(  3-C ,  5-H ) :   0.9961 B(  4-C , 20-C ) :   0.9991
B(  6-C ,  7-H ) :   0.9384 B(  6-C ,  8-H ) :   0.9350 B(  6-C ,  9-C ) :   1.0685
B(  9-C , 10-H ) :   0.9587 B(  9-C , 11-H ) :   0.9531 B(  9-C , 12-C ) :   1.0750
B( 12-C , 13-H ) :   0.9723 B( 12-C , 14-H ) :   0.9728 B( 12-C , 15-H ) :   0.9784
B( 16-S , 17-C ) :   1.1739 B( 16-S , 20-C ) :   1.1565 B( 17-C , 18-C ) :   1.5704
B( 17-C , 20-C ) :   0.1017 B( 17-C , 33-H ) :   0.9680 B( 18-C , 19-C ) :   1.2626
B( 18-C , 21-H ) :   0.9992 B( 19-C , 20-C ) :   1.5679 B( 19-C , 22-C ) :   1.0714
B( 22-C , 23-H ) :   0.9400 B( 22-C , 24-H ) :   0.9303 B( 22-C , 25-C ) :   1.0335
B( 25-C , 26-H ) :   0.9531 B( 25-C , 27-H ) :   0.9637 B( 25-C , 28-C ) :   1.0785
B( 28-C , 29-H ) :   0.9743 B( 28-C , 30-H ) :   0.9737 B( 28-C , 31-H ) :   0.9722

Dispersion correction           -0.013776367
FINAL SINGLE POINT ENERGY     -1339.867604817419

DIPOLE MOMENT
-------------
                                X             Y             Z
Electronic contribution:      6.38423       9.49624     -11.79513
Nuclear contribution   :     -6.37667      -9.92736      12.15322
                        -----------------------------------------
Total Dipole Moment    :      0.00756      -0.43112       0.35809
                        -----------------------------------------
Magnitude (a.u.)       :      0.56049
Magnitude (Debye)      :      1.42465

Rotational constants in cm-1:     0.020942     0.007391     0.006429
Rotational constants in MHz :   627.833073   221.572626   192.725440

                             ****ORCA TERMINATED NORMALLY****
TOTAL RUN TIME: 0 days 0 hours 0 minutes 20 seconds 843 msec
