                         Program Version 4.2.1 -  RELEASE  -
|  1> ! wB97X-D3 SP def2-SVP
|  2> %pal
|  3> nprocs 24
|  4> end
|  5>
|  6> * xyz 0 1
|  7> S 	 -95.6016 	 -40.9142 	 -59.5235
|  8> C 	 -94.7371 	 -42.1393 	 -58.6605
|  9> C 	 -94.307 	 -41.7323 	 -57.4224
| 10> C 	 -94.727 	 -40.4018 	 -57.1252
| 11> C 	 -95.4175 	 -39.778 	 -58.1411
| 12> H 	 -94.6919 	 -39.7455 	 -56.2348
| 13> C 	 -93.5109 	 -42.4954 	 -56.3965
| 14> H 	 -93.7615 	 -42.0888 	 -55.4353
| 15> H 	 -92.4597 	 -42.2321 	 -56.4358
| 16> C 	 -93.7635 	 -43.988 	 -56.3631
| 17> H 	 -94.8101 	 -44.1895 	 -56.2775
| 18> H 	 -93.5496 	 -44.4582 	 -57.3268
| 19> C 	 -93.0923 	 -44.7604 	 -55.2596
| 20> H 	 -93.3646 	 -45.7854 	 -55.436
| 21> H 	 -91.9615 	 -44.718 	 -55.3761
| 22> H 	 -93.4701 	 -44.4708 	 -54.3197
| 23> S 	 -95.2318 	 -37.0972 	 -57.6701
| 24> C 	 -96.5402 	 -36.0636 	 -57.9403
| 25> C 	 -97.6519 	 -36.7398 	 -58.3982
| 26> C 	 -97.4516 	 -38.171 	 -58.4858
| 27> C 	 -96.1673 	 -38.5141 	 -58.0225
| 28> H 	 -98.5766 	 -36.1995 	 -58.7014
| 29> C 	 -98.4702 	 -39.1274 	 -59.0418
| 30> H 	 -98.0329 	 -40.133 	 -58.9316
| 31> H 	 -98.3892 	 -38.8354 	 -60.0809
| 32> C 	 -99.8825 	 -38.9425 	 -58.5533
| 33> H 	 -100.5 	 -39.8102 	 -58.7314
| 34> H 	 -100.343 	 -38.0786 	 -59.1582
| 35> C 	 -100.244 	 -38.8858 	 -57.1035
| 36> H 	 -99.5879 	 -39.5126 	 -56.5725
| 37> H 	 -101.303 	 -38.862 	 -56.9756
| 38> H 	 -99.9668 	 -37.8786 	 -56.7506
| 39> H 	 -94.4969 	 -43.0588 	 -59.158
| 40> H 	 -96.5133 	 -35.0138 	 -57.8947
| 41> *
| 42>
| 43>                          ****END OF INPUT****

CARTESIAN COORDINATES (ANGSTROEM)
---------------------------------
  S    -95.601600  -40.914200  -59.523500
  C    -94.737100  -42.139300  -58.660500
  C    -94.307000  -41.732300  -57.422400
  C    -94.727000  -40.401800  -57.125200
  C    -95.417500  -39.778000  -58.141100
  H    -94.691900  -39.745500  -56.234800
  C    -93.510900  -42.495400  -56.396500
  H    -93.761500  -42.088800  -55.435300
  H    -92.459700  -42.232100  -56.435800
  C    -93.763500  -43.988000  -56.363100
  H    -94.810100  -44.189500  -56.277500
  H    -93.549600  -44.458200  -57.326800
  C    -93.092300  -44.760400  -55.259600
  H    -93.364600  -45.785400  -55.436000
  H    -91.961500  -44.718000  -55.376100
  H    -93.470100  -44.470800  -54.319700
  S    -95.231800  -37.097200  -57.670100
  C    -96.540200  -36.063600  -57.940300
  C    -97.651900  -36.739800  -58.398200
  C    -97.451600  -38.171000  -58.485800
  C    -96.167300  -38.514100  -58.022500
  H    -98.576600  -36.199500  -58.701400
  C    -98.470200  -39.127400  -59.041800
  H    -98.032900  -40.133000  -58.931600
  H    -98.389200  -38.835400  -60.080900
  C    -99.882500  -38.942500  -58.553300
  H    -100.500000  -39.810200  -58.731400
  H    -100.343000  -38.078600  -59.158200
  C    -100.244000  -38.885800  -57.103500
  H    -99.587900  -39.512600  -56.572500
  H    -101.303000  -38.862000  -56.975600
  H    -99.966800  -37.878600  -56.750600
  H    -94.496900  -43.058800  -59.158000
  H    -96.513300  -35.013800  -57.894700

 Total Charge           Charge          ....    0
 Multiplicity           Mult            ....    1
 Number of Electrons    NEL             ....  134
 Basis Dimension        Dim             ....  322

ORBITAL ENERGIES
----------------

  NO   OCC          E(Eh)            E(eV)
   0   2.0000     -88.965791     -2420.8822
   1   2.0000     -88.965026     -2420.8614
   2   2.0000     -10.329652      -281.0841
   3   2.0000     -10.323417      -280.9145
   4   2.0000     -10.312987      -280.6306
   5   2.0000     -10.310359      -280.5591
   6   2.0000     -10.304576      -280.4018
   7   2.0000     -10.302599      -280.3480
   8   2.0000     -10.295600      -280.1575
   9   2.0000     -10.294013      -280.1143
  10   2.0000     -10.287841      -279.9464
  11   2.0000     -10.287099      -279.9262
  12   2.0000     -10.283259      -279.8217
  13   2.0000     -10.279796      -279.7275
  14   2.0000     -10.276826      -279.6467
  15   2.0000     -10.267034      -279.3802
  16   2.0000      -8.081041      -219.8963
  17   2.0000      -8.079834      -219.8635
  18   2.0000      -6.039408      -164.3406
  19   2.0000      -6.038370      -164.3124
  20   2.0000      -6.035334      -164.2298
  21   2.0000      -6.034394      -164.2042
  22   2.0000      -6.031911      -164.1366
  23   2.0000      -6.030659      -164.1026
  24   2.0000      -1.007963       -27.4281
  25   2.0000      -0.987067       -26.8595
  26   2.0000      -0.917031       -24.9537
  27   2.0000      -0.915265       -24.9056
  28   2.0000      -0.871067       -23.7029
  29   2.0000      -0.857585       -23.3361
  30   2.0000      -0.852006       -23.1842
  31   2.0000      -0.815172       -22.1820
  32   2.0000      -0.788485       -21.4558
  33   2.0000      -0.774459       -21.0741
  34   2.0000      -0.710805       -19.3420
  35   2.0000      -0.695953       -18.9378
  36   2.0000      -0.689347       -18.7581
  37   2.0000      -0.661093       -17.9893
  38   2.0000      -0.640271       -17.4226
  39   2.0000      -0.609620       -16.5886
  40   2.0000      -0.590694       -16.0736
  41   2.0000      -0.572785       -15.5863
  42   2.0000      -0.566909       -15.4264
  43   2.0000      -0.566358       -15.4114
  44   2.0000      -0.551620       -15.0103
  45   2.0000      -0.529384       -14.4053
  46   2.0000      -0.520966       -14.1762
  47   2.0000      -0.514153       -13.9908
  48   2.0000      -0.505322       -13.7505
  49   2.0000      -0.499398       -13.5893
  50   2.0000      -0.491024       -13.3615
  51   2.0000      -0.483298       -13.1512
  52   2.0000      -0.478353       -13.0167
  53   2.0000      -0.465419       -12.6647
  54   2.0000      -0.459876       -12.5139
  55   2.0000      -0.451781       -12.2936
  56   2.0000      -0.442868       -12.0510
  57   2.0000      -0.438456       -11.9310
  58   2.0000      -0.430513       -11.7149
  59   2.0000      -0.426421       -11.6035
  60   2.0000      -0.416128       -11.3234
  61   2.0000      -0.414007       -11.2657
  62   2.0000      -0.391166       -10.6442
  63   2.0000      -0.352278        -9.5860
  64   2.0000      -0.330952        -9.0057
  65   2.0000      -0.324711        -8.8358
  66   2.0000      -0.291326        -7.9274
  67   0.0000       0.033604         0.9144
  68   0.0000       0.074857         2.0370
  69   0.0000       0.109016         2.9665
  70   0.0000       0.124054         3.3757
  71   0.0000       0.129634         3.5275

MULLIKEN ATOMIC CHARGES
-----------------------
   0 S :    0.095380
   1 C :   -0.138484
   2 C :   -0.052522
   3 C :   -0.000031
   4 C :   -0.140946
   5 H :    0.026841
   6 C :    0.124825
   7 H :    0.002432
   8 H :    0.032930
   9 C :   -0.109778
  10 H :    0.018268
  11 H :    0.018496
  12 C :   -0.014449
  13 H :    0.024600
  14 H :    0.039048
  15 H :    0.027045
  16 S :    0.118439
  17 C :   -0.062554
  18 C :   -0.060340
  19 C :   -0.102193
  20 C :   -0.169096
  21 H :    0.032565
  22 C :    0.114952
  23 H :    0.032226
  24 H :    0.043197
  25 C :   -0.131648
  26 H :    0.027148
  27 H :    0.032039
  28 C :    0.020008
  29 H :    0.028261
  30 H :    0.032823
  31 H :    0.002886
  32 H :    0.048256
  33 H :    0.039373
Sum of atomic charges:   -0.0000000

LOEWDIN ATOMIC CHARGES
----------------------
   0 S :    0.399094
   1 C :   -0.196539
   2 C :   -0.061537
   3 C :   -0.066419
   4 C :   -0.180610
   5 H :    0.038667
   6 C :   -0.030710
   7 H :    0.027813
   8 H :    0.034254
   9 C :   -0.046338
  10 H :    0.022748
  11 H :    0.020012
  12 C :   -0.056951
  13 H :    0.027170
  14 H :    0.032181
  15 H :    0.018122
  16 S :    0.442062
  17 C :   -0.197478
  18 C :   -0.079818
  19 C :   -0.052619
  20 C :   -0.218183
  21 H :    0.036728
  22 C :   -0.040751
  23 H :    0.022228
  24 H :    0.043705
  25 C :   -0.056437
  26 H :    0.028446
  27 H :    0.028413
  28 C :   -0.057758
  29 H :    0.025128
  30 H :    0.027936
  31 H :    0.021329
  32 H :    0.024212
  33 H :    0.021902

  Mayer bond orders larger than 0.100000
B(  0-S ,  1-C ) :   1.1402 B(  0-S ,  4-C ) :   1.1265 B(  1-C ,  2-C ) :   1.6143
B(  1-C , 32-H ) :   0.9721 B(  2-C ,  3-C ) :   1.2191 B(  2-C ,  6-C ) :   1.0173
B(  3-C ,  4-C ) :   1.6063 B(  3-C ,  5-H ) :   0.9852 B(  4-C , 20-C ) :   1.0137
B(  6-C ,  7-H ) :   0.9357 B(  6-C ,  8-H ) :   0.9252 B(  6-C ,  9-C ) :   1.0688
B(  9-C , 10-H ) :   0.9553 B(  9-C , 11-H ) :   0.9481 B(  9-C , 12-C ) :   1.1011
B( 12-C , 13-H ) :   0.9700 B( 12-C , 14-H ) :   0.9730 B( 12-C , 15-H ) :   0.9739
B( 16-S , 17-C ) :   1.1772 B( 16-S , 20-C ) :   1.1547 B( 17-C , 18-C ) :   1.5892
B( 17-C , 33-H ) :   0.9718 B( 18-C , 19-C ) :   1.2514 B( 18-C , 21-H ) :   0.9847
B( 19-C , 20-C ) :   1.5713 B( 19-C , 22-C ) :   1.0196 B( 22-C , 23-H ) :   0.9237
B( 22-C , 24-H ) :   0.9268 B( 22-C , 25-C ) :   1.0818 B( 25-C , 26-H ) :   0.9588
B( 25-C , 27-H ) :   0.9477 B( 25-C , 28-C ) :   1.0804 B( 28-C , 29-H ) :   0.9688
B( 28-C , 30-H ) :   0.9723 B( 28-C , 31-H ) :   0.9621

Dispersion correction           -0.013963532
FINAL SINGLE POINT ENERGY     -1339.867655432680

DIPOLE MOMENT
-------------
                                X             Y             Z
Electronic contribution:      7.53534      15.85732     -10.72441
Nuclear contribution   :     -7.73354     -16.05627      10.86357
                        -----------------------------------------
Total Dipole Moment    :     -0.19820      -0.19896       0.13915
                        -----------------------------------------
Magnitude (a.u.)       :      0.31342
Magnitude (Debye)      :      0.79665

Rotational constants in cm-1:     0.022391     0.007055     0.006336
Rotational constants in MHz :   671.268513   211.507938   189.947185

                             ****ORCA TERMINATED NORMALLY****
TOTAL RUN TIME: 0 days 0 hours 0 minutes 21 seconds 67 msec
