                         Program Version 4.2.1 -  RELEASE  -
|  1> ! wB97X-D3 SP def2-SVP
|  2> %pal
|  3> nprocs 24
|  4> end
|  5>
|  6> * xyz 0 1
|  7> S 	 -52.7176 	 9.47232 	 -20.9066
|  8> C 	 -51.0587 	 9.81631 	 -20.5625
|  9> C 	 -50.7706 	 11.1563 	 -20.6218
| 10> C 	 -51.9108 	 11.8332 	 -21.0595
| 11> C 	 -53.0596 	 11.1493 	 -21.2711
| 12> H 	 -52.0147 	 12.9381 	 -21.1112
| 13> C 	 -49.4018 	 11.8102 	 -20.3672
| 14> H 	 -49.4923 	 12.6446 	 -21.0795
| 15> H 	 -48.4842 	 11.2007 	 -20.5628
| 16> C 	 -49.3181 	 12.4577 	 -18.9224
| 17> H 	 -48.3122 	 12.7231 	 -18.6269
| 18> H 	 -49.7816 	 13.3934 	 -18.7793
| 19> C 	 -49.8299 	 11.4928 	 -17.8243
| 20> H 	 -49.2046 	 10.595 	 -17.7306
| 21> H 	 -49.7336 	 12.1187 	 -16.921
| 22> H 	 -50.8771 	 11.292 	 -17.9798
| 23> S 	 -55.2296 	 12.9343 	 -20.9231
| 24> C 	 -56.4492 	 12.8827 	 -22.1471
| 25> C 	 -56.2563 	 11.8863 	 -22.9976
| 26> C 	 -55.0743 	 11.0439 	 -22.7816
| 27> C 	 -54.3312 	 11.6371 	 -21.7793
| 28> H 	 -56.9991 	 11.6608 	 -23.6936
| 29> C 	 -54.7618 	 9.90205 	 -23.742
| 30> H 	 -55.552 	 9.25473 	 -23.6567
| 31> H 	 -53.8634 	 9.56686 	 -23.2294
| 32> C 	 -54.4505 	 10.1592 	 -25.2124
| 33> H 	 -53.7391 	 10.979 	 -25.3291
| 34> H 	 -55.3546 	 10.5808 	 -25.6494
| 35> C 	 -54.1826 	 8.76031 	 -25.9421
| 36> H 	 -53.212 	 8.39068 	 -25.6745
| 37> H 	 -54.2141 	 8.83012 	 -27.0723
| 38> H 	 -54.9464 	 7.9988 	 -25.6069
| 39> H 	 -50.3229 	 8.99866 	 -20.3225
| 40> H 	 -57.3615 	 13.4828 	 -22.1008
| 41> *
| 42>
| 43>                          ****END OF INPUT****

CARTESIAN COORDINATES (ANGSTROEM)
---------------------------------
  S    -52.717600    9.472320  -20.906600
  C    -51.058700    9.816310  -20.562500
  C    -50.770600   11.156300  -20.621800
  C    -51.910800   11.833200  -21.059500
  C    -53.059600   11.149300  -21.271100
  H    -52.014700   12.938100  -21.111200
  C    -49.401800   11.810200  -20.367200
  H    -49.492300   12.644600  -21.079500
  H    -48.484200   11.200700  -20.562800
  C    -49.318100   12.457700  -18.922400
  H    -48.312200   12.723100  -18.626900
  H    -49.781600   13.393400  -18.779300
  C    -49.829900   11.492800  -17.824300
  H    -49.204600   10.595000  -17.730600
  H    -49.733600   12.118700  -16.921000
  H    -50.877100   11.292000  -17.979800
  S    -55.229600   12.934300  -20.923100
  C    -56.449200   12.882700  -22.147100
  C    -56.256300   11.886300  -22.997600
  C    -55.074300   11.043900  -22.781600
  C    -54.331200   11.637100  -21.779300
  H    -56.999100   11.660800  -23.693600
  C    -54.761800    9.902050  -23.742000
  H    -55.552000    9.254730  -23.656700
  H    -53.863400    9.566860  -23.229400
  C    -54.450500   10.159200  -25.212400
  H    -53.739100   10.979000  -25.329100
  H    -55.354600   10.580800  -25.649400
  C    -54.182600    8.760310  -25.942100
  H    -53.212000    8.390680  -25.674500
  H    -54.214100    8.830120  -27.072300
  H    -54.946400    7.998800  -25.606900
  H    -50.322900    8.998660  -20.322500
  H    -57.361500   13.482800  -22.100800

 Total Charge           Charge          ....    0
 Multiplicity           Mult            ....    1
 Number of Electrons    NEL             ....  134
 Basis Dimension        Dim             ....  322

ORBITAL ENERGIES
----------------

  NO   OCC          E(Eh)            E(eV)
   0   2.0000     -88.964579     -2420.8493
   1   2.0000     -88.964202     -2420.8390
   2   2.0000     -10.330194      -281.0989
   3   2.0000     -10.323115      -280.9062
   4   2.0000     -10.315146      -280.6894
   5   2.0000     -10.311156      -280.5808
   6   2.0000     -10.304685      -280.4047
   7   2.0000     -10.302419      -280.3431
   8   2.0000     -10.299214      -280.2559
   9   2.0000     -10.291045      -280.0336
  10   2.0000     -10.290595      -280.0213
  11   2.0000     -10.288568      -279.9662
  12   2.0000     -10.283382      -279.8251
  13   2.0000     -10.282652      -279.8052
  14   2.0000     -10.282386      -279.7980
  15   2.0000     -10.272425      -279.5269
  16   2.0000      -8.079436      -219.8526
  17   2.0000      -8.078926      -219.8388
  18   2.0000      -6.037846      -164.2981
  19   2.0000      -6.037579      -164.2909
  20   2.0000      -6.033860      -164.1897
  21   2.0000      -6.033587      -164.1823
  22   2.0000      -6.030333      -164.0937
  23   2.0000      -6.029390      -164.0680
  24   2.0000      -1.011093       -27.5132
  25   2.0000      -0.988901       -26.9094
  26   2.0000      -0.909328       -24.7441
  27   2.0000      -0.904275       -24.6066
  28   2.0000      -0.871089       -23.7035
  29   2.0000      -0.848565       -23.0906
  30   2.0000      -0.842793       -22.9336
  31   2.0000      -0.814415       -22.1614
  32   2.0000      -0.782430       -21.2910
  33   2.0000      -0.772368       -21.0172
  34   2.0000      -0.710337       -19.3293
  35   2.0000      -0.701355       -19.0848
  36   2.0000      -0.690956       -18.8019
  37   2.0000      -0.662685       -18.0326
  38   2.0000      -0.634905       -17.2766
  39   2.0000      -0.619482       -16.8570
  40   2.0000      -0.596501       -16.2316
  41   2.0000      -0.571332       -15.5467
  42   2.0000      -0.561641       -15.2830
  43   2.0000      -0.545807       -14.8522
  44   2.0000      -0.543122       -14.7791
  45   2.0000      -0.521487       -14.1904
  46   2.0000      -0.512529       -13.9466
  47   2.0000      -0.510595       -13.8940
  48   2.0000      -0.508598       -13.8397
  49   2.0000      -0.490098       -13.3362
  50   2.0000      -0.488319       -13.2878
  51   2.0000      -0.475533       -12.9399
  52   2.0000      -0.468976       -12.7615
  53   2.0000      -0.464316       -12.6347
  54   2.0000      -0.459634       -12.5073
  55   2.0000      -0.449238       -12.2244
  56   2.0000      -0.445038       -12.1101
  57   2.0000      -0.438579       -11.9343
  58   2.0000      -0.430511       -11.7148
  59   2.0000      -0.426864       -11.6156
  60   2.0000      -0.422641       -11.5006
  61   2.0000      -0.411847       -11.2069
  62   2.0000      -0.404729       -11.0132
  63   2.0000      -0.349752        -9.5172
  64   2.0000      -0.331681        -9.0255
  65   2.0000      -0.329353        -8.9621
  66   2.0000      -0.297171        -8.0864
  67   0.0000       0.033906         0.9226
  68   0.0000       0.075793         2.0624
  69   0.0000       0.105869         2.8809
  70   0.0000       0.122107         3.3227
  71   0.0000       0.135997         3.7007

MULLIKEN ATOMIC CHARGES
-----------------------
   0 S :    0.111156
   1 C :   -0.163750
   2 C :   -0.074951
   3 C :    0.001484
   4 C :   -0.168593
   5 H :    0.015827
   6 C :    0.077382
   7 H :    0.032761
   8 H :    0.048300
   9 C :   -0.073218
  10 H :    0.017655
  11 H :    0.017078
  12 C :   -0.064663
  13 H :    0.035842
  14 H :    0.028235
  15 H :    0.053728
  16 S :    0.100817
  17 C :   -0.078038
  18 C :   -0.009955
  19 C :   -0.066153
  20 C :   -0.152070
  21 H :   -0.009810
  22 C :    0.111670
  23 H :    0.010180
  24 H :    0.016079
  25 C :   -0.052021
  26 H :    0.038003
  27 H :    0.017551
  28 C :   -0.075450
  29 H :    0.037153
  30 H :    0.048285
  31 H :    0.041765
  32 H :    0.067293
  33 H :    0.060428
Sum of atomic charges:   -0.0000000

LOEWDIN ATOMIC CHARGES
----------------------
   0 S :    0.422108
   1 C :   -0.202863
   2 C :   -0.075055
   3 C :   -0.071010
   4 C :   -0.198816
   5 H :    0.033257
   6 C :   -0.028405
   7 H :    0.035967
   8 H :    0.038569
   9 C :   -0.041062
  10 H :    0.021500
  11 H :    0.017302
  12 C :   -0.063750
  13 H :    0.023558
  14 H :    0.027837
  15 H :    0.024142
  16 S :    0.384135
  17 C :   -0.185699
  18 C :   -0.068626
  19 C :   -0.044529
  20 C :   -0.183217
  21 H :    0.018965
  22 C :   -0.029814
  23 H :    0.020892
  24 H :    0.018646
  25 C :   -0.035108
  26 H :    0.027958
  27 H :    0.019263
  28 C :   -0.066212
  29 H :    0.021208
  30 H :    0.032642
  31 H :    0.033105
  32 H :    0.037938
  33 H :    0.035174

  Mayer bond orders larger than 0.100000
B(  0-S ,  1-C ) :   1.1657 B(  0-S ,  4-C ) :   1.1306 B(  1-C ,  2-C ) :   1.5785
B(  1-C , 32-H ) :   0.9602 B(  2-C ,  3-C ) :   1.2631 B(  2-C ,  6-C ) :   1.0043
B(  3-C ,  4-C ) :   1.5943 B(  3-C ,  5-H ) :   0.9830 B(  4-C , 20-C ) :   1.0462
B(  6-C ,  7-H ) :   0.9424 B(  6-C ,  8-H ) :   0.9532 B(  6-C ,  9-C ) :   1.0537
B(  9-C , 10-H ) :   0.9600 B(  9-C , 11-H ) :   0.9590 B(  9-C , 12-C ) :   1.0824
B( 12-C , 13-H ) :   0.9789 B( 12-C , 14-H ) :   0.9744 B( 12-C , 15-H ) :   0.9707
B( 16-S , 17-C ) :   1.1178 B( 16-S , 20-C ) :   1.1267 B( 17-C , 18-C ) :   1.6736
B( 17-C , 33-H ) :   0.9613 B( 18-C , 19-C ) :   1.1827 B( 18-C , 21-H ) :   0.9952
B( 19-C , 20-C ) :   1.6192 B( 19-C , 22-C ) :   1.0317 B( 22-C , 23-H ) :   0.9202
B( 22-C , 24-H ) :   0.9201 B( 22-C , 25-C ) :   1.0776 B( 25-C , 26-H ) :   0.9592
B( 25-C , 27-H ) :   0.9529 B( 25-C , 28-C ) :   1.0561 B( 28-C , 29-H ) :   0.9813
B( 28-C , 30-H ) :   0.9769 B( 28-C , 31-H ) :   0.9741

Dispersion correction           -0.014275938
FINAL SINGLE POINT ENERGY     -1339.865161870859

DIPOLE MOMENT
-------------
                                X             Y             Z
Electronic contribution:    -12.36063       3.68007       5.97226
Nuclear contribution   :     12.49753      -3.66815      -6.21363
                        -----------------------------------------
Total Dipole Moment    :      0.13691       0.01192      -0.24138
                        -----------------------------------------
Magnitude (a.u.)       :      0.27776
Magnitude (Debye)      :      0.70600

Rotational constants in cm-1:     0.020195     0.008237     0.006520
Rotational constants in MHz :   605.426852   246.946445   195.477491

                             ****ORCA TERMINATED NORMALLY****
TOTAL RUN TIME: 0 days 0 hours 0 minutes 21 seconds 406 msec
