                         Program Version 4.2.1 -  RELEASE  -
|  1> ! wB97X-D3 SP def2-SVP
|  2> %pal
|  3> nprocs 24
|  4> end
|  5>
|  6> * xyz 0 1
|  7> S 	 -114.327 	 59.6914 	 -29.7121
|  8> C 	 -113.084 	 60.6907 	 -28.9378
|  9> C 	 -113.432 	 62.0258 	 -28.8908
| 10> C 	 -114.721 	 62.2711 	 -29.3543
| 11> C 	 -115.36 	 61.1096 	 -29.8191
| 12> H 	 -115.332 	 63.2202 	 -29.3783
| 13> C 	 -112.499 	 63.1347 	 -28.3384
| 14> H 	 -112.476 	 63.9947 	 -29.0203
| 15> H 	 -111.515 	 62.7624 	 -28.1159
| 16> C 	 -112.992 	 63.6891 	 -27.0282
| 17> H 	 -113.948 	 64.3164 	 -27.2396
| 18> H 	 -113.248 	 62.7983 	 -26.4063
| 19> C 	 -111.962 	 64.4823 	 -26.2122
| 20> H 	 -111.356 	 65.229 	 -26.6881
| 21> H 	 -112.431 	 65.0672 	 -25.4029
| 22> H 	 -111.246 	 63.7503 	 -25.6757
| 23> S 	 -117.396 	 61.9538 	 -31.567
| 24> C 	 -118.993 	 61.4347 	 -31.3038
| 25> C 	 -119.044 	 60.606 	 -30.1351
| 26> C 	 -117.818 	 60.4186 	 -29.4486
| 27> C 	 -116.787 	 61.0179 	 -30.1829
| 28> H 	 -120.009 	 60.3081 	 -29.7835
| 29> C 	 -117.623 	 59.6761 	 -28.0599
| 30> H 	 -116.789 	 59.0023 	 -28.0777
| 31> H 	 -118.479 	 59.0305 	 -28.031
| 32> C 	 -117.808 	 60.5747 	 -26.8482
| 33> H 	 -117.734 	 59.8966 	 -25.9874
| 34> H 	 -118.75 	 60.9968 	 -26.616
| 35> C 	 -116.71 	 61.6719 	 -26.7191
| 36> H 	 -116.745 	 61.954 	 -25.7361
| 37> H 	 -116.924 	 62.6111 	 -27.2424
| 38> H 	 -115.725 	 61.3984 	 -26.942
| 39> H 	 -112.111 	 60.3195 	 -28.4929
| 40> H 	 -119.857 	 61.6635 	 -31.9096
| 41> *
| 42>
| 43>                          ****END OF INPUT****

CARTESIAN COORDINATES (ANGSTROEM)
---------------------------------
  S    -114.327000   59.691400  -29.712100
  C    -113.084000   60.690700  -28.937800
  C    -113.432000   62.025800  -28.890800
  C    -114.721000   62.271100  -29.354300
  C    -115.360000   61.109600  -29.819100
  H    -115.332000   63.220200  -29.378300
  C    -112.499000   63.134700  -28.338400
  H    -112.476000   63.994700  -29.020300
  H    -111.515000   62.762400  -28.115900
  C    -112.992000   63.689100  -27.028200
  H    -113.948000   64.316400  -27.239600
  H    -113.248000   62.798300  -26.406300
  C    -111.962000   64.482300  -26.212200
  H    -111.356000   65.229000  -26.688100
  H    -112.431000   65.067200  -25.402900
  H    -111.246000   63.750300  -25.675700
  S    -117.396000   61.953800  -31.567000
  C    -118.993000   61.434700  -31.303800
  C    -119.044000   60.606000  -30.135100
  C    -117.818000   60.418600  -29.448600
  C    -116.787000   61.017900  -30.182900
  H    -120.009000   60.308100  -29.783500
  C    -117.623000   59.676100  -28.059900
  H    -116.789000   59.002300  -28.077700
  H    -118.479000   59.030500  -28.031000
  C    -117.808000   60.574700  -26.848200
  H    -117.734000   59.896600  -25.987400
  H    -118.750000   60.996800  -26.616000
  C    -116.710000   61.671900  -26.719100
  H    -116.745000   61.954000  -25.736100
  H    -116.924000   62.611100  -27.242400
  H    -115.725000   61.398400  -26.942000
  H    -112.111000   60.319500  -28.492900
  H    -119.857000   61.663500  -31.909600

 Total Charge           Charge          ....    0
 Multiplicity           Mult            ....    1
 Number of Electrons    NEL             ....  134
 Basis Dimension        Dim             ....  322

ORBITAL ENERGIES
----------------

  NO   OCC          E(Eh)            E(eV)
   0   2.0000     -88.971797     -2421.0457
   1   2.0000     -88.968357     -2420.9521
   2   2.0000     -10.329208      -281.0720
   3   2.0000     -10.325139      -280.9613
   4   2.0000     -10.319618      -280.8111
   5   2.0000     -10.317738      -280.7599
   6   2.0000     -10.306159      -280.4449
   7   2.0000     -10.301604      -280.3209
   8   2.0000     -10.296943      -280.1941
   9   2.0000     -10.294085      -280.1163
  10   2.0000     -10.293799      -280.1085
  11   2.0000     -10.293160      -280.0911
  12   2.0000     -10.291934      -280.0578
  13   2.0000     -10.285857      -279.8924
  14   2.0000     -10.284103      -279.8447
  15   2.0000     -10.257414      -279.1184
  16   2.0000      -8.085362      -220.0139
  17   2.0000      -8.083003      -219.9497
  18   2.0000      -6.043791      -164.4599
  19   2.0000      -6.041317      -164.3926
  20   2.0000      -6.040044      -164.3580
  21   2.0000      -6.037359      -164.2849
  22   2.0000      -6.036268      -164.2552
  23   2.0000      -6.034161      -164.1979
  24   2.0000      -1.001763       -27.2594
  25   2.0000      -0.981535       -26.7089
  26   2.0000      -0.912390       -24.8274
  27   2.0000      -0.904575       -24.6147
  28   2.0000      -0.860940       -23.4274
  29   2.0000      -0.848694       -23.0941
  30   2.0000      -0.845391       -23.0043
  31   2.0000      -0.804558       -21.8931
  32   2.0000      -0.789071       -21.4717
  33   2.0000      -0.774111       -21.0646
  34   2.0000      -0.706744       -19.2315
  35   2.0000      -0.694631       -18.9019
  36   2.0000      -0.684407       -18.6237
  37   2.0000      -0.658777       -17.9262
  38   2.0000      -0.632914       -17.2225
  39   2.0000      -0.615743       -16.7552
  40   2.0000      -0.592063       -16.1108
  41   2.0000      -0.573560       -15.6074
  42   2.0000      -0.558111       -15.1870
  43   2.0000      -0.549325       -14.9479
  44   2.0000      -0.536856       -14.6086
  45   2.0000      -0.519413       -14.1339
  46   2.0000      -0.515175       -14.0186
  47   2.0000      -0.505283       -13.7495
  48   2.0000      -0.502806       -13.6820
  49   2.0000      -0.496195       -13.5021
  50   2.0000      -0.487443       -13.2640
  51   2.0000      -0.475248       -12.9322
  52   2.0000      -0.473137       -12.8747
  53   2.0000      -0.466216       -12.6864
  54   2.0000      -0.460309       -12.5256
  55   2.0000      -0.453704       -12.3459
  56   2.0000      -0.443937       -12.0801
  57   2.0000      -0.436713       -11.8836
  58   2.0000      -0.429134       -11.6773
  59   2.0000      -0.422593       -11.4994
  60   2.0000      -0.415639       -11.3101
  61   2.0000      -0.414028       -11.2663
  62   2.0000      -0.405037       -11.0216
  63   2.0000      -0.340156        -9.2561
  64   2.0000      -0.333297        -9.0695
  65   2.0000      -0.326832        -8.8936
  66   2.0000      -0.293698        -7.9919
  67   0.0000       0.032576         0.8864
  68   0.0000       0.062574         1.7027
  69   0.0000       0.110239         2.9998
  70   0.0000       0.119442         3.2502
  71   0.0000       0.131019         3.5652

MULLIKEN ATOMIC CHARGES
-----------------------
   0 S :    0.125029
   1 C :   -0.159498
   2 C :   -0.065564
   3 C :    0.009309
   4 C :   -0.178807
   5 H :    0.039762
   6 C :    0.114556
   7 H :    0.034814
   8 H :    0.005433
   9 C :   -0.139974
  10 H :    0.045155
  11 H :    0.041795
  12 C :   -0.060110
  13 H :    0.027946
  14 H :    0.035599
  15 H :    0.039084
  16 S :    0.129293
  17 C :   -0.103595
  18 C :   -0.043435
  19 C :   -0.026109
  20 C :   -0.199472
  21 H :    0.004411
  22 C :    0.129667
  23 H :    0.029527
  24 H :    0.003545
  25 C :   -0.055058
  26 H :    0.019560
  27 H :    0.014802
  28 C :    0.005223
  29 H :   -0.002421
  30 H :    0.025091
  31 H :    0.027863
  32 H :    0.065242
  33 H :    0.061339
Sum of atomic charges:    0.0000000

LOEWDIN ATOMIC CHARGES
----------------------
   0 S :    0.406551
   1 C :   -0.206615
   2 C :   -0.066839
   3 C :   -0.064984
   4 C :   -0.192447
   5 H :    0.042728
   6 C :   -0.025158
   7 H :    0.033400
   8 H :    0.023720
   9 C :   -0.053398
  10 H :    0.029330
  11 H :    0.029283
  12 C :   -0.077752
  13 H :    0.018974
  14 H :    0.030761
  15 H :    0.034218
  16 S :    0.427811
  17 C :   -0.209279
  18 C :   -0.073014
  19 C :   -0.049088
  20 C :   -0.205104
  21 H :    0.022228
  22 C :   -0.019880
  23 H :    0.025439
  24 H :    0.028971
  25 C :   -0.032410
  26 H :    0.027557
  27 H :    0.021690
  28 C :   -0.056137
  29 H :    0.014090
  30 H :    0.026430
  31 H :    0.017645
  32 H :    0.040202
  33 H :    0.031077

  Mayer bond orders larger than 0.100000
B(  0-S ,  1-C ) :   1.1366 B(  0-S ,  4-C ) :   1.1602 B(  1-C ,  2-C ) :   1.6080
B(  1-C ,  4-C ) :   0.1013 B(  1-C , 32-H ) :   0.9569 B(  2-C ,  3-C ) :   1.2466
B(  2-C ,  6-C ) :   1.0296 B(  3-C ,  4-C ) :   1.5730 B(  3-C ,  5-H ) :   0.9826
B(  4-C , 20-C ) :   1.0167 B(  6-C ,  7-H ) :   0.9370 B(  6-C ,  8-H ) :   0.9405
B(  6-C ,  9-C ) :   1.0592 B(  9-C , 10-H ) :   0.9544 B(  9-C , 11-H ) :   0.9543
B(  9-C , 12-C ) :   1.0813 B( 12-C , 13-H ) :   0.9758 B( 12-C , 14-H ) :   0.9738
B( 12-C , 15-H ) :   0.9728 B( 16-S , 17-C ) :   1.1828 B( 16-S , 20-C ) :   1.1631
B( 17-C , 18-C ) :   1.5565 B( 17-C , 20-C ) :   0.1104 B( 17-C , 33-H ) :   0.9703
B( 18-C , 19-C ) :   1.2945 B( 18-C , 21-H ) :   0.9881 B( 19-C , 20-C ) :   1.5445
B( 19-C , 22-C ) :   1.0147 B( 22-C , 23-H ) :   0.9391 B( 22-C , 24-H ) :   0.9242
B( 22-C , 25-C ) :   1.0827 B( 25-C , 26-H ) :   0.9525 B( 25-C , 27-H ) :   0.9537
B( 25-C , 28-C ) :   1.0770 B( 28-C , 29-H ) :   0.9655 B( 28-C , 30-H ) :   0.9724
B( 28-C , 31-H ) :   0.9751

Dispersion correction           -0.016574361
FINAL SINGLE POINT ENERGY     -1339.865745257862

DIPOLE MOMENT
-------------
                                X             Y             Z
Electronic contribution:     -6.91586     -11.11543     -24.69611
Nuclear contribution   :      6.82291      11.35542      25.33097
                        -----------------------------------------
Total Dipole Moment    :     -0.09294       0.23999       0.63486
                        -----------------------------------------
Magnitude (a.u.)       :      0.68504
Magnitude (Debye)      :      1.74124

Rotational constants in cm-1:     0.020971     0.008473     0.007916
Rotational constants in MHz :   628.697643   254.016688   237.324806

                             ****ORCA TERMINATED NORMALLY****
TOTAL RUN TIME: 0 days 0 hours 0 minutes 22 seconds 921 msec
