                         Program Version 4.2.1 -  RELEASE  -
|  1> ! wB97X-D3 SP def2-SVP
|  2> %pal
|  3> nprocs 24
|  4> end
|  5>
|  6> * xyz 0 1
|  7> S 	 -83.1512 	 -14.9171 	 -55.7141
|  8> C 	 -84.6213 	 -14.4096 	 -54.9438
|  9> C 	 -85.374 	 -15.4766 	 -54.3594
| 10> C 	 -84.8905 	 -16.7658 	 -54.8052
| 11> C 	 -83.6271 	 -16.6163 	 -55.4643
| 12> H 	 -85.4435 	 -17.6904 	 -54.7399
| 13> C 	 -86.616 	 -15.3377 	 -53.5358
| 14> H 	 -87.4707 	 -15.452 	 -54.1208
| 15> H 	 -86.6108 	 -14.3142 	 -53.2282
| 16> C 	 -86.654 	 -16.2405 	 -52.2716
| 17> H 	 -86.472 	 -17.3218 	 -52.5555
| 18> H 	 -85.7365 	 -15.9104 	 -51.7339
| 19> C 	 -87.8733 	 -16.0206 	 -51.3535
| 20> H 	 -87.6722 	 -15.2352 	 -50.6384
| 21> H 	 -88.7644 	 -15.7509 	 -51.928
| 22> H 	 -88.0954 	 -16.8879 	 -50.6446
| 23> S 	 -82.1351 	 -17.3156 	 -57.5529
| 24> C 	 -81.7542 	 -18.9749 	 -57.924
| 25> C 	 -82.2027 	 -19.8168 	 -56.9348
| 26> C 	 -82.8741 	 -19.0817 	 -55.8988
| 27> C 	 -82.9665 	 -17.714 	 -56.1095
| 28> H 	 -82.0857 	 -20.8729 	 -56.9137
| 29> C 	 -83.4383 	 -19.8068 	 -54.644
| 30> H 	 -84.0387 	 -20.6028 	 -54.9923
| 31> H 	 -84.0436 	 -19.0485 	 -53.9841
| 32> C 	 -82.3375 	 -20.4103 	 -53.8179
| 33> H 	 -81.6694 	 -21.0487 	 -54.427
| 34> H 	 -82.9775 	 -21.035 	 -53.1811
| 35> C 	 -81.4604 	 -19.3814 	 -53.1463
| 36> H 	 -80.8095 	 -18.9436 	 -53.9421
| 37> H 	 -80.7999 	 -19.8107 	 -52.4451
| 38> H 	 -82.0473 	 -18.635 	 -52.6901
| 39> H 	 -84.8773 	 -13.4109 	 -54.5877
| 40> H 	 -81.1058 	 -19.3738 	 -58.6603
| 41> *
| 42>
| 43>                          ****END OF INPUT****

CARTESIAN COORDINATES (ANGSTROEM)
---------------------------------
  S    -83.151200  -14.917100  -55.714100
  C    -84.621300  -14.409600  -54.943800
  C    -85.374000  -15.476600  -54.359400
  C    -84.890500  -16.765800  -54.805200
  C    -83.627100  -16.616300  -55.464300
  H    -85.443500  -17.690400  -54.739900
  C    -86.616000  -15.337700  -53.535800
  H    -87.470700  -15.452000  -54.120800
  H    -86.610800  -14.314200  -53.228200
  C    -86.654000  -16.240500  -52.271600
  H    -86.472000  -17.321800  -52.555500
  H    -85.736500  -15.910400  -51.733900
  C    -87.873300  -16.020600  -51.353500
  H    -87.672200  -15.235200  -50.638400
  H    -88.764400  -15.750900  -51.928000
  H    -88.095400  -16.887900  -50.644600
  S    -82.135100  -17.315600  -57.552900
  C    -81.754200  -18.974900  -57.924000
  C    -82.202700  -19.816800  -56.934800
  C    -82.874100  -19.081700  -55.898800
  C    -82.966500  -17.714000  -56.109500
  H    -82.085700  -20.872900  -56.913700
  C    -83.438300  -19.806800  -54.644000
  H    -84.038700  -20.602800  -54.992300
  H    -84.043600  -19.048500  -53.984100
  C    -82.337500  -20.410300  -53.817900
  H    -81.669400  -21.048700  -54.427000
  H    -82.977500  -21.035000  -53.181100
  C    -81.460400  -19.381400  -53.146300
  H    -80.809500  -18.943600  -53.942100
  H    -80.799900  -19.810700  -52.445100
  H    -82.047300  -18.635000  -52.690100
  H    -84.877300  -13.410900  -54.587700
  H    -81.105800  -19.373800  -58.660300

 Total Charge           Charge          ....    0
 Multiplicity           Mult            ....    1
 Number of Electrons    NEL             ....  134
 Basis Dimension        Dim             ....  322

ORBITAL ENERGIES
----------------

  NO   OCC          E(Eh)            E(eV)
   0   2.0000     -88.977866     -2421.2108
   1   2.0000     -88.961676     -2420.7703
   2   2.0000     -10.337615      -281.3008
   3   2.0000     -10.320688      -280.8402
   4   2.0000     -10.317481      -280.7529
   5   2.0000     -10.312575      -280.6194
   6   2.0000     -10.306635      -280.4578
   7   2.0000     -10.300904      -280.3018
   8   2.0000     -10.299469      -280.2628
   9   2.0000     -10.297319      -280.2043
  10   2.0000     -10.291840      -280.0552
  11   2.0000     -10.291539      -280.0470
  12   2.0000     -10.287008      -279.9237
  13   2.0000     -10.286763      -279.9171
  14   2.0000     -10.280931      -279.7583
  15   2.0000     -10.265280      -279.3325
  16   2.0000      -8.091467      -220.1800
  17   2.0000      -8.077430      -219.7980
  18   2.0000      -6.050075      -164.6309
  19   2.0000      -6.046236      -164.5264
  20   2.0000      -6.042098      -164.4139
  21   2.0000      -6.035995      -164.2478
  22   2.0000      -6.031711      -164.1312
  23   2.0000      -6.028147      -164.0342
  24   2.0000      -1.008866       -27.4526
  25   2.0000      -0.980010       -26.6674
  26   2.0000      -0.914808       -24.8932
  27   2.0000      -0.911567       -24.8050
  28   2.0000      -0.872065       -23.7301
  29   2.0000      -0.852432       -23.1959
  30   2.0000      -0.841580       -22.9005
  31   2.0000      -0.812993       -22.1227
  32   2.0000      -0.782853       -21.3025
  33   2.0000      -0.772855       -21.0305
  34   2.0000      -0.712518       -19.3886
  35   2.0000      -0.693856       -18.8808
  36   2.0000      -0.688706       -18.7407
  37   2.0000      -0.661783       -18.0080
  38   2.0000      -0.634792       -17.2736
  39   2.0000      -0.622996       -16.9526
  40   2.0000      -0.597058       -16.2468
  41   2.0000      -0.573702       -15.6112
  42   2.0000      -0.560706       -15.2576
  43   2.0000      -0.556610       -15.1461
  44   2.0000      -0.538745       -14.6600
  45   2.0000      -0.522676       -14.2227
  46   2.0000      -0.517183       -14.0733
  47   2.0000      -0.514593       -14.0028
  48   2.0000      -0.506392       -13.7796
  49   2.0000      -0.496966       -13.5231
  50   2.0000      -0.491758       -13.3814
  51   2.0000      -0.480918       -13.0864
  52   2.0000      -0.471575       -12.8322
  53   2.0000      -0.463669       -12.6171
  54   2.0000      -0.457967       -12.4619
  55   2.0000      -0.450451       -12.2574
  56   2.0000      -0.443943       -12.0803
  57   2.0000      -0.437932       -11.9167
  58   2.0000      -0.433909       -11.8073
  59   2.0000      -0.428603       -11.6629
  60   2.0000      -0.422329       -11.4922
  61   2.0000      -0.418210       -11.3801
  62   2.0000      -0.397789       -10.8244
  63   2.0000      -0.359618        -9.7857
  64   2.0000      -0.333548        -9.0763
  65   2.0000      -0.325371        -8.8538
  66   2.0000      -0.278948        -7.5906
  67   0.0000       0.018203         0.4953
  68   0.0000       0.081313         2.2126
  69   0.0000       0.097844         2.6625
  70   0.0000       0.107748         2.9320
  71   0.0000       0.135301         3.6817

MULLIKEN ATOMIC CHARGES
-----------------------
   0 S :    0.130401
   1 C :   -0.102476
   2 C :   -0.134513
   3 C :   -0.014867
   4 C :   -0.118498
   5 H :    0.041361
   6 C :    0.120696
   7 H :    0.027890
   8 H :    0.000640
   9 C :   -0.133233
  10 H :    0.042393
  11 H :    0.038647
  12 C :   -0.048128
  13 H :    0.031395
  14 H :    0.037874
  15 H :    0.045211
  16 S :    0.089734
  17 C :   -0.057703
  18 C :   -0.031442
  19 C :   -0.086327
  20 C :   -0.127722
  21 H :    0.009839
  22 C :    0.043102
  23 H :    0.017649
  24 H :    0.040378
  25 C :   -0.087817
  26 H :    0.024980
  27 H :    0.025146
  28 C :   -0.005888
  29 H :    0.043855
  30 H :    0.023498
  31 H :    0.020794
  32 H :    0.049414
  33 H :    0.043717
Sum of atomic charges:   -0.0000000

LOEWDIN ATOMIC CHARGES
----------------------
   0 S :    0.409923
   1 C :   -0.217145
   2 C :   -0.052284
   3 C :   -0.055890
   4 C :   -0.180589
   5 H :    0.032487
   6 C :   -0.030246
   7 H :    0.023453
   8 H :    0.026697
   9 C :   -0.047482
  10 H :    0.025337
  11 H :    0.031192
  12 C :   -0.074407
  13 H :    0.026020
  14 H :    0.025744
  15 H :    0.037881
  16 S :    0.417416
  17 C :   -0.184304
  18 C :   -0.066282
  19 C :   -0.063426
  20 C :   -0.212113
  21 H :    0.026861
  22 C :   -0.033822
  23 H :    0.022448
  24 H :    0.038373
  25 C :   -0.044733
  26 H :    0.022696
  27 H :    0.023145
  28 C :   -0.056224
  29 H :    0.036882
  30 H :    0.019817
  31 H :    0.018462
  32 H :    0.028166
  33 H :    0.025949

  Mayer bond orders larger than 0.100000
B(  0-S ,  1-C ) :   1.1306 B(  0-S ,  4-C ) :   1.1480 B(  1-C ,  2-C ) :   1.6072
B(  1-C , 32-H ) :   0.9551 B(  2-C ,  3-C ) :   1.2415 B(  2-C ,  6-C ) :   1.0389
B(  3-C ,  4-C ) :   1.5419 B(  3-C ,  5-H ) :   0.9789 B(  4-C , 20-C ) :   1.0908
B(  6-C ,  7-H ) :   0.9296 B(  6-C ,  8-H ) :   0.9324 B(  6-C ,  9-C ) :   1.0520
B(  9-C , 10-H ) :   0.9600 B(  9-C , 11-H ) :   0.9614 B(  9-C , 12-C ) :   1.0694
B( 12-C , 13-H ) :   0.9758 B( 12-C , 14-H ) :   0.9768 B( 12-C , 15-H ) :   0.9743
B( 16-S , 17-C ) :   1.1557 B( 16-S , 20-C ) :   1.1318 B( 17-C , 18-C ) :   1.5947
B( 17-C , 33-H ) :   0.9697 B( 18-C , 19-C ) :   1.2624 B( 18-C , 21-H ) :   0.9922
B( 19-C , 20-C ) :   1.5796 B( 19-C , 22-C ) :   1.0224 B( 22-C , 23-H ) :   0.9310
B( 22-C , 24-H ) :   0.9380 B( 22-C , 25-C ) :   1.0763 B( 25-C , 26-H ) :   0.9547
B( 25-C , 27-H ) :   0.9560 B( 25-C , 28-C ) :   1.0742 B( 28-C , 29-H ) :   0.9696
B( 28-C , 30-H ) :   0.9726 B( 28-C , 31-H ) :   0.9759

Dispersion correction           -0.014443226
FINAL SINGLE POINT ENERGY     -1339.864711137659

DIPOLE MOMENT
-------------
                                X             Y             Z
Electronic contribution:     12.60620      10.37122     -24.19243
Nuclear contribution   :    -12.95893     -10.71516      24.66778
                        -----------------------------------------
Total Dipole Moment    :     -0.35273      -0.34394       0.47536
                        -----------------------------------------
Magnitude (a.u.)       :      0.68460
Magnitude (Debye)      :      1.74012

Rotational constants in cm-1:     0.019079     0.008947     0.006810
Rotational constants in MHz :   571.978757   268.220406   204.154380

                             ****ORCA TERMINATED NORMALLY****
TOTAL RUN TIME: 0 days 0 hours 0 minutes 20 seconds 962 msec
