                         Program Version 4.2.1 -  RELEASE  -
|  1> ! wB97X-D3 SP def2-SVP
|  2> %pal
|  3> nprocs 24
|  4> end
|  5>
|  6> * xyz 0 1
|  7> S 	 -46.4532 	 13.5421 	 34.0815
|  8> C 	 -45.3054 	 13.5066 	 32.7295
|  9> C 	 -45.8472 	 13.9413 	 31.5069
| 10> C 	 -47.1599 	 14.3061 	 31.6676
| 11> C 	 -47.6643 	 13.966 	 32.9295
| 12> H 	 -47.742 	 14.6016 	 30.8427
| 13> C 	 -45.0851 	 13.8908 	 30.187
| 14> H 	 -44.0054 	 14.0624 	 30.4243
| 15> H 	 -45.4681 	 14.7544 	 29.6061
| 16> C 	 -45.336 	 12.6483 	 29.236
| 17> H 	 -46.1798 	 12.7709 	 28.535
| 18> H 	 -44.4304 	 12.6026 	 28.5619
| 19> C 	 -45.4027 	 11.2931 	 29.9636
| 20> H 	 -45.5331 	 10.498 	 29.1989
| 21> H 	 -44.4476 	 11.21 	 30.4508
| 22> H 	 -46.2016 	 11.2705 	 30.7301
| 23> S 	 -50.1889 	 12.7619 	 32.5441
| 24> C 	 -51.5432 	 13.6767 	 33.2507
| 25> C 	 -51.1931 	 14.7274 	 34.0232
| 26> C 	 -49.7753 	 15.0026 	 33.9926
| 27> C 	 -49.0944 	 13.9243 	 33.3534
| 28> H 	 -51.9985 	 15.3766 	 34.4495
| 29> C 	 -49.2471 	 16.3247 	 34.4784
| 30> H 	 -48.1771 	 16.3673 	 34.2889
| 31> H 	 -49.454 	 16.3045 	 35.5943
| 32> C 	 -50.0005 	 17.6201 	 34.0976
| 33> H 	 -49.795 	 18.4927 	 34.7826
| 34> H 	 -51.0451 	 17.4653 	 34.3468
| 35> C 	 -49.9804 	 17.9842 	 32.5759
| 36> H 	 -48.9859 	 18.3279 	 32.3027
| 37> H 	 -50.6593 	 18.8134 	 32.4136
| 38> H 	 -50.2522 	 17.2267 	 31.8448
| 39> H 	 -44.2882 	 13.0336 	 32.8246
| 40> H 	 -52.5675 	 13.6849 	 32.8633
| 41> *
| 42>
| 43>                          ****END OF INPUT****

CARTESIAN COORDINATES (ANGSTROEM)
---------------------------------
  S    -46.453200   13.542100   34.081500
  C    -45.305400   13.506600   32.729500
  C    -45.847200   13.941300   31.506900
  C    -47.159900   14.306100   31.667600
  C    -47.664300   13.966000   32.929500
  H    -47.742000   14.601600   30.842700
  C    -45.085100   13.890800   30.187000
  H    -44.005400   14.062400   30.424300
  H    -45.468100   14.754400   29.606100
  C    -45.336000   12.648300   29.236000
  H    -46.179800   12.770900   28.535000
  H    -44.430400   12.602600   28.561900
  C    -45.402700   11.293100   29.963600
  H    -45.533100   10.498000   29.198900
  H    -44.447600   11.210000   30.450800
  H    -46.201600   11.270500   30.730100
  S    -50.188900   12.761900   32.544100
  C    -51.543200   13.676700   33.250700
  C    -51.193100   14.727400   34.023200
  C    -49.775300   15.002600   33.992600
  C    -49.094400   13.924300   33.353400
  H    -51.998500   15.376600   34.449500
  C    -49.247100   16.324700   34.478400
  H    -48.177100   16.367300   34.288900
  H    -49.454000   16.304500   35.594300
  C    -50.000500   17.620100   34.097600
  H    -49.795000   18.492700   34.782600
  H    -51.045100   17.465300   34.346800
  C    -49.980400   17.984200   32.575900
  H    -48.985900   18.327900   32.302700
  H    -50.659300   18.813400   32.413600
  H    -50.252200   17.226700   31.844800
  H    -44.288200   13.033600   32.824600
  H    -52.567500   13.684900   32.863300

 Total Charge           Charge          ....    0
 Multiplicity           Mult            ....    1
 Number of Electrons    NEL             ....  134
 Basis Dimension        Dim             ....  322

ORBITAL ENERGIES
----------------

  NO   OCC          E(Eh)            E(eV)
   0   2.0000     -88.969536     -2420.9842
   1   2.0000     -88.969054     -2420.9710
   2   2.0000     -10.329162      -281.0708
   3   2.0000     -10.327380      -281.0223
   4   2.0000     -10.315912      -280.7102
   5   2.0000     -10.314642      -280.6757
   6   2.0000     -10.310295      -280.5574
   7   2.0000     -10.300724      -280.2969
   8   2.0000     -10.297453      -280.2079
   9   2.0000     -10.296684      -280.1870
  10   2.0000     -10.296458      -280.1809
  11   2.0000     -10.294818      -280.1362
  12   2.0000     -10.294686      -280.1326
  13   2.0000     -10.286790      -279.9178
  14   2.0000     -10.276652      -279.6419
  15   2.0000     -10.276172      -279.6289
  16   2.0000      -8.084094      -219.9794
  17   2.0000      -8.082464      -219.9350
  18   2.0000      -6.042273      -164.4186
  19   2.0000      -6.041095      -164.3866
  20   2.0000      -6.038700      -164.3214
  21   2.0000      -6.037421      -164.2866
  22   2.0000      -6.035143      -164.2246
  23   2.0000      -6.032918      -164.1640
  24   2.0000      -1.001419       -27.2500
  25   2.0000      -0.978823       -26.6351
  26   2.0000      -0.904205       -24.6047
  27   2.0000      -0.903822       -24.5943
  28   2.0000      -0.859787       -23.3960
  29   2.0000      -0.850942       -23.1553
  30   2.0000      -0.843053       -22.9406
  31   2.0000      -0.808525       -22.0011
  32   2.0000      -0.784807       -21.3557
  33   2.0000      -0.767737       -20.8912
  34   2.0000      -0.706594       -19.2274
  35   2.0000      -0.694592       -18.9008
  36   2.0000      -0.685949       -18.6656
  37   2.0000      -0.648416       -17.6443
  38   2.0000      -0.634294       -17.2600
  39   2.0000      -0.614979       -16.7344
  40   2.0000      -0.591267       -16.0892
  41   2.0000      -0.555002       -15.1024
  42   2.0000      -0.551360       -15.0033
  43   2.0000      -0.544354       -14.8126
  44   2.0000      -0.540682       -14.7127
  45   2.0000      -0.536551       -14.6003
  46   2.0000      -0.516410       -14.0522
  47   2.0000      -0.509989       -13.8775
  48   2.0000      -0.497405       -13.5351
  49   2.0000      -0.486706       -13.2439
  50   2.0000      -0.479631       -13.0514
  51   2.0000      -0.471511       -12.8305
  52   2.0000      -0.464603       -12.6425
  53   2.0000      -0.461456       -12.5569
  54   2.0000      -0.458323       -12.4716
  55   2.0000      -0.453922       -12.3519
  56   2.0000      -0.448559       -12.2059
  57   2.0000      -0.438595       -11.9348
  58   2.0000      -0.434286       -11.8175
  59   2.0000      -0.424276       -11.5451
  60   2.0000      -0.419990       -11.4285
  61   2.0000      -0.414235       -11.2719
  62   2.0000      -0.412871       -11.2348
  63   2.0000      -0.340282        -9.2595
  64   2.0000      -0.332018        -9.0347
  65   2.0000      -0.315941        -8.5972
  66   2.0000      -0.294912        -8.0250
  67   0.0000       0.033345         0.9074
  68   0.0000       0.053069         1.4441
  69   0.0000       0.102551         2.7906
  70   0.0000       0.110541         3.0080
  71   0.0000       0.120787         3.2868

MULLIKEN ATOMIC CHARGES
-----------------------
   0 S :    0.133480
   1 C :   -0.158932
   2 C :   -0.097829
   3 C :    0.070972
   4 C :   -0.207002
   5 H :   -0.010377
   6 C :    0.052317
   7 H :    0.041559
   8 H :    0.031800
   9 C :   -0.103756
  10 H :    0.035299
  11 H :    0.035669
  12 C :   -0.048870
  13 H :    0.041883
  14 H :    0.022982
  15 H :    0.055360
  16 S :    0.105940
  17 C :   -0.098616
  18 C :   -0.046878
  19 C :   -0.041385
  20 C :   -0.153252
  21 H :    0.040936
  22 C :    0.077968
  23 H :    0.033588
  24 H :    0.045245
  25 C :   -0.091675
  26 H :    0.042669
  27 H :    0.010698
  28 C :   -0.041354
  29 H :    0.027272
  30 H :    0.026756
  31 H :    0.041236
  32 H :    0.061875
  33 H :    0.064422
Sum of atomic charges:    0.0000000

LOEWDIN ATOMIC CHARGES
----------------------
   0 S :    0.421046
   1 C :   -0.207627
   2 C :   -0.068410
   3 C :   -0.059121
   4 C :   -0.200423
   5 H :    0.024946
   6 C :   -0.035829
   7 H :    0.036620
   8 H :    0.036682
   9 C :   -0.046286
  10 H :    0.021714
  11 H :    0.030788
  12 C :   -0.066773
  13 H :    0.030265
  14 H :    0.021091
  15 H :    0.029476
  16 S :    0.376499
  17 C :   -0.180775
  18 C :   -0.076205
  19 C :   -0.043739
  20 C :   -0.206697
  21 H :    0.039929
  22 C :   -0.037228
  23 H :    0.027952
  24 H :    0.048037
  25 C :   -0.044582
  26 H :    0.036200
  27 H :    0.017594
  28 C :   -0.067821
  29 H :    0.022959
  30 H :    0.024794
  31 H :    0.028116
  32 H :    0.031102
  33 H :    0.035706

  Mayer bond orders larger than 0.100000
B(  0-S ,  1-C ) :   1.1511 B(  0-S ,  4-C ) :   1.1842 B(  1-C ,  2-C ) :   1.5725
B(  1-C ,  4-C ) :   0.1088 B(  1-C , 32-H ) :   0.9594 B(  2-C ,  3-C ) :   1.2858
B(  2-C ,  6-C ) :   1.0268 B(  3-C ,  4-C ) :   1.5352 B(  3-C ,  5-H ) :   1.0043
B(  4-C , 20-C ) :   0.9972 B(  6-C ,  7-H ) :   0.9441 B(  6-C ,  8-H ) :   0.9395
B(  6-C ,  9-C ) :   1.0498 B(  9-C , 10-H ) :   0.9607 B(  9-C , 11-H ) :   0.9580
B(  9-C , 12-C ) :   1.0782 B( 12-C , 13-H ) :   0.9739 B( 12-C , 14-H ) :   0.9772
B( 12-C , 15-H ) :   0.9708 B( 16-S , 17-C ) :   1.1319 B( 16-S , 20-C ) :   1.1198
B( 17-C , 18-C ) :   1.6819 B( 17-C , 33-H ) :   0.9530 B( 18-C , 19-C ) :   1.2025
B( 18-C , 21-H ) :   0.9717 B( 19-C , 20-C ) :   1.6142 B( 19-C , 22-C ) :   1.0510
B( 22-C , 23-H ) :   0.9352 B( 22-C , 24-H ) :   0.9243 B( 22-C , 25-C ) :   1.0722
B( 25-C , 26-H ) :   0.9549 B( 25-C , 27-H ) :   0.9489 B( 25-C , 28-C ) :   1.0658
B( 28-C , 29-H ) :   0.9778 B( 28-C , 30-H ) :   0.9749 B( 28-C , 31-H ) :   0.9771

Dispersion correction           -0.015274880
FINAL SINGLE POINT ENERGY     -1339.858096240347

DIPOLE MOMENT
-------------
                                X             Y             Z
Electronic contribution:     -4.44059     -10.65498      11.88533
Nuclear contribution   :      4.32470      11.14201     -12.25758
                        -----------------------------------------
Total Dipole Moment    :     -0.11589       0.48704      -0.37225
                        -----------------------------------------
Magnitude (a.u.)       :      0.62386
Magnitude (Debye)      :      1.58573

Rotational constants in cm-1:     0.020901     0.008170     0.007468
Rotational constants in MHz :   626.582757   244.916509   223.874552

                             ****ORCA TERMINATED NORMALLY****
TOTAL RUN TIME: 0 days 0 hours 0 minutes 21 seconds 897 msec
