                         Program Version 4.2.1 -  RELEASE  -
|  1> ! wB97X-D3 SP def2-SVP
|  2> %pal
|  3> nprocs 24
|  4> end
|  5>
|  6> * xyz 0 1
|  7> S 	 39.7944 	 -0.565004 	 -117.224
|  8> C 	 41.1945 	 -1.27382 	 -116.323
|  9> C 	 40.9983 	 -2.65859 	 -116.226
| 10> C 	 39.665 	 -3.04795 	 -116.607
| 11> C 	 38.7899 	 -2.00956 	 -116.93
| 12> H 	 39.2741 	 -4.00114 	 -116.45
| 13> C 	 42.0221 	 -3.62107 	 -115.739
| 14> H 	 41.7309 	 -3.80484 	 -114.677
| 15> H 	 42.9498 	 -3.16759 	 -115.617
| 16> C 	 42.2408 	 -4.84117 	 -116.556
| 17> H 	 41.3365 	 -5.47361 	 -116.598
| 18> H 	 42.5188 	 -4.55217 	 -117.557
| 19> C 	 43.505 	 -5.57451 	 -116.078
| 20> H 	 43.7896 	 -6.35857 	 -116.706
| 21> H 	 44.3886 	 -4.90942 	 -115.997
| 22> H 	 43.4216 	 -5.94037 	 -115.079
| 23> S 	 36.3635 	 -0.924282 	 -116.412
| 24> C 	 34.9534 	 -1.634 	 -117.169
| 25> C 	 35.2207 	 -2.77691 	 -117.871
| 26> C 	 36.5754 	 -3.14083 	 -117.814
| 27> C 	 37.3642 	 -2.11956 	 -117.204
| 28> H 	 34.4788 	 -3.28548 	 -118.506
| 29> C 	 37.0623 	 -4.45137 	 -118.437
| 30> H 	 38.0449 	 -4.69687 	 -118.012
| 31> H 	 37.1074 	 -4.24719 	 -119.521
| 32> C 	 36.3099 	 -5.74031 	 -118.034
| 33> H 	 36.6622 	 -6.52514 	 -118.622
| 34> H 	 35.2534 	 -5.70218 	 -118.276
| 35> C 	 36.6783 	 -6.1434 	 -116.646
| 36> H 	 37.7707 	 -6.4027 	 -116.592
| 37> H 	 36.1596 	 -7.03879 	 -116.415
| 38> H 	 36.5898 	 -5.44935 	 -115.787
| 39> H 	 42.1487 	 -0.77607 	 -116.143
| 40> H 	 34.0468 	 -1.20767 	 -117.062
| 41> *
| 42>
| 43>                          ****END OF INPUT****

CARTESIAN COORDINATES (ANGSTROEM)
---------------------------------
  S     39.794400   -0.565004  -117.224000
  C     41.194500   -1.273820  -116.323000
  C     40.998300   -2.658590  -116.226000
  C     39.665000   -3.047950  -116.607000
  C     38.789900   -2.009560  -116.930000
  H     39.274100   -4.001140  -116.450000
  C     42.022100   -3.621070  -115.739000
  H     41.730900   -3.804840  -114.677000
  H     42.949800   -3.167590  -115.617000
  C     42.240800   -4.841170  -116.556000
  H     41.336500   -5.473610  -116.598000
  H     42.518800   -4.552170  -117.557000
  C     43.505000   -5.574510  -116.078000
  H     43.789600   -6.358570  -116.706000
  H     44.388600   -4.909420  -115.997000
  H     43.421600   -5.940370  -115.079000
  S     36.363500   -0.924282  -116.412000
  C     34.953400   -1.634000  -117.169000
  C     35.220700   -2.776910  -117.871000
  C     36.575400   -3.140830  -117.814000
  C     37.364200   -2.119560  -117.204000
  H     34.478800   -3.285480  -118.506000
  C     37.062300   -4.451370  -118.437000
  H     38.044900   -4.696870  -118.012000
  H     37.107400   -4.247190  -119.521000
  C     36.309900   -5.740310  -118.034000
  H     36.662200   -6.525140  -118.622000
  H     35.253400   -5.702180  -118.276000
  C     36.678300   -6.143400  -116.646000
  H     37.770700   -6.402700  -116.592000
  H     36.159600   -7.038790  -116.415000
  H     36.589800   -5.449350  -115.787000
  H     42.148700   -0.776070  -116.143000
  H     34.046800   -1.207670  -117.062000

 Total Charge           Charge          ....    0
 Multiplicity           Mult            ....    1
 Number of Electrons    NEL             ....  134
 Basis Dimension        Dim             ....  322

ORBITAL ENERGIES
----------------

  NO   OCC          E(Eh)            E(eV)
   0   2.0000     -88.966765     -2420.9088
   1   2.0000     -88.961365     -2420.7618
   2   2.0000     -10.332178      -281.1528
   3   2.0000     -10.329168      -281.0709
   4   2.0000     -10.316577      -280.7283
   5   2.0000     -10.309381      -280.5325
   6   2.0000     -10.307411      -280.4789
   7   2.0000     -10.301795      -280.3261
   8   2.0000     -10.294992      -280.1410
   9   2.0000     -10.293446      -280.0989
  10   2.0000     -10.288333      -279.9598
  11   2.0000     -10.287256      -279.9305
  12   2.0000     -10.284705      -279.8611
  13   2.0000     -10.283845      -279.8377
  14   2.0000     -10.279647      -279.7234
  15   2.0000     -10.274474      -279.5827
  16   2.0000      -8.081589      -219.9112
  17   2.0000      -8.074607      -219.7212
  18   2.0000      -6.039932      -164.3549
  19   2.0000      -6.036131      -164.2515
  20   2.0000      -6.033323      -164.1751
  21   2.0000      -6.032468      -164.1518
  22   2.0000      -6.029553      -164.0725
  23   2.0000      -6.024988      -163.9483
  24   2.0000      -1.001991       -27.2656
  25   2.0000      -0.976923       -26.5834
  26   2.0000      -0.920842       -25.0574
  27   2.0000      -0.917060       -24.9545
  28   2.0000      -0.869543       -23.6615
  29   2.0000      -0.855191       -23.2709
  30   2.0000      -0.841644       -22.9023
  31   2.0000      -0.812989       -22.1226
  32   2.0000      -0.783338       -21.3157
  33   2.0000      -0.771765       -21.0008
  34   2.0000      -0.715852       -19.4793
  35   2.0000      -0.705639       -19.2014
  36   2.0000      -0.696070       -18.9410
  37   2.0000      -0.657879       -17.9018
  38   2.0000      -0.640152       -17.4194
  39   2.0000      -0.622691       -16.9443
  40   2.0000      -0.604154       -16.4399
  41   2.0000      -0.571382       -15.5481
  42   2.0000      -0.565045       -15.3757
  43   2.0000      -0.564025       -15.3479
  44   2.0000      -0.546165       -14.8619
  45   2.0000      -0.530100       -14.4248
  46   2.0000      -0.518242       -14.1021
  47   2.0000      -0.508455       -13.8358
  48   2.0000      -0.504799       -13.7363
  49   2.0000      -0.500277       -13.6132
  50   2.0000      -0.488916       -13.3041
  51   2.0000      -0.479546       -13.0491
  52   2.0000      -0.470242       -12.7959
  53   2.0000      -0.461511       -12.5584
  54   2.0000      -0.459404       -12.5010
  55   2.0000      -0.449321       -12.2267
  56   2.0000      -0.447008       -12.1637
  57   2.0000      -0.442290       -12.0353
  58   2.0000      -0.440308       -11.9814
  59   2.0000      -0.427263       -11.6264
  60   2.0000      -0.421914       -11.4809
  61   2.0000      -0.416070       -11.3218
  62   2.0000      -0.409509       -11.1433
  63   2.0000      -0.347131        -9.4459
  64   2.0000      -0.330846        -9.0028
  65   2.0000      -0.320925        -8.7328
  66   2.0000      -0.285049        -7.7566
  67   0.0000       0.019757         0.5376
  68   0.0000       0.073037         1.9874
  69   0.0000       0.106196         2.8897
  70   0.0000       0.113424         3.0864
  71   0.0000       0.124726         3.3940

MULLIKEN ATOMIC CHARGES
-----------------------
   0 S :    0.088499
   1 C :   -0.126825
   2 C :   -0.090857
   3 C :    0.049933
   4 C :   -0.126203
   5 H :   -0.024547
   6 C :    0.094210
   7 H :    0.040595
   8 H :   -0.019482
   9 C :   -0.068844
  10 H :    0.038501
  11 H :    0.029415
  12 C :   -0.027528
  13 H :    0.024493
  14 H :    0.023740
  15 H :    0.016903
  16 S :    0.115314
  17 C :   -0.044139
  18 C :   -0.031521
  19 C :   -0.042719
  20 C :   -0.174143
  21 H :    0.030864
  22 C :    0.051991
  23 H :    0.002747
  24 H :    0.052758
  25 C :   -0.021412
  26 H :    0.015910
  27 H :    0.024676
  28 C :   -0.070537
  29 H :    0.025766
  30 H :    0.026679
  31 H :    0.049889
  32 H :    0.053780
  33 H :    0.012094
Sum of atomic charges:   -0.0000000

LOEWDIN ATOMIC CHARGES
----------------------
   0 S :    0.360596
   1 C :   -0.189232
   2 C :   -0.054067
   3 C :   -0.063393
   4 C :   -0.177743
   5 H :    0.011918
   6 C :   -0.036745
   7 H :    0.040692
   8 H :    0.019093
   9 C :   -0.034891
  10 H :    0.025484
  11 H :    0.028148
  12 C :   -0.058103
  13 H :    0.018173
  14 H :    0.028812
  15 H :    0.019719
  16 S :    0.418757
  17 C :   -0.160727
  18 C :   -0.070099
  19 C :   -0.050088
  20 C :   -0.205546
  21 H :    0.038585
  22 C :   -0.030660
  23 H :    0.028323
  24 H :    0.038167
  25 C :   -0.036031
  26 H :    0.024272
  27 H :    0.019616
  28 C :   -0.066930
  29 H :    0.028117
  30 H :    0.023201
  31 H :    0.029659
  32 H :    0.030326
  33 H :    0.002595

  Mayer bond orders larger than 0.100000
B(  0-S ,  1-C ) :   1.1089 B(  0-S ,  4-C ) :   1.1398 B(  1-C ,  2-C ) :   1.6086
B(  1-C ,  4-C ) :   0.1011 B(  1-C , 32-H ) :   0.9684 B(  2-C ,  3-C ) :   1.2281
B(  2-C ,  6-C ) :   1.0373 B(  3-C ,  4-C ) :   1.5753 B(  3-C ,  5-H ) :   0.9915
B(  4-C , 20-C ) :   1.0636 B(  6-C ,  7-H ) :   0.9243 B(  6-C ,  8-H ) :   0.9322
B(  6-C ,  9-C ) :   1.0702 B(  9-C , 10-H ) :   0.9507 B(  9-C , 11-H ) :   0.9538
B(  9-C , 12-C ) :   1.0901 B( 12-C , 13-H ) :   0.9749 B( 12-C , 14-H ) :   0.9713
B( 12-C , 15-H ) :   0.9728 B( 16-S , 17-C ) :   1.1626 B( 16-S , 20-C ) :   1.1583
B( 17-C , 18-C ) :   1.5860 B( 17-C , 20-C ) :   0.1075 B( 17-C , 33-H ) :   0.9826
B( 18-C , 19-C ) :   1.2651 B( 18-C , 21-H ) :   0.9860 B( 19-C , 20-C ) :   1.5530
B( 19-C , 22-C ) :   1.0337 B( 22-C , 23-H ) :   0.9363 B( 22-C , 24-H ) :   0.9337
B( 22-C , 25-C ) :   1.0759 B( 25-C , 26-H ) :   0.9451 B( 25-C , 27-H ) :   0.9534
B( 25-C , 28-C ) :   1.0782 B( 28-C , 29-H ) :   0.9648 B( 28-C , 30-H ) :   0.9700
B( 28-C , 31-H ) :   0.9785

Dispersion correction           -0.014328345
FINAL SINGLE POINT ENERGY     -1339.855900726856

DIPOLE MOMENT
-------------
                                X             Y             Z
Electronic contribution:    -11.65264      29.01684      -1.05743
Nuclear contribution   :     11.72033     -29.88412       0.98400
                        -----------------------------------------
Total Dipole Moment    :      0.06769      -0.86728      -0.07342
                        -----------------------------------------
Magnitude (a.u.)       :      0.87301
Magnitude (Debye)      :      2.21902

Rotational constants in cm-1:     0.018152     0.009130     0.006494
Rotational constants in MHz :   544.188395   273.701239   194.697432

                             ****ORCA TERMINATED NORMALLY****
TOTAL RUN TIME: 0 days 0 hours 0 minutes 22 seconds 1 msec
