                         Program Version 4.2.1 -  RELEASE  -
|  1> ! wB97X-D3 SP def2-SVP
|  2> %pal
|  3> nprocs 24
|  4> end
|  5>
|  6> * xyz 0 1
|  7> S 	 -146.81 	 4.5838 	 12.0355
|  8> C 	 -146.623 	 2.96877 	 11.3732
|  9> C 	 -145.448 	 3.0063 	 10.5401
| 10> C 	 -144.772 	 4.31372 	 10.5481
| 11> C 	 -145.354 	 5.27466 	 11.3062
| 12> H 	 -143.822 	 4.41134 	 10.0788
| 13> C 	 -144.898 	 1.82496 	 9.784
| 14> H 	 -144.292 	 1.43148 	 10.5995
| 15> H 	 -144.192 	 2.17822 	 9.00608
| 16> C 	 -145.807 	 0.714782 	 9.31991
| 17> H 	 -146.115 	 0.262893 	 10.2631
| 18> H 	 -146.747 	 1.1509 	 9.02238
| 19> C 	 -145.49 	 -0.418522 	 8.34311
| 20> H 	 -145.154 	 0.038448 	 7.37714
| 21> H 	 -144.621 	 -0.895896 	 8.7764
| 22> H 	 -146.351 	 -1.09647 	 8.25287
| 23> S 	 -143.213 	 6.90042 	 11.4768
| 24> C 	 -143.446 	 8.61 	 11.7407
| 25> C 	 -144.791 	 8.91642 	 11.681
| 26> C 	 -145.589 	 7.78463 	 11.6477
| 27> C 	 -144.895 	 6.62461 	 11.3997
| 28> H 	 -144.979 	 9.96725 	 11.7494
| 29> C 	 -147.086 	 7.87982 	 11.6913
| 30> H 	 -147.438 	 8.80033 	 12.197
| 31> H 	 -147.475 	 7.20967 	 12.4914
| 32> C 	 -147.867 	 7.65618 	 10.3767
| 33> H 	 -147.413 	 6.82904 	 9.85224
| 34> H 	 -147.848 	 8.55211 	 9.80646
| 35> C 	 -149.292 	 7.23965 	 10.6068
| 36> H 	 -149.875 	 7.25948 	 9.68674
| 37> H 	 -149.899 	 7.82202 	 11.408
| 38> H 	 -149.326 	 6.19527 	 10.7613
| 39> H 	 -147.227 	 2.12859 	 11.577
| 40> H 	 -142.688 	 9.39753 	 11.6765
| 41> *
| 42>
| 43>                          ****END OF INPUT****

CARTESIAN COORDINATES (ANGSTROEM)
---------------------------------
  S    -146.810000    4.583800   12.035500
  C    -146.623000    2.968770   11.373200
  C    -145.448000    3.006300   10.540100
  C    -144.772000    4.313720   10.548100
  C    -145.354000    5.274660   11.306200
  H    -143.822000    4.411340   10.078800
  C    -144.898000    1.824960    9.784000
  H    -144.292000    1.431480   10.599500
  H    -144.192000    2.178220    9.006080
  C    -145.807000    0.714782    9.319910
  H    -146.115000    0.262893   10.263100
  H    -146.747000    1.150900    9.022380
  C    -145.490000   -0.418522    8.343110
  H    -145.154000    0.038448    7.377140
  H    -144.621000   -0.895896    8.776400
  H    -146.351000   -1.096470    8.252870
  S    -143.213000    6.900420   11.476800
  C    -143.446000    8.610000   11.740700
  C    -144.791000    8.916420   11.681000
  C    -145.589000    7.784630   11.647700
  C    -144.895000    6.624610   11.399700
  H    -144.979000    9.967250   11.749400
  C    -147.086000    7.879820   11.691300
  H    -147.438000    8.800330   12.197000
  H    -147.475000    7.209670   12.491400
  C    -147.867000    7.656180   10.376700
  H    -147.413000    6.829040    9.852240
  H    -147.848000    8.552110    9.806460
  C    -149.292000    7.239650   10.606800
  H    -149.875000    7.259480    9.686740
  H    -149.899000    7.822020   11.408000
  H    -149.326000    6.195270   10.761300
  H    -147.227000    2.128590   11.577000
  H    -142.688000    9.397530   11.676500

 Total Charge           Charge          ....    0
 Multiplicity           Mult            ....    1
 Number of Electrons    NEL             ....  134
 Basis Dimension        Dim             ....  322

ORBITAL ENERGIES
----------------

  NO   OCC          E(Eh)            E(eV)
   0   2.0000     -88.968312     -2420.9508
   1   2.0000     -88.966420     -2420.8994
   2   2.0000     -10.331731      -281.1407
   3   2.0000     -10.322315      -280.8845
   4   2.0000     -10.318884      -280.7911
   5   2.0000     -10.315501      -280.6991
   6   2.0000     -10.313675      -280.6494
   7   2.0000     -10.297398      -280.2064
   8   2.0000     -10.294339      -280.1232
   9   2.0000     -10.293583      -280.1026
  10   2.0000     -10.289292      -279.9859
  11   2.0000     -10.287990      -279.9505
  12   2.0000     -10.287923      -279.9486
  13   2.0000     -10.283060      -279.8163
  14   2.0000     -10.276144      -279.6281
  15   2.0000     -10.271014      -279.4885
  16   2.0000      -8.083714      -219.9690
  17   2.0000      -8.079824      -219.8632
  18   2.0000      -6.042162      -164.4156
  19   2.0000      -6.038662      -164.3203
  20   2.0000      -6.038087      -164.3047
  21   2.0000      -6.034537      -164.2081
  22   2.0000      -6.034261      -164.2006
  23   2.0000      -6.030529      -164.0990
  24   2.0000      -1.016906       -27.6714
  25   2.0000      -0.984438       -26.7879
  26   2.0000      -0.915882       -24.9224
  27   2.0000      -0.907894       -24.7051
  28   2.0000      -0.878087       -23.8940
  29   2.0000      -0.856178       -23.2978
  30   2.0000      -0.848391       -23.0859
  31   2.0000      -0.820600       -22.3296
  32   2.0000      -0.782278       -21.2869
  33   2.0000      -0.769277       -20.9331
  34   2.0000      -0.713698       -19.4207
  35   2.0000      -0.702527       -19.1167
  36   2.0000      -0.690933       -18.8013
  37   2.0000      -0.668714       -18.1966
  38   2.0000      -0.638465       -17.3735
  39   2.0000      -0.616924       -16.7873
  40   2.0000      -0.597604       -16.2616
  41   2.0000      -0.573777       -15.6133
  42   2.0000      -0.568136       -15.4598
  43   2.0000      -0.563522       -15.3342
  44   2.0000      -0.533087       -14.5060
  45   2.0000      -0.527476       -14.3534
  46   2.0000      -0.522858       -14.2277
  47   2.0000      -0.515155       -14.0181
  48   2.0000      -0.505320       -13.7505
  49   2.0000      -0.502268       -13.6674
  50   2.0000      -0.496727       -13.5166
  51   2.0000      -0.485146       -13.2015
  52   2.0000      -0.475971       -12.9518
  53   2.0000      -0.468901       -12.7594
  54   2.0000      -0.457382       -12.4460
  55   2.0000      -0.454811       -12.3760
  56   2.0000      -0.438749       -11.9390
  57   2.0000      -0.431623       -11.7451
  58   2.0000      -0.426312       -11.6005
  59   2.0000      -0.422102       -11.4860
  60   2.0000      -0.417333       -11.3562
  61   2.0000      -0.407817       -11.0973
  62   2.0000      -0.399934       -10.8828
  63   2.0000      -0.361313        -9.8318
  64   2.0000      -0.334734        -9.1086
  65   2.0000      -0.321590        -8.7509
  66   2.0000      -0.285640        -7.7727
  67   0.0000       0.021563         0.5867
  68   0.0000       0.080643         2.1944
  69   0.0000       0.113543         3.0897
  70   0.0000       0.122496         3.3333
  71   0.0000       0.126678         3.4471

MULLIKEN ATOMIC CHARGES
-----------------------
   0 S :    0.094501
   1 C :   -0.112239
   2 C :   -0.122305
   3 C :   -0.005524
   4 C :   -0.080486
   5 H :    0.007408
   6 C :    0.072791
   7 H :    0.045578
   8 H :    0.027110
   9 C :   -0.114600
  10 H :    0.011515
  11 H :    0.016247
  12 C :   -0.014446
  13 H :    0.040239
  14 H :    0.028111
  15 H :    0.052283
  16 S :    0.110352
  17 C :   -0.101634
  18 C :   -0.040131
  19 C :   -0.023334
  20 C :   -0.126081
  21 H :    0.013047
  22 C :    0.004732
  23 H :    0.011765
  24 H :    0.031643
  25 C :   -0.007476
  26 H :    0.033204
  27 H :    0.024326
  28 C :   -0.058607
  29 H :    0.018835
  30 H :    0.042618
  31 H :    0.015770
  32 H :    0.044563
  33 H :    0.060224
Sum of atomic charges:   -0.0000000

LOEWDIN ATOMIC CHARGES
----------------------
   0 S :    0.409119
   1 C :   -0.207079
   2 C :   -0.045136
   3 C :   -0.071633
   4 C :   -0.181052
   5 H :    0.023398
   6 C :   -0.043289
   7 H :    0.043626
   8 H :    0.029762
   9 C :   -0.056961
  10 H :    0.021410
  11 H :    0.017709
  12 C :   -0.056484
  13 H :    0.030379
  14 H :    0.023889
  15 H :    0.036176
  16 S :    0.436720
  17 C :   -0.193227
  18 C :   -0.063634
  19 C :   -0.064222
  20 C :   -0.203906
  21 H :    0.033192
  22 C :   -0.047225
  23 H :    0.031371
  24 H :    0.027095
  25 C :   -0.033718
  26 H :    0.027085
  27 H :    0.019535
  28 C :   -0.073157
  29 H :    0.025926
  30 H :    0.031882
  31 H :    0.016526
  32 H :    0.022935
  33 H :    0.032986

  Mayer bond orders larger than 0.100000
B(  0-S ,  1-C ) :   1.1230 B(  0-S ,  4-C ) :   1.1323 B(  1-C ,  2-C ) :   1.5735
B(  1-C , 32-H ) :   0.9809 B(  2-C ,  3-C ) :   1.2557 B(  2-C ,  6-C ) :   1.0219
B(  3-C ,  4-C ) :   1.5385 B(  3-C ,  5-H ) :   0.9976 B(  4-C , 20-C ) :   1.0772
B(  6-C ,  7-H ) :   0.9270 B(  6-C ,  8-H ) :   0.9443 B(  6-C ,  9-C ) :   1.0588
B(  9-C , 10-H ) :   0.9417 B(  9-C , 11-H ) :   0.9621 B(  9-C , 12-C ) :   1.0864
B( 12-C , 13-H ) :   0.9743 B( 12-C , 14-H ) :   0.9757 B( 12-C , 15-H ) :   0.9697
B( 16-S , 17-C ) :   1.1615 B( 16-S , 20-C ) :   1.1571 B( 17-C , 18-C ) :   1.6022
B( 17-C , 20-C ) :   0.1051 B( 17-C , 33-H ) :   0.9604 B( 18-C , 19-C ) :   1.2562
B( 18-C , 21-H ) :   0.9987 B( 19-C , 20-C ) :   1.5418 B( 19-C , 22-C ) :   1.0542
B( 22-C , 23-H ) :   0.9241 B( 22-C , 24-H ) :   0.9317 B( 22-C , 25-C ) :   1.0478
B( 25-C , 26-H ) :   0.9569 B( 25-C , 27-H ) :   0.9568 B( 25-C , 28-C ) :   1.0890
B( 28-C , 29-H ) :   0.9661 B( 28-C , 30-H ) :   0.9729 B( 28-C , 31-H ) :   0.9698

Dispersion correction           -0.014272199
FINAL SINGLE POINT ENERGY     -1339.859350276249

DIPOLE MOMENT
-------------
                                X             Y             Z
Electronic contribution:     12.95824      12.29610      11.77183
Nuclear contribution   :    -12.94464     -12.44978     -12.04198
                        -----------------------------------------
Total Dipole Moment    :      0.01360      -0.15367      -0.27016
                        -----------------------------------------
Magnitude (a.u.)       :      0.31110
Magnitude (Debye)      :      0.79076

Rotational constants in cm-1:     0.021327     0.007901     0.006303
Rotational constants in MHz :   639.375318   236.854703   188.946628

                             ****ORCA TERMINATED NORMALLY****
TOTAL RUN TIME: 0 days 0 hours 0 minutes 22 seconds 577 msec
