                         Program Version 4.2.1 -  RELEASE  -
|  1> ! wB97X-D3 SP def2-SVP
|  2> %pal
|  3> nprocs 24
|  4> end
|  5>
|  6> * xyz 0 1
|  7> S 	 -4.44491 	 -25.9388 	 -116.6
|  8> C 	 -2.92924 	 -25.7083 	 -117.341
|  9> C 	 -1.92486 	 -25.6237 	 -116.38
| 10> C 	 -2.45517 	 -25.4562 	 -115.079
| 11> C 	 -3.80655 	 -25.516 	 -115.059
| 12> H 	 -1.81991 	 -25.4798 	 -114.176
| 13> C 	 -0.462687 	 -25.8471 	 -116.599
| 14> H 	 -0.31231 	 -26.3428 	 -117.592
| 15> H 	 -0.187456 	 -26.6791 	 -115.926
| 16> C 	 0.523256 	 -24.6788 	 -116.231
| 17> H 	 0.375106 	 -24.3722 	 -115.154
| 18> H 	 1.44161 	 -25.2247 	 -116.18
| 19> C 	 0.633876 	 -23.6047 	 -117.352
| 20> H 	 1.42244 	 -23.0128 	 -117.041
| 21> H 	 0.873731 	 -24.1897 	 -118.301
| 22> H 	 -0.303348 	 -23.0747 	 -117.538
| 23> S 	 -5.13116 	 -27.0571 	 -113.296
| 24> C 	 -5.63167 	 -26.4049 	 -111.758
| 25> C 	 -5.38141 	 -25.0898 	 -111.655
| 26> C 	 -4.70807 	 -24.5625 	 -112.827
| 27> C 	 -4.51351 	 -25.5359 	 -113.794
| 28> H 	 -5.64872 	 -24.6492 	 -110.739
| 29> C 	 -4.37784 	 -23.0736 	 -113.054
| 30> H 	 -5.26275 	 -22.5597 	 -112.84
| 31> H 	 -4.25535 	 -22.8742 	 -114.1
| 32> C 	 -3.13534 	 -22.6663 	 -112.187
| 33> H 	 -2.11904 	 -23.0675 	 -112.298
| 34> H 	 -3.23055 	 -22.9142 	 -111.076
| 35> C 	 -3.07758 	 -21.1848 	 -112.307
| 36> H 	 -2.96991 	 -20.9774 	 -113.383
| 37> H 	 -2.24093 	 -20.7412 	 -111.75
| 38> H 	 -4.04232 	 -20.7889 	 -111.983
| 39> H 	 -2.79428 	 -25.9505 	 -118.358
| 40> H 	 -5.96115 	 -26.9671 	 -110.903
| 41> *
| 42>
| 43>                          ****END OF INPUT****

CARTESIAN COORDINATES (ANGSTROEM)
---------------------------------
  S     -4.444910  -25.938800  -116.600000
  C     -2.929240  -25.708300  -117.341000
  C     -1.924860  -25.623700  -116.380000
  C     -2.455170  -25.456200  -115.079000
  C     -3.806550  -25.516000  -115.059000
  H     -1.819910  -25.479800  -114.176000
  C     -0.462687  -25.847100  -116.599000
  H     -0.312310  -26.342800  -117.592000
  H     -0.187456  -26.679100  -115.926000
  C      0.523256  -24.678800  -116.231000
  H      0.375106  -24.372200  -115.154000
  H      1.441610  -25.224700  -116.180000
  C      0.633876  -23.604700  -117.352000
  H      1.422440  -23.012800  -117.041000
  H      0.873731  -24.189700  -118.301000
  H     -0.303348  -23.074700  -117.538000
  S     -5.131160  -27.057100  -113.296000
  C     -5.631670  -26.404900  -111.758000
  C     -5.381410  -25.089800  -111.655000
  C     -4.708070  -24.562500  -112.827000
  C     -4.513510  -25.535900  -113.794000
  H     -5.648720  -24.649200  -110.739000
  C     -4.377840  -23.073600  -113.054000
  H     -5.262750  -22.559700  -112.840000
  H     -4.255350  -22.874200  -114.100000
  C     -3.135340  -22.666300  -112.187000
  H     -2.119040  -23.067500  -112.298000
  H     -3.230550  -22.914200  -111.076000
  C     -3.077580  -21.184800  -112.307000
  H     -2.969910  -20.977400  -113.383000
  H     -2.240930  -20.741200  -111.750000
  H     -4.042320  -20.788900  -111.983000
  H     -2.794280  -25.950500  -118.358000
  H     -5.961150  -26.967100  -110.903000

 Total Charge           Charge          ....    0
 Multiplicity           Mult            ....    1
 Number of Electrons    NEL             ....  134
 Basis Dimension        Dim             ....  322

ORBITAL ENERGIES
----------------

  NO   OCC          E(Eh)            E(eV)
   0   2.0000     -88.965193     -2420.8660
   1   2.0000     -88.957913     -2420.6679
   2   2.0000     -10.320028      -280.8222
   3   2.0000     -10.317475      -280.7528
   4   2.0000     -10.307059      -280.4693
   5   2.0000     -10.306109      -280.4435
   6   2.0000     -10.301178      -280.3093
   7   2.0000     -10.295467      -280.1539
   8   2.0000     -10.294317      -280.1226
   9   2.0000     -10.292962      -280.0857
  10   2.0000     -10.289613      -279.9946
  11   2.0000     -10.288583      -279.9666
  12   2.0000     -10.287177      -279.9283
  13   2.0000     -10.285713      -279.8885
  14   2.0000     -10.280524      -279.7473
  15   2.0000     -10.271906      -279.5128
  16   2.0000      -8.081305      -219.9035
  17   2.0000      -8.073811      -219.6996
  18   2.0000      -6.039674      -164.3479
  19   2.0000      -6.035726      -164.2404
  20   2.0000      -6.032233      -164.1454
  21   2.0000      -6.032046      -164.1403
  22   2.0000      -6.028176      -164.0350
  23   2.0000      -6.024586      -163.9373
  24   2.0000      -1.015376       -27.6298
  25   2.0000      -0.989940       -26.9376
  26   2.0000      -0.910040       -24.7635
  27   2.0000      -0.907264       -24.6879
  28   2.0000      -0.875242       -23.8165
  29   2.0000      -0.852291       -23.1920
  30   2.0000      -0.847434       -23.0598
  31   2.0000      -0.819127       -22.2896
  32   2.0000      -0.780143       -21.2288
  33   2.0000      -0.765982       -20.8434
  34   2.0000      -0.706216       -19.2171
  35   2.0000      -0.697815       -18.9885
  36   2.0000      -0.695528       -18.9263
  37   2.0000      -0.657433       -17.8897
  38   2.0000      -0.641999       -17.4697
  39   2.0000      -0.623173       -16.9574
  40   2.0000      -0.593143       -16.1402
  41   2.0000      -0.569078       -15.4854
  42   2.0000      -0.557826       -15.1792
  43   2.0000      -0.550051       -14.9676
  44   2.0000      -0.539105       -14.6698
  45   2.0000      -0.533292       -14.5116
  46   2.0000      -0.516264       -14.0482
  47   2.0000      -0.515357       -14.0236
  48   2.0000      -0.503529       -13.7017
  49   2.0000      -0.497483       -13.5372
  50   2.0000      -0.490763       -13.3543
  51   2.0000      -0.479967       -13.0606
  52   2.0000      -0.474142       -12.9021
  53   2.0000      -0.458412       -12.4740
  54   2.0000      -0.454449       -12.3662
  55   2.0000      -0.452018       -12.3000
  56   2.0000      -0.448765       -12.2115
  57   2.0000      -0.440506       -11.9868
  58   2.0000      -0.436488       -11.8774
  59   2.0000      -0.422558       -11.4984
  60   2.0000      -0.416313       -11.3285
  61   2.0000      -0.411757       -11.2045
  62   2.0000      -0.405284       -11.0283
  63   2.0000      -0.345197        -9.3933
  64   2.0000      -0.326232        -8.8772
  65   2.0000      -0.322710        -8.7814
  66   2.0000      -0.297776        -8.1029
  67   0.0000       0.045341         1.2338
  68   0.0000       0.068623         1.8673
  69   0.0000       0.109789         2.9875
  70   0.0000       0.128546         3.4979
  71   0.0000       0.138461         3.7677

MULLIKEN ATOMIC CHARGES
-----------------------
   0 S :    0.120046
   1 C :   -0.104210
   2 C :   -0.069979
   3 C :    0.020401
   4 C :   -0.150584
   5 H :    0.029653
   6 C :    0.003243
   7 H :    0.020759
   8 H :    0.033027
   9 C :   -0.081793
  10 H :    0.036206
  11 H :    0.018767
  12 C :   -0.016929
  13 H :    0.031972
  14 H :    0.032993
  15 H :    0.049008
  16 S :    0.101067
  17 C :   -0.087371
  18 C :   -0.017712
  19 C :   -0.031761
  20 C :   -0.172777
  21 H :   -0.002615
  22 C :    0.104293
  23 H :    0.016627
  24 H :    0.027845
  25 C :   -0.109024
  26 H :    0.030073
  27 H :    0.027150
  28 C :   -0.019364
  29 H :    0.024646
  30 H :    0.032305
  31 H :    0.022907
  32 H :    0.033346
  33 H :    0.047787
Sum of atomic charges:   -0.0000000

LOEWDIN ATOMIC CHARGES
----------------------
   0 S :    0.436217
   1 C :   -0.210387
   2 C :   -0.065866
   3 C :   -0.058346
   4 C :   -0.212852
   5 H :    0.038175
   6 C :   -0.042400
   7 H :    0.031357
   8 H :    0.036520
   9 C :   -0.041921
  10 H :    0.028242
  11 H :    0.020637
  12 C :   -0.057625
  13 H :    0.017015
  14 H :    0.035459
  15 H :    0.028696
  16 S :    0.408694
  17 C :   -0.184833
  18 C :   -0.068934
  19 C :   -0.052806
  20 C :   -0.207127
  21 H :    0.025546
  22 C :   -0.014904
  23 H :    0.027601
  24 H :    0.031316
  25 C :   -0.049358
  26 H :    0.025877
  27 H :    0.026761
  28 C :   -0.066074
  29 H :    0.024986
  30 H :    0.022780
  31 H :    0.021917
  32 H :    0.017003
  33 H :    0.028632

  Mayer bond orders larger than 0.100000
B(  0-S ,  1-C ) :   1.1532 B(  0-S ,  4-C ) :   1.1656 B(  1-C ,  2-C ) :   1.5758
B(  1-C , 32-H ) :   0.9745 B(  2-C ,  3-C ) :   1.2650 B(  2-C ,  6-C ) :   1.0311
B(  3-C ,  4-C ) :   1.5616 B(  3-C ,  5-H ) :   0.9907 B(  4-C , 20-C ) :   1.0119
B(  6-C ,  7-H ) :   0.9431 B(  6-C ,  8-H ) :   0.9386 B(  6-C ,  9-C ) :   1.0678
B(  9-C , 10-H ) :   0.9548 B(  9-C , 11-H ) :   0.9544 B(  9-C , 12-C ) :   1.0591
B( 12-C , 13-H ) :   0.9761 B( 12-C , 14-H ) :   0.9727 B( 12-C , 15-H ) :   0.9804
B( 16-S , 17-C ) :   1.1397 B( 16-S , 20-C ) :   1.1504 B( 17-C , 18-C ) :   1.6572
B( 17-C , 33-H ) :   0.9646 B( 18-C , 19-C ) :   1.1970 B( 18-C , 21-H ) :   1.0010
B( 19-C , 20-C ) :   1.6367 B( 19-C , 22-C ) :   1.0285 B( 22-C , 23-H ) :   0.9438
B( 22-C , 24-H ) :   0.9366 B( 22-C , 25-C ) :   1.0323 B( 25-C , 26-H ) :   0.9582
B( 25-C , 27-H ) :   0.9599 B( 25-C , 28-C ) :   1.0866 B( 28-C , 29-H ) :   0.9693
B( 28-C , 30-H ) :   0.9710 B( 28-C , 31-H ) :   0.9747

Dispersion correction           -0.014146566
FINAL SINGLE POINT ENERGY     -1339.859311307508

DIPOLE MOMENT
-------------
                                X             Y             Z
Electronic contribution:    -21.38592     -19.84818      -2.04698
Nuclear contribution   :     21.96728      19.99299       2.29160
                        -----------------------------------------
Total Dipole Moment    :      0.58135       0.14480       0.24462
                        -----------------------------------------
Magnitude (a.u.)       :      0.64713
Magnitude (Debye)      :      1.64487

Rotational constants in cm-1:     0.016959     0.009563     0.007021
Rotational constants in MHz :   508.416848   286.700315   210.476567

                             ****ORCA TERMINATED NORMALLY****
TOTAL RUN TIME: 0 days 0 hours 0 minutes 22 seconds 15 msec
