                         Program Version 4.2.1 -  RELEASE  -
|  1> ! wB97X-D3 SP def2-SVP
|  2> %pal
|  3> nprocs 24
|  4> end
|  5>
|  6> * xyz 0 1
|  7> S 	 -33.7063 	 -32.3731 	 -95.0052
|  8> C 	 -35.4766 	 -32.4838 	 -95.1484
|  9> C 	 -36.0871 	 -31.9733 	 -93.9996
| 10> C 	 -35.1337 	 -31.5057 	 -93.0245
| 11> C 	 -33.8253 	 -31.6481 	 -93.4166
| 12> H 	 -35.3033 	 -31.1553 	 -92.0155
| 13> C 	 -37.5685 	 -32.1775 	 -93.5864
| 14> H 	 -37.8597 	 -33.1306 	 -94.0992
| 15> H 	 -38.1815 	 -31.3254 	 -93.9752
| 16> C 	 -37.8321 	 -32.4738 	 -92.1155
| 17> H 	 -37.5591 	 -31.5926 	 -91.4739
| 18> H 	 -38.9826 	 -32.5102 	 -91.9777
| 19> C 	 -37.1269 	 -33.7531 	 -91.5371
| 20> H 	 -37.4685 	 -34.0003 	 -90.4957
| 21> H 	 -37.1573 	 -34.6412 	 -92.2173
| 22> H 	 -36.108 	 -33.5171 	 -91.4027
| 23> S 	 -31.8634 	 -32.9863 	 -91.9639
| 24> C 	 -30.8082 	 -32.1173 	 -90.8978
| 25> C 	 -31.0314 	 -30.8265 	 -90.965
| 26> C 	 -32.1579 	 -30.459 	 -91.806
| 27> C 	 -32.7181 	 -31.5269 	 -92.4836
| 28> H 	 -30.4374 	 -30.1473 	 -90.3762
| 29> C 	 -32.5613 	 -29.024 	 -91.9062
| 30> H 	 -33.3666 	 -28.8327 	 -92.694
| 31> H 	 -31.6492 	 -28.5175 	 -92.2135
| 32> C 	 -33.0078 	 -28.3963 	 -90.6091
| 33> H 	 -32.3327 	 -28.7137 	 -89.8165
| 34> H 	 -33.862 	 -29.0019 	 -90.2626
| 35> C 	 -33.3306 	 -26.8749 	 -90.5979
| 36> H 	 -34.1443 	 -26.6333 	 -91.2416
| 37> H 	 -32.4477 	 -26.3228 	 -90.8512
| 38> H 	 -33.6295 	 -26.3863 	 -89.5941
| 39> H 	 -35.9302 	 -32.8504 	 -96.0238
| 40> H 	 -30.0206 	 -32.5744 	 -90.2846
| 41> *
| 42>
| 43>                          ****END OF INPUT****

CARTESIAN COORDINATES (ANGSTROEM)
---------------------------------
  S    -33.706300  -32.373100  -95.005200
  C    -35.476600  -32.483800  -95.148400
  C    -36.087100  -31.973300  -93.999600
  C    -35.133700  -31.505700  -93.024500
  C    -33.825300  -31.648100  -93.416600
  H    -35.303300  -31.155300  -92.015500
  C    -37.568500  -32.177500  -93.586400
  H    -37.859700  -33.130600  -94.099200
  H    -38.181500  -31.325400  -93.975200
  C    -37.832100  -32.473800  -92.115500
  H    -37.559100  -31.592600  -91.473900
  H    -38.982600  -32.510200  -91.977700
  C    -37.126900  -33.753100  -91.537100
  H    -37.468500  -34.000300  -90.495700
  H    -37.157300  -34.641200  -92.217300
  H    -36.108000  -33.517100  -91.402700
  S    -31.863400  -32.986300  -91.963900
  C    -30.808200  -32.117300  -90.897800
  C    -31.031400  -30.826500  -90.965000
  C    -32.157900  -30.459000  -91.806000
  C    -32.718100  -31.526900  -92.483600
  H    -30.437400  -30.147300  -90.376200
  C    -32.561300  -29.024000  -91.906200
  H    -33.366600  -28.832700  -92.694000
  H    -31.649200  -28.517500  -92.213500
  C    -33.007800  -28.396300  -90.609100
  H    -32.332700  -28.713700  -89.816500
  H    -33.862000  -29.001900  -90.262600
  C    -33.330600  -26.874900  -90.597900
  H    -34.144300  -26.633300  -91.241600
  H    -32.447700  -26.322800  -90.851200
  H    -33.629500  -26.386300  -89.594100
  H    -35.930200  -32.850400  -96.023800
  H    -30.020600  -32.574400  -90.284600

 Total Charge           Charge          ....    0
 Multiplicity           Mult            ....    1
 Number of Electrons    NEL             ....  134
 Basis Dimension        Dim             ....  322

ORBITAL ENERGIES
----------------

  NO   OCC          E(Eh)            E(eV)
   0   2.0000     -88.967986     -2420.9420
   1   2.0000     -88.958227     -2420.6764
   2   2.0000     -10.328686      -281.0578
   3   2.0000     -10.327444      -281.0240
   4   2.0000     -10.319419      -280.8057
   5   2.0000     -10.312757      -280.6244
   6   2.0000     -10.308700      -280.5140
   7   2.0000     -10.304104      -280.3889
   8   2.0000     -10.301823      -280.3268
   9   2.0000     -10.301123      -280.3078
  10   2.0000     -10.295291      -280.1491
  11   2.0000     -10.291425      -280.0439
  12   2.0000     -10.287729      -279.9433
  13   2.0000     -10.286511      -279.9102
  14   2.0000     -10.284383      -279.8523
  15   2.0000     -10.281935      -279.7857
  16   2.0000      -8.082231      -219.9287
  17   2.0000      -8.073577      -219.6932
  18   2.0000      -6.040777      -164.3779
  19   2.0000      -6.036788      -164.2694
  20   2.0000      -6.032994      -164.1661
  21   2.0000      -6.032267      -164.1463
  22   2.0000      -6.027935      -164.0284
  23   2.0000      -6.024154      -163.9256
  24   2.0000      -1.008112       -27.4321
  25   2.0000      -0.985232       -26.8095
  26   2.0000      -0.910655       -24.7802
  27   2.0000      -0.906546       -24.6684
  28   2.0000      -0.874410       -23.7939
  29   2.0000      -0.844595       -22.9826
  30   2.0000      -0.838761       -22.8238
  31   2.0000      -0.820103       -22.3161
  32   2.0000      -0.782716       -21.2988
  33   2.0000      -0.773676       -21.0528
  34   2.0000      -0.710223       -19.3262
  35   2.0000      -0.697842       -18.9893
  36   2.0000      -0.692792       -18.8518
  37   2.0000      -0.656458       -17.8631
  38   2.0000      -0.644026       -17.5248
  39   2.0000      -0.620389       -16.8817
  40   2.0000      -0.599893       -16.3239
  41   2.0000      -0.568244       -15.4627
  42   2.0000      -0.558407       -15.1950
  43   2.0000      -0.553886       -15.0720
  44   2.0000      -0.526256       -14.3202
  45   2.0000      -0.523560       -14.2468
  46   2.0000      -0.517186       -14.0733
  47   2.0000      -0.515737       -14.0339
  48   2.0000      -0.506939       -13.7945
  49   2.0000      -0.502066       -13.6619
  50   2.0000      -0.487408       -13.2631
  51   2.0000      -0.476897       -12.9770
  52   2.0000      -0.475009       -12.9256
  53   2.0000      -0.460894       -12.5416
  54   2.0000      -0.460638       -12.5346
  55   2.0000      -0.456373       -12.4185
  56   2.0000      -0.442597       -12.0437
  57   2.0000      -0.439390       -11.9564
  58   2.0000      -0.428403       -11.6574
  59   2.0000      -0.423960       -11.5365
  60   2.0000      -0.417280       -11.3548
  61   2.0000      -0.408860       -11.1256
  62   2.0000      -0.406697       -11.0668
  63   2.0000      -0.347437        -9.4542
  64   2.0000      -0.330741        -8.9999
  65   2.0000      -0.324850        -8.8396
  66   2.0000      -0.303046        -8.2463
  67   0.0000       0.035883         0.9764
  68   0.0000       0.067280         1.8308
  69   0.0000       0.118395         3.2217
  70   0.0000       0.125176         3.4062
  71   0.0000       0.128112         3.4861

MULLIKEN ATOMIC CHARGES
-----------------------
   0 S :    0.108945
   1 C :   -0.121270
   2 C :   -0.066358
   3 C :    0.032302
   4 C :   -0.164942
   5 H :    0.018886
   6 C :    0.051317
   7 H :    0.035146
   8 H :    0.056160
   9 C :   -0.136266
  10 H :    0.035322
  11 H :    0.044377
  12 C :   -0.046655
  13 H :    0.043099
  14 H :    0.044160
  15 H :    0.026178
  16 S :    0.086279
  17 C :   -0.081700
  18 C :   -0.022881
  19 C :   -0.043286
  20 C :   -0.155439
  21 H :    0.016192
  22 C :    0.068075
  23 H :    0.039940
  24 H :    0.024359
  25 C :   -0.091325
  26 H :    0.013887
  27 H :    0.013871
  28 C :   -0.033497
  29 H :    0.032216
  30 H :    0.027949
  31 H :    0.041032
  32 H :    0.040803
  33 H :    0.063126
Sum of atomic charges:   -0.0000000

LOEWDIN ATOMIC CHARGES
----------------------
   0 S :    0.397924
   1 C :   -0.177108
   2 C :   -0.063100
   3 C :   -0.055438
   4 C :   -0.199695
   5 H :    0.032122
   6 C :   -0.039338
   7 H :    0.035755
   8 H :    0.039205
   9 C :   -0.054922
  10 H :    0.023478
  11 H :    0.034247
  12 C :   -0.069545
  13 H :    0.034575
  14 H :    0.031398
  15 H :    0.019586
  16 S :    0.388220
  17 C :   -0.181176
  18 C :   -0.077641
  19 C :   -0.053770
  20 C :   -0.192394
  21 H :    0.031090
  22 C :   -0.037708
  23 H :    0.037262
  24 H :    0.030921
  25 C :   -0.052004
  26 H :    0.020594
  27 H :    0.023194
  28 C :   -0.066956
  29 H :    0.021914
  30 H :    0.022058
  31 H :    0.038820
  32 H :    0.019599
  33 H :    0.038832

  Mayer bond orders larger than 0.100000
B(  0-S ,  1-C ) :   1.1366 B(  0-S ,  4-C ) :   1.1496 B(  1-C ,  2-C ) :   1.6094
B(  1-C , 32-H ) :   0.9799 B(  2-C ,  3-C ) :   1.2351 B(  2-C ,  6-C ) :   0.9923
B(  3-C ,  4-C ) :   1.5879 B(  3-C ,  5-H ) :   0.9843 B(  4-C , 20-C ) :   1.0305
B(  6-C ,  7-H ) :   0.9525 B(  6-C ,  8-H ) :   0.9361 B(  6-C ,  9-C ) :   1.0850
B(  9-C , 10-H ) :   0.9465 B(  9-C , 11-H ) :   0.9550 B(  9-C , 12-C ) :   1.0627
B( 12-C , 13-H ) :   0.9731 B( 12-C , 14-H ) :   0.9764 B( 12-C , 15-H ) :   0.9711
B( 16-S , 17-C ) :   1.1386 B( 16-S , 20-C ) :   1.1160 B( 17-C , 18-C ) :   1.6594
B( 17-C , 33-H ) :   0.9607 B( 18-C , 19-C ) :   1.1975 B( 18-C , 21-H ) :   0.9902
B( 19-C , 20-C ) :   1.6372 B( 19-C , 22-C ) :   1.0564 B( 22-C , 23-H ) :   0.9359
B( 22-C , 24-H ) :   0.9259 B( 22-C , 25-C ) :   1.0581 B( 25-C , 26-H ) :   0.9544
B( 25-C , 27-H ) :   0.9480 B( 25-C , 28-C ) :   1.0694 B( 28-C , 29-H ) :   0.9763
B( 28-C , 30-H ) :   0.9755 B( 28-C , 31-H ) :   0.9750

Dispersion correction           -0.014611021
FINAL SINGLE POINT ENERGY     -1339.879577596991

DIPOLE MOMENT
-------------
                                X             Y             Z
Electronic contribution:     15.45381     -13.38761     -13.72448
Nuclear contribution   :    -15.72430      13.68700      14.12640
                        -----------------------------------------
Total Dipole Moment    :     -0.27049       0.29939       0.40192
                        -----------------------------------------
Magnitude (a.u.)       :      0.56951
Magnitude (Debye)      :      1.44758

Rotational constants in cm-1:     0.016364     0.009156     0.007709
Rotational constants in MHz :   490.589998   274.502454   231.119050

                             ****ORCA TERMINATED NORMALLY****
TOTAL RUN TIME: 0 days 0 hours 0 minutes 21 seconds 644 msec
