                         Program Version 4.2.1 -  RELEASE  -
|  1> ! wB97X-D3 SP def2-SVP
|  2> %pal
|  3> nprocs 24
|  4> end
|  5>
|  6> * xyz 0 1
|  7> S 	 -52.5881 	 15.2415 	 25.9513
|  8> C 	 -53.3115 	 13.6449 	 26.2387
|  9> C 	 -52.7609 	 13.0448 	 27.3685
| 10> C 	 -51.8979 	 13.944 	 27.9923
| 11> C 	 -51.8942 	 15.2245 	 27.5252
| 12> H 	 -51.1938 	 13.8001 	 28.8279
| 13> C 	 -52.8062 	 11.5758 	 27.8691
| 14> H 	 -52.627 	 11.6948 	 28.9478
| 15> H 	 -51.8709 	 11.1952 	 27.43
| 16> C 	 -54.0165 	 10.8053 	 27.4868
| 17> H 	 -54.9255 	 11.4011 	 27.7646
| 18> H 	 -54.1224 	 10.5883 	 26.44
| 19> C 	 -54.0789 	 9.39049 	 28.1083
| 20> H 	 -53.1809 	 8.80801 	 28.0853
| 21> H 	 -54.1754 	 9.48329 	 29.2147
| 22> H 	 -54.9706 	 8.85599 	 27.9379
| 23> S 	 -50.1902 	 17.4326 	 27.2101
| 24> C 	 -50.0041 	 18.5441 	 28.5654
| 25> C 	 -50.6674 	 18.1025 	 29.676
| 26> C 	 -51.4172 	 16.8926 	 29.4276
| 27> C 	 -51.3161 	 16.4146 	 28.1601
| 28> H 	 -50.6361 	 18.7244 	 30.6191
| 29> C 	 -52.287 	 16.2307 	 30.5262
| 30> H 	 -53.1365 	 15.7399 	 30.0834
| 31> H 	 -52.8205 	 17.0439 	 31.0107
| 32> C 	 -51.5663 	 15.274 	 31.4625
| 33> H 	 -50.7005 	 15.8002 	 31.7502
| 34> H 	 -51.0495 	 14.4534 	 30.9256
| 35> C 	 -52.2988 	 14.8654 	 32.7552
| 36> H 	 -52.7764 	 15.8259 	 33.1014
| 37> H 	 -51.6953 	 14.305 	 33.5506
| 38> H 	 -53.1644 	 14.1936 	 32.5418
| 39> H 	 -54.0586 	 13.2709 	 25.5774
| 40> H 	 -49.2567 	 19.2866 	 28.4208
| 41> *
| 42>
| 43>                          ****END OF INPUT****

CARTESIAN COORDINATES (ANGSTROEM)
---------------------------------
  S    -52.588100   15.241500   25.951300
  C    -53.311500   13.644900   26.238700
  C    -52.760900   13.044800   27.368500
  C    -51.897900   13.944000   27.992300
  C    -51.894200   15.224500   27.525200
  H    -51.193800   13.800100   28.827900
  C    -52.806200   11.575800   27.869100
  H    -52.627000   11.694800   28.947800
  H    -51.870900   11.195200   27.430000
  C    -54.016500   10.805300   27.486800
  H    -54.925500   11.401100   27.764600
  H    -54.122400   10.588300   26.440000
  C    -54.078900    9.390490   28.108300
  H    -53.180900    8.808010   28.085300
  H    -54.175400    9.483290   29.214700
  H    -54.970600    8.855990   27.937900
  S    -50.190200   17.432600   27.210100
  C    -50.004100   18.544100   28.565400
  C    -50.667400   18.102500   29.676000
  C    -51.417200   16.892600   29.427600
  C    -51.316100   16.414600   28.160100
  H    -50.636100   18.724400   30.619100
  C    -52.287000   16.230700   30.526200
  H    -53.136500   15.739900   30.083400
  H    -52.820500   17.043900   31.010700
  C    -51.566300   15.274000   31.462500
  H    -50.700500   15.800200   31.750200
  H    -51.049500   14.453400   30.925600
  C    -52.298800   14.865400   32.755200
  H    -52.776400   15.825900   33.101400
  H    -51.695300   14.305000   33.550600
  H    -53.164400   14.193600   32.541800
  H    -54.058600   13.270900   25.577400
  H    -49.256700   19.286600   28.420800

 Total Charge           Charge          ....    0
 Multiplicity           Mult            ....    1
 Number of Electrons    NEL             ....  134
 Basis Dimension        Dim             ....  322

ORBITAL ENERGIES
----------------

  NO   OCC          E(Eh)            E(eV)
   0   2.0000     -88.962124     -2420.7825
   1   2.0000     -88.960135     -2420.7283
   2   2.0000     -10.328867      -281.0628
   3   2.0000     -10.323520      -280.9173
   4   2.0000     -10.319149      -280.7983
   5   2.0000     -10.314724      -280.6779
   6   2.0000     -10.306843      -280.4635
   7   2.0000     -10.303352      -280.3685
   8   2.0000     -10.303076      -280.3610
   9   2.0000     -10.299374      -280.2602
  10   2.0000     -10.293043      -280.0879
  11   2.0000     -10.291294      -280.0404
  12   2.0000     -10.290273      -280.0126
  13   2.0000     -10.287188      -279.9286
  14   2.0000     -10.284712      -279.8612
  15   2.0000     -10.276313      -279.6327
  16   2.0000      -8.077403      -219.7973
  17   2.0000      -8.074903      -219.7293
  18   2.0000      -6.035805      -164.2426
  19   2.0000      -6.033440      -164.1783
  20   2.0000      -6.032098      -164.1417
  21   2.0000      -6.029457      -164.0699
  22   2.0000      -6.027979      -164.0297
  23   2.0000      -6.025584      -163.9645
  24   2.0000      -1.008775       -27.4502
  25   2.0000      -0.985339       -26.8124
  26   2.0000      -0.915904       -24.9230
  27   2.0000      -0.907204       -24.6863
  28   2.0000      -0.869414       -23.6579
  29   2.0000      -0.852473       -23.1970
  30   2.0000      -0.843495       -22.9527
  31   2.0000      -0.813304       -22.1311
  32   2.0000      -0.785476       -21.3739
  33   2.0000      -0.774534       -21.0761
  34   2.0000      -0.715362       -19.4660
  35   2.0000      -0.704744       -19.1771
  36   2.0000      -0.693254       -18.8644
  37   2.0000      -0.663032       -18.0420
  38   2.0000      -0.645271       -17.5587
  39   2.0000      -0.612049       -16.6547
  40   2.0000      -0.598729       -16.2922
  41   2.0000      -0.572027       -15.5656
  42   2.0000      -0.564660       -15.3652
  43   2.0000      -0.554928       -15.1004
  44   2.0000      -0.530612       -14.4387
  45   2.0000      -0.529976       -14.4214
  46   2.0000      -0.519488       -14.1360
  47   2.0000      -0.515455       -14.0263
  48   2.0000      -0.510167       -13.8824
  49   2.0000      -0.497793       -13.5456
  50   2.0000      -0.487002       -13.2520
  51   2.0000      -0.475388       -12.9360
  52   2.0000      -0.472835       -12.8665
  53   2.0000      -0.464364       -12.6360
  54   2.0000      -0.455201       -12.3866
  55   2.0000      -0.453568       -12.3422
  56   2.0000      -0.445525       -12.1233
  57   2.0000      -0.441095       -12.0028
  58   2.0000      -0.438075       -11.9206
  59   2.0000      -0.420466       -11.4415
  60   2.0000      -0.417413       -11.3584
  61   2.0000      -0.414985       -11.2923
  62   2.0000      -0.404268       -11.0007
  63   2.0000      -0.348216        -9.4754
  64   2.0000      -0.332428        -9.0458
  65   2.0000      -0.328095        -8.9279
  66   2.0000      -0.292365        -7.9556
  67   0.0000       0.028517         0.7760
  68   0.0000       0.067465         1.8358
  69   0.0000       0.103253         2.8097
  70   0.0000       0.126647         3.4462
  71   0.0000       0.130758         3.5581

MULLIKEN ATOMIC CHARGES
-----------------------
   0 S :    0.104901
   1 C :   -0.143128
   2 C :   -0.066551
   3 C :   -0.001748
   4 C :   -0.149580
   5 H :    0.017215
   6 C :    0.078545
   7 H :    0.032727
   8 H :    0.048356
   9 C :   -0.076497
  10 H :    0.038719
  11 H :    0.032816
  12 C :   -0.026216
  13 H :    0.028583
  14 H :    0.008039
  15 H :    0.026432
  16 S :    0.070130
  17 C :   -0.086921
  18 C :   -0.035482
  19 C :   -0.065278
  20 C :   -0.134524
  21 H :    0.047529
  22 C :    0.072243
  23 H :    0.022954
  24 H :    0.013364
  25 C :   -0.026170
  26 H :    0.004033
  27 H :    0.014880
  28 C :   -0.079202
  29 H :    0.036035
  30 H :    0.058068
  31 H :    0.035336
  32 H :    0.043275
  33 H :    0.057116
Sum of atomic charges:   -0.0000000

LOEWDIN ATOMIC CHARGES
----------------------
   0 S :    0.402885
   1 C :   -0.186021
   2 C :   -0.061655
   3 C :   -0.072280
   4 C :   -0.199136
   5 H :    0.033513
   6 C :   -0.026429
   7 H :    0.034642
   8 H :    0.042191
   9 C :   -0.046354
  10 H :    0.033713
  11 H :    0.024685
  12 C :   -0.069234
  13 H :    0.024343
  14 H :    0.027044
  15 H :    0.022238
  16 S :    0.366577
  17 C :   -0.164658
  18 C :   -0.077705
  19 C :   -0.055987
  20 C :   -0.178837
  21 H :    0.046009
  22 C :   -0.029461
  23 H :    0.027867
  24 H :    0.029443
  25 C :   -0.049590
  26 H :    0.018248
  27 H :    0.023087
  28 C :   -0.075983
  29 H :    0.031762
  30 H :    0.038091
  31 H :    0.025267
  32 H :    0.019680
  33 H :    0.022045

  Mayer bond orders larger than 0.100000
B(  0-S ,  1-C ) :   1.1379 B(  0-S ,  4-C ) :   1.1549 B(  1-C ,  2-C ) :   1.5833
B(  1-C ,  4-C ) :   0.1075 B(  1-C , 32-H ) :   0.9807 B(  2-C ,  3-C ) :   1.2439
B(  2-C ,  6-C ) :   0.9933 B(  3-C ,  4-C ) :   1.5767 B(  3-C ,  5-H ) :   0.9910
B(  4-C , 20-C ) :   1.0244 B(  6-C ,  7-H ) :   0.9444 B(  6-C ,  8-H ) :   0.9304
B(  6-C ,  9-C ) :   1.0765 B(  9-C , 10-H ) :   0.9578 B(  9-C , 11-H ) :   0.9482
B(  9-C , 12-C ) :   1.0864 B( 12-C , 13-H ) :   0.9738 B( 12-C , 14-H ) :   0.9683
B( 12-C , 15-H ) :   0.9725 B( 16-S , 17-C ) :   1.1470 B( 16-S , 20-C ) :   1.1185
B( 17-C , 18-C ) :   1.6229 B( 17-C , 33-H ) :   0.9736 B( 18-C , 19-C ) :   1.2048
B( 18-C , 21-H ) :   0.9841 B( 19-C , 20-C ) :   1.6663 B( 19-C , 22-C ) :   1.0375
B( 22-C , 23-H ) :   0.9304 B( 22-C , 24-H ) :   0.9317 B( 22-C , 25-C ) :   1.0578
B( 25-C , 26-H ) :   0.9476 B( 25-C , 27-H ) :   0.9434 B( 25-C , 28-C ) :   1.0696
B( 28-C , 29-H ) :   0.9720 B( 28-C , 30-H ) :   0.9736 B( 28-C , 31-H ) :   0.9770

Dispersion correction           -0.014075106
FINAL SINGLE POINT ENERGY     -1339.861702235331

DIPOLE MOMENT
-------------
                                X             Y             Z
Electronic contribution:      9.75306      22.76897     -21.17090
Nuclear contribution   :     -9.81107     -23.18010      21.75999
                        -----------------------------------------
Total Dipole Moment    :     -0.05802      -0.41113       0.58910
                        -----------------------------------------
Magnitude (a.u.)       :      0.72071
Magnitude (Debye)      :      1.83190

Rotational constants in cm-1:     0.018610     0.008479     0.006131
Rotational constants in MHz :   557.901972   254.195306   183.799308

                             ****ORCA TERMINATED NORMALLY****
TOTAL RUN TIME: 0 days 0 hours 0 minutes 21 seconds 506 msec
