                         Program Version 4.2.1 -  RELEASE  -
|  1> ! wB97X-D3 SP def2-SVP
|  2> %pal
|  3> nprocs 24
|  4> end
|  5>
|  6> * xyz 0 1
|  7> S 	 -146.868 	 7.40388 	 7.8601
|  8> C 	 -147.26 	 8.93335 	 7.07481
|  9> C 	 -147.785 	 9.8653 	 8.03048
| 10> C 	 -147.796 	 9.31311 	 9.32184
| 11> C 	 -147.098 	 8.13786 	 9.50179
| 12> H 	 -148.188 	 9.84593 	 10.2055
| 13> C 	 -148.408 	 11.1829 	 7.76072
| 14> H 	 -148.275 	 11.7467 	 8.64656
| 15> H 	 -149.529 	 11.002 	 7.66607
| 16> C 	 -147.807 	 12.0464 	 6.63916
| 17> H 	 -146.717 	 12.1576 	 6.74941
| 18> H 	 -148.034 	 11.5772 	 5.67857
| 19> C 	 -148.237 	 13.5291 	 6.45669
| 20> H 	 -147.751 	 14.1409 	 7.15947
| 21> H 	 -148.017 	 13.9192 	 5.45721
| 22> H 	 -149.313 	 13.5852 	 6.58246
| 23> S 	 -147.447 	 5.73726 	 10.9289
| 24> C 	 -146.831 	 5.5878 	 12.5086
| 25> C 	 -146.445 	 6.8143 	 12.9778
| 26> C 	 -146.545 	 7.85696 	 12.0717
| 27> C 	 -146.915 	 7.38839 	 10.7764
| 28> H 	 -146.234 	 6.92452 	 14.0061
| 29> C 	 -146.091 	 9.19057 	 12.448
| 30> H 	 -145.916 	 9.75935 	 11.5967
| 31> H 	 -145.098 	 9.26266 	 13.03
| 32> C 	 -147.099 	 9.93679 	 13.3498
| 33> H 	 -146.944 	 9.68111 	 14.4026
| 34> H 	 -148.079 	 9.58317 	 13.2659
| 35> C 	 -146.984 	 11.4938 	 13.2405
| 36> H 	 -147.758 	 12.0042 	 13.8717
| 37> H 	 -147.212 	 11.8388 	 12.2625
| 38> H 	 -146.062 	 11.9656 	 13.5262
| 39> H 	 -147.005 	 9.1386 	 6.02962
| 40> H 	 -146.861 	 4.71852 	 13.1436
| 41> *
| 42>
| 43>                          ****END OF INPUT****

CARTESIAN COORDINATES (ANGSTROEM)
---------------------------------
  S    -146.868000    7.403880    7.860100
  C    -147.260000    8.933350    7.074810
  C    -147.785000    9.865300    8.030480
  C    -147.796000    9.313110    9.321840
  C    -147.098000    8.137860    9.501790
  H    -148.188000    9.845930   10.205500
  C    -148.408000   11.182900    7.760720
  H    -148.275000   11.746700    8.646560
  H    -149.529000   11.002000    7.666070
  C    -147.807000   12.046400    6.639160
  H    -146.717000   12.157600    6.749410
  H    -148.034000   11.577200    5.678570
  C    -148.237000   13.529100    6.456690
  H    -147.751000   14.140900    7.159470
  H    -148.017000   13.919200    5.457210
  H    -149.313000   13.585200    6.582460
  S    -147.447000    5.737260   10.928900
  C    -146.831000    5.587800   12.508600
  C    -146.445000    6.814300   12.977800
  C    -146.545000    7.856960   12.071700
  C    -146.915000    7.388390   10.776400
  H    -146.234000    6.924520   14.006100
  C    -146.091000    9.190570   12.448000
  H    -145.916000    9.759350   11.596700
  H    -145.098000    9.262660   13.030000
  C    -147.099000    9.936790   13.349800
  H    -146.944000    9.681110   14.402600
  H    -148.079000    9.583170   13.265900
  C    -146.984000   11.493800   13.240500
  H    -147.758000   12.004200   13.871700
  H    -147.212000   11.838800   12.262500
  H    -146.062000   11.965600   13.526200
  H    -147.005000    9.138600    6.029620
  H    -146.861000    4.718520   13.143600

 Total Charge           Charge          ....    0
 Multiplicity           Mult            ....    1
 Number of Electrons    NEL             ....  134
 Basis Dimension        Dim             ....  322

ORBITAL ENERGIES
----------------

  NO   OCC          E(Eh)            E(eV)
   0   2.0000     -88.967128     -2420.9186
   1   2.0000     -88.966926     -2420.9131
   2   2.0000     -10.337056      -281.2856
   3   2.0000     -10.332149      -281.1521
   4   2.0000     -10.322557      -280.8911
   5   2.0000     -10.310539      -280.5640
   6   2.0000     -10.305170      -280.4179
   7   2.0000     -10.298817      -280.2451
   8   2.0000     -10.295734      -280.1612
   9   2.0000     -10.295668      -280.1594
  10   2.0000     -10.290583      -280.0210
  11   2.0000     -10.286715      -279.9157
  12   2.0000     -10.285479      -279.8821
  13   2.0000     -10.281635      -279.7775
  14   2.0000     -10.280263      -279.7402
  15   2.0000     -10.277573      -279.6670
  16   2.0000      -8.082616      -219.9392
  17   2.0000      -8.080346      -219.8774
  18   2.0000      -6.040942      -164.3824
  19   2.0000      -6.039012      -164.3299
  20   2.0000      -6.037001      -164.2751
  21   2.0000      -6.035102      -164.2235
  22   2.0000      -6.033534      -164.1808
  23   2.0000      -6.030963      -164.1108
  24   2.0000      -1.008592       -27.4452
  25   2.0000      -0.984259       -26.7831
  26   2.0000      -0.913561       -24.8593
  27   2.0000      -0.910497       -24.7759
  28   2.0000      -0.865210       -23.5436
  29   2.0000      -0.854361       -23.2483
  30   2.0000      -0.851235       -23.1633
  31   2.0000      -0.815344       -22.1866
  32   2.0000      -0.783874       -21.3303
  33   2.0000      -0.769766       -20.9464
  34   2.0000      -0.713046       -19.4030
  35   2.0000      -0.708981       -19.2924
  36   2.0000      -0.693291       -18.8654
  37   2.0000      -0.659018       -17.9328
  38   2.0000      -0.637441       -17.3457
  39   2.0000      -0.618996       -16.8437
  40   2.0000      -0.603845       -16.4314
  41   2.0000      -0.574647       -15.6369
  42   2.0000      -0.568244       -15.4627
  43   2.0000      -0.557645       -15.1743
  44   2.0000      -0.526170       -14.3178
  45   2.0000      -0.521821       -14.1995
  46   2.0000      -0.517989       -14.0952
  47   2.0000      -0.513695       -13.9783
  48   2.0000      -0.507320       -13.8049
  49   2.0000      -0.503944       -13.7130
  50   2.0000      -0.494262       -13.4496
  51   2.0000      -0.480652       -13.0792
  52   2.0000      -0.477336       -12.9890
  53   2.0000      -0.463462       -12.6114
  54   2.0000      -0.461883       -12.5685
  55   2.0000      -0.449989       -12.2448
  56   2.0000      -0.446844       -12.1593
  57   2.0000      -0.442825       -12.0499
  58   2.0000      -0.433346       -11.7919
  59   2.0000      -0.426071       -11.5940
  60   2.0000      -0.423077       -11.5125
  61   2.0000      -0.412297       -11.2192
  62   2.0000      -0.411121       -11.1872
  63   2.0000      -0.349718        -9.5163
  64   2.0000      -0.330974        -9.0063
  65   2.0000      -0.326781        -8.8922
  66   2.0000      -0.284865        -7.7516
  67   0.0000       0.019965         0.5433
  68   0.0000       0.065575         1.7844
  69   0.0000       0.107018         2.9121
  70   0.0000       0.121505         3.3063
  71   0.0000       0.128969         3.5094

MULLIKEN ATOMIC CHARGES
-----------------------
   0 S :    0.094978
   1 C :   -0.131549
   2 C :   -0.096799
   3 C :    0.012398
   4 C :   -0.145006
   5 H :    0.025873
   6 C :    0.087785
   7 H :    0.007116
   8 H :    0.060037
   9 C :   -0.123638
  10 H :    0.038934
  11 H :    0.031174
  12 C :   -0.028259
  13 H :    0.025024
  14 H :    0.035552
  15 H :    0.024409
  16 S :    0.120410
  17 C :   -0.080070
  18 C :   -0.027761
  19 C :   -0.019941
  20 C :   -0.146851
  21 H :    0.000482
  22 C :    0.065390
  23 H :    0.000377
  24 H :    0.045293
  25 C :   -0.065189
  26 H :    0.021483
  27 H :    0.017687
  28 C :   -0.049276
  29 H :    0.030975
  30 H :    0.016738
  31 H :    0.031191
  32 H :    0.068733
  33 H :    0.052300
Sum of atomic charges:   -0.0000000

LOEWDIN ATOMIC CHARGES
----------------------
   0 S :    0.377242
   1 C :   -0.194737
   2 C :   -0.064474
   3 C :   -0.063308
   4 C :   -0.174357
   5 H :    0.036300
   6 C :   -0.037290
   7 H :    0.023443
   8 H :    0.047846
   9 C :   -0.045386
  10 H :    0.029304
  11 H :    0.021282
  12 C :   -0.058301
  13 H :    0.016037
  14 H :    0.030855
  15 H :    0.022580
  16 S :    0.436504
  17 C :   -0.198599
  18 C :   -0.069300
  19 C :   -0.058635
  20 C :   -0.202811
  21 H :    0.025278
  22 C :   -0.033424
  23 H :    0.017085
  24 H :    0.044372
  25 C :   -0.036220
  26 H :    0.024527
  27 H :    0.015701
  28 C :   -0.065072
  29 H :    0.032217
  30 H :    0.015360
  31 H :    0.023095
  32 H :    0.032052
  33 H :    0.030834

  Mayer bond orders larger than 0.100000
B(  0-S ,  1-C ) :   1.1477 B(  0-S ,  4-C ) :   1.1372 B(  1-C ,  2-C ) :   1.5553
B(  1-C ,  4-C ) :   0.1107 B(  1-C , 32-H ) :   0.9677 B(  2-C ,  3-C ) :   1.2753
B(  2-C ,  6-C ) :   1.0331 B(  3-C ,  4-C ) :   1.5542 B(  3-C ,  5-H ) :   0.9822
B(  4-C , 20-C ) :   1.0501 B(  6-C ,  7-H ) :   0.9377 B(  6-C ,  8-H ) :   0.9242
B(  6-C ,  9-C ) :   1.0633 B(  9-C , 10-H ) :   0.9645 B(  9-C , 11-H ) :   0.9539
B(  9-C , 12-C ) :   1.0851 B( 12-C , 13-H ) :   0.9787 B( 12-C , 14-H ) :   0.9750
B( 12-C , 15-H ) :   0.9750 B( 16-S , 17-C ) :   1.1724 B( 16-S , 20-C ) :   1.1695
B( 17-C , 18-C ) :   1.5633 B( 17-C , 20-C ) :   0.1040 B( 17-C , 33-H ) :   0.9692
B( 18-C , 19-C ) :   1.2940 B( 18-C , 21-H ) :   0.9992 B( 19-C , 20-C ) :   1.5102
B( 19-C , 22-C ) :   1.0750 B( 22-C , 23-H ) :   0.9374 B( 22-C , 24-H ) :   0.9379
B( 22-C , 25-C ) :   1.0285 B( 25-C , 26-H ) :   0.9513 B( 25-C , 27-H ) :   0.9623
B( 25-C , 28-C ) :   1.0797 B( 28-C , 29-H ) :   0.9740 B( 28-C , 30-H ) :   0.9781
B( 28-C , 31-H ) :   0.9761

Dispersion correction           -0.013849481
FINAL SINGLE POINT ENERGY     -1339.859320514068

DIPOLE MOMENT
-------------
                                X             Y             Z
Electronic contribution:      2.56830     -32.49922      -3.43805
Nuclear contribution   :     -2.73458      33.20419       3.75727
                        -----------------------------------------
Total Dipole Moment    :     -0.16628       0.70497       0.31922
                        -----------------------------------------
Magnitude (a.u.)       :      0.79154
Magnitude (Debye)      :      2.01193

Rotational constants in cm-1:     0.018607     0.008326     0.005987
Rotational constants in MHz :   557.829458   249.604155   179.493482

                             ****ORCA TERMINATED NORMALLY****
TOTAL RUN TIME: 0 days 0 hours 0 minutes 21 seconds 556 msec
