                         Program Version 4.2.1 -  RELEASE  -
|  1> ! wB97X-D3 SP def2-SVP
|  2> %pal
|  3> nprocs 24
|  4> end
|  5>
|  6> * xyz 0 1
|  7> S 	 -46.0405 	 17.2841 	 24.4357
|  8> C 	 -47.2638 	 18.5289 	 24.3394
|  9> C 	 -47.8549 	 18.7915 	 25.5873
| 10> C 	 -47.3068 	 17.8676 	 26.5953
| 11> C 	 -46.2684 	 17.1043 	 26.1791
| 12> H 	 -47.7238 	 17.7724 	 27.6209
| 13> C 	 -49.0405 	 19.7571 	 25.8063
| 14> H 	 -49.3412 	 20.0735 	 24.8501
| 15> H 	 -48.7231 	 20.6006 	 26.3576
| 16> C 	 -50.2252 	 19.1755 	 26.6012
| 17> H 	 -49.8405 	 19.0266 	 27.5822
| 18> H 	 -51.0818 	 19.8243 	 26.5864
| 19> C 	 -50.6895 	 17.7014 	 26.2128
| 20> H 	 -49.9563 	 16.8348 	 26.3071
| 21> H 	 -51.5529 	 17.5101 	 26.8234
| 22> H 	 -51.0379 	 17.6889 	 25.1323
| 23> S 	 -45.7151 	 14.4193 	 25.9991
| 24> C 	 -44.7458 	 13.6539 	 27.2289
| 25> C 	 -44.3818 	 14.5352 	 28.2197
| 26> C 	 -44.8683 	 15.8835 	 27.9893
| 27> C 	 -45.5852 	 15.9789 	 26.8057
| 28> H 	 -43.9231 	 14.187 	 29.1027
| 29> C 	 -44.6755 	 17.0243 	 28.9411
| 30> H 	 -44.4743 	 18.0036 	 28.4339
| 31> H 	 -43.7648 	 16.8712 	 29.583
| 32> C 	 -45.7939 	 17.0929 	 30.0181
| 33> H 	 -46.712 	 17.3129 	 29.5134
| 34> H 	 -45.8188 	 18.0354 	 30.6666
| 35> C 	 -45.9605 	 15.8534 	 30.8635
| 36> H 	 -45.1722 	 15.6483 	 31.529
| 37> H 	 -46.0257 	 14.8752 	 30.351
| 38> H 	 -46.8113 	 15.9036 	 31.491
| 39> H 	 -47.7513 	 18.8074 	 23.3736
| 40> H 	 -44.5176 	 12.5825 	 27.2544
| 41> *
| 42>
| 43>                          ****END OF INPUT****

CARTESIAN COORDINATES (ANGSTROEM)
---------------------------------
  S    -46.040500   17.284100   24.435700
  C    -47.263800   18.528900   24.339400
  C    -47.854900   18.791500   25.587300
  C    -47.306800   17.867600   26.595300
  C    -46.268400   17.104300   26.179100
  H    -47.723800   17.772400   27.620900
  C    -49.040500   19.757100   25.806300
  H    -49.341200   20.073500   24.850100
  H    -48.723100   20.600600   26.357600
  C    -50.225200   19.175500   26.601200
  H    -49.840500   19.026600   27.582200
  H    -51.081800   19.824300   26.586400
  C    -50.689500   17.701400   26.212800
  H    -49.956300   16.834800   26.307100
  H    -51.552900   17.510100   26.823400
  H    -51.037900   17.688900   25.132300
  S    -45.715100   14.419300   25.999100
  C    -44.745800   13.653900   27.228900
  C    -44.381800   14.535200   28.219700
  C    -44.868300   15.883500   27.989300
  C    -45.585200   15.978900   26.805700
  H    -43.923100   14.187000   29.102700
  C    -44.675500   17.024300   28.941100
  H    -44.474300   18.003600   28.433900
  H    -43.764800   16.871200   29.583000
  C    -45.793900   17.092900   30.018100
  H    -46.712000   17.312900   29.513400
  H    -45.818800   18.035400   30.666600
  C    -45.960500   15.853400   30.863500
  H    -45.172200   15.648300   31.529000
  H    -46.025700   14.875200   30.351000
  H    -46.811300   15.903600   31.491000
  H    -47.751300   18.807400   23.373600
  H    -44.517600   12.582500   27.254400

 Total Charge           Charge          ....    0
 Multiplicity           Mult            ....    1
 Number of Electrons    NEL             ....  134
 Basis Dimension        Dim             ....  322

ORBITAL ENERGIES
----------------

  NO   OCC          E(Eh)            E(eV)
   0   2.0000     -88.966244     -2420.8946
   1   2.0000     -88.962545     -2420.7939
   2   2.0000     -10.328928      -281.0644
   3   2.0000     -10.326981      -281.0114
   4   2.0000     -10.319054      -280.7957
   5   2.0000     -10.318757      -280.7876
   6   2.0000     -10.310348      -280.5588
   7   2.0000     -10.306147      -280.4445
   8   2.0000     -10.301261      -280.3116
   9   2.0000     -10.298470      -280.2356
  10   2.0000     -10.293886      -280.1109
  11   2.0000     -10.290907      -280.0298
  12   2.0000     -10.289592      -279.9940
  13   2.0000     -10.289465      -279.9906
  14   2.0000     -10.284672      -279.8602
  15   2.0000     -10.269980      -279.4604
  16   2.0000      -8.080925      -219.8931
  17   2.0000      -8.077349      -219.7958
  18   2.0000      -6.039470      -164.3423
  19   2.0000      -6.035905      -164.2453
  20   2.0000      -6.035417      -164.2321
  21   2.0000      -6.031856      -164.1351
  22   2.0000      -6.031653      -164.1296
  23   2.0000      -6.028026      -164.0309
  24   2.0000      -1.005750       -27.3678
  25   2.0000      -0.980363       -26.6770
  26   2.0000      -0.909565       -24.7505
  27   2.0000      -0.907833       -24.7034
  28   2.0000      -0.867717       -23.6118
  29   2.0000      -0.848900       -23.0997
  30   2.0000      -0.836149       -22.7528
  31   2.0000      -0.817664       -22.2498
  32   2.0000      -0.786814       -21.4103
  33   2.0000      -0.773789       -21.0559
  34   2.0000      -0.710924       -19.3452
  35   2.0000      -0.699588       -19.0368
  36   2.0000      -0.686289       -18.6749
  37   2.0000      -0.663254       -18.0481
  38   2.0000      -0.639870       -17.4117
  39   2.0000      -0.620675       -16.8894
  40   2.0000      -0.594696       -16.1825
  41   2.0000      -0.563434       -15.3318
  42   2.0000      -0.556087       -15.1319
  43   2.0000      -0.552774       -15.0417
  44   2.0000      -0.540130       -14.6977
  45   2.0000      -0.538444       -14.6518
  46   2.0000      -0.517248       -14.0750
  47   2.0000      -0.507759       -13.8168
  48   2.0000      -0.498447       -13.5634
  49   2.0000      -0.493268       -13.4225
  50   2.0000      -0.490494       -13.3470
  51   2.0000      -0.484720       -13.1899
  52   2.0000      -0.470636       -12.8067
  53   2.0000      -0.466730       -12.7004
  54   2.0000      -0.456900       -12.4329
  55   2.0000      -0.447345       -12.1729
  56   2.0000      -0.443903       -12.0792
  57   2.0000      -0.436576       -11.8798
  58   2.0000      -0.431075       -11.7302
  59   2.0000      -0.430111       -11.7039
  60   2.0000      -0.421702       -11.4751
  61   2.0000      -0.414179       -11.2704
  62   2.0000      -0.403855       -10.9895
  63   2.0000      -0.346895        -9.4395
  64   2.0000      -0.330847        -9.0028
  65   2.0000      -0.325249        -8.8505
  66   2.0000      -0.298245        -8.1157
  67   0.0000       0.030749         0.8367
  68   0.0000       0.068479         1.8634
  69   0.0000       0.112335         3.0568
  70   0.0000       0.120681         3.2839
  71   0.0000       0.125564         3.4168

MULLIKEN ATOMIC CHARGES
-----------------------
   0 S :    0.093137
   1 C :   -0.133062
   2 C :   -0.140306
   3 C :    0.013491
   4 C :   -0.144852
   5 H :    0.034369
   6 C :    0.160049
   7 H :   -0.000894
   8 H :    0.030642
   9 C :   -0.097199
  10 H :    0.025209
  11 H :    0.039564
  12 C :   -0.097929
  13 H :    0.061050
  14 H :    0.033622
  15 H :    0.033444
  16 S :    0.113467
  17 C :   -0.098870
  18 C :   -0.016533
  19 C :   -0.024926
  20 C :   -0.161512
  21 H :    0.004897
  22 C :    0.048850
  23 H :    0.050780
  24 H :    0.026118
  25 C :   -0.051646
  26 H :   -0.005881
  27 H :    0.032742
  28 C :   -0.034312
  29 H :    0.008982
  30 H :    0.038921
  31 H :    0.020028
  32 H :    0.073179
  33 H :    0.065378
Sum of atomic charges:    0.0000000

LOEWDIN ATOMIC CHARGES
----------------------
   0 S :    0.392736
   1 C :   -0.206767
   2 C :   -0.056044
   3 C :   -0.064526
   4 C :   -0.189428
   5 H :    0.034294
   6 C :   -0.020132
   7 H :    0.020076
   8 H :    0.030651
   9 C :   -0.035160
  10 H :    0.018417
  11 H :    0.026943
  12 C :   -0.077548
  13 H :    0.035708
  14 H :    0.021474
  15 H :    0.026916
  16 S :    0.404876
  17 C :   -0.187119
  18 C :   -0.066470
  19 C :   -0.051515
  20 C :   -0.197755
  21 H :    0.023818
  22 C :   -0.038459
  23 H :    0.041233
  24 H :    0.033937
  25 C :   -0.045622
  26 H :    0.012430
  27 H :    0.034677
  28 C :   -0.068752
  29 H :    0.016892
  30 H :    0.032466
  31 H :    0.024769
  32 H :    0.038236
  33 H :    0.034749

  Mayer bond orders larger than 0.100000
B(  0-S ,  1-C ) :   1.1411 B(  0-S ,  4-C ) :   1.1309 B(  1-C ,  2-C ) :   1.6341
B(  1-C , 32-H ) :   0.9539 B(  2-C ,  3-C ) :   1.2157 B(  2-C ,  6-C ) :   1.0211
B(  3-C ,  4-C ) :   1.6242 B(  3-C ,  5-H ) :   0.9763 B(  4-C , 20-C ) :   1.0281
B(  6-C ,  7-H ) :   0.9375 B(  6-C ,  8-H ) :   0.9340 B(  6-C ,  9-C ) :   1.0694
B(  9-C , 10-H ) :   0.9538 B(  9-C , 11-H ) :   0.9583 B(  9-C , 12-C ) :   1.0739
B( 12-C , 13-H ) :   0.9708 B( 12-C , 14-H ) :   0.9762 B( 12-C , 15-H ) :   0.9780
B( 16-S , 17-C ) :   1.1498 B( 16-S , 20-C ) :   1.1396 B( 17-C , 18-C ) :   1.6177
B( 17-C , 33-H ) :   0.9642 B( 18-C , 19-C ) :   1.2255 B( 18-C , 21-H ) :   0.9939
B( 19-C , 20-C ) :   1.6098 B( 19-C , 22-C ) :   1.0556 B( 22-C , 23-H ) :   0.9341
B( 22-C , 24-H ) :   0.9398 B( 22-C , 25-C ) :   1.0559 B( 25-C , 26-H ) :   0.9513
B( 25-C , 27-H ) :   0.9493 B( 25-C , 28-C ) :   1.0809 B( 28-C , 29-H ) :   0.9720
B( 28-C , 30-H ) :   0.9676 B( 28-C , 31-H ) :   0.9682

Dispersion correction           -0.015390802
FINAL SINGLE POINT ENERGY     -1339.876936714283

DIPOLE MOMENT
-------------
                                X             Y             Z
Electronic contribution:     14.31457      -8.95931     -18.88997
Nuclear contribution   :    -14.75913       9.08729      19.46336
                        -----------------------------------------
Total Dipole Moment    :     -0.44456       0.12798       0.57340
                        -----------------------------------------
Magnitude (a.u.)       :      0.73675
Magnitude (Debye)      :      1.87266

Rotational constants in cm-1:     0.018862     0.009496     0.007614
Rotational constants in MHz :   565.471171   284.686391   228.247213

                             ****ORCA TERMINATED NORMALLY****
TOTAL RUN TIME: 0 days 0 hours 0 minutes 21 seconds 221 msec
