                         Program Version 4.2.1 -  RELEASE  -
|  1> ! wB97X-D3 SP def2-SVP
|  2> %pal
|  3> nprocs 24
|  4> end
|  5>
|  6> * xyz 0 1
|  7> S 	 -45.4466 	 28.1923 	 35.1157
|  8> C 	 -46.1786 	 26.6381 	 34.7891
|  9> C 	 -45.5933 	 26.0075 	 33.7535
| 10> C 	 -44.4145 	 26.7636 	 33.2243
| 11> C 	 -44.1661 	 27.9063 	 33.937
| 12> H 	 -43.8396 	 26.3526 	 32.3852
| 13> C 	 -46.1109 	 24.6939 	 33.1767
| 14> H 	 -46.5055 	 24.0855 	 34.0317
| 15> H 	 -45.2593 	 24.1007 	 33.0208
| 16> C 	 -47.1427 	 24.9294 	 32.0494
| 17> H 	 -47.9092 	 25.6562 	 32.314
| 18> H 	 -46.6478 	 25.2078 	 31.1274
| 19> C 	 -47.7195 	 23.6186 	 31.6239
| 20> H 	 -46.9221 	 23.036 	 31.1064
| 21> H 	 -48.1837 	 23.1746 	 32.4931
| 22> H 	 -48.4828 	 23.8262 	 30.885
| 23> S 	 -42.231 	 29.3725 	 35.2848
| 24> C 	 -40.7767 	 29.8021 	 34.4247
| 25> C 	 -40.9248 	 29.6386 	 33.0711
| 26> C 	 -42.1249 	 28.9653 	 32.6927
| 27> C 	 -42.9737 	 28.7169 	 33.8038
| 28> H 	 -40.0574 	 29.8371 	 32.3919
| 29> C 	 -42.3956 	 28.5592 	 31.2538
| 30> H 	 -42.1491 	 29.4181 	 30.5952
| 31> H 	 -43.4504 	 28.2454 	 31.1122
| 32> C 	 -41.6346 	 27.2965 	 30.7479
| 33> H 	 -41.8841 	 26.4563 	 31.3476
| 34> H 	 -40.5136 	 27.3849 	 30.9203
| 35> C 	 -41.965 	 26.9851 	 29.2783
| 36> H 	 -41.5924 	 27.8081 	 28.6327
| 37> H 	 -42.9939 	 26.8586 	 29.0427
| 38> H 	 -41.4174 	 26.1305 	 28.9455
| 39> H 	 -46.9133 	 26.2699 	 35.4808
| 40> H 	 -39.929 	 30.2871 	 34.9068
| 41> *
| 42>
| 43>                          ****END OF INPUT****

CARTESIAN COORDINATES (ANGSTROEM)
---------------------------------
  S    -45.446600   28.192300   35.115700
  C    -46.178600   26.638100   34.789100
  C    -45.593300   26.007500   33.753500
  C    -44.414500   26.763600   33.224300
  C    -44.166100   27.906300   33.937000
  H    -43.839600   26.352600   32.385200
  C    -46.110900   24.693900   33.176700
  H    -46.505500   24.085500   34.031700
  H    -45.259300   24.100700   33.020800
  C    -47.142700   24.929400   32.049400
  H    -47.909200   25.656200   32.314000
  H    -46.647800   25.207800   31.127400
  C    -47.719500   23.618600   31.623900
  H    -46.922100   23.036000   31.106400
  H    -48.183700   23.174600   32.493100
  H    -48.482800   23.826200   30.885000
  S    -42.231000   29.372500   35.284800
  C    -40.776700   29.802100   34.424700
  C    -40.924800   29.638600   33.071100
  C    -42.124900   28.965300   32.692700
  C    -42.973700   28.716900   33.803800
  H    -40.057400   29.837100   32.391900
  C    -42.395600   28.559200   31.253800
  H    -42.149100   29.418100   30.595200
  H    -43.450400   28.245400   31.112200
  C    -41.634600   27.296500   30.747900
  H    -41.884100   26.456300   31.347600
  H    -40.513600   27.384900   30.920300
  C    -41.965000   26.985100   29.278300
  H    -41.592400   27.808100   28.632700
  H    -42.993900   26.858600   29.042700
  H    -41.417400   26.130500   28.945500
  H    -46.913300   26.269900   35.480800
  H    -39.929000   30.287100   34.906800

 Total Charge           Charge          ....    0
 Multiplicity           Mult            ....    1
 Number of Electrons    NEL             ....  134
 Basis Dimension        Dim             ....  322

ORBITAL ENERGIES
----------------

  NO   OCC          E(Eh)            E(eV)
   0   2.0000     -88.964981     -2420.8602
   1   2.0000     -88.960009     -2420.7249
   2   2.0000     -10.331717      -281.1403
   3   2.0000     -10.331449      -281.1330
   4   2.0000     -10.318044      -280.7683
   5   2.0000     -10.308385      -280.5054
   6   2.0000     -10.307953      -280.4937
   7   2.0000     -10.300396      -280.2880
   8   2.0000     -10.298860      -280.2462
   9   2.0000     -10.297865      -280.2192
  10   2.0000     -10.297120      -280.1989
  11   2.0000     -10.292320      -280.0683
  12   2.0000     -10.292227      -280.0657
  13   2.0000     -10.285297      -279.8772
  14   2.0000     -10.278534      -279.6931
  15   2.0000     -10.275930      -279.6223
  16   2.0000      -8.079483      -219.8539
  17   2.0000      -8.075157      -219.7362
  18   2.0000      -6.038005      -164.3025
  19   2.0000      -6.034015      -164.1939
  20   2.0000      -6.033921      -164.1913
  21   2.0000      -6.030244      -164.0913
  22   2.0000      -6.029683      -164.0760
  23   2.0000      -6.025560      -163.9638
  24   2.0000      -1.002714       -27.2852
  25   2.0000      -0.980602       -26.6835
  26   2.0000      -0.916018       -24.9261
  27   2.0000      -0.907140       -24.6845
  28   2.0000      -0.873934       -23.7810
  29   2.0000      -0.852277       -23.1916
  30   2.0000      -0.844776       -22.9875
  31   2.0000      -0.814367       -22.1600
  32   2.0000      -0.781102       -21.2549
  33   2.0000      -0.769348       -20.9350
  34   2.0000      -0.706867       -19.2348
  35   2.0000      -0.698341       -19.0028
  36   2.0000      -0.694873       -18.9085
  37   2.0000      -0.661059       -17.9883
  38   2.0000      -0.638159       -17.3652
  39   2.0000      -0.619853       -16.8670
  40   2.0000      -0.597034       -16.2461
  41   2.0000      -0.577837       -15.7237
  42   2.0000      -0.563531       -15.3344
  43   2.0000      -0.558644       -15.2015
  44   2.0000      -0.534351       -14.5404
  45   2.0000      -0.523468       -14.2443
  46   2.0000      -0.519018       -14.1232
  47   2.0000      -0.512830       -13.9548
  48   2.0000      -0.507356       -13.8058
  49   2.0000      -0.498438       -13.5632
  50   2.0000      -0.491865       -13.3843
  51   2.0000      -0.483791       -13.1646
  52   2.0000      -0.469873       -12.7859
  53   2.0000      -0.461182       -12.5494
  54   2.0000      -0.454662       -12.3720
  55   2.0000      -0.449497       -12.2314
  56   2.0000      -0.444932       -12.1072
  57   2.0000      -0.440634       -11.9903
  58   2.0000      -0.434167       -11.8143
  59   2.0000      -0.425659       -11.5828
  60   2.0000      -0.419438       -11.4135
  61   2.0000      -0.415054       -11.2942
  62   2.0000      -0.412140       -11.2149
  63   2.0000      -0.357347        -9.7239
  64   2.0000      -0.331110        -9.0100
  65   2.0000      -0.324404        -8.8275
  66   2.0000      -0.287188        -7.8148
  67   0.0000       0.024435         0.6649
  68   0.0000       0.079272         2.1571
  69   0.0000       0.108806         2.9608
  70   0.0000       0.123964         3.3732
  71   0.0000       0.126296         3.4367

MULLIKEN ATOMIC CHARGES
-----------------------
   0 S :    0.086727
   1 C :   -0.126274
   2 C :   -0.101145
   3 C :    0.007126
   4 C :   -0.102852
   5 H :    0.002388
   6 C :    0.061910
   7 H :    0.017186
   8 H :    0.006595
   9 C :   -0.050077
  10 H :    0.040349
  11 H :    0.022410
  12 C :   -0.033196
  13 H :    0.038217
  14 H :    0.028524
  15 H :    0.028553
  16 S :    0.101253
  17 C :   -0.103147
  18 C :   -0.035979
  19 C :   -0.028136
  20 C :   -0.132759
  21 H :    0.037748
  22 C :    0.028825
  23 H :    0.037757
  24 H :    0.030432
  25 C :   -0.091826
  26 H :    0.022044
  27 H :    0.031373
  28 C :   -0.023528
  29 H :    0.028421
  30 H :    0.027092
  31 H :    0.029248
  32 H :    0.049851
  33 H :    0.064891
Sum of atomic charges:   -0.0000000

LOEWDIN ATOMIC CHARGES
----------------------
   0 S :    0.379014
   1 C :   -0.191154
   2 C :   -0.059397
   3 C :   -0.065036
   4 C :   -0.183447
   5 H :    0.030701
   6 C :   -0.035792
   7 H :    0.034782
   8 H :    0.023078
   9 C :   -0.035761
  10 H :    0.028227
  11 H :    0.025859
  12 C :   -0.062308
  13 H :    0.030987
  14 H :    0.019905
  15 H :    0.024118
  16 S :    0.397021
  17 C :   -0.185019
  18 C :   -0.079352
  19 C :   -0.053091
  20 C :   -0.186596
  21 H :    0.040490
  22 C :   -0.035800
  23 H :    0.035513
  24 H :    0.032305
  25 C :   -0.041253
  26 H :    0.013463
  27 H :    0.028286
  28 C :   -0.062983
  29 H :    0.029487
  30 H :    0.020228
  31 H :    0.024988
  32 H :    0.026121
  33 H :    0.032417

  Mayer bond orders larger than 0.100000
B(  0-S ,  1-C ) :   1.1068 B(  0-S ,  4-C ) :   1.1274 B(  1-C ,  2-C ) :   1.6621
B(  1-C , 32-H ) :   0.9717 B(  2-C ,  3-C ) :   1.2056 B(  2-C ,  6-C ) :   1.0228
B(  3-C ,  4-C ) :   1.5800 B(  3-C ,  5-H ) :   0.9902 B(  4-C , 20-C ) :   1.0766
B(  6-C ,  7-H ) :   0.9438 B(  6-C ,  8-H ) :   0.9331 B(  6-C ,  9-C ) :   1.0500
B(  9-C , 10-H ) :   0.9590 B(  9-C , 11-H ) :   0.9549 B(  9-C , 12-C ) :   1.0873
B( 12-C , 13-H ) :   0.9751 B( 12-C , 14-H ) :   0.9744 B( 12-C , 15-H ) :   0.9728
B( 16-S , 17-C ) :   1.1597 B( 16-S , 20-C ) :   1.1330 B( 17-C , 18-C ) :   1.6038
B( 17-C , 20-C ) :   0.1008 B( 17-C , 33-H ) :   0.9654 B( 18-C , 19-C ) :   1.2520
B( 18-C , 21-H ) :   0.9805 B( 19-C , 20-C ) :   1.5677 B( 19-C , 22-C ) :   1.0510
B( 22-C , 23-H ) :   0.9373 B( 22-C , 24-H ) :   0.9343 B( 22-C , 25-C ) :   1.0547
B( 25-C , 26-H ) :   0.9513 B( 25-C , 27-H ) :   0.9518 B( 25-C , 28-C ) :   1.0823
B( 28-C , 29-H ) :   0.9733 B( 28-C , 30-H ) :   0.9747 B( 28-C , 31-H ) :   0.9727

Dispersion correction           -0.013872098
FINAL SINGLE POINT ENERGY     -1339.882048394241

DIPOLE MOMENT
-------------
                                X             Y             Z
Electronic contribution:      4.67955      19.62634      25.87680
Nuclear contribution   :     -4.52795     -20.14606     -26.48647
                        -----------------------------------------
Total Dipole Moment    :      0.15160      -0.51972      -0.60967
                        -----------------------------------------
Magnitude (a.u.)       :      0.81535
Magnitude (Debye)      :      2.07245

Rotational constants in cm-1:     0.017699     0.008976     0.006212
Rotational constants in MHz :   530.608142   269.079621   186.233365

                             ****ORCA TERMINATED NORMALLY****
TOTAL RUN TIME: 0 days 0 hours 0 minutes 21 seconds 312 msec
