                         Program Version 4.2.1 -  RELEASE  -
|  1> ! wB97X-D3 SP def2-SVP
|  2> %pal
|  3> nprocs 24
|  4> end
|  5>
|  6> * xyz 0 1
|  7> S 	 -92.9412 	 -24.5078 	 -59.3289
|  8> C 	 -92.3841 	 -23.7715 	 -57.8631
|  9> C 	 -91.0914 	 -24.2162 	 -57.5097
| 10> C 	 -90.6355 	 -25.2791 	 -58.3172
| 11> C 	 -91.5769 	 -25.6106 	 -59.3649
| 12> H 	 -89.6568 	 -25.78 	 -58.1933
| 13> C 	 -90.2912 	 -23.9382 	 -56.2047
| 14> H 	 -89.3904 	 -23.3486 	 -56.3837
| 15> H 	 -89.8129 	 -24.8217 	 -55.7887
| 16> C 	 -91.1002 	 -23.2509 	 -55.1974
| 17> H 	 -90.5174 	 -22.672 	 -54.434
| 18> H 	 -91.6418 	 -22.3833 	 -55.575
| 19> C 	 -92.0506 	 -24.1232 	 -54.4388
| 20> H 	 -92.7479 	 -24.713 	 -55.0891
| 21> H 	 -91.5817 	 -24.8028 	 -53.772
| 22> H 	 -92.6353 	 -23.4489 	 -53.8703
| 23> S 	 -91.9007 	 -26.4088 	 -62.102
| 24> C 	 -91.4669 	 -27.9709 	 -62.6472
| 25> C 	 -91.2289 	 -28.7352 	 -61.5337
| 26> C 	 -91.2725 	 -28.0701 	 -60.2286
| 27> C 	 -91.5346 	 -26.7082 	 -60.3403
| 28> H 	 -91.2319 	 -29.8145 	 -61.7664
| 29> C 	 -91.1896 	 -28.8357 	 -58.9316
| 30> H 	 -91.1334 	 -28.0654 	 -58.1808
| 31> H 	 -90.2644 	 -29.4056 	 -58.7877
| 32> C 	 -92.3528 	 -29.7513 	 -58.6831
| 33> H 	 -92.1351 	 -30.195 	 -57.7401
| 34> H 	 -92.4314 	 -30.5519 	 -59.5662
| 35> C 	 -93.7257 	 -29.172 	 -58.4456
| 36> H 	 -94.0843 	 -28.8501 	 -59.3875
| 37> H 	 -93.6227 	 -28.2098 	 -57.9316
| 38> H 	 -94.4755 	 -29.8864 	 -58.1342
| 39> H 	 -92.9436 	 -23.1152 	 -57.2279
| 40> H 	 -91.5942 	 -28.4767 	 -63.5764
| 41> *
| 42>
| 43>                          ****END OF INPUT****

CARTESIAN COORDINATES (ANGSTROEM)
---------------------------------
  S    -92.941200  -24.507800  -59.328900
  C    -92.384100  -23.771500  -57.863100
  C    -91.091400  -24.216200  -57.509700
  C    -90.635500  -25.279100  -58.317200
  C    -91.576900  -25.610600  -59.364900
  H    -89.656800  -25.780000  -58.193300
  C    -90.291200  -23.938200  -56.204700
  H    -89.390400  -23.348600  -56.383700
  H    -89.812900  -24.821700  -55.788700
  C    -91.100200  -23.250900  -55.197400
  H    -90.517400  -22.672000  -54.434000
  H    -91.641800  -22.383300  -55.575000
  C    -92.050600  -24.123200  -54.438800
  H    -92.747900  -24.713000  -55.089100
  H    -91.581700  -24.802800  -53.772000
  H    -92.635300  -23.448900  -53.870300
  S    -91.900700  -26.408800  -62.102000
  C    -91.466900  -27.970900  -62.647200
  C    -91.228900  -28.735200  -61.533700
  C    -91.272500  -28.070100  -60.228600
  C    -91.534600  -26.708200  -60.340300
  H    -91.231900  -29.814500  -61.766400
  C    -91.189600  -28.835700  -58.931600
  H    -91.133400  -28.065400  -58.180800
  H    -90.264400  -29.405600  -58.787700
  C    -92.352800  -29.751300  -58.683100
  H    -92.135100  -30.195000  -57.740100
  H    -92.431400  -30.551900  -59.566200
  C    -93.725700  -29.172000  -58.445600
  H    -94.084300  -28.850100  -59.387500
  H    -93.622700  -28.209800  -57.931600
  H    -94.475500  -29.886400  -58.134200
  H    -92.943600  -23.115200  -57.227900
  H    -91.594200  -28.476700  -63.576400

 Total Charge           Charge          ....    0
 Multiplicity           Mult            ....    1
 Number of Electrons    NEL             ....  134
 Basis Dimension        Dim             ....  322

ORBITAL ENERGIES
----------------

  NO   OCC          E(Eh)            E(eV)
   0   2.0000     -88.976317     -2421.1687
   1   2.0000     -88.960507     -2420.7385
   2   2.0000     -10.342552      -281.4352
   3   2.0000     -10.336800      -281.2786
   4   2.0000     -10.320563      -280.8368
   5   2.0000     -10.313927      -280.6562
   6   2.0000     -10.308460      -280.5075
   7   2.0000     -10.308366      -280.5049
   8   2.0000     -10.306085      -280.4428
   9   2.0000     -10.293667      -280.1049
  10   2.0000     -10.293297      -280.0949
  11   2.0000     -10.287466      -279.9362
  12   2.0000     -10.286569      -279.9118
  13   2.0000     -10.283365      -279.8246
  14   2.0000     -10.270768      -279.4818
  15   2.0000     -10.265342      -279.3342
  16   2.0000      -8.090682      -220.1587
  17   2.0000      -8.075017      -219.7324
  18   2.0000      -6.049120      -164.6049
  19   2.0000      -6.045063      -164.4945
  20   2.0000      -6.041713      -164.4034
  21   2.0000      -6.033782      -164.1876
  22   2.0000      -6.029475      -164.0704
  23   2.0000      -6.025554      -163.9637
  24   2.0000      -1.002911       -27.2906
  25   2.0000      -0.983644       -26.7663
  26   2.0000      -0.923473       -25.1290
  27   2.0000      -0.914280       -24.8788
  28   2.0000      -0.869817       -23.6689
  29   2.0000      -0.856595       -23.3091
  30   2.0000      -0.840596       -22.8738
  31   2.0000      -0.810176       -22.0460
  32   2.0000      -0.790320       -21.5057
  33   2.0000      -0.780838       -21.2477
  34   2.0000      -0.712326       -19.3834
  35   2.0000      -0.699160       -19.0251
  36   2.0000      -0.689410       -18.7598
  37   2.0000      -0.651173       -17.7193
  38   2.0000      -0.637475       -17.3466
  39   2.0000      -0.617571       -16.8050
  40   2.0000      -0.596550       -16.2330
  41   2.0000      -0.581196       -15.8151
  42   2.0000      -0.561279       -15.2732
  43   2.0000      -0.554720       -15.0947
  44   2.0000      -0.543073       -14.7778
  45   2.0000      -0.533413       -14.5149
  46   2.0000      -0.523100       -14.2343
  47   2.0000      -0.522021       -14.2049
  48   2.0000      -0.509774       -13.8716
  49   2.0000      -0.494995       -13.4695
  50   2.0000      -0.488544       -13.2940
  51   2.0000      -0.486133       -13.2283
  52   2.0000      -0.472619       -12.8606
  53   2.0000      -0.464935       -12.6515
  54   2.0000      -0.456688       -12.4271
  55   2.0000      -0.448317       -12.1993
  56   2.0000      -0.444783       -12.1032
  57   2.0000      -0.439825       -11.9682
  58   2.0000      -0.431576       -11.7438
  59   2.0000      -0.421832       -11.4786
  60   2.0000      -0.411266       -11.1911
  61   2.0000      -0.408814       -11.1244
  62   2.0000      -0.400074       -10.8866
  63   2.0000      -0.351465        -9.5639
  64   2.0000      -0.336759        -9.1637
  65   2.0000      -0.322503        -8.7758
  66   2.0000      -0.289648        -7.8817
  67   0.0000       0.021210         0.5772
  68   0.0000       0.064210         1.7472
  69   0.0000       0.109022         2.9666
  70   0.0000       0.117454         3.1961
  71   0.0000       0.127492         3.4692

MULLIKEN ATOMIC CHARGES
-----------------------
   0 S :    0.139747
   1 C :   -0.113308
   2 C :   -0.087624
   3 C :    0.025782
   4 C :   -0.178133
   5 H :    0.036034
   6 C :    0.107113
   7 H :    0.031174
   8 H :    0.021153
   9 C :   -0.122645
  10 H :    0.019530
  11 H :    0.017445
  12 C :   -0.016961
  13 H :    0.036214
  14 H :    0.022714
  15 H :    0.016959
  16 S :    0.079772
  17 C :   -0.063163
  18 C :   -0.075891
  19 C :   -0.040904
  20 C :   -0.139628
  21 H :    0.029030
  22 C :    0.102932
  23 H :    0.000587
  24 H :    0.033344
  25 C :   -0.113047
  26 H :    0.023629
  27 H :    0.041386
  28 C :   -0.010144
  29 H :    0.008840
  30 H :    0.028841
  31 H :    0.040166
  32 H :    0.045630
  33 H :    0.053426
Sum of atomic charges:    0.0000000

LOEWDIN ATOMIC CHARGES
----------------------
   0 S :    0.434441
   1 C :   -0.204821
   2 C :   -0.058758
   3 C :   -0.057742
   4 C :   -0.195800
   5 H :    0.039873
   6 C :   -0.032179
   7 H :    0.036848
   8 H :    0.031619
   9 C :   -0.057531
  10 H :    0.030406
  11 H :    0.022529
  12 C :   -0.059236
  13 H :    0.028171
  14 H :    0.018537
  15 H :    0.022030
  16 S :    0.379424
  17 C :   -0.194594
  18 C :   -0.084035
  19 C :   -0.055011
  20 C :   -0.182821
  21 H :    0.032702
  22 C :   -0.034549
  23 H :    0.025563
  24 H :    0.036016
  25 C :   -0.044960
  26 H :    0.020326
  27 H :    0.032527
  28 C :   -0.068221
  29 H :    0.019350
  30 H :    0.030687
  31 H :    0.029850
  32 H :    0.024372
  33 H :    0.034986

  Mayer bond orders larger than 0.100000
B(  0-S ,  1-C ) :   1.1560 B(  0-S ,  4-C ) :   1.1764 B(  1-C ,  2-C ) :   1.5761
B(  1-C ,  4-C ) :   0.1120 B(  1-C , 32-H ) :   0.9641 B(  2-C ,  3-C ) :   1.2872
B(  2-C ,  6-C ) :   1.0016 B(  3-C ,  4-C ) :   1.5067 B(  3-C ,  5-H ) :   0.9899
B(  4-C , 20-C ) :   1.0568 B(  6-C ,  7-H ) :   0.9243 B(  6-C ,  8-H ) :   0.9500
B(  6-C ,  9-C ) :   1.0892 B(  9-C , 10-H ) :   0.9428 B(  9-C , 11-H ) :   0.9470
B(  9-C , 12-C ) :   1.0875 B( 12-C , 13-H ) :   0.9738 B( 12-C , 14-H ) :   0.9736
B( 12-C , 15-H ) :   0.9713 B( 16-S , 17-C ) :   1.1475 B( 16-S , 20-C ) :   1.1108
B( 17-C , 18-C ) :   1.6438 B( 17-C , 33-H ) :   0.9653 B( 18-C , 19-C ) :   1.2096
B( 18-C , 21-H ) :   0.9802 B( 19-C , 20-C ) :   1.5990 B( 19-C , 22-C ) :   1.0465
B( 22-C , 23-H ) :   0.9199 B( 22-C , 24-H ) :   0.9309 B( 22-C , 25-C ) :   1.0901
B( 25-C , 26-H ) :   0.9520 B( 25-C , 27-H ) :   0.9525 B( 25-C , 28-C ) :   1.0766
B( 28-C , 29-H ) :   0.9675 B( 28-C , 30-H ) :   0.9669 B( 28-C , 31-H ) :   0.9717

Dispersion correction           -0.014851228
FINAL SINGLE POINT ENERGY     -1339.851963469565

DIPOLE MOMENT
-------------
                                X             Y             Z
Electronic contribution:     -0.33457       6.89335     -24.91585
Nuclear contribution   :      0.48332      -7.15522      25.56019
                        -----------------------------------------
Total Dipole Moment    :      0.14874      -0.26187       0.64434
                        -----------------------------------------
Magnitude (a.u.)       :      0.71125
Magnitude (Debye)      :      1.80786

Rotational constants in cm-1:     0.022369     0.008181     0.006972
Rotational constants in MHz :   670.604575   245.246694   209.005032

                             ****ORCA TERMINATED NORMALLY****
TOTAL RUN TIME: 0 days 0 hours 0 minutes 22 seconds 3 msec
