                         Program Version 4.2.1 -  RELEASE  -
|  1> ! wB97X-D3 SP def2-SVP
|  2> %pal
|  3> nprocs 24
|  4> end
|  5>
|  6> * xyz 0 1
|  7> S 	 26.2674 	 -2.82243 	 -109.371
|  8> C 	 27.6161 	 -2.67821 	 -110.519
|  9> C 	 27.1115 	 -2.74411 	 -111.802
| 10> C 	 25.7095 	 -2.87137 	 -111.865
| 11> C 	 25.0788 	 -2.96177 	 -110.63
| 12> H 	 24.9918 	 -2.69196 	 -112.655
| 13> C 	 27.9413 	 -2.38051 	 -113.025
| 14> H 	 28.9903 	 -2.31008 	 -112.881
| 15> H 	 27.5083 	 -1.37606 	 -113.323
| 16> C 	 27.6748 	 -3.41684 	 -114.089
| 17> H 	 27.9642 	 -4.40704 	 -113.815
| 18> H 	 26.5738 	 -3.3217 	 -114.365
| 19> C 	 28.6355 	 -3.19874 	 -115.274
| 20> H 	 28.463 	 -4.05 	 -116.01
| 21> H 	 28.606 	 -2.27178 	 -115.831
| 22> H 	 29.6502 	 -3.56812 	 -114.963
| 23> S 	 23.0934 	 -1.88375 	 -109.176
| 24> C 	 21.4153 	 -2.24152 	 -109.518
| 25> C 	 21.3498 	 -3.21176 	 -110.497
| 26> C 	 22.5973 	 -3.56547 	 -111.04
| 27> C 	 23.6674 	 -2.94705 	 -110.413
| 28> H 	 20.3454 	 -3.5847 	 -110.904
| 29> C 	 22.7058 	 -4.51512 	 -112.25
| 30> H 	 22.2442 	 -5.40336 	 -111.894
| 31> H 	 23.7769 	 -4.67888 	 -112.513
| 32> C 	 21.9626 	 -3.91591 	 -113.477
| 33> H 	 22.4199 	 -2.95753 	 -113.635
| 34> H 	 20.9639 	 -3.67754 	 -113.365
| 35> C 	 22.0853 	 -4.68862 	 -114.806
| 36> H 	 23.0745 	 -5.04707 	 -114.966
| 37> H 	 21.9588 	 -3.99136 	 -115.651
| 38> H 	 21.4708 	 -5.52598 	 -115
| 39> H 	 28.6198 	 -2.53937 	 -110.266
| 40> H 	 20.6722 	 -1.76061 	 -109.02
| 41> *
| 42>
| 43>                          ****END OF INPUT****

CARTESIAN COORDINATES (ANGSTROEM)
---------------------------------
  S     26.267400   -2.822430  -109.371000
  C     27.616100   -2.678210  -110.519000
  C     27.111500   -2.744110  -111.802000
  C     25.709500   -2.871370  -111.865000
  C     25.078800   -2.961770  -110.630000
  H     24.991800   -2.691960  -112.655000
  C     27.941300   -2.380510  -113.025000
  H     28.990300   -2.310080  -112.881000
  H     27.508300   -1.376060  -113.323000
  C     27.674800   -3.416840  -114.089000
  H     27.964200   -4.407040  -113.815000
  H     26.573800   -3.321700  -114.365000
  C     28.635500   -3.198740  -115.274000
  H     28.463000   -4.050000  -116.010000
  H     28.606000   -2.271780  -115.831000
  H     29.650200   -3.568120  -114.963000
  S     23.093400   -1.883750  -109.176000
  C     21.415300   -2.241520  -109.518000
  C     21.349800   -3.211760  -110.497000
  C     22.597300   -3.565470  -111.040000
  C     23.667400   -2.947050  -110.413000
  H     20.345400   -3.584700  -110.904000
  C     22.705800   -4.515120  -112.250000
  H     22.244200   -5.403360  -111.894000
  H     23.776900   -4.678880  -112.513000
  C     21.962600   -3.915910  -113.477000
  H     22.419900   -2.957530  -113.635000
  H     20.963900   -3.677540  -113.365000
  C     22.085300   -4.688620  -114.806000
  H     23.074500   -5.047070  -114.966000
  H     21.958800   -3.991360  -115.651000
  H     21.470800   -5.525980  -115.000000
  H     28.619800   -2.539370  -110.266000
  H     20.672200   -1.760610  -109.020000

 Total Charge           Charge          ....    0
 Multiplicity           Mult            ....    1
 Number of Electrons    NEL             ....  134
 Basis Dimension        Dim             ....  322

ORBITAL ENERGIES
----------------

  NO   OCC          E(Eh)            E(eV)
   0   2.0000     -88.964506     -2420.8473
   1   2.0000     -88.963178     -2420.8112
   2   2.0000     -10.328134      -281.0428
   3   2.0000     -10.323910      -280.9279
   4   2.0000     -10.314529      -280.6726
   5   2.0000     -10.311090      -280.5790
   6   2.0000     -10.302679      -280.3501
   7   2.0000     -10.300704      -280.2964
   8   2.0000     -10.300440      -280.2892
   9   2.0000     -10.294705      -280.1332
  10   2.0000     -10.291370      -280.0424
  11   2.0000     -10.290987      -280.0320
  12   2.0000     -10.287903      -279.9481
  13   2.0000     -10.284637      -279.8592
  14   2.0000     -10.282898      -279.8119
  15   2.0000     -10.272979      -279.5420
  16   2.0000      -8.078998      -219.8407
  17   2.0000      -8.078720      -219.8331
  18   2.0000      -6.037568      -164.2906
  19   2.0000      -6.037168      -164.2797
  20   2.0000      -6.033416      -164.1776
  21   2.0000      -6.033005      -164.1664
  22   2.0000      -6.029831      -164.0800
  23   2.0000      -6.029593      -164.0736
  24   2.0000      -1.013087       -27.5675
  25   2.0000      -0.987416       -26.8689
  26   2.0000      -0.918002       -24.9801
  27   2.0000      -0.908191       -24.7131
  28   2.0000      -0.875791       -23.8315
  29   2.0000      -0.854027       -23.2393
  30   2.0000      -0.843731       -22.9591
  31   2.0000      -0.816557       -22.2197
  32   2.0000      -0.782830       -21.3019
  33   2.0000      -0.773544       -21.0492
  34   2.0000      -0.713809       -19.4237
  35   2.0000      -0.709446       -19.3050
  36   2.0000      -0.690911       -18.8006
  37   2.0000      -0.663914       -18.0660
  38   2.0000      -0.648366       -17.6429
  39   2.0000      -0.620214       -16.8769
  40   2.0000      -0.601456       -16.3665
  41   2.0000      -0.575143       -15.6504
  42   2.0000      -0.566092       -15.4041
  43   2.0000      -0.563129       -15.3235
  44   2.0000      -0.530149       -14.4261
  45   2.0000      -0.525553       -14.3010
  46   2.0000      -0.519614       -14.1394
  47   2.0000      -0.512291       -13.9401
  48   2.0000      -0.511337       -13.9142
  49   2.0000      -0.505096       -13.7444
  50   2.0000      -0.495363       -13.4795
  51   2.0000      -0.480293       -13.0694
  52   2.0000      -0.472344       -12.8531
  53   2.0000      -0.468654       -12.7527
  54   2.0000      -0.463363       -12.6088
  55   2.0000      -0.448696       -12.2096
  56   2.0000      -0.443634       -12.0719
  57   2.0000      -0.437130       -11.8949
  58   2.0000      -0.435383       -11.8474
  59   2.0000      -0.425934       -11.5903
  60   2.0000      -0.424084       -11.5399
  61   2.0000      -0.414707       -11.2848
  62   2.0000      -0.399643       -10.8748
  63   2.0000      -0.355521        -9.6742
  64   2.0000      -0.332251        -9.0410
  65   2.0000      -0.329281        -8.9602
  66   2.0000      -0.287440        -7.8216
  67   0.0000       0.025222         0.6863
  68   0.0000       0.076767         2.0889
  69   0.0000       0.111710         3.0398
  70   0.0000       0.123869         3.3707
  71   0.0000       0.129511         3.5242

MULLIKEN ATOMIC CHARGES
-----------------------
   0 S :    0.099223
   1 C :   -0.108038
   2 C :   -0.050020
   3 C :   -0.005061
   4 C :   -0.141262
   5 H :    0.020913
   6 C :    0.083401
   7 H :    0.005581
   8 H :    0.051361
   9 C :   -0.102398
  10 H :    0.027397
  11 H :    0.046535
  12 C :   -0.069553
  13 H :    0.026293
  14 H :    0.045617
  15 H :    0.029898
  16 S :    0.097178
  17 C :   -0.060732
  18 C :   -0.045993
  19 C :   -0.066736
  20 C :   -0.150680
  21 H :    0.046352
  22 C :    0.105102
  23 H :    0.026212
  24 H :    0.032063
  25 C :   -0.062545
  26 H :    0.017035
  27 H :    0.013409
  28 C :   -0.020718
  29 H :    0.006982
  30 H :    0.025505
  31 H :    0.027432
  32 H :    0.026519
  33 H :    0.023726
Sum of atomic charges:    0.0000000

LOEWDIN ATOMIC CHARGES
----------------------
   0 S :    0.397339
   1 C :   -0.184211
   2 C :   -0.059749
   3 C :   -0.076577
   4 C :   -0.190700
   5 H :    0.031551
   6 C :   -0.026313
   7 H :    0.020571
   8 H :    0.043295
   9 C :   -0.043689
  10 H :    0.025122
  11 H :    0.029519
  12 C :   -0.077889
  13 H :    0.031038
  14 H :    0.021496
  15 H :    0.030095
  16 S :    0.416285
  17 C :   -0.164378
  18 C :   -0.075879
  19 C :   -0.060343
  20 C :   -0.206738
  21 H :    0.044637
  22 C :   -0.020470
  23 H :    0.026663
  24 H :    0.034110
  25 C :   -0.034681
  26 H :    0.024348
  27 H :    0.013677
  28 C :   -0.063588
  29 H :    0.019033
  30 H :    0.031099
  31 H :    0.018533
  32 H :    0.018511
  33 H :    0.008283

  Mayer bond orders larger than 0.100000
B(  0-S ,  1-C ) :   1.1215 B(  0-S ,  4-C ) :   1.1575 B(  1-C ,  2-C ) :   1.5995
B(  1-C , 32-H ) :   0.9846 B(  2-C ,  3-C ) :   1.2310 B(  2-C ,  6-C ) :   1.0252
B(  3-C ,  4-C ) :   1.5654 B(  3-C ,  5-H ) :   0.9843 B(  4-C , 20-C ) :   1.0667
B(  6-C ,  7-H ) :   0.9456 B(  6-C ,  8-H ) :   0.9396 B(  6-C ,  9-C ) :   1.0610
B(  9-C , 10-H ) :   0.9573 B(  9-C , 11-H ) :   0.9531 B(  9-C , 12-C ) :   1.0879
B( 12-C , 13-H ) :   0.9720 B( 12-C , 14-H ) :   0.9747 B( 12-C , 15-H ) :   0.9704
B( 16-S , 17-C ) :   1.1669 B( 16-S , 20-C ) :   1.1473 B( 17-C , 18-C ) :   1.5672
B( 17-C , 20-C ) :   0.1066 B( 17-C , 33-H ) :   0.9889 B( 18-C , 19-C ) :   1.2713
B( 18-C , 21-H ) :   0.9776 B( 19-C , 20-C ) :   1.5715 B( 19-C , 22-C ) :   1.0360
B( 22-C , 23-H ) :   0.9294 B( 22-C , 24-H ) :   0.9345 B( 22-C , 25-C ) :   1.0597
B( 25-C , 26-H ) :   0.9521 B( 25-C , 27-H ) :   0.9556 B( 25-C , 28-C ) :   1.0874
B( 28-C , 29-H ) :   0.9708 B( 28-C , 30-H ) :   0.9738 B( 28-C , 31-H ) :   0.9774

Dispersion correction           -0.013888084
FINAL SINGLE POINT ENERGY     -1339.863719086065

DIPOLE MOMENT
-------------
                                X             Y             Z
Electronic contribution:     -3.60884       8.10819      32.04972
Nuclear contribution   :      3.50197      -8.10739     -32.74460
                        -----------------------------------------
Total Dipole Moment    :     -0.10687       0.00079      -0.69488
                        -----------------------------------------
Magnitude (a.u.)       :      0.70305
Magnitude (Debye)      :      1.78701

Rotational constants in cm-1:     0.016485     0.009741     0.006438
Rotational constants in MHz :   494.208612   292.032879   193.008469

                             ****ORCA TERMINATED NORMALLY****
TOTAL RUN TIME: 0 days 0 hours 0 minutes 21 seconds 664 msec
