                         Program Version 4.2.1 -  RELEASE  -
|  1> ! wB97X-D3 SP def2-SVP
|  2> %pal
|  3> nprocs 24
|  4> end
|  5>
|  6> * xyz 0 1
|  7> S 	 -103.173 	 -0.968652 	 -108.222
|  8> C 	 -104.433 	 -0.838879 	 -106.975
|  9> C 	 -104.78 	 0.447185 	 -106.808
| 10> C 	 -103.956 	 1.37891 	 -107.527
| 11> C 	 -102.975 	 0.761482 	 -108.303
| 12> H 	 -104.14 	 2.45247 	 -107.417
| 13> C 	 -105.982 	 1.0069 	 -105.979
| 14> H 	 -106.906 	 0.484543 	 -106.314
| 15> H 	 -106.238 	 2.09357 	 -106.24
| 16> C 	 -105.918 	 0.934332 	 -104.416
| 17> H 	 -105.586 	 0.00851362 	 -103.926
| 18> H 	 -105.267 	 1.74048 	 -104.189
| 19> C 	 -107.258 	 1.29234 	 -103.796
| 20> H 	 -107.261 	 1.2436 	 -102.734
| 21> H 	 -107.422 	 2.33133 	 -104.122
| 22> H 	 -108.1 	 0.700737 	 -104.21
| 23> S 	 -101.621 	 0.595825 	 -110.679
| 24> C 	 -100.592 	 1.85395 	 -111.227
| 25> C 	 -100.668 	 2.91474 	 -110.356
| 26> C 	 -101.495 	 2.76512 	 -109.172
| 27> C 	 -101.977 	 1.44119 	 -109.153
| 28> H 	 -100.183 	 3.75138 	 -110.727
| 29> C 	 -101.732 	 3.8497 	 -108.186
| 30> H 	 -101.509 	 3.39394 	 -107.254
| 31> H 	 -102.778 	 4.09894 	 -108.263
| 32> C 	 -100.879 	 5.11863 	 -108.461
| 33> H 	 -100.954 	 5.54291 	 -109.479
| 34> H 	 -99.7919 	 4.94269 	 -108.305
| 35> C 	 -100.993 	 6.17276 	 -107.35
| 36> H 	 -100.65 	 7.16054 	 -107.562
| 37> H 	 -100.39 	 5.85946 	 -106.544
| 38> H 	 -102.001 	 6.13968 	 -107.146
| 39> H 	 -105.247 	 -1.58392 	 -106.802
| 40> H 	 -99.9026 	 1.88695 	 -112.038
| 41> *
| 42>
| 43>                          ****END OF INPUT****

CARTESIAN COORDINATES (ANGSTROEM)
---------------------------------
  S    -103.173000   -0.968652  -108.222000
  C    -104.433000   -0.838879  -106.975000
  C    -104.780000    0.447185  -106.808000
  C    -103.956000    1.378910  -107.527000
  C    -102.975000    0.761482  -108.303000
  H    -104.140000    2.452470  -107.417000
  C    -105.982000    1.006900  -105.979000
  H    -106.906000    0.484543  -106.314000
  H    -106.238000    2.093570  -106.240000
  C    -105.918000    0.934332  -104.416000
  H    -105.586000    0.008514  -103.926000
  H    -105.267000    1.740480  -104.189000
  C    -107.258000    1.292340  -103.796000
  H    -107.261000    1.243600  -102.734000
  H    -107.422000    2.331330  -104.122000
  H    -108.100000    0.700737  -104.210000
  S    -101.621000    0.595825  -110.679000
  C    -100.592000    1.853950  -111.227000
  C    -100.668000    2.914740  -110.356000
  C    -101.495000    2.765120  -109.172000
  C    -101.977000    1.441190  -109.153000
  H    -100.183000    3.751380  -110.727000
  C    -101.732000    3.849700  -108.186000
  H    -101.509000    3.393940  -107.254000
  H    -102.778000    4.098940  -108.263000
  C    -100.879000    5.118630  -108.461000
  H    -100.954000    5.542910  -109.479000
  H    -99.791900    4.942690  -108.305000
  C    -100.993000    6.172760  -107.350000
  H    -100.650000    7.160540  -107.562000
  H    -100.390000    5.859460  -106.544000
  H    -102.001000    6.139680  -107.146000
  H    -105.247000   -1.583920  -106.802000
  H    -99.902600    1.886950  -112.038000

 Total Charge           Charge          ....    0
 Multiplicity           Mult            ....    1
 Number of Electrons    NEL             ....  134
 Basis Dimension        Dim             ....  322

ORBITAL ENERGIES
----------------

  NO   OCC          E(Eh)            E(eV)
   0   2.0000     -88.967014     -2420.9155
   1   2.0000     -88.964672     -2420.8518
   2   2.0000     -10.336329      -281.2658
   3   2.0000     -10.332969      -281.1744
   4   2.0000     -10.311875      -280.6004
   5   2.0000     -10.311800      -280.5984
   6   2.0000     -10.311438      -280.5885
   7   2.0000     -10.306795      -280.4622
   8   2.0000     -10.301676      -280.3228
   9   2.0000     -10.297477      -280.2086
  10   2.0000     -10.295259      -280.1483
  11   2.0000     -10.292336      -280.0687
  12   2.0000     -10.286661      -279.9143
  13   2.0000     -10.285746      -279.8894
  14   2.0000     -10.277798      -279.6731
  15   2.0000     -10.267547      -279.3942
  16   2.0000      -8.081312      -219.9037
  17   2.0000      -8.079541      -219.8555
  18   2.0000      -6.040075      -164.3588
  19   2.0000      -6.038124      -164.3057
  20   2.0000      -6.035901      -164.2452
  21   2.0000      -6.034000      -164.1935
  22   2.0000      -6.031786      -164.1332
  23   2.0000      -6.030250      -164.0914
  24   2.0000      -1.005987       -27.3743
  25   2.0000      -0.984683       -26.7946
  26   2.0000      -0.918454       -24.9924
  27   2.0000      -0.908030       -24.7088
  28   2.0000      -0.873408       -23.7666
  29   2.0000      -0.859887       -23.3987
  30   2.0000      -0.843113       -22.9423
  31   2.0000      -0.815275       -22.1848
  32   2.0000      -0.785239       -21.3675
  33   2.0000      -0.773791       -21.0559
  34   2.0000      -0.710542       -19.3348
  35   2.0000      -0.703490       -19.1429
  36   2.0000      -0.696786       -18.9605
  37   2.0000      -0.651734       -17.7346
  38   2.0000      -0.628112       -17.0918
  39   2.0000      -0.623597       -16.9689
  40   2.0000      -0.599227       -16.3058
  41   2.0000      -0.582270       -15.8444
  42   2.0000      -0.575278       -15.6541
  43   2.0000      -0.559117       -15.2144
  44   2.0000      -0.541135       -14.7250
  45   2.0000      -0.525929       -14.3113
  46   2.0000      -0.524203       -14.2643
  47   2.0000      -0.515090       -14.0163
  48   2.0000      -0.507931       -13.8215
  49   2.0000      -0.496102       -13.4996
  50   2.0000      -0.491391       -13.3714
  51   2.0000      -0.482977       -13.1425
  52   2.0000      -0.473965       -12.8972
  53   2.0000      -0.465042       -12.6544
  54   2.0000      -0.456820       -12.4307
  55   2.0000      -0.454350       -12.3635
  56   2.0000      -0.443124       -12.0580
  57   2.0000      -0.435072       -11.8389
  58   2.0000      -0.432648       -11.7729
  59   2.0000      -0.424295       -11.5457
  60   2.0000      -0.422895       -11.5076
  61   2.0000      -0.416138       -11.3237
  62   2.0000      -0.407532       -11.0895
  63   2.0000      -0.355700        -9.6791
  64   2.0000      -0.332024        -9.0348
  65   2.0000      -0.328141        -8.9292
  66   2.0000      -0.288984        -7.8636
  67   0.0000       0.017661         0.4806
  68   0.0000       0.079449         2.1619
  69   0.0000       0.101840         2.7712
  70   0.0000       0.124995         3.4013
  71   0.0000       0.129490         3.5236

MULLIKEN ATOMIC CHARGES
-----------------------
   0 S :    0.097055
   1 C :   -0.113211
   2 C :   -0.074455
   3 C :   -0.013853
   4 C :   -0.111316
   5 H :    0.007414
   6 C :   -0.017030
   7 H :    0.030060
   8 H :    0.030016
   9 C :   -0.046167
  10 H :    0.041278
  11 H :    0.023926
  12 C :   -0.053106
  13 H :    0.035682
  14 H :    0.018399
  15 H :    0.032693
  16 S :    0.093193
  17 C :   -0.053136
  18 C :   -0.045546
  19 C :   -0.069403
  20 C :   -0.125667
  21 H :   -0.012016
  22 C :    0.110596
  23 H :    0.037186
  24 H :    0.050582
  25 C :   -0.154408
  26 H :    0.046938
  27 H :    0.033729
  28 C :    0.034461
  29 H :    0.026057
  30 H :    0.020615
  31 H :    0.005067
  32 H :    0.070028
  33 H :    0.044338
Sum of atomic charges:    0.0000000

LOEWDIN ATOMIC CHARGES
----------------------
   0 S :    0.396112
   1 C :   -0.208862
   2 C :   -0.061941
   3 C :   -0.076338
   4 C :   -0.189168
   5 H :    0.029206
   6 C :   -0.035101
   7 H :    0.027837
   8 H :    0.035152
   9 C :   -0.040167
  10 H :    0.025856
  11 H :    0.021491
  12 C :   -0.063942
  13 H :    0.021918
  14 H :    0.024261
  15 H :    0.025253
  16 S :    0.405332
  17 C :   -0.191644
  18 C :   -0.070265
  19 C :   -0.044509
  20 C :   -0.186273
  21 H :    0.017328
  22 C :   -0.026788
  23 H :    0.038103
  24 H :    0.035138
  25 C :   -0.046118
  26 H :    0.025770
  27 H :    0.030559
  28 C :   -0.049783
  29 H :    0.025190
  30 H :    0.021438
  31 H :    0.011056
  32 H :    0.044144
  33 H :    0.029753

  Mayer bond orders larger than 0.100000
B(  0-S ,  1-C ) :   1.1062 B(  0-S ,  4-C ) :   1.1571 B(  1-C ,  2-C ) :   1.6662
B(  1-C , 32-H ) :   0.9479 B(  2-C ,  3-C ) :   1.2608 B(  2-C ,  6-C ) :   0.9967
B(  3-C ,  4-C ) :   1.5364 B(  3-C ,  5-H ) :   0.9902 B(  4-C , 20-C ) :   1.0617
B(  6-C ,  7-H ) :   0.9485 B(  6-C ,  8-H ) :   0.9507 B(  6-C ,  9-C ) :   1.0498
B(  9-C , 10-H ) :   0.9622 B(  9-C , 11-H ) :   0.9569 B(  9-C , 12-C ) :   1.0793
B( 12-C , 13-H ) :   0.9743 B( 12-C , 14-H ) :   0.9750 B( 12-C , 15-H ) :   0.9762
B( 16-S , 17-C ) :   1.1497 B( 16-S , 20-C ) :   1.1431 B( 17-C , 18-C ) :   1.6199
B( 17-C , 33-H ) :   0.9627 B( 18-C , 19-C ) :   1.2339 B( 18-C , 21-H ) :   0.9961
B( 19-C , 20-C ) :   1.5788 B( 19-C , 22-C ) :   1.0305 B( 22-C , 23-H ) :   0.9301
B( 22-C , 24-H ) :   0.9076 B( 22-C , 25-C ) :   1.0917 B( 25-C , 26-H ) :   0.9511
B( 25-C , 27-H ) :   0.9629 B( 25-C , 28-C ) :   1.0604 B( 28-C , 29-H ) :   0.9716
B( 28-C , 30-H ) :   0.9820 B( 28-C , 31-H ) :   0.9734

Dispersion correction           -0.012945589
FINAL SINGLE POINT ENERGY     -1339.847633460092

DIPOLE MOMENT
-------------
                                X             Y             Z
Electronic contribution:     10.07947     -21.98669     -20.70142
Nuclear contribution   :    -10.29969      22.80427      20.91311
                        -----------------------------------------
Total Dipole Moment    :     -0.22022       0.81758       0.21169
                        -----------------------------------------
Magnitude (a.u.)       :      0.87278
Magnitude (Debye)      :      2.21844

Rotational constants in cm-1:     0.017159     0.008057     0.005645
Rotational constants in MHz :   514.408180   241.556861   169.236936

                             ****ORCA TERMINATED NORMALLY****
TOTAL RUN TIME: 0 days 0 hours 0 minutes 20 seconds 696 msec
