                         Program Version 4.2.1 -  RELEASE  -
|  1> ! wB97X-D3 SP def2-SVP
|  2> %pal
|  3> nprocs 24
|  4> end
|  5>
|  6> * xyz 0 1
|  7> S 	 -133.364 	 1.89873 	 4.18179
|  8> C 	 -131.987 	 0.877847 	 4.1937
|  9> C 	 -131.009 	 1.20117 	 5.07507
| 10> C 	 -131.453 	 2.33922 	 5.87183
| 11> C 	 -132.694 	 2.83886 	 5.44868
| 12> H 	 -130.979 	 2.82744 	 6.6806
| 13> C 	 -129.782 	 0.324802 	 5.43694
| 14> H 	 -129.074 	 1.09816 	 5.72182
| 15> H 	 -129.351 	 -0.146073 	 4.55935
| 16> C 	 -129.881 	 -0.554837 	 6.6586
| 17> H 	 -129.016 	 -1.24622 	 6.71859
| 18> H 	 -129.959 	 0.0579412 	 7.5465
| 19> C 	 -131.09 	 -1.53761 	 6.62725
| 20> H 	 -130.94 	 -2.44927 	 6.02538
| 21> H 	 -131.26 	 -1.63023 	 7.71242
| 22> H 	 -131.997 	 -0.904407 	 6.48605
| 23> S 	 -133.427 	 5.35476 	 4.58383
| 24> C 	 -133.718 	 6.58599 	 5.68602
| 25> C 	 -133.641 	 6.11274 	 6.96999
| 26> C 	 -133.368 	 4.70531 	 7.08632
| 27> C 	 -133.15 	 4.16345 	 5.81703
| 28> H 	 -133.659 	 6.80157 	 7.77107
| 29> C 	 -133.137 	 4.02197 	 8.41309
| 30> H 	 -133.186 	 2.93456 	 8.22585
| 31> H 	 -133.876 	 4.19364 	 9.22466
| 32> C 	 -131.828 	 4.42808 	 9.10926
| 33> H 	 -131.897 	 5.52858 	 9.36789
| 34> H 	 -131.05 	 4.30465 	 8.35237
| 35> C 	 -131.521 	 3.6058 	 10.4037
| 36> H 	 -131.434 	 2.55148 	 10.1404
| 37> H 	 -132.284 	 3.78802 	 11.1952
| 38> H 	 -130.656 	 3.88769 	 10.9436
| 39> H 	 -131.777 	 -0.0915578 	 3.61325
| 40> H 	 -133.856 	 7.58569 	 5.46956
| 41> *
| 42>
| 43>                          ****END OF INPUT****

CARTESIAN COORDINATES (ANGSTROEM)
---------------------------------
  S    -133.364000    1.898730    4.181790
  C    -131.987000    0.877847    4.193700
  C    -131.009000    1.201170    5.075070
  C    -131.453000    2.339220    5.871830
  C    -132.694000    2.838860    5.448680
  H    -130.979000    2.827440    6.680600
  C    -129.782000    0.324802    5.436940
  H    -129.074000    1.098160    5.721820
  H    -129.351000   -0.146073    4.559350
  C    -129.881000   -0.554837    6.658600
  H    -129.016000   -1.246220    6.718590
  H    -129.959000    0.057941    7.546500
  C    -131.090000   -1.537610    6.627250
  H    -130.940000   -2.449270    6.025380
  H    -131.260000   -1.630230    7.712420
  H    -131.997000   -0.904407    6.486050
  S    -133.427000    5.354760    4.583830
  C    -133.718000    6.585990    5.686020
  C    -133.641000    6.112740    6.969990
  C    -133.368000    4.705310    7.086320
  C    -133.150000    4.163450    5.817030
  H    -133.659000    6.801570    7.771070
  C    -133.137000    4.021970    8.413090
  H    -133.186000    2.934560    8.225850
  H    -133.876000    4.193640    9.224660
  C    -131.828000    4.428080    9.109260
  H    -131.897000    5.528580    9.367890
  H    -131.050000    4.304650    8.352370
  C    -131.521000    3.605800   10.403700
  H    -131.434000    2.551480   10.140400
  H    -132.284000    3.788020   11.195200
  H    -130.656000    3.887690   10.943600
  H    -131.777000   -0.091558    3.613250
  H    -133.856000    7.585690    5.469560

 Total Charge           Charge          ....    0
 Multiplicity           Mult            ....    1
 Number of Electrons    NEL             ....  134
 Basis Dimension        Dim             ....  322

ORBITAL ENERGIES
----------------

  NO   OCC          E(Eh)            E(eV)
   0   2.0000     -88.972324     -2421.0600
   1   2.0000     -88.963520     -2420.8204
   2   2.0000     -10.326252      -280.9916
   3   2.0000     -10.325367      -280.9675
   4   2.0000     -10.314262      -280.6653
   5   2.0000     -10.304557      -280.4012
   6   2.0000     -10.302501      -280.3453
   7   2.0000     -10.301819      -280.3267
   8   2.0000     -10.296122      -280.1717
   9   2.0000     -10.295108      -280.1441
  10   2.0000     -10.293669      -280.1050
  11   2.0000     -10.291924      -280.0575
  12   2.0000     -10.289517      -279.9920
  13   2.0000     -10.286225      -279.9024
  14   2.0000     -10.282912      -279.8123
  15   2.0000     -10.278772      -279.6996
  16   2.0000      -8.087925      -220.0836
  17   2.0000      -8.079966      -219.8670
  18   2.0000      -6.046357      -164.5297
  19   2.0000      -6.042282      -164.4189
  20   2.0000      -6.038738      -164.3224
  21   2.0000      -6.038387      -164.3129
  22   2.0000      -6.034081      -164.1957
  23   2.0000      -6.030860      -164.1080
  24   2.0000      -1.015182       -27.6245
  25   2.0000      -0.992726       -27.0135
  26   2.0000      -0.913844       -24.8670
  27   2.0000      -0.909554       -24.7502
  28   2.0000      -0.872657       -23.7462
  29   2.0000      -0.852182       -23.1891
  30   2.0000      -0.846132       -23.0244
  31   2.0000      -0.812114       -22.0988
  32   2.0000      -0.787510       -21.4292
  33   2.0000      -0.778261       -21.1776
  34   2.0000      -0.706282       -19.2189
  35   2.0000      -0.697355       -18.9760
  36   2.0000      -0.688881       -18.7454
  37   2.0000      -0.662605       -18.0304
  38   2.0000      -0.636747       -17.3268
  39   2.0000      -0.619075       -16.8459
  40   2.0000      -0.601898       -16.3785
  41   2.0000      -0.574223       -15.6254
  42   2.0000      -0.567377       -15.4391
  43   2.0000      -0.559388       -15.2217
  44   2.0000      -0.539781       -14.6882
  45   2.0000      -0.524752       -14.2792
  46   2.0000      -0.518994       -14.1225
  47   2.0000      -0.516920       -14.0661
  48   2.0000      -0.507844       -13.8191
  49   2.0000      -0.494823       -13.4648
  50   2.0000      -0.486730       -13.2446
  51   2.0000      -0.479077       -13.0364
  52   2.0000      -0.473880       -12.8949
  53   2.0000      -0.465762       -12.6740
  54   2.0000      -0.460561       -12.5325
  55   2.0000      -0.453284       -12.3345
  56   2.0000      -0.447518       -12.1776
  57   2.0000      -0.434777       -11.8309
  58   2.0000      -0.429640       -11.6911
  59   2.0000      -0.423914       -11.5353
  60   2.0000      -0.418720       -11.3939
  61   2.0000      -0.417474       -11.3600
  62   2.0000      -0.407209       -11.0807
  63   2.0000      -0.349027        -9.4975
  64   2.0000      -0.334368        -9.0986
  65   2.0000      -0.328478        -8.9383
  66   2.0000      -0.293216        -7.9788
  67   0.0000       0.036918         1.0046
  68   0.0000       0.073254         1.9933
  69   0.0000       0.118151         3.2151
  70   0.0000       0.121688         3.3113
  71   0.0000       0.124727         3.3940

MULLIKEN ATOMIC CHARGES
-----------------------
   0 S :    0.142905
   1 C :   -0.125033
   2 C :   -0.110757
   3 C :    0.036949
   4 C :   -0.168355
   5 H :   -0.023370
   6 C :    0.088672
   7 H :    0.022397
   8 H :    0.024782
   9 C :   -0.078855
  10 H :    0.037758
  11 H :    0.025630
  12 C :   -0.068864
  13 H :    0.060243
  14 H :    0.021541
  15 H :    0.039621
  16 S :    0.124857
  17 C :   -0.058644
  18 C :   -0.029408
  19 C :   -0.011661
  20 C :   -0.159855
  21 H :   -0.000776
  22 C :    0.036320
  23 H :    0.029143
  24 H :    0.027486
  25 C :   -0.105338
  26 H :    0.038582
  27 H :    0.031227
  28 C :   -0.033581
  29 H :    0.035644
  30 H :    0.031986
  31 H :    0.026401
  32 H :    0.064693
  33 H :    0.027663
Sum of atomic charges:    0.0000000

LOEWDIN ATOMIC CHARGES
----------------------
   0 S :    0.439574
   1 C :   -0.218914
   2 C :   -0.068936
   3 C :   -0.050219
   4 C :   -0.212985
   5 H :    0.018916
   6 C :   -0.036327
   7 H :    0.033747
   8 H :    0.028607
   9 C :   -0.040466
  10 H :    0.031334
  11 H :    0.022316
  12 C :   -0.082734
  13 H :    0.030407
  14 H :    0.032326
  15 H :    0.032846
  16 S :    0.441596
  17 C :   -0.198848
  18 C :   -0.065606
  19 C :   -0.057217
  20 C :   -0.202539
  21 H :    0.021061
  22 C :   -0.041652
  23 H :    0.029897
  24 H :    0.033529
  25 C :   -0.040594
  26 H :    0.028866
  27 H :    0.016192
  28 C :   -0.067496
  29 H :    0.026199
  30 H :    0.030592
  31 H :    0.021837
  32 H :    0.047101
  33 H :    0.017592

  Mayer bond orders larger than 0.100000
B(  0-S ,  1-C ) :   1.1408 B(  0-S ,  4-C ) :   1.1552 B(  1-C ,  2-C ) :   1.6434
B(  1-C , 32-H ) :   0.9468 B(  2-C ,  3-C ) :   1.2270 B(  2-C ,  6-C ) :   1.0211
B(  3-C ,  4-C ) :   1.5578 B(  3-C ,  5-H ) :   0.9984 B(  4-C , 20-C ) :   1.0396
B(  6-C ,  7-H ) :   0.9321 B(  6-C ,  8-H ) :   0.9419 B(  6-C ,  9-C ) :   1.0745
B(  9-C , 10-H ) :   0.9537 B(  9-C , 11-H ) :   0.9583 B(  9-C , 12-C ) :   1.0802
B( 12-C , 13-H ) :   0.9761 B( 12-C , 14-H ) :   0.9712 B( 12-C , 15-H ) :   0.9660
B( 16-S , 17-C ) :   1.1675 B( 16-S , 20-C ) :   1.1597 B( 17-C , 18-C ) :   1.5979
B( 17-C , 33-H ) :   0.9774 B( 18-C , 19-C ) :   1.2439 B( 18-C , 21-H ) :   0.9966
B( 19-C , 20-C ) :   1.5726 B( 19-C , 22-C ) :   1.0641 B( 22-C , 23-H ) :   0.9293
B( 22-C , 24-H ) :   0.9359 B( 22-C , 25-C ) :   1.0505 B( 25-C , 26-H ) :   0.9528
B( 25-C , 27-H ) :   0.9548 B( 25-C , 28-C ) :   1.0772 B( 28-C , 29-H ) :   0.9757
B( 28-C , 30-H ) :   0.9720 B( 28-C , 31-H ) :   0.9744

Dispersion correction           -0.014968464
FINAL SINGLE POINT ENERGY     -1339.866866568944

DIPOLE MOMENT
-------------
                                X             Y             Z
Electronic contribution:    -14.31064      13.28281     -23.57644
Nuclear contribution   :     14.78917     -13.38322      24.11960
                        -----------------------------------------
Total Dipole Moment    :      0.47852      -0.10041       0.54316
                        -----------------------------------------
Magnitude (a.u.)       :      0.73082
Magnitude (Debye)      :      1.85759

Rotational constants in cm-1:     0.017785     0.009907     0.006940
Rotational constants in MHz :   533.189856   297.006228   208.046439

                             ****ORCA TERMINATED NORMALLY****
TOTAL RUN TIME: 0 days 0 hours 0 minutes 22 seconds 762 msec
