                         Program Version 4.2.1 -  RELEASE  -
|  1> ! wB97X-D3 SP def2-SVP
|  2> %pal
|  3> nprocs 24
|  4> end
|  5>
|  6> * xyz 0 1
|  7> S 	 -110.388 	 28.0434 	 -111.809
|  8> C 	 -108.96 	 27.1586 	 -111.308
|  9> C 	 -108.971 	 25.9105 	 -111.843
| 10> C 	 -109.728 	 25.9244 	 -113.056
| 11> C 	 -110.459 	 27.0743 	 -113.244
| 12> H 	 -109.901 	 25.1592 	 -113.817
| 13> C 	 -107.982 	 24.8423 	 -111.538
| 14> H 	 -107.937 	 24.8023 	 -110.446
| 15> H 	 -106.958 	 25.159 	 -111.695
| 16> C 	 -108.33 	 23.3866 	 -111.917
| 17> H 	 -108.324 	 23.3431 	 -112.946
| 18> H 	 -107.586 	 22.6385 	 -111.641
| 19> C 	 -109.644 	 22.7595 	 -111.386
| 20> H 	 -109.598 	 23.0511 	 -110.337
| 21> H 	 -110.482 	 23.3077 	 -111.718
| 22> H 	 -109.749 	 21.6956 	 -111.512
| 23> S 	 -112.884 	 28.4777 	 -113.772
| 24> C 	 -113.508 	 28.6492 	 -115.343
| 25> C 	 -112.844 	 27.777 	 -116.204
| 26> C 	 -111.656 	 27.1224 	 -115.619
| 27> C 	 -111.449 	 27.4574 	 -114.282
| 28> H 	 -113.141 	 27.725 	 -117.203
| 29> C 	 -110.765 	 26.2075 	 -116.495
| 30> H 	 -111.423 	 25.829 	 -117.209
| 31> H 	 -110.401 	 25.3554 	 -115.978
| 32> C 	 -109.635 	 26.8735 	 -117.231
| 33> H 	 -110.115 	 27.5141 	 -118.001
| 34> H 	 -109.03 	 26.1606 	 -117.745
| 35> C 	 -108.689 	 27.8093 	 -116.464
| 36> H 	 -108.19 	 27.2067 	 -115.664
| 37> H 	 -109.313 	 28.5109 	 -115.9
| 38> H 	 -108.059 	 28.329 	 -117.156
| 39> H 	 -108.292 	 27.384 	 -110.5
| 40> H 	 -114.351 	 29.192 	 -115.699
| 41> *
| 42>
| 43>                          ****END OF INPUT****

CARTESIAN COORDINATES (ANGSTROEM)
---------------------------------
  S    -110.388000   28.043400  -111.809000
  C    -108.960000   27.158600  -111.308000
  C    -108.971000   25.910500  -111.843000
  C    -109.728000   25.924400  -113.056000
  C    -110.459000   27.074300  -113.244000
  H    -109.901000   25.159200  -113.817000
  C    -107.982000   24.842300  -111.538000
  H    -107.937000   24.802300  -110.446000
  H    -106.958000   25.159000  -111.695000
  C    -108.330000   23.386600  -111.917000
  H    -108.324000   23.343100  -112.946000
  H    -107.586000   22.638500  -111.641000
  C    -109.644000   22.759500  -111.386000
  H    -109.598000   23.051100  -110.337000
  H    -110.482000   23.307700  -111.718000
  H    -109.749000   21.695600  -111.512000
  S    -112.884000   28.477700  -113.772000
  C    -113.508000   28.649200  -115.343000
  C    -112.844000   27.777000  -116.204000
  C    -111.656000   27.122400  -115.619000
  C    -111.449000   27.457400  -114.282000
  H    -113.141000   27.725000  -117.203000
  C    -110.765000   26.207500  -116.495000
  H    -111.423000   25.829000  -117.209000
  H    -110.401000   25.355400  -115.978000
  C    -109.635000   26.873500  -117.231000
  H    -110.115000   27.514100  -118.001000
  H    -109.030000   26.160600  -117.745000
  C    -108.689000   27.809300  -116.464000
  H    -108.190000   27.206700  -115.664000
  H    -109.313000   28.510900  -115.900000
  H    -108.059000   28.329000  -117.156000
  H    -108.292000   27.384000  -110.500000
  H    -114.351000   29.192000  -115.699000

 Total Charge           Charge          ....    0
 Multiplicity           Mult            ....    1
 Number of Electrons    NEL             ....  134
 Basis Dimension        Dim             ....  322

ORBITAL ENERGIES
----------------

  NO   OCC          E(Eh)            E(eV)
   0   2.0000     -88.964559     -2420.8487
   1   2.0000     -88.964240     -2420.8401
   2   2.0000     -10.338739      -281.3314
   3   2.0000     -10.332336      -281.1572
   4   2.0000     -10.316834      -280.7353
   5   2.0000     -10.312592      -280.6199
   6   2.0000     -10.311457      -280.5890
   7   2.0000     -10.302511      -280.3456
   8   2.0000     -10.296922      -280.1935
   9   2.0000     -10.294173      -280.1187
  10   2.0000     -10.294021      -280.1146
  11   2.0000     -10.286031      -279.8971
  12   2.0000     -10.283830      -279.8372
  13   2.0000     -10.279403      -279.7168
  14   2.0000     -10.273899      -279.5670
  15   2.0000     -10.269806      -279.4556
  16   2.0000      -8.079619      -219.8576
  17   2.0000      -8.078992      -219.8406
  18   2.0000      -6.038185      -164.3074
  19   2.0000      -6.037678      -164.2936
  20   2.0000      -6.034430      -164.2052
  21   2.0000      -6.033526      -164.1806
  22   2.0000      -6.029860      -164.0808
  23   2.0000      -6.029583      -164.0733
  24   2.0000      -1.010820       -27.5058
  25   2.0000      -0.984245       -26.7827
  26   2.0000      -0.916347       -24.9351
  27   2.0000      -0.911704       -24.8087
  28   2.0000      -0.871965       -23.7274
  29   2.0000      -0.849455       -23.1148
  30   2.0000      -0.838599       -22.8194
  31   2.0000      -0.819799       -22.3079
  32   2.0000      -0.789307       -21.4781
  33   2.0000      -0.781675       -21.2705
  34   2.0000      -0.715535       -19.4707
  35   2.0000      -0.698127       -18.9970
  36   2.0000      -0.688546       -18.7363
  37   2.0000      -0.659232       -17.9386
  38   2.0000      -0.645969       -17.5777
  39   2.0000      -0.624319       -16.9886
  40   2.0000      -0.595395       -16.2015
  41   2.0000      -0.569874       -15.5071
  42   2.0000      -0.561242       -15.2722
  43   2.0000      -0.553087       -15.0503
  44   2.0000      -0.548638       -14.9292
  45   2.0000      -0.543904       -14.8004
  46   2.0000      -0.519550       -14.1377
  47   2.0000      -0.513762       -13.9802
  48   2.0000      -0.505230       -13.7480
  49   2.0000      -0.500631       -13.6229
  50   2.0000      -0.494576       -13.4581
  51   2.0000      -0.480480       -13.0745
  52   2.0000      -0.467946       -12.7335
  53   2.0000      -0.464581       -12.6419
  54   2.0000      -0.460109       -12.5202
  55   2.0000      -0.453887       -12.3509
  56   2.0000      -0.444971       -12.1083
  57   2.0000      -0.442738       -12.0475
  58   2.0000      -0.431618       -11.7449
  59   2.0000      -0.424989       -11.5645
  60   2.0000      -0.412723       -11.2308
  61   2.0000      -0.408885       -11.1263
  62   2.0000      -0.403661       -10.9842
  63   2.0000      -0.359630        -9.7860
  64   2.0000      -0.331337        -9.0161
  65   2.0000      -0.324062        -8.8182
  66   2.0000      -0.285378        -7.7655
  67   0.0000       0.016210         0.4411
  68   0.0000       0.066661         1.8139
  69   0.0000       0.094313         2.5664
  70   0.0000       0.120957         3.2914
  71   0.0000       0.126363         3.4385

MULLIKEN ATOMIC CHARGES
-----------------------
   0 S :    0.101331
   1 C :   -0.099215
   2 C :   -0.057889
   3 C :   -0.008107
   4 C :   -0.121445
   5 H :    0.014510
   6 C :    0.055492
   7 H :    0.011478
   8 H :    0.043127
   9 C :   -0.067304
  10 H :    0.007754
  11 H :    0.026988
  12 C :   -0.032349
  13 H :    0.018537
  14 H :    0.024163
  15 H :    0.047389
  16 S :    0.082084
  17 C :   -0.057499
  18 C :   -0.033667
  19 C :   -0.094956
  20 C :   -0.120410
  21 H :   -0.001458
  22 C :    0.131969
  23 H :    0.002697
  24 H :    0.011906
  25 C :   -0.082882
  26 H :    0.017462
  27 H :    0.022845
  28 C :   -0.043366
  29 H :    0.033039
  30 H :    0.040160
  31 H :    0.037829
  32 H :    0.037082
  33 H :    0.052709
Sum of atomic charges:   -0.0000000

LOEWDIN ATOMIC CHARGES
----------------------
   0 S :    0.403260
   1 C :   -0.177742
   2 C :   -0.063775
   3 C :   -0.066949
   4 C :   -0.186597
   5 H :    0.031549
   6 C :   -0.038667
   7 H :    0.031280
   8 H :    0.039907
   9 C :   -0.038961
  10 H :    0.006021
  11 H :    0.030504
  12 C :   -0.058220
  13 H :    0.027575
  14 H :    0.018459
  15 H :    0.028756
  16 S :    0.384429
  17 C :   -0.192817
  18 C :   -0.069618
  19 C :   -0.052993
  20 C :   -0.171874
  21 H :    0.018276
  22 C :   -0.025104
  23 H :    0.027734
  24 H :    0.020953
  25 C :   -0.039862
  26 H :    0.023220
  27 H :    0.019043
  28 C :   -0.064069
  29 H :    0.027616
  30 H :    0.027326
  31 H :    0.023857
  32 H :    0.025296
  33 H :    0.032186

  Mayer bond orders larger than 0.100000
B(  0-S ,  1-C ) :   1.1279 B(  0-S ,  4-C ) :   1.1429 B(  1-C ,  2-C ) :   1.6242
B(  1-C , 32-H ) :   0.9764 B(  2-C ,  3-C ) :   1.1894 B(  2-C ,  6-C ) :   1.0275
B(  3-C ,  4-C ) :   1.5953 B(  3-C ,  5-H ) :   0.9904 B(  4-C , 20-C ) :   1.0616
B(  6-C ,  7-H ) :   0.9272 B(  6-C ,  8-H ) :   0.9422 B(  6-C ,  9-C ) :   1.0673
B(  9-C , 10-H ) :   0.9513 B(  9-C , 11-H ) :   0.9556 B(  9-C , 12-C ) :   1.0729
B( 12-C , 13-H ) :   0.9739 B( 12-C , 14-H ) :   0.9727 B( 12-C , 15-H ) :   0.9768
B( 16-S , 17-C ) :   1.1572 B( 16-S , 20-C ) :   1.1125 B( 17-C , 18-C ) :   1.6186
B( 17-C , 33-H ) :   0.9689 B( 18-C , 19-C ) :   1.2248 B( 18-C , 21-H ) :   0.9941
B( 19-C , 20-C ) :   1.6193 B( 19-C , 22-C ) :   1.0289 B( 22-C , 23-H ) :   0.9196
B( 22-C , 24-H ) :   0.9379 B( 22-C , 25-C ) :   1.0819 B( 25-C , 26-H ) :   0.9531
B( 25-C , 27-H ) :   0.9544 B( 25-C , 28-C ) :   1.0856 B( 28-C , 29-H ) :   0.9742
B( 28-C , 30-H ) :   0.9704 B( 28-C , 31-H ) :   0.9736

Dispersion correction           -0.015105472
FINAL SINGLE POINT ENERGY     -1339.840823659558

DIPOLE MOMENT
-------------
                                X             Y             Z
Electronic contribution:    -15.18865      18.22986       7.79932
Nuclear contribution   :     15.48298     -18.77607      -8.09514
                        -----------------------------------------
Total Dipole Moment    :      0.29433      -0.54621      -0.29582
                        -----------------------------------------
Magnitude (a.u.)       :      0.68737
Magnitude (Debye)      :      1.74717

Rotational constants in cm-1:     0.019125     0.009117     0.007664
Rotational constants in MHz :   573.345773   273.326668   229.774545

                             ****ORCA TERMINATED NORMALLY****
TOTAL RUN TIME: 0 days 0 hours 0 minutes 22 seconds 430 msec
