                         Program Version 4.2.1 -  RELEASE  -
|  1> ! wB97X-D3 SP def2-SVP
|  2> %pal
|  3> nprocs 24
|  4> end
|  5>
|  6> * xyz 0 1
|  7> S 	 -124.839 	 24.1811 	 -109.846
|  8> C 	 -123.084 	 24.0249 	 -109.832
|  9> C 	 -122.621 	 24.1962 	 -111.126
| 10> C 	 -123.628 	 24.501 	 -112.11
| 11> C 	 -124.78 	 24.8308 	 -111.534
| 12> H 	 -123.596 	 24.6195 	 -113.227
| 13> C 	 -121.204 	 24.1504 	 -111.561
| 14> H 	 -121.073 	 23.6019 	 -112.493
| 15> H 	 -120.615 	 23.506 	 -110.946
| 16> C 	 -120.457 	 25.4622 	 -111.616
| 17> H 	 -120.504 	 25.8676 	 -110.582
| 18> H 	 -119.429 	 25.3977 	 -111.884
| 19> C 	 -121.151 	 26.3211 	 -112.701
| 20> H 	 -121.407 	 25.7644 	 -113.644
| 21> H 	 -122.03 	 26.84 	 -112.541
| 22> H 	 -120.59 	 27.2317 	 -112.875
| 23> S 	 -126.481 	 24.3358 	 -113.575
| 24> C 	 -127.795 	 25.4875 	 -113.948
| 25> C 	 -127.821 	 26.5212 	 -113.049
| 26> C 	 -126.807 	 26.4141 	 -112.016
| 27> C 	 -125.999 	 25.3004 	 -112.215
| 28> H 	 -128.495 	 27.3919 	 -113.077
| 29> C 	 -126.357 	 27.4455 	 -111.062
| 30> H 	 -126.004 	 28.1654 	 -111.843
| 31> H 	 -125.42 	 27.3059 	 -110.433
| 32> C 	 -127.609 	 27.7994 	 -110.096
| 33> H 	 -127.836 	 27.0677 	 -109.408
| 34> H 	 -128.563 	 28.0546 	 -110.616
| 35> C 	 -127.102 	 28.9703 	 -109.246
| 36> H 	 -127.844 	 29.1828 	 -108.468
| 37> H 	 -126.849 	 29.8237 	 -109.853
| 38> H 	 -126.145 	 28.7122 	 -108.75
| 39> H 	 -122.477 	 23.7892 	 -108.965
| 40> H 	 -128.361 	 25.4489 	 -114.935
| 41> *
| 42>
| 43>                          ****END OF INPUT****

CARTESIAN COORDINATES (ANGSTROEM)
---------------------------------
  S    -124.839000   24.181100  -109.846000
  C    -123.084000   24.024900  -109.832000
  C    -122.621000   24.196200  -111.126000
  C    -123.628000   24.501000  -112.110000
  C    -124.780000   24.830800  -111.534000
  H    -123.596000   24.619500  -113.227000
  C    -121.204000   24.150400  -111.561000
  H    -121.073000   23.601900  -112.493000
  H    -120.615000   23.506000  -110.946000
  C    -120.457000   25.462200  -111.616000
  H    -120.504000   25.867600  -110.582000
  H    -119.429000   25.397700  -111.884000
  C    -121.151000   26.321100  -112.701000
  H    -121.407000   25.764400  -113.644000
  H    -122.030000   26.840000  -112.541000
  H    -120.590000   27.231700  -112.875000
  S    -126.481000   24.335800  -113.575000
  C    -127.795000   25.487500  -113.948000
  C    -127.821000   26.521200  -113.049000
  C    -126.807000   26.414100  -112.016000
  C    -125.999000   25.300400  -112.215000
  H    -128.495000   27.391900  -113.077000
  C    -126.357000   27.445500  -111.062000
  H    -126.004000   28.165400  -111.843000
  H    -125.420000   27.305900  -110.433000
  C    -127.609000   27.799400  -110.096000
  H    -127.836000   27.067700  -109.408000
  H    -128.563000   28.054600  -110.616000
  C    -127.102000   28.970300  -109.246000
  H    -127.844000   29.182800  -108.468000
  H    -126.849000   29.823700  -109.853000
  H    -126.145000   28.712200  -108.750000
  H    -122.477000   23.789200  -108.965000
  H    -128.361000   25.448900  -114.935000

 Total Charge           Charge          ....    0
 Multiplicity           Mult            ....    1
 Number of Electrons    NEL             ....  134
 Basis Dimension        Dim             ....  322

ORBITAL ENERGIES
----------------

  NO   OCC          E(Eh)            E(eV)
   0   2.0000     -88.962815     -2420.8013
   1   2.0000     -88.959974     -2420.7240
   2   2.0000     -10.326956      -281.0107
   3   2.0000     -10.326107      -280.9876
   4   2.0000     -10.319229      -280.8005
   5   2.0000     -10.316580      -280.7284
   6   2.0000     -10.302963      -280.3579
   7   2.0000     -10.302746      -280.3520
   8   2.0000     -10.301778      -280.3256
   9   2.0000     -10.301567      -280.3199
  10   2.0000     -10.294079      -280.1161
  11   2.0000     -10.288488      -279.9640
  12   2.0000     -10.286957      -279.9223
  13   2.0000     -10.280120      -279.7363
  14   2.0000     -10.274245      -279.5764
  15   2.0000     -10.269564      -279.4490
  16   2.0000      -8.077337      -219.7955
  17   2.0000      -8.073872      -219.7012
  18   2.0000      -6.035906      -164.2454
  19   2.0000      -6.032598      -164.1553
  20   2.0000      -6.031891      -164.1361
  21   2.0000      -6.028768      -164.0511
  22   2.0000      -6.028034      -164.0311
  23   2.0000      -6.024176      -163.9262
  24   2.0000      -1.004991       -27.3472
  25   2.0000      -0.982042       -26.7227
  26   2.0000      -0.913903       -24.8686
  27   2.0000      -0.905489       -24.6396
  28   2.0000      -0.870669       -23.6921
  29   2.0000      -0.851634       -23.1741
  30   2.0000      -0.839195       -22.8357
  31   2.0000      -0.818913       -22.2838
  32   2.0000      -0.780313       -21.2334
  33   2.0000      -0.760004       -20.6808
  34   2.0000      -0.707436       -19.2503
  35   2.0000      -0.706197       -19.2166
  36   2.0000      -0.693765       -18.8783
  37   2.0000      -0.664031       -18.0692
  38   2.0000      -0.638271       -17.3682
  39   2.0000      -0.610693       -16.6178
  40   2.0000      -0.595762       -16.2115
  41   2.0000      -0.572563       -15.5802
  42   2.0000      -0.555586       -15.1183
  43   2.0000      -0.551068       -14.9953
  44   2.0000      -0.544141       -14.8068
  45   2.0000      -0.534421       -14.5423
  46   2.0000      -0.518212       -14.1013
  47   2.0000      -0.508643       -13.8409
  48   2.0000      -0.507022       -13.7968
  49   2.0000      -0.493804       -13.4371
  50   2.0000      -0.487115       -13.2551
  51   2.0000      -0.477034       -12.9808
  52   2.0000      -0.466998       -12.7077
  53   2.0000      -0.456569       -12.4239
  54   2.0000      -0.454501       -12.3676
  55   2.0000      -0.450687       -12.2638
  56   2.0000      -0.443984       -12.0814
  57   2.0000      -0.436534       -11.8787
  58   2.0000      -0.432742       -11.7755
  59   2.0000      -0.430592       -11.7170
  60   2.0000      -0.419514       -11.4156
  61   2.0000      -0.408297       -11.1103
  62   2.0000      -0.392016       -10.6673
  63   2.0000      -0.341963        -9.3053
  64   2.0000      -0.331977        -9.0335
  65   2.0000      -0.319595        -8.6966
  66   2.0000      -0.296566        -8.0700
  67   0.0000       0.032676         0.8892
  68   0.0000       0.069119         1.8808
  69   0.0000       0.098910         2.6915
  70   0.0000       0.113283         3.0826
  71   0.0000       0.127518         3.4699

MULLIKEN ATOMIC CHARGES
-----------------------
   0 S :    0.087155
   1 C :   -0.108456
   2 C :   -0.073653
   3 C :    0.011743
   4 C :   -0.133944
   5 H :    0.041322
   6 C :    0.049973
   7 H :    0.021107
   8 H :   -0.004263
   9 C :   -0.013132
  10 H :    0.029031
  11 H :    0.029459
  12 C :   -0.055676
  13 H :    0.029137
  14 H :    0.013927
  15 H :    0.015435
  16 S :    0.095784
  17 C :   -0.114909
  18 C :   -0.018458
  19 C :   -0.003891
  20 C :   -0.184183
  21 H :    0.029054
  22 C :   -0.039260
  23 H :    0.055481
  24 H :    0.058729
  25 C :   -0.068523
  26 H :    0.026149
  27 H :    0.040973
  28 C :   -0.036914
  29 H :    0.034151
  30 H :    0.024013
  31 H :    0.024974
  32 H :    0.050441
  33 H :    0.087226
Sum of atomic charges:   -0.0000000

LOEWDIN ATOMIC CHARGES
----------------------
   0 S :    0.360497
   1 C :   -0.187225
   2 C :   -0.058567
   3 C :   -0.064218
   4 C :   -0.169828
   5 H :    0.042601
   6 C :   -0.043054
   7 H :    0.030555
   8 H :    0.021459
   9 C :   -0.028638
  10 H :    0.029337
  11 H :    0.022993
  12 C :   -0.078351
  13 H :    0.029995
  14 H :    0.016457
  15 H :    0.025766
  16 S :    0.392099
  17 C :   -0.183738
  18 C :   -0.071578
  19 C :   -0.058949
  20 C :   -0.210464
  21 H :    0.035682
  22 C :   -0.038978
  23 H :    0.046576
  24 H :    0.041941
  25 C :   -0.027622
  26 H :    0.017746
  27 H :    0.027998
  28 C :   -0.067211
  29 H :    0.023216
  30 H :    0.019852
  31 H :    0.025867
  32 H :    0.031973
  33 H :    0.045810

  Mayer bond orders larger than 0.100000
B(  0-S ,  1-C ) :   1.1090 B(  0-S ,  4-C ) :   1.1174 B(  1-C ,  2-C ) :   1.6467
B(  1-C , 32-H ) :   0.9723 B(  2-C ,  3-C ) :   1.1727 B(  2-C ,  6-C ) :   1.0396
B(  3-C ,  4-C ) :   1.6458 B(  3-C ,  5-H ) :   0.9795 B(  4-C , 20-C ) :   1.0198
B(  6-C ,  7-H ) :   0.9386 B(  6-C ,  8-H ) :   0.9293 B(  6-C ,  9-C ) :   1.0838
B(  9-C , 10-H ) :   0.9497 B(  9-C , 11-H ) :   0.9549 B(  9-C , 12-C ) :   1.0730
B( 12-C , 13-H ) :   0.9729 B( 12-C , 14-H ) :   0.9642 B( 12-C , 15-H ) :   0.9662
B( 16-S , 17-C ) :   1.1385 B( 16-S , 20-C ) :   1.1354 B( 17-C , 18-C ) :   1.6244
B( 17-C , 33-H ) :   0.9583 B( 18-C , 19-C ) :   1.2246 B( 18-C , 21-H ) :   0.9820
B( 19-C , 20-C ) :   1.6026 B( 19-C , 22-C ) :   1.0261 B( 22-C , 23-H ) :   0.9461
B( 22-C , 24-H ) :   0.9458 B( 22-C , 25-C ) :   1.0235 B( 25-C , 26-H ) :   0.9584
B( 25-C , 27-H ) :   0.9626 B( 25-C , 28-C ) :   1.0856 B( 28-C , 29-H ) :   0.9734
B( 28-C , 30-H ) :   0.9768 B( 28-C , 31-H ) :   0.9702

Dispersion correction           -0.014859104
FINAL SINGLE POINT ENERGY     -1339.835807617893

DIPOLE MOMENT
-------------
                                X             Y             Z
Electronic contribution:    -10.81794     -17.67890      -4.07934
Nuclear contribution   :     11.09694      18.18909       3.95814
                        -----------------------------------------
Total Dipole Moment    :      0.27900       0.51019      -0.12121
                        -----------------------------------------
Magnitude (a.u.)       :      0.59399
Magnitude (Debye)      :      1.50980

Rotational constants in cm-1:     0.017730     0.009083     0.007779
Rotational constants in MHz :   531.541519   272.305104   233.205732

                             ****ORCA TERMINATED NORMALLY****
TOTAL RUN TIME: 0 days 0 hours 0 minutes 22 seconds 57 msec
