                         Program Version 4.2.1 -  RELEASE  -
|  1> ! wB97X-D3 SP def2-SVP
|  2> %pal
|  3> nprocs 24
|  4> end
|  5>
|  6> * xyz 0 1
|  7> S 	 41.2234 	 -21.786 	 -123.213
|  8> C 	 40.2189 	 -20.4656 	 -123.555
|  9> C 	 38.8974 	 -20.8645 	 -123.669
| 10> C 	 38.7396 	 -22.27 	 -123.443
| 11> C 	 39.9091 	 -22.9159 	 -123.111
| 12> H 	 37.8294 	 -22.7644 	 -123.414
| 13> C 	 37.7678 	 -19.9349 	 -124.055
| 14> H 	 38.0674 	 -18.9784 	 -123.682
| 15> H 	 36.8956 	 -20.0794 	 -123.406
| 16> C 	 37.4262 	 -19.7439 	 -125.538
| 17> H 	 38.3627 	 -19.5229 	 -126.066
| 18> H 	 37.0693 	 -20.6446 	 -126.033
| 19> C 	 36.4808 	 -18.5629 	 -125.769
| 20> H 	 35.3833 	 -18.7574 	 -125.642
| 21> H 	 36.8258 	 -17.6874 	 -125.28
| 22> H 	 36.6748 	 -18.3696 	 -126.817
| 23> S 	 39.0015 	 -25.0776 	 -121.684
| 24> C 	 39.89 	 -26.5334 	 -121.584
| 25> C 	 40.8453 	 -26.5437 	 -122.584
| 26> C 	 41.0007 	 -25.3551 	 -123.367
| 27> C 	 40.0485 	 -24.3828 	 -122.934
| 28> H 	 41.38 	 -27.4209 	 -122.726
| 29> C 	 42.0985 	 -25.1118 	 -124.368
| 30> H 	 42.5009 	 -24.1543 	 -124.216
| 31> H 	 41.5528 	 -25.0523 	 -125.291
| 32> C 	 43.149 	 -26.2367 	 -124.487
| 33> H 	 42.6379 	 -27.1324 	 -124.633
| 34> H 	 43.7276 	 -26.3545 	 -123.574
| 35> C 	 44.0361 	 -26.0542 	 -125.716
| 36> H 	 43.5229 	 -26.1854 	 -126.686
| 37> H 	 44.6732 	 -26.8786 	 -125.814
| 38> H 	 44.7641 	 -25.1869 	 -125.761
| 39> H 	 40.5435 	 -19.4494 	 -123.666
| 40> H 	 39.6189 	 -27.2882 	 -120.869
| 41> *
| 42>
| 43>                          ****END OF INPUT****

CARTESIAN COORDINATES (ANGSTROEM)
---------------------------------
  S     41.223400  -21.786000  -123.213000
  C     40.218900  -20.465600  -123.555000
  C     38.897400  -20.864500  -123.669000
  C     38.739600  -22.270000  -123.443000
  C     39.909100  -22.915900  -123.111000
  H     37.829400  -22.764400  -123.414000
  C     37.767800  -19.934900  -124.055000
  H     38.067400  -18.978400  -123.682000
  H     36.895600  -20.079400  -123.406000
  C     37.426200  -19.743900  -125.538000
  H     38.362700  -19.522900  -126.066000
  H     37.069300  -20.644600  -126.033000
  C     36.480800  -18.562900  -125.769000
  H     35.383300  -18.757400  -125.642000
  H     36.825800  -17.687400  -125.280000
  H     36.674800  -18.369600  -126.817000
  S     39.001500  -25.077600  -121.684000
  C     39.890000  -26.533400  -121.584000
  C     40.845300  -26.543700  -122.584000
  C     41.000700  -25.355100  -123.367000
  C     40.048500  -24.382800  -122.934000
  H     41.380000  -27.420900  -122.726000
  C     42.098500  -25.111800  -124.368000
  H     42.500900  -24.154300  -124.216000
  H     41.552800  -25.052300  -125.291000
  C     43.149000  -26.236700  -124.487000
  H     42.637900  -27.132400  -124.633000
  H     43.727600  -26.354500  -123.574000
  C     44.036100  -26.054200  -125.716000
  H     43.522900  -26.185400  -126.686000
  H     44.673200  -26.878600  -125.814000
  H     44.764100  -25.186900  -125.761000
  H     40.543500  -19.449400  -123.666000
  H     39.618900  -27.288200  -120.869000

 Total Charge           Charge          ....    0
 Multiplicity           Mult            ....    1
 Number of Electrons    NEL             ....  134
 Basis Dimension        Dim             ....  322

ORBITAL ENERGIES
----------------

  NO   OCC          E(Eh)            E(eV)
   0   2.0000     -88.965941     -2420.8863
   1   2.0000     -88.961059     -2420.7535
   2   2.0000     -10.329096      -281.0690
   3   2.0000     -10.327615      -281.0287
   4   2.0000     -10.314190      -280.6634
   5   2.0000     -10.308316      -280.5035
   6   2.0000     -10.307479      -280.4808
   7   2.0000     -10.296981      -280.1951
   8   2.0000     -10.288235      -279.9571
   9   2.0000     -10.286422      -279.9078
  10   2.0000     -10.285678      -279.8875
  11   2.0000     -10.285395      -279.8798
  12   2.0000     -10.284724      -279.8616
  13   2.0000     -10.284549      -279.8568
  14   2.0000     -10.278559      -279.6938
  15   2.0000     -10.277038      -279.6524
  16   2.0000      -8.081421      -219.9066
  17   2.0000      -8.076327      -219.7680
  18   2.0000      -6.039916      -164.3545
  19   2.0000      -6.035648      -164.2383
  20   2.0000      -6.034717      -164.2130
  21   2.0000      -6.032352      -164.1487
  22   2.0000      -6.030579      -164.1004
  23   2.0000      -6.027373      -164.0131
  24   2.0000      -1.007377       -27.4121
  25   2.0000      -0.986512       -26.8444
  26   2.0000      -0.913267       -24.8513
  27   2.0000      -0.910032       -24.7632
  28   2.0000      -0.869034       -23.6476
  29   2.0000      -0.854078       -23.2407
  30   2.0000      -0.849221       -23.1085
  31   2.0000      -0.813927       -22.1481
  32   2.0000      -0.784861       -21.3571
  33   2.0000      -0.770878       -20.9767
  34   2.0000      -0.715389       -19.4667
  35   2.0000      -0.702240       -19.1089
  36   2.0000      -0.693563       -18.8728
  37   2.0000      -0.658893       -17.9294
  38   2.0000      -0.641542       -17.4573
  39   2.0000      -0.618995       -16.8437
  40   2.0000      -0.602063       -16.3830
  41   2.0000      -0.575189       -15.6517
  42   2.0000      -0.569596       -15.4995
  43   2.0000      -0.558889       -15.2081
  44   2.0000      -0.530423       -14.4336
  45   2.0000      -0.524321       -14.2675
  46   2.0000      -0.516576       -14.0567
  47   2.0000      -0.511873       -13.9288
  48   2.0000      -0.506090       -13.7714
  49   2.0000      -0.499880       -13.6024
  50   2.0000      -0.494199       -13.4479
  51   2.0000      -0.479499       -13.0478
  52   2.0000      -0.470904       -12.8139
  53   2.0000      -0.466895       -12.7049
  54   2.0000      -0.459913       -12.5149
  55   2.0000      -0.452723       -12.3192
  56   2.0000      -0.444708       -12.1011
  57   2.0000      -0.440253       -11.9799
  58   2.0000      -0.433892       -11.8068
  59   2.0000      -0.427192       -11.6245
  60   2.0000      -0.420060       -11.4304
  61   2.0000      -0.413187       -11.2434
  62   2.0000      -0.411852       -11.2071
  63   2.0000      -0.350278        -9.5316
  64   2.0000      -0.327787        -8.9195
  65   2.0000      -0.326554        -8.8860
  66   2.0000      -0.286664        -7.8005
  67   0.0000       0.032062         0.8725
  68   0.0000       0.072319         1.9679
  69   0.0000       0.116423         3.1680
  70   0.0000       0.130581         3.5533
  71   0.0000       0.136894         3.7251

MULLIKEN ATOMIC CHARGES
-----------------------
   0 S :    0.115281
   1 C :   -0.113971
   2 C :   -0.091022
   3 C :    0.039758
   4 C :   -0.115712
   5 H :   -0.014665
   6 C :    0.082296
   7 H :   -0.009595
   8 H :    0.021745
   9 C :   -0.064439
  10 H :    0.020294
  11 H :    0.028999
  12 C :   -0.035762
  13 H :    0.053029
  14 H :    0.020139
  15 H :    0.024530
  16 S :    0.097963
  17 C :   -0.082956
  18 C :   -0.038009
  19 C :   -0.051726
  20 C :   -0.177296
  21 H :   -0.009850
  22 C :    0.126501
  23 H :    0.014682
  24 H :    0.028049
  25 C :   -0.062107
  26 H :    0.018131
  27 H :    0.037117
  28 C :   -0.041664
  29 H :    0.028851
  30 H :    0.004737
  31 H :    0.044423
  32 H :    0.042073
  33 H :    0.060176
Sum of atomic charges:   -0.0000000

LOEWDIN ATOMIC CHARGES
----------------------
   0 S :    0.439201
   1 C :   -0.213209
   2 C :   -0.063408
   3 C :   -0.057344
   4 C :   -0.202241
   5 H :    0.018053
   6 C :   -0.040301
   7 H :    0.024075
   8 H :    0.030858
   9 C :   -0.036994
  10 H :    0.025463
  11 H :    0.023497
  12 C :   -0.065120
  13 H :    0.032673
  14 H :    0.019012
  15 H :    0.029783
  16 S :    0.420073
  17 C :   -0.193149
  18 C :   -0.074710
  19 C :   -0.049080
  20 C :   -0.195216
  21 H :    0.016467
  22 C :   -0.027000
  23 H :    0.017973
  24 H :    0.039171
  25 C :   -0.031484
  26 H :    0.018965
  27 H :    0.027539
  28 C :   -0.072053
  29 H :    0.030466
  30 H :    0.018553
  31 H :    0.032817
  32 H :    0.027414
  33 H :    0.029257

  Mayer bond orders larger than 0.100000
B(  0-S ,  1-C ) :   1.1595 B(  0-S ,  4-C ) :   1.1587 B(  1-C ,  2-C ) :   1.5791
B(  1-C , 32-H ) :   0.9715 B(  2-C ,  3-C ) :   1.2689 B(  2-C ,  6-C ) :   1.0312
B(  3-C ,  4-C ) :   1.5402 B(  3-C ,  5-H ) :   1.0089 B(  4-C , 20-C ) :   1.0210
B(  6-C ,  7-H ) :   0.9295 B(  6-C ,  8-H ) :   0.9370 B(  6-C ,  9-C ) :   1.0610
B(  9-C , 10-H ) :   0.9553 B(  9-C , 11-H ) :   0.9549 B(  9-C , 12-C ) :   1.0799
B( 12-C , 13-H ) :   0.9759 B( 12-C , 14-H ) :   0.9724 B( 12-C , 15-H ) :   0.9742
B( 16-S , 17-C ) :   1.1793 B( 16-S , 20-C ) :   1.1651 B( 17-C , 18-C ) :   1.5511
B( 17-C , 20-C ) :   0.1070 B( 17-C , 33-H ) :   0.9722 B( 18-C , 19-C ) :   1.2730
B( 18-C , 21-H ) :   1.0005 B( 19-C , 20-C ) :   1.5444 B( 19-C , 22-C ) :   1.0191
B( 22-C , 23-H ) :   0.9306 B( 22-C , 24-H ) :   0.9196 B( 22-C , 25-C ) :   1.0896
B( 25-C , 26-H ) :   0.9410 B( 25-C , 27-H ) :   0.9541 B( 25-C , 28-C ) :   1.0963
B( 28-C , 29-H ) :   0.9700 B( 28-C , 30-H ) :   0.9662 B( 28-C , 31-H ) :   0.9744

Dispersion correction           -0.013209274
FINAL SINGLE POINT ENERGY     -1339.873770102826

DIPOLE MOMENT
-------------
                                X             Y             Z
Electronic contribution:     -0.80158      -6.15395      17.94409
Nuclear contribution   :      0.86602       6.10925     -18.32075
                        -----------------------------------------
Total Dipole Moment    :      0.06443      -0.04470      -0.37666
                        -----------------------------------------
Magnitude (a.u.)       :      0.38474
Magnitude (Debye)      :      0.97792

Rotational constants in cm-1:     0.021018     0.006877     0.005823
Rotational constants in MHz :   630.111332   206.161966   174.578372

                             ****ORCA TERMINATED NORMALLY****
TOTAL RUN TIME: 0 days 0 hours 0 minutes 20 seconds 397 msec
