                         Program Version 4.2.1 -  RELEASE  -
|  1> ! wB97X-D3 SP def2-SVP
|  2> %pal
|  3> nprocs 24
|  4> end
|  5>
|  6> * xyz 0 1
|  7> S 	 -105.995 	 49.5776 	 -9.04329
|  8> C 	 -106.332 	 51.2605 	 -9.36012
|  9> C 	 -105.422 	 51.8734 	 -10.1467
| 10> C 	 -104.418 	 50.933 	 -10.5418
| 11> C 	 -104.702 	 49.6254 	 -10.0548
| 12> H 	 -103.53 	 51.1104 	 -11.0704
| 13> C 	 -105.383 	 53.4001 	 -10.5446
| 14> H 	 -105.322 	 53.9606 	 -9.64159
| 15> H 	 -106.365 	 53.5945 	 -11.0204
| 16> C 	 -104.288 	 53.8112 	 -11.491
| 17> H 	 -104.343 	 54.8334 	 -11.5699
| 18> H 	 -103.279 	 53.5986 	 -11.0557
| 19> C 	 -104.398 	 53.2477 	 -12.8881
| 20> H 	 -105.148 	 53.8453 	 -13.3907
| 21> H 	 -103.57 	 53.3922 	 -13.5565
| 22> H 	 -104.729 	 52.175 	 -12.893
| 23> S 	 -103.386 	 47.4544 	 -8.9203
| 24> C 	 -102.3 	 46.4403 	 -9.9544
| 25> C 	 -102.166 	 46.9341 	 -11.1901
| 26> C 	 -103.101 	 47.9856 	 -11.4398
| 27> C 	 -103.829 	 48.4257 	 -10.3222
| 28> H 	 -101.501 	 46.5786 	 -11.9341
| 29> C 	 -103.507 	 48.3223 	 -12.8599
| 30> H 	 -102.528 	 48.4108 	 -13.4491
| 31> H 	 -103.962 	 49.3167 	 -12.9363
| 32> C 	 -104.387 	 47.1995 	 -13.5075
| 33> H 	 -104.079 	 46.0982 	 -13.3431
| 34> H 	 -104.333 	 47.4661 	 -14.5115
| 35> C 	 -105.865 	 47.2898 	 -12.959
| 36> H 	 -106.413 	 46.4143 	 -13.2556
| 37> H 	 -106.441 	 48.2052 	 -13.2526
| 38> H 	 -105.942 	 47.0986 	 -11.9009
| 39> H 	 -107.183 	 51.8384 	 -9.00959
| 40> H 	 -101.583 	 45.6011 	 -9.60634
| 41> *
| 42>
| 43>                          ****END OF INPUT****

CARTESIAN COORDINATES (ANGSTROEM)
---------------------------------
  S    -105.995000   49.577600   -9.043290
  C    -106.332000   51.260500   -9.360120
  C    -105.422000   51.873400  -10.146700
  C    -104.418000   50.933000  -10.541800
  C    -104.702000   49.625400  -10.054800
  H    -103.530000   51.110400  -11.070400
  C    -105.383000   53.400100  -10.544600
  H    -105.322000   53.960600   -9.641590
  H    -106.365000   53.594500  -11.020400
  C    -104.288000   53.811200  -11.491000
  H    -104.343000   54.833400  -11.569900
  H    -103.279000   53.598600  -11.055700
  C    -104.398000   53.247700  -12.888100
  H    -105.148000   53.845300  -13.390700
  H    -103.570000   53.392200  -13.556500
  H    -104.729000   52.175000  -12.893000
  S    -103.386000   47.454400   -8.920300
  C    -102.300000   46.440300   -9.954400
  C    -102.166000   46.934100  -11.190100
  C    -103.101000   47.985600  -11.439800
  C    -103.829000   48.425700  -10.322200
  H    -101.501000   46.578600  -11.934100
  C    -103.507000   48.322300  -12.859900
  H    -102.528000   48.410800  -13.449100
  H    -103.962000   49.316700  -12.936300
  C    -104.387000   47.199500  -13.507500
  H    -104.079000   46.098200  -13.343100
  H    -104.333000   47.466100  -14.511500
  C    -105.865000   47.289800  -12.959000
  H    -106.413000   46.414300  -13.255600
  H    -106.441000   48.205200  -13.252600
  H    -105.942000   47.098600  -11.900900
  H    -107.183000   51.838400   -9.009590
  H    -101.583000   45.601100   -9.606340

 Total Charge           Charge          ....    0
 Multiplicity           Mult            ....    1
 Number of Electrons    NEL             ....  134
 Basis Dimension        Dim             ....  322

ORBITAL ENERGIES
----------------

  NO   OCC          E(Eh)            E(eV)
   0   2.0000     -88.970877     -2421.0206
   1   2.0000     -88.962806     -2420.8010
   2   2.0000     -10.330118      -281.0968
   3   2.0000     -10.327898      -281.0364
   4   2.0000     -10.322848      -280.8990
   5   2.0000     -10.306174      -280.4452
   6   2.0000     -10.300010      -280.2775
   7   2.0000     -10.299382      -280.2604
   8   2.0000     -10.297986      -280.2224
   9   2.0000     -10.295600      -280.1575
  10   2.0000     -10.291978      -280.0589
  11   2.0000     -10.289557      -279.9931
  12   2.0000     -10.288492      -279.9641
  13   2.0000     -10.282845      -279.8104
  14   2.0000     -10.276754      -279.6447
  15   2.0000     -10.271727      -279.5079
  16   2.0000      -8.087420      -220.0699
  17   2.0000      -8.076627      -219.7762
  18   2.0000      -6.045661      -164.5108
  19   2.0000      -6.041649      -164.4016
  20   2.0000      -6.038384      -164.3128
  21   2.0000      -6.035357      -164.2304
  22   2.0000      -6.031340      -164.1211
  23   2.0000      -6.027125      -164.0064
  24   2.0000      -1.012432       -27.5497
  25   2.0000      -0.983928       -26.7741
  26   2.0000      -0.919602       -25.0236
  27   2.0000      -0.896833       -24.4041
  28   2.0000      -0.872266       -23.7356
  29   2.0000      -0.847661       -23.0660
  30   2.0000      -0.837069       -22.7778
  31   2.0000      -0.812077       -22.0977
  32   2.0000      -0.790196       -21.5023
  33   2.0000      -0.767027       -20.8719
  34   2.0000      -0.707804       -19.2603
  35   2.0000      -0.695901       -18.9364
  36   2.0000      -0.685456       -18.6522
  37   2.0000      -0.659312       -17.9408
  38   2.0000      -0.638274       -17.3683
  39   2.0000      -0.621911       -16.9231
  40   2.0000      -0.587969       -15.9994
  41   2.0000      -0.571554       -15.5528
  42   2.0000      -0.563426       -15.3316
  43   2.0000      -0.545630       -14.8473
  44   2.0000      -0.538215       -14.6456
  45   2.0000      -0.534020       -14.5314
  46   2.0000      -0.512964       -13.9585
  47   2.0000      -0.501361       -13.6427
  48   2.0000      -0.499263       -13.5856
  49   2.0000      -0.493689       -13.4340
  50   2.0000      -0.490541       -13.3483
  51   2.0000      -0.479035       -13.0352
  52   2.0000      -0.471406       -12.8276
  53   2.0000      -0.457903       -12.4602
  54   2.0000      -0.454384       -12.3644
  55   2.0000      -0.451489       -12.2856
  56   2.0000      -0.448069       -12.1926
  57   2.0000      -0.444352       -12.0914
  58   2.0000      -0.431779       -11.7493
  59   2.0000      -0.428045       -11.6477
  60   2.0000      -0.416201       -11.3254
  61   2.0000      -0.414019       -11.2660
  62   2.0000      -0.407175       -11.0798
  63   2.0000      -0.351191        -9.5564
  64   2.0000      -0.335227        -9.1220
  65   2.0000      -0.324457        -8.8289
  66   2.0000      -0.286701        -7.8015
  67   0.0000       0.031115         0.8467
  68   0.0000       0.079241         2.1563
  69   0.0000       0.100247         2.7279
  70   0.0000       0.123164         3.3515
  71   0.0000       0.136728         3.7205

MULLIKEN ATOMIC CHARGES
-----------------------
   0 S :    0.139151
   1 C :   -0.135484
   2 C :   -0.089595
   3 C :    0.015163
   4 C :   -0.139080
   5 H :   -0.003201
   6 C :    0.088781
   7 H :    0.037474
   8 H :    0.032706
   9 C :   -0.046828
  10 H :    0.010260
  11 H :    0.034063
  12 C :   -0.065872
  13 H :    0.015822
  14 H :    0.031039
  15 H :    0.052651
  16 S :    0.075840
  17 C :   -0.107411
  18 C :   -0.003615
  19 C :   -0.072404
  20 C :   -0.126857
  21 H :    0.010551
  22 C :    0.016578
  23 H :    0.026952
  24 H :    0.028751
  25 C :   -0.049205
  26 H :    0.051813
  27 H :    0.022907
  28 C :   -0.063212
  29 H :    0.016464
  30 H :    0.047051
  31 H :    0.032928
  32 H :    0.033735
  33 H :    0.082084
Sum of atomic charges:   -0.0000000

LOEWDIN ATOMIC CHARGES
----------------------
   0 S :    0.462540
   1 C :   -0.210844
   2 C :   -0.059028
   3 C :   -0.065082
   4 C :   -0.227275
   5 H :    0.020154
   6 C :   -0.018908
   7 H :    0.031603
   8 H :    0.035816
   9 C :   -0.044051
  10 H :    0.018359
  11 H :    0.027627
  12 C :   -0.070500
  13 H :    0.024837
  14 H :    0.025092
  15 H :    0.031093
  16 S :    0.362213
  17 C :   -0.177820
  18 C :   -0.066316
  19 C :   -0.066036
  20 C :   -0.190413
  21 H :    0.030371
  22 C :   -0.036649
  23 H :    0.031263
  24 H :    0.028760
  25 C :   -0.032392
  26 H :    0.038456
  27 H :    0.015030
  28 C :   -0.074606
  29 H :    0.022430
  30 H :    0.030728
  31 H :    0.025672
  32 H :    0.027944
  33 H :    0.049930

  Mayer bond orders larger than 0.100000
B(  0-S ,  1-C ) :   1.1375 B(  0-S ,  4-C ) :   1.2059 B(  1-C ,  2-C ) :   1.6417
B(  1-C , 32-H ) :   0.9680 B(  2-C ,  3-C ) :   1.2656 B(  2-C ,  6-C ) :   0.9770
B(  3-C ,  4-C ) :   1.5185 B(  3-C ,  5-H ) :   0.9999 B(  4-C , 20-C ) :   1.0019
B(  6-C ,  7-H ) :   0.9373 B(  6-C ,  8-H ) :   0.9389 B(  6-C ,  9-C ) :   1.1035
B(  9-C , 10-H ) :   0.9474 B(  9-C , 11-H ) :   0.9476 B(  9-C , 12-C ) :   1.0701
B( 12-C , 13-H ) :   0.9692 B( 12-C , 14-H ) :   0.9729 B( 12-C , 15-H ) :   0.9778
B( 16-S , 17-C ) :   1.1202 B( 16-S , 20-C ) :   1.1188 B( 17-C , 18-C ) :   1.6525
B( 17-C , 33-H ) :   0.9509 B( 18-C , 19-C ) :   1.2222 B( 18-C , 21-H ) :   0.9928
B( 19-C , 20-C ) :   1.6288 B( 19-C , 22-C ) :   1.0565 B( 22-C , 23-H ) :   0.9352
B( 22-C , 24-H ) :   0.9390 B( 22-C , 25-C ) :   1.0480 B( 25-C , 26-H ) :   0.9599
B( 25-C , 27-H ) :   0.9555 B( 25-C , 28-C ) :   1.0715 B( 28-C , 29-H ) :   0.9709
B( 28-C , 30-H ) :   0.9771 B( 28-C , 31-H ) :   0.9719

Dispersion correction           -0.015529577
FINAL SINGLE POINT ENERGY     -1339.857196255773

DIPOLE MOMENT
-------------
                                X             Y             Z
Electronic contribution:      0.98904     -11.76451      22.50370
Nuclear contribution   :     -0.85860      12.18484     -23.06625
                        -----------------------------------------
Total Dipole Moment    :      0.13043       0.42033      -0.56255
                        -----------------------------------------
Magnitude (a.u.)       :      0.71425
Magnitude (Debye)      :      1.81548

Rotational constants in cm-1:     0.019109     0.009407     0.007951
Rotational constants in MHz :   572.864218   282.010307   238.362825

                             ****ORCA TERMINATED NORMALLY****
TOTAL RUN TIME: 0 days 0 hours 0 minutes 22 seconds 663 msec
