                         Program Version 4.2.1 -  RELEASE  -
|  1> ! wB97X-D3 SP def2-SVP
|  2> %pal
|  3> nprocs 24
|  4> end
|  5>
|  6> * xyz 0 1
|  7> S 	 -17.5756 	 -34.8732 	 -93.5139
|  8> C 	 -16.2184 	 -35.9175 	 -93.9785
|  9> C 	 -15.3811 	 -35.2037 	 -94.884
| 10> C 	 -15.719 	 -33.8022 	 -94.9946
| 11> C 	 -16.8501 	 -33.5173 	 -94.2666
| 12> H 	 -15.2613 	 -33.0743 	 -95.6339
| 13> C 	 -14.0551 	 -35.7244 	 -95.3456
| 14> H 	 -13.7503 	 -36.4183 	 -94.525
| 15> H 	 -13.3881 	 -34.8205 	 -95.406
| 16> C 	 -14.0772 	 -36.2823 	 -96.7723
| 17> H 	 -14.8326 	 -37.1617 	 -96.8553
| 18> H 	 -14.4338 	 -35.4099 	 -97.3474
| 19> C 	 -12.7037 	 -36.6888 	 -97.4505
| 20> H 	 -12.2933 	 -37.5315 	 -96.857
| 21> H 	 -13.0181 	 -37.0514 	 -98.389
| 22> H 	 -12.0583 	 -35.8356 	 -97.6056
| 23> S 	 -18.9874 	 -31.973 	 -95.0893
| 24> C 	 -19.0547 	 -30.2889 	 -94.6197
| 25> C 	 -17.9566 	 -29.9098 	 -93.913
| 26> C 	 -17.0706 	 -31.0329 	 -93.5546
| 27> C 	 -17.4756 	 -32.2244 	 -94.2139
| 28> H 	 -18.0124 	 -28.858 	 -93.7132
| 29> C 	 -15.7733 	 -30.8259 	 -92.8901
| 30> H 	 -15.4031 	 -29.873 	 -93.2476
| 31> H 	 -15.2406 	 -31.6404 	 -93.3156
| 32> C 	 -15.71 	 -30.9073 	 -91.3081
| 33> H 	 -15.8214 	 -31.9213 	 -90.8544
| 34> H 	 -16.6288 	 -30.3952 	 -90.8657
| 35> C 	 -14.4171 	 -30.2717 	 -90.8003
| 36> H 	 -14.3675 	 -29.2072 	 -90.8885
| 37> H 	 -13.5553 	 -30.8036 	 -91.1932
| 38> H 	 -14.43 	 -30.3567 	 -89.7784
| 39> H 	 -16.0295 	 -36.9714 	 -93.7039
| 40> H 	 -19.8204 	 -29.5323 	 -94.8049
| 41> *
| 42>
| 43>                          ****END OF INPUT****

CARTESIAN COORDINATES (ANGSTROEM)
---------------------------------
  S    -17.575600  -34.873200  -93.513900
  C    -16.218400  -35.917500  -93.978500
  C    -15.381100  -35.203700  -94.884000
  C    -15.719000  -33.802200  -94.994600
  C    -16.850100  -33.517300  -94.266600
  H    -15.261300  -33.074300  -95.633900
  C    -14.055100  -35.724400  -95.345600
  H    -13.750300  -36.418300  -94.525000
  H    -13.388100  -34.820500  -95.406000
  C    -14.077200  -36.282300  -96.772300
  H    -14.832600  -37.161700  -96.855300
  H    -14.433800  -35.409900  -97.347400
  C    -12.703700  -36.688800  -97.450500
  H    -12.293300  -37.531500  -96.857000
  H    -13.018100  -37.051400  -98.389000
  H    -12.058300  -35.835600  -97.605600
  S    -18.987400  -31.973000  -95.089300
  C    -19.054700  -30.288900  -94.619700
  C    -17.956600  -29.909800  -93.913000
  C    -17.070600  -31.032900  -93.554600
  C    -17.475600  -32.224400  -94.213900
  H    -18.012400  -28.858000  -93.713200
  C    -15.773300  -30.825900  -92.890100
  H    -15.403100  -29.873000  -93.247600
  H    -15.240600  -31.640400  -93.315600
  C    -15.710000  -30.907300  -91.308100
  H    -15.821400  -31.921300  -90.854400
  H    -16.628800  -30.395200  -90.865700
  C    -14.417100  -30.271700  -90.800300
  H    -14.367500  -29.207200  -90.888500
  H    -13.555300  -30.803600  -91.193200
  H    -14.430000  -30.356700  -89.778400
  H    -16.029500  -36.971400  -93.703900
  H    -19.820400  -29.532300  -94.804900

 Total Charge           Charge          ....    0
 Multiplicity           Mult            ....    1
 Number of Electrons    NEL             ....  134
 Basis Dimension        Dim             ....  322

ORBITAL ENERGIES
----------------

  NO   OCC          E(Eh)            E(eV)
   0   2.0000     -88.970169     -2421.0014
   1   2.0000     -88.962682     -2420.7976
   2   2.0000     -10.325550      -280.9725
   3   2.0000     -10.325313      -280.9660
   4   2.0000     -10.322073      -280.8779
   5   2.0000     -10.311766      -280.5974
   6   2.0000     -10.307522      -280.4819
   7   2.0000     -10.305101      -280.4161
   8   2.0000     -10.296755      -280.1890
   9   2.0000     -10.295765      -280.1620
  10   2.0000     -10.295284      -280.1489
  11   2.0000     -10.292687      -280.0783
  12   2.0000     -10.289258      -279.9850
  13   2.0000     -10.283561      -279.8299
  14   2.0000     -10.280537      -279.7476
  15   2.0000     -10.266275      -279.3595
  16   2.0000      -8.084880      -220.0008
  17   2.0000      -8.077134      -219.7900
  18   2.0000      -6.043367      -164.4484
  19   2.0000      -6.039359      -164.3393
  20   2.0000      -6.035745      -164.2410
  21   2.0000      -6.035676      -164.2391
  22   2.0000      -6.031659      -164.1298
  23   2.0000      -6.027832      -164.0256
  24   2.0000      -1.006112       -27.3777
  25   2.0000      -0.978601       -26.6291
  26   2.0000      -0.910199       -24.7678
  27   2.0000      -0.903739       -24.5920
  28   2.0000      -0.868672       -23.6378
  29   2.0000      -0.852140       -23.1879
  30   2.0000      -0.847715       -23.0675
  31   2.0000      -0.818590       -22.2750
  32   2.0000      -0.783113       -21.3096
  33   2.0000      -0.765460       -20.8292
  34   2.0000      -0.708155       -19.2699
  35   2.0000      -0.692762       -18.8510
  36   2.0000      -0.689870       -18.7723
  37   2.0000      -0.651237       -17.7211
  38   2.0000      -0.640126       -17.4187
  39   2.0000      -0.618681       -16.8352
  40   2.0000      -0.584613       -15.9081
  41   2.0000      -0.571516       -15.5517
  42   2.0000      -0.565084       -15.3767
  43   2.0000      -0.553291       -15.0558
  44   2.0000      -0.528183       -14.3726
  45   2.0000      -0.522515       -14.2184
  46   2.0000      -0.521211       -14.1829
  47   2.0000      -0.513179       -13.9643
  48   2.0000      -0.504769       -13.7355
  49   2.0000      -0.501848       -13.6560
  50   2.0000      -0.497632       -13.5413
  51   2.0000      -0.475778       -12.9466
  52   2.0000      -0.468132       -12.7385
  53   2.0000      -0.460326       -12.5261
  54   2.0000      -0.457580       -12.4514
  55   2.0000      -0.451516       -12.2864
  56   2.0000      -0.444388       -12.0924
  57   2.0000      -0.435122       -11.8403
  58   2.0000      -0.429556       -11.6888
  59   2.0000      -0.422108       -11.4861
  60   2.0000      -0.417715       -11.3666
  61   2.0000      -0.412783       -11.2324
  62   2.0000      -0.410885       -11.1808
  63   2.0000      -0.338051        -9.1988
  64   2.0000      -0.326601        -8.8873
  65   2.0000      -0.322785        -8.7834
  66   2.0000      -0.299974        -8.1627
  67   0.0000       0.039198         1.0666
  68   0.0000       0.057413         1.5623
  69   0.0000       0.113353         3.0845
  70   0.0000       0.117711         3.2031
  71   0.0000       0.118931         3.2363

MULLIKEN ATOMIC CHARGES
-----------------------
   0 S :    0.135441
   1 C :   -0.135249
   2 C :   -0.087730
   3 C :    0.057002
   4 C :   -0.179543
   5 H :    0.018494
   6 C :    0.038000
   7 H :    0.035563
   8 H :    0.028897
   9 C :   -0.146300
  10 H :    0.045031
  11 H :    0.028856
  12 C :   -0.008126
  13 H :    0.041101
  14 H :    0.027062
  15 H :    0.037856
  16 S :    0.109299
  17 C :   -0.102357
  18 C :   -0.042014
  19 C :   -0.014644
  20 C :   -0.179827
  21 H :    0.012362
  22 C :    0.104043
  23 H :    0.024591
  24 H :    0.009834
  25 C :   -0.116308
  26 H :    0.039208
  27 H :    0.031453
  28 C :    0.005803
  29 H :    0.022891
  30 H :    0.036658
  31 H :    0.004511
  32 H :    0.062554
  33 H :    0.055591
Sum of atomic charges:    0.0000000

LOEWDIN ATOMIC CHARGES
----------------------
   0 S :    0.425550
   1 C :   -0.205528
   2 C :   -0.057674
   3 C :   -0.057496
   4 C :   -0.211062
   5 H :    0.032875
   6 C :   -0.044717
   7 H :    0.032543
   8 H :    0.035322
   9 C :   -0.048870
  10 H :    0.030597
  11 H :    0.024773
  12 C :   -0.060796
  13 H :    0.029850
  14 H :    0.022512
  15 H :    0.024473
  16 S :    0.393374
  17 C :   -0.190936
  18 C :   -0.078856
  19 C :   -0.044689
  20 C :   -0.205389
  21 H :    0.031824
  22 C :   -0.034909
  23 H :    0.033450
  24 H :    0.028607
  25 C :   -0.040486
  26 H :    0.030037
  27 H :    0.026761
  28 C :   -0.061410
  29 H :    0.023362
  30 H :    0.028592
  31 H :    0.016779
  32 H :    0.036160
  33 H :    0.035378

  Mayer bond orders larger than 0.100000
B(  0-S ,  1-C ) :   1.1328 B(  0-S ,  4-C ) :   1.1701 B(  1-C ,  2-C ) :   1.5953
B(  1-C , 32-H ) :   0.9665 B(  2-C ,  3-C ) :   1.2362 B(  2-C ,  6-C ) :   1.0242
B(  3-C ,  4-C ) :   1.5731 B(  3-C ,  5-H ) :   0.9895 B(  4-C , 20-C ) :   1.0310
B(  6-C ,  7-H ) :   0.9469 B(  6-C ,  8-H ) :   0.9455 B(  6-C ,  9-C ) :   1.0459
B(  9-C , 10-H ) :   0.9591 B(  9-C , 11-H ) :   0.9563 B(  9-C , 12-C ) :   1.0748
B( 12-C , 13-H ) :   0.9759 B( 12-C , 14-H ) :   0.9747 B( 12-C , 15-H ) :   0.9746
B( 16-S , 17-C ) :   1.1334 B( 16-S , 20-C ) :   1.1354 B( 17-C , 18-C ) :   1.6812
B( 17-C , 33-H ) :   0.9605 B( 18-C , 19-C ) :   1.1766 B( 18-C , 21-H ) :   0.9895
B( 19-C , 20-C ) :   1.5985 B( 19-C , 22-C ) :   1.0495 B( 22-C , 23-H ) :   0.9449
B( 22-C , 24-H ) :   0.9195 B( 22-C , 25-C ) :   1.0424 B( 25-C , 26-H ) :   0.9551
B( 25-C , 27-H ) :   0.9614 B( 25-C , 28-C ) :   1.0886 B( 28-C , 29-H ) :   0.9723
B( 28-C , 30-H ) :   0.9725 B( 28-C , 31-H ) :   0.9672

Dispersion correction           -0.013563731
FINAL SINGLE POINT ENERGY     -1339.854390360156

DIPOLE MOMENT
-------------
                                X             Y             Z
Electronic contribution:    -25.26500       0.34093      -1.13410
Nuclear contribution   :     25.83095      -0.16176       1.13418
                        -----------------------------------------
Total Dipole Moment    :      0.56596       0.17916       0.00008
                        -----------------------------------------
Magnitude (a.u.)       :      0.59364
Magnitude (Debye)      :      1.50891

Rotational constants in cm-1:     0.017733     0.007692     0.006532
Rotational constants in MHz :   531.609960   230.590375   195.837529

                             ****ORCA TERMINATED NORMALLY****
TOTAL RUN TIME: 0 days 0 hours 0 minutes 19 seconds 822 msec
