                         Program Version 4.2.1 -  RELEASE  -
|  1> ! wB97X-D3 SP def2-SVP
|  2> %pal
|  3> nprocs 24
|  4> end
|  5>
|  6> * xyz 0 1
|  7> S 	 -134.744 	 63.8261 	 -61.5577
|  8> C 	 -134.131 	 65.3348 	 -62.1181
|  9> C 	 -133.697 	 66.1465 	 -61.1441
| 10> C 	 -133.807 	 65.5189 	 -59.8675
| 11> C 	 -134.332 	 64.2673 	 -59.8825
| 12> H 	 -133.457 	 65.921 	 -58.9083
| 13> C 	 -133.122 	 67.5582 	 -61.3594
| 14> H 	 -133.433 	 67.9271 	 -62.3615
| 15> H 	 -132.064 	 67.4423 	 -61.4561
| 16> C 	 -133.292 	 68.5849 	 -60.2495
| 17> H 	 -132.815 	 68.26 	 -59.3709
| 18> H 	 -132.718 	 69.4787 	 -60.621
| 19> C 	 -134.726 	 69.1281 	 -59.9678
| 20> H 	 -134.71 	 70.0065 	 -59.4403
| 21> H 	 -135.362 	 69.2511 	 -60.7774
| 22> H 	 -135.269 	 68.4577 	 -59.3694
| 23> S 	 -136.298 	 62.6886 	 -58.7083
| 24> C 	 -135.992 	 62.0206 	 -57.1774
| 25> C 	 -134.69 	 62.2687 	 -56.8195
| 26> C 	 -133.885 	 62.975 	 -57.7544
| 27> C 	 -134.72 	 63.4949 	 -58.7403
| 28> H 	 -134.481 	 61.7125 	 -55.9026
| 29> C 	 -132.407 	 63.2802 	 -57.6027
| 30> H 	 -132.284 	 63.301 	 -56.5465
| 31> H 	 -132.179 	 64.3352 	 -57.9395
| 32> C 	 -131.388 	 62.344 	 -58.3859
| 33> H 	 -131.519 	 61.3217 	 -58.1027
| 34> H 	 -130.352 	 62.5194 	 -58.1673
| 35> C 	 -131.545 	 62.391 	 -59.8589
| 36> H 	 -131.383 	 63.3339 	 -60.3021
| 37> H 	 -132.436 	 62.1321 	 -60.2791
| 38> H 	 -130.839 	 61.7674 	 -60.3762
| 39> H 	 -134.237 	 65.5613 	 -63.168
| 40> H 	 -136.832 	 61.5649 	 -56.6378
| 41> *
| 42>
| 43>                          ****END OF INPUT****

CARTESIAN COORDINATES (ANGSTROEM)
---------------------------------
  S    -134.744000   63.826100  -61.557700
  C    -134.131000   65.334800  -62.118100
  C    -133.697000   66.146500  -61.144100
  C    -133.807000   65.518900  -59.867500
  C    -134.332000   64.267300  -59.882500
  H    -133.457000   65.921000  -58.908300
  C    -133.122000   67.558200  -61.359400
  H    -133.433000   67.927100  -62.361500
  H    -132.064000   67.442300  -61.456100
  C    -133.292000   68.584900  -60.249500
  H    -132.815000   68.260000  -59.370900
  H    -132.718000   69.478700  -60.621000
  C    -134.726000   69.128100  -59.967800
  H    -134.710000   70.006500  -59.440300
  H    -135.362000   69.251100  -60.777400
  H    -135.269000   68.457700  -59.369400
  S    -136.298000   62.688600  -58.708300
  C    -135.992000   62.020600  -57.177400
  C    -134.690000   62.268700  -56.819500
  C    -133.885000   62.975000  -57.754400
  C    -134.720000   63.494900  -58.740300
  H    -134.481000   61.712500  -55.902600
  C    -132.407000   63.280200  -57.602700
  H    -132.284000   63.301000  -56.546500
  H    -132.179000   64.335200  -57.939500
  C    -131.388000   62.344000  -58.385900
  H    -131.519000   61.321700  -58.102700
  H    -130.352000   62.519400  -58.167300
  C    -131.545000   62.391000  -59.858900
  H    -131.383000   63.333900  -60.302100
  H    -132.436000   62.132100  -60.279100
  H    -130.839000   61.767400  -60.376200
  H    -134.237000   65.561300  -63.168000
  H    -136.832000   61.564900  -56.637800

 Total Charge           Charge          ....    0
 Multiplicity           Mult            ....    1
 Number of Electrons    NEL             ....  134
 Basis Dimension        Dim             ....  322

ORBITAL ENERGIES
----------------

  NO   OCC          E(Eh)            E(eV)
   0   2.0000     -88.961146     -2420.7558
   1   2.0000     -88.961100     -2420.7546
   2   2.0000     -10.323994      -280.9302
   3   2.0000     -10.323582      -280.9189
   4   2.0000     -10.313853      -280.6542
   5   2.0000     -10.307103      -280.4705
   6   2.0000     -10.306081      -280.4427
   7   2.0000     -10.297601      -280.2120
   8   2.0000     -10.296669      -280.1866
   9   2.0000     -10.293447      -280.0989
  10   2.0000     -10.292840      -280.0824
  11   2.0000     -10.290848      -280.0282
  12   2.0000     -10.289353      -279.9875
  13   2.0000     -10.282095      -279.7900
  14   2.0000     -10.259388      -279.1721
  15   2.0000     -10.251050      -278.9452
  16   2.0000      -8.076971      -219.7856
  17   2.0000      -8.076158      -219.7634
  18   2.0000      -6.035299      -164.2288
  19   2.0000      -6.034673      -164.2118
  20   2.0000      -6.031317      -164.1205
  21   2.0000      -6.030711      -164.1040
  22   2.0000      -6.027856      -164.0263
  23   2.0000      -6.026814      -163.9980
  24   2.0000      -1.011345       -27.5201
  25   2.0000      -0.989904       -26.9367
  26   2.0000      -0.909843       -24.7581
  27   2.0000      -0.906694       -24.6724
  28   2.0000      -0.874553       -23.7978
  29   2.0000      -0.856218       -23.2989
  30   2.0000      -0.844585       -22.9823
  31   2.0000      -0.816800       -22.2263
  32   2.0000      -0.791391       -21.5349
  33   2.0000      -0.779453       -21.2100
  34   2.0000      -0.715273       -19.4636
  35   2.0000      -0.705300       -19.1922
  36   2.0000      -0.693766       -18.8783
  37   2.0000      -0.656408       -17.8618
  38   2.0000      -0.641488       -17.4558
  39   2.0000      -0.624162       -16.9843
  40   2.0000      -0.595248       -16.1975
  41   2.0000      -0.562301       -15.3010
  42   2.0000      -0.556211       -15.1353
  43   2.0000      -0.552300       -15.0289
  44   2.0000      -0.542798       -14.7703
  45   2.0000      -0.537047       -14.6138
  46   2.0000      -0.518773       -14.1165
  47   2.0000      -0.510169       -13.8824
  48   2.0000      -0.501112       -13.6360
  49   2.0000      -0.499156       -13.5827
  50   2.0000      -0.490540       -13.3483
  51   2.0000      -0.486588       -13.2407
  52   2.0000      -0.471171       -12.8212
  53   2.0000      -0.466862       -12.7040
  54   2.0000      -0.459456       -12.5024
  55   2.0000      -0.446446       -12.1484
  56   2.0000      -0.443608       -12.0712
  57   2.0000      -0.437747       -11.9117
  58   2.0000      -0.433297       -11.7906
  59   2.0000      -0.430174       -11.7056
  60   2.0000      -0.418555       -11.3895
  61   2.0000      -0.415387       -11.3033
  62   2.0000      -0.409571       -11.1450
  63   2.0000      -0.352569        -9.5939
  64   2.0000      -0.330347        -8.9892
  65   2.0000      -0.328479        -8.9384
  66   2.0000      -0.289841        -7.8870
  67   0.0000       0.030261         0.8235
  68   0.0000       0.070804         1.9267
  69   0.0000       0.114795         3.1237
  70   0.0000       0.125116         3.4046
  71   0.0000       0.135660         3.6915

MULLIKEN ATOMIC CHARGES
-----------------------
   0 S :    0.097712
   1 C :   -0.150834
   2 C :   -0.038770
   3 C :   -0.002468
   4 C :   -0.144543
   5 H :    0.019626
   6 C :    0.087854
   7 H :    0.018799
   8 H :    0.031388
   9 C :   -0.094890
  10 H :    0.023205
  11 H :    0.034058
  12 C :    0.028066
  13 H :    0.011568
  14 H :    0.009671
  15 H :    0.012126
  16 S :    0.101277
  17 C :   -0.122678
  18 C :   -0.031252
  19 C :   -0.031233
  20 C :   -0.161467
  21 H :    0.021849
  22 C :    0.067934
  23 H :    0.017888
  24 H :    0.026455
  25 C :   -0.012561
  26 H :    0.015485
  27 H :    0.022299
  28 C :    0.010415
  29 H :    0.002664
  30 H :   -0.000414
  31 H :    0.012818
  32 H :    0.043868
  33 H :    0.074082
Sum of atomic charges:    0.0000000

LOEWDIN ATOMIC CHARGES
----------------------
   0 S :    0.391655
   1 C :   -0.196475
   2 C :   -0.069328
   3 C :   -0.064032
   4 C :   -0.179260
   5 H :    0.031625
   6 C :   -0.028257
   7 H :    0.031496
   8 H :    0.033180
   9 C :   -0.035309
  10 H :    0.016435
  11 H :    0.034032
  12 C :   -0.053741
  13 H :    0.017189
  14 H :    0.019573
  15 H :    0.021945
  16 S :    0.412577
  17 C :   -0.202597
  18 C :   -0.081833
  19 C :   -0.051987
  20 C :   -0.189904
  21 H :    0.034591
  22 C :   -0.027602
  23 H :    0.026585
  24 H :    0.035657
  25 C :   -0.027904
  26 H :    0.021455
  27 H :    0.024893
  28 C :   -0.060989
  29 H :    0.020033
  30 H :    0.008491
  31 H :    0.027237
  32 H :    0.024951
  33 H :    0.035618

  Mayer bond orders larger than 0.100000
B(  0-S ,  1-C ) :   1.1328 B(  0-S ,  4-C ) :   1.1236 B(  1-C ,  2-C ) :   1.6409
B(  1-C , 32-H ) :   0.9689 B(  2-C ,  3-C ) :   1.2185 B(  2-C ,  6-C ) :   1.0032
B(  3-C ,  4-C ) :   1.6147 B(  3-C ,  5-H ) :   0.9846 B(  4-C , 20-C ) :   1.0714
B(  6-C ,  7-H ) :   0.9425 B(  6-C ,  8-H ) :   0.9312 B(  6-C ,  9-C ) :   1.0926
B(  9-C , 10-H ) :   0.9501 B(  9-C , 11-H ) :   0.9552 B(  9-C , 12-C ) :   1.0721
B( 12-C , 13-H ) :   0.9740 B( 12-C , 14-H ) :   0.9737 B( 12-C , 15-H ) :   0.9705
B( 16-S , 17-C ) :   1.1692 B( 16-S , 20-C ) :   1.1497 B( 17-C , 18-C ) :   1.5962
B( 17-C , 20-C ) :   0.1016 B( 17-C , 33-H ) :   0.9659 B( 18-C , 19-C ) :   1.2344
B( 18-C , 21-H ) :   0.9910 B( 19-C , 20-C ) :   1.5543 B( 19-C , 22-C ) :   1.0265
B( 22-C , 23-H ) :   0.9359 B( 22-C , 24-H ) :   0.9415 B( 22-C , 25-C ) :   1.0600
B( 25-C , 26-H ) :   0.9542 B( 25-C , 27-H ) :   0.9564 B( 25-C , 28-C ) :   1.0916
B( 28-C , 29-H ) :   0.9660 B( 28-C , 30-H ) :   0.9639 B( 28-C , 31-H ) :   0.9637

Dispersion correction           -0.015745183
FINAL SINGLE POINT ENERGY     -1339.864567046425

DIPOLE MOMENT
-------------
                                X             Y             Z
Electronic contribution:    -16.41163     -14.82528      -1.97452
Nuclear contribution   :     16.80369      15.13099       2.20017
                        -----------------------------------------
Total Dipole Moment    :      0.39207       0.30570       0.22564
                        -----------------------------------------
Magnitude (a.u.)       :      0.54597
Magnitude (Debye)      :      1.38775

Rotational constants in cm-1:     0.019185     0.008992     0.008393
Rotational constants in MHz :   575.165583   269.563992   251.608975

                             ****ORCA TERMINATED NORMALLY****
TOTAL RUN TIME: 0 days 0 hours 0 minutes 22 seconds 685 msec
