                         Program Version 4.2.1 -  RELEASE  -
|  1> ! wB97X-D3 SP def2-SVP
|  2> %pal
|  3> nprocs 24
|  4> end
|  5>
|  6> * xyz 0 1
|  7> S 	 -68.3931 	 -47.9374 	 -89.4456
|  8> C 	 -67.7469 	 -47.7345 	 -91.0336
|  9> C 	 -66.5455 	 -48.4173 	 -91.25
| 10> C 	 -66.1914 	 -49.073 	 -90.0184
| 11> C 	 -67.0761 	 -48.9091 	 -88.9895
| 12> H 	 -65.3072 	 -49.5877 	 -89.8506
| 13> C 	 -65.629 	 -48.2185 	 -92.4546
| 14> H 	 -66.2039 	 -48.0524 	 -93.364
| 15> H 	 -65.0842 	 -49.1521 	 -92.6854
| 16> C 	 -64.5598 	 -47.099 	 -92.2743
| 17> H 	 -64.9688 	 -46.0562 	 -92.2184
| 18> H 	 -64.2196 	 -47.2373 	 -91.2334
| 19> C 	 -63.3823 	 -47.0797 	 -93.1891
| 20> H 	 -62.853 	 -48.0315 	 -93.0053
| 21> H 	 -63.6009 	 -46.9175 	 -94.2054
| 22> H 	 -62.6744 	 -46.3405 	 -92.8622
| 23> S 	 -67.2479 	 -48.3623 	 -86.3015
| 24> C 	 -67.3241 	 -49.7279 	 -85.2487
| 25> C 	 -66.879 	 -50.9011 	 -85.8094
| 26> C 	 -66.6905 	 -50.7098 	 -87.2118
| 27> C 	 -66.9097 	 -49.4269 	 -87.653
| 28> H 	 -66.789 	 -51.7523 	 -85.2296
| 29> C 	 -66.5133 	 -51.9018 	 -88.0819
| 30> H 	 -65.8848 	 -52.703 	 -87.7412
| 31> H 	 -65.7752 	 -51.495 	 -88.7779
| 32> C 	 -67.7505 	 -52.4865 	 -88.7052
| 33> H 	 -67.4454 	 -53.0029 	 -89.5701
| 34> H 	 -68.4408 	 -51.7389 	 -89.0549
| 35> C 	 -68.619 	 -53.3113 	 -87.673
| 36> H 	 -67.8639 	 -53.9377 	 -87.0944
| 37> H 	 -69.4615 	 -53.9627 	 -88.1589
| 38> H 	 -69.1255 	 -52.5717 	 -87.0377
| 39> H 	 -68.1383 	 -46.9194 	 -91.6095
| 40> H 	 -67.3972 	 -49.6364 	 -84.1741
| 41> *
| 42>
| 43>                          ****END OF INPUT****

CARTESIAN COORDINATES (ANGSTROEM)
---------------------------------
  S    -68.393100  -47.937400  -89.445600
  C    -67.746900  -47.734500  -91.033600
  C    -66.545500  -48.417300  -91.250000
  C    -66.191400  -49.073000  -90.018400
  C    -67.076100  -48.909100  -88.989500
  H    -65.307200  -49.587700  -89.850600
  C    -65.629000  -48.218500  -92.454600
  H    -66.203900  -48.052400  -93.364000
  H    -65.084200  -49.152100  -92.685400
  C    -64.559800  -47.099000  -92.274300
  H    -64.968800  -46.056200  -92.218400
  H    -64.219600  -47.237300  -91.233400
  C    -63.382300  -47.079700  -93.189100
  H    -62.853000  -48.031500  -93.005300
  H    -63.600900  -46.917500  -94.205400
  H    -62.674400  -46.340500  -92.862200
  S    -67.247900  -48.362300  -86.301500
  C    -67.324100  -49.727900  -85.248700
  C    -66.879000  -50.901100  -85.809400
  C    -66.690500  -50.709800  -87.211800
  C    -66.909700  -49.426900  -87.653000
  H    -66.789000  -51.752300  -85.229600
  C    -66.513300  -51.901800  -88.081900
  H    -65.884800  -52.703000  -87.741200
  H    -65.775200  -51.495000  -88.777900
  C    -67.750500  -52.486500  -88.705200
  H    -67.445400  -53.002900  -89.570100
  H    -68.440800  -51.738900  -89.054900
  C    -68.619000  -53.311300  -87.673000
  H    -67.863900  -53.937700  -87.094400
  H    -69.461500  -53.962700  -88.158900
  H    -69.125500  -52.571700  -87.037700
  H    -68.138300  -46.919400  -91.609500
  H    -67.397200  -49.636400  -84.174100

 Total Charge           Charge          ....    0
 Multiplicity           Mult            ....    1
 Number of Electrons    NEL             ....  134
 Basis Dimension        Dim             ....  322

ORBITAL ENERGIES
----------------

  NO   OCC          E(Eh)            E(eV)
   0   2.0000     -88.965886     -2420.8848
   1   2.0000     -88.965672     -2420.8790
   2   2.0000     -10.321737      -280.8687
   3   2.0000     -10.320769      -280.8424
   4   2.0000     -10.313030      -280.6318
   5   2.0000     -10.310642      -280.5668
   6   2.0000     -10.306569      -280.4560
   7   2.0000     -10.298958      -280.2489
   8   2.0000     -10.298189      -280.2280
   9   2.0000     -10.290229      -280.0114
  10   2.0000     -10.288094      -279.9533
  11   2.0000     -10.286958      -279.9224
  12   2.0000     -10.286891      -279.9205
  13   2.0000     -10.281482      -279.7733
  14   2.0000     -10.277241      -279.6579
  15   2.0000     -10.273501      -279.5562
  16   2.0000      -8.082048      -219.9237
  17   2.0000      -8.080976      -219.8945
  18   2.0000      -6.040340      -164.3660
  19   2.0000      -6.039420      -164.3410
  20   2.0000      -6.036313      -164.2564
  21   2.0000      -6.035467      -164.2334
  22   2.0000      -6.032988      -164.1660
  23   2.0000      -6.031718      -164.1314
  24   2.0000      -1.015028       -27.6203
  25   2.0000      -0.990168       -26.9438
  26   2.0000      -0.911960       -24.8157
  27   2.0000      -0.911133       -24.7932
  28   2.0000      -0.873572       -23.7711
  29   2.0000      -0.855148       -23.2698
  30   2.0000      -0.845094       -22.9962
  31   2.0000      -0.816934       -22.2299
  32   2.0000      -0.785740       -21.3811
  33   2.0000      -0.770848       -20.9758
  34   2.0000      -0.706404       -19.2222
  35   2.0000      -0.696921       -18.9642
  36   2.0000      -0.688386       -18.7319
  37   2.0000      -0.669250       -18.2112
  38   2.0000      -0.649546       -17.6750
  39   2.0000      -0.623938       -16.9782
  40   2.0000      -0.601487       -16.3673
  41   2.0000      -0.572992       -15.5919
  42   2.0000      -0.562687       -15.3115
  43   2.0000      -0.548254       -14.9187
  44   2.0000      -0.540922       -14.7192
  45   2.0000      -0.529165       -14.3993
  46   2.0000      -0.519130       -14.1263
  47   2.0000      -0.513598       -13.9757
  48   2.0000      -0.506442       -13.7810
  49   2.0000      -0.496807       -13.5188
  50   2.0000      -0.488106       -13.2820
  51   2.0000      -0.478991       -13.0340
  52   2.0000      -0.466768       -12.7014
  53   2.0000      -0.465292       -12.6613
  54   2.0000      -0.461954       -12.5704
  55   2.0000      -0.454748       -12.3743
  56   2.0000      -0.444417       -12.0932
  57   2.0000      -0.441791       -12.0217
  58   2.0000      -0.431620       -11.7450
  59   2.0000      -0.429618       -11.6905
  60   2.0000      -0.417012       -11.3475
  61   2.0000      -0.410074       -11.1587
  62   2.0000      -0.398948       -10.8559
  63   2.0000      -0.346737        -9.4352
  64   2.0000      -0.334508        -9.1024
  65   2.0000      -0.331111        -9.0100
  66   2.0000      -0.291575        -7.9342
  67   0.0000       0.029557         0.8043
  68   0.0000       0.074529         2.0280
  69   0.0000       0.110740         3.0134
  70   0.0000       0.120586         3.2813
  71   0.0000       0.132771         3.6129

MULLIKEN ATOMIC CHARGES
-----------------------
   0 S :    0.125997
   1 C :   -0.131403
   2 C :   -0.063036
   3 C :    0.027597
   4 C :   -0.142020
   5 H :   -0.012521
   6 C :    0.077603
   7 H :    0.024574
   8 H :    0.019886
   9 C :   -0.105900
  10 H :    0.027207
  11 H :    0.022315
  12 C :   -0.007306
  13 H :    0.024068
  14 H :    0.031512
  15 H :    0.029298
  16 S :    0.109791
  17 C :   -0.088119
  18 C :   -0.004756
  19 C :   -0.040442
  20 C :   -0.164723
  21 H :   -0.007123
  22 C :    0.064934
  23 H :    0.010286
  24 H :   -0.001414
  25 C :   -0.006044
  26 H :    0.020285
  27 H :    0.025448
  28 C :   -0.112123
  29 H :    0.035561
  30 H :    0.056580
  31 H :    0.051682
  32 H :    0.050258
  33 H :    0.052047
Sum of atomic charges:    0.0000000

LOEWDIN ATOMIC CHARGES
----------------------
   0 S :    0.438663
   1 C :   -0.200211
   2 C :   -0.056589
   3 C :   -0.056592
   4 C :   -0.213234
   5 H :    0.016466
   6 C :   -0.032808
   7 H :    0.029255
   8 H :    0.031981
   9 C :   -0.049267
  10 H :    0.025405
  11 H :    0.025827
  12 C :   -0.061777
  13 H :    0.028297
  14 H :    0.018645
  15 H :    0.029884
  16 S :    0.409330
  17 C :   -0.183308
  18 C :   -0.059446
  19 C :   -0.050382
  20 C :   -0.200624
  21 H :    0.021940
  22 C :   -0.043767
  23 H :    0.028655
  24 H :    0.032466
  25 C :   -0.032801
  26 H :    0.019058
  27 H :    0.024789
  28 C :   -0.076806
  29 H :    0.024845
  30 H :    0.038205
  31 H :    0.027620
  32 H :    0.021284
  33 H :    0.025000

  Mayer bond orders larger than 0.100000
B(  0-S ,  1-C ) :   1.1612 B(  0-S ,  4-C ) :   1.1598 B(  1-C ,  2-C ) :   1.5807
B(  1-C , 32-H ) :   0.9697 B(  2-C ,  3-C ) :   1.2512 B(  2-C ,  6-C ) :   1.0452
B(  3-C ,  4-C ) :   1.5643 B(  3-C ,  5-H ) :   1.0027 B(  4-C , 20-C ) :   1.0472
B(  6-C ,  7-H ) :   0.9377 B(  6-C ,  8-H ) :   0.9370 B(  6-C ,  9-C ) :   1.0477
B(  9-C , 10-H ) :   0.9533 B(  9-C , 11-H ) :   0.9564 B(  9-C , 12-C ) :   1.0952
B( 12-C , 13-H ) :   0.9701 B( 12-C , 14-H ) :   0.9753 B( 12-C , 15-H ) :   0.9676
B( 16-S , 17-C ) :   1.1641 B( 16-S , 20-C ) :   1.1308 B( 17-C , 18-C ) :   1.6099
B( 17-C , 33-H ) :   0.9609 B( 18-C , 19-C ) :   1.2346 B( 18-C , 21-H ) :   1.0073
B( 19-C , 20-C ) :   1.6054 B( 19-C , 22-C ) :   1.0412 B( 22-C , 23-H ) :   0.9290
B( 22-C , 24-H ) :   0.9165 B( 22-C , 25-C ) :   1.0717 B( 25-C , 26-H ) :   0.9541
B( 25-C , 27-H ) :   0.9569 B( 25-C , 28-C ) :   1.0552 B( 28-C , 29-H ) :   0.9765
B( 28-C , 30-H ) :   0.9742 B( 28-C , 31-H ) :   0.9754

Dispersion correction           -0.014750813
FINAL SINGLE POINT ENERGY     -1339.868332192992

DIPOLE MOMENT
-------------
                                X             Y             Z
Electronic contribution:    -11.02744      11.14449      15.62537
Nuclear contribution   :     11.44554     -11.33105     -15.83583
                        -----------------------------------------
Total Dipole Moment    :      0.41810      -0.18656      -0.21046
                        -----------------------------------------
Magnitude (a.u.)       :      0.50389
Magnitude (Debye)      :      1.28078

Rotational constants in cm-1:     0.021544     0.007702     0.006960
Rotational constants in MHz :   645.865684   230.896159   208.666883

                             ****ORCA TERMINATED NORMALLY****
TOTAL RUN TIME: 0 days 0 hours 0 minutes 21 seconds 872 msec
