                         Program Version 4.2.1 -  RELEASE  -
|  1> ! wB97X-D3 SP def2-SVP
|  2> %pal
|  3> nprocs 24
|  4> end
|  5>
|  6> * xyz 0 1
|  7> S 	 -98.3871 	 10.3442 	 1.17204
|  8> C 	 -98.9916 	 10.5175 	 -0.498131
|  9> C 	 -98.2061 	 9.86348 	 -1.38645
| 10> C 	 -97.1857 	 9.05222 	 -0.790147
| 11> C 	 -97.123 	 9.19256 	 0.609868
| 12> H 	 -96.5422 	 8.31863 	 -1.32188
| 13> C 	 -98.4075 	 9.82522 	 -2.85554
| 14> H 	 -98.76 	 10.795 	 -3.18167
| 15> H 	 -99.1965 	 9.13039 	 -3.18438
| 16> C 	 -97.2857 	 9.60464 	 -3.83345
| 17> H 	 -96.394 	 10.1851 	 -3.74986
| 18> H 	 -96.954 	 8.60312 	 -3.70708
| 19> C 	 -97.7433 	 9.70023 	 -5.32037
| 20> H 	 -96.9962 	 9.70693 	 -6.03493
| 21> H 	 -98.3353 	 8.82232 	 -5.65262
| 22> H 	 -98.3036 	 10.5981 	 -5.47864
| 23> S 	 -97.5812 	 7.34176 	 2.49386
| 24> C 	 -96.2231 	 6.73139 	 3.46926
| 25> C 	 -94.9911 	 7.18144 	 3.02878
| 26> C 	 -95.1409 	 8.1115 	 1.94938
| 27> C 	 -96.4111 	 8.28525 	 1.54811
| 28> H 	 -94.0788 	 7.05864 	 3.55438
| 29> C 	 -93.9718 	 8.85896 	 1.33591
| 30> H 	 -94.3606 	 9.48891 	 0.575152
| 31> H 	 -93.3047 	 8.25008 	 0.717839
| 32> C 	 -93.0655 	 9.61278 	 2.28671
| 33> H 	 -92.2291 	 9.99417 	 1.69113
| 34> H 	 -92.7161 	 8.97271 	 3.10214
| 35> C 	 -93.7558 	 10.7968 	 3.00388
| 36> H 	 -93.102 	 11.4181 	 3.58222
| 37> H 	 -94.54 	 10.4548 	 3.6462
| 38> H 	 -94.3445 	 11.5213 	 2.4185
| 39> H 	 -99.7832 	 11.226 	 -0.765893
| 40> H 	 -96.4548 	 6.13275 	 4.31013
| 41> *
| 42>
| 43>                          ****END OF INPUT****

CARTESIAN COORDINATES (ANGSTROEM)
---------------------------------
  S    -98.387100   10.344200    1.172040
  C    -98.991600   10.517500   -0.498131
  C    -98.206100    9.863480   -1.386450
  C    -97.185700    9.052220   -0.790147
  C    -97.123000    9.192560    0.609868
  H    -96.542200    8.318630   -1.321880
  C    -98.407500    9.825220   -2.855540
  H    -98.760000   10.795000   -3.181670
  H    -99.196500    9.130390   -3.184380
  C    -97.285700    9.604640   -3.833450
  H    -96.394000   10.185100   -3.749860
  H    -96.954000    8.603120   -3.707080
  C    -97.743300    9.700230   -5.320370
  H    -96.996200    9.706930   -6.034930
  H    -98.335300    8.822320   -5.652620
  H    -98.303600   10.598100   -5.478640
  S    -97.581200    7.341760    2.493860
  C    -96.223100    6.731390    3.469260
  C    -94.991100    7.181440    3.028780
  C    -95.140900    8.111500    1.949380
  C    -96.411100    8.285250    1.548110
  H    -94.078800    7.058640    3.554380
  C    -93.971800    8.858960    1.335910
  H    -94.360600    9.488910    0.575152
  H    -93.304700    8.250080    0.717839
  C    -93.065500    9.612780    2.286710
  H    -92.229100    9.994170    1.691130
  H    -92.716100    8.972710    3.102140
  C    -93.755800   10.796800    3.003880
  H    -93.102000   11.418100    3.582220
  H    -94.540000   10.454800    3.646200
  H    -94.344500   11.521300    2.418500
  H    -99.783200   11.226000   -0.765893
  H    -96.454800    6.132750    4.310130

 Total Charge           Charge          ....    0
 Multiplicity           Mult            ....    1
 Number of Electrons    NEL             ....  134
 Basis Dimension        Dim             ....  322

ORBITAL ENERGIES
----------------

  NO   OCC          E(Eh)            E(eV)
   0   2.0000     -88.967783     -2420.9365
   1   2.0000     -88.961255     -2420.7588
   2   2.0000     -10.337075      -281.2861
   3   2.0000     -10.324242      -280.9369
   4   2.0000     -10.319732      -280.8142
   5   2.0000     -10.316895      -280.7370
   6   2.0000     -10.301108      -280.3074
   7   2.0000     -10.300369      -280.2873
   8   2.0000     -10.299988      -280.2769
   9   2.0000     -10.294903      -280.1385
  10   2.0000     -10.288212      -279.9565
  11   2.0000     -10.288140      -279.9545
  12   2.0000     -10.285178      -279.8739
  13   2.0000     -10.282297      -279.7955
  14   2.0000     -10.274826      -279.5922
  15   2.0000     -10.267324      -279.3881
  16   2.0000      -8.081124      -219.8986
  17   2.0000      -8.075721      -219.7515
  18   2.0000      -6.039742      -164.3497
  19   2.0000      -6.035905      -164.2453
  20   2.0000      -6.034181      -164.1984
  21   2.0000      -6.031751      -164.1323
  22   2.0000      -6.030409      -164.0958
  23   2.0000      -6.026375      -163.9860
  24   2.0000      -1.001663       -27.2566
  25   2.0000      -0.980161       -26.6716
  26   2.0000      -0.915956       -24.9244
  27   2.0000      -0.908219       -24.7139
  28   2.0000      -0.869169       -23.6513
  29   2.0000      -0.847232       -23.0544
  30   2.0000      -0.843274       -22.9467
  31   2.0000      -0.814121       -22.1534
  32   2.0000      -0.785375       -21.3711
  33   2.0000      -0.777551       -21.1582
  34   2.0000      -0.712968       -19.4009
  35   2.0000      -0.701227       -19.0814
  36   2.0000      -0.693566       -18.8729
  37   2.0000      -0.665825       -18.1180
  38   2.0000      -0.639832       -17.4107
  39   2.0000      -0.619844       -16.8668
  40   2.0000      -0.607246       -16.5240
  41   2.0000      -0.576117       -15.6769
  42   2.0000      -0.564908       -15.3719
  43   2.0000      -0.547535       -14.8992
  44   2.0000      -0.539380       -14.6773
  45   2.0000      -0.522364       -14.2142
  46   2.0000      -0.516615       -14.0578
  47   2.0000      -0.510649       -13.8955
  48   2.0000      -0.503871       -13.7110
  49   2.0000      -0.497314       -13.5326
  50   2.0000      -0.485163       -13.2020
  51   2.0000      -0.480591       -13.0775
  52   2.0000      -0.469637       -12.7795
  53   2.0000      -0.463148       -12.6029
  54   2.0000      -0.458266       -12.4700
  55   2.0000      -0.452414       -12.3108
  56   2.0000      -0.444159       -12.0862
  57   2.0000      -0.433355       -11.7922
  58   2.0000      -0.429751       -11.6941
  59   2.0000      -0.425681       -11.5834
  60   2.0000      -0.420609       -11.4454
  61   2.0000      -0.417805       -11.3691
  62   2.0000      -0.412471       -11.2239
  63   2.0000      -0.341768        -9.3000
  64   2.0000      -0.332749        -9.0546
  65   2.0000      -0.325152        -8.8478
  66   2.0000      -0.302446        -8.2300
  67   0.0000       0.032708         0.8900
  68   0.0000       0.060372         1.6428
  69   0.0000       0.109855         2.9893
  70   0.0000       0.117887         3.2079
  71   0.0000       0.126945         3.4543

MULLIKEN ATOMIC CHARGES
-----------------------
   0 S :    0.101415
   1 C :   -0.140612
   2 C :   -0.027709
   3 C :    0.026571
   4 C :   -0.153209
   5 H :    0.036412
   6 C :    0.047742
   7 H :    0.008054
   8 H :    0.044513
   9 C :   -0.066936
  10 H :    0.026263
  11 H :    0.014596
  12 C :   -0.036298
  13 H :    0.011423
  14 H :    0.030444
  15 H :    0.022414
  16 S :    0.088853
  17 C :   -0.088284
  18 C :    0.007102
  19 C :   -0.035072
  20 C :   -0.177339
  21 H :    0.011928
  22 C :    0.099273
  23 H :    0.004930
  24 H :    0.026546
  25 C :   -0.075470
  26 H :    0.034500
  27 H :    0.033868
  28 C :   -0.053617
  29 H :    0.026213
  30 H :    0.024609
  31 H :    0.021046
  32 H :    0.056167
  33 H :    0.049663
Sum of atomic charges:    0.0000000

LOEWDIN ATOMIC CHARGES
----------------------
   0 S :    0.372110
   1 C :   -0.181086
   2 C :   -0.069410
   3 C :   -0.057462
   4 C :   -0.183390
   5 H :    0.039875
   6 C :   -0.038638
   7 H :    0.027576
   8 H :    0.040607
   9 C :   -0.037524
  10 H :    0.021173
  11 H :    0.015858
  12 C :   -0.057412
  13 H :    0.016883
  14 H :    0.029734
  15 H :    0.020566
  16 S :    0.379273
  17 C :   -0.153982
  18 C :   -0.064614
  19 C :   -0.056064
  20 C :   -0.187174
  21 H :    0.027604
  22 C :   -0.030821
  23 H :    0.026011
  24 H :    0.034118
  25 C :   -0.036253
  26 H :    0.028272
  27 H :    0.024888
  28 C :   -0.073240
  29 H :    0.021254
  30 H :    0.023186
  31 H :    0.026589
  32 H :    0.033627
  33 H :    0.017867

  Mayer bond orders larger than 0.100000
B(  0-S ,  1-C ) :   1.1180 B(  0-S ,  4-C ) :   1.1454 B(  1-C ,  2-C ) :   1.6394
B(  1-C , 32-H ) :   0.9667 B(  2-C ,  3-C ) :   1.2231 B(  2-C ,  6-C ) :   1.0210
B(  3-C ,  4-C ) :   1.5847 B(  3-C ,  5-H ) :   0.9831 B(  4-C , 20-C ) :   0.9978
B(  6-C ,  7-H ) :   0.9411 B(  6-C ,  8-H ) :   0.9354 B(  6-C ,  9-C ) :   1.0668
B(  9-C , 10-H ) :   0.9606 B(  9-C , 11-H ) :   0.9429 B(  9-C , 12-C ) :   1.0876
B( 12-C , 13-H ) :   0.9719 B( 12-C , 14-H ) :   0.9744 B( 12-C , 15-H ) :   0.9765
B( 16-S , 17-C ) :   1.1515 B( 16-S , 20-C ) :   1.1222 B( 17-C , 18-C ) :   1.6180
B( 17-C , 33-H ) :   0.9748 B( 18-C , 19-C ) :   1.2039 B( 18-C , 21-H ) :   0.9948
B( 19-C , 20-C ) :   1.6781 B( 19-C , 22-C ) :   1.0362 B( 22-C , 23-H ) :   0.9270
B( 22-C , 24-H ) :   0.9329 B( 22-C , 25-C ) :   1.0780 B( 25-C , 26-H ) :   0.9542
B( 25-C , 27-H ) :   0.9569 B( 25-C , 28-C ) :   1.0668 B( 28-C , 29-H ) :   0.9771
B( 28-C , 30-H ) :   0.9736 B( 28-C , 31-H ) :   0.9746

Dispersion correction           -0.014061789
FINAL SINGLE POINT ENERGY     -1339.871358384474

DIPOLE MOMENT
-------------
                                X             Y             Z
Electronic contribution:    -13.36569      -7.13844      17.88005
Nuclear contribution   :     13.69560       7.16174     -18.31227
                        -----------------------------------------
Total Dipole Moment    :      0.32991       0.02330      -0.43222
                        -----------------------------------------
Magnitude (a.u.)       :      0.54424
Magnitude (Debye)      :      1.38334

Rotational constants in cm-1:     0.020013     0.007593     0.006835
Rotational constants in MHz :   599.987872   227.635902   204.909527

                             ****ORCA TERMINATED NORMALLY****
TOTAL RUN TIME: 0 days 0 hours 0 minutes 21 seconds 245 msec
