                         Program Version 4.2.1 -  RELEASE  -
|  1> ! wB97X-D3 SP def2-SVP
|  2> %pal
|  3> nprocs 24
|  4> end
|  5>
|  6> * xyz 0 1
|  7> S 	 -19.4436 	 -34.6776 	 -92.2156
|  8> C 	 -18.3333 	 -35.128 	 -93.4662
|  9> C 	 -18.5503 	 -34.4129 	 -94.6499
| 10> C 	 -19.4959 	 -33.2928 	 -94.4434
| 11> C 	 -20.0773 	 -33.3721 	 -93.1944
| 12> H 	 -19.8086 	 -32.4678 	 -95.074
| 13> C 	 -17.8688 	 -34.5887 	 -95.9455
| 14> H 	 -18.614 	 -34.6095 	 -96.69
| 15> H 	 -17.4467 	 -35.6011 	 -96.0219
| 16> C 	 -16.8147 	 -33.4697 	 -96.244
| 17> H 	 -17.3254 	 -32.5878 	 -96.4457
| 18> H 	 -16.2122 	 -33.314 	 -95.349
| 19> C 	 -15.982 	 -33.8294 	 -97.4758
| 20> H 	 -16.5841 	 -34.2903 	 -98.19
| 21> H 	 -15.4385 	 -32.9595 	 -97.8002
| 22> H 	 -15.2457 	 -34.6178 	 -97.2335
| 23> S 	 -22.7245 	 -33.531 	 -93.0576
| 24> C 	 -23.7236 	 -32.1979 	 -92.7234
| 25> C 	 -22.9351 	 -31.0816 	 -92.581
| 26> C 	 -21.5674 	 -31.2995 	 -92.8607
| 27> C 	 -21.2976 	 -32.6351 	 -92.7777
| 28> H 	 -23.4525 	 -30.1096 	 -92.469
| 29> C 	 -20.568 	 -30.1916 	 -92.9009
| 30> H 	 -19.5814 	 -30.5826 	 -92.6483
| 31> H 	 -20.8068 	 -29.5511 	 -92.023
| 32> C 	 -20.4818 	 -29.2517 	 -94.1152
| 33> H 	 -19.9169 	 -28.4092 	 -93.7594
| 34> H 	 -21.4951 	 -28.8142 	 -94.1948
| 35> C 	 -20.0287 	 -29.7883 	 -95.4775
| 36> H 	 -19.0052 	 -30.1782 	 -95.4564
| 37> H 	 -20.0303 	 -28.9788 	 -96.2257
| 38> H 	 -20.7127 	 -30.5118 	 -95.8476
| 39> H 	 -17.6652 	 -35.8705 	 -93.2961
| 40> H 	 -24.6791 	 -32.3108 	 -92.2911
| 41> *
| 42>
| 43>                          ****END OF INPUT****

CARTESIAN COORDINATES (ANGSTROEM)
---------------------------------
  S    -19.443600  -34.677600  -92.215600
  C    -18.333300  -35.128000  -93.466200
  C    -18.550300  -34.412900  -94.649900
  C    -19.495900  -33.292800  -94.443400
  C    -20.077300  -33.372100  -93.194400
  H    -19.808600  -32.467800  -95.074000
  C    -17.868800  -34.588700  -95.945500
  H    -18.614000  -34.609500  -96.690000
  H    -17.446700  -35.601100  -96.021900
  C    -16.814700  -33.469700  -96.244000
  H    -17.325400  -32.587800  -96.445700
  H    -16.212200  -33.314000  -95.349000
  C    -15.982000  -33.829400  -97.475800
  H    -16.584100  -34.290300  -98.190000
  H    -15.438500  -32.959500  -97.800200
  H    -15.245700  -34.617800  -97.233500
  S    -22.724500  -33.531000  -93.057600
  C    -23.723600  -32.197900  -92.723400
  C    -22.935100  -31.081600  -92.581000
  C    -21.567400  -31.299500  -92.860700
  C    -21.297600  -32.635100  -92.777700
  H    -23.452500  -30.109600  -92.469000
  C    -20.568000  -30.191600  -92.900900
  H    -19.581400  -30.582600  -92.648300
  H    -20.806800  -29.551100  -92.023000
  C    -20.481800  -29.251700  -94.115200
  H    -19.916900  -28.409200  -93.759400
  H    -21.495100  -28.814200  -94.194800
  C    -20.028700  -29.788300  -95.477500
  H    -19.005200  -30.178200  -95.456400
  H    -20.030300  -28.978800  -96.225700
  H    -20.712700  -30.511800  -95.847600
  H    -17.665200  -35.870500  -93.296100
  H    -24.679100  -32.310800  -92.291100

 Total Charge           Charge          ....    0
 Multiplicity           Mult            ....    1
 Number of Electrons    NEL             ....  134
 Basis Dimension        Dim             ....  322

ORBITAL ENERGIES
----------------

  NO   OCC          E(Eh)            E(eV)
   0   2.0000     -88.962178     -2420.7839
   1   2.0000     -88.956283     -2420.6235
   2   2.0000     -10.324551      -280.9453
   3   2.0000     -10.317190      -280.7450
   4   2.0000     -10.307575      -280.4834
   5   2.0000     -10.305471      -280.4261
   6   2.0000     -10.303904      -280.3835
   7   2.0000     -10.296972      -280.1949
   8   2.0000     -10.295549      -280.1561
   9   2.0000     -10.290409      -280.0163
  10   2.0000     -10.290281      -280.0128
  11   2.0000     -10.289869      -280.0016
  12   2.0000     -10.285663      -279.8871
  13   2.0000     -10.282631      -279.8046
  14   2.0000     -10.281996      -279.7873
  15   2.0000     -10.272990      -279.5423
  16   2.0000      -8.077431      -219.7981
  17   2.0000      -8.073262      -219.6846
  18   2.0000      -6.035828      -164.2432
  19   2.0000      -6.031874      -164.1356
  20   2.0000      -6.031686      -164.1305
  21   2.0000      -6.028286      -164.0380
  22   2.0000      -6.027453      -164.0153
  23   2.0000      -6.023944      -163.9198
  24   2.0000      -1.016134       -27.6504
  25   2.0000      -0.985388       -26.8138
  26   2.0000      -0.913010       -24.8443
  27   2.0000      -0.910643       -24.7799
  28   2.0000      -0.869797       -23.6684
  29   2.0000      -0.854169       -23.2431
  30   2.0000      -0.849133       -23.1061
  31   2.0000      -0.814610       -22.1667
  32   2.0000      -0.787328       -21.4243
  33   2.0000      -0.772965       -21.0334
  34   2.0000      -0.711155       -19.3515
  35   2.0000      -0.704718       -19.1764
  36   2.0000      -0.692244       -18.8369
  37   2.0000      -0.657749       -17.8983
  38   2.0000      -0.652149       -17.7459
  39   2.0000      -0.613812       -16.7027
  40   2.0000      -0.596517       -16.2321
  41   2.0000      -0.572412       -15.5761
  42   2.0000      -0.559020       -15.2117
  43   2.0000      -0.553796       -15.0695
  44   2.0000      -0.542522       -14.7628
  45   2.0000      -0.535296       -14.5661
  46   2.0000      -0.522351       -14.2139
  47   2.0000      -0.516857       -14.0644
  48   2.0000      -0.506751       -13.7894
  49   2.0000      -0.497856       -13.5474
  50   2.0000      -0.490265       -13.3408
  51   2.0000      -0.478116       -13.0102
  52   2.0000      -0.475500       -12.9390
  53   2.0000      -0.462943       -12.5973
  54   2.0000      -0.460009       -12.5175
  55   2.0000      -0.444827       -12.1044
  56   2.0000      -0.443989       -12.0816
  57   2.0000      -0.440818       -11.9953
  58   2.0000      -0.435261       -11.8441
  59   2.0000      -0.426698       -11.6110
  60   2.0000      -0.421864       -11.4795
  61   2.0000      -0.419014       -11.4019
  62   2.0000      -0.415580       -11.3085
  63   2.0000      -0.340509        -9.2657
  64   2.0000      -0.322324        -8.7709
  65   2.0000      -0.320281        -8.7153
  66   2.0000      -0.303531        -8.2595
  67   0.0000       0.037563         1.0221
  68   0.0000       0.067585         1.8391
  69   0.0000       0.107121         2.9149
  70   0.0000       0.120642         3.2828
  71   0.0000       0.127922         3.4809

MULLIKEN ATOMIC CHARGES
-----------------------
   0 S :    0.106229
   1 C :   -0.074133
   2 C :   -0.095420
   3 C :    0.054230
   4 C :   -0.177655
   5 H :   -0.015616
   6 C :    0.075424
   7 H :    0.014806
   8 H :    0.013446
   9 C :   -0.062729
  10 H :    0.015830
  11 H :    0.035076
  12 C :   -0.012836
  13 H :    0.015312
  14 H :    0.036220
  15 H :    0.026381
  16 S :    0.105421
  17 C :   -0.073206
  18 C :   -0.057120
  19 C :   -0.046129
  20 C :   -0.127821
  21 H :    0.029991
  22 C :    0.026912
  23 H :    0.023488
  24 H :    0.030723
  25 C :   -0.061435
  26 H :    0.024159
  27 H :    0.017810
  28 C :   -0.036492
  29 H :    0.041405
  30 H :    0.033656
  31 H :    0.050191
  32 H :    0.008783
  33 H :    0.055099
Sum of atomic charges:   -0.0000000

LOEWDIN ATOMIC CHARGES
----------------------
   0 S :    0.408110
   1 C :   -0.185899
   2 C :   -0.051058
   3 C :   -0.056917
   4 C :   -0.201781
   5 H :    0.031784
   6 C :   -0.034959
   7 H :    0.025954
   8 H :    0.029306
   9 C :   -0.026292
  10 H :    0.013141
  11 H :    0.026095
  12 C :   -0.057650
  13 H :    0.016502
  14 H :    0.025959
  15 H :    0.028395
  16 S :    0.443372
  17 C :   -0.204007
  18 C :   -0.072162
  19 C :   -0.067053
  20 C :   -0.210897
  21 H :    0.034511
  22 C :   -0.037829
  23 H :    0.028411
  24 H :    0.040797
  25 C :   -0.040482
  26 H :    0.024714
  27 H :    0.025357
  28 C :   -0.066013
  29 H :    0.027106
  30 H :    0.033071
  31 H :    0.022408
  32 H :    0.004459
  33 H :    0.023547

  Mayer bond orders larger than 0.100000
B(  0-S ,  1-C ) :   1.1381 B(  0-S ,  4-C ) :   1.1501 B(  1-C ,  2-C ) :   1.6069
B(  1-C , 32-H ) :   0.9886 B(  2-C ,  3-C ) :   1.1907 B(  2-C ,  6-C ) :   1.0540
B(  3-C ,  4-C ) :   1.6127 B(  3-C ,  5-H ) :   0.9843 B(  4-C , 20-C ) :   0.9758
B(  6-C ,  7-H ) :   0.9218 B(  6-C ,  8-H ) :   0.9439 B(  6-C ,  9-C ) :   1.0527
B(  9-C , 10-H ) :   0.9537 B(  9-C , 11-H ) :   0.9613 B(  9-C , 12-C ) :   1.0872
B( 12-C , 13-H ) :   0.9712 B( 12-C , 14-H ) :   0.9740 B( 12-C , 15-H ) :   0.9750
B( 16-S , 17-C ) :   1.1758 B( 16-S , 20-C ) :   1.1805 B( 17-C , 18-C ) :   1.6030
B( 17-C , 33-H ) :   0.9633 B( 18-C , 19-C ) :   1.2445 B( 18-C , 21-H ) :   0.9823
B( 19-C , 20-C ) :   1.5698 B( 19-C , 22-C ) :   1.0490 B( 22-C , 23-H ) :   0.9406
B( 22-C , 24-H ) :   0.9348 B( 22-C , 25-C ) :   1.0751 B( 25-C , 26-H ) :   0.9522
B( 25-C , 27-H ) :   0.9516 B( 25-C , 28-C ) :   1.0816 B( 28-C , 29-H ) :   0.9702
B( 28-C , 30-H ) :   0.9647 B( 28-C , 31-H ) :   0.9615

Dispersion correction           -0.015010765
FINAL SINGLE POINT ENERGY     -1339.864095723480

DIPOLE MOMENT
-------------
                                X             Y             Z
Electronic contribution:    -16.55705     -14.19322      19.74456
Nuclear contribution   :     16.80653      14.67302     -20.20094
                        -----------------------------------------
Total Dipole Moment    :      0.24949       0.47979      -0.45638
                        -----------------------------------------
Magnitude (a.u.)       :      0.70762
Magnitude (Debye)      :      1.79863

Rotational constants in cm-1:     0.018840     0.009316     0.007076
Rotational constants in MHz :   564.805436   279.274548   212.122311

                             ****ORCA TERMINATED NORMALLY****
TOTAL RUN TIME: 0 days 0 hours 0 minutes 22 seconds 374 msec
