                         Program Version 4.2.1 -  RELEASE  -
|  1> ! wB97X-D3 SP def2-SVP
|  2> %pal
|  3> nprocs 24
|  4> end
|  5>
|  6> * xyz 0 1
|  7> S 	 -100.68 	 26.1893 	 -119.257
|  8> C 	 -102.335 	 26.2193 	 -118.516
|  9> C 	 -102.849 	 27.5027 	 -118.748
| 10> C 	 -102.149 	 28.3183 	 -119.727
| 11> C 	 -100.954 	 27.7411 	 -120.143
| 12> H 	 -102.413 	 29.3125 	 -120.073
| 13> C 	 -103.992 	 28.149 	 -117.982
| 14> H 	 -103.962 	 29.2221 	 -118.09
| 15> H 	 -104.006 	 28.0452 	 -116.947
| 16> C 	 -105.417 	 27.8158 	 -118.457
| 17> H 	 -105.368 	 27.8844 	 -119.555
| 18> H 	 -105.726 	 26.7662 	 -118.366
| 19> C 	 -106.532 	 28.6399 	 -117.864
| 20> H 	 -106.562 	 29.6593 	 -118.321
| 21> H 	 -107.544 	 28.1927 	 -117.863
| 22> H 	 -106.347 	 28.9579 	 -116.877
| 23> S 	 -98.3841 	 28.6129 	 -120.266
| 24> C 	 -97.7861 	 29.1818 	 -121.749
| 25> C 	 -98.7627 	 29.3919 	 -122.73
| 26> C 	 -100.053 	 28.942 	 -122.294
| 27> C 	 -99.9365 	 28.4031 	 -120.983
| 28> H 	 -98.5124 	 29.8273 	 -123.702
| 29> C 	 -101.232 	 29.0529 	 -123.221
| 30> H 	 -100.939 	 29.6793 	 -124.01
| 31> H 	 -102.035 	 29.6214 	 -122.649
| 32> C 	 -101.606 	 27.6679 	 -123.79
| 33> H 	 -101.842 	 27.0894 	 -122.899
| 34> H 	 -100.62 	 27.3009 	 -124.23
| 35> C 	 -102.721 	 27.7112 	 -124.694
| 36> H 	 -102.292 	 27.8744 	 -125.687
| 37> H 	 -103.435 	 28.4804 	 -124.39
| 38> H 	 -103.015 	 26.7417 	 -124.694
| 39> H 	 -102.771 	 25.5207 	 -117.854
| 40> H 	 -96.7643 	 29.4748 	 -121.832
| 41> *
| 42>
| 43>                          ****END OF INPUT****

CARTESIAN COORDINATES (ANGSTROEM)
---------------------------------
  S    -100.680000   26.189300  -119.257000
  C    -102.335000   26.219300  -118.516000
  C    -102.849000   27.502700  -118.748000
  C    -102.149000   28.318300  -119.727000
  C    -100.954000   27.741100  -120.143000
  H    -102.413000   29.312500  -120.073000
  C    -103.992000   28.149000  -117.982000
  H    -103.962000   29.222100  -118.090000
  H    -104.006000   28.045200  -116.947000
  C    -105.417000   27.815800  -118.457000
  H    -105.368000   27.884400  -119.555000
  H    -105.726000   26.766200  -118.366000
  C    -106.532000   28.639900  -117.864000
  H    -106.562000   29.659300  -118.321000
  H    -107.544000   28.192700  -117.863000
  H    -106.347000   28.957900  -116.877000
  S    -98.384100   28.612900  -120.266000
  C    -97.786100   29.181800  -121.749000
  C    -98.762700   29.391900  -122.730000
  C    -100.053000   28.942000  -122.294000
  C    -99.936500   28.403100  -120.983000
  H    -98.512400   29.827300  -123.702000
  C    -101.232000   29.052900  -123.221000
  H    -100.939000   29.679300  -124.010000
  H    -102.035000   29.621400  -122.649000
  C    -101.606000   27.667900  -123.790000
  H    -101.842000   27.089400  -122.899000
  H    -100.620000   27.300900  -124.230000
  C    -102.721000   27.711200  -124.694000
  H    -102.292000   27.874400  -125.687000
  H    -103.435000   28.480400  -124.390000
  H    -103.015000   26.741700  -124.694000
  H    -102.771000   25.520700  -117.854000
  H    -96.764300   29.474800  -121.832000

 Total Charge           Charge          ....    0
 Multiplicity           Mult            ....    1
 Number of Electrons    NEL             ....  134
 Basis Dimension        Dim             ....  322

ORBITAL ENERGIES
----------------

  NO   OCC          E(Eh)            E(eV)
   0   2.0000     -88.969357     -2420.9793
   1   2.0000     -88.966848     -2420.9110
   2   2.0000     -10.336170      -281.2615
   3   2.0000     -10.326460      -280.9973
   4   2.0000     -10.320943      -280.8471
   5   2.0000     -10.311764      -280.5974
   6   2.0000     -10.309098      -280.5248
   7   2.0000     -10.305590      -280.4294
   8   2.0000     -10.298203      -280.2283
   9   2.0000     -10.295945      -280.1669
  10   2.0000     -10.289069      -279.9798
  11   2.0000     -10.285769      -279.8900
  12   2.0000     -10.283527      -279.8290
  13   2.0000     -10.279363      -279.7157
  14   2.0000     -10.277162      -279.6558
  15   2.0000     -10.262622      -279.2601
  16   2.0000      -8.085440      -220.0160
  17   2.0000      -8.079486      -219.8540
  18   2.0000      -6.043617      -164.4552
  19   2.0000      -6.039798      -164.3513
  20   2.0000      -6.038283      -164.3100
  21   2.0000      -6.036448      -164.2601
  22   2.0000      -6.034402      -164.2044
  23   2.0000      -6.029925      -164.0826
  24   2.0000      -1.004972       -27.3467
  25   2.0000      -0.975179       -26.5360
  26   2.0000      -0.922798       -25.1106
  27   2.0000      -0.909823       -24.7575
  28   2.0000      -0.865945       -23.5636
  29   2.0000      -0.864503       -23.5243
  30   2.0000      -0.841963       -22.9110
  31   2.0000      -0.812067       -22.0975
  32   2.0000      -0.785273       -21.3684
  33   2.0000      -0.771654       -20.9978
  34   2.0000      -0.704175       -19.1616
  35   2.0000      -0.699840       -19.0436
  36   2.0000      -0.684672       -18.6309
  37   2.0000      -0.664015       -18.0688
  38   2.0000      -0.642930       -17.4950
  39   2.0000      -0.617338       -16.7986
  40   2.0000      -0.598664       -16.2905
  41   2.0000      -0.574475       -15.6323
  42   2.0000      -0.564583       -15.3631
  43   2.0000      -0.556735       -15.1495
  44   2.0000      -0.542385       -14.7591
  45   2.0000      -0.521054       -14.1786
  46   2.0000      -0.518385       -14.1060
  47   2.0000      -0.512738       -13.9523
  48   2.0000      -0.507345       -13.8055
  49   2.0000      -0.497115       -13.5272
  50   2.0000      -0.494440       -13.4544
  51   2.0000      -0.485260       -13.2046
  52   2.0000      -0.474642       -12.9157
  53   2.0000      -0.463821       -12.6212
  54   2.0000      -0.456933       -12.4338
  55   2.0000      -0.452406       -12.3106
  56   2.0000      -0.444990       -12.1088
  57   2.0000      -0.436973       -11.8906
  58   2.0000      -0.429280       -11.6813
  59   2.0000      -0.425643       -11.5823
  60   2.0000      -0.419942       -11.4272
  61   2.0000      -0.407279       -11.0826
  62   2.0000      -0.402097       -10.9416
  63   2.0000      -0.342825        -9.3288
  64   2.0000      -0.333057        -9.0629
  65   2.0000      -0.324865        -8.8400
  66   2.0000      -0.288787        -7.8583
  67   0.0000       0.027216         0.7406
  68   0.0000       0.060752         1.6532
  69   0.0000       0.104943         2.8556
  70   0.0000       0.117465         3.1964
  71   0.0000       0.132601         3.6083

MULLIKEN ATOMIC CHARGES
-----------------------
   0 S :    0.085929
   1 C :   -0.090764
   2 C :   -0.078614
   3 C :    0.034476
   4 C :   -0.137007
   5 H :    0.020969
   6 C :    0.079760
   7 H :    0.009184
   8 H :    0.013005
   9 C :   -0.084753
  10 H :    0.020699
  11 H :    0.021455
  12 C :   -0.039137
  13 H :    0.024356
  14 H :    0.046453
  15 H :    0.007810
  16 S :    0.139644
  17 C :   -0.088907
  18 C :   -0.044743
  19 C :   -0.050127
  20 C :   -0.196702
  21 H :    0.024587
  22 C :    0.087282
  23 H :   -0.004889
  24 H :    0.035275
  25 C :   -0.151643
  26 H :    0.039858
  27 H :    0.040072
  28 C :    0.079956
  29 H :    0.021079
  30 H :    0.037411
  31 H :    0.009904
  32 H :    0.041981
  33 H :    0.046141
Sum of atomic charges:   -0.0000000

LOEWDIN ATOMIC CHARGES
----------------------
   0 S :    0.356153
   1 C :   -0.174656
   2 C :   -0.052651
   3 C :   -0.063038
   4 C :   -0.175631
   5 H :    0.033002
   6 C :   -0.029105
   7 H :    0.029947
   8 H :    0.019794
   9 C :   -0.048820
  10 H :    0.023137
  11 H :    0.021133
  12 C :   -0.073606
  13 H :    0.029714
  14 H :    0.033793
  15 H :    0.017254
  16 S :    0.451533
  17 C :   -0.200314
  18 C :   -0.072872
  19 C :   -0.047664
  20 C :   -0.218008
  21 H :    0.033804
  22 C :   -0.033559
  23 H :    0.018357
  24 H :    0.034485
  25 C :   -0.040429
  26 H :    0.024291
  27 H :    0.034130
  28 C :   -0.057075
  29 H :    0.030765
  30 H :    0.032048
  31 H :    0.019012
  32 H :    0.025385
  33 H :    0.019691

  Mayer bond orders larger than 0.100000
B(  0-S ,  1-C ) :   1.1062 B(  0-S ,  4-C ) :   1.1295 B(  1-C ,  2-C ) :   1.6239
B(  1-C , 32-H ) :   0.9786 B(  2-C ,  3-C ) :   1.2156 B(  2-C ,  6-C ) :   1.0250
B(  3-C ,  4-C ) :   1.5883 B(  3-C ,  5-H ) :   0.9883 B(  4-C , 20-C ) :   1.0425
B(  6-C ,  7-H ) :   0.9450 B(  6-C ,  8-H ) :   0.9429 B(  6-C ,  9-C ) :   1.0513
B(  9-C , 10-H ) :   0.9564 B(  9-C , 11-H ) :   0.9596 B(  9-C , 12-C ) :   1.0761
B( 12-C , 13-H ) :   0.9689 B( 12-C , 14-H ) :   0.9752 B( 12-C , 15-H ) :   0.9713
B( 16-S , 17-C ) :   1.1837 B( 16-S , 20-C ) :   1.1774 B( 17-C , 18-C ) :   1.5698
B( 17-C , 33-H ) :   0.9706 B( 18-C , 19-C ) :   1.2770 B( 18-C , 21-H ) :   0.9876
B( 19-C , 20-C ) :   1.5451 B( 19-C , 22-C ) :   1.0470 B( 22-C , 23-H ) :   0.9236
B( 22-C , 24-H ) :   0.9234 B( 22-C , 25-C ) :   1.0616 B( 25-C , 26-H ) :   0.9598
B( 25-C , 27-H ) :   0.9500 B( 25-C , 28-C ) :   1.0820 B( 28-C , 29-H ) :   0.9657
B( 28-C , 30-H ) :   0.9660 B( 28-C , 31-H ) :   0.9628

Dispersion correction           -0.013896413
FINAL SINGLE POINT ENERGY     -1339.845227461043

DIPOLE MOMENT
-------------
                                X             Y             Z
Electronic contribution:     27.56599      -4.91874       7.77491
Nuclear contribution   :    -27.93111       5.32470      -7.94648
                        -----------------------------------------
Total Dipole Moment    :     -0.36512       0.40595      -0.17157
                        -----------------------------------------
Magnitude (a.u.)       :      0.57232
Magnitude (Debye)      :      1.45472

Rotational constants in cm-1:     0.017996     0.008227     0.006624
Rotational constants in MHz :   539.512592   246.639463   198.586672

                             ****ORCA TERMINATED NORMALLY****
TOTAL RUN TIME: 0 days 0 hours 0 minutes 21 seconds 297 msec
