                         Program Version 4.2.1 -  RELEASE  -
|  1> ! wB97X-D3 SP def2-SVP
|  2> %pal
|  3> nprocs 24
|  4> end
|  5>
|  6> * xyz 0 1
|  7> S 	 -51.5526 	 9.75027 	 -22.4896
|  8> C 	 -50.1421 	 9.79976 	 -21.5689
|  9> C 	 -50.3285 	 10.1997 	 -20.2763
| 10> C 	 -51.6694 	 10.7472 	 -20.1065
| 11> C 	 -52.4668 	 10.5344 	 -21.1817
| 12> H 	 -52.169 	 11.1454 	 -19.2239
| 13> C 	 -49.3127 	 10.2453 	 -19.1626
| 14> H 	 -48.3515 	 9.83629 	 -19.5424
| 15> H 	 -49.6222 	 9.52143 	 -18.4245
| 16> C 	 -49.1242 	 11.6197 	 -18.4891
| 17> H 	 -50.0155 	 11.9756 	 -17.9363
| 18> H 	 -48.4016 	 11.4998 	 -17.6863
| 19> C 	 -48.8539 	 12.7622 	 -19.4731
| 20> H 	 -48.5382 	 13.7331 	 -19.0735
| 21> H 	 -48.1164 	 12.5032 	 -20.243
| 22> H 	 -49.7507 	 12.979 	 -20.1637
| 23> S 	 -55.1 	 9.73501 	 -20.893
| 24> C 	 -56.366 	 10.9237 	 -20.9142
| 25> C 	 -55.8555 	 12.133 	 -21.3159
| 26> C 	 -54.449 	 12.1527 	 -21.486
| 27> C 	 -53.863 	 10.887 	 -21.2924
| 28> H 	 -56.501 	 13.0645 	 -21.4056
| 29> C 	 -53.7847 	 13.402 	 -21.8561
| 30> H 	 -52.7007 	 13.3807 	 -21.6601
| 31> H 	 -54.1893 	 14.1079 	 -21.2348
| 32> C 	 -53.9495 	 13.821 	 -23.3544
| 33> H 	 -54.8887 	 13.5031 	 -23.7486
| 34> H 	 -53.1579 	 13.3183 	 -24.0123
| 35> C 	 -53.7431 	 15.3107 	 -23.54
| 36> H 	 -53.9994 	 15.5501 	 -24.5783
| 37> H 	 -52.8015 	 15.6327 	 -23.1803
| 38> H 	 -54.5343 	 15.6989 	 -22.8538
| 39> H 	 -49.2008 	 9.38126 	 -21.8582
| 40> H 	 -57.3705 	 10.6493 	 -20.7493
| 41> *
| 42>
| 43>                          ****END OF INPUT****

CARTESIAN COORDINATES (ANGSTROEM)
---------------------------------
  S    -51.552600    9.750270  -22.489600
  C    -50.142100    9.799760  -21.568900
  C    -50.328500   10.199700  -20.276300
  C    -51.669400   10.747200  -20.106500
  C    -52.466800   10.534400  -21.181700
  H    -52.169000   11.145400  -19.223900
  C    -49.312700   10.245300  -19.162600
  H    -48.351500    9.836290  -19.542400
  H    -49.622200    9.521430  -18.424500
  C    -49.124200   11.619700  -18.489100
  H    -50.015500   11.975600  -17.936300
  H    -48.401600   11.499800  -17.686300
  C    -48.853900   12.762200  -19.473100
  H    -48.538200   13.733100  -19.073500
  H    -48.116400   12.503200  -20.243000
  H    -49.750700   12.979000  -20.163700
  S    -55.100000    9.735010  -20.893000
  C    -56.366000   10.923700  -20.914200
  C    -55.855500   12.133000  -21.315900
  C    -54.449000   12.152700  -21.486000
  C    -53.863000   10.887000  -21.292400
  H    -56.501000   13.064500  -21.405600
  C    -53.784700   13.402000  -21.856100
  H    -52.700700   13.380700  -21.660100
  H    -54.189300   14.107900  -21.234800
  C    -53.949500   13.821000  -23.354400
  H    -54.888700   13.503100  -23.748600
  H    -53.157900   13.318300  -24.012300
  C    -53.743100   15.310700  -23.540000
  H    -53.999400   15.550100  -24.578300
  H    -52.801500   15.632700  -23.180300
  H    -54.534300   15.698900  -22.853800
  H    -49.200800    9.381260  -21.858200
  H    -57.370500   10.649300  -20.749300

 Total Charge           Charge          ....    0
 Multiplicity           Mult            ....    1
 Number of Electrons    NEL             ....  134
 Basis Dimension        Dim             ....  322

ORBITAL ENERGIES
----------------

  NO   OCC          E(Eh)            E(eV)
   0   2.0000     -88.962309     -2420.7875
   1   2.0000     -88.961947     -2420.7777
   2   2.0000     -10.323588      -280.9191
   3   2.0000     -10.321871      -280.8724
   4   2.0000     -10.315259      -280.6925
   5   2.0000     -10.306679      -280.4590
   6   2.0000     -10.299362      -280.2599
   7   2.0000     -10.298783      -280.2441
   8   2.0000     -10.296052      -280.1698
   9   2.0000     -10.295529      -280.1556
  10   2.0000     -10.293082      -280.0890
  11   2.0000     -10.292037      -280.0606
  12   2.0000     -10.284646      -279.8594
  13   2.0000     -10.281623      -279.7772
  14   2.0000     -10.280378      -279.7433
  15   2.0000     -10.275576      -279.6126
  16   2.0000      -8.077765      -219.8072
  17   2.0000      -8.077725      -219.8061
  18   2.0000      -6.036225      -164.2540
  19   2.0000      -6.036181      -164.2528
  20   2.0000      -6.032200      -164.1445
  21   2.0000      -6.031933      -164.1372
  22   2.0000      -6.028716      -164.0497
  23   2.0000      -6.028426      -164.0418
  24   2.0000      -1.009610       -27.4729
  25   2.0000      -0.989440       -26.9240
  26   2.0000      -0.913306       -24.8523
  27   2.0000      -0.909893       -24.7594
  28   2.0000      -0.874426       -23.7943
  29   2.0000      -0.854747       -23.2589
  30   2.0000      -0.843373       -22.9494
  31   2.0000      -0.816064       -22.2062
  32   2.0000      -0.781830       -21.2747
  33   2.0000      -0.770021       -20.9533
  34   2.0000      -0.708083       -19.2679
  35   2.0000      -0.695907       -18.9366
  36   2.0000      -0.693352       -18.8671
  37   2.0000      -0.659592       -17.9484
  38   2.0000      -0.646100       -17.5813
  39   2.0000      -0.618160       -16.8210
  40   2.0000      -0.603631       -16.4256
  41   2.0000      -0.565190       -15.3796
  42   2.0000      -0.560529       -15.2528
  43   2.0000      -0.552400       -15.0316
  44   2.0000      -0.535204       -14.5636
  45   2.0000      -0.531453       -14.4616
  46   2.0000      -0.519709       -14.1420
  47   2.0000      -0.511732       -13.9249
  48   2.0000      -0.505208       -13.7474
  49   2.0000      -0.500791       -13.6272
  50   2.0000      -0.489377       -13.3166
  51   2.0000      -0.478450       -13.0193
  52   2.0000      -0.471560       -12.8318
  53   2.0000      -0.463550       -12.6138
  54   2.0000      -0.456728       -12.4282
  55   2.0000      -0.447719       -12.1831
  56   2.0000      -0.444151       -12.0860
  57   2.0000      -0.442537       -12.0421
  58   2.0000      -0.434955       -11.8357
  59   2.0000      -0.426433       -11.6038
  60   2.0000      -0.420834       -11.4515
  61   2.0000      -0.408557       -11.1174
  62   2.0000      -0.407612       -11.0917
  63   2.0000      -0.339964        -9.2509
  64   2.0000      -0.328327        -8.9342
  65   2.0000      -0.319376        -8.6907
  66   2.0000      -0.307847        -8.3769
  67   0.0000       0.049364         1.3433
  68   0.0000       0.058236         1.5847
  69   0.0000       0.120682         3.2839
  70   0.0000       0.123712         3.3664
  71   0.0000       0.127028         3.4566

MULLIKEN ATOMIC CHARGES
-----------------------
   0 S :    0.117997
   1 C :   -0.093788
   2 C :   -0.119807
   3 C :    0.041331
   4 C :   -0.189399
   5 H :    0.020957
   6 C :    0.092894
   7 H :    0.018486
   8 H :    0.036450
   9 C :   -0.068662
  10 H :    0.032990
  11 H :    0.031154
  12 C :   -0.077946
  13 H :    0.039328
  14 H :    0.020597
  15 H :    0.045039
  16 S :    0.107997
  17 C :   -0.085427
  18 C :   -0.046217
  19 C :   -0.034058
  20 C :   -0.171202
  21 H :    0.039418
  22 C :    0.107097
  23 H :    0.029531
  24 H :   -0.004714
  25 C :   -0.098341
  26 H :    0.020786
  27 H :    0.037207
  28 C :   -0.023922
  29 H :    0.042531
  30 H :    0.030108
  31 H :    0.021243
  32 H :    0.033531
  33 H :    0.046814
Sum of atomic charges:    0.0000000

LOEWDIN ATOMIC CHARGES
----------------------
   0 S :    0.411611
   1 C :   -0.210045
   2 C :   -0.066808
   3 C :   -0.052849
   4 C :   -0.192635
   5 H :    0.036887
   6 C :   -0.030571
   7 H :    0.031284
   8 H :    0.035087
   9 C :   -0.045828
  10 H :    0.027833
  11 H :    0.025729
  12 C :   -0.079744
  13 H :    0.025969
  14 H :    0.021699
  15 H :    0.036341
  16 S :    0.420131
  17 C :   -0.179689
  18 C :   -0.080613
  19 C :   -0.051872
  20 C :   -0.216824
  21 H :    0.041503
  22 C :   -0.029744
  23 H :    0.036092
  24 H :    0.017039
  25 C :   -0.035764
  26 H :    0.014872
  27 H :    0.029435
  28 C :   -0.059639
  29 H :    0.030253
  30 H :    0.018788
  31 H :    0.026131
  32 H :    0.024487
  33 H :    0.021454

  Mayer bond orders larger than 0.100000
B(  0-S ,  1-C ) :   1.1467 B(  0-S ,  4-C ) :   1.1267 B(  1-C ,  2-C ) :   1.6484
B(  1-C , 32-H ) :   0.9596 B(  2-C ,  3-C ) :   1.1825 B(  2-C ,  6-C ) :   1.0289
B(  3-C ,  4-C ) :   1.6516 B(  3-C ,  5-H ) :   0.9901 B(  4-C , 20-C ) :   1.0132
B(  6-C ,  7-H ) :   0.9401 B(  6-C ,  8-H ) :   0.9303 B(  6-C ,  9-C ) :   1.0721
B(  9-C , 10-H ) :   0.9506 B(  9-C , 11-H ) :   0.9564 B(  9-C , 12-C ) :   1.0673
B( 12-C , 13-H ) :   0.9760 B( 12-C , 14-H ) :   0.9767 B( 12-C , 15-H ) :   0.9663
B( 16-S , 17-C ) :   1.1773 B( 16-S , 20-C ) :   1.1538 B( 17-C , 18-C ) :   1.5677
B( 17-C , 20-C ) :   0.1021 B( 17-C , 33-H ) :   0.9778 B( 18-C , 19-C ) :   1.2708
B( 18-C , 21-H ) :   0.9788 B( 19-C , 20-C ) :   1.5645 B( 19-C , 22-C ) :   1.0667
B( 22-C , 23-H ) :   0.9201 B( 22-C , 24-H ) :   0.9272 B( 22-C , 25-C ) :   1.0532
B( 25-C , 26-H ) :   0.9652 B( 25-C , 27-H ) :   0.9519 B( 25-C , 28-C ) :   1.0725
B( 28-C , 29-H ) :   0.9722 B( 28-C , 30-H ) :   0.9753 B( 28-C , 31-H ) :   0.9787

Dispersion correction           -0.014827960
FINAL SINGLE POINT ENERGY     -1339.884781724042

DIPOLE MOMENT
-------------
                                X             Y             Z
Electronic contribution:    -11.91963     -22.23082      -3.08454
Nuclear contribution   :     12.03301      22.64535       3.40286
                        -----------------------------------------
Total Dipole Moment    :      0.11337       0.41453       0.31832
                        -----------------------------------------
Magnitude (a.u.)       :      0.53481
Magnitude (Debye)      :      1.35938

Rotational constants in cm-1:     0.017256     0.009042     0.007443
Rotational constants in MHz :   517.319603   271.058669   223.133189

                             ****ORCA TERMINATED NORMALLY****
TOTAL RUN TIME: 0 days 0 hours 0 minutes 22 seconds 11 msec
