                         Program Version 4.2.1 -  RELEASE  -
|  1> ! wB97X-D3 SP def2-SVP
|  2> %pal
|  3> nprocs 24
|  4> end
|  5>
|  6> * xyz 0 1
|  7> S 	 -99.44 	 44.1836 	 -90.6726
|  8> C 	 -99.0751 	 42.4787 	 -90.8432
|  9> C 	 -100.014 	 41.7376 	 -90.2256
| 10> C 	 -100.816 	 42.5138 	 -89.3326
| 11> C 	 -100.624 	 43.8643 	 -89.49
| 12> H 	 -101.654 	 42.1043 	 -88.8219
| 13> C 	 -100.028 	 40.2317 	 -90.3687
| 14> H 	 -100.425 	 39.9862 	 -91.4325
| 15> H 	 -100.798 	 39.7915 	 -89.7153
| 16> C 	 -98.618 	 39.5412 	 -90.1055
| 17> H 	 -98.7603 	 38.4491 	 -90.2504
| 18> H 	 -97.9475 	 39.9612 	 -90.8347
| 19> C 	 -98.1791 	 39.713 	 -88.674
| 20> H 	 -98.1496 	 40.8234 	 -88.4415
| 21> H 	 -98.9157 	 39.3472 	 -87.9686
| 22> H 	 -97.209 	 39.2605 	 -88.4233
| 23> S 	 -101.085 	 46.5551 	 -89.3783
| 24> C 	 -101.613 	 47.2377 	 -87.94
| 25> C 	 -102.347 	 46.3369 	 -87.2015
| 26> C 	 -102.23 	 45.0026 	 -87.6877
| 27> C 	 -101.282 	 44.9859 	 -88.73
| 28> H 	 -102.83 	 46.7311 	 -86.2859
| 29> C 	 -102.613 	 43.8871 	 -86.7066
| 30> H 	 -102.559 	 42.9415 	 -87.2574
| 31> H 	 -103.688 	 44.0179 	 -86.4063
| 32> C 	 -101.968 	 43.8192 	 -85.3013
| 33> H 	 -102.411 	 44.4899 	 -84.6578
| 34> H 	 -100.962 	 44.2381 	 -85.2905
| 35> C 	 -102.044 	 42.4517 	 -84.5478
| 36> H 	 -101.88 	 42.4691 	 -83.4298
| 37> H 	 -101.365 	 41.7514 	 -85.0086
| 38> H 	 -103.032 	 42.0786 	 -84.6663
| 39> H 	 -98.3744 	 42.0486 	 -91.5215
| 40> H 	 -101.51 	 48.1895 	 -87.5299
| 41> *
| 42>
| 43>                          ****END OF INPUT****

CARTESIAN COORDINATES (ANGSTROEM)
---------------------------------
  S    -99.440000   44.183600  -90.672600
  C    -99.075100   42.478700  -90.843200
  C    -100.014000   41.737600  -90.225600
  C    -100.816000   42.513800  -89.332600
  C    -100.624000   43.864300  -89.490000
  H    -101.654000   42.104300  -88.821900
  C    -100.028000   40.231700  -90.368700
  H    -100.425000   39.986200  -91.432500
  H    -100.798000   39.791500  -89.715300
  C    -98.618000   39.541200  -90.105500
  H    -98.760300   38.449100  -90.250400
  H    -97.947500   39.961200  -90.834700
  C    -98.179100   39.713000  -88.674000
  H    -98.149600   40.823400  -88.441500
  H    -98.915700   39.347200  -87.968600
  H    -97.209000   39.260500  -88.423300
  S    -101.085000   46.555100  -89.378300
  C    -101.613000   47.237700  -87.940000
  C    -102.347000   46.336900  -87.201500
  C    -102.230000   45.002600  -87.687700
  C    -101.282000   44.985900  -88.730000
  H    -102.830000   46.731100  -86.285900
  C    -102.613000   43.887100  -86.706600
  H    -102.559000   42.941500  -87.257400
  H    -103.688000   44.017900  -86.406300
  C    -101.968000   43.819200  -85.301300
  H    -102.411000   44.489900  -84.657800
  H    -100.962000   44.238100  -85.290500
  C    -102.044000   42.451700  -84.547800
  H    -101.880000   42.469100  -83.429800
  H    -101.365000   41.751400  -85.008600
  H    -103.032000   42.078600  -84.666300
  H    -98.374400   42.048600  -91.521500
  H    -101.510000   48.189500  -87.529900

 Total Charge           Charge          ....    0
 Multiplicity           Mult            ....    1
 Number of Electrons    NEL             ....  134
 Basis Dimension        Dim             ....  322

ORBITAL ENERGIES
----------------

  NO   OCC          E(Eh)            E(eV)
   0   2.0000     -88.966233     -2420.8943
   1   2.0000     -88.965404     -2420.8717
   2   2.0000     -10.332486      -281.1612
   3   2.0000     -10.331178      -281.1256
   4   2.0000     -10.307277      -280.4753
   5   2.0000     -10.305149      -280.4173
   6   2.0000     -10.303975      -280.3854
   7   2.0000     -10.302021      -280.3322
   8   2.0000     -10.299481      -280.2631
   9   2.0000     -10.295584      -280.1571
  10   2.0000     -10.292879      -280.0835
  11   2.0000     -10.291889      -280.0565
  12   2.0000     -10.289049      -279.9792
  13   2.0000     -10.281515      -279.7742
  14   2.0000     -10.281325      -279.7691
  15   2.0000     -10.277525      -279.6657
  16   2.0000      -8.083277      -219.9572
  17   2.0000      -8.081067      -219.8970
  18   2.0000      -6.041640      -164.4014
  19   2.0000      -6.039549      -164.3445
  20   2.0000      -6.037674      -164.2934
  21   2.0000      -6.035553      -164.2357
  22   2.0000      -6.033852      -164.1895
  23   2.0000      -6.031674      -164.1302
  24   2.0000      -1.019657       -27.7463
  25   2.0000      -0.998043       -27.1581
  26   2.0000      -0.911200       -24.7950
  27   2.0000      -0.906357       -24.6632
  28   2.0000      -0.867665       -23.6104
  29   2.0000      -0.855358       -23.2755
  30   2.0000      -0.845005       -22.9938
  31   2.0000      -0.817776       -22.2528
  32   2.0000      -0.781135       -21.2558
  33   2.0000      -0.772670       -21.0254
  34   2.0000      -0.710568       -19.3355
  35   2.0000      -0.704860       -19.1802
  36   2.0000      -0.695695       -18.9308
  37   2.0000      -0.659991       -17.9593
  38   2.0000      -0.635675       -17.2976
  39   2.0000      -0.619943       -16.8695
  40   2.0000      -0.595813       -16.2129
  41   2.0000      -0.579455       -15.7678
  42   2.0000      -0.559144       -15.2151
  43   2.0000      -0.547259       -14.8917
  44   2.0000      -0.539912       -14.6917
  45   2.0000      -0.525582       -14.3018
  46   2.0000      -0.513640       -13.9768
  47   2.0000      -0.512220       -13.9382
  48   2.0000      -0.506434       -13.7808
  49   2.0000      -0.500039       -13.6067
  50   2.0000      -0.486819       -13.2470
  51   2.0000      -0.482335       -13.1250
  52   2.0000      -0.478130       -13.0106
  53   2.0000      -0.468775       -12.7560
  54   2.0000      -0.461316       -12.5530
  55   2.0000      -0.448689       -12.2094
  56   2.0000      -0.446535       -12.1508
  57   2.0000      -0.441376       -12.0104
  58   2.0000      -0.431233       -11.7344
  59   2.0000      -0.426198       -11.5974
  60   2.0000      -0.418495       -11.3878
  61   2.0000      -0.415391       -11.3034
  62   2.0000      -0.407011       -11.0753
  63   2.0000      -0.358223        -9.7477
  64   2.0000      -0.335347        -9.1253
  65   2.0000      -0.326686        -8.8896
  66   2.0000      -0.283310        -7.7093
  67   0.0000       0.016194         0.4407
  68   0.0000       0.084534         2.3003
  69   0.0000       0.093250         2.5375
  70   0.0000       0.125082         3.4037
  71   0.0000       0.136742         3.7209

MULLIKEN ATOMIC CHARGES
-----------------------
   0 S :    0.106070
   1 C :   -0.116243
   2 C :   -0.098526
   3 C :   -0.009384
   4 C :   -0.074622
   5 H :    0.002967
   6 C :    0.011521
   7 H :    0.054400
   8 H :    0.018041
   9 C :   -0.063770
  10 H :    0.038893
  11 H :    0.031463
  12 C :   -0.063094
  13 H :    0.046258
  14 H :    0.023576
  15 H :    0.043390
  16 S :    0.118423
  17 C :   -0.046016
  18 C :   -0.086487
  19 C :   -0.009537
  20 C :   -0.132356
  21 H :    0.031517
  22 C :    0.023702
  23 H :    0.016394
  24 H :    0.035399
  25 C :   -0.029434
  26 H :   -0.001446
  27 H :    0.026736
  28 C :   -0.064311
  29 H :    0.047156
  30 H :    0.037285
  31 H :    0.019142
  32 H :    0.037973
  33 H :    0.024919
Sum of atomic charges:    0.0000000

LOEWDIN ATOMIC CHARGES
----------------------
   0 S :    0.418125
   1 C :   -0.194727
   2 C :   -0.066047
   3 C :   -0.074824
   4 C :   -0.194170
   5 H :    0.023388
   6 C :   -0.037510
   7 H :    0.042918
   8 H :    0.024801
   9 C :   -0.036450
  10 H :    0.029220
  11 H :    0.018663
  12 C :   -0.073757
  13 H :    0.034210
  14 H :    0.023073
  15 H :    0.027721
  16 S :    0.443071
  17 C :   -0.201878
  18 C :   -0.068381
  19 C :   -0.065090
  20 C :   -0.191586
  21 H :    0.036866
  22 C :   -0.035535
  23 H :    0.023138
  24 H :    0.041396
  25 C :   -0.039881
  26 H :    0.010787
  27 H :    0.024227
  28 C :   -0.062361
  29 H :    0.036337
  30 H :    0.023268
  31 H :    0.018209
  32 H :    0.022780
  33 H :    0.019997

  Mayer bond orders larger than 0.100000
B(  0-S ,  1-C ) :   1.1246 B(  0-S ,  4-C ) :   1.1661 B(  1-C ,  2-C ) :   1.6198
B(  1-C , 32-H ) :   0.9718 B(  2-C ,  3-C ) :   1.2518 B(  2-C ,  6-C ) :   1.0216
B(  3-C ,  4-C ) :   1.5655 B(  3-C ,  5-H ) :   0.9873 B(  4-C , 20-C ) :   1.0488
B(  6-C ,  7-H ) :   0.9373 B(  6-C ,  8-H ) :   0.9462 B(  6-C ,  9-C ) :   1.0662
B(  9-C , 10-H ) :   0.9553 B(  9-C , 11-H ) :   0.9559 B(  9-C , 12-C ) :   1.0742
B( 12-C , 13-H ) :   0.9722 B( 12-C , 14-H ) :   0.9726 B( 12-C , 15-H ) :   0.9735
B( 16-S , 17-C ) :   1.1518 B( 16-S , 20-C ) :   1.1727 B( 17-C , 18-C ) :   1.6295
B( 17-C , 33-H ) :   0.9753 B( 18-C , 19-C ) :   1.2130 B( 18-C , 21-H ) :   0.9890
B( 19-C , 20-C ) :   1.5497 B( 19-C , 22-C ) :   1.0723 B( 22-C , 23-H ) :   0.9522
B( 22-C , 24-H ) :   0.9263 B( 22-C , 25-C ) :   1.0425 B( 25-C , 26-H ) :   0.9498
B( 25-C , 27-H ) :   0.9591 B( 25-C , 28-C ) :   1.0733 B( 28-C , 29-H ) :   0.9757
B( 28-C , 30-H ) :   0.9793 B( 28-C , 31-H ) :   0.9753

Dispersion correction           -0.014010101
FINAL SINGLE POINT ENERGY     -1339.848451669197

DIPOLE MOMENT
-------------
                                X             Y             Z
Electronic contribution:      0.29256      24.73662     -17.84730
Nuclear contribution   :     -0.46503     -25.13703      18.27888
                        -----------------------------------------
Total Dipole Moment    :     -0.17247      -0.40040       0.43158
                        -----------------------------------------
Magnitude (a.u.)       :      0.61346
Magnitude (Debye)      :      1.55929

Rotational constants in cm-1:     0.017802     0.009381     0.006545
Rotational constants in MHz :   533.682400   281.221364   196.215750

                             ****ORCA TERMINATED NORMALLY****
TOTAL RUN TIME: 0 days 0 hours 0 minutes 21 seconds 691 msec
