                         Program Version 4.2.1 -  RELEASE  -
|  1> ! wB97X-D3 SP def2-SVP
|  2> %pal
|  3> nprocs 24
|  4> end
|  5>
|  6> * xyz 0 1
|  7> S 	 -41.6211 	 -7.60524 	 7.81754
|  8> C 	 -40.7725 	 -8.95116 	 8.50678
|  9> C 	 -40.5265 	 -8.71858 	 9.8811
| 10> C 	 -40.8314 	 -7.34408 	 10.3179
| 11> C 	 -41.1369 	 -6.59331 	 9.21289
| 12> H 	 -40.6656 	 -6.7158 	 11.2643
| 13> C 	 -39.7976 	 -9.58807 	 10.8894
| 14> H 	 -40.5275 	 -10.4062 	 11.0793
| 15> H 	 -39.6256 	 -9.01404 	 11.8387
| 16> C 	 -38.5178 	 -10.4031 	 10.4734
| 17> H 	 -38.2158 	 -11.0085 	 11.3628
| 18> H 	 -38.7528 	 -11.0262 	 9.6426
| 19> C 	 -37.3246 	 -9.53285 	 10.0619
| 20> H 	 -37.4741 	 -8.41171 	 9.9656
| 21> H 	 -36.3706 	 -9.63275 	 10.6745
| 22> H 	 -37.1604 	 -9.89193 	 9.05618
| 23> S 	 -43.0325 	 -4.60731 	 8.84891
| 24> C 	 -42.5642 	 -2.97383 	 8.9848
| 25> C 	 -41.2803 	 -2.80673 	 9.40927
| 26> C 	 -40.6005 	 -4.08867 	 9.53067
| 27> C 	 -41.4117 	 -5.16627 	 9.21104
| 28> H 	 -40.9567 	 -1.78937 	 9.65821
| 29> C 	 -39.1424 	 -4.11646 	 10.0558
| 30> H 	 -39.0989 	 -4.87993 	 10.7948
| 31> H 	 -39.0461 	 -3.15751 	 10.5433
| 32> C 	 -38.0479 	 -4.28902 	 8.94724
| 33> H 	 -38.2062 	 -3.53907 	 8.13032
| 34> H 	 -38.0595 	 -5.32556 	 8.59145
| 35> C 	 -36.6344 	 -3.98118 	 9.41355
| 36> H 	 -36.4003 	 -2.94338 	 9.41745
| 37> H 	 -35.8506 	 -4.50585 	 8.80484
| 38> H 	 -36.4792 	 -4.3069 	 10.4326
| 39> H 	 -40.5574 	 -9.85045 	 8.00447
| 40> H 	 -43.2367 	 -2.16677 	 8.79195
| 41> *
| 42>
| 43>                          ****END OF INPUT****

CARTESIAN COORDINATES (ANGSTROEM)
---------------------------------
  S    -41.621100   -7.605240    7.817540
  C    -40.772500   -8.951160    8.506780
  C    -40.526500   -8.718580    9.881100
  C    -40.831400   -7.344080   10.317900
  C    -41.136900   -6.593310    9.212890
  H    -40.665600   -6.715800   11.264300
  C    -39.797600   -9.588070   10.889400
  H    -40.527500  -10.406200   11.079300
  H    -39.625600   -9.014040   11.838700
  C    -38.517800  -10.403100   10.473400
  H    -38.215800  -11.008500   11.362800
  H    -38.752800  -11.026200    9.642600
  C    -37.324600   -9.532850   10.061900
  H    -37.474100   -8.411710    9.965600
  H    -36.370600   -9.632750   10.674500
  H    -37.160400   -9.891930    9.056180
  S    -43.032500   -4.607310    8.848910
  C    -42.564200   -2.973830    8.984800
  C    -41.280300   -2.806730    9.409270
  C    -40.600500   -4.088670    9.530670
  C    -41.411700   -5.166270    9.211040
  H    -40.956700   -1.789370    9.658210
  C    -39.142400   -4.116460   10.055800
  H    -39.098900   -4.879930   10.794800
  H    -39.046100   -3.157510   10.543300
  C    -38.047900   -4.289020    8.947240
  H    -38.206200   -3.539070    8.130320
  H    -38.059500   -5.325560    8.591450
  C    -36.634400   -3.981180    9.413550
  H    -36.400300   -2.943380    9.417450
  H    -35.850600   -4.505850    8.804840
  H    -36.479200   -4.306900   10.432600
  H    -40.557400   -9.850450    8.004470
  H    -43.236700   -2.166770    8.791950

 Total Charge           Charge          ....    0
 Multiplicity           Mult            ....    1
 Number of Electrons    NEL             ....  134
 Basis Dimension        Dim             ....  322

ORBITAL ENERGIES
----------------

  NO   OCC          E(Eh)            E(eV)
   0   2.0000     -88.964234     -2420.8399
   1   2.0000     -88.962390     -2420.7897
   2   2.0000     -10.329271      -281.0737
   3   2.0000     -10.322544      -280.8907
   4   2.0000     -10.315420      -280.6968
   5   2.0000     -10.313116      -280.6342
   6   2.0000     -10.309461      -280.5347
   7   2.0000     -10.306081      -280.4427
   8   2.0000     -10.305324      -280.4221
   9   2.0000     -10.298055      -280.2243
  10   2.0000     -10.293454      -280.0991
  11   2.0000     -10.292918      -280.0845
  12   2.0000     -10.291794      -280.0539
  13   2.0000     -10.288258      -279.9577
  14   2.0000     -10.281017      -279.7607
  15   2.0000     -10.272971      -279.5417
  16   2.0000      -8.078872      -219.8373
  17   2.0000      -8.078190      -219.8187
  18   2.0000      -6.037449      -164.2873
  19   2.0000      -6.036664      -164.2660
  20   2.0000      -6.033687      -164.1850
  21   2.0000      -6.032559      -164.1543
  22   2.0000      -6.029262      -164.0646
  23   2.0000      -6.028926      -164.0554
  24   2.0000      -1.006203       -27.3802
  25   2.0000      -0.982347       -26.7310
  26   2.0000      -0.904322       -24.6078
  27   2.0000      -0.902957       -24.5707
  28   2.0000      -0.870128       -23.6774
  29   2.0000      -0.851111       -23.1599
  30   2.0000      -0.845633       -23.0109
  31   2.0000      -0.813713       -22.1422
  32   2.0000      -0.780074       -21.2269
  33   2.0000      -0.767879       -20.8951
  34   2.0000      -0.704290       -19.1647
  35   2.0000      -0.698807       -19.0155
  36   2.0000      -0.687651       -18.7119
  37   2.0000      -0.660152       -17.9637
  38   2.0000      -0.641892       -17.4668
  39   2.0000      -0.602922       -16.4063
  40   2.0000      -0.588618       -16.0171
  41   2.0000      -0.574082       -15.6216
  42   2.0000      -0.564906       -15.3719
  43   2.0000      -0.546445       -14.8695
  44   2.0000      -0.535025       -14.5588
  45   2.0000      -0.522843       -14.2273
  46   2.0000      -0.516133       -14.0447
  47   2.0000      -0.513898       -13.9839
  48   2.0000      -0.503653       -13.7051
  49   2.0000      -0.500193       -13.6109
  50   2.0000      -0.489627       -13.3234
  51   2.0000      -0.482282       -13.1236
  52   2.0000      -0.470463       -12.8020
  53   2.0000      -0.462480       -12.5847
  54   2.0000      -0.460316       -12.5258
  55   2.0000      -0.449330       -12.2269
  56   2.0000      -0.437965       -11.9176
  57   2.0000      -0.435897       -11.8614
  58   2.0000      -0.425886       -11.5890
  59   2.0000      -0.423173       -11.5151
  60   2.0000      -0.419869       -11.4252
  61   2.0000      -0.414674       -11.2838
  62   2.0000      -0.406581       -11.0636
  63   2.0000      -0.346200        -9.4206
  64   2.0000      -0.329420        -8.9640
  65   2.0000      -0.321201        -8.7403
  66   2.0000      -0.293541        -7.9877
  67   0.0000       0.031452         0.8559
  68   0.0000       0.060686         1.6513
  69   0.0000       0.105537         2.8718
  70   0.0000       0.119678         3.2566
  71   0.0000       0.128181         3.4880

MULLIKEN ATOMIC CHARGES
-----------------------
   0 S :    0.104363
   1 C :   -0.090770
   2 C :   -0.082308
   3 C :    0.009064
   4 C :   -0.169276
   5 H :    0.062302
   6 C :    0.020682
   7 H :    0.042871
   8 H :    0.040237
   9 C :   -0.064252
  10 H :    0.045418
  11 H :    0.027047
  12 C :   -0.094680
  13 H :    0.047409
  14 H :    0.046487
  15 H :    0.026718
  16 S :    0.111027
  17 C :   -0.085849
  18 C :   -0.043671
  19 C :   -0.062369
  20 C :   -0.168011
  21 H :    0.026784
  22 C :    0.112400
  23 H :    0.007554
  24 H :    0.010625
  25 C :   -0.077849
  26 H :    0.040048
  27 H :    0.046637
  28 C :   -0.046759
  29 H :    0.024328
  30 H :    0.038954
  31 H :    0.015478
  32 H :    0.031460
  33 H :    0.047898
Sum of atomic charges:   -0.0000000

LOEWDIN ATOMIC CHARGES
----------------------
   0 S :    0.387138
   1 C :   -0.201224
   2 C :   -0.055662
   3 C :   -0.067666
   4 C :   -0.176395
   5 H :    0.054384
   6 C :   -0.042462
   7 H :    0.039747
   8 H :    0.033808
   9 C :   -0.039722
  10 H :    0.034758
  11 H :    0.018346
  12 C :   -0.086609
  13 H :    0.032069
  14 H :    0.032225
  15 H :    0.026127
  16 S :    0.416679
  17 C :   -0.191261
  18 C :   -0.080009
  19 C :   -0.050907
  20 C :   -0.209857
  21 H :    0.036418
  22 C :   -0.023295
  23 H :    0.020147
  24 H :    0.027467
  25 C :   -0.039258
  26 H :    0.032245
  27 H :    0.029353
  28 C :   -0.070420
  29 H :    0.018281
  30 H :    0.033134
  31 H :    0.019142
  32 H :    0.018648
  33 H :    0.024632

  Mayer bond orders larger than 0.100000
B(  0-S ,  1-C ) :   1.1220 B(  0-S ,  4-C ) :   1.1286 B(  1-C ,  2-C ) :   1.6241
B(  1-C , 32-H ) :   0.9796 B(  2-C ,  3-C ) :   1.1723 B(  2-C ,  6-C ) :   1.0213
B(  3-C ,  4-C ) :   1.6351 B(  3-C ,  5-H ) :   0.9724 B(  4-C , 20-C ) :   1.0410
B(  6-C ,  7-H ) :   0.9266 B(  6-C ,  8-H ) :   0.9553 B(  6-C ,  9-C ) :   1.0827
B(  9-C , 10-H ) :   0.9573 B(  9-C , 11-H ) :   0.9671 B(  9-C , 12-C ) :   1.0432
B( 12-C , 13-H ) :   0.9814 B( 12-C , 14-H ) :   0.9796 B( 12-C , 15-H ) :   0.9829
B( 16-S , 17-C ) :   1.1653 B( 16-S , 20-C ) :   1.1374 B( 17-C , 18-C ) :   1.6278
B( 17-C , 33-H ) :   0.9663 B( 18-C , 19-C ) :   1.2241 B( 18-C , 21-H ) :   0.9891
B( 19-C , 20-C ) :   1.6240 B( 19-C , 22-C ) :   1.0297 B( 22-C , 23-H ) :   0.9279
B( 22-C , 24-H ) :   0.9366 B( 22-C , 25-C ) :   1.0687 B( 25-C , 26-H ) :   0.9607
B( 25-C , 27-H ) :   0.9568 B( 25-C , 28-C ) :   1.0810 B( 28-C , 29-H ) :   0.9778
B( 28-C , 30-H ) :   0.9746 B( 28-C , 31-H ) :   0.9715

Dispersion correction           -0.014489921
FINAL SINGLE POINT ENERGY     -1339.856270428583

DIPOLE MOMENT
-------------
                                X             Y             Z
Electronic contribution:    -28.81742       5.07496      -9.28437
Nuclear contribution   :     29.31713      -5.06263       9.70464
                        -----------------------------------------
Total Dipole Moment    :      0.49971       0.01232       0.42027
                        -----------------------------------------
Magnitude (a.u.)       :      0.65306
Magnitude (Debye)      :      1.65995

Rotational constants in cm-1:     0.017625     0.009575     0.006937
Rotational constants in MHz :   528.385085   287.061672   207.976728

                             ****ORCA TERMINATED NORMALLY****
TOTAL RUN TIME: 0 days 0 hours 0 minutes 22 seconds 983 msec
