                         Program Version 4.2.1 -  RELEASE  -
|  1> ! wB97X-D3 SP def2-SVP
|  2> %pal
|  3> nprocs 24
|  4> end
|  5>
|  6> * xyz 0 1
|  7> S 	 -139.878 	 26.2008 	 -19.7631
|  8> C 	 -139.746 	 25.2564 	 -18.2957
|  9> C 	 -139.146 	 24.0237 	 -18.5998
| 10> C 	 -138.85 	 23.8494 	 -20.0042
| 11> C 	 -139.232 	 24.936 	 -20.7605
| 12> H 	 -138.604 	 22.9196 	 -20.506
| 13> C 	 -138.936 	 22.8829 	 -17.6791
| 14> H 	 -138.357 	 23.2382 	 -16.7545
| 15> H 	 -138.538 	 21.9731 	 -18.1439
| 16> C 	 -140.224 	 22.249 	 -17.0435
| 17> H 	 -140.072 	 21.5374 	 -16.3327
| 18> H 	 -140.828 	 23.0526 	 -16.526
| 19> C 	 -141.061 	 21.6411 	 -18.1706
| 20> H 	 -140.541 	 20.732 	 -18.4639
| 21> H 	 -142.085 	 21.372 	 -17.8594
| 22> H 	 -141.135 	 22.3257 	 -19.0878
| 23> S 	 -137.982 	 26.2785 	 -22.8481
| 24> C 	 -138.126 	 25.7369 	 -24.4867
| 25> C 	 -139.198 	 24.8803 	 -24.5473
| 26> C 	 -139.719 	 24.478 	 -23.2321
| 27> C 	 -139.081 	 25.1271 	 -22.1804
| 28> H 	 -139.56 	 24.5084 	 -25.578
| 29> C 	 -140.75 	 23.3413 	 -23.2128
| 30> H 	 -141.484 	 23.4627 	 -24.0056
| 31> H 	 -141.289 	 23.3756 	 -22.2973
| 32> C 	 -140.182 	 21.9119 	 -23.3359
| 33> H 	 -139.483 	 21.9152 	 -22.4811
| 34> H 	 -139.47 	 21.8002 	 -24.1062
| 35> C 	 -141.244 	 20.8012 	 -23.5786
| 36> H 	 -141.605 	 20.5759 	 -22.5403
| 37> H 	 -140.826 	 19.9296 	 -24.1165
| 38> H 	 -142.04 	 21.1267 	 -24.182
| 39> H 	 -140.057 	 25.5508 	 -17.3238
| 40> H 	 -137.759 	 26.23 	 -25.4029
| 41> *
| 42>
| 43>                          ****END OF INPUT****

CARTESIAN COORDINATES (ANGSTROEM)
---------------------------------
  S    -139.878000   26.200800  -19.763100
  C    -139.746000   25.256400  -18.295700
  C    -139.146000   24.023700  -18.599800
  C    -138.850000   23.849400  -20.004200
  C    -139.232000   24.936000  -20.760500
  H    -138.604000   22.919600  -20.506000
  C    -138.936000   22.882900  -17.679100
  H    -138.357000   23.238200  -16.754500
  H    -138.538000   21.973100  -18.143900
  C    -140.224000   22.249000  -17.043500
  H    -140.072000   21.537400  -16.332700
  H    -140.828000   23.052600  -16.526000
  C    -141.061000   21.641100  -18.170600
  H    -140.541000   20.732000  -18.463900
  H    -142.085000   21.372000  -17.859400
  H    -141.135000   22.325700  -19.087800
  S    -137.982000   26.278500  -22.848100
  C    -138.126000   25.736900  -24.486700
  C    -139.198000   24.880300  -24.547300
  C    -139.719000   24.478000  -23.232100
  C    -139.081000   25.127100  -22.180400
  H    -139.560000   24.508400  -25.578000
  C    -140.750000   23.341300  -23.212800
  H    -141.484000   23.462700  -24.005600
  H    -141.289000   23.375600  -22.297300
  C    -140.182000   21.911900  -23.335900
  H    -139.483000   21.915200  -22.481100
  H    -139.470000   21.800200  -24.106200
  C    -141.244000   20.801200  -23.578600
  H    -141.605000   20.575900  -22.540300
  H    -140.826000   19.929600  -24.116500
  H    -142.040000   21.126700  -24.182000
  H    -140.057000   25.550800  -17.323800
  H    -137.759000   26.230000  -25.402900

 Total Charge           Charge          ....    0
 Multiplicity           Mult            ....    1
 Number of Electrons    NEL             ....  134
 Basis Dimension        Dim             ....  322

ORBITAL ENERGIES
----------------

  NO   OCC          E(Eh)            E(eV)
   0   2.0000     -88.969873     -2420.9933
   1   2.0000     -88.963553     -2420.8214
   2   2.0000     -10.330242      -281.1002
   3   2.0000     -10.327980      -281.0386
   4   2.0000     -10.319314      -280.8028
   5   2.0000     -10.318071      -280.7690
   6   2.0000     -10.309017      -280.5226
   7   2.0000     -10.307086      -280.4701
   8   2.0000     -10.301746      -280.3248
   9   2.0000     -10.298087      -280.2252
  10   2.0000     -10.298000      -280.2228
  11   2.0000     -10.288632      -279.9679
  12   2.0000     -10.284133      -279.8455
  13   2.0000     -10.283989      -279.8416
  14   2.0000     -10.283280      -279.8223
  15   2.0000     -10.280251      -279.7398
  16   2.0000      -8.084687      -219.9955
  17   2.0000      -8.079069      -219.8426
  18   2.0000      -6.043222      -164.4444
  19   2.0000      -6.038997      -164.3295
  20   2.0000      -6.037717      -164.2946
  21   2.0000      -6.035586      -164.2366
  22   2.0000      -6.033349      -164.1758
  23   2.0000      -6.029708      -164.0767
  24   2.0000      -1.011264       -27.5179
  25   2.0000      -0.987573       -26.8732
  26   2.0000      -0.914890       -24.8954
  27   2.0000      -0.906772       -24.6745
  28   2.0000      -0.873283       -23.7632
  29   2.0000      -0.849451       -23.1147
  30   2.0000      -0.843089       -22.9416
  31   2.0000      -0.817205       -22.2373
  32   2.0000      -0.779911       -21.2225
  33   2.0000      -0.770227       -20.9589
  34   2.0000      -0.709906       -19.3175
  35   2.0000      -0.703733       -19.1496
  36   2.0000      -0.697606       -18.9828
  37   2.0000      -0.656581       -17.8665
  38   2.0000      -0.644708       -17.5434
  39   2.0000      -0.613404       -16.6916
  40   2.0000      -0.594280       -16.1712
  41   2.0000      -0.578215       -15.7340
  42   2.0000      -0.558855       -15.2072
  43   2.0000      -0.552663       -15.0387
  44   2.0000      -0.547519       -14.8987
  45   2.0000      -0.524531       -14.2732
  46   2.0000      -0.521961       -14.2033
  47   2.0000      -0.514432       -13.9984
  48   2.0000      -0.507674       -13.8145
  49   2.0000      -0.505907       -13.7664
  50   2.0000      -0.493703       -13.4343
  51   2.0000      -0.474596       -12.9144
  52   2.0000      -0.471432       -12.8283
  53   2.0000      -0.466065       -12.6823
  54   2.0000      -0.457742       -12.4558
  55   2.0000      -0.451392       -12.2830
  56   2.0000      -0.440565       -11.9884
  57   2.0000      -0.437677       -11.9098
  58   2.0000      -0.431821       -11.7505
  59   2.0000      -0.426002       -11.5921
  60   2.0000      -0.417639       -11.3645
  61   2.0000      -0.411433       -11.1957
  62   2.0000      -0.401557       -10.9269
  63   2.0000      -0.343287        -9.3413
  64   2.0000      -0.329726        -8.9723
  65   2.0000      -0.323258        -8.7963
  66   2.0000      -0.306746        -8.3470
  67   0.0000       0.036152         0.9837
  68   0.0000       0.057901         1.5756
  69   0.0000       0.111254         3.0274
  70   0.0000       0.117207         3.1894
  71   0.0000       0.121317         3.3012

MULLIKEN ATOMIC CHARGES
-----------------------
   0 S :    0.125399
   1 C :   -0.099095
   2 C :   -0.077726
   3 C :    0.046538
   4 C :   -0.183631
   5 H :    0.020484
   6 C :    0.019433
   7 H :    0.052020
   8 H :    0.027245
   9 C :   -0.043123
  10 H :    0.013651
  11 H :    0.021629
  12 C :   -0.097013
  13 H :    0.022538
  14 H :    0.038191
  15 H :    0.056428
  16 S :    0.112799
  17 C :   -0.096727
  18 C :   -0.071926
  19 C :   -0.047657
  20 C :   -0.151518
  21 H :    0.050392
  22 C :    0.087374
  23 H :    0.015038
  24 H :    0.017358
  25 C :   -0.068747
  26 H :    0.007239
  27 H :    0.005020
  28 C :   -0.029762
  29 H :    0.046409
  30 H :    0.043627
  31 H :    0.024456
  32 H :    0.038980
  33 H :    0.074674
Sum of atomic charges:    0.0000000

LOEWDIN ATOMIC CHARGES
----------------------
   0 S :    0.424920
   1 C :   -0.191622
   2 C :   -0.062720
   3 C :   -0.057900
   4 C :   -0.198989
   5 H :    0.032406
   6 C :   -0.038917
   7 H :    0.043646
   8 H :    0.031371
   9 C :   -0.035016
  10 H :    0.009081
  11 H :    0.021005
  12 C :   -0.073588
  13 H :    0.019920
  14 H :    0.025624
  15 H :    0.034237
  16 S :    0.422630
  17 C :   -0.204242
  18 C :   -0.080250
  19 C :   -0.053045
  20 C :   -0.217044
  21 H :    0.043417
  22 C :   -0.027906
  23 H :    0.025994
  24 H :    0.023618
  25 C :   -0.045451
  26 H :    0.022624
  27 H :    0.013081
  28 C :   -0.060751
  29 H :    0.035568
  30 H :    0.032920
  31 H :    0.018961
  32 H :    0.024019
  33 H :    0.042399

  Mayer bond orders larger than 0.100000
B(  0-S ,  1-C ) :   1.1415 B(  0-S ,  4-C ) :   1.1711 B(  1-C ,  2-C ) :   1.5815
B(  1-C ,  4-C ) :   0.1008 B(  1-C , 32-H ) :   0.9773 B(  2-C ,  3-C ) :   1.2365
B(  2-C ,  6-C ) :   1.0451 B(  3-C ,  4-C ) :   1.5796 B(  3-C ,  5-H ) :   0.9891
B(  4-C , 20-C ) :   1.0249 B(  6-C ,  7-H ) :   0.9319 B(  6-C ,  8-H ) :   0.9507
B(  6-C ,  9-C ) :   1.0614 B(  9-C , 10-H ) :   0.9596 B(  9-C , 11-H ) :   0.9552
B(  9-C , 12-C ) :   1.0667 B( 12-C , 13-H ) :   0.9743 B( 12-C , 14-H ) :   0.9733
B( 12-C , 15-H ) :   0.9763 B( 16-S , 17-C ) :   1.1546 B( 16-S , 20-C ) :   1.1430
B( 17-C , 18-C ) :   1.6257 B( 17-C , 33-H ) :   0.9597 B( 18-C , 19-C ) :   1.2353
B( 18-C , 21-H ) :   0.9730 B( 19-C , 20-C ) :   1.5888 B( 19-C , 22-C ) :   1.0612
B( 22-C , 23-H ) :   0.9335 B( 22-C , 24-H ) :   0.9312 B( 22-C , 25-C ) :   1.0541
B( 25-C , 26-H ) :   0.9540 B( 25-C , 27-H ) :   0.9585 B( 25-C , 28-C ) :   1.0569
B( 28-C , 29-H ) :   0.9791 B( 28-C , 30-H ) :   0.9776 B( 28-C , 31-H ) :   0.9744

Dispersion correction           -0.015008377
FINAL SINGLE POINT ENERGY     -1339.860824465762

DIPOLE MOMENT
-------------
                                X             Y             Z
Electronic contribution:     11.26520      28.18167      -4.28447
Nuclear contribution   :    -11.55851     -28.79480       4.23957
                        -----------------------------------------
Total Dipole Moment    :     -0.29331      -0.61313      -0.04490
                        -----------------------------------------
Magnitude (a.u.)       :      0.68116
Magnitude (Debye)      :      1.73136

Rotational constants in cm-1:     0.017419     0.009947     0.006927
Rotational constants in MHz :   522.207820   298.206868   207.678981

                             ****ORCA TERMINATED NORMALLY****
TOTAL RUN TIME: 0 days 0 hours 0 minutes 22 seconds 310 msec
