                         Program Version 4.2.1 -  RELEASE  -
|  1> ! wB97X-D3 SP def2-SVP
|  2> %pal
|  3> nprocs 24
|  4> end
|  5>
|  6> * xyz 0 1
|  7> S 	 -127.138 	 67.8903 	 -53.0938
|  8> C 	 -127.561 	 68.983 	 -54.3963
|  9> C 	 -126.706 	 70.0586 	 -54.4911
| 10> C 	 -125.714 	 69.9895 	 -53.4429
| 11> C 	 -125.767 	 68.8169 	 -52.6849
| 12> H 	 -125.044 	 70.7399 	 -53.226
| 13> C 	 -126.846 	 71.0672 	 -55.5967
| 14> H 	 -127.897 	 71.1533 	 -55.7419
| 15> H 	 -126.563 	 70.583 	 -56.4872
| 16> C 	 -126.177 	 72.4406 	 -55.3405
| 17> H 	 -125.167 	 72.2579 	 -55.2741
| 18> H 	 -126.34 	 73.1672 	 -56.1656
| 19> C 	 -126.623 	 73.1228 	 -54.011
| 20> H 	 -125.958 	 74.0036 	 -53.7928
| 21> H 	 -127.58 	 73.436 	 -54.041
| 22> H 	 -126.506 	 72.5246 	 -53.1196
| 23> S 	 -125.435 	 68.2867 	 -49.9662
| 24> C 	 -123.836 	 67.9845 	 -49.3078
| 25> C 	 -122.91 	 67.9102 	 -50.3393
| 26> C 	 -123.504 	 68.207 	 -51.6079
| 27> C 	 -124.845 	 68.5157 	 -51.5647
| 28> H 	 -121.798 	 67.7412 	 -50.0685
| 29> C 	 -122.574 	 68.1908 	 -52.8231
| 30> H 	 -123.196 	 68.0306 	 -53.7019
| 31> H 	 -121.913 	 67.3141 	 -52.6317
| 32> C 	 -121.704 	 69.4333 	 -53.0736
| 33> H 	 -120.961 	 69.6554 	 -52.3059
| 34> H 	 -122.326 	 70.2955 	 -53.1319
| 35> C 	 -120.855 	 69.2195 	 -54.3224
| 36> H 	 -121.556 	 68.779 	 -55.0731
| 37> H 	 -120.132 	 68.476 	 -54.1506
| 38> H 	 -120.371 	 70.1848 	 -54.5264
| 39> H 	 -128.403 	 68.739 	 -54.9607
| 40> H 	 -123.578 	 67.8155 	 -48.252
| 41> *
| 42>
| 43>                          ****END OF INPUT****

CARTESIAN COORDINATES (ANGSTROEM)
---------------------------------
  S    -127.138000   67.890300  -53.093800
  C    -127.561000   68.983000  -54.396300
  C    -126.706000   70.058600  -54.491100
  C    -125.714000   69.989500  -53.442900
  C    -125.767000   68.816900  -52.684900
  H    -125.044000   70.739900  -53.226000
  C    -126.846000   71.067200  -55.596700
  H    -127.897000   71.153300  -55.741900
  H    -126.563000   70.583000  -56.487200
  C    -126.177000   72.440600  -55.340500
  H    -125.167000   72.257900  -55.274100
  H    -126.340000   73.167200  -56.165600
  C    -126.623000   73.122800  -54.011000
  H    -125.958000   74.003600  -53.792800
  H    -127.580000   73.436000  -54.041000
  H    -126.506000   72.524600  -53.119600
  S    -125.435000   68.286700  -49.966200
  C    -123.836000   67.984500  -49.307800
  C    -122.910000   67.910200  -50.339300
  C    -123.504000   68.207000  -51.607900
  C    -124.845000   68.515700  -51.564700
  H    -121.798000   67.741200  -50.068500
  C    -122.574000   68.190800  -52.823100
  H    -123.196000   68.030600  -53.701900
  H    -121.913000   67.314100  -52.631700
  C    -121.704000   69.433300  -53.073600
  H    -120.961000   69.655400  -52.305900
  H    -122.326000   70.295500  -53.131900
  C    -120.855000   69.219500  -54.322400
  H    -121.556000   68.779000  -55.073100
  H    -120.132000   68.476000  -54.150600
  H    -120.371000   70.184800  -54.526400
  H    -128.403000   68.739000  -54.960700
  H    -123.578000   67.815500  -48.252000

 Total Charge           Charge          ....    0
 Multiplicity           Mult            ....    1
 Number of Electrons    NEL             ....  134
 Basis Dimension        Dim             ....  322

ORBITAL ENERGIES
----------------

  NO   OCC          E(Eh)            E(eV)
   0   2.0000     -88.965496     -2420.8742
   1   2.0000     -88.963732     -2420.8262
   2   2.0000     -10.328672      -281.0575
   3   2.0000     -10.323871      -280.9268
   4   2.0000     -10.319386      -280.8048
   5   2.0000     -10.307682      -280.4863
   6   2.0000     -10.303115      -280.3620
   7   2.0000     -10.299868      -280.2736
   8   2.0000     -10.299123      -280.2534
   9   2.0000     -10.291143      -280.0362
  10   2.0000     -10.290050      -280.0065
  11   2.0000     -10.288714      -279.9701
  12   2.0000     -10.287640      -279.9409
  13   2.0000     -10.279429      -279.7175
  14   2.0000     -10.274751      -279.5902
  15   2.0000     -10.271470      -279.5009
  16   2.0000      -8.081096      -219.8978
  17   2.0000      -8.078886      -219.8377
  18   2.0000      -6.039450      -164.3418
  19   2.0000      -6.037416      -164.2865
  20   2.0000      -6.035415      -164.2320
  21   2.0000      -6.033258      -164.1733
  22   2.0000      -6.032047      -164.1403
  23   2.0000      -6.029674      -164.0758
  24   2.0000      -1.008705       -27.4483
  25   2.0000      -0.987268       -26.8649
  26   2.0000      -0.914503       -24.8849
  27   2.0000      -0.908521       -24.7221
  28   2.0000      -0.867773       -23.6133
  29   2.0000      -0.850460       -23.1422
  30   2.0000      -0.844477       -22.9794
  31   2.0000      -0.819243       -22.2927
  32   2.0000      -0.786016       -21.3886
  33   2.0000      -0.767899       -20.8956
  34   2.0000      -0.715388       -19.4667
  35   2.0000      -0.698238       -19.0000
  36   2.0000      -0.690717       -18.7954
  37   2.0000      -0.656534       -17.8652
  38   2.0000      -0.649998       -17.6873
  39   2.0000      -0.625084       -17.0094
  40   2.0000      -0.593753       -16.1568
  41   2.0000      -0.566529       -15.4160
  42   2.0000      -0.563288       -15.3278
  43   2.0000      -0.556038       -15.1306
  44   2.0000      -0.538389       -14.6503
  45   2.0000      -0.529558       -14.4100
  46   2.0000      -0.521645       -14.1947
  47   2.0000      -0.512786       -13.9536
  48   2.0000      -0.505893       -13.7660
  49   2.0000      -0.497577       -13.5398
  50   2.0000      -0.492694       -13.4069
  51   2.0000      -0.481372       -13.0988
  52   2.0000      -0.470692       -12.8082
  53   2.0000      -0.467089       -12.7101
  54   2.0000      -0.456132       -12.4120
  55   2.0000      -0.444530       -12.0963
  56   2.0000      -0.441934       -12.0256
  57   2.0000      -0.441333       -12.0093
  58   2.0000      -0.438206       -11.9242
  59   2.0000      -0.431992       -11.7551
  60   2.0000      -0.422643       -11.5007
  61   2.0000      -0.417733       -11.3671
  62   2.0000      -0.408648       -11.1199
  63   2.0000      -0.339950        -9.2505
  64   2.0000      -0.329818        -8.9748
  65   2.0000      -0.325928        -8.8689
  66   2.0000      -0.300015        -8.1638
  67   0.0000       0.039669         1.0795
  68   0.0000       0.067108         1.8261
  69   0.0000       0.117551         3.1987
  70   0.0000       0.127939         3.4814
  71   0.0000       0.131899         3.5892

MULLIKEN ATOMIC CHARGES
-----------------------
   0 S :    0.122159
   1 C :   -0.132815
   2 C :   -0.088891
   3 C :    0.036296
   4 C :   -0.157808
   5 H :   -0.014614
   6 C :    0.129266
   7 H :    0.010166
   8 H :    0.029172
   9 C :   -0.056534
  10 H :    0.017013
  11 H :    0.040014
  12 C :   -0.046420
  13 H :    0.033708
  14 H :    0.013302
  15 H :    0.032479
  16 S :    0.106012
  17 C :   -0.110194
  18 C :   -0.059637
  19 C :   -0.042274
  20 C :   -0.153969
  21 H :    0.054323
  22 C :    0.044283
  23 H :    0.030008
  24 H :    0.028374
  25 C :   -0.057811
  26 H :    0.018812
  27 H :    0.017358
  28 C :   -0.024193
  29 H :    0.029114
  30 H :    0.017948
  31 H :    0.042318
  32 H :    0.027131
  33 H :    0.065906
Sum of atomic charges:   -0.0000000

LOEWDIN ATOMIC CHARGES
----------------------
   0 S :    0.426769
   1 C :   -0.187160
   2 C :   -0.053024
   3 C :   -0.056710
   4 C :   -0.208255
   5 H :    0.014008
   6 C :   -0.027442
   7 H :    0.029046
   8 H :    0.031474
   9 C :   -0.031624
  10 H :    0.012354
  11 H :    0.033227
  12 C :   -0.057729
  13 H :    0.034258
  14 H :    0.008450
  15 H :    0.025365
  16 S :    0.414139
  17 C :   -0.189594
  18 C :   -0.083926
  19 C :   -0.060915
  20 C :   -0.216600
  21 H :    0.048685
  22 C :   -0.031306
  23 H :    0.028811
  24 H :    0.034537
  25 C :   -0.038717
  26 H :    0.021697
  27 H :    0.015512
  28 C :   -0.059366
  29 H :    0.028972
  30 H :    0.016191
  31 H :    0.030675
  32 H :    0.012215
  33 H :    0.035979

  Mayer bond orders larger than 0.100000
B(  0-S ,  1-C ) :   1.1495 B(  0-S ,  4-C ) :   1.1775 B(  1-C ,  2-C ) :   1.5915
B(  1-C , 32-H ) :   0.9826 B(  2-C ,  3-C ) :   1.2453 B(  2-C ,  6-C ) :   0.9992
B(  3-C ,  4-C ) :   1.5522 B(  3-C ,  5-H ) :   1.0047 B(  4-C , 20-C ) :   1.0134
B(  6-C ,  7-H ) :   0.9329 B(  6-C ,  8-H ) :   0.9345 B(  6-C ,  9-C ) :   1.0694
B(  9-C , 10-H ) :   0.9533 B(  9-C , 11-H ) :   0.9571 B(  9-C , 12-C ) :   1.0791
B( 12-C , 13-H ) :   0.9735 B( 12-C , 14-H ) :   0.9773 B( 12-C , 15-H ) :   0.9730
B( 16-S , 17-C ) :   1.1632 B( 16-S , 20-C ) :   1.1363 B( 17-C , 18-C ) :   1.6077
B( 17-C , 33-H ) :   0.9650 B( 18-C , 19-C ) :   1.2482 B( 18-C , 21-H ) :   0.9758
B( 19-C , 20-C ) :   1.6074 B( 19-C , 22-C ) :   1.0436 B( 22-C , 23-H ) :   0.9259
B( 22-C , 24-H ) :   0.9363 B( 22-C , 25-C ) :   1.0776 B( 25-C , 26-H ) :   0.9518
B( 25-C , 27-H ) :   0.9536 B( 25-C , 28-C ) :   1.0794 B( 28-C , 29-H ) :   0.9732
B( 28-C , 30-H ) :   0.9759 B( 28-C , 31-H ) :   0.9728

Dispersion correction           -0.014426127
FINAL SINGLE POINT ENERGY     -1339.872763020326

DIPOLE MOMENT
-------------
                                X             Y             Z
Electronic contribution:    -14.52853     -17.15561      16.28114
Nuclear contribution   :     14.88928      17.50175     -16.62239
                        -----------------------------------------
Total Dipole Moment    :      0.36076       0.34613      -0.34125
                        -----------------------------------------
Magnitude (a.u.)       :      0.60531
Magnitude (Debye)      :      1.53858

Rotational constants in cm-1:     0.016288     0.009671     0.007455
Rotational constants in MHz :   488.296105   289.927613   223.504183

                             ****ORCA TERMINATED NORMALLY****
TOTAL RUN TIME: 0 days 0 hours 0 minutes 21 seconds 938 msec
