                         Program Version 4.2.1 -  RELEASE  -
|  1> ! wB97X-D3 SP def2-SVP
|  2> %pal
|  3> nprocs 24
|  4> end
|  5>
|  6> * xyz 0 1
|  7> S 	 -95.622 	 50.703 	 -99.7951
|  8> C 	 -94.7958 	 52.0806 	 -99.0822
|  9> C 	 -95.5651 	 52.6496 	 -98.0622
| 10> C 	 -96.7077 	 51.9145 	 -97.8192
| 11> C 	 -97.0161 	 50.9515 	 -98.7233
| 12> H 	 -97.4903 	 52.0735 	 -97.0623
| 13> C 	 -95.2174 	 53.966 	 -97.4709
| 14> H 	 -96.1565 	 54.4974 	 -97.1908
| 15> H 	 -94.8787 	 54.6696 	 -98.148
| 16> C 	 -94.2569 	 53.9478 	 -96.2964
| 17> H 	 -94.507 	 53.2312 	 -95.59
| 18> H 	 -93.28 	 53.6091 	 -96.7367
| 19> C 	 -93.9122 	 55.2848 	 -95.5872
| 20> H 	 -94.7883 	 55.5916 	 -94.958
| 21> H 	 -92.9995 	 55.2017 	 -95.0165
| 22> H 	 -93.8561 	 56.1045 	 -96.2976
| 23> S 	 -98.2702 	 48.4569 	 -98.6073
| 24> C 	 -99.9898 	 48.3894 	 -98.6466
| 25> C 	 -100.547 	 49.6204 	 -98.5981
| 26> C 	 -99.5454 	 50.6728 	 -98.6389
| 27> C 	 -98.2256 	 50.2176 	 -98.7712
| 28> H 	 -101.582 	 49.7798 	 -98.5102
| 29> C 	 -100.072 	 52.108 	 -98.5391
| 30> H 	 -99.2891 	 52.758 	 -98.2955
| 31> H 	 -100.717 	 52.3103 	 -97.679
| 32> C 	 -100.836 	 52.7237 	 -99.7212
| 33> H 	 -101.827 	 52.3068 	 -99.7951
| 34> H 	 -100.283 	 52.5014 	 -100.692
| 35> C 	 -100.761 	 54.2858 	 -99.632
| 36> H 	 -101.148 	 54.7305 	 -100.562
| 37> H 	 -99.7214 	 54.6787 	 -99.5288
| 38> H 	 -101.357 	 54.7958 	 -98.8553
| 39> H 	 -93.9176 	 52.5627 	 -99.4091
| 40> H 	 -100.508 	 47.5019 	 -98.383
| 41> *
| 42>
| 43>                          ****END OF INPUT****

CARTESIAN COORDINATES (ANGSTROEM)
---------------------------------
  S    -95.622000   50.703000  -99.795100
  C    -94.795800   52.080600  -99.082200
  C    -95.565100   52.649600  -98.062200
  C    -96.707700   51.914500  -97.819200
  C    -97.016100   50.951500  -98.723300
  H    -97.490300   52.073500  -97.062300
  C    -95.217400   53.966000  -97.470900
  H    -96.156500   54.497400  -97.190800
  H    -94.878700   54.669600  -98.148000
  C    -94.256900   53.947800  -96.296400
  H    -94.507000   53.231200  -95.590000
  H    -93.280000   53.609100  -96.736700
  C    -93.912200   55.284800  -95.587200
  H    -94.788300   55.591600  -94.958000
  H    -92.999500   55.201700  -95.016500
  H    -93.856100   56.104500  -96.297600
  S    -98.270200   48.456900  -98.607300
  C    -99.989800   48.389400  -98.646600
  C    -100.547000   49.620400  -98.598100
  C    -99.545400   50.672800  -98.638900
  C    -98.225600   50.217600  -98.771200
  H    -101.582000   49.779800  -98.510200
  C    -100.072000   52.108000  -98.539100
  H    -99.289100   52.758000  -98.295500
  H    -100.717000   52.310300  -97.679000
  C    -100.836000   52.723700  -99.721200
  H    -101.827000   52.306800  -99.795100
  H    -100.283000   52.501400  -100.692000
  C    -100.761000   54.285800  -99.632000
  H    -101.148000   54.730500  -100.562000
  H    -99.721400   54.678700  -99.528800
  H    -101.357000   54.795800  -98.855300
  H    -93.917600   52.562700  -99.409100
  H    -100.508000   47.501900  -98.383000

 Total Charge           Charge          ....    0
 Multiplicity           Mult            ....    1
 Number of Electrons    NEL             ....  134
 Basis Dimension        Dim             ....  322

ORBITAL ENERGIES
----------------

  NO   OCC          E(Eh)            E(eV)
   0   2.0000     -88.968202     -2420.9479
   1   2.0000     -88.962858     -2420.8024
   2   2.0000     -10.329040      -281.0675
   3   2.0000     -10.325336      -280.9667
   4   2.0000     -10.313853      -280.6542
   5   2.0000     -10.312619      -280.6206
   6   2.0000     -10.309127      -280.5256
   7   2.0000     -10.298043      -280.2240
   8   2.0000     -10.293082      -280.0890
   9   2.0000     -10.289972      -280.0044
  10   2.0000     -10.289802      -279.9997
  11   2.0000     -10.286786      -279.9177
  12   2.0000     -10.285323      -279.8779
  13   2.0000     -10.285107      -279.8720
  14   2.0000     -10.283106      -279.8175
  15   2.0000     -10.282605      -279.8039
  16   2.0000      -8.082259      -219.9294
  17   2.0000      -8.078214      -219.8194
  18   2.0000      -6.040797      -164.3784
  19   2.0000      -6.036811      -164.2700
  20   2.0000      -6.036774      -164.2690
  21   2.0000      -6.033057      -164.1678
  22   2.0000      -6.032661      -164.1570
  23   2.0000      -6.028849      -164.0533
  24   2.0000      -1.010467       -27.4962
  25   2.0000      -0.988093       -26.8874
  26   2.0000      -0.916021       -24.9262
  27   2.0000      -0.905674       -24.6447
  28   2.0000      -0.876998       -23.8643
  29   2.0000      -0.852637       -23.2014
  30   2.0000      -0.843737       -22.9592
  31   2.0000      -0.819115       -22.2893
  32   2.0000      -0.785035       -21.3619
  33   2.0000      -0.771915       -21.0049
  34   2.0000      -0.711710       -19.3666
  35   2.0000      -0.704099       -19.1595
  36   2.0000      -0.699517       -19.0348
  37   2.0000      -0.662439       -18.0259
  38   2.0000      -0.648929       -17.6583
  39   2.0000      -0.623378       -16.9630
  40   2.0000      -0.604868       -16.4593
  41   2.0000      -0.575655       -15.6644
  42   2.0000      -0.561774       -15.2866
  43   2.0000      -0.557464       -15.1694
  44   2.0000      -0.533061       -14.5053
  45   2.0000      -0.526516       -14.3272
  46   2.0000      -0.515516       -14.0279
  47   2.0000      -0.513966       -13.9857
  48   2.0000      -0.506087       -13.7713
  49   2.0000      -0.498802       -13.5731
  50   2.0000      -0.497412       -13.5353
  51   2.0000      -0.476237       -12.9591
  52   2.0000      -0.474989       -12.9251
  53   2.0000      -0.464623       -12.6430
  54   2.0000      -0.459231       -12.4963
  55   2.0000      -0.450574       -12.2607
  56   2.0000      -0.443251       -12.0615
  57   2.0000      -0.441251       -12.0071
  58   2.0000      -0.436231       -11.8705
  59   2.0000      -0.427064       -11.6210
  60   2.0000      -0.419657       -11.4195
  61   2.0000      -0.414200       -11.2710
  62   2.0000      -0.404738       -11.0135
  63   2.0000      -0.351721        -9.5708
  64   2.0000      -0.333976        -9.0879
  65   2.0000      -0.327676        -8.9165
  66   2.0000      -0.292721        -7.9653
  67   0.0000       0.027354         0.7443
  68   0.0000       0.064477         1.7545
  69   0.0000       0.110728         3.0131
  70   0.0000       0.115214         3.1351
  71   0.0000       0.138417         3.7665

MULLIKEN ATOMIC CHARGES
-----------------------
   0 S :    0.117133
   1 C :   -0.082052
   2 C :   -0.077994
   3 C :    0.029503
   4 C :   -0.182903
   5 H :    0.024535
   6 C :    0.086037
   7 H :    0.011858
   8 H :   -0.000501
   9 C :   -0.071748
  10 H :    0.018266
  11 H :    0.019800
  12 C :   -0.041643
  13 H :    0.033044
  14 H :    0.046951
  15 H :    0.020135
  16 S :    0.095334
  17 C :   -0.061011
  18 C :   -0.012135
  19 C :   -0.041547
  20 C :   -0.125029
  21 H :    0.004978
  22 C :    0.079079
  23 H :   -0.024223
  24 H :    0.023053
  25 C :   -0.066371
  26 H :    0.032960
  27 H :    0.044542
  28 C :   -0.094361
  29 H :    0.033661
  30 H :    0.043746
  31 H :    0.033080
  32 H :    0.029831
  33 H :    0.053995
Sum of atomic charges:   -0.0000000

LOEWDIN ATOMIC CHARGES
----------------------
   0 S :    0.396896
   1 C :   -0.179653
   2 C :   -0.064230
   3 C :   -0.057755
   4 C :   -0.189987
   5 H :    0.037670
   6 C :   -0.033469
   7 H :    0.031506
   8 H :    0.021265
   9 C :   -0.036419
  10 H :    0.013933
  11 H :    0.025758
  12 C :   -0.065109
  13 H :    0.028529
  14 H :    0.028710
  15 H :    0.021263
  16 S :    0.406609
  17 C :   -0.181086
  18 C :   -0.064472
  19 C :   -0.043758
  20 C :   -0.199608
  21 H :    0.024874
  22 C :   -0.041048
  23 H :    0.014792
  24 H :    0.034253
  25 C :   -0.035671
  26 H :    0.019434
  27 H :    0.035040
  28 C :   -0.075574
  29 H :    0.027239
  30 H :    0.030819
  31 H :    0.022709
  32 H :    0.020741
  33 H :    0.025798

  Mayer bond orders larger than 0.100000
B(  0-S ,  1-C ) :   1.1452 B(  0-S ,  4-C ) :   1.1280 B(  1-C ,  2-C ) :   1.5919
B(  1-C ,  4-C ) :   0.1084 B(  1-C , 32-H ) :   0.9711 B(  2-C ,  3-C ) :   1.2541
B(  2-C ,  6-C ) :   1.0238 B(  3-C ,  4-C ) :   1.5855 B(  3-C ,  5-H ) :   0.9845
B(  4-C , 20-C ) :   1.0732 B(  6-C ,  7-H ) :   0.9383 B(  6-C ,  8-H ) :   0.9319
B(  6-C ,  9-C ) :   1.0602 B(  9-C , 10-H ) :   0.9599 B(  9-C , 11-H ) :   0.9553
B(  9-C , 12-C ) :   1.0782 B( 12-C , 13-H ) :   0.9745 B( 12-C , 14-H ) :   0.9758
B( 12-C , 15-H ) :   0.9741 B( 16-S , 17-C ) :   1.1620 B( 16-S , 20-C ) :   1.1264
B( 17-C , 18-C ) :   1.6029 B( 17-C , 33-H ) :   0.9663 B( 18-C , 19-C ) :   1.2375
B( 18-C , 21-H ) :   1.0030 B( 19-C , 20-C ) :   1.5857 B( 19-C , 22-C ) :   1.0465
B( 22-C , 23-H ) :   0.9279 B( 22-C , 24-H ) :   0.9324 B( 22-C , 25-C ) :   1.0609
B( 25-C , 26-H ) :   0.9574 B( 25-C , 27-H ) :   0.9573 B( 25-C , 28-C ) :   1.0724
B( 28-C , 29-H ) :   0.9761 B( 28-C , 30-H ) :   0.9745 B( 28-C , 31-H ) :   0.9774

Dispersion correction           -0.013667008
FINAL SINGLE POINT ENERGY     -1339.865874908451

DIPOLE MOMENT
-------------
                                X             Y             Z
Electronic contribution:      2.98725     -29.18614      -8.92241
Nuclear contribution   :     -3.32099      29.84953       9.26529
                        -----------------------------------------
Total Dipole Moment    :     -0.33374       0.66338       0.34288
                        -----------------------------------------
Magnitude (a.u.)       :      0.81794
Magnitude (Debye)      :      2.07905

Rotational constants in cm-1:     0.017486     0.008156     0.006452
Rotational constants in MHz :   524.220757   244.500269   193.427031

                             ****ORCA TERMINATED NORMALLY****
TOTAL RUN TIME: 0 days 0 hours 0 minutes 21 seconds 254 msec
