                         Program Version 4.2.1 -  RELEASE  -
|  1> ! wB97X-D3 SP def2-SVP
|  2> %pal
|  3> nprocs 24
|  4> end
|  5>
|  6> * xyz 0 1
|  7> S 	 -126.241 	 63.7168 	 -44.3138
|  8> C 	 -124.832 	 64.2164 	 -45.1855
|  9> C 	 -124.126 	 65.2499 	 -44.5998
| 10> C 	 -124.815 	 65.637 	 -43.36
| 11> C 	 -126.059 	 65.0108 	 -43.2162
| 12> H 	 -124.345 	 66.3711 	 -42.6553
| 13> C 	 -123.077 	 66.1368 	 -45.2325
| 14> H 	 -123.233 	 67.0712 	 -44.9304
| 15> H 	 -123.203 	 66.0785 	 -46.27
| 16> C 	 -121.613 	 65.9012 	 -44.9381
| 17> H 	 -121.035 	 66.6654 	 -45.3288
| 18> H 	 -121.54 	 65.8789 	 -43.8092
| 19> C 	 -121.165 	 64.6155 	 -45.5605
| 20> H 	 -120.102 	 64.4596 	 -45.2347
| 21> H 	 -121.809 	 63.8931 	 -45.1649
| 22> H 	 -121.083 	 64.6868 	 -46.6095
| 23> S 	 -127.062 	 64.0683 	 -40.8249
| 24> C 	 -127.773 	 65.2617 	 -39.7219
| 25> C 	 -128.079 	 66.3848 	 -40.4324
| 26> C 	 -127.652 	 66.4243 	 -41.7973
| 27> C 	 -126.969 	 65.2714 	 -42.1261
| 28> H 	 -128.484 	 67.2973 	 -39.9915
| 29> C 	 -127.78 	 67.7495 	 -42.6384
| 30> H 	 -126.776 	 67.9257 	 -43.0841
| 31> H 	 -127.998 	 68.5409 	 -41.9412
| 32> C 	 -128.752 	 67.7385 	 -43.8523
| 33> H 	 -129.667 	 67.3856 	 -43.4583
| 34> H 	 -128.457 	 66.9958 	 -44.6122
| 35> C 	 -128.803 	 69.1417 	 -44.6026
| 36> H 	 -129.059 	 69.9253 	 -43.9058
| 37> H 	 -129.59 	 69.0888 	 -45.3949
| 38> H 	 -127.91 	 69.4378 	 -45.0754
| 39> H 	 -124.64 	 63.9133 	 -46.2449
| 40> H 	 -128.222 	 65.0465 	 -38.7364
| 41> *
| 42>
| 43>                          ****END OF INPUT****

CARTESIAN COORDINATES (ANGSTROEM)
---------------------------------
  S    -126.241000   63.716800  -44.313800
  C    -124.832000   64.216400  -45.185500
  C    -124.126000   65.249900  -44.599800
  C    -124.815000   65.637000  -43.360000
  C    -126.059000   65.010800  -43.216200
  H    -124.345000   66.371100  -42.655300
  C    -123.077000   66.136800  -45.232500
  H    -123.233000   67.071200  -44.930400
  H    -123.203000   66.078500  -46.270000
  C    -121.613000   65.901200  -44.938100
  H    -121.035000   66.665400  -45.328800
  H    -121.540000   65.878900  -43.809200
  C    -121.165000   64.615500  -45.560500
  H    -120.102000   64.459600  -45.234700
  H    -121.809000   63.893100  -45.164900
  H    -121.083000   64.686800  -46.609500
  S    -127.062000   64.068300  -40.824900
  C    -127.773000   65.261700  -39.721900
  C    -128.079000   66.384800  -40.432400
  C    -127.652000   66.424300  -41.797300
  C    -126.969000   65.271400  -42.126100
  H    -128.484000   67.297300  -39.991500
  C    -127.780000   67.749500  -42.638400
  H    -126.776000   67.925700  -43.084100
  H    -127.998000   68.540900  -41.941200
  C    -128.752000   67.738500  -43.852300
  H    -129.667000   67.385600  -43.458300
  H    -128.457000   66.995800  -44.612200
  C    -128.803000   69.141700  -44.602600
  H    -129.059000   69.925300  -43.905800
  H    -129.590000   69.088800  -45.394900
  H    -127.910000   69.437800  -45.075400
  H    -124.640000   63.913300  -46.244900
  H    -128.222000   65.046500  -38.736400

 Total Charge           Charge          ....    0
 Multiplicity           Mult            ....    1
 Number of Electrons    NEL             ....  134
 Basis Dimension        Dim             ....  322

ORBITAL ENERGIES
----------------

  NO   OCC          E(Eh)            E(eV)
   0   2.0000     -88.969007     -2420.9698
   1   2.0000     -88.962693     -2420.7979
   2   2.0000     -10.328090      -281.0416
   3   2.0000     -10.325750      -280.9779
   4   2.0000     -10.319353      -280.8039
   5   2.0000     -10.315960      -280.7115
   6   2.0000     -10.304617      -280.4029
   7   2.0000     -10.304147      -280.3901
   8   2.0000     -10.302671      -280.3499
   9   2.0000     -10.296757      -280.1890
  10   2.0000     -10.292528      -280.0739
  11   2.0000     -10.287409      -279.9346
  12   2.0000     -10.280392      -279.7437
  13   2.0000     -10.278369      -279.6886
  14   2.0000     -10.276246      -279.6309
  15   2.0000     -10.266241      -279.3586
  16   2.0000      -8.084876      -220.0007
  17   2.0000      -8.076974      -219.7856
  18   2.0000      -6.043292      -164.4463
  19   2.0000      -6.039262      -164.3367
  20   2.0000      -6.035658      -164.2386
  21   2.0000      -6.035625      -164.2377
  22   2.0000      -6.031545      -164.1267
  23   2.0000      -6.027573      -164.0186
  24   2.0000      -1.008777       -27.4502
  25   2.0000      -0.983467       -26.7615
  26   2.0000      -0.925855       -25.1938
  27   2.0000      -0.896512       -24.3953
  28   2.0000      -0.871359       -23.7109
  29   2.0000      -0.851525       -23.1712
  30   2.0000      -0.842951       -22.9379
  31   2.0000      -0.808637       -22.0041
  32   2.0000      -0.789304       -21.4781
  33   2.0000      -0.774573       -21.0772
  34   2.0000      -0.709517       -19.3069
  35   2.0000      -0.698518       -19.0076
  36   2.0000      -0.690623       -18.7928
  37   2.0000      -0.659995       -17.9594
  38   2.0000      -0.636815       -17.3286
  39   2.0000      -0.619364       -16.8537
  40   2.0000      -0.591025       -16.0826
  41   2.0000      -0.580044       -15.7838
  42   2.0000      -0.560259       -15.2454
  43   2.0000      -0.556930       -15.1548
  44   2.0000      -0.551249       -15.0002
  45   2.0000      -0.517852       -14.0915
  46   2.0000      -0.514378       -13.9969
  47   2.0000      -0.509030       -13.8514
  48   2.0000      -0.502707       -13.6793
  49   2.0000      -0.498249       -13.5580
  50   2.0000      -0.490571       -13.3491
  51   2.0000      -0.489262       -13.3135
  52   2.0000      -0.469348       -12.7716
  53   2.0000      -0.467000       -12.7077
  54   2.0000      -0.455589       -12.3972
  55   2.0000      -0.452023       -12.3002
  56   2.0000      -0.440794       -11.9946
  57   2.0000      -0.436151       -11.8683
  58   2.0000      -0.432969       -11.7817
  59   2.0000      -0.429372       -11.6838
  60   2.0000      -0.424212       -11.5434
  61   2.0000      -0.416660       -11.3379
  62   2.0000      -0.411266       -11.1911
  63   2.0000      -0.338394        -9.2082
  64   2.0000      -0.328404        -8.9363
  65   2.0000      -0.327831        -8.9207
  66   2.0000      -0.301606        -8.2071
  67   0.0000       0.036937         1.0051
  68   0.0000       0.054967         1.4957
  69   0.0000       0.110585         3.0092
  70   0.0000       0.113216         3.0808
  71   0.0000       0.130782         3.5587

MULLIKEN ATOMIC CHARGES
-----------------------
   0 S :    0.130113
   1 C :   -0.128243
   2 C :   -0.122645
   3 C :    0.025172
   4 C :   -0.177595
   5 H :    0.039436
   6 C :    0.142842
   7 H :   -0.015136
   8 H :    0.000062
   9 C :   -0.064948
  10 H :    0.011533
  11 H :    0.029050
  12 C :   -0.024555
  13 H :    0.029764
  14 H :    0.030504
  15 H :    0.019129
  16 S :    0.096389
  17 C :   -0.094153
  18 C :   -0.048274
  19 C :   -0.030841
  20 C :   -0.164868
  21 H :    0.020595
  22 C :    0.073406
  23 H :    0.027714
  24 H :    0.014270
  25 C :   -0.064533
  26 H :    0.020667
  27 H :    0.039395
  28 C :   -0.044725
  29 H :    0.026035
  30 H :    0.041172
  31 H :    0.026781
  32 H :    0.063385
  33 H :    0.073102
Sum of atomic charges:   -0.0000000

LOEWDIN ATOMIC CHARGES
----------------------
   0 S :    0.432152
   1 C :   -0.211222
   2 C :   -0.061312
   3 C :   -0.055899
   4 C :   -0.216826
   5 H :    0.039113
   6 C :   -0.017250
   7 H :    0.013980
   8 H :    0.024516
   9 C :   -0.030372
  10 H :    0.012945
  11 H :    0.028218
  12 C :   -0.057398
  13 H :    0.031504
  14 H :    0.019328
  15 H :    0.018138
  16 S :    0.381386
  17 C :   -0.186228
  18 C :   -0.075580
  19 C :   -0.054414
  20 C :   -0.192220
  21 H :    0.030109
  22 C :   -0.027099
  23 H :    0.033220
  24 H :    0.023247
  25 C :   -0.033723
  26 H :    0.016029
  27 H :    0.029122
  28 C :   -0.061066
  29 H :    0.021447
  30 H :    0.032944
  31 H :    0.018516
  32 H :    0.035002
  33 H :    0.039693

  Mayer bond orders larger than 0.100000
B(  0-S ,  1-C ) :   1.1417 B(  0-S ,  4-C ) :   1.1593 B(  1-C ,  2-C ) :   1.6260
B(  1-C , 32-H ) :   0.9535 B(  2-C ,  3-C ) :   1.2344 B(  2-C ,  6-C ) :   1.0205
B(  3-C ,  4-C ) :   1.5799 B(  3-C ,  5-H ) :   0.9812 B(  4-C , 20-C ) :   1.0179
B(  6-C ,  7-H ) :   0.9297 B(  6-C ,  8-H ) :   0.9355 B(  6-C ,  9-C ) :   1.0813
B(  9-C , 10-H ) :   0.9503 B(  9-C , 11-H ) :   0.9542 B(  9-C , 12-C ) :   1.0878
B( 12-C , 13-H ) :   0.9708 B( 12-C , 14-H ) :   0.9771 B( 12-C , 15-H ) :   0.9734
B( 16-S , 17-C ) :   1.1342 B( 16-S , 20-C ) :   1.1372 B( 17-C , 18-C ) :   1.6275
B( 17-C , 33-H ) :   0.9606 B( 18-C , 19-C ) :   1.2493 B( 18-C , 21-H ) :   0.9782
B( 19-C , 20-C ) :   1.6210 B( 19-C , 22-C ) :   1.0249 B( 22-C , 23-H ) :   0.9342
B( 22-C , 24-H ) :   0.9403 B( 22-C , 25-C ) :   1.0596 B( 25-C , 26-H ) :   0.9595
B( 25-C , 27-H ) :   0.9583 B( 25-C , 28-C ) :   1.0700 B( 28-C , 29-H ) :   0.9778
B( 28-C , 30-H ) :   0.9769 B( 28-C , 31-H ) :   0.9779

Dispersion correction           -0.014041947
FINAL SINGLE POINT ENERGY     -1339.854731174094

DIPOLE MOMENT
-------------
                                X             Y             Z
Electronic contribution:    -10.07329     -18.87353      13.44863
Nuclear contribution   :     10.26472      19.62754     -13.68925
                        -----------------------------------------
Total Dipole Moment    :      0.19143       0.75401      -0.24062
                        -----------------------------------------
Magnitude (a.u.)       :      0.81430
Magnitude (Debye)      :      2.06978

Rotational constants in cm-1:     0.017801     0.008324     0.006809
Rotational constants in MHz :   533.670628   249.546586   204.136655

                             ****ORCA TERMINATED NORMALLY****
TOTAL RUN TIME: 0 days 0 hours 0 minutes 21 seconds 288 msec
