                         Program Version 4.2.1 -  RELEASE  -
|  1> ! wB97X-D3 SP def2-SVP
|  2> %pal
|  3> nprocs 24
|  4> end
|  5>
|  6> * xyz 0 1
|  7> S 	 -53.4525 	 19.4035 	 -94.6975
|  8> C 	 -52.0254 	 20.1246 	 -94.0055
|  9> C 	 -51.3023 	 20.8672 	 -94.9744
| 10> C 	 -51.8595 	 20.7975 	 -96.2756
| 11> C 	 -53.132 	 20.1946 	 -96.2948
| 12> H 	 -51.4886 	 21.3879 	 -97.2022
| 13> C 	 -50.0001 	 21.6399 	 -94.7476
| 14> H 	 -49.981 	 21.9612 	 -93.711
| 15> H 	 -50.0668 	 22.5256 	 -95.4195
| 16> C 	 -48.6435 	 20.9549 	 -95.1154
| 17> H 	 -48.6174 	 20.5692 	 -96.1365
| 18> H 	 -47.8607 	 21.6823 	 -95.1242
| 19> C 	 -48.2426 	 19.8383 	 -94.1784
| 20> H 	 -47.1714 	 19.6819 	 -94.3264
| 21> H 	 -48.4764 	 19.9458 	 -93.1811
| 22> H 	 -48.7766 	 18.9448 	 -94.4142
| 23> S 	 -55.446 	 21.2554 	 -97.4542
| 24> C 	 -55.89 	 20.667 	 -99.0589
| 25> C 	 -54.9748 	 19.8201 	 -99.525
| 26> C 	 -53.8479 	 19.6235 	 -98.6844
| 27> C 	 -54.0445 	 20.1807 	 -97.4278
| 28> H 	 -54.9866 	 19.4959 	 -100.563
| 29> C 	 -52.7247 	 18.5957 	 -99.0315
| 30> H 	 -53.2264 	 17.6874 	 -99.3792
| 31> H 	 -52.1084 	 18.3174 	 -98.1905
| 32> C 	 -51.6634 	 19.1161 	 -100.083
| 33> H 	 -51.3595 	 20.1199 	 -99.7995
| 34> H 	 -52.2077 	 19.2471 	 -101.015
| 35> C 	 -50.4212 	 18.2602 	 -100.282
| 36> H 	 -50.791 	 17.2732 	 -100.376
| 37> H 	 -49.7928 	 18.2147 	 -99.4329
| 38> H 	 -49.8595 	 18.637 	 -101.128
| 39> H 	 -51.7911 	 20.1458 	 -92.9217
| 40> H 	 -56.7078 	 20.9561 	 -99.6886
| 41> *
| 42>
| 43>                          ****END OF INPUT****

CARTESIAN COORDINATES (ANGSTROEM)
---------------------------------
  S    -53.452500   19.403500  -94.697500
  C    -52.025400   20.124600  -94.005500
  C    -51.302300   20.867200  -94.974400
  C    -51.859500   20.797500  -96.275600
  C    -53.132000   20.194600  -96.294800
  H    -51.488600   21.387900  -97.202200
  C    -50.000100   21.639900  -94.747600
  H    -49.981000   21.961200  -93.711000
  H    -50.066800   22.525600  -95.419500
  C    -48.643500   20.954900  -95.115400
  H    -48.617400   20.569200  -96.136500
  H    -47.860700   21.682300  -95.124200
  C    -48.242600   19.838300  -94.178400
  H    -47.171400   19.681900  -94.326400
  H    -48.476400   19.945800  -93.181100
  H    -48.776600   18.944800  -94.414200
  S    -55.446000   21.255400  -97.454200
  C    -55.890000   20.667000  -99.058900
  C    -54.974800   19.820100  -99.525000
  C    -53.847900   19.623500  -98.684400
  C    -54.044500   20.180700  -97.427800
  H    -54.986600   19.495900  -100.563000
  C    -52.724700   18.595700  -99.031500
  H    -53.226400   17.687400  -99.379200
  H    -52.108400   18.317400  -98.190500
  C    -51.663400   19.116100  -100.083000
  H    -51.359500   20.119900  -99.799500
  H    -52.207700   19.247100  -101.015000
  C    -50.421200   18.260200  -100.282000
  H    -50.791000   17.273200  -100.376000
  H    -49.792800   18.214700  -99.432900
  H    -49.859500   18.637000  -101.128000
  H    -51.791100   20.145800  -92.921700
  H    -56.707800   20.956100  -99.688600

 Total Charge           Charge          ....    0
 Multiplicity           Mult            ....    1
 Number of Electrons    NEL             ....  134
 Basis Dimension        Dim             ....  322

ORBITAL ENERGIES
----------------

  NO   OCC          E(Eh)            E(eV)
   0   2.0000     -88.969871     -2420.9933
   1   2.0000     -88.965237     -2420.8672
   2   2.0000     -10.335068      -281.2315
   3   2.0000     -10.326889      -281.0089
   4   2.0000     -10.321965      -280.8749
   5   2.0000     -10.313779      -280.6522
   6   2.0000     -10.305313      -280.4218
   7   2.0000     -10.304639      -280.4035
   8   2.0000     -10.304471      -280.3989
   9   2.0000     -10.296021      -280.1690
  10   2.0000     -10.293686      -280.1054
  11   2.0000     -10.287375      -279.9337
  12   2.0000     -10.284841      -279.8648
  13   2.0000     -10.284604      -279.8583
  14   2.0000     -10.271286      -279.4959
  15   2.0000     -10.264263      -279.3048
  16   2.0000      -8.083463      -219.9622
  17   2.0000      -8.079556      -219.8559
  18   2.0000      -6.041994      -164.4110
  19   2.0000      -6.038157      -164.3066
  20   2.0000      -6.038059      -164.3039
  21   2.0000      -6.034333      -164.2026
  22   2.0000      -6.034200      -164.1989
  23   2.0000      -6.030144      -164.0886
  24   2.0000      -1.002587       -27.2818
  25   2.0000      -0.979770       -26.6609
  26   2.0000      -0.906622       -24.6704
  27   2.0000      -0.901602       -24.5338
  28   2.0000      -0.870802       -23.6957
  29   2.0000      -0.850900       -23.1542
  30   2.0000      -0.848705       -23.0944
  31   2.0000      -0.813140       -22.1267
  32   2.0000      -0.782043       -21.2805
  33   2.0000      -0.770586       -20.9687
  34   2.0000      -0.709092       -19.2954
  35   2.0000      -0.699015       -19.0212
  36   2.0000      -0.695366       -18.9219
  37   2.0000      -0.655476       -17.8364
  38   2.0000      -0.634397       -17.2628
  39   2.0000      -0.615026       -16.7357
  40   2.0000      -0.596663       -16.2360
  41   2.0000      -0.564586       -15.3632
  42   2.0000      -0.561022       -15.2662
  43   2.0000      -0.548039       -14.9129
  44   2.0000      -0.536194       -14.5906
  45   2.0000      -0.532040       -14.4775
  46   2.0000      -0.520445       -14.1620
  47   2.0000      -0.512260       -13.9393
  48   2.0000      -0.505303       -13.7500
  49   2.0000      -0.492427       -13.3996
  50   2.0000      -0.484363       -13.1802
  51   2.0000      -0.481950       -13.1145
  52   2.0000      -0.476751       -12.9731
  53   2.0000      -0.465210       -12.6590
  54   2.0000      -0.459437       -12.5019
  55   2.0000      -0.449877       -12.2418
  56   2.0000      -0.446755       -12.1568
  57   2.0000      -0.432215       -11.7612
  58   2.0000      -0.430047       -11.7022
  59   2.0000      -0.427610       -11.6359
  60   2.0000      -0.424619       -11.5545
  61   2.0000      -0.413299       -11.2464
  62   2.0000      -0.410347       -11.1661
  63   2.0000      -0.342715        -9.3257
  64   2.0000      -0.330998        -9.0069
  65   2.0000      -0.325094        -8.8463
  66   2.0000      -0.300300        -8.1716
  67   0.0000       0.030019         0.8168
  68   0.0000       0.058931         1.6036
  69   0.0000       0.112976         3.0742
  70   0.0000       0.117926         3.2089
  71   0.0000       0.120688         3.2841

MULLIKEN ATOMIC CHARGES
-----------------------
   0 S :    0.115813
   1 C :   -0.128972
   2 C :   -0.101338
   3 C :    0.015739
   4 C :   -0.185519
   5 H :    0.057313
   6 C :    0.051419
   7 H :    0.022869
   8 H :    0.030446
   9 C :   -0.052660
  10 H :    0.021415
  11 H :    0.019959
  12 C :   -0.014143
  13 H :    0.032175
  14 H :    0.003851
  15 H :    0.024522
  16 S :    0.108262
  17 C :   -0.069770
  18 C :   -0.024146
  19 C :   -0.016817
  20 C :   -0.168218
  21 H :    0.020688
  22 C :    0.043516
  23 H :    0.035637
  24 H :    0.023323
  25 C :   -0.101494
  26 H :    0.017340
  27 H :    0.020314
  28 C :    0.005986
  29 H :    0.016352
  30 H :    0.020858
  31 H :    0.041514
  32 H :    0.066129
  33 H :    0.047637
Sum of atomic charges:   -0.0000000

LOEWDIN ATOMIC CHARGES
----------------------
   0 S :    0.393659
   1 C :   -0.211214
   2 C :   -0.069728
   3 C :   -0.064456
   4 C :   -0.183929
   5 H :    0.050624
   6 C :   -0.030031
   7 H :    0.027669
   8 H :    0.034619
   9 C :   -0.036195
  10 H :    0.025144
  11 H :    0.019361
  12 C :   -0.060237
  13 H :    0.030493
  14 H :    0.011228
  15 H :    0.024963
  16 S :    0.392315
  17 C :   -0.172636
  18 C :   -0.077316
  19 C :   -0.048591
  20 C :   -0.200310
  21 H :    0.033340
  22 C :   -0.026612
  23 H :    0.030579
  24 H :    0.025856
  25 C :   -0.039320
  26 H :    0.017263
  27 H :    0.017989
  28 C :   -0.056633
  29 H :    0.021665
  30 H :    0.020065
  31 H :    0.031518
  32 H :    0.036794
  33 H :    0.032064

  Mayer bond orders larger than 0.100000
B(  0-S ,  1-C ) :   1.1479 B(  0-S ,  4-C ) :   1.1423 B(  1-C ,  2-C ) :   1.5829
B(  1-C ,  4-C ) :   0.1076 B(  1-C , 32-H ) :   0.9628 B(  2-C ,  3-C ) :   1.2656
B(  2-C ,  6-C ) :   1.0287 B(  3-C ,  4-C ) :   1.5680 B(  3-C ,  5-H ) :   0.9704
B(  4-C , 20-C ) :   1.0454 B(  6-C ,  7-H ) :   0.9437 B(  6-C ,  8-H ) :   0.9392
B(  6-C ,  9-C ) :   1.0742 B(  9-C , 10-H ) :   0.9532 B(  9-C , 11-H ) :   0.9590
B(  9-C , 12-C ) :   1.0743 B( 12-C , 13-H ) :   0.9738 B( 12-C , 14-H ) :   0.9761
B( 12-C , 15-H ) :   0.9740 B( 16-S , 17-C ) :   1.1333 B( 16-S , 20-C ) :   1.1331
B( 17-C , 18-C ) :   1.6516 B( 17-C , 33-H ) :   0.9644 B( 18-C , 19-C ) :   1.2361
B( 18-C , 21-H ) :   0.9790 B( 19-C , 20-C ) :   1.6044 B( 19-C , 22-C ) :   1.0403
B( 22-C , 23-H ) :   0.9452 B( 22-C , 24-H ) :   0.9429 B( 22-C , 25-C ) :   1.0455
B( 25-C , 26-H ) :   0.9574 B( 25-C , 27-H ) :   0.9587 B( 25-C , 28-C ) :   1.0866
B( 28-C , 29-H ) :   0.9716 B( 28-C , 30-H ) :   0.9728 B( 28-C , 31-H ) :   0.9727

Dispersion correction           -0.014405019
FINAL SINGLE POINT ENERGY     -1339.872439959787

DIPOLE MOMENT
-------------
                                X             Y             Z
Electronic contribution:    -28.80476       4.83817       7.52085
Nuclear contribution   :     29.36347      -4.77917      -7.90714
                        -----------------------------------------
Total Dipole Moment    :      0.55871       0.05899      -0.38629
                        -----------------------------------------
Magnitude (a.u.)       :      0.68180
Magnitude (Debye)      :      1.73301

Rotational constants in cm-1:     0.017315     0.009058     0.006749
Rotational constants in MHz :   519.092822   271.537338   202.315320

                             ****ORCA TERMINATED NORMALLY****
TOTAL RUN TIME: 0 days 0 hours 0 minutes 21 seconds 495 msec
