                         Program Version 4.2.1 -  RELEASE  -
|  1> ! wB97X-D3 SP def2-SVP
|  2> %pal
|  3> nprocs 24
|  4> end
|  5>
|  6> * xyz 0 1
|  7> S 	 -53.5407 	 -45.3608 	 -76.1647
|  8> C 	 -54.31 	 -43.7657 	 -76.1321
|  9> C 	 -54.5367 	 -43.3662 	 -77.413
| 10> C 	 -54.2881 	 -44.4194 	 -78.394
| 11> C 	 -53.7699 	 -45.5951 	 -77.9007
| 12> H 	 -54.4346 	 -44.38 	 -79.4777
| 13> C 	 -54.9755 	 -41.9405 	 -77.8664
| 14> H 	 -54.2911 	 -41.5894 	 -78.6995
| 15> H 	 -54.9112 	 -41.2101 	 -77.0974
| 16> C 	 -56.4057 	 -41.7569 	 -78.4866
| 17> H 	 -56.4126 	 -42.3185 	 -79.4067
| 18> H 	 -57.1869 	 -42.2924 	 -77.8969
| 19> C 	 -56.7507 	 -40.272 	 -78.696
| 20> H 	 -56.415 	 -39.8672 	 -79.6771
| 21> H 	 -57.8295 	 -40.2256 	 -78.5676
| 22> H 	 -56.4231 	 -39.6521 	 -77.8937
| 23> S 	 -54.1267 	 -48.3988 	 -78.3218
| 24> C 	 -53.5821 	 -49.0869 	 -79.877
| 25> C 	 -52.9408 	 -48.1153 	 -80.5523
| 26> C 	 -52.8635 	 -46.8395 	 -79.943
| 27> C 	 -53.5826 	 -46.7799 	 -78.7418
| 28> H 	 -52.4303 	 -48.4164 	 -81.489
| 29> C 	 -52.0351 	 -45.743 	 -80.5895
| 30> H 	 -52.7933 	 -45.0743 	 -81.1625
| 31> H 	 -51.4068 	 -46.1875 	 -81.3369
| 32> C 	 -51.0609 	 -45 	 -79.6733
| 33> H 	 -51.5743 	 -44.4993 	 -78.8675
| 34> H 	 -50.557 	 -44.1968 	 -80.3181
| 35> C 	 -50.0215 	 -45.9906 	 -79.1536
| 36> H 	 -49.5348 	 -46.504 	 -80.0164
| 37> H 	 -50.54 	 -46.7052 	 -78.5644
| 38> H 	 -49.28 	 -45.5381 	 -78.5916
| 39> H 	 -54.3534 	 -42.9937 	 -75.3584
| 40> H 	 -53.8696 	 -49.9856 	 -80.366
| 41> *
| 42>
| 43>                          ****END OF INPUT****

CARTESIAN COORDINATES (ANGSTROEM)
---------------------------------
  S    -53.540700  -45.360800  -76.164700
  C    -54.310000  -43.765700  -76.132100
  C    -54.536700  -43.366200  -77.413000
  C    -54.288100  -44.419400  -78.394000
  C    -53.769900  -45.595100  -77.900700
  H    -54.434600  -44.380000  -79.477700
  C    -54.975500  -41.940500  -77.866400
  H    -54.291100  -41.589400  -78.699500
  H    -54.911200  -41.210100  -77.097400
  C    -56.405700  -41.756900  -78.486600
  H    -56.412600  -42.318500  -79.406700
  H    -57.186900  -42.292400  -77.896900
  C    -56.750700  -40.272000  -78.696000
  H    -56.415000  -39.867200  -79.677100
  H    -57.829500  -40.225600  -78.567600
  H    -56.423100  -39.652100  -77.893700
  S    -54.126700  -48.398800  -78.321800
  C    -53.582100  -49.086900  -79.877000
  C    -52.940800  -48.115300  -80.552300
  C    -52.863500  -46.839500  -79.943000
  C    -53.582600  -46.779900  -78.741800
  H    -52.430300  -48.416400  -81.489000
  C    -52.035100  -45.743000  -80.589500
  H    -52.793300  -45.074300  -81.162500
  H    -51.406800  -46.187500  -81.336900
  C    -51.060900  -45.000000  -79.673300
  H    -51.574300  -44.499300  -78.867500
  H    -50.557000  -44.196800  -80.318100
  C    -50.021500  -45.990600  -79.153600
  H    -49.534800  -46.504000  -80.016400
  H    -50.540000  -46.705200  -78.564400
  H    -49.280000  -45.538100  -78.591600
  H    -54.353400  -42.993700  -75.358400
  H    -53.869600  -49.985600  -80.366000

 Total Charge           Charge          ....    0
 Multiplicity           Mult            ....    1
 Number of Electrons    NEL             ....  134
 Basis Dimension        Dim             ....  322

ORBITAL ENERGIES
----------------

  NO   OCC          E(Eh)            E(eV)
   0   2.0000     -88.968234     -2420.9487
   1   2.0000     -88.967513     -2420.9291
   2   2.0000     -10.335355      -281.2393
   3   2.0000     -10.335118      -281.2329
   4   2.0000     -10.318719      -280.7866
   5   2.0000     -10.316613      -280.7293
   6   2.0000     -10.307543      -280.4825
   7   2.0000     -10.304507      -280.3999
   8   2.0000     -10.299035      -280.2510
   9   2.0000     -10.296552      -280.1834
  10   2.0000     -10.296496      -280.1819
  11   2.0000     -10.292128      -280.0631
  12   2.0000     -10.289263      -279.9851
  13   2.0000     -10.284207      -279.8475
  14   2.0000     -10.281391      -279.7709
  15   2.0000     -10.265634      -279.3421
  16   2.0000      -8.082008      -219.9226
  17   2.0000      -8.081411      -219.9064
  18   2.0000      -6.040866      -164.3803
  19   2.0000      -6.040172      -164.3614
  20   2.0000      -6.036621      -164.2648
  21   2.0000      -6.035944      -164.2464
  22   2.0000      -6.032415      -164.1503
  23   2.0000      -6.032019      -164.1396
  24   2.0000      -1.006140       -27.3785
  25   2.0000      -0.985041       -26.8043
  26   2.0000      -0.910445       -24.7745
  27   2.0000      -0.904725       -24.6188
  28   2.0000      -0.876012       -23.8375
  29   2.0000      -0.846324       -23.0296
  30   2.0000      -0.841537       -22.8994
  31   2.0000      -0.819505       -22.2999
  32   2.0000      -0.779730       -21.2175
  33   2.0000      -0.773730       -21.0543
  34   2.0000      -0.716130       -19.4869
  35   2.0000      -0.698549       -19.0085
  36   2.0000      -0.686975       -18.6936
  37   2.0000      -0.658326       -17.9140
  38   2.0000      -0.640056       -17.4168
  39   2.0000      -0.615856       -16.7583
  40   2.0000      -0.590621       -16.0716
  41   2.0000      -0.572536       -15.5795
  42   2.0000      -0.561571       -15.2811
  43   2.0000      -0.556040       -15.1306
  44   2.0000      -0.551097       -14.9961
  45   2.0000      -0.517474       -14.0812
  46   2.0000      -0.515105       -14.0167
  47   2.0000      -0.507443       -13.8082
  48   2.0000      -0.506901       -13.7935
  49   2.0000      -0.501361       -13.6427
  50   2.0000      -0.485022       -13.1981
  51   2.0000      -0.481720       -13.1083
  52   2.0000      -0.470855       -12.8126
  53   2.0000      -0.470535       -12.8039
  54   2.0000      -0.463579       -12.6146
  55   2.0000      -0.445335       -12.1182
  56   2.0000      -0.438043       -11.9198
  57   2.0000      -0.434726       -11.8295
  58   2.0000      -0.430561       -11.7162
  59   2.0000      -0.424479       -11.5507
  60   2.0000      -0.418683       -11.3929
  61   2.0000      -0.413033       -11.2392
  62   2.0000      -0.412093       -11.2136
  63   2.0000      -0.354806        -9.6548
  64   2.0000      -0.331137        -9.0107
  65   2.0000      -0.327043        -8.8993
  66   2.0000      -0.296564        -8.0699
  67   0.0000       0.024822         0.6754
  68   0.0000       0.068585         1.8663
  69   0.0000       0.106607         2.9009
  70   0.0000       0.119867         3.2617
  71   0.0000       0.134957         3.6724

MULLIKEN ATOMIC CHARGES
-----------------------
   0 S :    0.101584
   1 C :   -0.104512
   2 C :   -0.071865
   3 C :    0.009112
   4 C :   -0.148349
   5 H :    0.016010
   6 C :    0.041707
   7 H :    0.042212
   8 H :    0.003751
   9 C :   -0.096192
  10 H :    0.024734
  11 H :    0.036368
  12 C :   -0.036216
  13 H :    0.050123
  14 H :    0.031321
  15 H :    0.021981
  16 S :    0.104806
  17 C :   -0.078908
  18 C :   -0.044567
  19 C :   -0.065390
  20 C :   -0.150359
  21 H :    0.030348
  22 C :    0.045140
  23 H :    0.053546
  24 H :    0.008468
  25 C :   -0.078264
  26 H :    0.046583
  27 H :    0.033136
  28 C :   -0.012325
  29 H :    0.022480
  30 H :    0.035153
  31 H :    0.021380
  32 H :    0.055020
  33 H :    0.051984
Sum of atomic charges:    0.0000000

LOEWDIN ATOMIC CHARGES
----------------------
   0 S :    0.385113
   1 C :   -0.193617
   2 C :   -0.063679
   3 C :   -0.061401
   4 C :   -0.188804
   5 H :    0.031193
   6 C :   -0.032512
   7 H :    0.039427
   8 H :    0.016267
   9 C :   -0.044309
  10 H :    0.019862
  11 H :    0.026471
  12 C :   -0.066625
  13 H :    0.032469
  14 H :    0.032262
  15 H :    0.020719
  16 S :    0.390699
  17 C :   -0.173049
  18 C :   -0.075919
  19 C :   -0.061772
  20 C :   -0.194114
  21 H :    0.037512
  22 C :   -0.036468
  23 H :    0.039809
  24 H :    0.024960
  25 C :   -0.040949
  26 H :    0.021183
  27 H :    0.029590
  28 C :   -0.052857
  29 H :    0.027564
  30 H :    0.023223
  31 H :    0.015772
  32 H :    0.039718
  33 H :    0.032263

  Mayer bond orders larger than 0.100000
B(  0-S ,  1-C ) :   1.1120 B(  0-S ,  4-C ) :   1.1176 B(  1-C ,  2-C ) :   1.6571
B(  1-C , 32-H ) :   0.9591 B(  2-C ,  3-C ) :   1.2029 B(  2-C ,  6-C ) :   1.0226
B(  3-C ,  4-C ) :   1.6013 B(  3-C ,  5-H ) :   0.9904 B(  4-C , 20-C ) :   1.0681
B(  6-C ,  7-H ) :   0.9468 B(  6-C ,  8-H ) :   0.9490 B(  6-C ,  9-C ) :   1.0497
B(  9-C , 10-H ) :   0.9563 B(  9-C , 11-H ) :   0.9630 B(  9-C , 12-C ) :   1.0716
B( 12-C , 13-H ) :   0.9765 B( 12-C , 14-H ) :   0.9746 B( 12-C , 15-H ) :   0.9749
B( 16-S , 17-C ) :   1.1359 B( 16-S , 20-C ) :   1.1294 B( 17-C , 18-C ) :   1.6384
B( 17-C , 33-H ) :   0.9645 B( 18-C , 19-C ) :   1.2607 B( 18-C , 21-H ) :   0.9765
B( 19-C , 20-C ) :   1.5643 B( 19-C , 22-C ) :   1.0251 B( 22-C , 23-H ) :   0.9290
B( 22-C , 24-H ) :   0.9390 B( 22-C , 25-C ) :   1.0661 B( 25-C , 26-H ) :   0.9513
B( 25-C , 27-H ) :   0.9539 B( 25-C , 28-C ) :   1.0735 B( 28-C , 29-H ) :   0.9736
B( 28-C , 30-H ) :   0.9737 B( 28-C , 31-H ) :   0.9733

Dispersion correction           -0.015121569
FINAL SINGLE POINT ENERGY     -1339.868036202337

DIPOLE MOMENT
-------------
                                X             Y             Z
Electronic contribution:     -2.03407     -22.58811      11.57581
Nuclear contribution   :      2.08866      23.12092     -12.18122
                        -----------------------------------------
Total Dipole Moment    :      0.05459       0.53281      -0.60542
                        -----------------------------------------
Magnitude (a.u.)       :      0.80833
Magnitude (Debye)      :      2.05461

Rotational constants in cm-1:     0.020353     0.007765     0.007362
Rotational constants in MHz :   610.172224   232.799742   220.702054

                             ****ORCA TERMINATED NORMALLY****
TOTAL RUN TIME: 0 days 0 hours 0 minutes 22 seconds 184 msec
