                         Program Version 4.2.1 -  RELEASE  -
|  1> ! wB97X-D3 SP def2-SVP
|  2> %pal
|  3> nprocs 24
|  4> end
|  5>
|  6> * xyz 0 1
|  7> S 	 31.2006 	 -31.3403 	 -108.264
|  8> C 	 32.6539 	 -30.5748 	 -107.655
|  9> C 	 33.5348 	 -30.2991 	 -108.7
| 10> C 	 32.9066 	 -30.6491 	 -109.958
| 11> C 	 31.6563 	 -31.2584 	 -109.923
| 12> H 	 33.4561 	 -30.4838 	 -110.86
| 13> C 	 34.8595 	 -29.4895 	 -108.647
| 14> H 	 35.091 	 -29.0966 	 -109.606
| 15> H 	 35.6499 	 -30.2039 	 -108.289
| 16> C 	 34.7563 	 -28.3004 	 -107.617
| 17> H 	 34.5354 	 -28.76 	 -106.62
| 18> H 	 35.6741 	 -27.7748 	 -107.55
| 19> C 	 33.5807 	 -27.3749 	 -107.815
| 20> H 	 32.688 	 -27.8001 	 -108.275
| 21> H 	 33.32 	 -26.9051 	 -106.878
| 22> H 	 33.7571 	 -26.4724 	 -108.426
| 23> S 	 30.2717 	 -30.4278 	 -112.088
| 24> C 	 29.1673 	 -31.4244 	 -112.94
| 25> C 	 29.2742 	 -32.7119 	 -112.44
| 26> C 	 30.1985 	 -32.8375 	 -111.346
| 27> C 	 30.7643 	 -31.642 	 -111.012
| 28> H 	 28.699 	 -33.568 	 -112.741
| 29> C 	 30.4187 	 -34.0854 	 -110.498
| 30> H 	 29.5462 	 -33.9927 	 -109.826
| 31> H 	 31.419 	 -33.9843 	 -109.964
| 32> C 	 30.2916 	 -35.4286 	 -111.247
| 33> H 	 30.5651 	 -35.2216 	 -112.305
| 34> H 	 29.2788 	 -35.8369 	 -111.198
| 35> C 	 31.3804 	 -36.3925 	 -110.793
| 36> H 	 32.3406 	 -35.8401 	 -110.983
| 37> H 	 31.4006 	 -37.2754 	 -111.358
| 38> H 	 31.3859 	 -36.8196 	 -109.819
| 39> H 	 32.8141 	 -30.2754 	 -106.653
| 40> H 	 28.4791 	 -31.1235 	 -113.704
| 41> *
| 42>
| 43>                          ****END OF INPUT****

CARTESIAN COORDINATES (ANGSTROEM)
---------------------------------
  S     31.200600  -31.340300  -108.264000
  C     32.653900  -30.574800  -107.655000
  C     33.534800  -30.299100  -108.700000
  C     32.906600  -30.649100  -109.958000
  C     31.656300  -31.258400  -109.923000
  H     33.456100  -30.483800  -110.860000
  C     34.859500  -29.489500  -108.647000
  H     35.091000  -29.096600  -109.606000
  H     35.649900  -30.203900  -108.289000
  C     34.756300  -28.300400  -107.617000
  H     34.535400  -28.760000  -106.620000
  H     35.674100  -27.774800  -107.550000
  C     33.580700  -27.374900  -107.815000
  H     32.688000  -27.800100  -108.275000
  H     33.320000  -26.905100  -106.878000
  H     33.757100  -26.472400  -108.426000
  S     30.271700  -30.427800  -112.088000
  C     29.167300  -31.424400  -112.940000
  C     29.274200  -32.711900  -112.440000
  C     30.198500  -32.837500  -111.346000
  C     30.764300  -31.642000  -111.012000
  H     28.699000  -33.568000  -112.741000
  C     30.418700  -34.085400  -110.498000
  H     29.546200  -33.992700  -109.826000
  H     31.419000  -33.984300  -109.964000
  C     30.291600  -35.428600  -111.247000
  H     30.565100  -35.221600  -112.305000
  H     29.278800  -35.836900  -111.198000
  C     31.380400  -36.392500  -110.793000
  H     32.340600  -35.840100  -110.983000
  H     31.400600  -37.275400  -111.358000
  H     31.385900  -36.819600  -109.819000
  H     32.814100  -30.275400  -106.653000
  H     28.479100  -31.123500  -113.704000

 Total Charge           Charge          ....    0
 Multiplicity           Mult            ....    1
 Number of Electrons    NEL             ....  134
 Basis Dimension        Dim             ....  322

ORBITAL ENERGIES
----------------

  NO   OCC          E(Eh)            E(eV)
   0   2.0000     -88.965483     -2420.8739
   1   2.0000     -88.962068     -2420.7809
   2   2.0000     -10.329319      -281.0751
   3   2.0000     -10.317271      -280.7472
   4   2.0000     -10.316048      -280.7139
   5   2.0000     -10.314239      -280.6647
   6   2.0000     -10.304312      -280.3946
   7   2.0000     -10.300443      -280.2893
   8   2.0000     -10.297189      -280.2008
   9   2.0000     -10.294055      -280.1155
  10   2.0000     -10.292564      -280.0749
  11   2.0000     -10.292412      -280.0708
  12   2.0000     -10.290019      -280.0057
  13   2.0000     -10.288855      -279.9740
  14   2.0000     -10.271624      -279.5051
  15   2.0000     -10.270745      -279.4812
  16   2.0000      -8.080245      -219.8746
  17   2.0000      -8.078408      -219.8247
  18   2.0000      -6.038780      -164.3236
  19   2.0000      -6.036804      -164.2698
  20   2.0000      -6.034526      -164.2078
  21   2.0000      -6.032486      -164.1523
  22   2.0000      -6.031185      -164.1169
  23   2.0000      -6.029373      -164.0676
  24   2.0000      -1.013996       -27.5922
  25   2.0000      -0.988056       -26.8864
  26   2.0000      -0.909759       -24.7558
  27   2.0000      -0.908179       -24.7128
  28   2.0000      -0.869357       -23.6564
  29   2.0000      -0.851622       -23.1738
  30   2.0000      -0.842982       -22.9387
  31   2.0000      -0.811966       -22.0947
  32   2.0000      -0.783522       -21.3207
  33   2.0000      -0.773915       -21.0593
  34   2.0000      -0.706135       -19.2149
  35   2.0000      -0.700884       -19.0720
  36   2.0000      -0.698188       -18.9987
  37   2.0000      -0.657729       -17.8977
  38   2.0000      -0.639353       -17.3977
  39   2.0000      -0.610087       -16.6013
  40   2.0000      -0.595484       -16.2039
  41   2.0000      -0.579612       -15.7720
  42   2.0000      -0.575969       -15.6729
  43   2.0000      -0.551653       -15.0112
  44   2.0000      -0.545085       -14.8325
  45   2.0000      -0.522492       -14.2177
  46   2.0000      -0.519252       -14.1296
  47   2.0000      -0.514077       -13.9887
  48   2.0000      -0.508913       -13.8482
  49   2.0000      -0.494807       -13.4644
  50   2.0000      -0.486858       -13.2481
  51   2.0000      -0.475134       -12.9291
  52   2.0000      -0.468795       -12.7566
  53   2.0000      -0.466861       -12.7039
  54   2.0000      -0.463559       -12.6141
  55   2.0000      -0.449293       -12.2259
  56   2.0000      -0.442340       -12.0367
  57   2.0000      -0.434020       -11.8103
  58   2.0000      -0.432126       -11.7587
  59   2.0000      -0.422123       -11.4866
  60   2.0000      -0.417086       -11.3495
  61   2.0000      -0.411264       -11.1911
  62   2.0000      -0.409953       -11.1554
  63   2.0000      -0.342779        -9.3275
  64   2.0000      -0.329320        -8.9612
  65   2.0000      -0.324478        -8.8295
  66   2.0000      -0.299756        -8.1568
  67   0.0000       0.041111         1.1187
  68   0.0000       0.065286         1.7765
  69   0.0000       0.116764         3.1773
  70   0.0000       0.126044         3.4298
  71   0.0000       0.133786         3.6405

MULLIKEN ATOMIC CHARGES
-----------------------
   0 S :    0.118614
   1 C :   -0.121486
   2 C :   -0.122057
   3 C :    0.017852
   4 C :   -0.159818
   5 H :   -0.001904
   6 C :    0.101387
   7 H :    0.021986
   8 H :    0.053761
   9 C :   -0.083703
  10 H :    0.026790
  11 H :    0.029502
  12 C :   -0.062096
  13 H :    0.052271
  14 H :    0.022756
  15 H :    0.021701
  16 S :    0.126327
  17 C :   -0.077378
  18 C :   -0.027819
  19 C :   -0.076251
  20 C :   -0.150961
  21 H :    0.011780
  22 C :    0.048837
  23 H :    0.051815
  24 H :    0.057225
  25 C :   -0.084350
  26 H :    0.040564
  27 H :    0.037706
  28 C :   -0.045415
  29 H :    0.039747
  30 H :    0.012316
  31 H :    0.027537
  32 H :    0.036837
  33 H :    0.055930
Sum of atomic charges:   -0.0000000

LOEWDIN ATOMIC CHARGES
----------------------
   0 S :    0.426835
   1 C :   -0.193169
   2 C :   -0.063602
   3 C :   -0.067494
   4 C :   -0.209454
   5 H :    0.022697
   6 C :   -0.022099
   7 H :    0.022519
   8 H :    0.042847
   9 C :   -0.039018
  10 H :    0.025759
  11 H :    0.021511
  12 C :   -0.076606
  13 H :    0.030695
  14 H :    0.025309
  15 H :    0.024759
  16 S :    0.449916
  17 C :   -0.194214
  18 C :   -0.074388
  19 C :   -0.062164
  20 C :   -0.228060
  21 H :    0.026780
  22 C :   -0.038466
  23 H :    0.042082
  24 H :    0.040213
  25 C :   -0.045427
  26 H :    0.030892
  27 H :    0.023514
  28 C :   -0.065014
  29 H :    0.034374
  30 H :    0.017509
  31 H :    0.020257
  32 H :    0.019730
  33 H :    0.030978

  Mayer bond orders larger than 0.100000
B(  0-S ,  1-C ) :   1.1582 B(  0-S ,  4-C ) :   1.1601 B(  1-C ,  2-C ) :   1.5794
B(  1-C ,  4-C ) :   0.1003 B(  1-C , 32-H ) :   0.9749 B(  2-C ,  3-C ) :   1.2721
B(  2-C ,  6-C ) :   1.0034 B(  3-C ,  4-C ) :   1.5565 B(  3-C ,  5-H ) :   1.0014
B(  4-C , 20-C ) :   0.9993 B(  6-C ,  7-H ) :   0.9519 B(  6-C ,  8-H ) :   0.9358
B(  6-C ,  9-C ) :   1.0739 B(  9-C , 10-H ) :   0.9603 B(  9-C , 11-H ) :   0.9580
B(  9-C , 12-C ) :   1.0690 B( 12-C , 13-H ) :   0.9736 B( 12-C , 14-H ) :   0.9752
B( 12-C , 15-H ) :   0.9737 B( 16-S , 17-C ) :   1.1765 B( 16-S , 20-C ) :   1.1637
B( 17-C , 18-C ) :   1.5578 B( 17-C , 33-H ) :   0.9749 B( 18-C , 19-C ) :   1.2715
B( 18-C , 21-H ) :   0.9897 B( 19-C , 20-C ) :   1.5904 B( 19-C , 22-C ) :   1.0300
B( 22-C , 23-H ) :   0.9292 B( 22-C , 24-H ) :   0.9401 B( 22-C , 25-C ) :   1.0485
B( 25-C , 26-H ) :   0.9659 B( 25-C , 27-H ) :   0.9505 B( 25-C , 28-C ) :   1.0839
B( 28-C , 29-H ) :   0.9765 B( 28-C , 30-H ) :   0.9717 B( 28-C , 31-H ) :   0.9747

Dispersion correction           -0.014217654
FINAL SINGLE POINT ENERGY     -1339.875962077299

DIPOLE MOMENT
-------------
                                X             Y             Z
Electronic contribution:    -10.97613       5.26122      -5.53943
Nuclear contribution   :     11.15202      -5.36421       5.54995
                        -----------------------------------------
Total Dipole Moment    :      0.17589      -0.10299       0.01052
                        -----------------------------------------
Magnitude (a.u.)       :      0.20409
Magnitude (Debye)      :      0.51876

Rotational constants in cm-1:     0.022717     0.007663     0.006386
Rotational constants in MHz :   681.044054   229.724488   191.439321

                             ****ORCA TERMINATED NORMALLY****
TOTAL RUN TIME: 0 days 0 hours 0 minutes 21 seconds 320 msec
