                         Program Version 4.2.1 -  RELEASE  -
|  1> ! wB97X-D3 SP def2-SVP
|  2> %pal
|  3> nprocs 24
|  4> end
|  5>
|  6> * xyz 0 1
|  7> S 	 8.94109 	 -17.1567 	 -111.986
|  8> C 	 7.85234 	 -16.8796 	 -113.299
|  9> C 	 6.53601 	 -17.0642 	 -112.903
| 10> C 	 6.3911 	 -17.4676 	 -111.508
| 11> C 	 7.66051 	 -17.4375 	 -110.866
| 12> H 	 5.44584 	 -17.6457 	 -110.947
| 13> C 	 5.37729 	 -17.2907 	 -113.785
| 14> H 	 5.41313 	 -16.3528 	 -114.401
| 15> H 	 4.43048 	 -17.1564 	 -113.254
| 16> C 	 5.21029 	 -18.633 	 -114.636
| 17> H 	 5.93023 	 -18.5316 	 -115.401
| 18> H 	 5.50183 	 -19.3719 	 -113.909
| 19> C 	 3.82314 	 -18.8269 	 -115.152
| 20> H 	 3.83993 	 -19.8174 	 -115.687
| 21> H 	 3.0613 	 -18.7267 	 -114.392
| 22> H 	 3.63758 	 -18.0847 	 -115.956
| 23> S 	 8.72023 	 -19.4267 	 -109.318
| 24> C 	 8.60422 	 -19.3201 	 -107.545
| 25> C 	 8.26459 	 -18.0108 	 -107.215
| 26> C 	 7.95319 	 -17.1855 	 -108.284
| 27> C 	 8.03456 	 -17.8178 	 -109.512
| 28> H 	 8.09316 	 -17.6343 	 -106.222
| 29> C 	 7.48092 	 -15.7842 	 -108.002
| 30> H 	 7.17222 	 -15.1482 	 -108.89
| 31> H 	 8.29028 	 -15.2938 	 -107.444
| 32> C 	 6.31999 	 -15.6574 	 -106.916
| 33> H 	 6.21786 	 -14.6853 	 -106.487
| 34> H 	 6.43909 	 -16.4141 	 -106.159
| 35> C 	 4.96236 	 -15.9649 	 -107.459
| 36> H 	 4.27039 	 -15.8282 	 -106.665
| 37> H 	 4.9701 	 -16.9898 	 -107.801
| 38> H 	 4.63996 	 -15.3738 	 -108.36
| 39> H 	 8.18254 	 -17.0702 	 -114.333
| 40> H 	 8.84579 	 -20.1568 	 -106.794
| 41> *
| 42>
| 43>                          ****END OF INPUT****

CARTESIAN COORDINATES (ANGSTROEM)
---------------------------------
  S      8.941090  -17.156700  -111.986000
  C      7.852340  -16.879600  -113.299000
  C      6.536010  -17.064200  -112.903000
  C      6.391100  -17.467600  -111.508000
  C      7.660510  -17.437500  -110.866000
  H      5.445840  -17.645700  -110.947000
  C      5.377290  -17.290700  -113.785000
  H      5.413130  -16.352800  -114.401000
  H      4.430480  -17.156400  -113.254000
  C      5.210290  -18.633000  -114.636000
  H      5.930230  -18.531600  -115.401000
  H      5.501830  -19.371900  -113.909000
  C      3.823140  -18.826900  -115.152000
  H      3.839930  -19.817400  -115.687000
  H      3.061300  -18.726700  -114.392000
  H      3.637580  -18.084700  -115.956000
  S      8.720230  -19.426700  -109.318000
  C      8.604220  -19.320100  -107.545000
  C      8.264590  -18.010800  -107.215000
  C      7.953190  -17.185500  -108.284000
  C      8.034560  -17.817800  -109.512000
  H      8.093160  -17.634300  -106.222000
  C      7.480920  -15.784200  -108.002000
  H      7.172220  -15.148200  -108.890000
  H      8.290280  -15.293800  -107.444000
  C      6.319990  -15.657400  -106.916000
  H      6.217860  -14.685300  -106.487000
  H      6.439090  -16.414100  -106.159000
  C      4.962360  -15.964900  -107.459000
  H      4.270390  -15.828200  -106.665000
  H      4.970100  -16.989800  -107.801000
  H      4.639960  -15.373800  -108.360000
  H      8.182540  -17.070200  -114.333000
  H      8.845790  -20.156800  -106.794000

 Total Charge           Charge          ....    0
 Multiplicity           Mult            ....    1
 Number of Electrons    NEL             ....  134
 Basis Dimension        Dim             ....  322

ORBITAL ENERGIES
----------------

  NO   OCC          E(Eh)            E(eV)
   0   2.0000     -88.966093     -2420.8905
   1   2.0000     -88.965371     -2420.8708
   2   2.0000     -10.331462      -281.1334
   3   2.0000     -10.330334      -281.1027
   4   2.0000     -10.325461      -280.9701
   5   2.0000     -10.311614      -280.5933
   6   2.0000     -10.303609      -280.3754
   7   2.0000     -10.301737      -280.3245
   8   2.0000     -10.300623      -280.2942
   9   2.0000     -10.298333      -280.2319
  10   2.0000     -10.291422      -280.0438
  11   2.0000     -10.287694      -279.9424
  12   2.0000     -10.284642      -279.8593
  13   2.0000     -10.284017      -279.8423
  14   2.0000     -10.282839      -279.8103
  15   2.0000     -10.269381      -279.4441
  16   2.0000      -8.080948      -219.8938
  17   2.0000      -8.080281      -219.8756
  18   2.0000      -6.039362      -164.3394
  19   2.0000      -6.038844      -164.3253
  20   2.0000      -6.035159      -164.2250
  21   2.0000      -6.034826      -164.2160
  22   2.0000      -6.031929      -164.1371
  23   2.0000      -6.031028      -164.1126
  24   2.0000      -1.007651       -27.4196
  25   2.0000      -0.985080       -26.8054
  26   2.0000      -0.912407       -24.8279
  27   2.0000      -0.908445       -24.7200
  28   2.0000      -0.871068       -23.7030
  29   2.0000      -0.854447       -23.2507
  30   2.0000      -0.850733       -23.1496
  31   2.0000      -0.810193       -22.0465
  32   2.0000      -0.778654       -21.1883
  33   2.0000      -0.767111       -20.8741
  34   2.0000      -0.704493       -19.1702
  35   2.0000      -0.700031       -19.0488
  36   2.0000      -0.691006       -18.8032
  37   2.0000      -0.662902       -18.0385
  38   2.0000      -0.639179       -17.3930
  39   2.0000      -0.609230       -16.5780
  40   2.0000      -0.598568       -16.2879
  41   2.0000      -0.574451       -15.6316
  42   2.0000      -0.560645       -15.2559
  43   2.0000      -0.556065       -15.1313
  44   2.0000      -0.537916       -14.6374
  45   2.0000      -0.522547       -14.2192
  46   2.0000      -0.518028       -14.0963
  47   2.0000      -0.513997       -13.9866
  48   2.0000      -0.510033       -13.8787
  49   2.0000      -0.500314       -13.6142
  50   2.0000      -0.493064       -13.4170
  51   2.0000      -0.475733       -12.9453
  52   2.0000      -0.469044       -12.7633
  53   2.0000      -0.467078       -12.7098
  54   2.0000      -0.458834       -12.4855
  55   2.0000      -0.450049       -12.2465
  56   2.0000      -0.441133       -12.0038
  57   2.0000      -0.430109       -11.7039
  58   2.0000      -0.428111       -11.6495
  59   2.0000      -0.424410       -11.5488
  60   2.0000      -0.419249       -11.4084
  61   2.0000      -0.415795       -11.3144
  62   2.0000      -0.412081       -11.2133
  63   2.0000      -0.336792        -9.1646
  64   2.0000      -0.325770        -8.8646
  65   2.0000      -0.321197        -8.7402
  66   2.0000      -0.305581        -8.3153
  67   0.0000       0.035896         0.9768
  68   0.0000       0.049879         1.3573
  69   0.0000       0.110099         2.9959
  70   0.0000       0.117538         3.1984
  71   0.0000       0.127433         3.4676

MULLIKEN ATOMIC CHARGES
-----------------------
   0 S :    0.114223
   1 C :   -0.116962
   2 C :   -0.105893
   3 C :    0.037296
   4 C :   -0.184499
   5 H :    0.036432
   6 C :   -0.004950
   7 H :    0.030353
   8 H :    0.006171
   9 C :   -0.020862
  10 H :    0.019131
  11 H :    0.031717
  12 C :   -0.052675
  13 H :    0.047453
  14 H :    0.038899
  15 H :    0.033575
  16 S :    0.111156
  17 C :   -0.121772
  18 C :   -0.037104
  19 C :    0.028351
  20 C :   -0.197610
  21 H :    0.014607
  22 C :    0.047438
  23 H :    0.049973
  24 H :    0.038534
  25 C :   -0.088244
  26 H :    0.028280
  27 H :    0.020729
  28 C :   -0.047673
  29 H :    0.027868
  30 H :    0.023995
  31 H :    0.030214
  32 H :    0.069723
  33 H :    0.092128
Sum of atomic charges:   -0.0000000

LOEWDIN ATOMIC CHARGES
----------------------
   0 S :    0.434841
   1 C :   -0.221403
   2 C :   -0.068308
   3 C :   -0.059827
   4 C :   -0.205587
   5 H :    0.041021
   6 C :   -0.049259
   7 H :    0.034211
   8 H :    0.023254
   9 C :   -0.030162
  10 H :    0.018102
  11 H :    0.024623
  12 C :   -0.065716
  13 H :    0.037978
  14 H :    0.023946
  15 H :    0.030052
  16 S :    0.397533
  17 C :   -0.187183
  18 C :   -0.074399
  19 C :   -0.061104
  20 C :   -0.208406
  21 H :    0.027908
  22 C :   -0.031516
  23 H :    0.040020
  24 H :    0.038659
  25 C :   -0.038150
  26 H :    0.021000
  27 H :    0.020311
  28 C :   -0.065207
  29 H :    0.020617
  30 H :    0.020954
  31 H :    0.025056
  32 H :    0.035008
  33 H :    0.051131

  Mayer bond orders larger than 0.100000
B(  0-S ,  1-C ) :   1.1443 B(  0-S ,  4-C ) :   1.1937 B(  1-C ,  2-C ) :   1.5932
B(  1-C , 32-H ) :   0.9612 B(  2-C ,  3-C ) :   1.2461 B(  2-C ,  6-C ) :   1.0492
B(  3-C ,  4-C ) :   1.5508 B(  3-C ,  5-H ) :   0.9879 B(  4-C , 20-C ) :   1.0022
B(  6-C ,  7-H ) :   0.9332 B(  6-C ,  8-H ) :   0.9424 B(  6-C ,  9-C ) :   1.0319
B(  9-C , 10-H ) :   0.9525 B(  9-C , 11-H ) :   0.9576 B(  9-C , 12-C ) :   1.0930
B( 12-C , 13-H ) :   0.9699 B( 12-C , 14-H ) :   0.9738 B( 12-C , 15-H ) :   0.9741
B( 16-S , 17-C ) :   1.1553 B( 16-S , 20-C ) :   1.1481 B( 17-C , 18-C ) :   1.5744
B( 17-C , 20-C ) :   0.1109 B( 17-C , 33-H ) :   0.9593 B( 18-C , 19-C ) :   1.2685
B( 18-C , 21-H ) :   0.9846 B( 19-C , 20-C ) :   1.5797 B( 19-C , 22-C ) :   1.0467
B( 22-C , 23-H ) :   0.9458 B( 22-C , 24-H ) :   0.9267 B( 22-C , 25-C ) :   1.0616
B( 25-C , 26-H ) :   0.9588 B( 25-C , 27-H ) :   0.9553 B( 25-C , 28-C ) :   1.0787
B( 28-C , 29-H ) :   0.9729 B( 28-C , 30-H ) :   0.9760 B( 28-C , 31-H ) :   0.9734

Dispersion correction           -0.014055248
FINAL SINGLE POINT ENERGY     -1339.857287822619

DIPOLE MOMENT
-------------
                                X             Y             Z
Electronic contribution:     23.46598      -6.25975       2.99982
Nuclear contribution   :    -23.96292       6.22459      -2.84054
                        -----------------------------------------
Total Dipole Moment    :     -0.49694      -0.03515       0.15928
                        -----------------------------------------
Magnitude (a.u.)       :      0.52302
Magnitude (Debye)      :      1.32942

Rotational constants in cm-1:     0.019868     0.007666     0.006742
Rotational constants in MHz :   595.626667   229.826349   202.125407

                             ****ORCA TERMINATED NORMALLY****
TOTAL RUN TIME: 0 days 0 hours 0 minutes 21 seconds 311 msec
