                         Program Version 4.2.1 -  RELEASE  -
|  1> ! wB97X-D3 SP def2-SVP
|  2> %pal
|  3> nprocs 24
|  4> end
|  5>
|  6> * xyz 0 1
|  7> S 	 -86.9661 	 -45.2936 	 -85.4946
|  8> C 	 -88.4574 	 -44.6868 	 -86.0108
|  9> C 	 -89.5727 	 -45.4763 	 -85.5771
| 10> C 	 -89.0657 	 -46.636 	 -84.948
| 11> C 	 -87.6908 	 -46.6487 	 -84.7657
| 12> H 	 -89.6475 	 -47.4149 	 -84.5447
| 13> C 	 -91.0075 	 -45.1326 	 -85.7547
| 14> H 	 -91.0135 	 -44.1309 	 -86.1221
| 15> H 	 -91.5448 	 -45.0652 	 -84.8476
| 16> C 	 -91.738 	 -46.0674 	 -86.7521
| 17> H 	 -91.394 	 -45.8435 	 -87.774
| 18> H 	 -91.5458 	 -47.1053 	 -86.4293
| 19> C 	 -93.3236 	 -45.8671 	 -86.905
| 20> H 	 -93.5619 	 -44.8296 	 -87.2391
| 21> H 	 -93.5841 	 -46.5873 	 -87.6468
| 22> H 	 -93.8834 	 -46.1111 	 -85.9694
| 23> S 	 -87.2114 	 -49.3803 	 -84.5466
| 24> C 	 -85.8856 	 -49.9104 	 -83.5457
| 25> C 	 -85.3718 	 -48.9343 	 -82.7543
| 26> C 	 -85.8991 	 -47.6635 	 -83.0933
| 27> C 	 -86.9082 	 -47.7218 	 -84.0845
| 28> H 	 -84.6835 	 -49.2668 	 -81.9112
| 29> C 	 -85.5536 	 -46.4187 	 -82.2783
| 30> H 	 -86.0256 	 -46.8975 	 -81.3788
| 31> H 	 -86.2189 	 -45.6581 	 -82.6524
| 32> C 	 -84.1575 	 -46.1286 	 -81.9409
| 33> H 	 -83.661 	 -46.0738 	 -82.8854
| 34> H 	 -83.6553 	 -46.933 	 -81.4252
| 35> C 	 -84.056 	 -44.7865 	 -81.2163
| 36> H 	 -82.9872 	 -44.5963 	 -81.0793
| 37> H 	 -84.3269 	 -44.8567 	 -80.1473
| 38> H 	 -84.5442 	 -43.9133 	 -81.6878
| 39> H 	 -88.5494 	 -43.7213 	 -86.521
| 40> H 	 -85.6586 	 -50.9639 	 -83.4152
| 41> *
| 42>
| 43>                          ****END OF INPUT****

CARTESIAN COORDINATES (ANGSTROEM)
---------------------------------
  S    -86.966100  -45.293600  -85.494600
  C    -88.457400  -44.686800  -86.010800
  C    -89.572700  -45.476300  -85.577100
  C    -89.065700  -46.636000  -84.948000
  C    -87.690800  -46.648700  -84.765700
  H    -89.647500  -47.414900  -84.544700
  C    -91.007500  -45.132600  -85.754700
  H    -91.013500  -44.130900  -86.122100
  H    -91.544800  -45.065200  -84.847600
  C    -91.738000  -46.067400  -86.752100
  H    -91.394000  -45.843500  -87.774000
  H    -91.545800  -47.105300  -86.429300
  C    -93.323600  -45.867100  -86.905000
  H    -93.561900  -44.829600  -87.239100
  H    -93.584100  -46.587300  -87.646800
  H    -93.883400  -46.111100  -85.969400
  S    -87.211400  -49.380300  -84.546600
  C    -85.885600  -49.910400  -83.545700
  C    -85.371800  -48.934300  -82.754300
  C    -85.899100  -47.663500  -83.093300
  C    -86.908200  -47.721800  -84.084500
  H    -84.683500  -49.266800  -81.911200
  C    -85.553600  -46.418700  -82.278300
  H    -86.025600  -46.897500  -81.378800
  H    -86.218900  -45.658100  -82.652400
  C    -84.157500  -46.128600  -81.940900
  H    -83.661000  -46.073800  -82.885400
  H    -83.655300  -46.933000  -81.425200
  C    -84.056000  -44.786500  -81.216300
  H    -82.987200  -44.596300  -81.079300
  H    -84.326900  -44.856700  -80.147300
  H    -84.544200  -43.913300  -81.687800
  H    -88.549400  -43.721300  -86.521000
  H    -85.658600  -50.963900  -83.415200

 Total Charge           Charge          ....    0
 Multiplicity           Mult            ....    1
 Number of Electrons    NEL             ....  134
 Basis Dimension        Dim             ....  322

ORBITAL ENERGIES
----------------

  NO   OCC          E(Eh)            E(eV)
   0   2.0000     -88.968966     -2420.9687
   1   2.0000     -88.962702     -2420.7982
   2   2.0000     -10.325219      -280.9635
   3   2.0000     -10.325122      -280.9608
   4   2.0000     -10.312664      -280.6219
   5   2.0000     -10.312528      -280.6182
   6   2.0000     -10.304553      -280.4011
   7   2.0000     -10.301697      -280.3234
   8   2.0000     -10.294686      -280.1327
   9   2.0000     -10.293214      -280.0926
  10   2.0000     -10.286288      -279.9041
  11   2.0000     -10.284908      -279.8666
  12   2.0000     -10.284853      -279.8651
  13   2.0000     -10.284799      -279.8636
  14   2.0000     -10.280654      -279.7508
  15   2.0000     -10.280178      -279.7379
  16   2.0000      -8.085030      -220.0048
  17   2.0000      -8.077593      -219.8025
  18   2.0000      -6.043173      -164.4431
  19   2.0000      -6.039192      -164.3348
  20   2.0000      -6.036281      -164.2556
  21   2.0000      -6.036066      -164.2497
  22   2.0000      -6.032183      -164.1440
  23   2.0000      -6.028308      -164.0386
  24   2.0000      -1.009754       -27.4768
  25   2.0000      -0.988596       -26.9011
  26   2.0000      -0.918208       -24.9857
  27   2.0000      -0.909339       -24.7444
  28   2.0000      -0.864429       -23.5223
  29   2.0000      -0.852269       -23.1914
  30   2.0000      -0.847370       -23.0581
  31   2.0000      -0.814152       -22.1542
  32   2.0000      -0.783982       -21.3332
  33   2.0000      -0.767499       -20.8847
  34   2.0000      -0.706928       -19.2365
  35   2.0000      -0.699550       -19.0357
  36   2.0000      -0.685885       -18.6639
  37   2.0000      -0.659657       -17.9502
  38   2.0000      -0.640407       -17.4264
  39   2.0000      -0.618897       -16.8411
  40   2.0000      -0.596370       -16.2281
  41   2.0000      -0.572073       -15.5669
  42   2.0000      -0.566893       -15.4259
  43   2.0000      -0.559285       -15.2189
  44   2.0000      -0.532397       -14.4872
  45   2.0000      -0.522985       -14.2311
  46   2.0000      -0.515597       -14.0301
  47   2.0000      -0.508513       -13.8373
  48   2.0000      -0.502089       -13.6625
  49   2.0000      -0.494957       -13.4685
  50   2.0000      -0.488131       -13.2827
  51   2.0000      -0.483379       -13.1534
  52   2.0000      -0.473371       -12.8811
  53   2.0000      -0.464797       -12.6478
  54   2.0000      -0.459708       -12.5093
  55   2.0000      -0.450443       -12.2572
  56   2.0000      -0.447364       -12.1734
  57   2.0000      -0.442274       -12.0349
  58   2.0000      -0.434469       -11.8225
  59   2.0000      -0.427220       -11.6252
  60   2.0000      -0.419045       -11.4028
  61   2.0000      -0.417207       -11.3528
  62   2.0000      -0.404172       -10.9981
  63   2.0000      -0.347464        -9.4550
  64   2.0000      -0.331994        -9.0340
  65   2.0000      -0.322905        -8.7867
  66   2.0000      -0.284849        -7.7511
  67   0.0000       0.036855         1.0029
  68   0.0000       0.075521         2.0550
  69   0.0000       0.103742         2.8230
  70   0.0000       0.125546         3.4163
  71   0.0000       0.133474         3.6320

MULLIKEN ATOMIC CHARGES
-----------------------
   0 S :    0.145847
   1 C :   -0.142703
   2 C :   -0.097039
   3 C :    0.021622
   4 C :   -0.154767
   5 H :   -0.009237
   6 C :    0.141332
   7 H :   -0.004273
   8 H :    0.020980
   9 C :   -0.126214
  10 H :    0.038230
  11 H :    0.041318
  12 C :   -0.062280
  13 H :    0.040938
  14 H :    0.037340
  15 H :    0.038991
  16 S :    0.105106
  17 C :   -0.096423
  18 C :   -0.066932
  19 C :   -0.040496
  20 C :   -0.159042
  21 H :    0.049269
  22 C :    0.040707
  23 H :    0.042039
  24 H :    0.019498
  25 C :   -0.027825
  26 H :    0.020456
  27 H :    0.022886
  28 C :   -0.049071
  29 H :    0.023392
  30 H :    0.028661
  31 H :    0.050273
  32 H :    0.053662
  33 H :    0.053752
Sum of atomic charges:   -0.0000000

LOEWDIN ATOMIC CHARGES
----------------------
   0 S :    0.465675
   1 C :   -0.226832
   2 C :   -0.055725
   3 C :   -0.064640
   4 C :   -0.215126
   5 H :    0.020413
   6 C :   -0.032749
   7 H :    0.026488
   8 H :    0.027301
   9 C :   -0.034394
  10 H :    0.028057
  11 H :    0.024721
  12 C :   -0.068967
  13 H :    0.027441
  14 H :    0.023799
  15 H :    0.025604
  16 S :    0.405780
  17 C :   -0.182212
  18 C :   -0.089616
  19 C :   -0.053483
  20 C :   -0.213629
  21 H :    0.048075
  22 C :   -0.038492
  23 H :    0.047557
  24 H :    0.023049
  25 C :   -0.043031
  26 H :    0.023413
  27 H :    0.026272
  28 C :   -0.066185
  29 H :    0.026924
  30 H :    0.027808
  31 H :    0.032237
  32 H :    0.027727
  33 H :    0.026741

  Mayer bond orders larger than 0.100000
B(  0-S ,  1-C ) :   1.1847 B(  0-S ,  4-C ) :   1.1828 B(  1-C ,  2-C ) :   1.5420
B(  1-C , 32-H ) :   0.9631 B(  2-C ,  3-C ) :   1.2896 B(  2-C ,  6-C ) :   1.0427
B(  3-C ,  4-C ) :   1.5276 B(  3-C ,  5-H ) :   1.0007 B(  4-C , 20-C ) :   1.0146
B(  6-C ,  7-H ) :   0.9243 B(  6-C ,  8-H ) :   0.9348 B(  6-C ,  9-C ) :   1.0530
B(  9-C , 10-H ) :   0.9592 B(  9-C , 11-H ) :   0.9638 B(  9-C , 12-C ) :   1.0732
B( 12-C , 13-H ) :   0.9768 B( 12-C , 14-H ) :   0.9775 B( 12-C , 15-H ) :   0.9767
B( 16-S , 17-C ) :   1.1635 B( 16-S , 20-C ) :   1.1352 B( 17-C , 18-C ) :   1.6292
B( 17-C , 33-H ) :   0.9623 B( 18-C , 19-C ) :   1.2328 B( 18-C , 21-H ) :   0.9779
B( 19-C , 20-C ) :   1.5797 B( 19-C , 22-C ) :   1.0176 B( 22-C , 23-H ) :   0.9309
B( 22-C , 24-H ) :   0.9400 B( 22-C , 25-C ) :   1.0612 B( 25-C , 26-H ) :   0.9533
B( 25-C , 27-H ) :   0.9412 B( 25-C , 28-C ) :   1.0945 B( 28-C , 29-H ) :   0.9711
B( 28-C , 30-H ) :   0.9722 B( 28-C , 31-H ) :   0.9747

Dispersion correction           -0.013515132
FINAL SINGLE POINT ENERGY     -1339.870164171280

DIPOLE MOMENT
-------------
                                X             Y             Z
Electronic contribution:      8.69823     -10.50348      -5.55202
Nuclear contribution   :     -8.81688      10.64620       5.92512
                        -----------------------------------------
Total Dipole Moment    :     -0.11865       0.14271       0.37310
                        -----------------------------------------
Magnitude (a.u.)       :      0.41671
Magnitude (Debye)      :      1.05920

Rotational constants in cm-1:     0.021766     0.007237     0.005882
Rotational constants in MHz :   652.514840   216.953834   176.341322

                             ****ORCA TERMINATED NORMALLY****
TOTAL RUN TIME: 0 days 0 hours 0 minutes 20 seconds 600 msec
