                         Program Version 4.2.1 -  RELEASE  -
|  1> ! wB97X-D3 SP def2-SVP
|  2> %pal
|  3> nprocs 24
|  4> end
|  5>
|  6> * xyz 0 1
|  7> S 	 -80.9791 	 -5.19381 	 -57.6227
|  8> C 	 -79.2857 	 -4.7562 	 -57.4841
|  9> C 	 -78.5536 	 -5.25788 	 -58.5418
| 10> C 	 -79.3973 	 -5.93592 	 -59.4591
| 11> C 	 -80.7503 	 -5.94237 	 -59.1593
| 12> H 	 -79.1103 	 -6.44304 	 -60.3541
| 13> C 	 -77.1023 	 -4.96285 	 -58.754
| 14> H 	 -76.4601 	 -5.84916 	 -58.8809
| 15> H 	 -76.7625 	 -4.56097 	 -57.7787
| 16> C 	 -76.7322 	 -4.00374 	 -59.9117
| 17> H 	 -77.0276 	 -4.36065 	 -60.8846
| 18> H 	 -77.4258 	 -3.16826 	 -59.8631
| 19> C 	 -75.2458 	 -3.63999 	 -59.8567
| 20> H 	 -74.7488 	 -4.52862 	 -60.0544
| 21> H 	 -74.9585 	 -2.90407 	 -60.636
| 22> H 	 -74.9107 	 -3.22492 	 -58.864
| 23> S 	 -83.2201 	 -6.99102 	 -58.7764
| 24> C 	 -84.1737 	 -7.6027 	 -60.1297
| 25> C 	 -83.523 	 -7.41577 	 -61.3182
| 26> C 	 -82.2309 	 -6.7279 	 -61.2008
| 27> C 	 -81.9587 	 -6.47673 	 -59.8775
| 28> H 	 -84.0208 	 -7.6696 	 -62.2537
| 29> C 	 -81.3736 	 -6.45243 	 -62.4035
| 30> H 	 -81.5168 	 -7.27913 	 -63.0725
| 31> H 	 -80.2865 	 -6.52185 	 -62.0407
| 32> C 	 -81.715 	 -5.19872 	 -63.1382
| 33> H 	 -82.7852 	 -5.19402 	 -63.2838
| 34> H 	 -81.2914 	 -5.06334 	 -64.11
| 35> C 	 -81.3344 	 -3.88061 	 -62.3798
| 36> H 	 -80.2483 	 -3.65606 	 -62.5303
| 37> H 	 -81.6145 	 -3.90516 	 -61.3384
| 38> H 	 -81.8668 	 -3.02868 	 -62.947
| 39> H 	 -78.7427 	 -4.14005 	 -56.7136
| 40> H 	 -85.1586 	 -7.97212 	 -60.0225
| 41> *
| 42>
| 43>                          ****END OF INPUT****

CARTESIAN COORDINATES (ANGSTROEM)
---------------------------------
  S    -80.979100   -5.193810  -57.622700
  C    -79.285700   -4.756200  -57.484100
  C    -78.553600   -5.257880  -58.541800
  C    -79.397300   -5.935920  -59.459100
  C    -80.750300   -5.942370  -59.159300
  H    -79.110300   -6.443040  -60.354100
  C    -77.102300   -4.962850  -58.754000
  H    -76.460100   -5.849160  -58.880900
  H    -76.762500   -4.560970  -57.778700
  C    -76.732200   -4.003740  -59.911700
  H    -77.027600   -4.360650  -60.884600
  H    -77.425800   -3.168260  -59.863100
  C    -75.245800   -3.639990  -59.856700
  H    -74.748800   -4.528620  -60.054400
  H    -74.958500   -2.904070  -60.636000
  H    -74.910700   -3.224920  -58.864000
  S    -83.220100   -6.991020  -58.776400
  C    -84.173700   -7.602700  -60.129700
  C    -83.523000   -7.415770  -61.318200
  C    -82.230900   -6.727900  -61.200800
  C    -81.958700   -6.476730  -59.877500
  H    -84.020800   -7.669600  -62.253700
  C    -81.373600   -6.452430  -62.403500
  H    -81.516800   -7.279130  -63.072500
  H    -80.286500   -6.521850  -62.040700
  C    -81.715000   -5.198720  -63.138200
  H    -82.785200   -5.194020  -63.283800
  H    -81.291400   -5.063340  -64.110000
  C    -81.334400   -3.880610  -62.379800
  H    -80.248300   -3.656060  -62.530300
  H    -81.614500   -3.905160  -61.338400
  H    -81.866800   -3.028680  -62.947000
  H    -78.742700   -4.140050  -56.713600
  H    -85.158600   -7.972120  -60.022500

 Total Charge           Charge          ....    0
 Multiplicity           Mult            ....    1
 Number of Electrons    NEL             ....  134
 Basis Dimension        Dim             ....  322

ORBITAL ENERGIES
----------------

  NO   OCC          E(Eh)            E(eV)
   0   2.0000     -88.967215     -2420.9210
   1   2.0000     -88.965343     -2420.8701
   2   2.0000     -10.333876      -281.1991
   3   2.0000     -10.332375      -281.1582
   4   2.0000     -10.317454      -280.7522
   5   2.0000     -10.317179      -280.7447
   6   2.0000     -10.307894      -280.4921
   7   2.0000     -10.299643      -280.2675
   8   2.0000     -10.299180      -280.2549
   9   2.0000     -10.296192      -280.1736
  10   2.0000     -10.295268      -280.1485
  11   2.0000     -10.291298      -280.0405
  12   2.0000     -10.285956      -279.8951
  13   2.0000     -10.282903      -279.8120
  14   2.0000     -10.281430      -279.7719
  15   2.0000     -10.280850      -279.7562
  16   2.0000      -8.082174      -219.9271
  17   2.0000      -8.080261      -219.8751
  18   2.0000      -6.040713      -164.3762
  19   2.0000      -6.038942      -164.3280
  20   2.0000      -6.036608      -164.2645
  21   2.0000      -6.034814      -164.2156
  22   2.0000      -6.032918      -164.1640
  23   2.0000      -6.030742      -164.1048
  24   2.0000      -1.009616       -27.4731
  25   2.0000      -0.986028       -26.8312
  26   2.0000      -0.915420       -24.9098
  27   2.0000      -0.912381       -24.8272
  28   2.0000      -0.870215       -23.6797
  29   2.0000      -0.849294       -23.1105
  30   2.0000      -0.842105       -22.9149
  31   2.0000      -0.818408       -22.2700
  32   2.0000      -0.781588       -21.2681
  33   2.0000      -0.773618       -21.0512
  34   2.0000      -0.711466       -19.3600
  35   2.0000      -0.698293       -19.0015
  36   2.0000      -0.692545       -18.8451
  37   2.0000      -0.664974       -18.0949
  38   2.0000      -0.640723       -17.4350
  39   2.0000      -0.620974       -16.8976
  40   2.0000      -0.597211       -16.2509
  41   2.0000      -0.574630       -15.6365
  42   2.0000      -0.560467       -15.2511
  43   2.0000      -0.555407       -15.1134
  44   2.0000      -0.542196       -14.7539
  45   2.0000      -0.521891       -14.2014
  46   2.0000      -0.516148       -14.0451
  47   2.0000      -0.512981       -13.9589
  48   2.0000      -0.503496       -13.7008
  49   2.0000      -0.495320       -13.4783
  50   2.0000      -0.491866       -13.3843
  51   2.0000      -0.478626       -13.0241
  52   2.0000      -0.473447       -12.8832
  53   2.0000      -0.468946       -12.7607
  54   2.0000      -0.456975       -12.4349
  55   2.0000      -0.449879       -12.2418
  56   2.0000      -0.447151       -12.1676
  57   2.0000      -0.440327       -11.9819
  58   2.0000      -0.434662       -11.8277
  59   2.0000      -0.423072       -11.5124
  60   2.0000      -0.417446       -11.3593
  61   2.0000      -0.414768       -11.2864
  62   2.0000      -0.411630       -11.2010
  63   2.0000      -0.357579        -9.7302
  64   2.0000      -0.335725        -9.1356
  65   2.0000      -0.328275        -8.9328
  66   2.0000      -0.290863        -7.9148
  67   0.0000       0.026298         0.7156
  68   0.0000       0.079877         2.1736
  69   0.0000       0.096844         2.6353
  70   0.0000       0.115365         3.1392
  71   0.0000       0.131121         3.5680

MULLIKEN ATOMIC CHARGES
-----------------------
   0 S :    0.099090
   1 C :   -0.121925
   2 C :   -0.082233
   3 C :    0.016198
   4 C :   -0.121684
   5 H :   -0.004089
   6 C :    0.048569
   7 H :    0.028212
   8 H :    0.008185
   9 C :   -0.055386
  10 H :    0.017930
  11 H :    0.018298
  12 C :   -0.035793
  13 H :    0.018324
  14 H :    0.041514
  15 H :    0.040007
  16 S :    0.085492
  17 C :   -0.070022
  18 C :   -0.031590
  19 C :   -0.089923
  20 C :   -0.114214
  21 H :    0.023393
  22 C :    0.088157
  23 H :    0.019210
  24 H :    0.025941
  25 C :   -0.042840
  26 H :    0.020081
  27 H :    0.025520
  28 C :   -0.092530
  29 H :    0.035975
  30 H :    0.054733
  31 H :    0.037887
  32 H :    0.063024
  33 H :    0.046487
Sum of atomic charges:    0.0000000

LOEWDIN ATOMIC CHARGES
----------------------
   0 S :    0.412106
   1 C :   -0.206019
   2 C :   -0.067209
   3 C :   -0.070098
   4 C :   -0.194405
   5 H :    0.021756
   6 C :   -0.033682
   7 H :    0.030925
   8 H :    0.029675
   9 C :   -0.041010
  10 H :    0.021021
  11 H :    0.021208
  12 C :   -0.060743
  13 H :    0.016015
  14 H :    0.031843
  15 H :    0.031479
  16 S :    0.388592
  17 C :   -0.171488
  18 C :   -0.065551
  19 C :   -0.059328
  20 C :   -0.187123
  21 H :    0.032497
  22 C :   -0.034409
  23 H :    0.031378
  24 H :    0.036324
  25 C :   -0.040607
  26 H :    0.023164
  27 H :    0.022509
  28 C :   -0.067997
  29 H :    0.025630
  30 H :    0.023710
  31 H :    0.033417
  32 H :    0.043168
  33 H :    0.023252

  Mayer bond orders larger than 0.100000
B(  0-S ,  1-C ) :   1.1348 B(  0-S ,  4-C ) :   1.1574 B(  1-C ,  2-C ) :   1.6176
B(  1-C , 32-H ) :   0.9539 B(  2-C ,  3-C ) :   1.2399 B(  2-C ,  6-C ) :   1.0397
B(  3-C ,  4-C ) :   1.5807 B(  3-C ,  5-H ) :   0.9975 B(  4-C , 20-C ) :   1.0057
B(  6-C ,  7-H ) :   0.9351 B(  6-C ,  8-H ) :   0.9392 B(  6-C ,  9-C ) :   1.0503
B(  9-C , 10-H ) :   0.9523 B(  9-C , 11-H ) :   0.9543 B(  9-C , 12-C ) :   1.0750
B( 12-C , 13-H ) :   0.9741 B( 12-C , 14-H ) :   0.9736 B( 12-C , 15-H ) :   0.9768
B( 16-S , 17-C ) :   1.1277 B( 16-S , 20-C ) :   1.1333 B( 17-C , 18-C ) :   1.6530
B( 17-C , 33-H ) :   0.9732 B( 18-C , 19-C ) :   1.1989 B( 18-C , 21-H ) :   0.9837
B( 19-C , 20-C ) :   1.6504 B( 19-C , 22-C ) :   1.0331 B( 22-C , 23-H ) :   0.9219
B( 22-C , 24-H ) :   0.9374 B( 22-C , 25-C ) :   1.0772 B( 25-C , 26-H ) :   0.9523
B( 25-C , 27-H ) :   0.9547 B( 25-C , 28-C ) :   1.0736 B( 28-C , 29-H ) :   0.9771
B( 28-C , 30-H ) :   0.9781 B( 28-C , 31-H ) :   0.9741

Dispersion correction           -0.014641420
FINAL SINGLE POINT ENERGY     -1339.885657550780

DIPOLE MOMENT
-------------
                                X             Y             Z
Electronic contribution:    -21.20722     -11.84725      17.90280
Nuclear contribution   :     21.52516      11.89468     -18.54856
                        -----------------------------------------
Total Dipole Moment    :      0.31794       0.04743      -0.64576
                        -----------------------------------------
Magnitude (a.u.)       :      0.72135
Magnitude (Debye)      :      1.83353

Rotational constants in cm-1:     0.020946     0.008724     0.006719
Rotational constants in MHz :   627.931207   261.535335   201.439776

                             ****ORCA TERMINATED NORMALLY****
TOTAL RUN TIME: 0 days 0 hours 0 minutes 22 seconds 37 msec
