                         Program Version 4.2.1 -  RELEASE  -
|  1> ! wB97X-D3 SP def2-SVP
|  2> %pal
|  3> nprocs 24
|  4> end
|  5>
|  6> * xyz 0 1
|  7> S 	 -121.223 	 62.0277 	 -38.6214
|  8> C 	 -122.406 	 63.3101 	 -38.5566
|  9> C 	 -122.244 	 64.014 	 -37.3782
| 10> C 	 -121.254 	 63.4 	 -36.5138
| 11> C 	 -120.5 	 62.4344 	 -37.1993
| 12> H 	 -120.917 	 63.7619 	 -35.5883
| 13> C 	 -123.06 	 65.2678 	 -37.0154
| 14> H 	 -124.032 	 64.8593 	 -36.6994
| 15> H 	 -123.056 	 65.8461 	 -37.9123
| 16> C 	 -122.525 	 66.1593 	 -35.7936
| 17> H 	 -123.375 	 66.7724 	 -35.454
| 18> H 	 -122.295 	 65.5153 	 -34.9085
| 19> C 	 -121.363 	 67.0523 	 -36.1429
| 20> H 	 -120.499 	 66.4455 	 -36.3931
| 21> H 	 -121.484 	 67.6028 	 -37.0615
| 22> H 	 -121.109 	 67.7751 	 -35.319
| 23> S 	 -118.058 	 61.4265 	 -37.9579
| 24> C 	 -117.087 	 60.7526 	 -36.7016
| 25> C 	 -117.543 	 60.9576 	 -35.4304
| 26> C 	 -118.939 	 61.2935 	 -35.4017
| 27> C 	 -119.315 	 61.7104 	 -36.7055
| 28> H 	 -116.917 	 60.7524 	 -34.5478
| 29> C 	 -119.763 	 61.378 	 -34.1616
| 30> H 	 -119.9 	 60.374 	 -33.7233
| 31> H 	 -120.754 	 61.7361 	 -34.3995
| 32> C 	 -119.203 	 62.3496 	 -33.0218
| 33> H 	 -119.198 	 63.4171 	 -33.3418
| 34> H 	 -118.133 	 62.1455 	 -32.7505
| 35> C 	 -120.009 	 62.3187 	 -31.767
| 36> H 	 -119.599 	 63.0667 	 -31.1706
| 37> H 	 -119.886 	 61.3785 	 -31.3106
| 38> H 	 -121.099 	 62.3752 	 -31.8889
| 39> H 	 -123.12 	 63.5564 	 -39.318
| 40> H 	 -115.975 	 60.608 	 -36.8432
| 41> *
| 42>
| 43>                          ****END OF INPUT****

CARTESIAN COORDINATES (ANGSTROEM)
---------------------------------
  S    -121.223000   62.027700  -38.621400
  C    -122.406000   63.310100  -38.556600
  C    -122.244000   64.014000  -37.378200
  C    -121.254000   63.400000  -36.513800
  C    -120.500000   62.434400  -37.199300
  H    -120.917000   63.761900  -35.588300
  C    -123.060000   65.267800  -37.015400
  H    -124.032000   64.859300  -36.699400
  H    -123.056000   65.846100  -37.912300
  C    -122.525000   66.159300  -35.793600
  H    -123.375000   66.772400  -35.454000
  H    -122.295000   65.515300  -34.908500
  C    -121.363000   67.052300  -36.142900
  H    -120.499000   66.445500  -36.393100
  H    -121.484000   67.602800  -37.061500
  H    -121.109000   67.775100  -35.319000
  S    -118.058000   61.426500  -37.957900
  C    -117.087000   60.752600  -36.701600
  C    -117.543000   60.957600  -35.430400
  C    -118.939000   61.293500  -35.401700
  C    -119.315000   61.710400  -36.705500
  H    -116.917000   60.752400  -34.547800
  C    -119.763000   61.378000  -34.161600
  H    -119.900000   60.374000  -33.723300
  H    -120.754000   61.736100  -34.399500
  C    -119.203000   62.349600  -33.021800
  H    -119.198000   63.417100  -33.341800
  H    -118.133000   62.145500  -32.750500
  C    -120.009000   62.318700  -31.767000
  H    -119.599000   63.066700  -31.170600
  H    -119.886000   61.378500  -31.310600
  H    -121.099000   62.375200  -31.888900
  H    -123.120000   63.556400  -39.318000
  H    -115.975000   60.608000  -36.843200

 Total Charge           Charge          ....    0
 Multiplicity           Mult            ....    1
 Number of Electrons    NEL             ....  134
 Basis Dimension        Dim             ....  322

ORBITAL ENERGIES
----------------

  NO   OCC          E(Eh)            E(eV)
   0   2.0000     -88.968550     -2420.9573
   1   2.0000     -88.963204     -2420.8119
   2   2.0000     -10.333536      -281.1898
   3   2.0000     -10.323418      -280.9145
   4   2.0000     -10.314811      -280.6803
   5   2.0000     -10.308788      -280.5164
   6   2.0000     -10.307071      -280.4697
   7   2.0000     -10.303024      -280.3595
   8   2.0000     -10.297646      -280.2132
   9   2.0000     -10.297420      -280.2071
  10   2.0000     -10.296076      -280.1705
  11   2.0000     -10.295503      -280.1549
  12   2.0000     -10.294998      -280.1411
  13   2.0000     -10.288642      -279.9682
  14   2.0000     -10.276928      -279.6494
  15   2.0000     -10.269809      -279.4557
  16   2.0000      -8.083055      -219.9511
  17   2.0000      -8.079913      -219.8656
  18   2.0000      -6.041432      -164.3957
  19   2.0000      -6.038278      -164.3099
  20   2.0000      -6.037891      -164.2994
  21   2.0000      -6.033892      -164.1906
  22   2.0000      -6.033655      -164.1841
  23   2.0000      -6.030956      -164.1107
  24   2.0000      -1.012040       -27.5390
  25   2.0000      -0.985427       -26.8148
  26   2.0000      -0.910796       -24.7840
  27   2.0000      -0.906417       -24.6648
  28   2.0000      -0.867548       -23.6072
  29   2.0000      -0.861968       -23.4553
  30   2.0000      -0.841573       -22.9004
  31   2.0000      -0.813617       -22.1397
  32   2.0000      -0.786406       -21.3992
  33   2.0000      -0.771165       -20.9845
  34   2.0000      -0.707654       -19.2562
  35   2.0000      -0.698393       -19.0042
  36   2.0000      -0.687743       -18.7145
  37   2.0000      -0.654404       -17.8072
  38   2.0000      -0.637100       -17.3364
  39   2.0000      -0.619768       -16.8648
  40   2.0000      -0.597093       -16.2477
  41   2.0000      -0.565739       -15.3945
  42   2.0000      -0.559745       -15.2314
  43   2.0000      -0.553707       -15.0671
  44   2.0000      -0.540555       -14.7092
  45   2.0000      -0.532876       -14.5003
  46   2.0000      -0.519594       -14.1389
  47   2.0000      -0.512650       -13.9499
  48   2.0000      -0.501540       -13.6476
  49   2.0000      -0.497995       -13.5511
  50   2.0000      -0.487358       -13.2617
  51   2.0000      -0.486059       -13.2263
  52   2.0000      -0.472350       -12.8533
  53   2.0000      -0.463687       -12.6176
  54   2.0000      -0.461934       -12.5699
  55   2.0000      -0.452218       -12.3055
  56   2.0000      -0.445105       -12.1119
  57   2.0000      -0.439818       -11.9680
  58   2.0000      -0.439354       -11.9554
  59   2.0000      -0.430668       -11.7191
  60   2.0000      -0.417046       -11.3484
  61   2.0000      -0.415454       -11.3051
  62   2.0000      -0.409689       -11.1482
  63   2.0000      -0.348119        -9.4728
  64   2.0000      -0.332235        -9.0406
  65   2.0000      -0.326506        -8.8847
  66   2.0000      -0.284942        -7.7537
  67   0.0000       0.026018         0.7080
  68   0.0000       0.077834         2.1180
  69   0.0000       0.103727         2.8226
  70   0.0000       0.121096         3.2952
  71   0.0000       0.126081         3.4308

MULLIKEN ATOMIC CHARGES
-----------------------
   0 S :    0.119724
   1 C :   -0.127402
   2 C :   -0.109285
   3 C :    0.035403
   4 C :   -0.137265
   5 H :   -0.014992
   6 C :    0.062196
   7 H :    0.051611
   8 H :    0.032722
   9 C :   -0.096445
  10 H :    0.031363
  11 H :    0.035627
  12 C :   -0.045724
  13 H :    0.030027
  14 H :    0.022417
  15 H :    0.047649
  16 S :    0.108905
  17 C :   -0.089161
  18 C :   -0.062327
  19 C :   -0.019317
  20 C :   -0.153407
  21 H :    0.033913
  22 C :    0.066920
  23 H :    0.036932
  24 H :    0.017427
  25 C :   -0.135410
  26 H :    0.035332
  27 H :    0.033380
  28 C :    0.010472
  29 H :    0.026607
  30 H :    0.011662
  31 H :    0.028872
  32 H :    0.039113
  33 H :    0.072461
Sum of atomic charges:    0.0000000

LOEWDIN ATOMIC CHARGES
----------------------
   0 S :    0.454627
   1 C :   -0.215056
   2 C :   -0.055925
   3 C :   -0.077561
   4 C :   -0.225552
   5 H :    0.015356
   6 C :   -0.025534
   7 H :    0.040236
   8 H :    0.028271
   9 C :   -0.045773
  10 H :    0.025991
  11 H :    0.026245
  12 C :   -0.073360
  13 H :    0.026027
  14 H :    0.022924
  15 H :    0.034119
  16 S :    0.395593
  17 C :   -0.206471
  18 C :   -0.068307
  19 C :   -0.050772
  20 C :   -0.177382
  21 H :    0.035541
  22 C :   -0.032549
  23 H :    0.036994
  24 H :    0.028632
  25 C :   -0.039966
  26 H :    0.024560
  27 H :    0.025813
  28 C :   -0.059583
  29 H :    0.022972
  30 H :    0.018350
  31 H :    0.027794
  32 H :    0.025860
  33 H :    0.037884

  Mayer bond orders larger than 0.100000
B(  0-S ,  1-C ) :   1.1308 B(  0-S ,  4-C ) :   1.2105 B(  1-C ,  2-C ) :   1.5970
B(  1-C , 32-H ) :   0.9796 B(  2-C ,  3-C ) :   1.2673 B(  2-C ,  6-C ) :   0.9926
B(  3-C ,  4-C ) :   1.5202 B(  3-C ,  5-H ) :   0.9914 B(  4-C , 20-C ) :   1.0305
B(  6-C ,  7-H ) :   0.9390 B(  6-C ,  8-H ) :   0.9501 B(  6-C ,  9-C ) :   1.0798
B(  9-C , 10-H ) :   0.9562 B(  9-C , 11-H ) :   0.9510 B(  9-C , 12-C ) :   1.0774
B( 12-C , 13-H ) :   0.9737 B( 12-C , 14-H ) :   0.9715 B( 12-C , 15-H ) :   0.9730
B( 16-S , 17-C ) :   1.1405 B( 16-S , 20-C ) :   1.1415 B( 17-C , 18-C ) :   1.6601
B( 17-C , 33-H ) :   0.9518 B( 18-C , 19-C ) :   1.2122 B( 18-C , 21-H ) :   0.9774
B( 19-C , 20-C ) :   1.5882 B( 19-C , 22-C ) :   1.0625 B( 22-C , 23-H ) :   0.9280
B( 22-C , 24-H ) :   0.9298 B( 22-C , 25-C ) :   1.0499 B( 25-C , 26-H ) :   0.9596
B( 25-C , 27-H ) :   0.9531 B( 25-C , 28-C ) :   1.0908 B( 28-C , 29-H ) :   0.9708
B( 28-C , 30-H ) :   0.9697 B( 28-C , 31-H ) :   0.9709

Dispersion correction           -0.014183847
FINAL SINGLE POINT ENERGY     -1339.867755755869

DIPOLE MOMENT
-------------
                                X             Y             Z
Electronic contribution:      7.16758     -16.97668     -24.41869
Nuclear contribution   :     -7.24135      17.41323      25.07471
                        -----------------------------------------
Total Dipole Moment    :     -0.07376       0.43654       0.65602
                        -----------------------------------------
Magnitude (a.u.)       :      0.79144
Magnitude (Debye)      :      2.01167

Rotational constants in cm-1:     0.015265     0.010282     0.007121
Rotational constants in MHz :   457.626268   308.254013   213.484615

                             ****ORCA TERMINATED NORMALLY****
TOTAL RUN TIME: 0 days 0 hours 0 minutes 21 seconds 877 msec
