                         Program Version 4.2.1 -  RELEASE  -
|  1> ! wB97X-D3 SP def2-SVP
|  2> %pal
|  3> nprocs 24
|  4> end
|  5>
|  6> * xyz 0 1
|  7> S 	 -58.6088 	 16.8499 	 -92.0594
|  8> C 	 -56.9423 	 17.3498 	 -91.8981
|  9> C 	 -56.0514 	 16.2395 	 -92.0132
| 10> C 	 -56.7358 	 15.0232 	 -91.8097
| 11> C 	 -58.1696 	 15.1576 	 -91.9207
| 12> H 	 -56.2535 	 14.0782 	 -91.7999
| 13> C 	 -54.5623 	 16.3329 	 -92.195
| 14> H 	 -54.1417 	 15.4767 	 -91.6003
| 15> H 	 -54.2262 	 17.2225 	 -91.6457
| 16> C 	 -53.9645 	 16.3355 	 -93.6134
| 17> H 	 -54.2803 	 17.1646 	 -94.2031
| 18> H 	 -52.8359 	 16.4444 	 -93.4615
| 19> C 	 -54.2365 	 14.965 	 -94.3328
| 20> H 	 -55.3153 	 14.9494 	 -94.5415
| 21> H 	 -53.7824 	 14.9945 	 -95.3223
| 22> H 	 -54.0312 	 14.1028 	 -93.6952
| 23> S 	 -60.7516 	 14.37 	 -92.6587
| 24> C 	 -61.3223 	 12.7305 	 -92.4822
| 25> C 	 -60.4065 	 12.0186 	 -91.7608
| 26> C 	 -59.2262 	 12.7976 	 -91.3989
| 27> C 	 -59.1499 	 14.074 	 -91.9647
| 28> H 	 -60.5891 	 10.978 	 -91.5182
| 29> C 	 -58.0513 	 12.038 	 -90.7274
| 30> H 	 -58.4454 	 11.271 	 -90.0266
| 31> H 	 -57.3824 	 12.6363 	 -90.1832
| 32> C 	 -57.2268 	 11.4381 	 -91.8777
| 33> H 	 -56.8713 	 12.2651 	 -92.4895
| 34> H 	 -57.8886 	 10.7975 	 -92.5001
| 35> C 	 -56.1198 	 10.4981 	 -91.3259
| 36> H 	 -55.4223 	 11.1631 	 -90.7785
| 37> H 	 -55.678 	 9.92575 	 -92.1047
| 38> H 	 -56.5547 	 9.79782 	 -90.5985
| 39> H 	 -56.4342 	 18.309 	 -91.8638
| 40> H 	 -62.3845 	 12.385 	 -92.5694
| 41> *
| 42>
| 43>                          ****END OF INPUT****

CARTESIAN COORDINATES (ANGSTROEM)
---------------------------------
  S    -58.608800   16.849900  -92.059400
  C    -56.942300   17.349800  -91.898100
  C    -56.051400   16.239500  -92.013200
  C    -56.735800   15.023200  -91.809700
  C    -58.169600   15.157600  -91.920700
  H    -56.253500   14.078200  -91.799900
  C    -54.562300   16.332900  -92.195000
  H    -54.141700   15.476700  -91.600300
  H    -54.226200   17.222500  -91.645700
  C    -53.964500   16.335500  -93.613400
  H    -54.280300   17.164600  -94.203100
  H    -52.835900   16.444400  -93.461500
  C    -54.236500   14.965000  -94.332800
  H    -55.315300   14.949400  -94.541500
  H    -53.782400   14.994500  -95.322300
  H    -54.031200   14.102800  -93.695200
  S    -60.751600   14.370000  -92.658700
  C    -61.322300   12.730500  -92.482200
  C    -60.406500   12.018600  -91.760800
  C    -59.226200   12.797600  -91.398900
  C    -59.149900   14.074000  -91.964700
  H    -60.589100   10.978000  -91.518200
  C    -58.051300   12.038000  -90.727400
  H    -58.445400   11.271000  -90.026600
  H    -57.382400   12.636300  -90.183200
  C    -57.226800   11.438100  -91.877700
  H    -56.871300   12.265100  -92.489500
  H    -57.888600   10.797500  -92.500100
  C    -56.119800   10.498100  -91.325900
  H    -55.422300   11.163100  -90.778500
  H    -55.678000    9.925750  -92.104700
  H    -56.554700    9.797820  -90.598500
  H    -56.434200   18.309000  -91.863800
  H    -62.384500   12.385000  -92.569400

 Total Charge           Charge          ....    0
 Multiplicity           Mult            ....    1
 Number of Electrons    NEL             ....  134
 Basis Dimension        Dim             ....  322

ORBITAL ENERGIES
----------------

  NO   OCC          E(Eh)            E(eV)
   0   2.0000     -88.979873     -2421.2654
   1   2.0000     -88.961224     -2420.7580
   2   2.0000     -10.342776      -281.4413
   3   2.0000     -10.334994      -281.2295
   4   2.0000     -10.320243      -280.8281
   5   2.0000     -10.319126      -280.7977
   6   2.0000     -10.309078      -280.5243
   7   2.0000     -10.304326      -280.3950
   8   2.0000     -10.299830      -280.2726
   9   2.0000     -10.298321      -280.2316
  10   2.0000     -10.296169      -280.1730
  11   2.0000     -10.295929      -280.1665
  12   2.0000     -10.290650      -280.0228
  13   2.0000     -10.287530      -279.9379
  14   2.0000     -10.281148      -279.7643
  15   2.0000     -10.280035      -279.7340
  16   2.0000      -8.093409      -220.2329
  17   2.0000      -8.076018      -219.7596
  18   2.0000      -6.052019      -164.6838
  19   2.0000      -6.048008      -164.5747
  20   2.0000      -6.044206      -164.4712
  21   2.0000      -6.034792      -164.2150
  22   2.0000      -6.030491      -164.0980
  23   2.0000      -6.026526      -163.9901
  24   2.0000      -1.004261       -27.3273
  25   2.0000      -0.982859       -26.7450
  26   2.0000      -0.911893       -24.8139
  27   2.0000      -0.909079       -24.7373
  28   2.0000      -0.868439       -23.6314
  29   2.0000      -0.851116       -23.1600
  30   2.0000      -0.839579       -22.8461
  31   2.0000      -0.813867       -22.1464
  32   2.0000      -0.781443       -21.2641
  33   2.0000      -0.769786       -20.9470
  34   2.0000      -0.706494       -19.2247
  35   2.0000      -0.703850       -19.1527
  36   2.0000      -0.693284       -18.8652
  37   2.0000      -0.661905       -18.0114
  38   2.0000      -0.633278       -17.2324
  39   2.0000      -0.620254       -16.8780
  40   2.0000      -0.593991       -16.1633
  41   2.0000      -0.575410       -15.6577
  42   2.0000      -0.564372       -15.3573
  43   2.0000      -0.549686       -14.9577
  44   2.0000      -0.543122       -14.7791
  45   2.0000      -0.525189       -14.2911
  46   2.0000      -0.518476       -14.1084
  47   2.0000      -0.512374       -13.9424
  48   2.0000      -0.506008       -13.7692
  49   2.0000      -0.500837       -13.6285
  50   2.0000      -0.489510       -13.3202
  51   2.0000      -0.476456       -12.9650
  52   2.0000      -0.468467       -12.7476
  53   2.0000      -0.466747       -12.7008
  54   2.0000      -0.460641       -12.5347
  55   2.0000      -0.450535       -12.2597
  56   2.0000      -0.448268       -12.1980
  57   2.0000      -0.442777       -12.0486
  58   2.0000      -0.435556       -11.8521
  59   2.0000      -0.423697       -11.5294
  60   2.0000      -0.420705       -11.4480
  61   2.0000      -0.417628       -11.3642
  62   2.0000      -0.404178       -10.9982
  63   2.0000      -0.359889        -9.7931
  64   2.0000      -0.337154        -9.1744
  65   2.0000      -0.323485        -8.8025
  66   2.0000      -0.279404        -7.6030
  67   0.0000       0.013058         0.3553
  68   0.0000       0.074730         2.0335
  69   0.0000       0.102649         2.7932
  70   0.0000       0.110181         2.9982
  71   0.0000       0.127795         3.4775

MULLIKEN ATOMIC CHARGES
-----------------------
   0 S :    0.144099
   1 C :   -0.090490
   2 C :   -0.127475
   3 C :    0.031350
   4 C :   -0.117678
   5 H :   -0.015161
   6 C :    0.019523
   7 H :    0.031339
   8 H :    0.026344
   9 C :   -0.058341
  10 H :    0.029703
  11 H :    0.042301
  12 C :   -0.065286
  13 H :    0.042211
  14 H :    0.042013
  15 H :    0.036414
  16 S :    0.069042
  17 C :   -0.088754
  18 C :   -0.045208
  19 C :   -0.054506
  20 C :   -0.125153
  21 H :    0.026121
  22 C :    0.048099
  23 H :    0.028512
  24 H :    0.009754
  25 C :   -0.108319
  26 H :    0.035607
  27 H :    0.025963
  28 C :   -0.010827
  29 H :    0.026685
  30 H :    0.036909
  31 H :    0.028652
  32 H :    0.043204
  33 H :    0.083353
Sum of atomic charges:    0.0000000

LOEWDIN ATOMIC CHARGES
----------------------
   0 S :    0.430898
   1 C :   -0.211813
   2 C :   -0.061729
   3 C :   -0.060279
   4 C :   -0.188988
   5 H :    0.020293
   6 C :   -0.042287
   7 H :    0.035570
   8 H :    0.031727
   9 C :   -0.035235
  10 H :    0.019928
  11 H :    0.032021
  12 C :   -0.069015
  13 H :    0.029624
  14 H :    0.028674
  15 H :    0.024276
  16 S :    0.384194
  17 C :   -0.195749
  18 C :   -0.075130
  19 C :   -0.053280
  20 C :   -0.191374
  21 H :    0.032343
  22 C :   -0.028433
  23 H :    0.031502
  24 H :    0.016296
  25 C :   -0.038956
  26 H :    0.020373
  27 H :    0.024009
  28 C :   -0.062451
  29 H :    0.024966
  30 H :    0.021565
  31 H :    0.026551
  32 H :    0.032251
  33 H :    0.047661

  Mayer bond orders larger than 0.100000
B(  0-S ,  1-C ) :   1.1505 B(  0-S ,  4-C ) :   1.1646 B(  1-C ,  2-C ) :   1.5618
B(  1-C ,  4-C ) :   0.1141 B(  1-C , 32-H ) :   0.9623 B(  2-C ,  3-C ) :   1.3090
B(  2-C ,  6-C ) :   1.0249 B(  3-C ,  4-C ) :   1.4856 B(  3-C ,  5-H ) :   0.9885
B(  4-C , 20-C ) :   1.1066 B(  6-C ,  7-H ) :   0.9451 B(  6-C ,  8-H ) :   0.9368
B(  6-C ,  9-C ) :   1.0675 B(  9-C , 10-H ) :   0.9561 B(  9-C , 11-H ) :   0.9550
B(  9-C , 12-C ) :   1.0711 B( 12-C , 13-H ) :   0.9742 B( 12-C , 14-H ) :   0.9730
B( 12-C , 15-H ) :   0.9760 B( 16-S , 17-C ) :   1.1477 B( 16-S , 20-C ) :   1.1168
B( 17-C , 18-C ) :   1.6208 B( 17-C , 33-H ) :   0.9573 B( 18-C , 19-C ) :   1.2364
B( 18-C , 21-H ) :   0.9880 B( 19-C , 20-C ) :   1.5667 B( 19-C , 22-C ) :   1.0614
B( 22-C , 23-H ) :   0.9395 B( 22-C , 24-H ) :   0.9362 B( 22-C , 25-C ) :   1.0534
B( 25-C , 26-H ) :   0.9539 B( 25-C , 27-H ) :   0.9545 B( 25-C , 28-C ) :   1.0702
B( 28-C , 29-H ) :   0.9743 B( 28-C , 30-H ) :   0.9750 B( 28-C , 31-H ) :   0.9739

Dispersion correction           -0.014870268
FINAL SINGLE POINT ENERGY     -1339.867648525465

DIPOLE MOMENT
-------------
                                X             Y             Z
Electronic contribution:    -26.25716      14.46066       1.68596
Nuclear contribution   :     26.80281     -14.83350      -1.63297
                        -----------------------------------------
Total Dipole Moment    :      0.54564      -0.37284       0.05299
                        -----------------------------------------
Magnitude (a.u.)       :      0.66298
Magnitude (Debye)      :      1.68517

Rotational constants in cm-1:     0.017253     0.009989     0.007079
Rotational constants in MHz :   517.245620   299.464184   212.226885

                             ****ORCA TERMINATED NORMALLY****
TOTAL RUN TIME: 0 days 0 hours 0 minutes 22 seconds 296 msec
