                         Program Version 4.2.1 -  RELEASE  -
|  1> ! wB97X-D3 SP def2-SVP
|  2> %pal
|  3> nprocs 24
|  4> end
|  5>
|  6> * xyz 0 1
|  7> S 	 -52.4082 	 -45.6542 	 -75.788
|  8> C 	 -53.6385 	 -44.4963 	 -75.5434
|  9> C 	 -53.7375 	 -43.5929 	 -76.6277
| 10> C 	 -52.9007 	 -44.0382 	 -77.7043
| 11> C 	 -52.1148 	 -45.1054 	 -77.4053
| 12> H 	 -52.9049 	 -43.6388 	 -78.6667
| 13> C 	 -54.8421 	 -42.5507 	 -76.6897
| 14> H 	 -55.7758 	 -43.049 	 -76.7417
| 15> H 	 -54.7509 	 -42.0607 	 -77.6322
| 16> C 	 -54.735 	 -41.4708 	 -75.5659
| 17> H 	 -55.0375 	 -42.0548 	 -74.6712
| 18> H 	 -53.6893 	 -41.1962 	 -75.435
| 19> C 	 -55.719 	 -40.2889 	 -75.6794
| 20> H 	 -56.7499 	 -40.6521 	 -75.8422
| 21> H 	 -55.7712 	 -39.8107 	 -74.7301
| 22> H 	 -55.5168 	 -39.5193 	 -76.4669
| 23> S 	 -51.9762 	 -47.6607 	 -78.2978
| 24> C 	 -50.65 	 -48.0066 	 -79.4199
| 25> C 	 -49.9633 	 -46.8893 	 -79.8821
| 26> C 	 -50.4834 	 -45.6897 	 -79.3007
| 27> C 	 -51.5286 	 -45.9532 	 -78.4122
| 28> H 	 -49.1561 	 -46.9783 	 -80.5723
| 29> C 	 -49.8802 	 -44.2649 	 -79.6529
| 30> H 	 -50.8181 	 -43.7767 	 -79.9912
| 31> H 	 -49.2453 	 -44.4903 	 -80.5449
| 32> C 	 -49.1484 	 -43.5627 	 -78.4723
| 33> H 	 -49.931 	 -43.0986 	 -77.8747
| 34> H 	 -48.5357 	 -42.7861 	 -78.7871
| 35> C 	 -48.2408 	 -44.4225 	 -77.5799
| 36> H 	 -47.4739 	 -44.79 	 -78.2509
| 37> H 	 -48.7791 	 -45.2296 	 -77.186
| 38> H 	 -47.6853 	 -43.9433 	 -76.7257
| 39> H 	 -54.2923 	 -44.3671 	 -74.6769
| 40> H 	 -50.4374 	 -48.9659 	 -79.8887
| 41> *
| 42>
| 43>                          ****END OF INPUT****

CARTESIAN COORDINATES (ANGSTROEM)
---------------------------------
  S    -52.408200  -45.654200  -75.788000
  C    -53.638500  -44.496300  -75.543400
  C    -53.737500  -43.592900  -76.627700
  C    -52.900700  -44.038200  -77.704300
  C    -52.114800  -45.105400  -77.405300
  H    -52.904900  -43.638800  -78.666700
  C    -54.842100  -42.550700  -76.689700
  H    -55.775800  -43.049000  -76.741700
  H    -54.750900  -42.060700  -77.632200
  C    -54.735000  -41.470800  -75.565900
  H    -55.037500  -42.054800  -74.671200
  H    -53.689300  -41.196200  -75.435000
  C    -55.719000  -40.288900  -75.679400
  H    -56.749900  -40.652100  -75.842200
  H    -55.771200  -39.810700  -74.730100
  H    -55.516800  -39.519300  -76.466900
  S    -51.976200  -47.660700  -78.297800
  C    -50.650000  -48.006600  -79.419900
  C    -49.963300  -46.889300  -79.882100
  C    -50.483400  -45.689700  -79.300700
  C    -51.528600  -45.953200  -78.412200
  H    -49.156100  -46.978300  -80.572300
  C    -49.880200  -44.264900  -79.652900
  H    -50.818100  -43.776700  -79.991200
  H    -49.245300  -44.490300  -80.544900
  C    -49.148400  -43.562700  -78.472300
  H    -49.931000  -43.098600  -77.874700
  H    -48.535700  -42.786100  -78.787100
  C    -48.240800  -44.422500  -77.579900
  H    -47.473900  -44.790000  -78.250900
  H    -48.779100  -45.229600  -77.186000
  H    -47.685300  -43.943300  -76.725700
  H    -54.292300  -44.367100  -74.676900
  H    -50.437400  -48.965900  -79.888700

 Total Charge           Charge          ....    0
 Multiplicity           Mult            ....    1
 Number of Electrons    NEL             ....  134
 Basis Dimension        Dim             ....  322

ORBITAL ENERGIES
----------------

  NO   OCC          E(Eh)            E(eV)
   0   2.0000     -88.968680     -2420.9609
   1   2.0000     -88.967856     -2420.9384
   2   2.0000     -10.323197      -280.9085
   3   2.0000     -10.319111      -280.7973
   4   2.0000     -10.316488      -280.7259
   5   2.0000     -10.312329      -280.6127
   6   2.0000     -10.304918      -280.4111
   7   2.0000     -10.304602      -280.4025
   8   2.0000     -10.300686      -280.2959
   9   2.0000     -10.292915      -280.0845
  10   2.0000     -10.292354      -280.0692
  11   2.0000     -10.287477      -279.9365
  12   2.0000     -10.286602      -279.9127
  13   2.0000     -10.282896      -279.8118
  14   2.0000     -10.279674      -279.7242
  15   2.0000     -10.269170      -279.4383
  16   2.0000      -8.083306      -219.9580
  17   2.0000      -8.082557      -219.9376
  18   2.0000      -6.041667      -164.4021
  19   2.0000      -6.041040      -164.3850
  20   2.0000      -6.037605      -164.2916
  21   2.0000      -6.037320      -164.2838
  22   2.0000      -6.034279      -164.2011
  23   2.0000      -6.033245      -164.1729
  24   2.0000      -1.009848       -27.4794
  25   2.0000      -0.979534       -26.6545
  26   2.0000      -0.908695       -24.7268
  27   2.0000      -0.899566       -24.4784
  28   2.0000      -0.868172       -23.6242
  29   2.0000      -0.853369       -23.2214
  30   2.0000      -0.844253       -22.9733
  31   2.0000      -0.812910       -22.1204
  32   2.0000      -0.782967       -21.3056
  33   2.0000      -0.767971       -20.8975
  34   2.0000      -0.708010       -19.2659
  35   2.0000      -0.703275       -19.1371
  36   2.0000      -0.685566       -18.6552
  37   2.0000      -0.664130       -18.0719
  38   2.0000      -0.643340       -17.5062
  39   2.0000      -0.615967       -16.7613
  40   2.0000      -0.576765       -15.6946
  41   2.0000      -0.568300       -15.4642
  42   2.0000      -0.562337       -15.3020
  43   2.0000      -0.557147       -15.1607
  44   2.0000      -0.543334       -14.7849
  45   2.0000      -0.521046       -14.1784
  46   2.0000      -0.518093       -14.0980
  47   2.0000      -0.507237       -13.8026
  48   2.0000      -0.500046       -13.6069
  49   2.0000      -0.495687       -13.4883
  50   2.0000      -0.487569       -13.2674
  51   2.0000      -0.472661       -12.8618
  52   2.0000      -0.469287       -12.7699
  53   2.0000      -0.466608       -12.6970
  54   2.0000      -0.457070       -12.4375
  55   2.0000      -0.455357       -12.3909
  56   2.0000      -0.446582       -12.1521
  57   2.0000      -0.441634       -12.0175
  58   2.0000      -0.436752       -11.8846
  59   2.0000      -0.425417       -11.5762
  60   2.0000      -0.416536       -11.3345
  61   2.0000      -0.412619       -11.2279
  62   2.0000      -0.407524       -11.0893
  63   2.0000      -0.349735        -9.5168
  64   2.0000      -0.335436        -9.1277
  65   2.0000      -0.325305        -8.8520
  66   2.0000      -0.284914        -7.7529
  67   0.0000       0.028599         0.7782
  68   0.0000       0.066574         1.8116
  69   0.0000       0.108563         2.9542
  70   0.0000       0.123030         3.3478
  71   0.0000       0.132115         3.5950

MULLIKEN ATOMIC CHARGES
-----------------------
   0 S :    0.126646
   1 C :   -0.133072
   2 C :   -0.110341
   3 C :    0.042220
   4 C :   -0.133291
   5 H :   -0.011678
   6 C :    0.096168
   7 H :    0.032897
   8 H :    0.001101
   9 C :   -0.103682
  10 H :    0.025290
  11 H :    0.041173
  12 C :   -0.033547
  13 H :    0.024518
  14 H :    0.029214
  15 H :    0.045197
  16 S :    0.118321
  17 C :   -0.096193
  18 C :   -0.024218
  19 C :   -0.090462
  20 C :   -0.170960
  21 H :    0.010159
  22 C :    0.067187
  23 H :    0.048003
  24 H :    0.025956
  25 C :   -0.028281
  26 H :    0.031910
  27 H :    0.015816
  28 C :   -0.049258
  29 H :    0.018357
  30 H :    0.032481
  31 H :    0.043786
  32 H :    0.055616
  33 H :    0.052970
Sum of atomic charges:   -0.0000000

LOEWDIN ATOMIC CHARGES
----------------------
   0 S :    0.433350
   1 C :   -0.214467
   2 C :   -0.061727
   3 C :   -0.051602
   4 C :   -0.210409
   5 H :    0.020430
   6 C :   -0.030007
   7 H :    0.028437
   8 H :    0.021475
   9 C :   -0.038726
  10 H :    0.024810
  11 H :    0.026980
  12 C :   -0.069772
  13 H :    0.028060
  14 H :    0.024235
  15 H :    0.029821
  16 S :    0.394636
  17 C :   -0.182277
  18 C :   -0.068685
  19 C :   -0.054299
  20 C :   -0.195887
  21 H :    0.027713
  22 C :   -0.025047
  23 H :    0.038124
  24 H :    0.031422
  25 C :   -0.038454
  26 H :    0.025542
  27 H :    0.016229
  28 C :   -0.062160
  29 H :    0.022373
  30 H :    0.016645
  31 H :    0.035151
  32 H :    0.030390
  33 H :    0.027695

  Mayer bond orders larger than 0.100000
B(  0-S ,  1-C ) :   1.1624 B(  0-S ,  4-C ) :   1.1524 B(  1-C ,  2-C ) :   1.5659
B(  1-C , 32-H ) :   0.9669 B(  2-C ,  3-C ) :   1.2752 B(  2-C ,  6-C ) :   1.0246
B(  3-C ,  4-C ) :   1.5466 B(  3-C ,  5-H ) :   1.0023 B(  4-C , 20-C ) :   1.0450
B(  6-C ,  7-H ) :   0.9418 B(  6-C ,  8-H ) :   0.9397 B(  6-C ,  9-C ) :   1.0485
B(  9-C , 10-H ) :   0.9559 B(  9-C , 11-H ) :   0.9631 B(  9-C , 12-C ) :   1.0816
B( 12-C , 13-H ) :   0.9706 B( 12-C , 14-H ) :   0.9738 B( 12-C , 15-H ) :   0.9761
B( 16-S , 17-C ) :   1.1424 B( 16-S , 20-C ) :   1.1360 B( 17-C , 18-C ) :   1.6255
B( 17-C , 33-H ) :   0.9609 B( 18-C , 19-C ) :   1.2495 B( 18-C , 21-H ) :   0.9901
B( 19-C , 20-C ) :   1.6053 B( 19-C , 22-C ) :   0.9956 B( 22-C , 23-H ) :   0.9465
B( 22-C , 24-H ) :   0.9383 B( 22-C , 25-C ) :   1.0535 B( 25-C , 26-H ) :   0.9509
B( 25-C , 27-H ) :   0.9588 B( 25-C , 28-C ) :   1.0802 B( 28-C , 29-H ) :   0.9769
B( 28-C , 30-H ) :   0.9711 B( 28-C , 31-H ) :   0.9756

Dispersion correction           -0.014968139
FINAL SINGLE POINT ENERGY     -1339.866763644392

DIPOLE MOMENT
-------------
                                X             Y             Z
Electronic contribution:     -0.13905     -24.73118      -0.86586
Nuclear contribution   :      0.02301      25.19262       0.64821
                        -----------------------------------------
Total Dipole Moment    :     -0.11604       0.46144      -0.21765
                        -----------------------------------------
Magnitude (a.u.)       :      0.52323
Magnitude (Debye)      :      1.32994

Rotational constants in cm-1:     0.022800     0.007784     0.006731
Rotational constants in MHz :   683.535532   233.349976   201.798121

                             ****ORCA TERMINATED NORMALLY****
TOTAL RUN TIME: 0 days 0 hours 0 minutes 21 seconds 850 msec
