                         Program Version 4.2.1 -  RELEASE  -
|  1> ! wB97X-D3 SP def2-SVP
|  2> %pal
|  3> nprocs 24
|  4> end
|  5>
|  6> * xyz 0 1
|  7> S 	 28.4011 	 -26.7415 	 -120.415
|  8> C 	 29.5241 	 -26.8272 	 -121.828
|  9> C 	 28.9069 	 -26.9412 	 -123.014
| 10> C 	 27.4625 	 -26.9512 	 -122.824
| 11> C 	 27.0625 	 -26.9971 	 -121.501
| 12> H 	 26.711 	 -27.0032 	 -123.627
| 13> C 	 29.4759 	 -27.0239 	 -124.436
| 14> H 	 29.4831 	 -25.9667 	 -124.779
| 15> H 	 28.6983 	 -27.5584 	 -124.986
| 16> C 	 30.8034 	 -27.7362 	 -124.551
| 17> H 	 31.4302 	 -27.3471 	 -123.751
| 18> H 	 30.6 	 -28.8717 	 -124.414
| 19> C 	 31.6395 	 -27.6197 	 -125.93
| 20> H 	 31.6074 	 -26.6089 	 -126.362
| 21> H 	 32.6492 	 -27.9877 	 -125.855
| 22> H 	 30.9921 	 -28.1782 	 -126.607
| 23> S 	 25.858 	 -28.7018 	 -119.786
| 24> C 	 24.1539 	 -28.5852 	 -119.499
| 25> C 	 23.5706 	 -27.7048 	 -120.36
| 26> C 	 24.4833 	 -26.9046 	 -121.118
| 27> C 	 25.8076 	 -27.3742 	 -120.934
| 28> H 	 22.5023 	 -27.6448 	 -120.317
| 29> C 	 24.1607 	 -25.7984 	 -122.011
| 30> H 	 24.2435 	 -26.1631 	 -123.065
| 31> H 	 25.0096 	 -25.2197 	 -122.087
| 32> C 	 23.0823 	 -24.7887 	 -121.773
| 33> H 	 22.248 	 -25.2541 	 -121.272
| 34> H 	 22.6717 	 -24.443 	 -122.768
| 35> C 	 23.3561 	 -23.7471 	 -120.719
| 36> H 	 22.4623 	 -23.221 	 -120.381
| 37> H 	 23.9463 	 -22.9071 	 -121.078
| 38> H 	 23.7548 	 -24.0877 	 -119.784
| 39> H 	 30.5963 	 -26.7122 	 -121.696
| 40> H 	 23.6498 	 -29.1692 	 -118.633
| 41> *
| 42>
| 43>                          ****END OF INPUT****

CARTESIAN COORDINATES (ANGSTROEM)
---------------------------------
  S     28.401100  -26.741500  -120.415000
  C     29.524100  -26.827200  -121.828000
  C     28.906900  -26.941200  -123.014000
  C     27.462500  -26.951200  -122.824000
  C     27.062500  -26.997100  -121.501000
  H     26.711000  -27.003200  -123.627000
  C     29.475900  -27.023900  -124.436000
  H     29.483100  -25.966700  -124.779000
  H     28.698300  -27.558400  -124.986000
  C     30.803400  -27.736200  -124.551000
  H     31.430200  -27.347100  -123.751000
  H     30.600000  -28.871700  -124.414000
  C     31.639500  -27.619700  -125.930000
  H     31.607400  -26.608900  -126.362000
  H     32.649200  -27.987700  -125.855000
  H     30.992100  -28.178200  -126.607000
  S     25.858000  -28.701800  -119.786000
  C     24.153900  -28.585200  -119.499000
  C     23.570600  -27.704800  -120.360000
  C     24.483300  -26.904600  -121.118000
  C     25.807600  -27.374200  -120.934000
  H     22.502300  -27.644800  -120.317000
  C     24.160700  -25.798400  -122.011000
  H     24.243500  -26.163100  -123.065000
  H     25.009600  -25.219700  -122.087000
  C     23.082300  -24.788700  -121.773000
  H     22.248000  -25.254100  -121.272000
  H     22.671700  -24.443000  -122.768000
  C     23.356100  -23.747100  -120.719000
  H     22.462300  -23.221000  -120.381000
  H     23.946300  -22.907100  -121.078000
  H     23.754800  -24.087700  -119.784000
  H     30.596300  -26.712200  -121.696000
  H     23.649800  -29.169200  -118.633000

 Total Charge           Charge          ....    0
 Multiplicity           Mult            ....    1
 Number of Electrons    NEL             ....  134
 Basis Dimension        Dim             ....  322

ORBITAL ENERGIES
----------------

  NO   OCC          E(Eh)            E(eV)
   0   2.0000     -88.962519     -2420.7932
   1   2.0000     -88.961477     -2420.7648
   2   2.0000     -10.326240      -280.9913
   3   2.0000     -10.322136      -280.8796
   4   2.0000     -10.318515      -280.7811
   5   2.0000     -10.313214      -280.6368
   6   2.0000     -10.304519      -280.4002
   7   2.0000     -10.302918      -280.3566
   8   2.0000     -10.299830      -280.2726
   9   2.0000     -10.299736      -280.2701
  10   2.0000     -10.297925      -280.2208
  11   2.0000     -10.290225      -280.0113
  12   2.0000     -10.287018      -279.9240
  13   2.0000     -10.286060      -279.8979
  14   2.0000     -10.280158      -279.7373
  15   2.0000     -10.271856      -279.5114
  16   2.0000      -8.076977      -219.7857
  17   2.0000      -8.076590      -219.7752
  18   2.0000      -6.035650      -164.2384
  19   2.0000      -6.034995      -164.2206
  20   2.0000      -6.031675      -164.1302
  21   2.0000      -6.030959      -164.1107
  22   2.0000      -6.027507      -164.0168
  23   2.0000      -6.027403      -164.0140
  24   2.0000      -1.007170       -27.4065
  25   2.0000      -0.981533       -26.7089
  26   2.0000      -0.919501       -25.0209
  27   2.0000      -0.910727       -24.7822
  28   2.0000      -0.868356       -23.6292
  29   2.0000      -0.854483       -23.2517
  30   2.0000      -0.840120       -22.8608
  31   2.0000      -0.813103       -22.1256
  32   2.0000      -0.788919       -21.4676
  33   2.0000      -0.776540       -21.1307
  34   2.0000      -0.711870       -19.3710
  35   2.0000      -0.706284       -19.2190
  36   2.0000      -0.691884       -18.8271
  37   2.0000      -0.650407       -17.6985
  38   2.0000      -0.634292       -17.2600
  39   2.0000      -0.615989       -16.7619
  40   2.0000      -0.600239       -16.3333
  41   2.0000      -0.574845       -15.6423
  42   2.0000      -0.558209       -15.1896
  43   2.0000      -0.555073       -15.1043
  44   2.0000      -0.535591       -14.5742
  45   2.0000      -0.526931       -14.3385
  46   2.0000      -0.522363       -14.2142
  47   2.0000      -0.514634       -14.0039
  48   2.0000      -0.501587       -13.6489
  49   2.0000      -0.498535       -13.5658
  50   2.0000      -0.489278       -13.3139
  51   2.0000      -0.485941       -13.2231
  52   2.0000      -0.474409       -12.9093
  53   2.0000      -0.466033       -12.6814
  54   2.0000      -0.456114       -12.4115
  55   2.0000      -0.444041       -12.0830
  56   2.0000      -0.442294       -12.0354
  57   2.0000      -0.438906       -11.9432
  58   2.0000      -0.436540       -11.8789
  59   2.0000      -0.424644       -11.5551
  60   2.0000      -0.419048       -11.4029
  61   2.0000      -0.412864       -11.2346
  62   2.0000      -0.401883       -10.9358
  63   2.0000      -0.343370        -9.3436
  64   2.0000      -0.333145        -9.0653
  65   2.0000      -0.322529        -8.7765
  66   2.0000      -0.289731        -7.8840
  67   0.0000       0.028140         0.7657
  68   0.0000       0.073871         2.0101
  69   0.0000       0.108898         2.9633
  70   0.0000       0.123042         3.3482
  71   0.0000       0.131907         3.5894

MULLIKEN ATOMIC CHARGES
-----------------------
   0 S :    0.102007
   1 C :   -0.156821
   2 C :   -0.073884
   3 C :    0.019893
   4 C :   -0.165182
   5 H :    0.014459
   6 C :    0.095936
   7 H :    0.050476
   8 H :    0.025977
   9 C :   -0.145000
  10 H :    0.034728
  11 H :    0.056148
  12 C :   -0.042920
  13 H :    0.030829
  14 H :    0.051812
  15 H :    0.028697
  16 S :    0.111574
  17 C :   -0.137944
  18 C :   -0.034961
  19 C :   -0.015041
  20 C :   -0.163430
  21 H :    0.012503
  22 C :    0.091967
  23 H :    0.032416
  24 H :   -0.009085
  25 C :   -0.040667
  26 H :    0.015341
  27 H :    0.037300
  28 C :   -0.045482
  29 H :    0.019587
  30 H :    0.023317
  31 H :    0.035647
  32 H :    0.047528
  33 H :    0.092277
Sum of atomic charges:   -0.0000000

LOEWDIN ATOMIC CHARGES
----------------------
   0 S :    0.379684
   1 C :   -0.178918
   2 C :   -0.062044
   3 C :   -0.061172
   4 C :   -0.196109
   5 H :    0.030562
   6 C :   -0.032587
   7 H :    0.040438
   8 H :    0.029934
   9 C :   -0.046681
  10 H :    0.018234
  11 H :    0.039566
  12 C :   -0.066469
  13 H :    0.025138
  14 H :    0.027878
  15 H :    0.025702
  16 S :    0.411666
  17 C :   -0.204779
  18 C :   -0.077865
  19 C :   -0.048364
  20 C :   -0.203931
  21 H :    0.028286
  22 C :   -0.050153
  23 H :    0.044329
  24 H :    0.026905
  25 C :   -0.044910
  26 H :    0.022878
  27 H :    0.037473
  28 C :   -0.066178
  29 H :    0.027766
  30 H :    0.021082
  31 H :    0.028117
  32 H :    0.024338
  33 H :    0.050185

  Mayer bond orders larger than 0.100000
B(  0-S ,  1-C ) :   1.1013 B(  0-S ,  4-C ) :   1.1397 B(  1-C ,  2-C ) :   1.6770
B(  1-C , 32-H ) :   0.9651 B(  2-C ,  3-C ) :   1.2056 B(  2-C ,  6-C ) :   0.9931
B(  3-C ,  4-C ) :   1.6018 B(  3-C ,  5-H ) :   0.9862 B(  4-C , 20-C ) :   1.0604
B(  6-C ,  7-H ) :   0.9299 B(  6-C ,  8-H ) :   0.9436 B(  6-C ,  9-C ) :   1.0645
B(  9-C , 10-H ) :   0.9585 B(  9-C , 11-H ) :   0.9612 B(  9-C , 12-C ) :   1.0659
B( 12-C , 13-H ) :   0.9780 B( 12-C , 14-H ) :   0.9772 B( 12-C , 15-H ) :   0.9779
B( 16-S , 17-C ) :   1.1600 B( 16-S , 20-C ) :   1.1492 B( 17-C , 18-C ) :   1.6016
B( 17-C , 20-C ) :   0.1006 B( 17-C , 33-H ) :   0.9544 B( 18-C , 19-C ) :   1.2282
B( 18-C , 21-H ) :   0.9953 B( 19-C , 20-C ) :   1.5480 B( 19-C , 22-C ) :   1.0748
B( 22-C , 23-H ) :   0.9071 B( 22-C , 24-H ) :   0.9035 B( 22-C , 25-C ) :   1.0646
B( 25-C , 26-H ) :   0.9615 B( 25-C , 27-H ) :   0.9475 B( 25-C , 28-C ) :   1.0756
B( 28-C , 29-H ) :   0.9729 B( 28-C , 30-H ) :   0.9716 B( 28-C , 31-H ) :   0.9732

Dispersion correction           -0.013538730
FINAL SINGLE POINT ENERGY     -1339.854444017651

DIPOLE MOMENT
-------------
                                X             Y             Z
Electronic contribution:     -0.84094     -10.65730      19.19922
Nuclear contribution   :      0.68671      10.87545     -19.73752
                        -----------------------------------------
Total Dipole Moment    :     -0.15423       0.21815      -0.53830
                        -----------------------------------------
Magnitude (a.u.)       :      0.60095
Magnitude (Debye)      :      1.52750

Rotational constants in cm-1:     0.022362     0.006893     0.006046
Rotational constants in MHz :   670.401511   206.634277   181.260782

                             ****ORCA TERMINATED NORMALLY****
TOTAL RUN TIME: 0 days 0 hours 0 minutes 20 seconds 863 msec
