                         Program Version 4.2.1 -  RELEASE  -
|  1> ! wB97X-D3 SP def2-SVP
|  2> %pal
|  3> nprocs 24
|  4> end
|  5>
|  6> * xyz 0 1
|  7> S 	 -38.8112 	 13.7039 	 22.1156
|  8> C 	 -39.9441 	 13.527 	 20.7813
|  9> C 	 -41.2347 	 13.2948 	 21.2299
| 10> C 	 -41.293 	 13.1612 	 22.6993
| 11> C 	 -40.0747 	 13.4176 	 23.3426
| 12> H 	 -42.1628 	 12.8923 	 23.321
| 13> C 	 -42.3958 	 13.0445 	 20.2524
| 14> H 	 -41.9557 	 12.6582 	 19.3339
| 15> H 	 -42.8547 	 13.9941 	 19.9912
| 16> C 	 -43.5135 	 12.1423 	 20.7616
| 17> H 	 -44.0058 	 12.4893 	 21.7036
| 18> H 	 -44.3432 	 12.1524 	 19.9829
| 19> C 	 -43.0283 	 10.6828 	 20.8721
| 20> H 	 -42.2328 	 10.5755 	 21.6908
| 21> H 	 -43.8907 	 9.98012 	 21.1295
| 22> H 	 -42.5405 	 10.342 	 19.9622
| 23> S 	 -39.1431 	 15.1458 	 25.3617
| 24> C 	 -39.2904 	 14.5649 	 27.052
| 25> C 	 -39.9057 	 13.3374 	 27.1121
| 26> C 	 -40.2712 	 12.836 	 25.8555
| 27> C 	 -39.8745 	 13.6329 	 24.811
| 28> H 	 -40.0042 	 12.8731 	 28.1255
| 29> C 	 -40.6933 	 11.3842 	 25.6824
| 30> H 	 -39.982 	 10.7681 	 26.2115
| 31> H 	 -40.6749 	 11.1285 	 24.6064
| 32> C 	 -42.0688 	 11.1388 	 26.3451
| 33> H 	 -41.9704 	 11.3741 	 27.3861
| 34> H 	 -42.3657 	 10.0955 	 26.151
| 35> C 	 -43.144 	 12.025 	 25.7221
| 36> H 	 -44.0975 	 12.0034 	 26.2986
| 37> H 	 -43.4334 	 11.5953 	 24.7147
| 38> H 	 -42.7739 	 13.0834 	 25.5713
| 39> H 	 -39.6053 	 13.5796 	 19.727
| 40> H 	 -38.8556 	 15.193 	 27.8278
| 41> *
| 42>
| 43>                          ****END OF INPUT****

CARTESIAN COORDINATES (ANGSTROEM)
---------------------------------
  S    -38.811200   13.703900   22.115600
  C    -39.944100   13.527000   20.781300
  C    -41.234700   13.294800   21.229900
  C    -41.293000   13.161200   22.699300
  C    -40.074700   13.417600   23.342600
  H    -42.162800   12.892300   23.321000
  C    -42.395800   13.044500   20.252400
  H    -41.955700   12.658200   19.333900
  H    -42.854700   13.994100   19.991200
  C    -43.513500   12.142300   20.761600
  H    -44.005800   12.489300   21.703600
  H    -44.343200   12.152400   19.982900
  C    -43.028300   10.682800   20.872100
  H    -42.232800   10.575500   21.690800
  H    -43.890700    9.980120   21.129500
  H    -42.540500   10.342000   19.962200
  S    -39.143100   15.145800   25.361700
  C    -39.290400   14.564900   27.052000
  C    -39.905700   13.337400   27.112100
  C    -40.271200   12.836000   25.855500
  C    -39.874500   13.632900   24.811000
  H    -40.004200   12.873100   28.125500
  C    -40.693300   11.384200   25.682400
  H    -39.982000   10.768100   26.211500
  H    -40.674900   11.128500   24.606400
  C    -42.068800   11.138800   26.345100
  H    -41.970400   11.374100   27.386100
  H    -42.365700   10.095500   26.151000
  C    -43.144000   12.025000   25.722100
  H    -44.097500   12.003400   26.298600
  H    -43.433400   11.595300   24.714700
  H    -42.773900   13.083400   25.571300
  H    -39.605300   13.579600   19.727000
  H    -38.855600   15.193000   27.827800

 Total Charge           Charge          ....    0
 Multiplicity           Mult            ....    1
 Number of Electrons    NEL             ....  134
 Basis Dimension        Dim             ....  322

ORBITAL ENERGIES
----------------

  NO   OCC          E(Eh)            E(eV)
   0   2.0000     -88.965059     -2420.8623
   1   2.0000     -88.964922     -2420.8586
   2   2.0000     -10.336774      -281.2779
   3   2.0000     -10.330720      -281.1132
   4   2.0000     -10.322615      -280.8926
   5   2.0000     -10.319412      -280.8055
   6   2.0000     -10.309393      -280.5328
   7   2.0000     -10.303516      -280.3729
   8   2.0000     -10.300004      -280.2774
   9   2.0000     -10.299429      -280.2617
  10   2.0000     -10.297168      -280.2002
  11   2.0000     -10.295036      -280.1422
  12   2.0000     -10.290305      -280.0134
  13   2.0000     -10.287024      -279.9241
  14   2.0000     -10.286456      -279.9087
  15   2.0000     -10.285443      -279.8811
  16   2.0000      -8.079093      -219.8433
  17   2.0000      -8.079046      -219.8420
  18   2.0000      -6.037768      -164.2960
  19   2.0000      -6.037525      -164.2894
  20   2.0000      -6.033761      -164.1870
  21   2.0000      -6.033593      -164.1824
  22   2.0000      -6.029808      -164.0794
  23   2.0000      -6.029767      -164.0783
  24   2.0000      -1.000877       -27.2352
  25   2.0000      -0.978131       -26.6163
  26   2.0000      -0.910678       -24.7808
  27   2.0000      -0.908806       -24.7299
  28   2.0000      -0.865423       -23.5494
  29   2.0000      -0.846367       -23.0308
  30   2.0000      -0.835591       -22.7376
  31   2.0000      -0.814038       -22.1511
  32   2.0000      -0.778488       -21.1837
  33   2.0000      -0.770048       -20.9541
  34   2.0000      -0.704237       -19.1633
  35   2.0000      -0.693140       -18.8613
  36   2.0000      -0.686536       -18.6816
  37   2.0000      -0.654647       -17.8138
  38   2.0000      -0.638895       -17.3852
  39   2.0000      -0.617173       -16.7941
  40   2.0000      -0.599727       -16.3194
  41   2.0000      -0.562956       -15.3188
  42   2.0000      -0.553043       -15.0491
  43   2.0000      -0.552058       -15.0223
  44   2.0000      -0.547334       -14.8937
  45   2.0000      -0.530458       -14.4345
  46   2.0000      -0.522128       -14.2078
  47   2.0000      -0.511356       -13.9147
  48   2.0000      -0.496444       -13.5089
  49   2.0000      -0.492105       -13.3908
  50   2.0000      -0.483524       -13.1574
  51   2.0000      -0.476379       -12.9629
  52   2.0000      -0.468340       -12.7442
  53   2.0000      -0.462492       -12.5851
  54   2.0000      -0.455769       -12.4021
  55   2.0000      -0.442514       -12.0414
  56   2.0000      -0.441267       -12.0075
  57   2.0000      -0.435192       -11.8422
  58   2.0000      -0.433237       -11.7890
  59   2.0000      -0.428469       -11.6592
  60   2.0000      -0.424639       -11.5550
  61   2.0000      -0.416456       -11.3324
  62   2.0000      -0.408959       -11.1283
  63   2.0000      -0.348010        -9.4698
  64   2.0000      -0.333839        -9.0842
  65   2.0000      -0.325846        -8.8667
  66   2.0000      -0.294182        -8.0051
  67   0.0000       0.029457         0.8016
  68   0.0000       0.067919         1.8482
  69   0.0000       0.111765         3.0413
  70   0.0000       0.115896         3.1537
  71   0.0000       0.124047         3.3755

MULLIKEN ATOMIC CHARGES
-----------------------
   0 S :    0.098094
   1 C :   -0.144978
   2 C :   -0.093687
   3 C :    0.045008
   4 C :   -0.165726
   5 H :   -0.007045
   6 C :    0.091096
   7 H :    0.021139
   8 H :    0.040407
   9 C :   -0.111663
  10 H :    0.046559
  11 H :    0.037318
  12 C :   -0.090080
  13 H :    0.047008
  14 H :    0.047399
  15 H :    0.031289
  16 S :    0.094267
  17 C :   -0.117896
  18 C :   -0.031046
  19 C :   -0.052866
  20 C :   -0.138880
  21 H :    0.043543
  22 C :    0.064974
  23 H :    0.034295
  24 H :    0.036981
  25 C :   -0.063675
  26 H :    0.028237
  27 H :    0.037408
  28 C :   -0.112440
  29 H :    0.042345
  30 H :    0.038487
  31 H :    0.070470
  32 H :    0.067963
  33 H :    0.065694
Sum of atomic charges:   -0.0000000

LOEWDIN ATOMIC CHARGES
----------------------
   0 S :    0.383645
   1 C :   -0.197769
   2 C :   -0.062718
   3 C :   -0.064543
   4 C :   -0.185149
   5 H :    0.031890
   6 C :   -0.030758
   7 H :    0.030588
   8 H :    0.034400
   9 C :   -0.051902
  10 H :    0.027939
  11 H :    0.032047
  12 C :   -0.077686
  13 H :    0.030389
  14 H :    0.031907
  15 H :    0.022423
  16 S :    0.376921
  17 C :   -0.164100
  18 C :   -0.075047
  19 C :   -0.068798
  20 C :   -0.187708
  21 H :    0.044036
  22 C :   -0.022994
  23 H :    0.030972
  24 H :    0.031804
  25 C :   -0.040154
  26 H :    0.018473
  27 H :    0.028429
  28 C :   -0.079486
  29 H :    0.029215
  30 H :    0.026044
  31 H :    0.032253
  32 H :    0.036759
  33 H :    0.028678

  Mayer bond orders larger than 0.100000
B(  0-S ,  1-C ) :   1.1336 B(  0-S ,  4-C ) :   1.1444 B(  1-C ,  2-C ) :   1.6249
B(  1-C , 32-H ) :   0.9658 B(  2-C ,  3-C ) :   1.2226 B(  2-C ,  6-C ) :   1.0068
B(  3-C ,  4-C ) :   1.5819 B(  3-C ,  5-H ) :   0.9776 B(  4-C , 20-C ) :   1.0202
B(  6-C ,  7-H ) :   0.9472 B(  6-C ,  8-H ) :   0.9310 B(  6-C ,  9-C ) :   1.0850
B(  9-C , 10-H ) :   0.9490 B(  9-C , 11-H ) :   0.9524 B(  9-C , 12-C ) :   1.0697
B( 12-C , 13-H ) :   0.9733 B( 12-C , 14-H ) :   0.9750 B( 12-C , 15-H ) :   0.9736
B( 16-S , 17-C ) :   1.1453 B( 16-S , 20-C ) :   1.1381 B( 17-C , 18-C ) :   1.6188
B( 17-C , 33-H ) :   0.9697 B( 18-C , 19-C ) :   1.2176 B( 18-C , 21-H ) :   0.9844
B( 19-C , 20-C ) :   1.6125 B( 19-C , 22-C ) :   1.0324 B( 22-C , 23-H ) :   0.9437
B( 22-C , 24-H ) :   0.9399 B( 22-C , 25-C ) :   1.0598 B( 25-C , 26-H ) :   0.9589
B( 25-C , 27-H ) :   0.9563 B( 25-C , 28-C ) :   1.0813 B( 28-C , 29-H ) :   0.9682
B( 28-C , 30-H ) :   0.9645 B( 28-C , 31-H ) :   0.9607

Dispersion correction           -0.015863557
FINAL SINGLE POINT ENERGY     -1339.895610450547

DIPOLE MOMENT
-------------
                                X             Y             Z
Electronic contribution:     23.35989      17.75058       3.29586
Nuclear contribution   :    -23.81895     -18.13720      -3.24328
                        -----------------------------------------
Total Dipole Moment    :     -0.45906      -0.38661       0.05259
                        -----------------------------------------
Magnitude (a.u.)       :      0.60247
Magnitude (Debye)      :      1.53135

Rotational constants in cm-1:     0.018789     0.010195     0.007295
Rotational constants in MHz :   563.280295   305.627064   218.686232

                             ****ORCA TERMINATED NORMALLY****
TOTAL RUN TIME: 0 days 0 hours 0 minutes 23 seconds 92 msec
