                         Program Version 4.2.1 -  RELEASE  -
|  1> ! wB97X-D3 SP def2-SVP
|  2> %pal
|  3> nprocs 24
|  4> end
|  5>
|  6> * xyz 0 1
|  7> S 	 -46.2432 	 -51.5232 	 -73.7988
|  8> C 	 -45.1659 	 -50.2422 	 -74.3649
|  9> C 	 -43.9136 	 -50.391 	 -73.9073
| 10> C 	 -43.7731 	 -51.5011 	 -73.0383
| 11> C 	 -44.9373 	 -52.2487 	 -72.8947
| 12> H 	 -42.8781 	 -51.737 	 -72.4531
| 13> C 	 -42.8803 	 -49.363 	 -74.0768
| 14> H 	 -43.4319 	 -48.5393 	 -74.5052
| 15> H 	 -42.275 	 -49.7104 	 -74.9326
| 16> C 	 -42.1563 	 -48.6976 	 -72.8749
| 17> H 	 -41.3123 	 -49.2886 	 -72.5757
| 18> H 	 -41.8424 	 -47.7825 	 -73.2464
| 19> C 	 -43.0199 	 -48.5181 	 -71.5869
| 20> H 	 -43.9853 	 -48.2672 	 -71.9632
| 21> H 	 -42.9561 	 -49.4293 	 -71.0043
| 22> H 	 -42.7215 	 -47.6738 	 -70.9169
| 23> S 	 -46.1544 	 -54.6735 	 -72.965
| 24> C 	 -46.2312 	 -55.6964 	 -71.5815
| 25> C 	 -45.5249 	 -55.0993 	 -70.5601
| 26> C 	 -44.8603 	 -53.8683 	 -70.852
| 27> C 	 -45.2101 	 -53.4455 	 -72.1357
| 28> H 	 -45.4741 	 -55.7249 	 -69.6728
| 29> C 	 -44.0162 	 -53.075 	 -69.9113
| 30> H 	 -43.4874 	 -52.2738 	 -70.4219
| 31> H 	 -43.2276 	 -53.6829 	 -69.4046
| 32> C 	 -44.8269 	 -52.4356 	 -68.801
| 33> H 	 -45.4904 	 -53.1151 	 -68.2772
| 34> H 	 -45.5776 	 -51.8298 	 -69.3047
| 35> C 	 -44.0847 	 -51.5782 	 -67.9253
| 36> H 	 -43.6136 	 -50.7561 	 -68.5183
| 37> H 	 -43.253 	 -52.0469 	 -67.4666
| 38> H 	 -44.6643 	 -51.0979 	 -67.1838
| 39> H 	 -45.4622 	 -49.4633 	 -75.0404
| 40> H 	 -46.8776 	 -56.5229 	 -71.3204
| 41> *
| 42>
| 43>                          ****END OF INPUT****

CARTESIAN COORDINATES (ANGSTROEM)
---------------------------------
  S    -46.243200  -51.523200  -73.798800
  C    -45.165900  -50.242200  -74.364900
  C    -43.913600  -50.391000  -73.907300
  C    -43.773100  -51.501100  -73.038300
  C    -44.937300  -52.248700  -72.894700
  H    -42.878100  -51.737000  -72.453100
  C    -42.880300  -49.363000  -74.076800
  H    -43.431900  -48.539300  -74.505200
  H    -42.275000  -49.710400  -74.932600
  C    -42.156300  -48.697600  -72.874900
  H    -41.312300  -49.288600  -72.575700
  H    -41.842400  -47.782500  -73.246400
  C    -43.019900  -48.518100  -71.586900
  H    -43.985300  -48.267200  -71.963200
  H    -42.956100  -49.429300  -71.004300
  H    -42.721500  -47.673800  -70.916900
  S    -46.154400  -54.673500  -72.965000
  C    -46.231200  -55.696400  -71.581500
  C    -45.524900  -55.099300  -70.560100
  C    -44.860300  -53.868300  -70.852000
  C    -45.210100  -53.445500  -72.135700
  H    -45.474100  -55.724900  -69.672800
  C    -44.016200  -53.075000  -69.911300
  H    -43.487400  -52.273800  -70.421900
  H    -43.227600  -53.682900  -69.404600
  C    -44.826900  -52.435600  -68.801000
  H    -45.490400  -53.115100  -68.277200
  H    -45.577600  -51.829800  -69.304700
  C    -44.084700  -51.578200  -67.925300
  H    -43.613600  -50.756100  -68.518300
  H    -43.253000  -52.046900  -67.466600
  H    -44.664300  -51.097900  -67.183800
  H    -45.462200  -49.463300  -75.040400
  H    -46.877600  -56.522900  -71.320400

 Total Charge           Charge          ....    0
 Multiplicity           Mult            ....    1
 Number of Electrons    NEL             ....  134
 Basis Dimension        Dim             ....  322

ORBITAL ENERGIES
----------------

  NO   OCC          E(Eh)            E(eV)
   0   2.0000     -88.965108     -2420.8637
   1   2.0000     -88.964150     -2420.8376
   2   2.0000     -10.330222      -281.0996
   3   2.0000     -10.327289      -281.0198
   4   2.0000     -10.312149      -280.6078
   5   2.0000     -10.308457      -280.5074
   6   2.0000     -10.305414      -280.4246
   7   2.0000     -10.294384      -280.1244
   8   2.0000     -10.292472      -280.0724
   9   2.0000     -10.292193      -280.0648
  10   2.0000     -10.291535      -280.0469
  11   2.0000     -10.288728      -279.9705
  12   2.0000     -10.285462      -279.8817
  13   2.0000     -10.280247      -279.7397
  14   2.0000     -10.273194      -279.5478
  15   2.0000     -10.266754      -279.3726
  16   2.0000      -8.079826      -219.8632
  17   2.0000      -8.079146      -219.8447
  18   2.0000      -6.038335      -164.3115
  19   2.0000      -6.037712      -164.2945
  20   2.0000      -6.034348      -164.2030
  21   2.0000      -6.033440      -164.1783
  22   2.0000      -6.030551      -164.0996
  23   2.0000      -6.029977      -164.0840
  24   2.0000      -1.011080       -27.5129
  25   2.0000      -0.988457       -26.8973
  26   2.0000      -0.923912       -25.1409
  27   2.0000      -0.916738       -24.9457
  28   2.0000      -0.873443       -23.7676
  29   2.0000      -0.859678       -23.3930
  30   2.0000      -0.843386       -22.9497
  31   2.0000      -0.820173       -22.3181
  32   2.0000      -0.787050       -21.4167
  33   2.0000      -0.775508       -21.1026
  34   2.0000      -0.716192       -19.4886
  35   2.0000      -0.700182       -19.0529
  36   2.0000      -0.699152       -19.0249
  37   2.0000      -0.656574       -17.8663
  38   2.0000      -0.638630       -17.3780
  39   2.0000      -0.626554       -17.0494
  40   2.0000      -0.601571       -16.3696
  41   2.0000      -0.571530       -15.5521
  42   2.0000      -0.567174       -15.4336
  43   2.0000      -0.560183       -15.2433
  44   2.0000      -0.541696       -14.7403
  45   2.0000      -0.533911       -14.5285
  46   2.0000      -0.519646       -14.1403
  47   2.0000      -0.514888       -14.0108
  48   2.0000      -0.510102       -13.8806
  49   2.0000      -0.501168       -13.6375
  50   2.0000      -0.496043       -13.4980
  51   2.0000      -0.482778       -13.1371
  52   2.0000      -0.476384       -12.9631
  53   2.0000      -0.463831       -12.6215
  54   2.0000      -0.457555       -12.4507
  55   2.0000      -0.453546       -12.3416
  56   2.0000      -0.445668       -12.1272
  57   2.0000      -0.440776       -11.9941
  58   2.0000      -0.436075       -11.8662
  59   2.0000      -0.425349       -11.5743
  60   2.0000      -0.421778       -11.4772
  61   2.0000      -0.410367       -11.1666
  62   2.0000      -0.403505       -10.9799
  63   2.0000      -0.349128        -9.5003
  64   2.0000      -0.332973        -9.0607
  65   2.0000      -0.328458        -8.9378
  66   2.0000      -0.290610        -7.9079
  67   0.0000       0.026089         0.7099
  68   0.0000       0.076871         2.0918
  69   0.0000       0.111510         3.0343
  70   0.0000       0.115496         3.1428
  71   0.0000       0.130315         3.5460

MULLIKEN ATOMIC CHARGES
-----------------------
   0 S :    0.108433
   1 C :   -0.123339
   2 C :   -0.091530
   3 C :    0.021095
   4 C :   -0.149204
   5 H :    0.019964
   6 C :    0.055320
   7 H :    0.001085
   8 H :    0.047558
   9 C :   -0.032871
  10 H :    0.023988
  11 H :    0.019480
  12 C :   -0.054445
  13 H :    0.028972
  14 H :    0.039966
  15 H :    0.042632
  16 S :    0.108392
  17 C :   -0.080485
  18 C :   -0.075953
  19 C :    0.002300
  20 C :   -0.163435
  21 H :    0.018305
  22 C :    0.088123
  23 H :   -0.006988
  24 H :    0.029322
  25 C :   -0.077986
  26 H :    0.017240
  27 H :    0.016981
  28 C :    0.018978
  29 H :    0.014871
  30 H :    0.008662
  31 H :    0.025298
  32 H :    0.039517
  33 H :    0.059756
Sum of atomic charges:   -0.0000000

LOEWDIN ATOMIC CHARGES
----------------------
   0 S :    0.401224
   1 C :   -0.187865
   2 C :   -0.073041
   3 C :   -0.065063
   4 C :   -0.189941
   5 H :    0.031006
   6 C :   -0.039118
   7 H :    0.028130
   8 H :    0.041976
   9 C :   -0.026823
  10 H :    0.018162
  11 H :    0.017937
  12 C :   -0.060879
  13 H :    0.022510
  14 H :    0.023327
  15 H :    0.033177
  16 S :    0.415348
  17 C :   -0.205449
  18 C :   -0.073287
  19 C :   -0.054306
  20 C :   -0.194225
  21 H :    0.030351
  22 C :   -0.028287
  23 H :    0.025833
  24 H :    0.034279
  25 C :   -0.048400
  26 H :    0.021466
  27 H :    0.027591
  28 C :   -0.059287
  29 H :    0.029333
  30 H :    0.017251
  31 H :    0.024698
  32 H :    0.024996
  33 H :    0.037376

  Mayer bond orders larger than 0.100000
B(  0-S ,  1-C ) :   1.1188 B(  0-S ,  4-C ) :   1.1582 B(  1-C ,  2-C ) :   1.6363
B(  1-C , 32-H ) :   0.9639 B(  2-C ,  3-C ) :   1.2279 B(  2-C ,  6-C ) :   1.0304
B(  3-C ,  4-C ) :   1.5670 B(  3-C ,  5-H ) :   0.9913 B(  4-C , 20-C ) :   1.0499
B(  6-C ,  7-H ) :   0.9393 B(  6-C ,  8-H ) :   0.9234 B(  6-C ,  9-C ) :   1.0583
B(  9-C , 10-H ) :   0.9574 B(  9-C , 11-H ) :   0.9588 B(  9-C , 12-C ) :   1.0804
B( 12-C , 13-H ) :   0.9769 B( 12-C , 14-H ) :   0.9730 B( 12-C , 15-H ) :   0.9751
B( 16-S , 17-C ) :   1.1427 B( 16-S , 20-C ) :   1.1552 B( 17-C , 18-C ) :   1.6326
B( 17-C , 20-C ) :   0.1019 B( 17-C , 33-H ) :   0.9621 B( 18-C , 19-C ) :   1.2287
B( 18-C , 21-H ) :   0.9849 B( 19-C , 20-C ) :   1.5664 B( 19-C , 22-C ) :   1.0619
B( 22-C , 23-H ) :   0.9260 B( 22-C , 24-H ) :   0.9252 B( 22-C , 25-C ) :   1.0653
B( 25-C , 26-H ) :   0.9502 B( 25-C , 27-H ) :   0.9424 B( 25-C , 28-C ) :   1.1095
B( 28-C , 29-H ) :   0.9636 B( 28-C , 30-H ) :   0.9650 B( 28-C , 31-H ) :   0.9651

Dispersion correction           -0.015098067
FINAL SINGLE POINT ENERGY     -1339.872035809792

DIPOLE MOMENT
-------------
                                X             Y             Z
Electronic contribution:    -15.96456     -17.75297     -18.27065
Nuclear contribution   :     16.33603      18.15945      18.70498
                        -----------------------------------------
Total Dipole Moment    :      0.37148       0.40649       0.43432
                        -----------------------------------------
Magnitude (a.u.)       :      0.70133
Magnitude (Debye)      :      1.78264

Rotational constants in cm-1:     0.017684     0.010503     0.007239
Rotational constants in MHz :   530.160818   314.878307   217.013196

                             ****ORCA TERMINATED NORMALLY****
TOTAL RUN TIME: 0 days 0 hours 0 minutes 22 seconds 739 msec
