                         Program Version 4.2.1 -  RELEASE  -
|  1> ! wB97X-D3 SP def2-SVP
|  2> %pal
|  3> nprocs 24
|  4> end
|  5>
|  6> * xyz 0 1
|  7> S 	 -67.0099 	 15.5333 	 -71.2264
|  8> C 	 -66.2156 	 14.0992 	 -70.7215
|  9> C 	 -66.2653 	 13.9187 	 -69.3534
| 10> C 	 -66.9535 	 15.0132 	 -68.6526
| 11> C 	 -67.305 	 16.0362 	 -69.4862
| 12> H 	 -66.9611 	 15.1878 	 -67.6022
| 13> C 	 -65.6244 	 12.7257 	 -68.6498
| 14> H 	 -65.8368 	 11.9007 	 -69.3159
| 15> H 	 -66.2159 	 12.534 	 -67.7097
| 16> C 	 -64.1762 	 12.8579 	 -68.1991
| 17> H 	 -63.8024 	 11.8635 	 -67.9862
| 18> H 	 -63.7101 	 13.2806 	 -69.1001
| 19> C 	 -63.9258 	 13.8892 	 -67.0323
| 20> H 	 -64.5161 	 13.6346 	 -66.176
| 21> H 	 -62.8896 	 13.7019 	 -66.663
| 22> H 	 -64.0965 	 14.9186 	 -67.34
| 23> S 	 -67.5743 	 18.8308 	 -69.7721
| 24> C 	 -68.8264 	 19.6256 	 -68.7633
| 25> C 	 -69.5793 	 18.691 	 -68.097
| 26> C 	 -69.0773 	 17.3632 	 -68.2495
| 27> C 	 -68.0306 	 17.2639 	 -69.0981
| 28> H 	 -70.4134 	 19.0499 	 -67.5265
| 29> C 	 -69.7319 	 16.1989 	 -67.6036
| 30> H 	 -70.5006 	 16.5465 	 -66.936
| 31> H 	 -69.0748 	 15.5776 	 -66.9374
| 32> C 	 -70.3991 	 15.2671 	 -68.6486
| 33> H 	 -70.8958 	 14.4732 	 -68.0904
| 34> H 	 -69.6401 	 14.6584 	 -69.2988
| 35> C 	 -71.5257 	 15.7746 	 -69.4835
| 36> H 	 -72.0313 	 16.5434 	 -68.8723
| 37> H 	 -72.19 	 14.8842 	 -69.7766
| 38> H 	 -71.2061 	 16.2811 	 -70.4007
| 39> H 	 -65.9263 	 13.4557 	 -71.5192
| 40> H 	 -69.0372 	 20.6693 	 -68.6221
| 41> *
| 42>
| 43>                          ****END OF INPUT****

CARTESIAN COORDINATES (ANGSTROEM)
---------------------------------
  S    -67.009900   15.533300  -71.226400
  C    -66.215600   14.099200  -70.721500
  C    -66.265300   13.918700  -69.353400
  C    -66.953500   15.013200  -68.652600
  C    -67.305000   16.036200  -69.486200
  H    -66.961100   15.187800  -67.602200
  C    -65.624400   12.725700  -68.649800
  H    -65.836800   11.900700  -69.315900
  H    -66.215900   12.534000  -67.709700
  C    -64.176200   12.857900  -68.199100
  H    -63.802400   11.863500  -67.986200
  H    -63.710100   13.280600  -69.100100
  C    -63.925800   13.889200  -67.032300
  H    -64.516100   13.634600  -66.176000
  H    -62.889600   13.701900  -66.663000
  H    -64.096500   14.918600  -67.340000
  S    -67.574300   18.830800  -69.772100
  C    -68.826400   19.625600  -68.763300
  C    -69.579300   18.691000  -68.097000
  C    -69.077300   17.363200  -68.249500
  C    -68.030600   17.263900  -69.098100
  H    -70.413400   19.049900  -67.526500
  C    -69.731900   16.198900  -67.603600
  H    -70.500600   16.546500  -66.936000
  H    -69.074800   15.577600  -66.937400
  C    -70.399100   15.267100  -68.648600
  H    -70.895800   14.473200  -68.090400
  H    -69.640100   14.658400  -69.298800
  C    -71.525700   15.774600  -69.483500
  H    -72.031300   16.543400  -68.872300
  H    -72.190000   14.884200  -69.776600
  H    -71.206100   16.281100  -70.400700
  H    -65.926300   13.455700  -71.519200
  H    -69.037200   20.669300  -68.622100

 Total Charge           Charge          ....    0
 Multiplicity           Mult            ....    1
 Number of Electrons    NEL             ....  134
 Basis Dimension        Dim             ....  322

ORBITAL ENERGIES
----------------

  NO   OCC          E(Eh)            E(eV)
   0   2.0000     -88.967700     -2420.9342
   1   2.0000     -88.963191     -2420.8115
   2   2.0000     -10.335632      -281.2469
   3   2.0000     -10.325744      -280.9778
   4   2.0000     -10.319809      -280.8163
   5   2.0000     -10.313144      -280.6349
   6   2.0000     -10.306280      -280.4481
   7   2.0000     -10.298478      -280.2358
   8   2.0000     -10.296561      -280.1837
   9   2.0000     -10.293587      -280.1027
  10   2.0000     -10.292312      -280.0680
  11   2.0000     -10.291284      -280.0401
  12   2.0000     -10.288076      -279.9528
  13   2.0000     -10.282287      -279.7952
  14   2.0000     -10.281367      -279.7702
  15   2.0000     -10.276575      -279.6398
  16   2.0000      -8.081393      -219.9059
  17   2.0000      -8.077669      -219.8046
  18   2.0000      -6.040086      -164.3591
  19   2.0000      -6.036261      -164.2550
  20   2.0000      -6.036097      -164.2506
  21   2.0000      -6.032206      -164.1447
  22   2.0000      -6.031966      -164.1381
  23   2.0000      -6.028366      -164.0402
  24   2.0000      -1.003948       -27.3188
  25   2.0000      -0.981656       -26.7122
  26   2.0000      -0.908563       -24.7233
  27   2.0000      -0.905666       -24.6444
  28   2.0000      -0.872346       -23.7377
  29   2.0000      -0.849311       -23.1109
  30   2.0000      -0.840928       -22.8828
  31   2.0000      -0.820180       -22.3182
  32   2.0000      -0.781329       -21.2611
  33   2.0000      -0.769830       -20.9481
  34   2.0000      -0.704532       -19.1713
  35   2.0000      -0.698266       -19.0008
  36   2.0000      -0.678399       -18.4602
  37   2.0000      -0.666208       -18.1284
  38   2.0000      -0.649964       -17.6864
  39   2.0000      -0.612957       -16.6794
  40   2.0000      -0.590116       -16.0579
  41   2.0000      -0.574286       -15.6271
  42   2.0000      -0.553773       -15.0689
  43   2.0000      -0.547797       -14.9063
  44   2.0000      -0.545757       -14.8508
  45   2.0000      -0.538148       -14.6437
  46   2.0000      -0.516244       -14.0477
  47   2.0000      -0.510195       -13.8831
  48   2.0000      -0.497706       -13.5433
  49   2.0000      -0.493700       -13.4343
  50   2.0000      -0.484142       -13.1742
  51   2.0000      -0.479288       -13.0421
  52   2.0000      -0.472583       -12.8596
  53   2.0000      -0.469333       -12.7712
  54   2.0000      -0.462214       -12.5775
  55   2.0000      -0.447511       -12.1774
  56   2.0000      -0.438368       -11.9286
  57   2.0000      -0.434721       -11.8294
  58   2.0000      -0.430296       -11.7089
  59   2.0000      -0.419701       -11.4207
  60   2.0000      -0.414245       -11.2722
  61   2.0000      -0.410053       -11.1581
  62   2.0000      -0.400964       -10.9108
  63   2.0000      -0.354903        -9.6574
  64   2.0000      -0.333464        -9.0740
  65   2.0000      -0.327231        -8.9044
  66   2.0000      -0.292436        -7.9576
  67   0.0000       0.027012         0.7350
  68   0.0000       0.067468         1.8359
  69   0.0000       0.106268         2.8917
  70   0.0000       0.115685         3.1479
  71   0.0000       0.127626         3.4729

MULLIKEN ATOMIC CHARGES
-----------------------
   0 S :    0.084520
   1 C :   -0.118433
   2 C :   -0.091438
   3 C :    0.018506
   4 C :   -0.132601
   5 H :    0.017058
   6 C :    0.044993
   7 H :    0.026762
   8 H :    0.019468
   9 C :   -0.047877
  10 H :    0.034738
  11 H :    0.027138
  12 C :   -0.061915
  13 H :    0.018921
  14 H :    0.039958
  15 H :    0.057039
  16 S :    0.106610
  17 C :   -0.085360
  18 C :   -0.034523
  19 C :   -0.021776
  20 C :   -0.153431
  21 H :    0.015288
  22 C :    0.086095
  23 H :    0.004810
  24 H :    0.034641
  25 C :   -0.122172
  26 H :    0.016897
  27 H :    0.058041
  28 C :   -0.049083
  29 H :    0.019424
  30 H :    0.049638
  31 H :    0.038730
  32 H :    0.049335
  33 H :    0.049999
Sum of atomic charges:    0.0000000

LOEWDIN ATOMIC CHARGES
----------------------
   0 S :    0.374880
   1 C :   -0.197121
   2 C :   -0.063204
   3 C :   -0.058293
   4 C :   -0.158135
   5 H :    0.029931
   6 C :   -0.040128
   7 H :    0.029719
   8 H :    0.029123
   9 C :   -0.038108
  10 H :    0.024223
  11 H :    0.025913
  12 C :   -0.065205
  13 H :    0.017402
  14 H :    0.034308
  15 H :    0.029882
  16 S :    0.381470
  17 C :   -0.165961
  18 C :   -0.067396
  19 C :   -0.060841
  20 C :   -0.192421
  21 H :    0.031525
  22 C :   -0.033444
  23 H :    0.025784
  24 H :    0.036901
  25 C :   -0.055892
  26 H :    0.021115
  27 H :    0.035789
  28 C :   -0.071819
  29 H :    0.023512
  30 H :    0.039020
  31 H :    0.023623
  32 H :    0.023484
  33 H :    0.030367

  Mayer bond orders larger than 0.100000
B(  0-S ,  1-C ) :   1.1398 B(  0-S ,  4-C ) :   1.1211 B(  1-C ,  2-C ) :   1.6169
B(  1-C , 32-H ) :   0.9755 B(  2-C ,  3-C ) :   1.2008 B(  2-C ,  6-C ) :   1.0237
B(  3-C ,  4-C ) :   1.6226 B(  3-C ,  5-H ) :   0.9949 B(  4-C , 20-C ) :   1.0411
B(  6-C ,  7-H ) :   0.9412 B(  6-C ,  8-H ) :   0.9411 B(  6-C ,  9-C ) :   1.0628
B(  9-C , 10-H ) :   0.9572 B(  9-C , 11-H ) :   0.9549 B(  9-C , 12-C ) :   1.0729
B( 12-C , 13-H ) :   0.9763 B( 12-C , 14-H ) :   0.9740 B( 12-C , 15-H ) :   0.9749
B( 16-S , 17-C ) :   1.1362 B( 16-S , 20-C ) :   1.1159 B( 17-C , 18-C ) :   1.6466
B( 17-C , 33-H ) :   0.9657 B( 18-C , 19-C ) :   1.2145 B( 18-C , 21-H ) :   0.9915
B( 19-C , 20-C ) :   1.6202 B( 19-C , 22-C ) :   1.0550 B( 22-C , 23-H ) :   0.9241
B( 22-C , 24-H ) :   0.9304 B( 22-C , 25-C ) :   1.0808 B( 25-C , 26-H ) :   0.9567
B( 25-C , 27-H ) :   0.9473 B( 25-C , 28-C ) :   1.0715 B( 28-C , 29-H ) :   0.9715
B( 28-C , 30-H ) :   0.9756 B( 28-C , 31-H ) :   0.9716

Dispersion correction           -0.015757151
FINAL SINGLE POINT ENERGY     -1339.876375634570

DIPOLE MOMENT
-------------
                                X             Y             Z
Electronic contribution:      2.04483      16.92862     -13.36654
Nuclear contribution   :     -2.21314     -17.30175      13.90528
                        -----------------------------------------
Total Dipole Moment    :     -0.16832      -0.37314       0.53874
                        -----------------------------------------
Magnitude (a.u.)       :      0.67661
Magnitude (Debye)      :      1.71981

Rotational constants in cm-1:     0.020330     0.008575     0.008051
Rotational constants in MHz :   609.477078   257.083685   241.364297

                             ****ORCA TERMINATED NORMALLY****
TOTAL RUN TIME: 0 days 0 hours 0 minutes 21 seconds 566 msec
