                         Program Version 4.2.1 -  RELEASE  -
|  1> ! wB97X-D3 SP def2-SVP
|  2> %pal
|  3> nprocs 24
|  4> end
|  5>
|  6> * xyz 0 1
|  7> S 	 -101.083 	 -27.3934 	 -62.6552
|  8> C 	 -101.108 	 -25.7344 	 -63.2897
|  9> C 	 -99.9355 	 -25.4422 	 -63.9117
| 10> C 	 -99.0403 	 -26.5513 	 -63.9667
| 11> C 	 -99.4467 	 -27.6266 	 -63.1803
| 12> H 	 -98.1107 	 -26.4896 	 -64.4199
| 13> C 	 -99.728 	 -24.0518 	 -64.5162
| 14> H 	 -98.8714 	 -23.6653 	 -63.9081
| 15> H 	 -100.515 	 -23.3662 	 -64.3875
| 16> C 	 -99.3439 	 -24.0498 	 -65.9715
| 17> H 	 -98.51 	 -24.7782 	 -66.007
| 18> H 	 -100.109 	 -24.6542 	 -66.4681
| 19> C 	 -99.0591 	 -22.6244 	 -66.5646
| 20> H 	 -98.8009 	 -22.7032 	 -67.6362
| 21> H 	 -99.9557 	 -21.9089 	 -66.5911
| 22> H 	 -98.2213 	 -22.0436 	 -66.0654
| 23> S 	 -99.4439 	 -30.2688 	 -63.482
| 24> C 	 -98.22 	 -31.185 	 -62.6933
| 25> C 	 -97.0803 	 -30.461 	 -62.4329
| 26> C 	 -97.4046 	 -29.0683 	 -62.3569
| 27> C 	 -98.714 	 -28.8294 	 -62.8597
| 28> H 	 -96.1246 	 -30.8694 	 -62.2773
| 29> C 	 -96.3755 	 -28.0445 	 -61.9042
| 30> H 	 -96.255 	 -27.4158 	 -62.7635
| 31> H 	 -95.4517 	 -28.5873 	 -61.7348
| 32> C 	 -96.6464 	 -27.1717 	 -60.6361
| 33> H 	 -96.8714 	 -27.8923 	 -59.8821
| 34> H 	 -97.5369 	 -26.6135 	 -60.8248
| 35> C 	 -95.5576 	 -26.161 	 -60.3195
| 36> H 	 -94.653 	 -26.6255 	 -60.2452
| 37> H 	 -95.7694 	 -25.7592 	 -59.3043
| 38> H 	 -95.3887 	 -25.3582 	 -61.0372
| 39> H 	 -102.009 	 -25.0431 	 -63.2252
| 40> H 	 -98.1047 	 -32.2622 	 -62.7004
| 41> *
| 42>
| 43>                          ****END OF INPUT****

CARTESIAN COORDINATES (ANGSTROEM)
---------------------------------
  S    -101.083000  -27.393400  -62.655200
  C    -101.108000  -25.734400  -63.289700
  C    -99.935500  -25.442200  -63.911700
  C    -99.040300  -26.551300  -63.966700
  C    -99.446700  -27.626600  -63.180300
  H    -98.110700  -26.489600  -64.419900
  C    -99.728000  -24.051800  -64.516200
  H    -98.871400  -23.665300  -63.908100
  H    -100.515000  -23.366200  -64.387500
  C    -99.343900  -24.049800  -65.971500
  H    -98.510000  -24.778200  -66.007000
  H    -100.109000  -24.654200  -66.468100
  C    -99.059100  -22.624400  -66.564600
  H    -98.800900  -22.703200  -67.636200
  H    -99.955700  -21.908900  -66.591100
  H    -98.221300  -22.043600  -66.065400
  S    -99.443900  -30.268800  -63.482000
  C    -98.220000  -31.185000  -62.693300
  C    -97.080300  -30.461000  -62.432900
  C    -97.404600  -29.068300  -62.356900
  C    -98.714000  -28.829400  -62.859700
  H    -96.124600  -30.869400  -62.277300
  C    -96.375500  -28.044500  -61.904200
  H    -96.255000  -27.415800  -62.763500
  H    -95.451700  -28.587300  -61.734800
  C    -96.646400  -27.171700  -60.636100
  H    -96.871400  -27.892300  -59.882100
  H    -97.536900  -26.613500  -60.824800
  C    -95.557600  -26.161000  -60.319500
  H    -94.653000  -26.625500  -60.245200
  H    -95.769400  -25.759200  -59.304300
  H    -95.388700  -25.358200  -61.037200
  H    -102.009000  -25.043100  -63.225200
  H    -98.104700  -32.262200  -62.700400

 Total Charge           Charge          ....    0
 Multiplicity           Mult            ....    1
 Number of Electrons    NEL             ....  134
 Basis Dimension        Dim             ....  322

ORBITAL ENERGIES
----------------

  NO   OCC          E(Eh)            E(eV)
   0   2.0000     -88.967085     -2420.9175
   1   2.0000     -88.962130     -2420.7826
   2   2.0000     -10.328329      -281.0481
   3   2.0000     -10.322607      -280.8924
   4   2.0000     -10.315111      -280.6884
   5   2.0000     -10.311485      -280.5898
   6   2.0000     -10.307041      -280.4689
   7   2.0000     -10.298476      -280.2358
   8   2.0000     -10.297490      -280.2089
   9   2.0000     -10.291367      -280.0423
  10   2.0000     -10.291117      -280.0355
  11   2.0000     -10.290180      -280.0100
  12   2.0000     -10.288290      -279.9586
  13   2.0000     -10.288195      -279.9560
  14   2.0000     -10.279744      -279.7260
  15   2.0000     -10.272416      -279.5267
  16   2.0000      -8.082676      -219.9408
  17   2.0000      -8.076960      -219.7853
  18   2.0000      -6.041013      -164.3843
  19   2.0000      -6.037326      -164.2840
  20   2.0000      -6.035394      -164.2314
  21   2.0000      -6.033282      -164.1739
  22   2.0000      -6.031470      -164.1246
  23   2.0000      -6.027758      -164.0236
  24   2.0000      -1.009930       -27.4816
  25   2.0000      -0.986106       -26.8333
  26   2.0000      -0.913283       -24.8517
  27   2.0000      -0.907089       -24.6832
  28   2.0000      -0.870092       -23.6764
  29   2.0000      -0.854504       -23.2522
  30   2.0000      -0.841080       -22.8869
  31   2.0000      -0.814073       -22.1520
  32   2.0000      -0.783902       -21.3311
  33   2.0000      -0.770321       -20.9615
  34   2.0000      -0.714469       -19.4417
  35   2.0000      -0.701315       -19.0837
  36   2.0000      -0.686554       -18.6821
  37   2.0000      -0.664649       -18.0860
  38   2.0000      -0.639263       -17.3952
  39   2.0000      -0.626556       -17.0495
  40   2.0000      -0.590639       -16.0721
  41   2.0000      -0.572794       -15.5865
  42   2.0000      -0.563512       -15.3339
  43   2.0000      -0.556795       -15.1512
  44   2.0000      -0.523627       -14.2486
  45   2.0000      -0.521288       -14.1850
  46   2.0000      -0.512681       -13.9507
  47   2.0000      -0.504758       -13.7352
  48   2.0000      -0.504153       -13.7187
  49   2.0000      -0.502512       -13.6740
  50   2.0000      -0.494447       -13.4546
  51   2.0000      -0.483470       -13.1559
  52   2.0000      -0.472810       -12.8658
  53   2.0000      -0.469415       -12.7734
  54   2.0000      -0.461240       -12.5510
  55   2.0000      -0.457931       -12.4609
  56   2.0000      -0.449785       -12.2393
  57   2.0000      -0.435895       -11.8613
  58   2.0000      -0.430247       -11.7076
  59   2.0000      -0.426166       -11.5966
  60   2.0000      -0.423779       -11.5316
  61   2.0000      -0.417329       -11.3561
  62   2.0000      -0.405711       -11.0400
  63   2.0000      -0.336213        -9.1488
  64   2.0000      -0.330586        -8.9957
  65   2.0000      -0.326069        -8.8728
  66   2.0000      -0.293098        -7.9756
  67   0.0000       0.026972         0.7340
  68   0.0000       0.068001         1.8504
  69   0.0000       0.098938         2.6922
  70   0.0000       0.124100         3.3769
  71   0.0000       0.137750         3.7484

MULLIKEN ATOMIC CHARGES
-----------------------
   0 S :    0.107749
   1 C :   -0.160184
   2 C :   -0.086210
   3 C :    0.067413
   4 C :   -0.164064
   5 H :   -0.014063
   6 C :    0.086093
   7 H :    0.032650
   8 H :    0.003026
   9 C :   -0.082915
  10 H :    0.022222
  11 H :    0.030212
  12 C :   -0.080146
  13 H :    0.042788
  14 H :    0.045164
  15 H :    0.047849
  16 S :    0.129463
  17 C :   -0.065740
  18 C :   -0.042984
  19 C :   -0.045441
  20 C :   -0.164819
  21 H :    0.006790
  22 C :    0.070459
  23 H :    0.019074
  24 H :    0.006179
  25 C :   -0.053190
  26 H :    0.026961
  27 H :    0.032110
  28 C :   -0.007699
  29 H :   -0.001252
  30 H :    0.037958
  31 H :    0.032256
  32 H :    0.073504
  33 H :    0.048789
Sum of atomic charges:   -0.0000000

LOEWDIN ATOMIC CHARGES
----------------------
   0 S :    0.398436
   1 C :   -0.200553
   2 C :   -0.065282
   3 C :   -0.059439
   4 C :   -0.200979
   5 H :    0.016620
   6 C :   -0.028145
   7 H :    0.034743
   8 H :    0.017963
   9 C :   -0.049297
  10 H :    0.024659
  11 H :    0.027597
  12 C :   -0.079669
  13 H :    0.030246
  14 H :    0.034141
  15 H :    0.033961
  16 S :    0.435934
  17 C :   -0.192988
  18 C :   -0.061385
  19 C :   -0.045048
  20 C :   -0.216008
  21 H :    0.024131
  22 C :   -0.031018
  23 H :    0.025640
  24 H :    0.024962
  25 C :   -0.030797
  26 H :    0.023412
  27 H :    0.023887
  28 C :   -0.058169
  29 H :    0.008942
  30 H :    0.036113
  31 H :    0.028388
  32 H :    0.043321
  33 H :    0.025680

  Mayer bond orders larger than 0.100000
B(  0-S ,  1-C ) :   1.1226 B(  0-S ,  4-C ) :   1.1646 B(  1-C ,  2-C ) :   1.6246
B(  1-C , 32-H ) :   0.9612 B(  2-C ,  3-C ) :   1.2369 B(  2-C ,  6-C ) :   1.0160
B(  3-C ,  4-C ) :   1.5558 B(  3-C ,  5-H ) :   1.0021 B(  4-C , 20-C ) :   1.0408
B(  6-C ,  7-H ) :   0.9319 B(  6-C ,  8-H ) :   0.9500 B(  6-C ,  9-C ) :   1.0562
B(  9-C , 10-H ) :   0.9555 B(  9-C , 11-H ) :   0.9564 B(  9-C , 12-C ) :   1.0630
B( 12-C , 13-H ) :   0.9752 B( 12-C , 14-H ) :   0.9745 B( 12-C , 15-H ) :   0.9750
B( 16-S , 17-C ) :   1.1642 B( 16-S , 20-C ) :   1.1682 B( 17-C , 18-C ) :   1.5997
B( 17-C , 20-C ) :   0.1007 B( 17-C , 33-H ) :   0.9644 B( 18-C , 19-C ) :   1.2612
B( 18-C , 21-H ) :   0.9937 B( 19-C , 20-C ) :   1.5550 B( 19-C , 22-C ) :   1.0427
B( 22-C , 23-H ) :   0.9283 B( 22-C , 24-H ) :   0.9325 B( 22-C , 25-C ) :   1.0648
B( 25-C , 26-H ) :   0.9559 B( 25-C , 27-H ) :   0.9549 B( 25-C , 28-C ) :   1.0869
B( 28-C , 29-H ) :   0.9724 B( 28-C , 30-H ) :   0.9711 B( 28-C , 31-H ) :   0.9734

Dispersion correction           -0.013887105
FINAL SINGLE POINT ENERGY     -1339.856380391424

DIPOLE MOMENT
-------------
                                X             Y             Z
Electronic contribution:    -16.25117     -24.16908       2.19826
Nuclear contribution   :     16.83967      24.56808      -2.36737
                        -----------------------------------------
Total Dipole Moment    :      0.58850       0.39899      -0.16911
                        -----------------------------------------
Magnitude (a.u.)       :      0.73084
Magnitude (Debye)      :      1.85764

Rotational constants in cm-1:     0.017160     0.008431     0.006823
Rotational constants in MHz :   514.457213   252.766950   204.552264

                             ****ORCA TERMINATED NORMALLY****
TOTAL RUN TIME: 0 days 0 hours 0 minutes 21 seconds 318 msec
