                         Program Version 4.2.1 -  RELEASE  -
|  1> ! wB97X-D3 SP def2-SVP
|  2> %pal
|  3> nprocs 24
|  4> end
|  5>
|  6> * xyz 0 1
|  7> S 	 -66.4089 	 8.49319 	 -76.9253
|  8> C 	 -66.7647 	 8.02092 	 -75.309
|  9> C 	 -68.1125 	 8.05783 	 -75.0498
| 10> C 	 -68.8358 	 8.30858 	 -76.2753
| 11> C 	 -68.0492 	 8.52933 	 -77.3532
| 12> H 	 -69.8714 	 8.40538 	 -76.3867
| 13> C 	 -68.6878 	 7.77019 	 -73.7062
| 14> H 	 -68.8598 	 8.6762 	 -73.1551
| 15> H 	 -67.9387 	 7.21694 	 -73.1495
| 16> C 	 -70.0429 	 7.02291 	 -73.5713
| 17> H 	 -70.2463 	 6.72614 	 -72.5104
| 18> H 	 -70.8186 	 7.79986 	 -73.8195
| 19> C 	 -70.081 	 5.74965 	 -74.3763
| 20> H 	 -69.6795 	 6.00889 	 -75.3483
| 21> H 	 -69.3193 	 5.00084 	 -74.1594
| 22> H 	 -71.0925 	 5.35682 	 -74.4059
| 23> S 	 -67.8003 	 10.4043 	 -79.4136
| 24> C 	 -68.924 	 10.3205 	 -80.7904
| 25> C 	 -69.7388 	 9.16504 	 -80.7267
| 26> C 	 -69.5475 	 8.47831 	 -79.4648
| 27> C 	 -68.5082 	 9.01126 	 -78.7072
| 28> H 	 -70.3813 	 8.94928 	 -81.5701
| 29> C 	 -70.4055 	 7.1944 	 -79.1967
| 30> H 	 -71.4463 	 7.49952 	 -79.0603
| 31> H 	 -70.2841 	 6.64986 	 -78.2507
| 32> C 	 -70.4669 	 6.05095 	 -80.2951
| 33> H 	 -69.4407 	 5.87198 	 -80.7136
| 34> H 	 -71.052 	 6.42735 	 -81.1206
| 35> C 	 -71.2155 	 4.74992 	 -79.8821
| 36> H 	 -70.9274 	 4.41239 	 -78.8813
| 37> H 	 -71.0053 	 3.99841 	 -80.6384
| 38> H 	 -72.248 	 4.88807 	 -79.8428
| 39> H 	 -66.0714 	 7.70718 	 -74.5798
| 40> H 	 -68.9246 	 10.9667 	 -81.6481
| 41> *
| 42>
| 43>                          ****END OF INPUT****

CARTESIAN COORDINATES (ANGSTROEM)
---------------------------------
  S    -66.408900    8.493190  -76.925300
  C    -66.764700    8.020920  -75.309000
  C    -68.112500    8.057830  -75.049800
  C    -68.835800    8.308580  -76.275300
  C    -68.049200    8.529330  -77.353200
  H    -69.871400    8.405380  -76.386700
  C    -68.687800    7.770190  -73.706200
  H    -68.859800    8.676200  -73.155100
  H    -67.938700    7.216940  -73.149500
  C    -70.042900    7.022910  -73.571300
  H    -70.246300    6.726140  -72.510400
  H    -70.818600    7.799860  -73.819500
  C    -70.081000    5.749650  -74.376300
  H    -69.679500    6.008890  -75.348300
  H    -69.319300    5.000840  -74.159400
  H    -71.092500    5.356820  -74.405900
  S    -67.800300   10.404300  -79.413600
  C    -68.924000   10.320500  -80.790400
  C    -69.738800    9.165040  -80.726700
  C    -69.547500    8.478310  -79.464800
  C    -68.508200    9.011260  -78.707200
  H    -70.381300    8.949280  -81.570100
  C    -70.405500    7.194400  -79.196700
  H    -71.446300    7.499520  -79.060300
  H    -70.284100    6.649860  -78.250700
  C    -70.466900    6.050950  -80.295100
  H    -69.440700    5.871980  -80.713600
  H    -71.052000    6.427350  -81.120600
  C    -71.215500    4.749920  -79.882100
  H    -70.927400    4.412390  -78.881300
  H    -71.005300    3.998410  -80.638400
  H    -72.248000    4.888070  -79.842800
  H    -66.071400    7.707180  -74.579800
  H    -68.924600   10.966700  -81.648100

 Total Charge           Charge          ....    0
 Multiplicity           Mult            ....    1
 Number of Electrons    NEL             ....  134
 Basis Dimension        Dim             ....  322

ORBITAL ENERGIES
----------------

  NO   OCC          E(Eh)            E(eV)
   0   2.0000     -88.970994     -2421.0238
   1   2.0000     -88.964705     -2420.8527
   2   2.0000     -10.331639      -281.1382
   3   2.0000     -10.325090      -280.9600
   4   2.0000     -10.321647      -280.8663
   5   2.0000     -10.312095      -280.6064
   6   2.0000     -10.307198      -280.4731
   7   2.0000     -10.301733      -280.3244
   8   2.0000     -10.300853      -280.3005
   9   2.0000     -10.296875      -280.1922
  10   2.0000     -10.292706      -280.0788
  11   2.0000     -10.291120      -280.0356
  12   2.0000     -10.288717      -279.9702
  13   2.0000     -10.286765      -279.9171
  14   2.0000     -10.277094      -279.6539
  15   2.0000     -10.271431      -279.4999
  16   2.0000      -8.085572      -220.0196
  17   2.0000      -8.081075      -219.8972
  18   2.0000      -6.044111      -164.4686
  19   2.0000      -6.040074      -164.3588
  20   2.0000      -6.039492      -164.3429
  21   2.0000      -6.036340      -164.2571
  22   2.0000      -6.035336      -164.2298
  23   2.0000      -6.031863      -164.1353
  24   2.0000      -1.013677       -27.5835
  25   2.0000      -0.986410       -26.8416
  26   2.0000      -0.915295       -24.9065
  27   2.0000      -0.896352       -24.3910
  28   2.0000      -0.868149       -23.6235
  29   2.0000      -0.851154       -23.1611
  30   2.0000      -0.845319       -23.0023
  31   2.0000      -0.819232       -22.2924
  32   2.0000      -0.785647       -21.3786
  33   2.0000      -0.774399       -21.0725
  34   2.0000      -0.705551       -19.1990
  35   2.0000      -0.696007       -18.9393
  36   2.0000      -0.691472       -18.8159
  37   2.0000      -0.658507       -17.9189
  38   2.0000      -0.644837       -17.5469
  39   2.0000      -0.624763       -17.0007
  40   2.0000      -0.595877       -16.2146
  41   2.0000      -0.568043       -15.4572
  42   2.0000      -0.558676       -15.2024
  43   2.0000      -0.555688       -15.1210
  44   2.0000      -0.545629       -14.8473
  45   2.0000      -0.522354       -14.2140
  46   2.0000      -0.521082       -14.1794
  47   2.0000      -0.510947       -13.9036
  48   2.0000      -0.503473       -13.7002
  49   2.0000      -0.495657       -13.4875
  50   2.0000      -0.491205       -13.3664
  51   2.0000      -0.484327       -13.1792
  52   2.0000      -0.470216       -12.7952
  53   2.0000      -0.466532       -12.6950
  54   2.0000      -0.462492       -12.5850
  55   2.0000      -0.451603       -12.2887
  56   2.0000      -0.444603       -12.0983
  57   2.0000      -0.437046       -11.8926
  58   2.0000      -0.430007       -11.7011
  59   2.0000      -0.427271       -11.6266
  60   2.0000      -0.423450       -11.5227
  61   2.0000      -0.413561       -11.2536
  62   2.0000      -0.403665       -10.9843
  63   2.0000      -0.351276        -9.5587
  64   2.0000      -0.332066        -9.0360
  65   2.0000      -0.328531        -8.9398
  66   2.0000      -0.293963        -7.9991
  67   0.0000       0.037071         1.0087
  68   0.0000       0.072499         1.9728
  69   0.0000       0.113267         3.0822
  70   0.0000       0.118430         3.2226
  71   0.0000       0.132949         3.6177

MULLIKEN ATOMIC CHARGES
-----------------------
   0 S :    0.114348
   1 C :   -0.103425
   2 C :   -0.103737
   3 C :    0.042171
   4 C :   -0.134359
   5 H :   -0.009910
   6 C :    0.079161
   7 H :    0.039288
   8 H :    0.014363
   9 C :   -0.113854
  10 H :    0.036211
  11 H :    0.038311
  12 C :   -0.024568
  13 H :    0.016602
  14 H :    0.024240
  15 H :    0.043482
  16 S :    0.119116
  17 C :   -0.105112
  18 C :   -0.040494
  19 C :   -0.011580
  20 C :   -0.138266
  21 H :    0.030226
  22 C :    0.042234
  23 H :    0.022269
  24 H :    0.017774
  25 C :   -0.106643
  26 H :    0.047377
  27 H :    0.022432
  28 C :   -0.031789
  29 H :    0.030683
  30 H :    0.041143
  31 H :    0.020086
  32 H :    0.028574
  33 H :    0.053644
Sum of atomic charges:   -0.0000000

LOEWDIN ATOMIC CHARGES
----------------------
   0 S :    0.433939
   1 C :   -0.197979
   2 C :   -0.060504
   3 C :   -0.062312
   4 C :   -0.202384
   5 H :    0.021462
   6 C :   -0.035307
   7 H :    0.035144
   8 H :    0.028706
   9 C :   -0.046631
  10 H :    0.029316
  11 H :    0.027710
  12 C :   -0.074686
  13 H :    0.024048
  14 H :    0.029924
  15 H :    0.027722
  16 S :    0.413160
  17 C :   -0.181210
  18 C :   -0.060549
  19 C :   -0.058081
  20 C :   -0.207227
  21 H :    0.034656
  22 C :   -0.041896
  23 H :    0.030557
  24 H :    0.026473
  25 C :   -0.041815
  26 H :    0.028539
  27 H :    0.017250
  28 C :   -0.057901
  29 H :    0.024347
  30 H :    0.032654
  31 H :    0.016679
  32 H :    0.020717
  33 H :    0.025480

  Mayer bond orders larger than 0.100000
B(  0-S ,  1-C ) :   1.1432 B(  0-S ,  4-C ) :   1.1668 B(  1-C ,  2-C ) :   1.6156
B(  1-C , 32-H ) :   0.9723 B(  2-C ,  3-C ) :   1.2205 B(  2-C ,  6-C ) :   1.0284
B(  3-C ,  4-C ) :   1.5864 B(  3-C ,  5-H ) :   1.0050 B(  4-C , 20-C ) :   0.9933
B(  6-C ,  7-H ) :   0.9302 B(  6-C ,  8-H ) :   0.9387 B(  6-C ,  9-C ) :   1.0765
B(  9-C , 10-H ) :   0.9548 B(  9-C , 11-H ) :   0.9510 B(  9-C , 12-C ) :   1.0788
B( 12-C , 13-H ) :   0.9678 B( 12-C , 14-H ) :   0.9656 B( 12-C , 15-H ) :   0.9733
B( 16-S , 17-C ) :   1.1476 B( 16-S , 20-C ) :   1.1499 B( 17-C , 18-C ) :   1.6186
B( 17-C , 33-H ) :   0.9694 B( 18-C , 19-C ) :   1.2258 B( 18-C , 21-H ) :   0.9909
B( 19-C , 20-C ) :   1.6142 B( 19-C , 22-C ) :   1.0297 B( 22-C , 23-H ) :   0.9340
B( 22-C , 24-H ) :   0.9477 B( 22-C , 25-C ) :   1.0522 B( 25-C , 26-H ) :   0.9648
B( 25-C , 27-H ) :   0.9520 B( 25-C , 28-C ) :   1.0785 B( 28-C , 29-H ) :   0.9772
B( 28-C , 30-H ) :   0.9740 B( 28-C , 31-H ) :   0.9765

Dispersion correction           -0.014261002
FINAL SINGLE POINT ENERGY     -1339.872331674490

DIPOLE MOMENT
-------------
                                X             Y             Z
Electronic contribution:     20.34086      21.79751      -7.59817
Nuclear contribution   :    -20.87468     -22.10544       7.69795
                        -----------------------------------------
Total Dipole Moment    :     -0.53382      -0.30792       0.09978
                        -----------------------------------------
Magnitude (a.u.)       :      0.62429
Magnitude (Debye)      :      1.58682

Rotational constants in cm-1:     0.015797     0.009972     0.006866
Rotational constants in MHz :   473.586211   298.939128   205.842989

                             ****ORCA TERMINATED NORMALLY****
TOTAL RUN TIME: 0 days 0 hours 0 minutes 21 seconds 788 msec
