                         Program Version 4.2.1 -  RELEASE  -
|  1> ! wB97X-D3 SP def2-SVP
|  2> %pal
|  3> nprocs 24
|  4> end
|  5>
|  6> * xyz 0 1
|  7> S 	 -61.7607 	 10.603 	 -17.5593
|  8> C 	 -63.1815 	 10.8757 	 -16.5204
|  9> C 	 -63.954 	 9.74478 	 -16.5551
| 10> C 	 -63.3536 	 8.69139 	 -17.3347
| 11> C 	 -62.0635 	 8.91475 	 -17.7478
| 12> H 	 -63.7879 	 7.71014 	 -17.4873
| 13> C 	 -65.2541 	 9.55099 	 -15.873
| 14> H 	 -65.9767 	 9.6995 	 -16.6692
| 15> H 	 -65.474 	 10.3183 	 -15.1362
| 16> C 	 -65.3348 	 8.18587 	 -15.1897
| 17> H 	 -65.434 	 7.37654 	 -15.8997
| 18> H 	 -64.3552 	 8.04272 	 -14.6874
| 19> C 	 -66.3722 	 8.12813 	 -14.0927
| 20> H 	 -66.9863 	 7.23381 	 -14.2731
| 21> H 	 -65.7327 	 7.99585 	 -13.2452
| 22> H 	 -67.0901 	 8.97252 	 -13.9204
| 23> S 	 -60.7635 	 8.87788 	 -20.1641
| 24> C 	 -60.2691 	 7.33909 	 -20.9023
| 25> C 	 -60.6337 	 6.29351 	 -20.0255
| 26> C 	 -61.097 	 6.68692 	 -18.6826
| 27> C 	 -61.361 	 8.05964 	 -18.6697
| 28> H 	 -60.4671 	 5.26344 	 -20.2649
| 29> C 	 -61.4225 	 5.67432 	 -17.5687
| 30> H 	 -62.3625 	 6.03762 	 -17.1131
| 31> H 	 -60.6279 	 5.69896 	 -16.8388
| 32> C 	 -61.4698 	 4.22718 	 -17.9087
| 33> H 	 -61.5171 	 3.65066 	 -16.9624
| 34> H 	 -60.5426 	 3.82874 	 -18.2972
| 35> C 	 -62.5025 	 3.82929 	 -18.9626
| 36> H 	 -62.5743 	 4.57129 	 -19.7209
| 37> H 	 -63.5051 	 3.99581 	 -18.5029
| 38> H 	 -62.397 	 2.83137 	 -19.2785
| 39> H 	 -63.3827 	 11.822 	 -15.9881
| 40> H 	 -59.714 	 7.31314 	 -21.8058
| 41> *
| 42>
| 43>                          ****END OF INPUT****

CARTESIAN COORDINATES (ANGSTROEM)
---------------------------------
  S    -61.760700   10.603000  -17.559300
  C    -63.181500   10.875700  -16.520400
  C    -63.954000    9.744780  -16.555100
  C    -63.353600    8.691390  -17.334700
  C    -62.063500    8.914750  -17.747800
  H    -63.787900    7.710140  -17.487300
  C    -65.254100    9.550990  -15.873000
  H    -65.976700    9.699500  -16.669200
  H    -65.474000   10.318300  -15.136200
  C    -65.334800    8.185870  -15.189700
  H    -65.434000    7.376540  -15.899700
  H    -64.355200    8.042720  -14.687400
  C    -66.372200    8.128130  -14.092700
  H    -66.986300    7.233810  -14.273100
  H    -65.732700    7.995850  -13.245200
  H    -67.090100    8.972520  -13.920400
  S    -60.763500    8.877880  -20.164100
  C    -60.269100    7.339090  -20.902300
  C    -60.633700    6.293510  -20.025500
  C    -61.097000    6.686920  -18.682600
  C    -61.361000    8.059640  -18.669700
  H    -60.467100    5.263440  -20.264900
  C    -61.422500    5.674320  -17.568700
  H    -62.362500    6.037620  -17.113100
  H    -60.627900    5.698960  -16.838800
  C    -61.469800    4.227180  -17.908700
  H    -61.517100    3.650660  -16.962400
  H    -60.542600    3.828740  -18.297200
  C    -62.502500    3.829290  -18.962600
  H    -62.574300    4.571290  -19.720900
  H    -63.505100    3.995810  -18.502900
  H    -62.397000    2.831370  -19.278500
  H    -63.382700   11.822000  -15.988100
  H    -59.714000    7.313140  -21.805800

 Total Charge           Charge          ....    0
 Multiplicity           Mult            ....    1
 Number of Electrons    NEL             ....  134
 Basis Dimension        Dim             ....  322

ORBITAL ENERGIES
----------------

  NO   OCC          E(Eh)            E(eV)
   0   2.0000     -88.962443     -2420.7911
   1   2.0000     -88.960589     -2420.7407
   2   2.0000     -10.332769      -281.1689
   3   2.0000     -10.326277      -280.9923
   4   2.0000     -10.322393      -280.8866
   5   2.0000     -10.317318      -280.7485
   6   2.0000     -10.312358      -280.6135
   7   2.0000     -10.301193      -280.3097
   8   2.0000     -10.299571      -280.2656
   9   2.0000     -10.296613      -280.1851
  10   2.0000     -10.292375      -280.0698
  11   2.0000     -10.288478      -279.9637
  12   2.0000     -10.286758      -279.9169
  13   2.0000     -10.286391      -279.9069
  14   2.0000     -10.278249      -279.6854
  15   2.0000     -10.272533      -279.5298
  16   2.0000      -8.076132      -219.7627
  17   2.0000      -8.075559      -219.7471
  18   2.0000      -6.034810      -164.2155
  19   2.0000      -6.034198      -164.1989
  20   2.0000      -6.030764      -164.1054
  21   2.0000      -6.030081      -164.0868
  22   2.0000      -6.026781      -163.9970
  23   2.0000      -6.026089      -163.9782
  24   2.0000      -1.006393       -27.3853
  25   2.0000      -0.975229       -26.5373
  26   2.0000      -0.921022       -25.0623
  27   2.0000      -0.915868       -24.9220
  28   2.0000      -0.873297       -23.7636
  29   2.0000      -0.850730       -23.1495
  30   2.0000      -0.838372       -22.8133
  31   2.0000      -0.812668       -22.1138
  32   2.0000      -0.789935       -21.4952
  33   2.0000      -0.775750       -21.1092
  34   2.0000      -0.712632       -19.3917
  35   2.0000      -0.700358       -19.0577
  36   2.0000      -0.692262       -18.8374
  37   2.0000      -0.658066       -17.9069
  38   2.0000      -0.641854       -17.4657
  39   2.0000      -0.620103       -16.8739
  40   2.0000      -0.599760       -16.3203
  41   2.0000      -0.576947       -15.6995
  42   2.0000      -0.565282       -15.3821
  43   2.0000      -0.560049       -15.2397
  44   2.0000      -0.539308       -14.6753
  45   2.0000      -0.530640       -14.4395
  46   2.0000      -0.524905       -14.2834
  47   2.0000      -0.514066       -13.9885
  48   2.0000      -0.511402       -13.9160
  49   2.0000      -0.502650       -13.6778
  50   2.0000      -0.495953       -13.4956
  51   2.0000      -0.480919       -13.0865
  52   2.0000      -0.475700       -12.9444
  53   2.0000      -0.473032       -12.8718
  54   2.0000      -0.454525       -12.3682
  55   2.0000      -0.448653       -12.2085
  56   2.0000      -0.444149       -12.0859
  57   2.0000      -0.436432       -11.8759
  58   2.0000      -0.429098       -11.6764
  59   2.0000      -0.423458       -11.5229
  60   2.0000      -0.418222       -11.3804
  61   2.0000      -0.408094       -11.1048
  62   2.0000      -0.404017       -10.9938
  63   2.0000      -0.349724        -9.5165
  64   2.0000      -0.327513        -8.9121
  65   2.0000      -0.322604        -8.7785
  66   2.0000      -0.288944        -7.8626
  67   0.0000       0.022170         0.6033
  68   0.0000       0.072761         1.9799
  69   0.0000       0.102079         2.7777
  70   0.0000       0.121313         3.3011
  71   0.0000       0.129036         3.5113

MULLIKEN ATOMIC CHARGES
-----------------------
   0 S :    0.079253
   1 C :   -0.140575
   2 C :   -0.089783
   3 C :    0.006212
   4 C :   -0.114222
   5 H :    0.017235
   6 C :    0.105844
   7 H :    0.041844
   8 H :    0.011508
   9 C :   -0.130326
  10 H :    0.033641
  11 H :    0.042198
  12 C :   -0.039071
  13 H :    0.033334
  14 H :    0.032276
  15 H :    0.046944
  16 S :    0.083753
  17 C :   -0.083970
  18 C :   -0.021787
  19 C :   -0.089242
  20 C :   -0.144458
  21 H :    0.017636
  22 C :    0.116556
  23 H :    0.025679
  24 H :    0.039395
  25 C :   -0.102652
  26 H :    0.031185
  27 H :    0.015776
  28 C :   -0.023256
  29 H :    0.027941
  30 H :    0.013442
  31 H :    0.036867
  32 H :    0.062045
  33 H :    0.058779
Sum of atomic charges:   -0.0000000

LOEWDIN ATOMIC CHARGES
----------------------
   0 S :    0.392325
   1 C :   -0.190515
   2 C :   -0.064266
   3 C :   -0.059628
   4 C :   -0.202664
   5 H :    0.025839
   6 C :   -0.031556
   7 H :    0.037296
   8 H :    0.027944
   9 C :   -0.044187
  10 H :    0.019301
  11 H :    0.030269
  12 C :   -0.072359
  13 H :    0.030266
  14 H :    0.028649
  15 H :    0.030971
  16 S :    0.369114
  17 C :   -0.174984
  18 C :   -0.066838
  19 C :   -0.055327
  20 C :   -0.172121
  21 H :    0.023681
  22 C :   -0.029378
  23 H :    0.032778
  24 H :    0.041136
  25 C :   -0.049920
  26 H :    0.032162
  27 H :    0.019914
  28 C :   -0.063287
  29 H :    0.023194
  30 H :    0.027863
  31 H :    0.021393
  32 H :    0.037641
  33 H :    0.025296

  Mayer bond orders larger than 0.100000
B(  0-S ,  1-C ) :   1.1213 B(  0-S ,  4-C ) :   1.1470 B(  1-C ,  2-C ) :   1.6060
B(  1-C , 32-H ) :   0.9719 B(  2-C ,  3-C ) :   1.2375 B(  2-C ,  6-C ) :   1.0284
B(  3-C ,  4-C ) :   1.5573 B(  3-C ,  5-H ) :   0.9827 B(  4-C , 20-C ) :   1.0684
B(  6-C ,  7-H ) :   0.9217 B(  6-C ,  8-H ) :   0.9454 B(  6-C ,  9-C ) :   1.0584
B(  9-C , 10-H ) :   0.9519 B(  9-C , 11-H ) :   0.9765 B(  9-C , 12-C ) :   1.0564
B( 12-C , 13-H ) :   0.9768 B( 12-C , 14-H ) :   0.9841 B( 12-C , 15-H ) :   0.9785
B( 16-S , 17-C ) :   1.1375 B( 16-S , 20-C ) :   1.1290 B( 17-C , 18-C ) :   1.5999
B( 17-C , 33-H ) :   0.9768 B( 18-C , 19-C ) :   1.2363 B( 18-C , 21-H ) :   0.9777
B( 19-C , 20-C ) :   1.6103 B( 19-C , 22-C ) :   1.0212 B( 22-C , 23-H ) :   0.9362
B( 22-C , 24-H ) :   0.9190 B( 22-C , 25-C ) :   1.0984 B( 25-C , 26-H ) :   0.9476
B( 25-C , 27-H ) :   0.9456 B( 25-C , 28-C ) :   1.0708 B( 28-C , 29-H ) :   0.9727
B( 28-C , 30-H ) :   0.9679 B( 28-C , 31-H ) :   0.9760

Dispersion correction           -0.013972472
FINAL SINGLE POINT ENERGY     -1339.855725383074

DIPOLE MOMENT
-------------
                                X             Y             Z
Electronic contribution:     17.03269      21.17008     -14.17293
Nuclear contribution   :    -17.50104     -21.75423      14.53548
                        -----------------------------------------
Total Dipole Moment    :     -0.46835      -0.58415       0.36255
                        -----------------------------------------
Magnitude (a.u.)       :      0.83188
Magnitude (Debye)      :      2.11447

Rotational constants in cm-1:     0.017183     0.009438     0.006463
Rotational constants in MHz :   515.137386   282.937298   193.765660

                             ****ORCA TERMINATED NORMALLY****
TOTAL RUN TIME: 0 days 0 hours 0 minutes 20 seconds 534 msec
