                         Program Version 4.2.1 -  RELEASE  -
|  1> ! wB97X-D3 SP def2-SVP
|  2> %pal
|  3> nprocs 24
|  4> end
|  5>
|  6> * xyz 0 1
|  7> S 	 44.3637 	 -18.7492 	 -109.669
|  8> C 	 45.2446 	 -18.7009 	 -111.135
|  9> C 	 46.1065 	 -19.7295 	 -111.203
| 10> C 	 46.1391 	 -20.5985 	 -110.05
| 11> C 	 45.241 	 -20.1375 	 -109.044
| 12> H 	 46.8475 	 -21.4262 	 -109.8
| 13> C 	 47.0697 	 -19.9548 	 -112.362
| 14> H 	 48.07 	 -19.6466 	 -112.021
| 15> H 	 46.7945 	 -19.2176 	 -113.147
| 16> C 	 46.9932 	 -21.3419 	 -113.084
| 17> H 	 46.0674 	 -21.7687 	 -113.215
| 18> H 	 47.3303 	 -21.1844 	 -114.13
| 19> C 	 47.9414 	 -22.2973 	 -112.443
| 20> H 	 48.9534 	 -21.9847 	 -112.227
| 21> H 	 47.5522 	 -22.7549 	 -111.59
| 22> H 	 48.0796 	 -23.0975 	 -113.162
| 23> S 	 44.3185 	 -19.5534 	 -106.51
| 24> C 	 44.5577 	 -20.7025 	 -105.199
| 25> C 	 45.1903 	 -21.8646 	 -105.731
| 26> C 	 45.3721 	 -21.8367 	 -107.157
| 27> C 	 44.9902 	 -20.6267 	 -107.725
| 28> H 	 45.4514 	 -22.6514 	 -104.959
| 29> C 	 45.8912 	 -23.1126 	 -107.889
| 30> H 	 46.9882 	 -23.1364 	 -107.757
| 31> H 	 45.8033 	 -22.9825 	 -108.92
| 32> C 	 45.3156 	 -24.4407 	 -107.452
| 33> H 	 45.422 	 -24.5259 	 -106.383
| 34> H 	 45.8565 	 -25.388 	 -107.751
| 35> C 	 43.8467 	 -24.4869 	 -107.844
| 36> H 	 43.8205 	 -24.4208 	 -108.908
| 37> H 	 43.1654 	 -23.6354 	 -107.519
| 38> H 	 43.4734 	 -25.4265 	 -107.549
| 39> H 	 45.1216 	 -17.9511 	 -111.938
| 40> H 	 44.3624 	 -20.5568 	 -104.098
| 41> *
| 42>
| 43>                          ****END OF INPUT****

CARTESIAN COORDINATES (ANGSTROEM)
---------------------------------
  S     44.363700  -18.749200  -109.669000
  C     45.244600  -18.700900  -111.135000
  C     46.106500  -19.729500  -111.203000
  C     46.139100  -20.598500  -110.050000
  C     45.241000  -20.137500  -109.044000
  H     46.847500  -21.426200  -109.800000
  C     47.069700  -19.954800  -112.362000
  H     48.070000  -19.646600  -112.021000
  H     46.794500  -19.217600  -113.147000
  C     46.993200  -21.341900  -113.084000
  H     46.067400  -21.768700  -113.215000
  H     47.330300  -21.184400  -114.130000
  C     47.941400  -22.297300  -112.443000
  H     48.953400  -21.984700  -112.227000
  H     47.552200  -22.754900  -111.590000
  H     48.079600  -23.097500  -113.162000
  S     44.318500  -19.553400  -106.510000
  C     44.557700  -20.702500  -105.199000
  C     45.190300  -21.864600  -105.731000
  C     45.372100  -21.836700  -107.157000
  C     44.990200  -20.626700  -107.725000
  H     45.451400  -22.651400  -104.959000
  C     45.891200  -23.112600  -107.889000
  H     46.988200  -23.136400  -107.757000
  H     45.803300  -22.982500  -108.920000
  C     45.315600  -24.440700  -107.452000
  H     45.422000  -24.525900  -106.383000
  H     45.856500  -25.388000  -107.751000
  C     43.846700  -24.486900  -107.844000
  H     43.820500  -24.420800  -108.908000
  H     43.165400  -23.635400  -107.519000
  H     43.473400  -25.426500  -107.549000
  H     45.121600  -17.951100  -111.938000
  H     44.362400  -20.556800  -104.098000

 Total Charge           Charge          ....    0
 Multiplicity           Mult            ....    1
 Number of Electrons    NEL             ....  134
 Basis Dimension        Dim             ....  322

ORBITAL ENERGIES
----------------

  NO   OCC          E(Eh)            E(eV)
   0   2.0000     -88.969100     -2420.9723
   1   2.0000     -88.962959     -2420.8052
   2   2.0000     -10.334547      -281.2173
   3   2.0000     -10.330211      -281.0993
   4   2.0000     -10.329048      -281.0677
   5   2.0000     -10.311594      -280.5927
   6   2.0000     -10.309249      -280.5289
   7   2.0000     -10.305421      -280.4248
   8   2.0000     -10.301185      -280.3095
   9   2.0000     -10.297241      -280.2022
  10   2.0000     -10.293414      -280.0980
  11   2.0000     -10.292046      -280.0608
  12   2.0000     -10.288121      -279.9540
  13   2.0000     -10.282859      -279.8108
  14   2.0000     -10.270016      -279.4614
  15   2.0000     -10.267273      -279.3867
  16   2.0000      -8.083352      -219.9592
  17   2.0000      -8.078495      -219.8270
  18   2.0000      -6.042046      -164.4124
  19   2.0000      -6.037779      -164.2963
  20   2.0000      -6.037035      -164.2761
  21   2.0000      -6.034072      -164.1954
  22   2.0000      -6.032849      -164.1622
  23   2.0000      -6.029213      -164.0632
  24   2.0000      -1.008134       -27.4327
  25   2.0000      -0.983480       -26.7619
  26   2.0000      -0.913710       -24.8633
  27   2.0000      -0.910811       -24.7844
  28   2.0000      -0.875271       -23.8173
  29   2.0000      -0.851642       -23.1744
  30   2.0000      -0.840517       -22.8716
  31   2.0000      -0.811977       -22.0950
  32   2.0000      -0.784583       -21.3496
  33   2.0000      -0.772945       -21.0329
  34   2.0000      -0.712132       -19.3781
  35   2.0000      -0.702604       -19.1188
  36   2.0000      -0.699233       -19.0271
  37   2.0000      -0.656507       -17.8645
  38   2.0000      -0.633679       -17.2433
  39   2.0000      -0.618396       -16.8274
  40   2.0000      -0.594819       -16.1858
  41   2.0000      -0.569695       -15.5022
  42   2.0000      -0.559155       -15.2154
  43   2.0000      -0.541988       -14.7483
  44   2.0000      -0.539818       -14.6892
  45   2.0000      -0.528621       -14.3845
  46   2.0000      -0.523084       -14.2338
  47   2.0000      -0.516561       -14.0564
  48   2.0000      -0.508700       -13.8424
  49   2.0000      -0.504156       -13.7188
  50   2.0000      -0.492108       -13.3909
  51   2.0000      -0.489169       -13.3110
  52   2.0000      -0.472048       -12.8451
  53   2.0000      -0.462391       -12.5823
  54   2.0000      -0.458060       -12.4644
  55   2.0000      -0.453590       -12.3428
  56   2.0000      -0.449018       -12.2184
  57   2.0000      -0.440620       -11.9899
  58   2.0000      -0.426132       -11.5956
  59   2.0000      -0.420420       -11.4402
  60   2.0000      -0.413910       -11.2631
  61   2.0000      -0.409793       -11.1510
  62   2.0000      -0.403472       -10.9790
  63   2.0000      -0.364220        -9.9109
  64   2.0000      -0.332713        -9.0536
  65   2.0000      -0.327158        -8.9024
  66   2.0000      -0.281151        -7.6505
  67   0.0000       0.015899         0.4326
  68   0.0000       0.087078         2.3695
  69   0.0000       0.105493         2.8706
  70   0.0000       0.121146         3.2966
  71   0.0000       0.134102         3.6491

MULLIKEN ATOMIC CHARGES
-----------------------
   0 S :    0.095177
   1 C :   -0.121884
   2 C :   -0.078135
   3 C :   -0.006364
   4 C :   -0.153368
   5 H :    0.037420
   6 C :    0.039779
   7 H :    0.045175
   8 H :    0.010563
   9 C :   -0.032657
  10 H :    0.014947
  11 H :    0.025879
  12 C :   -0.024166
  13 H :    0.024358
  14 H :    0.016599
  15 H :    0.015723
  16 S :    0.108419
  17 C :   -0.123042
  18 C :   -0.076559
  19 C :   -0.082508
  20 C :   -0.098687
  21 H :    0.050704
  22 C :    0.085345
  23 H :    0.036865
  24 H :    0.001095
  25 C :   -0.063904
  26 H :    0.013696
  27 H :    0.036264
  28 C :   -0.036659
  29 H :    0.016390
  30 H :    0.059399
  31 H :    0.020834
  32 H :    0.058179
  33 H :    0.085123
Sum of atomic charges:   -0.0000000

LOEWDIN ATOMIC CHARGES
----------------------
   0 S :    0.409810
   1 C :   -0.215335
   2 C :   -0.070092
   3 C :   -0.077984
   4 C :   -0.179173
   5 H :    0.038985
   6 C :   -0.029201
   7 H :    0.034665
   8 H :    0.027897
   9 C :   -0.030853
  10 H :    0.018312
  11 H :    0.029488
  12 C :   -0.062468
  13 H :    0.023700
  14 H :    0.012915
  15 H :    0.026554
  16 S :    0.404559
  17 C :   -0.199147
  18 C :   -0.078966
  19 C :   -0.052704
  20 C :   -0.202708
  21 H :    0.042709
  22 C :   -0.029458
  23 H :    0.035382
  24 H :    0.015144
  25 C :   -0.044947
  26 H :    0.016206
  27 H :    0.035481
  28 C :   -0.063046
  29 H :    0.020435
  30 H :    0.040206
  31 H :    0.017257
  32 H :    0.039331
  33 H :    0.047045

  Mayer bond orders larger than 0.100000
B(  0-S ,  1-C ) :   1.1220 B(  0-S ,  4-C ) :   1.1588 B(  1-C ,  2-C ) :   1.6393
B(  1-C , 32-H ) :   0.9612 B(  2-C ,  3-C ) :   1.2335 B(  2-C ,  6-C ) :   1.0250
B(  3-C ,  4-C ) :   1.5497 B(  3-C ,  5-H ) :   0.9702 B(  4-C , 20-C ) :   1.1077
B(  6-C ,  7-H ) :   0.9456 B(  6-C ,  8-H ) :   0.9424 B(  6-C ,  9-C ) :   1.0549
B(  9-C , 10-H ) :   0.9560 B(  9-C , 11-H ) :   0.9607 B(  9-C , 12-C ) :   1.0862
B( 12-C , 13-H ) :   0.9757 B( 12-C , 14-H ) :   0.9728 B( 12-C , 15-H ) :   0.9657
B( 16-S , 17-C ) :   1.1539 B( 16-S , 20-C ) :   1.1315 B( 17-C , 18-C ) :   1.5990
B( 17-C , 20-C ) :   0.1019 B( 17-C , 33-H ) :   0.9614 B( 18-C , 19-C ) :   1.2486
B( 18-C , 21-H ) :   0.9779 B( 19-C , 20-C ) :   1.5715 B( 19-C , 22-C ) :   1.0262
B( 22-C , 23-H ) :   0.9244 B( 22-C , 24-H ) :   0.9360 B( 22-C , 25-C ) :   1.0752
B( 25-C , 26-H ) :   0.9480 B( 25-C , 27-H ) :   0.9505 B( 25-C , 28-C ) :   1.0740
B( 28-C , 29-H ) :   0.9745 B( 28-C , 30-H ) :   0.9731 B( 28-C , 31-H ) :   0.9728

Dispersion correction           -0.014480492
FINAL SINGLE POINT ENERGY     -1339.865800859137

DIPOLE MOMENT
-------------
                                X             Y             Z
Electronic contribution:    -11.12529      23.48415      13.32020
Nuclear contribution   :     11.56395     -24.04406     -13.48519
                        -----------------------------------------
Total Dipole Moment    :      0.43866      -0.55992      -0.16499
                        -----------------------------------------
Magnitude (a.u.)       :      0.73017
Magnitude (Debye)      :      1.85594

Rotational constants in cm-1:     0.018026     0.009710     0.006901
Rotational constants in MHz :   540.398203   291.107868   206.886338

                             ****ORCA TERMINATED NORMALLY****
TOTAL RUN TIME: 0 days 0 hours 0 minutes 22 seconds 165 msec
