                         Program Version 4.2.1 -  RELEASE  -
|  1> ! wB97X-D3 SP def2-SVP
|  2> %pal
|  3> nprocs 24
|  4> end
|  5>
|  6> * xyz 0 1
|  7> S 	 -112.072 	 58.9251 	 -18.5112
|  8> C 	 -112.538 	 60.2138 	 -17.4763
|  9> C 	 -113.125 	 61.2354 	 -18.2039
| 10> C 	 -113.442 	 60.8375 	 -19.4953
| 11> C 	 -112.854 	 59.6482 	 -19.8427
| 12> H 	 -113.995 	 61.451 	 -20.248
| 13> C 	 -113.527 	 62.5714 	 -17.7257
| 14> H 	 -113.218 	 62.748 	 -16.7311
| 15> H 	 -114.627 	 62.6937 	 -17.8207
| 16> C 	 -112.877 	 63.8109 	 -18.3638
| 17> H 	 -111.792 	 63.7319 	 -18.3377
| 18> H 	 -113.221 	 63.7367 	 -19.3954
| 19> C 	 -113.359 	 65.1358 	 -17.7327
| 20> H 	 -114.471 	 65.0874 	 -17.8311
| 21> H 	 -113.078 	 65.3455 	 -16.6944
| 22> H 	 -112.983 	 65.9901 	 -18.2676
| 23> S 	 -114.298 	 57.8555 	 -21.3135
| 24> C 	 -113.808 	 57.4633 	 -22.9945
| 25> C 	 -112.593 	 58.0716 	 -23.2719
| 26> C 	 -112.109 	 58.9042 	 -22.2529
| 27> C 	 -112.901 	 58.9575 	 -21.1191
| 28> H 	 -112.031 	 57.7245 	 -24.1079
| 29> C 	 -110.783 	 59.5936 	 -22.3239
| 30> H 	 -109.887 	 58.8786 	 -22.4757
| 31> H 	 -110.496 	 60.0424 	 -21.3995
| 32> C 	 -110.699 	 60.713 	 -23.3914
| 33> H 	 -110.951 	 61.8019 	 -23.1765
| 34> H 	 -111.276 	 60.3143 	 -24.2376
| 35> C 	 -109.289 	 60.8844 	 -23.9406
| 36> H 	 -108.612 	 61.4936 	 -23.3735
| 37> H 	 -109.313 	 61.5024 	 -24.8215
| 38> H 	 -108.874 	 60.0011 	 -24.3613
| 39> H 	 -112.341 	 60.2128 	 -16.4256
| 40> H 	 -114.283 	 56.8243 	 -23.7135
| 41> *
| 42>
| 43>                          ****END OF INPUT****

CARTESIAN COORDINATES (ANGSTROEM)
---------------------------------
  S    -112.072000   58.925100  -18.511200
  C    -112.538000   60.213800  -17.476300
  C    -113.125000   61.235400  -18.203900
  C    -113.442000   60.837500  -19.495300
  C    -112.854000   59.648200  -19.842700
  H    -113.995000   61.451000  -20.248000
  C    -113.527000   62.571400  -17.725700
  H    -113.218000   62.748000  -16.731100
  H    -114.627000   62.693700  -17.820700
  C    -112.877000   63.810900  -18.363800
  H    -111.792000   63.731900  -18.337700
  H    -113.221000   63.736700  -19.395400
  C    -113.359000   65.135800  -17.732700
  H    -114.471000   65.087400  -17.831100
  H    -113.078000   65.345500  -16.694400
  H    -112.983000   65.990100  -18.267600
  S    -114.298000   57.855500  -21.313500
  C    -113.808000   57.463300  -22.994500
  C    -112.593000   58.071600  -23.271900
  C    -112.109000   58.904200  -22.252900
  C    -112.901000   58.957500  -21.119100
  H    -112.031000   57.724500  -24.107900
  C    -110.783000   59.593600  -22.323900
  H    -109.887000   58.878600  -22.475700
  H    -110.496000   60.042400  -21.399500
  C    -110.699000   60.713000  -23.391400
  H    -110.951000   61.801900  -23.176500
  H    -111.276000   60.314300  -24.237600
  C    -109.289000   60.884400  -23.940600
  H    -108.612000   61.493600  -23.373500
  H    -109.313000   61.502400  -24.821500
  H    -108.874000   60.001100  -24.361300
  H    -112.341000   60.212800  -16.425600
  H    -114.283000   56.824300  -23.713500

 Total Charge           Charge          ....    0
 Multiplicity           Mult            ....    1
 Number of Electrons    NEL             ....  134
 Basis Dimension        Dim             ....  322

ORBITAL ENERGIES
----------------

  NO   OCC          E(Eh)            E(eV)
   0   2.0000     -88.966508     -2420.9018
   1   2.0000     -88.963378     -2420.8166
   2   2.0000     -10.326628      -281.0018
   3   2.0000     -10.322695      -280.8948
   4   2.0000     -10.320943      -280.8471
   5   2.0000     -10.310860      -280.5728
   6   2.0000     -10.300703      -280.2964
   7   2.0000     -10.295160      -280.1456
   8   2.0000     -10.291800      -280.0541
   9   2.0000     -10.291090      -280.0348
  10   2.0000     -10.290026      -280.0059
  11   2.0000     -10.288643      -279.9682
  12   2.0000     -10.287077      -279.9256
  13   2.0000     -10.284482      -279.8550
  14   2.0000     -10.283402      -279.8256
  15   2.0000     -10.266334      -279.3612
  16   2.0000      -8.082656      -219.9402
  17   2.0000      -8.076851      -219.7823
  18   2.0000      -6.040868      -164.3804
  19   2.0000      -6.036934      -164.2733
  20   2.0000      -6.035454      -164.2330
  21   2.0000      -6.033665      -164.1844
  22   2.0000      -6.031475      -164.1248
  23   2.0000      -6.027625      -164.0200
  24   2.0000      -1.015205       -27.6251
  25   2.0000      -0.984757       -26.7966
  26   2.0000      -0.917615       -24.9696
  27   2.0000      -0.905120       -24.6296
  28   2.0000      -0.871290       -23.7090
  29   2.0000      -0.854663       -23.2566
  30   2.0000      -0.849562       -23.1178
  31   2.0000      -0.815861       -22.2007
  32   2.0000      -0.783456       -21.3189
  33   2.0000      -0.770539       -20.9674
  34   2.0000      -0.707781       -19.2597
  35   2.0000      -0.695235       -18.9183
  36   2.0000      -0.692414       -18.8416
  37   2.0000      -0.662622       -18.0309
  38   2.0000      -0.646152       -17.5827
  39   2.0000      -0.626656       -17.0522
  40   2.0000      -0.599707       -16.3189
  41   2.0000      -0.577615       -15.7177
  42   2.0000      -0.567651       -15.4466
  43   2.0000      -0.563093       -15.3225
  44   2.0000      -0.524728       -14.2786
  45   2.0000      -0.522168       -14.2089
  46   2.0000      -0.515769       -14.0348
  47   2.0000      -0.512389       -13.9428
  48   2.0000      -0.508339       -13.8326
  49   2.0000      -0.500057       -13.6073
  50   2.0000      -0.493368       -13.4252
  51   2.0000      -0.476591       -12.9687
  52   2.0000      -0.473322       -12.8797
  53   2.0000      -0.466550       -12.6955
  54   2.0000      -0.461615       -12.5612
  55   2.0000      -0.449204       -12.2235
  56   2.0000      -0.447946       -12.1892
  57   2.0000      -0.437921       -11.9164
  58   2.0000      -0.427531       -11.6337
  59   2.0000      -0.426190       -11.5972
  60   2.0000      -0.418050       -11.3757
  61   2.0000      -0.409494       -11.1429
  62   2.0000      -0.403000       -10.9662
  63   2.0000      -0.338993        -9.2245
  64   2.0000      -0.328654        -8.9431
  65   2.0000      -0.316223        -8.6049
  66   2.0000      -0.312294        -8.4979
  67   0.0000       0.046176         1.2565
  68   0.0000       0.049833         1.3560
  69   0.0000       0.111426         3.0321
  70   0.0000       0.119414         3.2494
  71   0.0000       0.129295         3.5183

MULLIKEN ATOMIC CHARGES
-----------------------
   0 S :    0.137973
   1 C :   -0.123423
   2 C :   -0.053282
   3 C :    0.027290
   4 C :   -0.184134
   5 H :    0.032586
   6 C :    0.062169
   7 H :   -0.003924
   8 H :    0.036820
   9 C :   -0.083911
  10 H :    0.032350
  11 H :    0.019953
  12 C :   -0.048832
  13 H :    0.032260
  14 H :    0.037331
  15 H :    0.034153
  16 S :    0.098535
  17 C :   -0.084243
  18 C :   -0.040201
  19 C :    0.031783
  20 C :   -0.183638
  21 H :    0.018189
  22 C :    0.058640
  23 H :    0.045436
  24 H :    0.012555
  25 C :   -0.093644
  26 H :    0.050330
  27 H :    0.028485
  28 C :   -0.042585
  29 H :    0.027298
  30 H :    0.006718
  31 H :    0.017493
  32 H :    0.040745
  33 H :    0.052722
Sum of atomic charges:   -0.0000000

LOEWDIN ATOMIC CHARGES
----------------------
   0 S :    0.449080
   1 C :   -0.200675
   2 C :   -0.069128
   3 C :   -0.057788
   4 C :   -0.220952
   5 H :    0.042006
   6 C :   -0.036216
   7 H :    0.020648
   8 H :    0.035346
   9 C :   -0.035825
  10 H :    0.022183
  11 H :    0.019088
  12 C :   -0.066560
  13 H :    0.030605
  14 H :    0.025895
  15 H :    0.026107
  16 S :    0.377559
  17 C :   -0.165523
  18 C :   -0.072819
  19 C :   -0.059148
  20 C :   -0.186198
  21 H :    0.029939
  22 C :   -0.036579
  23 H :    0.043964
  24 H :    0.024463
  25 C :   -0.044613
  26 H :    0.037603
  27 H :    0.023789
  28 C :   -0.072744
  29 H :    0.021560
  30 H :    0.025174
  31 H :    0.016884
  32 H :    0.023843
  33 H :    0.029032

  Mayer bond orders larger than 0.100000
B(  0-S ,  1-C ) :   1.1630 B(  0-S ,  4-C ) :   1.1834 B(  1-C ,  2-C ) :   1.5668
B(  1-C ,  4-C ) :   0.1024 B(  1-C , 32-H ) :   0.9743 B(  2-C ,  3-C ) :   1.2617
B(  2-C ,  6-C ) :   1.0464 B(  3-C ,  4-C ) :   1.5668 B(  3-C ,  5-H ) :   0.9893
B(  4-C , 20-C ) :   0.9892 B(  6-C ,  7-H ) :   0.9374 B(  6-C ,  8-H ) :   0.9349
B(  6-C ,  9-C ) :   1.0556 B(  9-C , 10-H ) :   0.9560 B(  9-C , 11-H ) :   0.9544
B(  9-C , 12-C ) :   1.0841 B( 12-C , 13-H ) :   0.9732 B( 12-C , 14-H ) :   0.9752
B( 12-C , 15-H ) :   0.9735 B( 16-S , 17-C ) :   1.1486 B( 16-S , 20-C ) :   1.1352
B( 17-C , 18-C ) :   1.6193 B( 17-C , 20-C ) :   0.1115 B( 17-C , 33-H ) :   0.9678
B( 18-C , 19-C ) :   1.2328 B( 18-C , 21-H ) :   0.9855 B( 19-C , 20-C ) :   1.6210
B( 19-C , 22-C ) :   1.0535 B( 22-C , 23-H ) :   0.9475 B( 22-C , 24-H ) :   0.9250
B( 22-C , 25-C ) :   1.0349 B( 25-C , 26-H ) :   0.9568 B( 25-C , 27-H ) :   0.9643
B( 25-C , 28-C ) :   1.0900 B( 28-C , 29-H ) :   0.9738 B( 28-C , 30-H ) :   0.9654
B( 28-C , 31-H ) :   0.9715

Dispersion correction           -0.013479839
FINAL SINGLE POINT ENERGY     -1339.862935457909

DIPOLE MOMENT
-------------
                                X             Y             Z
Electronic contribution:    -10.15349     -25.81487       5.35005
Nuclear contribution   :     10.42027      26.28694      -5.49648
                        -----------------------------------------
Total Dipole Moment    :      0.26678       0.47207      -0.14643
                        -----------------------------------------
Magnitude (a.u.)       :      0.56166
Magnitude (Debye)      :      1.42764

Rotational constants in cm-1:     0.016968     0.008307     0.006644
Rotational constants in MHz :   508.692678   249.036650   199.189106

                             ****ORCA TERMINATED NORMALLY****
TOTAL RUN TIME: 0 days 0 hours 0 minutes 21 seconds 175 msec
