                         Program Version 4.2.1 -  RELEASE  -
|  1> ! wB97X-D3 SP def2-SVP
|  2> %pal
|  3> nprocs 24
|  4> end
|  5>
|  6> * xyz 0 1
|  7> S 	 -115.415 	 22.1107 	 -108.741
|  8> C 	 -114.807 	 23.4981 	 -109.624
|  9> C 	 -114.165 	 23.1129 	 -110.813
| 10> C 	 -114.255 	 21.7091 	 -111.021
| 11> C 	 -114.81 	 20.9737 	 -109.917
| 12> H 	 -114.016 	 21.1765 	 -111.925
| 13> C 	 -113.49 	 23.967 	 -111.914
| 14> H 	 -112.497 	 23.5249 	 -112.169
| 15> H 	 -113.246 	 24.8937 	 -111.488
| 16> C 	 -114.309 	 24.1287 	 -113.219
| 17> H 	 -114.638 	 23.1621 	 -113.631
| 18> H 	 -115.24 	 24.7024 	 -113.122
| 19> C 	 -113.461 	 24.7738 	 -114.247
| 20> H 	 -112.591 	 24.1769 	 -114.491
| 21> H 	 -114.123 	 24.8335 	 -115.139
| 22> H 	 -113.163 	 25.7996 	 -114.045
| 23> S 	 -116.453 	 18.8991 	 -109.072
| 24> C 	 -115.899 	 17.2184 	 -109.268
| 25> C 	 -114.8 	 17.1405 	 -110.065
| 26> C 	 -114.202 	 18.4538 	 -110.336
| 27> C 	 -114.996 	 19.5191 	 -109.83
| 28> H 	 -114.308 	 16.1901 	 -110.274
| 29> C 	 -112.878 	 18.6496 	 -111.043
| 30> H 	 -112.698 	 19.7232 	 -111.169
| 31> H 	 -113.02 	 18.4399 	 -112.15
| 32> C 	 -111.766 	 17.8438 	 -110.404
| 33> H 	 -110.937 	 18.0959 	 -111.016
| 34> H 	 -111.942 	 16.7538 	 -110.524
| 35> C 	 -111.415 	 18.1328 	 -108.93
| 36> H 	 -111.108 	 19.1598 	 -108.793
| 37> H 	 -110.633 	 17.4642 	 -108.658
| 38> H 	 -112.395 	 17.8567 	 -108.437
| 39> H 	 -114.833 	 24.5039 	 -109.216
| 40> H 	 -116.484 	 16.3577 	 -108.935
| 41> *
| 42>
| 43>                          ****END OF INPUT****

CARTESIAN COORDINATES (ANGSTROEM)
---------------------------------
  S    -115.415000   22.110700  -108.741000
  C    -114.807000   23.498100  -109.624000
  C    -114.165000   23.112900  -110.813000
  C    -114.255000   21.709100  -111.021000
  C    -114.810000   20.973700  -109.917000
  H    -114.016000   21.176500  -111.925000
  C    -113.490000   23.967000  -111.914000
  H    -112.497000   23.524900  -112.169000
  H    -113.246000   24.893700  -111.488000
  C    -114.309000   24.128700  -113.219000
  H    -114.638000   23.162100  -113.631000
  H    -115.240000   24.702400  -113.122000
  C    -113.461000   24.773800  -114.247000
  H    -112.591000   24.176900  -114.491000
  H    -114.123000   24.833500  -115.139000
  H    -113.163000   25.799600  -114.045000
  S    -116.453000   18.899100  -109.072000
  C    -115.899000   17.218400  -109.268000
  C    -114.800000   17.140500  -110.065000
  C    -114.202000   18.453800  -110.336000
  C    -114.996000   19.519100  -109.830000
  H    -114.308000   16.190100  -110.274000
  C    -112.878000   18.649600  -111.043000
  H    -112.698000   19.723200  -111.169000
  H    -113.020000   18.439900  -112.150000
  C    -111.766000   17.843800  -110.404000
  H    -110.937000   18.095900  -111.016000
  H    -111.942000   16.753800  -110.524000
  C    -111.415000   18.132800  -108.930000
  H    -111.108000   19.159800  -108.793000
  H    -110.633000   17.464200  -108.658000
  H    -112.395000   17.856700  -108.437000
  H    -114.833000   24.503900  -109.216000
  H    -116.484000   16.357700  -108.935000

 Total Charge           Charge          ....    0
 Multiplicity           Mult            ....    1
 Number of Electrons    NEL             ....  134
 Basis Dimension        Dim             ....  322

ORBITAL ENERGIES
----------------

  NO   OCC          E(Eh)            E(eV)
   0   2.0000     -88.970267     -2421.0041
   1   2.0000     -88.963958     -2420.8324
   2   2.0000     -10.335713      -281.2490
   3   2.0000     -10.332095      -281.1506
   4   2.0000     -10.320851      -280.8446
   5   2.0000     -10.319330      -280.8032
   6   2.0000     -10.308492      -280.5083
   7   2.0000     -10.306426      -280.4521
   8   2.0000     -10.298939      -280.2484
   9   2.0000     -10.296302      -280.1766
  10   2.0000     -10.296055      -280.1699
  11   2.0000     -10.293047      -280.0881
  12   2.0000     -10.288090      -279.9532
  13   2.0000     -10.282162      -279.7918
  14   2.0000     -10.276552      -279.6392
  15   2.0000     -10.273981      -279.5692
  16   2.0000      -8.084602      -219.9932
  17   2.0000      -8.078322      -219.8223
  18   2.0000      -6.043123      -164.4417
  19   2.0000      -6.039023      -164.3302
  20   2.0000      -6.036987      -164.2748
  21   2.0000      -6.035522      -164.2349
  22   2.0000      -6.032963      -164.1653
  23   2.0000      -6.028868      -164.0538
  24   2.0000      -0.999751       -27.2046
  25   2.0000      -0.977907       -26.6102
  26   2.0000      -0.915021       -24.8990
  27   2.0000      -0.908688       -24.7267
  28   2.0000      -0.870302       -23.6821
  29   2.0000      -0.851605       -23.1734
  30   2.0000      -0.840425       -22.8691
  31   2.0000      -0.810783       -22.0625
  32   2.0000      -0.782276       -21.2868
  33   2.0000      -0.771254       -20.9869
  34   2.0000      -0.704524       -19.1711
  35   2.0000      -0.697263       -18.9735
  36   2.0000      -0.692322       -18.8390
  37   2.0000      -0.653182       -17.7740
  38   2.0000      -0.639598       -17.4044
  39   2.0000      -0.620947       -16.8968
  40   2.0000      -0.599052       -16.3010
  41   2.0000      -0.571759       -15.5584
  42   2.0000      -0.561316       -15.2742
  43   2.0000      -0.550604       -14.9827
  44   2.0000      -0.540799       -14.7159
  45   2.0000      -0.529158       -14.3991
  46   2.0000      -0.516219       -14.0470
  47   2.0000      -0.510943       -13.9035
  48   2.0000      -0.502556       -13.6752
  49   2.0000      -0.498837       -13.5740
  50   2.0000      -0.486937       -13.2502
  51   2.0000      -0.476152       -12.9567
  52   2.0000      -0.472409       -12.8549
  53   2.0000      -0.464054       -12.6275
  54   2.0000      -0.462450       -12.5839
  55   2.0000      -0.448484       -12.2039
  56   2.0000      -0.442345       -12.0368
  57   2.0000      -0.441839       -12.0230
  58   2.0000      -0.433332       -11.7916
  59   2.0000      -0.424635       -11.5549
  60   2.0000      -0.418095       -11.3770
  61   2.0000      -0.417297       -11.3552
  62   2.0000      -0.402509       -10.9528
  63   2.0000      -0.355087        -9.6624
  64   2.0000      -0.330942        -9.0054
  65   2.0000      -0.327157        -8.9024
  66   2.0000      -0.283352        -7.7104
  67   0.0000       0.020231         0.5505
  68   0.0000       0.081205         2.2097
  69   0.0000       0.102919         2.8006
  70   0.0000       0.114416         3.1134
  71   0.0000       0.135593         3.6897

MULLIKEN ATOMIC CHARGES
-----------------------
   0 S :    0.116346
   1 C :   -0.132765
   2 C :   -0.066510
   3 C :    0.001928
   4 C :   -0.148301
   5 H :    0.019923
   6 C :    0.081303
   7 H :    0.030066
   8 H :    0.001130
   9 C :   -0.071583
  10 H :    0.027559
  11 H :    0.034163
  12 C :   -0.045375
  13 H :    0.029670
  14 H :    0.031050
  15 H :    0.030281
  16 S :    0.087496
  17 C :   -0.098072
  18 C :   -0.016024
  19 C :   -0.101177
  20 C :   -0.121554
  21 H :    0.028836
  22 C :    0.058890
  23 H :    0.007034
  24 H :    0.040360
  25 C :   -0.089434
  26 H :    0.013623
  27 H :    0.032097
  28 C :   -0.025585
  29 H :    0.039407
  30 H :    0.032288
  31 H :    0.052859
  32 H :    0.053596
  33 H :    0.066477
Sum of atomic charges:    0.0000000

LOEWDIN ATOMIC CHARGES
----------------------
   0 S :    0.417234
   1 C :   -0.202768
   2 C :   -0.061757
   3 C :   -0.065586
   4 C :   -0.197208
   5 H :    0.026161
   6 C :   -0.025468
   7 H :    0.035849
   8 H :    0.019890
   9 C :   -0.040859
  10 H :    0.025929
  11 H :    0.028522
  12 C :   -0.065311
  13 H :    0.022050
  14 H :    0.031540
  15 H :    0.022569
  16 S :    0.380013
  17 C :   -0.172540
  18 C :   -0.071912
  19 C :   -0.055383
  20 C :   -0.198113
  21 H :    0.034413
  22 C :   -0.046101
  23 H :    0.028611
  24 H :    0.041529
  25 C :   -0.044171
  26 H :    0.017187
  27 H :    0.024530
  28 C :   -0.057582
  29 H :    0.025754
  30 H :    0.022632
  31 H :    0.037309
  32 H :    0.029437
  33 H :    0.033599

  Mayer bond orders larger than 0.100000
B(  0-S ,  1-C ) :   1.1472 B(  0-S ,  4-C ) :   1.1703 B(  1-C ,  2-C ) :   1.5750
B(  1-C ,  4-C ) :   0.1067 B(  1-C , 32-H ) :   0.9702 B(  2-C ,  3-C ) :   1.2762
B(  2-C ,  6-C ) :   1.0211 B(  3-C ,  4-C ) :   1.5158 B(  3-C ,  5-H ) :   0.9821
B(  4-C , 20-C ) :   1.0756 B(  6-C ,  7-H ) :   0.9455 B(  6-C ,  8-H ) :   0.9368
B(  6-C ,  9-C ) :   1.0585 B(  9-C , 10-H ) :   0.9550 B(  9-C , 11-H ) :   0.9524
B(  9-C , 12-C ) :   1.0947 B( 12-C , 13-H ) :   0.9731 B( 12-C , 14-H ) :   0.9710
B( 12-C , 15-H ) :   0.9728 B( 16-S , 17-C ) :   1.1353 B( 16-S , 20-C ) :   1.1268
B( 17-C , 18-C ) :   1.6387 B( 17-C , 33-H ) :   0.9651 B( 18-C , 19-C ) :   1.2148
B( 18-C , 21-H ) :   0.9844 B( 19-C , 20-C ) :   1.5862 B( 19-C , 22-C ) :   1.0491
B( 22-C , 23-H ) :   0.9237 B( 22-C , 24-H ) :   0.9271 B( 22-C , 25-C ) :   1.0661
B( 25-C , 26-H ) :   0.9491 B( 25-C , 27-H ) :   0.9567 B( 25-C , 28-C ) :   1.0744
B( 28-C , 29-H ) :   0.9753 B( 28-C , 30-H ) :   0.9731 B( 28-C , 31-H ) :   0.9722

Dispersion correction           -0.014073393
FINAL SINGLE POINT ENERGY     -1339.882630856907

DIPOLE MOMENT
-------------
                                X             Y             Z
Electronic contribution:    -19.66683      -5.03723      17.54863
Nuclear contribution   :     20.14042       5.06856     -18.11335
                        -----------------------------------------
Total Dipole Moment    :      0.47360       0.03133      -0.56472
                        -----------------------------------------
Magnitude (a.u.)       :      0.73769
Magnitude (Debye)      :      1.87506

Rotational constants in cm-1:     0.019235     0.008022     0.006717
Rotational constants in MHz :   576.657839   240.496377   201.377004

                             ****ORCA TERMINATED NORMALLY****
TOTAL RUN TIME: 0 days 0 hours 0 minutes 21 seconds 475 msec
