                         Program Version 4.2.1 -  RELEASE  -
|  1> ! wB97X-D3 SP def2-SVP
|  2> %pal
|  3> nprocs 24
|  4> end
|  5>
|  6> * xyz 0 1
|  7> S 	 -105.294 	 0.883529 	 -105.633
|  8> C 	 -104.575 	 1.71435 	 -104.191
|  9> C 	 -103.249 	 1.80857 	 -104.303
| 10> C 	 -102.786 	 1.40031 	 -105.535
| 11> C 	 -103.744 	 0.87635 	 -106.398
| 12> H 	 -101.738 	 1.34967 	 -105.74
| 13> C 	 -102.263 	 2.22094 	 -103.19
| 14> H 	 -101.252 	 2.43033 	 -103.465
| 15> H 	 -102.284 	 1.4116 	 -102.453
| 16> C 	 -102.791 	 3.51945 	 -102.546
| 17> H 	 -102.924 	 4.19234 	 -103.358
| 18> H 	 -103.831 	 3.29583 	 -102.123
| 19> C 	 -101.804 	 3.98649 	 -101.436
| 20> H 	 -102.306 	 4.72316 	 -100.941
| 21> H 	 -101.51 	 3.1848 	 -100.821
| 22> H 	 -100.917 	 4.5197 	 -101.808
| 23> S 	 -104.351 	 -1.16762 	 -108.043
| 24> C 	 -103.525 	 -1.34814 	 -109.568
| 25> C 	 -102.379 	 -0.577377 	 -109.597
| 26> C 	 -102.381 	 0.374547 	 -108.526
| 27> C 	 -103.465 	 0.208526 	 -107.657
| 28> H 	 -101.634 	 -0.638193 	 -110.377
| 29> C 	 -101.427 	 1.52411 	 -108.583
| 30> H 	 -101.736 	 2.29177 	 -107.801
| 31> H 	 -101.723 	 1.9963 	 -109.545
| 32> C 	 -99.9137 	 1.28728 	 -108.397
| 33> H 	 -99.6254 	 0.409913 	 -108.957
| 34> H 	 -99.6912 	 1.03335 	 -107.373
| 35> C 	 -99.0074 	 2.44442 	 -108.805
| 36> H 	 -99.1116 	 3.31698 	 -108.099
| 37> H 	 -99.1264 	 2.78722 	 -109.839
| 38> H 	 -97.9994 	 2.14244 	 -108.656
| 39> H 	 -105.1 	 1.70246 	 -103.258
| 40> H 	 -103.7 	 -1.98146 	 -110.481
| 41> *
| 42>
| 43>                          ****END OF INPUT****

CARTESIAN COORDINATES (ANGSTROEM)
---------------------------------
  S    -105.294000    0.883529  -105.633000
  C    -104.575000    1.714350  -104.191000
  C    -103.249000    1.808570  -104.303000
  C    -102.786000    1.400310  -105.535000
  C    -103.744000    0.876350  -106.398000
  H    -101.738000    1.349670  -105.740000
  C    -102.263000    2.220940  -103.190000
  H    -101.252000    2.430330  -103.465000
  H    -102.284000    1.411600  -102.453000
  C    -102.791000    3.519450  -102.546000
  H    -102.924000    4.192340  -103.358000
  H    -103.831000    3.295830  -102.123000
  C    -101.804000    3.986490  -101.436000
  H    -102.306000    4.723160  -100.941000
  H    -101.510000    3.184800  -100.821000
  H    -100.917000    4.519700  -101.808000
  S    -104.351000   -1.167620  -108.043000
  C    -103.525000   -1.348140  -109.568000
  C    -102.379000   -0.577377  -109.597000
  C    -102.381000    0.374547  -108.526000
  C    -103.465000    0.208526  -107.657000
  H    -101.634000   -0.638193  -110.377000
  C    -101.427000    1.524110  -108.583000
  H    -101.736000    2.291770  -107.801000
  H    -101.723000    1.996300  -109.545000
  C    -99.913700    1.287280  -108.397000
  H    -99.625400    0.409913  -108.957000
  H    -99.691200    1.033350  -107.373000
  C    -99.007400    2.444420  -108.805000
  H    -99.111600    3.316980  -108.099000
  H    -99.126400    2.787220  -109.839000
  H    -97.999400    2.142440  -108.656000
  H    -105.100000    1.702460  -103.258000
  H    -103.700000   -1.981460  -110.481000

 Total Charge           Charge          ....    0
 Multiplicity           Mult            ....    1
 Number of Electrons    NEL             ....  134
 Basis Dimension        Dim             ....  322

ORBITAL ENERGIES
----------------

  NO   OCC          E(Eh)            E(eV)
   0   2.0000     -88.967711     -2420.9345
   1   2.0000     -88.966128     -2420.8914
   2   2.0000     -10.329209      -281.0721
   3   2.0000     -10.321140      -280.8525
   4   2.0000     -10.318870      -280.7907
   5   2.0000     -10.308266      -280.5022
   6   2.0000     -10.299556      -280.2652
   7   2.0000     -10.293094      -280.0893
   8   2.0000     -10.292718      -280.0791
   9   2.0000     -10.292487      -280.0728
  10   2.0000     -10.291741      -280.0525
  11   2.0000     -10.289392      -279.9886
  12   2.0000     -10.287807      -279.9455
  13   2.0000     -10.283803      -279.8365
  14   2.0000     -10.281038      -279.7613
  15   2.0000     -10.270887      -279.4850
  16   2.0000      -8.083619      -219.9665
  17   2.0000      -8.080437      -219.8799
  18   2.0000      -6.042163      -164.4156
  19   2.0000      -6.038950      -164.3282
  20   2.0000      -6.038015      -164.3027
  21   2.0000      -6.035151      -164.2248
  22   2.0000      -6.034199      -164.1989
  23   2.0000      -6.031063      -164.1136
  24   2.0000      -1.015098       -27.6222
  25   2.0000      -0.990554       -26.9543
  26   2.0000      -0.914534       -24.8857
  27   2.0000      -0.908541       -24.7227
  28   2.0000      -0.872761       -23.7490
  29   2.0000      -0.855873       -23.2895
  30   2.0000      -0.846986       -23.0477
  31   2.0000      -0.814061       -22.1517
  32   2.0000      -0.786395       -21.3989
  33   2.0000      -0.771000       -20.9800
  34   2.0000      -0.711437       -19.3592
  35   2.0000      -0.702647       -19.1200
  36   2.0000      -0.691415       -18.8144
  37   2.0000      -0.664984       -18.0951
  38   2.0000      -0.635850       -17.3024
  39   2.0000      -0.623603       -16.9691
  40   2.0000      -0.591131       -16.0855
  41   2.0000      -0.576133       -15.6774
  42   2.0000      -0.564211       -15.3530
  43   2.0000      -0.559976       -15.2377
  44   2.0000      -0.532171       -14.4811
  45   2.0000      -0.527773       -14.3614
  46   2.0000      -0.520763       -14.1707
  47   2.0000      -0.510983       -13.9045
  48   2.0000      -0.504935       -13.7400
  49   2.0000      -0.497214       -13.5299
  50   2.0000      -0.491379       -13.3711
  51   2.0000      -0.485207       -13.2032
  52   2.0000      -0.478036       -13.0080
  53   2.0000      -0.462159       -12.5760
  54   2.0000      -0.459211       -12.4958
  55   2.0000      -0.454063       -12.3557
  56   2.0000      -0.446825       -12.1587
  57   2.0000      -0.441751       -12.0207
  58   2.0000      -0.434836       -11.8325
  59   2.0000      -0.431012       -11.7284
  60   2.0000      -0.421566       -11.4714
  61   2.0000      -0.410783       -11.1780
  62   2.0000      -0.409826       -11.1519
  63   2.0000      -0.354615        -9.6496
  64   2.0000      -0.335079        -9.1180
  65   2.0000      -0.328329        -8.9343
  66   2.0000      -0.282969        -7.7000
  67   0.0000       0.019750         0.5374
  68   0.0000       0.082396         2.2421
  69   0.0000       0.098583         2.6826
  70   0.0000       0.125971         3.4278
  71   0.0000       0.134594         3.6625

MULLIKEN ATOMIC CHARGES
-----------------------
   0 S :    0.092033
   1 C :   -0.146714
   2 C :   -0.055208
   3 C :    0.007281
   4 C :   -0.122601
   5 H :   -0.011083
   6 C :    0.091201
   7 H :    0.016777
   8 H :    0.038026
   9 C :   -0.150865
  10 H :    0.034173
  11 H :    0.037904
  12 C :    0.026480
  13 H :    0.010694
  14 H :    0.025879
  15 H :    0.029942
  16 S :    0.121492
  17 C :   -0.101561
  18 C :   -0.038046
  19 C :   -0.045821
  20 C :   -0.110216
  21 H :    0.019125
  22 C :   -0.010023
  23 H :    0.030839
  24 H :    0.041960
  25 C :   -0.038500
  26 H :    0.016410
  27 H :    0.021881
  28 C :   -0.049013
  29 H :    0.032976
  30 H :    0.039428
  31 H :    0.025326
  32 H :    0.048824
  33 H :    0.071000
Sum of atomic charges:   -0.0000000

LOEWDIN ATOMIC CHARGES
----------------------
   0 S :    0.388294
   1 C :   -0.183492
   2 C :   -0.060783
   3 C :   -0.068137
   4 C :   -0.188683
   5 H :    0.025207
   6 C :   -0.020790
   7 H :    0.023060
   8 H :    0.032129
   9 C :   -0.034640
  10 H :    0.020351
  11 H :    0.027395
  12 C :   -0.056161
  13 H :    0.015796
  14 H :    0.021123
  15 H :    0.030347
  16 S :    0.438355
  17 C :   -0.201845
  18 C :   -0.066226
  19 C :   -0.063423
  20 C :   -0.221061
  21 H :    0.029927
  22 C :   -0.045734
  23 H :    0.034164
  24 H :    0.037695
  25 C :   -0.038407
  26 H :    0.019369
  27 H :    0.022974
  28 C :   -0.064035
  29 H :    0.029837
  30 H :    0.026396
  31 H :    0.022930
  32 H :    0.022479
  33 H :    0.045587

  Mayer bond orders larger than 0.100000
B(  0-S ,  1-C ) :   1.1081 B(  0-S ,  4-C ) :   1.1659 B(  1-C ,  2-C ) :   1.6227
B(  1-C , 32-H ) :   0.9634 B(  2-C ,  3-C ) :   1.2926 B(  2-C ,  6-C ) :   1.0011
B(  3-C ,  4-C ) :   1.5209 B(  3-C ,  5-H ) :   0.9978 B(  4-C , 20-C ) :   1.0621
B(  6-C ,  7-H ) :   0.9529 B(  6-C ,  8-H ) :   0.9331 B(  6-C ,  9-C ) :   1.0589
B(  9-C , 10-H ) :   0.9640 B(  9-C , 11-H ) :   0.9539 B(  9-C , 12-C ) :   1.0747
B( 12-C , 13-H ) :   0.9701 B( 12-C , 14-H ) :   0.9737 B( 12-C , 15-H ) :   0.9711
B( 16-S , 17-C ) :   1.1503 B( 16-S , 20-C ) :   1.1499 B( 17-C , 18-C ) :   1.6072
B( 17-C , 33-H ) :   0.9611 B( 18-C , 19-C ) :   1.2562 B( 18-C , 21-H ) :   0.9888
B( 19-C , 20-C ) :   1.5633 B( 19-C , 22-C ) :   1.0354 B( 22-C , 23-H ) :   0.9371
B( 22-C , 24-H ) :   0.9439 B( 22-C , 25-C ) :   1.0515 B( 25-C , 26-H ) :   0.9561
B( 25-C , 27-H ) :   0.9478 B( 25-C , 28-C ) :   1.0913 B( 28-C , 29-H ) :   0.9739
B( 28-C , 30-H ) :   0.9760 B( 28-C , 31-H ) :   0.9722

Dispersion correction           -0.013549761
FINAL SINGLE POINT ENERGY     -1339.862222456409

DIPOLE MOMENT
-------------
                                X             Y             Z
Electronic contribution:    -24.36342     -17.99377      -9.87259
Nuclear contribution   :     25.13476      18.15148      10.00786
                        -----------------------------------------
Total Dipole Moment    :      0.77133       0.15771       0.13528
                        -----------------------------------------
Magnitude (a.u.)       :      0.79883
Magnitude (Debye)      :      2.03046

Rotational constants in cm-1:     0.017665     0.008646     0.006020
Rotational constants in MHz :   529.569404   259.193505   180.463165

                             ****ORCA TERMINATED NORMALLY****
TOTAL RUN TIME: 0 days 0 hours 0 minutes 21 seconds 368 msec
