                         Program Version 4.2.1 -  RELEASE  -
|  1> ! wB97X-D3 SP def2-SVP
|  2> %pal
|  3> nprocs 24
|  4> end
|  5>
|  6> * xyz 0 1
|  7> S 	 -90.6558 	 -11.4536 	 -113.241
|  8> C 	 -89.8191 	 -12.6584 	 -114.254
|  9> C 	 -88.6168 	 -12.126 	 -114.664
| 10> C 	 -88.3606 	 -10.84 	 -114.202
| 11> C 	 -89.384 	 -10.2142 	 -113.401
| 12> H 	 -87.5456 	 -10.2984 	 -114.474
| 13> C 	 -87.5424 	 -12.8229 	 -115.509
| 14> H 	 -87.9481 	 -13.8168 	 -115.819
| 15> H 	 -86.7459 	 -13.0197 	 -114.755
| 16> C 	 -87.1363 	 -12.128 	 -116.765
| 17> H 	 -86.7694 	 -11.1213 	 -116.567
| 18> H 	 -86.1347 	 -12.5919 	 -117.066
| 19> C 	 -88.0864 	 -11.9498 	 -117.891
| 20> H 	 -88.2353 	 -12.9542 	 -118.272
| 21> H 	 -89.0138 	 -11.48 	 -117.632
| 22> H 	 -87.6189 	 -11.4369 	 -118.714
| 23> S 	 -89.4325 	 -8.7111 	 -111.114
| 24> C 	 -89.6076 	 -6.99503 	 -111.275
| 25> C 	 -89.8403 	 -6.61087 	 -112.556
| 26> C 	 -89.7262 	 -7.66063 	 -113.482
| 27> C 	 -89.488 	 -8.86283 	 -112.844
| 28> H 	 -89.9577 	 -5.54089 	 -112.784
| 29> C 	 -89.9162 	 -7.48643 	 -114.975
| 30> H 	 -90.8254 	 -6.84683 	 -115.044
| 31> H 	 -90.2052 	 -8.48711 	 -115.391
| 32> C 	 -88.808 	 -6.93788 	 -115.946
| 33> H 	 -88.4548 	 -5.89606 	 -115.695
| 34> H 	 -89.2156 	 -6.8509 	 -116.932
| 35> C 	 -87.6327 	 -7.86769 	 -116.148
| 36> H 	 -88.0329 	 -8.78716 	 -116.655
| 37> H 	 -87.0682 	 -8.10599 	 -115.226
| 38> H 	 -86.9661 	 -7.44365 	 -116.854
| 39> H 	 -90.2837 	 -13.5074 	 -114.763
| 40> H 	 -89.5462 	 -6.26618 	 -110.443
| 41> *
| 42>
| 43>                          ****END OF INPUT****

CARTESIAN COORDINATES (ANGSTROEM)
---------------------------------
  S    -90.655800  -11.453600  -113.241000
  C    -89.819100  -12.658400  -114.254000
  C    -88.616800  -12.126000  -114.664000
  C    -88.360600  -10.840000  -114.202000
  C    -89.384000  -10.214200  -113.401000
  H    -87.545600  -10.298400  -114.474000
  C    -87.542400  -12.822900  -115.509000
  H    -87.948100  -13.816800  -115.819000
  H    -86.745900  -13.019700  -114.755000
  C    -87.136300  -12.128000  -116.765000
  H    -86.769400  -11.121300  -116.567000
  H    -86.134700  -12.591900  -117.066000
  C    -88.086400  -11.949800  -117.891000
  H    -88.235300  -12.954200  -118.272000
  H    -89.013800  -11.480000  -117.632000
  H    -87.618900  -11.436900  -118.714000
  S    -89.432500   -8.711100  -111.114000
  C    -89.607600   -6.995030  -111.275000
  C    -89.840300   -6.610870  -112.556000
  C    -89.726200   -7.660630  -113.482000
  C    -89.488000   -8.862830  -112.844000
  H    -89.957700   -5.540890  -112.784000
  C    -89.916200   -7.486430  -114.975000
  H    -90.825400   -6.846830  -115.044000
  H    -90.205200   -8.487110  -115.391000
  C    -88.808000   -6.937880  -115.946000
  H    -88.454800   -5.896060  -115.695000
  H    -89.215600   -6.850900  -116.932000
  C    -87.632700   -7.867690  -116.148000
  H    -88.032900   -8.787160  -116.655000
  H    -87.068200   -8.105990  -115.226000
  H    -86.966100   -7.443650  -116.854000
  H    -90.283700  -13.507400  -114.763000
  H    -89.546200   -6.266180  -110.443000

 Total Charge           Charge          ....    0
 Multiplicity           Mult            ....    1
 Number of Electrons    NEL             ....  134
 Basis Dimension        Dim             ....  322

ORBITAL ENERGIES
----------------

  NO   OCC          E(Eh)            E(eV)
   0   2.0000     -88.967370     -2420.9252
   1   2.0000     -88.963973     -2420.8328
   2   2.0000     -10.336877      -281.2807
   3   2.0000     -10.325924      -280.9827
   4   2.0000     -10.316797      -280.7343
   5   2.0000     -10.315336      -280.6946
   6   2.0000     -10.303296      -280.3669
   7   2.0000     -10.298292      -280.2308
   8   2.0000     -10.296835      -280.1911
   9   2.0000     -10.295349      -280.1507
  10   2.0000     -10.291782      -280.0536
  11   2.0000     -10.291034      -280.0333
  12   2.0000     -10.286541      -279.9110
  13   2.0000     -10.286469      -279.9090
  14   2.0000     -10.278206      -279.6842
  15   2.0000     -10.273910      -279.5673
  16   2.0000      -8.082788      -219.9438
  17   2.0000      -8.077400      -219.7972
  18   2.0000      -6.041170      -164.3886
  19   2.0000      -6.037276      -164.2826
  20   2.0000      -6.035991      -164.2477
  21   2.0000      -6.033555      -164.1814
  22   2.0000      -6.031794      -164.1335
  23   2.0000      -6.028425      -164.0418
  24   2.0000      -1.008634       -27.4463
  25   2.0000      -0.982191       -26.7268
  26   2.0000      -0.916477       -24.9386
  27   2.0000      -0.905500       -24.6399
  28   2.0000      -0.871045       -23.7023
  29   2.0000      -0.857405       -23.3312
  30   2.0000      -0.845378       -23.0039
  31   2.0000      -0.813817       -22.1451
  32   2.0000      -0.786459       -21.4006
  33   2.0000      -0.774497       -21.0751
  34   2.0000      -0.710959       -19.3462
  35   2.0000      -0.693252       -18.8643
  36   2.0000      -0.690883       -18.7999
  37   2.0000      -0.658394       -17.9158
  38   2.0000      -0.636546       -17.3213
  39   2.0000      -0.622759       -16.9461
  40   2.0000      -0.592382       -16.1195
  41   2.0000      -0.568526       -15.4704
  42   2.0000      -0.562469       -15.3056
  43   2.0000      -0.552510       -15.0346
  44   2.0000      -0.548107       -14.9147
  45   2.0000      -0.538528       -14.6541
  46   2.0000      -0.517858       -14.0916
  47   2.0000      -0.513149       -13.9635
  48   2.0000      -0.499700       -13.5975
  49   2.0000      -0.497404       -13.5350
  50   2.0000      -0.489078       -13.3085
  51   2.0000      -0.479234       -13.0406
  52   2.0000      -0.476578       -12.9683
  53   2.0000      -0.463484       -12.6120
  54   2.0000      -0.458639       -12.4802
  55   2.0000      -0.448484       -12.2039
  56   2.0000      -0.447080       -12.1657
  57   2.0000      -0.440208       -11.9787
  58   2.0000      -0.436534       -11.8787
  59   2.0000      -0.422492       -11.4966
  60   2.0000      -0.418594       -11.3905
  61   2.0000      -0.410429       -11.1683
  62   2.0000      -0.399025       -10.8580
  63   2.0000      -0.339787        -9.2461
  64   2.0000      -0.332061        -9.0358
  65   2.0000      -0.326434        -8.8827
  66   2.0000      -0.299481        -8.1493
  67   0.0000       0.036261         0.9867
  68   0.0000       0.052593         1.4311
  69   0.0000       0.116606         3.1730
  70   0.0000       0.124980         3.4009
  71   0.0000       0.130585         3.5534

MULLIKEN ATOMIC CHARGES
-----------------------
   0 S :    0.098811
   1 C :   -0.129826
   2 C :   -0.105078
   3 C :    0.096212
   4 C :   -0.175485
   5 H :   -0.054144
   6 C :    0.074657
   7 H :    0.011486
   8 H :    0.055890
   9 C :   -0.106117
  10 H :    0.010260
  11 H :    0.028034
  12 C :    0.002787
  13 H :    0.015124
  14 H :    0.043399
  15 H :    0.028942
  16 S :    0.127885
  17 C :   -0.098996
  18 C :   -0.045142
  19 C :    0.007047
  20 C :   -0.191515
  21 H :    0.025652
  22 C :    0.039998
  23 H :    0.034985
  24 H :    0.032389
  25 C :   -0.048338
  26 H :    0.028868
  27 H :    0.022216
  28 C :   -0.069846
  29 H :    0.034828
  30 H :    0.055114
  31 H :    0.024024
  32 H :    0.061934
  33 H :    0.063942
Sum of atomic charges:    0.0000000

LOEWDIN ATOMIC CHARGES
----------------------
   0 S :    0.386201
   1 C :   -0.199904
   2 C :   -0.073232
   3 C :   -0.050681
   4 C :   -0.185601
   5 H :    0.007583
   6 C :   -0.031288
   7 H :    0.028238
   8 H :    0.045090
   9 C :   -0.056884
  10 H :    0.016631
  11 H :    0.033891
  12 C :   -0.057258
  13 H :    0.024110
  14 H :    0.025705
  15 H :    0.029975
  16 S :    0.424687
  17 C :   -0.189291
  18 C :   -0.077014
  19 C :   -0.055651
  20 C :   -0.212196
  21 H :    0.037475
  22 C :   -0.035791
  23 H :    0.037477
  24 H :    0.036411
  25 C :   -0.039740
  26 H :    0.024000
  27 H :    0.024838
  28 C :   -0.067935
  29 H :    0.030078
  30 H :    0.026292
  31 H :    0.021215
  32 H :    0.036414
  33 H :    0.036155

  Mayer bond orders larger than 0.100000
B(  0-S ,  1-C ) :   1.1433 B(  0-S ,  4-C ) :   1.1631 B(  1-C ,  2-C ) :   1.5803
B(  1-C ,  4-C ) :   0.1172 B(  1-C , 32-H ) :   0.9601 B(  2-C ,  3-C ) :   1.2850
B(  2-C ,  6-C ) :   1.0078 B(  3-C ,  4-C ) :   1.5280 B(  3-C ,  5-H ) :   1.0099
B(  4-C , 20-C ) :   1.0248 B(  6-C ,  7-H ) :   0.9407 B(  6-C ,  8-H ) :   0.9390
B(  6-C ,  9-C ) :   1.0754 B(  9-C , 10-H ) :   0.9498 B(  9-C , 11-H ) :   0.9457
B(  9-C , 12-C ) :   1.0828 B( 12-C , 13-H ) :   0.9693 B( 12-C , 14-H ) :   0.9713
B( 12-C , 15-H ) :   0.9670 B( 16-S , 17-C ) :   1.1570 B( 16-S , 20-C ) :   1.1562
B( 17-C , 18-C ) :   1.6208 B( 17-C , 33-H ) :   0.9611 B( 18-C , 19-C ) :   1.2446
B( 18-C , 21-H ) :   0.9871 B( 19-C , 20-C ) :   1.5884 B( 19-C , 22-C ) :   1.0390
B( 22-C , 23-H ) :   0.9345 B( 22-C , 24-H ) :   0.9290 B( 22-C , 25-C ) :   1.0713
B( 25-C , 26-H ) :   0.9556 B( 25-C , 27-H ) :   0.9500 B( 25-C , 28-C ) :   1.0874
B( 28-C , 29-H ) :   0.9680 B( 28-C , 30-H ) :   0.9712 B( 28-C , 31-H ) :   0.9670

Dispersion correction           -0.016112033
FINAL SINGLE POINT ENERGY     -1339.874807828967

DIPOLE MOMENT
-------------
                                X             Y             Z
Electronic contribution:    -12.53730      -0.93278      27.94803
Nuclear contribution   :     12.86814       1.28305     -28.63076
                        -----------------------------------------
Total Dipole Moment    :      0.33084       0.35027      -0.68273
                        -----------------------------------------
Magnitude (a.u.)       :      0.83562
Magnitude (Debye)      :      2.12397

Rotational constants in cm-1:     0.019471     0.009986     0.007451
Rotational constants in MHz :   583.714859   299.376249   223.373088

                             ****ORCA TERMINATED NORMALLY****
TOTAL RUN TIME: 0 days 0 hours 0 minutes 23 seconds 77 msec
