                         Program Version 4.2.1 -  RELEASE  -
|  1> ! wB97X-D3 SP def2-SVP
|  2> %pal
|  3> nprocs 24
|  4> end
|  5>
|  6> * xyz 0 1
|  7> S 	 32.8542 	 2.09092 	 -115.809
|  8> C 	 32.5981 	 3.64711 	 -116.513
|  9> C 	 31.5749 	 4.34768 	 -115.865
| 10> C 	 30.9051 	 3.55571 	 -114.87
| 11> C 	 31.5712 	 2.36379 	 -114.663
| 12> H 	 29.91 	 3.77854 	 -114.322
| 13> C 	 30.9735 	 5.65646 	 -116.33
| 14> H 	 31.705 	 6.47011 	 -116.523
| 15> H 	 30.3321 	 6.00578 	 -115.549
| 16> C 	 30.0788 	 5.49441 	 -117.606
| 17> H 	 30.6097 	 5.32942 	 -118.563
| 18> H 	 29.5191 	 4.60204 	 -117.39
| 19> C 	 29.0321 	 6.58993 	 -117.863
| 20> H 	 28.1716 	 6.23935 	 -118.449
| 21> H 	 28.5536 	 6.88733 	 -116.89
| 22> H 	 29.5539 	 7.38116 	 -118.411
| 23> S 	 30.5798 	 -0.308275 	 -114.799
| 24> C 	 30.1069 	 -1.08997 	 -113.321
| 25> C 	 30.2246 	 -0.203729 	 -112.222
| 26> C 	 30.8304 	 1.04406 	 -112.557
| 27> C 	 31.0837 	 1.19613 	 -113.917
| 28> H 	 29.8286 	 -0.516882 	 -111.263
| 29> C 	 30.9538 	 2.18106 	 -111.518
| 30> H 	 29.9177 	 2.72098 	 -111.541
| 31> H 	 31.749 	 2.92145 	 -111.81
| 32> C 	 31.2579 	 1.74858 	 -110.077
| 33> H 	 30.4203 	 1.07467 	 -109.782
| 34> H 	 31.1938 	 2.67064 	 -109.511
| 35> C 	 32.6205 	 1.04691 	 -109.986
| 36> H 	 33.4093 	 1.80087 	 -110.069
| 37> H 	 32.8274 	 0.199001 	 -110.612
| 38> H 	 32.7498 	 0.830298 	 -108.923
| 39> H 	 33.177 	 4.13055 	 -117.266
| 40> H 	 29.6169 	 -2.02393 	 -113.157
| 41> *
| 42>
| 43>                          ****END OF INPUT****

CARTESIAN COORDINATES (ANGSTROEM)
---------------------------------
  S     32.854200    2.090920  -115.809000
  C     32.598100    3.647110  -116.513000
  C     31.574900    4.347680  -115.865000
  C     30.905100    3.555710  -114.870000
  C     31.571200    2.363790  -114.663000
  H     29.910000    3.778540  -114.322000
  C     30.973500    5.656460  -116.330000
  H     31.705000    6.470110  -116.523000
  H     30.332100    6.005780  -115.549000
  C     30.078800    5.494410  -117.606000
  H     30.609700    5.329420  -118.563000
  H     29.519100    4.602040  -117.390000
  C     29.032100    6.589930  -117.863000
  H     28.171600    6.239350  -118.449000
  H     28.553600    6.887330  -116.890000
  H     29.553900    7.381160  -118.411000
  S     30.579800   -0.308275  -114.799000
  C     30.106900   -1.089970  -113.321000
  C     30.224600   -0.203729  -112.222000
  C     30.830400    1.044060  -112.557000
  C     31.083700    1.196130  -113.917000
  H     29.828600   -0.516882  -111.263000
  C     30.953800    2.181060  -111.518000
  H     29.917700    2.720980  -111.541000
  H     31.749000    2.921450  -111.810000
  C     31.257900    1.748580  -110.077000
  H     30.420300    1.074670  -109.782000
  H     31.193800    2.670640  -109.511000
  C     32.620500    1.046910  -109.986000
  H     33.409300    1.800870  -110.069000
  H     32.827400    0.199001  -110.612000
  H     32.749800    0.830298  -108.923000
  H     33.177000    4.130550  -117.266000
  H     29.616900   -2.023930  -113.157000

 Total Charge           Charge          ....    0
 Multiplicity           Mult            ....    1
 Number of Electrons    NEL             ....  134
 Basis Dimension        Dim             ....  322

ORBITAL ENERGIES
----------------

  NO   OCC          E(Eh)            E(eV)
   0   2.0000     -88.969597     -2420.9858
   1   2.0000     -88.967614     -2420.9319
   2   2.0000     -10.328672      -281.0575
   3   2.0000     -10.328517      -281.0532
   4   2.0000     -10.318156      -280.7713
   5   2.0000     -10.312899      -280.6283
   6   2.0000     -10.304983      -280.4128
   7   2.0000     -10.304453      -280.3984
   8   2.0000     -10.303616      -280.3756
   9   2.0000     -10.299938      -280.2756
  10   2.0000     -10.294867      -280.1376
  11   2.0000     -10.293602      -280.1031
  12   2.0000     -10.288561      -279.9660
  13   2.0000     -10.284532      -279.8563
  14   2.0000     -10.282046      -279.7887
  15   2.0000     -10.274132      -279.5734
  16   2.0000      -8.084613      -219.9935
  17   2.0000      -8.081114      -219.8983
  18   2.0000      -6.043014      -164.4388
  19   2.0000      -6.039704      -164.3487
  20   2.0000      -6.039023      -164.3302
  21   2.0000      -6.035745      -164.2410
  22   2.0000      -6.035522      -164.2349
  23   2.0000      -6.031908      -164.1365
  24   2.0000      -1.004485       -27.3334
  25   2.0000      -0.978605       -26.6292
  26   2.0000      -0.908032       -24.7088
  27   2.0000      -0.905007       -24.6265
  28   2.0000      -0.864912       -23.5354
  29   2.0000      -0.851214       -23.1627
  30   2.0000      -0.841325       -22.8936
  31   2.0000      -0.809998       -22.0412
  32   2.0000      -0.780583       -21.2407
  33   2.0000      -0.770056       -20.9543
  34   2.0000      -0.702316       -19.1110
  35   2.0000      -0.695134       -18.9156
  36   2.0000      -0.690678       -18.7943
  37   2.0000      -0.650868       -17.7110
  38   2.0000      -0.641934       -17.4679
  39   2.0000      -0.613724       -16.7003
  40   2.0000      -0.592011       -16.1094
  41   2.0000      -0.567307       -15.4372
  42   2.0000      -0.564068       -15.3491
  43   2.0000      -0.545820       -14.8525
  44   2.0000      -0.539557       -14.6821
  45   2.0000      -0.519814       -14.1449
  46   2.0000      -0.518272       -14.1029
  47   2.0000      -0.508763       -13.8441
  48   2.0000      -0.501052       -13.6343
  49   2.0000      -0.496285       -13.5046
  50   2.0000      -0.493068       -13.4171
  51   2.0000      -0.474182       -12.9032
  52   2.0000      -0.468721       -12.7546
  53   2.0000      -0.460418       -12.5286
  54   2.0000      -0.459331       -12.4990
  55   2.0000      -0.451511       -12.2863
  56   2.0000      -0.444573       -12.0974
  57   2.0000      -0.432805       -11.7772
  58   2.0000      -0.427552       -11.6343
  59   2.0000      -0.425492       -11.5782
  60   2.0000      -0.417391       -11.3578
  61   2.0000      -0.411843       -11.2068
  62   2.0000      -0.410926       -11.1819
  63   2.0000      -0.344084        -9.3630
  64   2.0000      -0.331367        -9.0170
  65   2.0000      -0.325598        -8.8600
  66   2.0000      -0.294115        -8.0033
  67   0.0000       0.030998         0.8435
  68   0.0000       0.060775         1.6538
  69   0.0000       0.114779         3.1233
  70   0.0000       0.118405         3.2220
  71   0.0000       0.121882         3.3166

MULLIKEN ATOMIC CHARGES
-----------------------
   0 S :    0.126042
   1 C :   -0.093566
   2 C :   -0.107512
   3 C :    0.006435
   4 C :   -0.174155
   5 H :    0.059653
   6 C :    0.078861
   7 H :    0.033865
   8 H :    0.006342
   9 C :   -0.086873
  10 H :    0.034082
  11 H :    0.020200
  12 C :   -0.066214
  13 H :    0.039996
  14 H :    0.030316
  15 H :    0.041035
  16 S :    0.114871
  17 C :   -0.082858
  18 C :   -0.065302
  19 C :   -0.016832
  20 C :   -0.162255
  21 H :    0.020358
  22 C :   -0.001429
  23 H :    0.054640
  24 H :    0.041877
  25 C :   -0.073311
  26 H :    0.031307
  27 H :    0.032836
  28 C :   -0.034968
  29 H :    0.020565
  30 H :    0.057794
  31 H :    0.024375
  32 H :    0.039223
  33 H :    0.050603
Sum of atomic charges:   -0.0000000

LOEWDIN ATOMIC CHARGES
----------------------
   0 S :    0.430099
   1 C :   -0.199091
   2 C :   -0.065751
   3 C :   -0.063473
   4 C :   -0.201809
   5 H :    0.053057
   6 C :   -0.031821
   7 H :    0.031468
   8 H :    0.024430
   9 C :   -0.044104
  10 H :    0.025298
  11 H :    0.020264
  12 C :   -0.071569
  13 H :    0.029423
  14 H :    0.027413
  15 H :    0.025733
  16 S :    0.390266
  17 C :   -0.190030
  18 C :   -0.076052
  19 C :   -0.060118
  20 C :   -0.192514
  21 H :    0.028547
  22 C :   -0.041423
  23 H :    0.040985
  24 H :    0.033320
  25 C :   -0.044944
  26 H :    0.021864
  27 H :    0.028349
  28 C :   -0.066848
  29 H :    0.027933
  30 H :    0.028652
  31 H :    0.028831
  32 H :    0.024859
  33 H :    0.028756

  Mayer bond orders larger than 0.100000
B(  0-S ,  1-C ) :   1.1497 B(  0-S ,  4-C ) :   1.1649 B(  1-C ,  2-C ) :   1.5931
B(  1-C , 32-H ) :   0.9718 B(  2-C ,  3-C ) :   1.2473 B(  2-C ,  6-C ) :   1.0509
B(  3-C ,  4-C ) :   1.5757 B(  3-C ,  5-H ) :   0.9722 B(  4-C , 20-C ) :   1.0280
B(  6-C ,  7-H ) :   0.9384 B(  6-C ,  8-H ) :   0.9358 B(  6-C ,  9-C ) :   1.0528
B(  9-C , 10-H ) :   0.9577 B(  9-C , 11-H ) :   0.9582 B(  9-C , 12-C ) :   1.0841
B( 12-C , 13-H ) :   0.9758 B( 12-C , 14-H ) :   0.9725 B( 12-C , 15-H ) :   0.9784
B( 16-S , 17-C ) :   1.1628 B( 16-S , 20-C ) :   1.1236 B( 17-C , 18-C ) :   1.6061
B( 17-C , 20-C ) :   0.1018 B( 17-C , 33-H ) :   0.9657 B( 18-C , 19-C ) :   1.2404
B( 18-C , 21-H ) :   0.9864 B( 19-C , 20-C ) :   1.6079 B( 19-C , 22-C ) :   1.0327
B( 22-C , 23-H ) :   0.9369 B( 22-C , 24-H ) :   0.9364 B( 22-C , 25-C ) :   1.0773
B( 25-C , 26-H ) :   0.9495 B( 25-C , 27-H ) :   0.9518 B( 25-C , 28-C ) :   1.0786
B( 28-C , 29-H ) :   0.9697 B( 28-C , 30-H ) :   0.9760 B( 28-C , 31-H ) :   0.9705

Dispersion correction           -0.013967182
FINAL SINGLE POINT ENERGY     -1339.876518287862

DIPOLE MOMENT
-------------
                                X             Y             Z
Electronic contribution:      6.75037     -18.02542      -8.20502
Nuclear contribution   :     -7.11812      18.43707       8.46435
                        -----------------------------------------
Total Dipole Moment    :     -0.36775       0.41165       0.25934
                        -----------------------------------------
Magnitude (a.u.)       :      0.60988
Magnitude (Debye)      :      1.55019

Rotational constants in cm-1:     0.021297     0.007149     0.006562
Rotational constants in MHz :   638.464400   214.322246   196.710718

                             ****ORCA TERMINATED NORMALLY****
TOTAL RUN TIME: 0 days 0 hours 0 minutes 20 seconds 66 msec
