                         Program Version 4.2.1 -  RELEASE  -
|  1> ! wB97X-D3 SP def2-SVP
|  2> %pal
|  3> nprocs 24
|  4> end
|  5>
|  6> * xyz 0 1
|  7> S 	 -109.247 	 50.9844 	 -110.253
|  8> C 	 -108.979 	 50.2936 	 -111.795
|  9> C 	 -110.19 	 50.1399 	 -112.447
| 10> C 	 -111.289 	 50.1106 	 -111.514
| 11> C 	 -110.888 	 50.4243 	 -110.214
| 12> H 	 -112.312 	 50.0401 	 -111.672
| 13> C 	 -110.348 	 49.9624 	 -113.921
| 14> H 	 -111.284 	 50.3727 	 -114.23
| 15> H 	 -110.461 	 48.908 	 -114.094
| 16> C 	 -109.258 	 50.3255 	 -114.934
| 17> H 	 -108.324 	 49.7856 	 -114.632
| 18> H 	 -109.482 	 49.9758 	 -116.01
| 19> C 	 -109.05 	 51.8594 	 -115.025
| 20> H 	 -108.046 	 52.1226 	 -115.334
| 21> H 	 -109.823 	 52.2047 	 -115.706
| 22> H 	 -109.119 	 52.38 	 -114.077
| 23> S 	 -111.846 	 51.9008 	 -108.131
| 24> C 	 -113.379 	 51.457 	 -107.392
| 25> C 	 -113.738 	 50.2149 	 -107.81
| 26> C 	 -112.86 	 49.5669 	 -108.732
| 27> C 	 -111.779 	 50.4225 	 -109.051
| 28> H 	 -114.666 	 49.7433 	 -107.418
| 29> C 	 -113.058 	 48.1976 	 -109.341
| 30> H 	 -113.261 	 47.5431 	 -108.561
| 31> H 	 -112.19 	 47.9107 	 -109.884
| 32> C 	 -114.372 	 48.0466 	 -110.216
| 33> H 	 -114.514 	 47.1027 	 -110.747
| 34> H 	 -114.204 	 48.7781 	 -111.004
| 35> C 	 -115.675 	 48.2714 	 -109.419
| 36> H 	 -115.619 	 47.8578 	 -108.445
| 37> H 	 -116.479 	 47.8033 	 -109.95
| 38> H 	 -115.898 	 49.3652 	 -109.327
| 39> H 	 -108.064 	 50.4509 	 -112.4
| 40> H 	 -113.791 	 52.134 	 -106.726
| 41> *
| 42>
| 43>                          ****END OF INPUT****

CARTESIAN COORDINATES (ANGSTROEM)
---------------------------------
  S    -109.247000   50.984400  -110.253000
  C    -108.979000   50.293600  -111.795000
  C    -110.190000   50.139900  -112.447000
  C    -111.289000   50.110600  -111.514000
  C    -110.888000   50.424300  -110.214000
  H    -112.312000   50.040100  -111.672000
  C    -110.348000   49.962400  -113.921000
  H    -111.284000   50.372700  -114.230000
  H    -110.461000   48.908000  -114.094000
  C    -109.258000   50.325500  -114.934000
  H    -108.324000   49.785600  -114.632000
  H    -109.482000   49.975800  -116.010000
  C    -109.050000   51.859400  -115.025000
  H    -108.046000   52.122600  -115.334000
  H    -109.823000   52.204700  -115.706000
  H    -109.119000   52.380000  -114.077000
  S    -111.846000   51.900800  -108.131000
  C    -113.379000   51.457000  -107.392000
  C    -113.738000   50.214900  -107.810000
  C    -112.860000   49.566900  -108.732000
  C    -111.779000   50.422500  -109.051000
  H    -114.666000   49.743300  -107.418000
  C    -113.058000   48.197600  -109.341000
  H    -113.261000   47.543100  -108.561000
  H    -112.190000   47.910700  -109.884000
  C    -114.372000   48.046600  -110.216000
  H    -114.514000   47.102700  -110.747000
  H    -114.204000   48.778100  -111.004000
  C    -115.675000   48.271400  -109.419000
  H    -115.619000   47.857800  -108.445000
  H    -116.479000   47.803300  -109.950000
  H    -115.898000   49.365200  -109.327000
  H    -108.064000   50.450900  -112.400000
  H    -113.791000   52.134000  -106.726000

 Total Charge           Charge          ....    0
 Multiplicity           Mult            ....    1
 Number of Electrons    NEL             ....  134
 Basis Dimension        Dim             ....  322

ORBITAL ENERGIES
----------------

  NO   OCC          E(Eh)            E(eV)
   0   2.0000     -88.963804     -2420.8282
   1   2.0000     -88.961330     -2420.7609
   2   2.0000     -10.329796      -281.0880
   3   2.0000     -10.329483      -281.0795
   4   2.0000     -10.315619      -280.7023
   5   2.0000     -10.309537      -280.5368
   6   2.0000     -10.308306      -280.5033
   7   2.0000     -10.304569      -280.4016
   8   2.0000     -10.299751      -280.2705
   9   2.0000     -10.298269      -280.2301
  10   2.0000     -10.291317      -280.0410
  11   2.0000     -10.289868      -280.0015
  12   2.0000     -10.287038      -279.9245
  13   2.0000     -10.287023      -279.9241
  14   2.0000     -10.278291      -279.6865
  15   2.0000     -10.274753      -279.5903
  16   2.0000      -8.079544      -219.8556
  17   2.0000      -8.076815      -219.7813
  18   2.0000      -6.038030      -164.3031
  19   2.0000      -6.035247      -164.2274
  20   2.0000      -6.034204      -164.1990
  21   2.0000      -6.031166      -164.1164
  22   2.0000      -6.029969      -164.0838
  23   2.0000      -6.027665      -164.0211
  24   2.0000      -1.010641       -27.5009
  25   2.0000      -0.988692       -26.9037
  26   2.0000      -0.913570       -24.8595
  27   2.0000      -0.908565       -24.7233
  28   2.0000      -0.870958       -23.7000
  29   2.0000      -0.851612       -23.1735
  30   2.0000      -0.844987       -22.9933
  31   2.0000      -0.816285       -22.2122
  32   2.0000      -0.787799       -21.4371
  33   2.0000      -0.777108       -21.1462
  34   2.0000      -0.707277       -19.2460
  35   2.0000      -0.702859       -19.1258
  36   2.0000      -0.695243       -18.9185
  37   2.0000      -0.665888       -18.1197
  38   2.0000      -0.640962       -17.4415
  39   2.0000      -0.608646       -16.5621
  40   2.0000      -0.599178       -16.3045
  41   2.0000      -0.578979       -15.7548
  42   2.0000      -0.563607       -15.3365
  43   2.0000      -0.553689       -15.0666
  44   2.0000      -0.546012       -14.8577
  45   2.0000      -0.537585       -14.6284
  46   2.0000      -0.516348       -14.0505
  47   2.0000      -0.511918       -13.9300
  48   2.0000      -0.504700       -13.7336
  49   2.0000      -0.503216       -13.6932
  50   2.0000      -0.489228       -13.3126
  51   2.0000      -0.488653       -13.2969
  52   2.0000      -0.482595       -13.1321
  53   2.0000      -0.466223       -12.6866
  54   2.0000      -0.461672       -12.5627
  55   2.0000      -0.441903       -12.0248
  56   2.0000      -0.440598       -11.9893
  57   2.0000      -0.437017       -11.8919
  58   2.0000      -0.431435       -11.7399
  59   2.0000      -0.428264       -11.6537
  60   2.0000      -0.422909       -11.5079
  61   2.0000      -0.416565       -11.3353
  62   2.0000      -0.413203       -11.2438
  63   2.0000      -0.354136        -9.6365
  64   2.0000      -0.328772        -8.9463
  65   2.0000      -0.321078        -8.7370
  66   2.0000      -0.287707        -7.8289
  67   0.0000       0.023562         0.6411
  68   0.0000       0.069575         1.8932
  69   0.0000       0.101325         2.7572
  70   0.0000       0.122720         3.3394
  71   0.0000       0.133602         3.6355

MULLIKEN ATOMIC CHARGES
-----------------------
   0 S :    0.114734
   1 C :   -0.116482
   2 C :   -0.104662
   3 C :    0.038052
   4 C :   -0.140863
   5 H :   -0.015124
   6 C :    0.093584
   7 H :    0.013657
   8 H :    0.035051
   9 C :   -0.132238
  10 H :    0.035277
  11 H :    0.046861
  12 C :   -0.042778
  13 H :    0.027708
  14 H :    0.036318
  15 H :    0.033365
  16 S :    0.080082
  17 C :   -0.071362
  18 C :   -0.029258
  19 C :   -0.068310
  20 C :   -0.138751
  21 H :    0.029249
  22 C :    0.120460
  23 H :    0.010681
  24 H :    0.032423
  25 C :   -0.089457
  26 H :    0.033965
  27 H :    0.018179
  28 C :   -0.057076
  29 H :    0.026187
  30 H :    0.030576
  31 H :    0.050478
  32 H :    0.061638
  33 H :    0.037835
Sum of atomic charges:    0.0000000

LOEWDIN ATOMIC CHARGES
----------------------
   0 S :    0.421008
   1 C :   -0.222992
   2 C :   -0.054194
   3 C :   -0.056969
   4 C :   -0.193801
   5 H :    0.018335
   6 C :   -0.038688
   7 H :    0.027624
   8 H :    0.038366
   9 C :   -0.047548
  10 H :    0.022190
  11 H :    0.037429
  12 C :   -0.070849
  13 H :    0.024080
  14 H :    0.027670
  15 H :    0.023745
  16 S :    0.398096
  17 C :   -0.164638
  18 C :   -0.073525
  19 C :   -0.053078
  20 C :   -0.195567
  21 H :    0.037950
  22 C :   -0.019886
  23 H :    0.021798
  24 H :    0.030310
  25 C :   -0.036774
  26 H :    0.025254
  27 H :    0.017311
  28 C :   -0.065727
  29 H :    0.016475
  30 H :    0.025206
  31 H :    0.032964
  32 H :    0.033099
  33 H :    0.015326

  Mayer bond orders larger than 0.100000
B(  0-S ,  1-C ) :   1.1386 B(  0-S ,  4-C ) :   1.1633 B(  1-C ,  2-C ) :   1.5990
B(  1-C , 32-H ) :   0.9551 B(  2-C ,  3-C ) :   1.2345 B(  2-C ,  6-C ) :   1.0198
B(  3-C ,  4-C ) :   1.5452 B(  3-C ,  5-H ) :   1.0098 B(  4-C , 20-C ) :   1.0370
B(  6-C ,  7-H ) :   0.9394 B(  6-C ,  8-H ) :   0.9252 B(  6-C ,  9-C ) :   1.0792
B(  9-C , 10-H ) :   0.9525 B(  9-C , 11-H ) :   0.9579 B(  9-C , 12-C ) :   1.0625
B( 12-C , 13-H ) :   0.9764 B( 12-C , 14-H ) :   0.9772 B( 12-C , 15-H ) :   0.9797
B( 16-S , 17-C ) :   1.1534 B( 16-S , 20-C ) :   1.1544 B( 17-C , 18-C ) :   1.5791
B( 17-C , 33-H ) :   0.9871 B( 18-C , 19-C ) :   1.2489 B( 18-C , 21-H ) :   0.9811
B( 19-C , 20-C ) :   1.5718 B( 19-C , 22-C ) :   1.0490 B( 22-C , 23-H ) :   0.9307
B( 22-C , 24-H ) :   0.9353 B( 22-C , 25-C ) :   1.0549 B( 25-C , 26-H ) :   0.9622
B( 25-C , 27-H ) :   0.9566 B( 25-C , 28-C ) :   1.0763 B( 28-C , 29-H ) :   0.9742
B( 28-C , 30-H ) :   0.9711 B( 28-C , 31-H ) :   0.9701

Dispersion correction           -0.014696853
FINAL SINGLE POINT ENERGY     -1339.858889986146

DIPOLE MOMENT
-------------
                                X             Y             Z
Electronic contribution:      9.65706      10.29301      19.80921
Nuclear contribution   :    -10.21756     -10.53493     -20.29670
                        -----------------------------------------
Total Dipole Moment    :     -0.56051      -0.24193      -0.48749
                        -----------------------------------------
Magnitude (a.u.)       :      0.78125
Magnitude (Debye)      :      1.98577

Rotational constants in cm-1:     0.021855     0.007995     0.006406
Rotational constants in MHz :   655.206019   239.672345   192.035083

                             ****ORCA TERMINATED NORMALLY****
TOTAL RUN TIME: 0 days 0 hours 0 minutes 21 seconds 863 msec
