                         Program Version 4.2.1 -  RELEASE  -
|  1> ! wB97X-D3 SP def2-SVP
|  2> %pal
|  3> nprocs 24
|  4> end
|  5>
|  6> * xyz 0 1
|  7> S 	 -71.2969 	 3.90484 	 -70.965
|  8> C 	 -71.4528 	 5.32143 	 -69.8859
|  9> C 	 -72.3206 	 5.06786 	 -68.8201
| 10> C 	 -72.7206 	 3.67615 	 -68.8244
| 11> C 	 -72.5294 	 3.02076 	 -70.0202
| 12> H 	 -73.3263 	 3.09024 	 -68.0959
| 13> C 	 -72.5399 	 5.9981 	 -67.6648
| 14> H 	 -71.6286 	 6.06885 	 -67.1109
| 15> H 	 -73.316 	 5.46972 	 -67.1789
| 16> C 	 -72.9267 	 7.4221 	 -67.9909
| 17> H 	 -72.0654 	 7.9135 	 -68.517
| 18> H 	 -73.7488 	 7.50481 	 -68.731
| 19> C 	 -73.2905 	 8.13284 	 -66.751
| 20> H 	 -74.372 	 7.93724 	 -66.5338
| 21> H 	 -72.7075 	 7.84801 	 -65.9172
| 22> H 	 -73.3515 	 9.17157 	 -66.8864
| 23> S 	 -71.5655 	 0.643647 	 -70.867
| 24> C 	 -72.5915 	 -0.738749 	 -70.9808
| 25> C 	 -73.8887 	 -0.43761 	 -70.7108
| 26> C 	 -74.0766 	 0.884672 	 -70.2775
| 27> C 	 -72.8816 	 1.64766 	 -70.3171
| 28> H 	 -74.6567 	 -1.11109 	 -70.8246
| 29> C 	 -75.426 	 1.34565 	 -69.8458
| 30> H 	 -75.4043 	 2.41251 	 -69.9029
| 31> H 	 -75.5127 	 1.36064 	 -68.7508
| 32> C 	 -76.7665 	 0.744455 	 -70.3549
| 33> H 	 -76.9184 	 -0.269521 	 -70.0396
| 34> H 	 -76.6934 	 0.767515 	 -71.4391
| 35> C 	 -78.0645 	 1.49392 	 -70.0179
| 36> H 	 -78.8926 	 1.12129 	 -70.5546
| 37> H 	 -77.9653 	 2.522 	 -70.2114
| 38> H 	 -78.3977 	 1.34812 	 -68.9877
| 39> H 	 -71.1518 	 6.32776 	 -69.9302
| 40> H 	 -72.0993 	 -1.61982 	 -71.3545
| 41> *
| 42>
| 43>                          ****END OF INPUT****

CARTESIAN COORDINATES (ANGSTROEM)
---------------------------------
  S    -71.296900    3.904840  -70.965000
  C    -71.452800    5.321430  -69.885900
  C    -72.320600    5.067860  -68.820100
  C    -72.720600    3.676150  -68.824400
  C    -72.529400    3.020760  -70.020200
  H    -73.326300    3.090240  -68.095900
  C    -72.539900    5.998100  -67.664800
  H    -71.628600    6.068850  -67.110900
  H    -73.316000    5.469720  -67.178900
  C    -72.926700    7.422100  -67.990900
  H    -72.065400    7.913500  -68.517000
  H    -73.748800    7.504810  -68.731000
  C    -73.290500    8.132840  -66.751000
  H    -74.372000    7.937240  -66.533800
  H    -72.707500    7.848010  -65.917200
  H    -73.351500    9.171570  -66.886400
  S    -71.565500    0.643647  -70.867000
  C    -72.591500   -0.738749  -70.980800
  C    -73.888700   -0.437610  -70.710800
  C    -74.076600    0.884672  -70.277500
  C    -72.881600    1.647660  -70.317100
  H    -74.656700   -1.111090  -70.824600
  C    -75.426000    1.345650  -69.845800
  H    -75.404300    2.412510  -69.902900
  H    -75.512700    1.360640  -68.750800
  C    -76.766500    0.744455  -70.354900
  H    -76.918400   -0.269521  -70.039600
  H    -76.693400    0.767515  -71.439100
  C    -78.064500    1.493920  -70.017900
  H    -78.892600    1.121290  -70.554600
  H    -77.965300    2.522000  -70.211400
  H    -78.397700    1.348120  -68.987700
  H    -71.151800    6.327760  -69.930200
  H    -72.099300   -1.619820  -71.354500

 Total Charge           Charge          ....    0
 Multiplicity           Mult            ....    1
 Number of Electrons    NEL             ....  134
 Basis Dimension        Dim             ....  322

ORBITAL ENERGIES
----------------

  NO   OCC          E(Eh)            E(eV)
   0   2.0000     -88.967372     -2420.9253
   1   2.0000     -88.962141     -2420.7829
   2   2.0000     -10.329995      -281.0934
   3   2.0000     -10.326691      -281.0035
   4   2.0000     -10.313283      -280.6387
   5   2.0000     -10.311357      -280.5863
   6   2.0000     -10.306210      -280.4462
   7   2.0000     -10.300410      -280.2884
   8   2.0000     -10.297068      -280.1975
   9   2.0000     -10.290051      -280.0065
  10   2.0000     -10.289089      -279.9803
  11   2.0000     -10.288513      -279.9647
  12   2.0000     -10.285319      -279.8777
  13   2.0000     -10.284938      -279.8674
  14   2.0000     -10.273781      -279.5638
  15   2.0000     -10.271718      -279.5076
  16   2.0000      -8.080556      -219.8831
  17   2.0000      -8.077896      -219.8107
  18   2.0000      -6.039371      -164.3397
  19   2.0000      -6.036252      -164.2548
  20   2.0000      -6.035384      -164.2312
  21   2.0000      -6.032173      -164.1438
  22   2.0000      -6.030951      -164.1105
  23   2.0000      -6.028855      -164.0535
  24   2.0000      -1.007532       -27.4164
  25   2.0000      -0.981243       -26.7010
  26   2.0000      -0.924327       -25.1522
  27   2.0000      -0.909919       -24.7602
  28   2.0000      -0.874567       -23.7982
  29   2.0000      -0.858752       -23.3678
  30   2.0000      -0.847584       -23.0639
  31   2.0000      -0.817635       -22.2490
  32   2.0000      -0.787152       -21.4195
  33   2.0000      -0.773901       -21.0589
  34   2.0000      -0.714513       -19.4429
  35   2.0000      -0.711224       -19.3534
  36   2.0000      -0.695572       -18.9275
  37   2.0000      -0.661871       -18.0104
  38   2.0000      -0.636081       -17.3086
  39   2.0000      -0.617052       -16.7909
  40   2.0000      -0.607573       -16.5329
  41   2.0000      -0.574766       -15.6402
  42   2.0000      -0.571452       -15.5500
  43   2.0000      -0.568203       -15.4616
  44   2.0000      -0.533335       -14.5128
  45   2.0000      -0.530516       -14.4361
  46   2.0000      -0.520094       -14.1525
  47   2.0000      -0.513890       -13.9837
  48   2.0000      -0.504036       -13.7155
  49   2.0000      -0.500771       -13.6267
  50   2.0000      -0.492838       -13.4108
  51   2.0000      -0.478276       -13.0145
  52   2.0000      -0.475045       -12.9266
  53   2.0000      -0.465262       -12.6604
  54   2.0000      -0.463374       -12.6091
  55   2.0000      -0.459351       -12.4996
  56   2.0000      -0.447694       -12.1824
  57   2.0000      -0.438439       -11.9305
  58   2.0000      -0.430995       -11.7280
  59   2.0000      -0.427135       -11.6229
  60   2.0000      -0.418321       -11.3831
  61   2.0000      -0.417904       -11.3717
  62   2.0000      -0.411338       -11.1931
  63   2.0000      -0.350176        -9.5288
  64   2.0000      -0.329596        -8.9688
  65   2.0000      -0.325620        -8.8606
  66   2.0000      -0.285707        -7.7745
  67   0.0000       0.024176         0.6579
  68   0.0000       0.068020         1.8509
  69   0.0000       0.104742         2.8502
  70   0.0000       0.123420         3.3584
  71   0.0000       0.133871         3.6428

MULLIKEN ATOMIC CHARGES
-----------------------
   0 S :    0.099940
   1 C :   -0.072439
   2 C :   -0.116099
   3 C :    0.000272
   4 C :   -0.139546
   5 H :    0.030629
   6 C :    0.095951
   7 H :    0.045365
   8 H :    0.011639
   9 C :   -0.123787
  10 H :    0.029460
  11 H :    0.032917
  12 C :    0.008377
  13 H :    0.025723
  14 H :    0.025983
  15 H :    0.016799
  16 S :    0.095933
  17 C :   -0.085538
  18 C :    0.007443
  19 C :   -0.016019
  20 C :   -0.168977
  21 H :   -0.014881
  22 C :    0.064455
  23 H :   -0.001890
  24 H :    0.024815
  25 C :   -0.075681
  26 H :    0.031719
  27 H :    0.032642
  28 C :   -0.017111
  29 H :    0.022401
  30 H :    0.025167
  31 H :    0.025017
  32 H :    0.021827
  33 H :    0.057490
Sum of atomic charges:    0.0000000

LOEWDIN ATOMIC CHARGES
----------------------
   0 S :    0.372322
   1 C :   -0.185071
   2 C :   -0.058623
   3 C :   -0.068290
   4 C :   -0.184183
   5 H :    0.036500
   6 C :   -0.028394
   7 H :    0.037207
   8 H :    0.026477
   9 C :   -0.045861
  10 H :    0.022491
  11 H :    0.027646
  12 C :   -0.059875
  13 H :    0.034100
  14 H :    0.020535
  15 H :    0.021165
  16 S :    0.420429
  17 C :   -0.179749
  18 C :   -0.063664
  19 C :   -0.048792
  20 C :   -0.204192
  21 H :    0.019770
  22 C :   -0.046406
  23 H :    0.028417
  24 H :    0.035467
  25 C :   -0.035700
  26 H :    0.020922
  27 H :    0.025325
  28 C :   -0.054624
  29 H :    0.024975
  30 H :    0.019776
  31 H :    0.025278
  32 H :    0.020326
  33 H :    0.024295

  Mayer bond orders larger than 0.100000
B(  0-S ,  1-C ) :   1.1146 B(  0-S ,  4-C ) :   1.1172 B(  1-C ,  2-C ) :   1.6348
B(  1-C , 32-H ) :   0.9684 B(  2-C ,  3-C ) :   1.2113 B(  2-C ,  6-C ) :   1.0149
B(  3-C ,  4-C ) :   1.6065 B(  3-C ,  5-H ) :   0.9765 B(  4-C , 20-C ) :   1.0598
B(  6-C ,  7-H ) :   0.9289 B(  6-C ,  8-H ) :   0.9434 B(  6-C ,  9-C ) :   1.0723
B(  9-C , 10-H ) :   0.9474 B(  9-C , 11-H ) :   0.9584 B(  9-C , 12-C ) :   1.0971
B( 12-C , 13-H ) :   0.9686 B( 12-C , 14-H ) :   0.9704 B( 12-C , 15-H ) :   0.9660
B( 16-S , 17-C ) :   1.1802 B( 16-S , 20-C ) :   1.1569 B( 17-C , 18-C ) :   1.5436
B( 17-C , 20-C ) :   0.1029 B( 17-C , 33-H ) :   0.9731 B( 18-C , 19-C ) :   1.2798
B( 18-C , 21-H ) :   1.0111 B( 19-C , 20-C ) :   1.5457 B( 19-C , 22-C ) :   1.0596
B( 22-C , 23-H ) :   0.9150 B( 22-C , 24-H ) :   0.9164 B( 22-C , 25-C ) :   1.0584
B( 25-C , 26-H ) :   0.9476 B( 25-C , 27-H ) :   0.9598 B( 25-C , 28-C ) :   1.0956
B( 28-C , 29-H ) :   0.9706 B( 28-C , 30-H ) :   0.9752 B( 28-C , 31-H ) :   0.9738

Dispersion correction           -0.013022391
FINAL SINGLE POINT ENERGY     -1339.851296042138

DIPOLE MOMENT
-------------
                                X             Y             Z
Electronic contribution:     23.13650     -13.82819     -14.03591
Nuclear contribution   :    -23.75561      13.96180      14.48308
                        -----------------------------------------
Total Dipole Moment    :     -0.61911       0.13361       0.44717
                        -----------------------------------------
Magnitude (a.u.)       :      0.77531
Magnitude (Debye)      :      1.97068

Rotational constants in cm-1:     0.017467     0.007800     0.005728
Rotational constants in MHz :   523.657302   233.841367   171.733880

                             ****ORCA TERMINATED NORMALLY****
TOTAL RUN TIME: 0 days 0 hours 0 minutes 20 seconds 799 msec
