                         Program Version 4.2.1 -  RELEASE  -
|  1> ! wB97X-D3 SP def2-SVP
|  2> %pal
|  3> nprocs 24
|  4> end
|  5>
|  6> * xyz 0 1
|  7> S 	 -128.275 	 71.0165 	 -65.3263
|  8> C 	 -126.88 	 71.2012 	 -64.2843
|  9> C 	 -127.255 	 71.2064 	 -62.9854
| 10> C 	 -128.635 	 70.9598 	 -62.7235
| 11> C 	 -129.366 	 70.8584 	 -63.8799
| 12> H 	 -129.019 	 70.8115 	 -61.7279
| 13> C 	 -126.244 	 71.4808 	 -61.9279
| 14> H 	 -125.328 	 70.9747 	 -62.1845
| 15> H 	 -126.617 	 71.1095 	 -60.9673
| 16> C 	 -125.953 	 72.9262 	 -61.7447
| 17> H 	 -126.962 	 73.3756 	 -61.4228
| 18> H 	 -125.326 	 72.9536 	 -60.815
| 19> C 	 -125.277 	 73.6313 	 -62.9268
| 20> H 	 -125.145 	 74.6906 	 -62.6553
| 21> H 	 -124.312 	 73.1574 	 -63.1707
| 22> H 	 -125.867 	 73.6701 	 -63.8008
| 23> S 	 -131.582 	 69.3098 	 -63.3528
| 24> C 	 -133.172 	 69.8699 	 -63.8945
| 25> C 	 -133.062 	 71.0831 	 -64.498
| 26> C 	 -131.707 	 71.5985 	 -64.4886
| 27> C 	 -130.794 	 70.7387 	 -63.9398
| 28> H 	 -133.958 	 71.5649 	 -64.732
| 29> C 	 -131.43 	 72.8949 	 -65.1521
| 30> H 	 -132.266 	 73.0348 	 -65.8414
| 31> H 	 -130.597 	 72.7082 	 -65.8488
| 32> C 	 -130.994 	 73.9834 	 -64.2353
| 33> H 	 -130.732 	 74.9014 	 -64.7743
| 34> H 	 -130.047 	 73.7785 	 -63.7506
| 35> C 	 -132.106 	 74.544 	 -63.2276
| 36> H 	 -131.659 	 75.2401 	 -62.5186
| 37> H 	 -132.506 	 73.6989 	 -62.6293
| 38> H 	 -132.923 	 75.0031 	 -63.8076
| 39> H 	 -125.858 	 71.1406 	 -64.63
| 40> H 	 -134.121 	 69.4012 	 -63.7051
| 41> *
| 42>
| 43>                          ****END OF INPUT****

CARTESIAN COORDINATES (ANGSTROEM)
---------------------------------
  S    -128.275000   71.016500  -65.326300
  C    -126.880000   71.201200  -64.284300
  C    -127.255000   71.206400  -62.985400
  C    -128.635000   70.959800  -62.723500
  C    -129.366000   70.858400  -63.879900
  H    -129.019000   70.811500  -61.727900
  C    -126.244000   71.480800  -61.927900
  H    -125.328000   70.974700  -62.184500
  H    -126.617000   71.109500  -60.967300
  C    -125.953000   72.926200  -61.744700
  H    -126.962000   73.375600  -61.422800
  H    -125.326000   72.953600  -60.815000
  C    -125.277000   73.631300  -62.926800
  H    -125.145000   74.690600  -62.655300
  H    -124.312000   73.157400  -63.170700
  H    -125.867000   73.670100  -63.800800
  S    -131.582000   69.309800  -63.352800
  C    -133.172000   69.869900  -63.894500
  C    -133.062000   71.083100  -64.498000
  C    -131.707000   71.598500  -64.488600
  C    -130.794000   70.738700  -63.939800
  H    -133.958000   71.564900  -64.732000
  C    -131.430000   72.894900  -65.152100
  H    -132.266000   73.034800  -65.841400
  H    -130.597000   72.708200  -65.848800
  C    -130.994000   73.983400  -64.235300
  H    -130.732000   74.901400  -64.774300
  H    -130.047000   73.778500  -63.750600
  C    -132.106000   74.544000  -63.227600
  H    -131.659000   75.240100  -62.518600
  H    -132.506000   73.698900  -62.629300
  H    -132.923000   75.003100  -63.807600
  H    -125.858000   71.140600  -64.630000
  H    -134.121000   69.401200  -63.705100

 Total Charge           Charge          ....    0
 Multiplicity           Mult            ....    1
 Number of Electrons    NEL             ....  134
 Basis Dimension        Dim             ....  322

ORBITAL ENERGIES
----------------

  NO   OCC          E(Eh)            E(eV)
   0   2.0000     -88.967104     -2420.9180
   1   2.0000     -88.962783     -2420.8004
   2   2.0000     -10.333562      -281.1905
   3   2.0000     -10.319748      -280.8146
   4   2.0000     -10.314685      -280.6768
   5   2.0000     -10.311527      -280.5909
   6   2.0000     -10.296792      -280.1900
   7   2.0000     -10.296557      -280.1835
   8   2.0000     -10.292909      -280.0843
   9   2.0000     -10.291880      -280.0563
  10   2.0000     -10.286831      -279.9189
  11   2.0000     -10.283281      -279.8223
  12   2.0000     -10.283015      -279.8151
  13   2.0000     -10.282390      -279.7981
  14   2.0000     -10.278537      -279.6932
  15   2.0000     -10.277684      -279.6700
  16   2.0000      -8.080555      -219.8831
  17   2.0000      -8.077542      -219.8011
  18   2.0000      -6.039266      -164.3368
  19   2.0000      -6.036255      -164.2549
  20   2.0000      -6.035243      -164.2273
  21   2.0000      -6.031940      -164.1374
  22   2.0000      -6.031176      -164.1167
  23   2.0000      -6.028193      -164.0355
  24   2.0000      -1.007694       -27.4207
  25   2.0000      -0.986058       -26.8320
  26   2.0000      -0.919376       -25.0175
  27   2.0000      -0.907697       -24.6997
  28   2.0000      -0.875142       -23.8138
  29   2.0000      -0.847189       -23.0532
  30   2.0000      -0.838874       -22.8269
  31   2.0000      -0.819570       -22.3016
  32   2.0000      -0.786144       -21.3921
  33   2.0000      -0.773263       -21.0416
  34   2.0000      -0.716976       -19.5099
  35   2.0000      -0.692327       -18.8392
  36   2.0000      -0.688912       -18.7463
  37   2.0000      -0.665990       -18.1225
  38   2.0000      -0.642302       -17.4779
  39   2.0000      -0.620746       -16.8914
  40   2.0000      -0.586424       -15.9574
  41   2.0000      -0.573849       -15.6152
  42   2.0000      -0.555089       -15.1047
  43   2.0000      -0.550417       -14.9776
  44   2.0000      -0.547451       -14.8969
  45   2.0000      -0.541513       -14.7353
  46   2.0000      -0.520149       -14.1540
  47   2.0000      -0.516172       -14.0458
  48   2.0000      -0.509014       -13.8510
  49   2.0000      -0.495238       -13.4761
  50   2.0000      -0.485695       -13.2164
  51   2.0000      -0.480090       -13.0639
  52   2.0000      -0.469884       -12.7862
  53   2.0000      -0.466298       -12.6886
  54   2.0000      -0.460870       -12.5409
  55   2.0000      -0.449105       -12.2208
  56   2.0000      -0.444521       -12.0960
  57   2.0000      -0.434440       -11.8217
  58   2.0000      -0.433387       -11.7931
  59   2.0000      -0.424378       -11.5479
  60   2.0000      -0.413979       -11.2649
  61   2.0000      -0.409488       -11.1427
  62   2.0000      -0.400883       -10.9086
  63   2.0000      -0.346047        -9.4164
  64   2.0000      -0.333100        -9.0641
  65   2.0000      -0.325432        -8.8554
  66   2.0000      -0.298277        -8.1165
  67   0.0000       0.033979         0.9246
  68   0.0000       0.062243         1.6937
  69   0.0000       0.109617         2.9828
  70   0.0000       0.117804         3.2056
  71   0.0000       0.126207         3.4343

MULLIKEN ATOMIC CHARGES
-----------------------
   0 S :    0.102041
   1 C :   -0.128967
   2 C :   -0.095293
   3 C :    0.043753
   4 C :   -0.149849
   5 H :    0.016136
   6 C :    0.084981
   7 H :    0.014861
   8 H :    0.012349
   9 C :   -0.097463
  10 H :    0.028088
  11 H :    0.036168
  12 C :   -0.029302
  13 H :    0.037676
  14 H :    0.028858
  15 H :    0.036176
  16 S :    0.103136
  17 C :   -0.090646
  18 C :   -0.015398
  19 C :   -0.065509
  20 C :   -0.152487
  21 H :    0.001781
  22 C :    0.108116
  23 H :    0.016348
  24 H :    0.020209
  25 C :   -0.062208
  26 H :    0.021747
  27 H :    0.032136
  28 C :   -0.075695
  29 H :    0.037133
  30 H :    0.039554
  31 H :    0.036857
  32 H :    0.052896
  33 H :    0.051815
Sum of atomic charges:   -0.0000000

LOEWDIN ATOMIC CHARGES
----------------------
   0 S :    0.377873
   1 C :   -0.190388
   2 C :   -0.068444
   3 C :   -0.050044
   4 C :   -0.167322
   5 H :    0.034434
   6 C :   -0.036014
   7 H :    0.024841
   8 H :    0.028819
   9 C :   -0.045429
  10 H :    0.029202
  11 H :    0.028404
  12 C :   -0.066004
  13 H :    0.033052
  14 H :    0.026980
  15 H :    0.019762
  16 S :    0.400523
  17 C :   -0.172589
  18 C :   -0.067817
  19 C :   -0.054973
  20 C :   -0.208597
  21 H :    0.023772
  22 C :   -0.041044
  23 H :    0.031697
  24 H :    0.031879
  25 C :   -0.040904
  26 H :    0.025127
  27 H :    0.026045
  28 C :   -0.069001
  29 H :    0.025101
  30 H :    0.024746
  31 H :    0.025244
  32 H :    0.031338
  33 H :    0.029733

  Mayer bond orders larger than 0.100000
B(  0-S ,  1-C ) :   1.1176 B(  0-S ,  4-C ) :   1.1262 B(  1-C ,  2-C ) :   1.6361
B(  1-C , 32-H ) :   0.9636 B(  2-C ,  3-C ) :   1.2360 B(  2-C ,  6-C ) :   1.0305
B(  3-C ,  4-C ) :   1.5789 B(  3-C ,  5-H ) :   0.9967 B(  4-C , 20-C ) :   1.0472
B(  6-C ,  7-H ) :   0.9350 B(  6-C ,  8-H ) :   0.9344 B(  6-C ,  9-C ) :   1.0824
B(  9-C , 10-H ) :   0.9476 B(  9-C , 11-H ) :   0.9547 B(  9-C , 12-C ) :   1.0820
B( 12-C , 13-H ) :   0.9698 B( 12-C , 14-H ) :   0.9712 B( 12-C , 15-H ) :   0.9667
B( 16-S , 17-C ) :   1.1421 B( 16-S , 20-C ) :   1.1286 B( 17-C , 18-C ) :   1.6390
B( 17-C , 33-H ) :   0.9663 B( 18-C , 19-C ) :   1.2137 B( 18-C , 21-H ) :   0.9967
B( 19-C , 20-C ) :   1.6042 B( 19-C , 22-C ) :   1.0426 B( 22-C , 23-H ) :   0.9374
B( 22-C , 24-H ) :   0.9163 B( 22-C , 25-C ) :   1.0735 B( 25-C , 26-H ) :   0.9527
B( 25-C , 27-H ) :   0.9547 B( 25-C , 28-C ) :   1.0617 B( 28-C , 29-H ) :   0.9769
B( 28-C , 30-H ) :   0.9797 B( 28-C , 31-H ) :   0.9776

Dispersion correction           -0.015665439
FINAL SINGLE POINT ENERGY     -1339.883983745699

DIPOLE MOMENT
-------------
                                X             Y             Z
Electronic contribution:     -8.37899     -21.70282      -7.64731
Nuclear contribution   :      8.52235      22.09112       7.89703
                        -----------------------------------------
Total Dipole Moment    :      0.14336       0.38831       0.24972
                        -----------------------------------------
Magnitude (a.u.)       :      0.48342
Magnitude (Debye)      :      1.22875

Rotational constants in cm-1:     0.021513     0.008820     0.007634
Rotational constants in MHz :   644.941273   264.424002   228.862538

                             ****ORCA TERMINATED NORMALLY****
TOTAL RUN TIME: 0 days 0 hours 0 minutes 21 seconds 523 msec
