                         Program Version 4.2.1 -  RELEASE  -
|  1> ! wB97X-D3 SP def2-SVP
|  2> %pal
|  3> nprocs 24
|  4> end
|  5>
|  6> * xyz 0 1
|  7> S 	 -90.5183 	 -35.5512 	 -58.3397
|  8> C 	 -90.5883 	 -37.0034 	 -57.25
|  9> C 	 -91.0483 	 -36.6235 	 -55.9478
| 10> C 	 -91.3538 	 -35.249 	 -55.8365
| 11> C 	 -91.2438 	 -34.5695 	 -57.0299
| 12> H 	 -91.6256 	 -34.6593 	 -54.986
| 13> C 	 -91.1293 	 -37.5749 	 -54.7764
| 14> H 	 -90.559 	 -37.0663 	 -53.8859
| 15> H 	 -90.6961 	 -38.5146 	 -54.9798
| 16> C 	 -92.6224 	 -37.8913 	 -54.2677
| 17> H 	 -92.9473 	 -37.042 	 -53.6886
| 18> H 	 -93.2897 	 -38.1083 	 -55.0355
| 19> C 	 -92.7081 	 -39.1785 	 -53.3998
| 20> H 	 -91.9865 	 -39.1859 	 -52.5191
| 21> H 	 -93.703 	 -39.2896 	 -52.9386
| 22> H 	 -92.6909 	 -40.1494 	 -53.9344
| 23> S 	 -90.2005 	 -32.1263 	 -56.8016
| 24> C 	 -91.2949 	 -30.7442 	 -56.8028
| 25> C 	 -92.5957 	 -31.0997 	 -57.0976
| 26> C 	 -92.724 	 -32.5134 	 -57.2208
| 27> C 	 -91.479 	 -33.2035 	 -57.1277
| 28> H 	 -93.4827 	 -30.4217 	 -57.1912
| 29> C 	 -94.0493 	 -33.2523 	 -57.2615
| 30> H 	 -94.0207 	 -34.1945 	 -57.7473
| 31> H 	 -94.5283 	 -32.6133 	 -58.0033
| 32> C 	 -94.6819 	 -33.5103 	 -55.8494
| 33> H 	 -94.7142 	 -32.5252 	 -55.4047
| 34> H 	 -94.0732 	 -34.2059 	 -55.3056
| 35> C 	 -96.0479 	 -34.1169 	 -55.9376
| 36> H 	 -96.0127 	 -35.0747 	 -56.4498
| 37> H 	 -96.751 	 -33.535 	 -56.5701
| 38> H 	 -96.3943 	 -34.3789 	 -54.8989
| 39> H 	 -90.093 	 -37.9443 	 -57.503
| 40> H 	 -91.1259 	 -29.7622 	 -56.3638
| 41> *
| 42>
| 43>                          ****END OF INPUT****

CARTESIAN COORDINATES (ANGSTROEM)
---------------------------------
  S    -90.518300  -35.551200  -58.339700
  C    -90.588300  -37.003400  -57.250000
  C    -91.048300  -36.623500  -55.947800
  C    -91.353800  -35.249000  -55.836500
  C    -91.243800  -34.569500  -57.029900
  H    -91.625600  -34.659300  -54.986000
  C    -91.129300  -37.574900  -54.776400
  H    -90.559000  -37.066300  -53.885900
  H    -90.696100  -38.514600  -54.979800
  C    -92.622400  -37.891300  -54.267700
  H    -92.947300  -37.042000  -53.688600
  H    -93.289700  -38.108300  -55.035500
  C    -92.708100  -39.178500  -53.399800
  H    -91.986500  -39.185900  -52.519100
  H    -93.703000  -39.289600  -52.938600
  H    -92.690900  -40.149400  -53.934400
  S    -90.200500  -32.126300  -56.801600
  C    -91.294900  -30.744200  -56.802800
  C    -92.595700  -31.099700  -57.097600
  C    -92.724000  -32.513400  -57.220800
  C    -91.479000  -33.203500  -57.127700
  H    -93.482700  -30.421700  -57.191200
  C    -94.049300  -33.252300  -57.261500
  H    -94.020700  -34.194500  -57.747300
  H    -94.528300  -32.613300  -58.003300
  C    -94.681900  -33.510300  -55.849400
  H    -94.714200  -32.525200  -55.404700
  H    -94.073200  -34.205900  -55.305600
  C    -96.047900  -34.116900  -55.937600
  H    -96.012700  -35.074700  -56.449800
  H    -96.751000  -33.535000  -56.570100
  H    -96.394300  -34.378900  -54.898900
  H    -90.093000  -37.944300  -57.503000
  H    -91.125900  -29.762200  -56.363800

 Total Charge           Charge          ....    0
 Multiplicity           Mult            ....    1
 Number of Electrons    NEL             ....  134
 Basis Dimension        Dim             ....  322

ORBITAL ENERGIES
----------------

  NO   OCC          E(Eh)            E(eV)
   0   2.0000     -88.967918     -2420.9401
   1   2.0000     -88.967876     -2420.9390
   2   2.0000     -10.324896      -280.9547
   3   2.0000     -10.324387      -280.9409
   4   2.0000     -10.318419      -280.7784
   5   2.0000     -10.314116      -280.6614
   6   2.0000     -10.309449      -280.5344
   7   2.0000     -10.302118      -280.3349
   8   2.0000     -10.301900      -280.3290
   9   2.0000     -10.298994      -280.2499
  10   2.0000     -10.293210      -280.0925
  11   2.0000     -10.289507      -279.9917
  12   2.0000     -10.287855      -279.9468
  13   2.0000     -10.284581      -279.8577
  14   2.0000     -10.284241      -279.8484
  15   2.0000     -10.279816      -279.7280
  16   2.0000      -8.083044      -219.9508
  17   2.0000      -8.080847      -219.8910
  18   2.0000      -6.041473      -164.3968
  19   2.0000      -6.039367      -164.3395
  20   2.0000      -6.037388      -164.2857
  21   2.0000      -6.035695      -164.2396
  22   2.0000      -6.033963      -164.1925
  23   2.0000      -6.031610      -164.1285
  24   2.0000      -1.007732       -27.4218
  25   2.0000      -0.975229       -26.5373
  26   2.0000      -0.908693       -24.7268
  27   2.0000      -0.903272       -24.5793
  28   2.0000      -0.872537       -23.7429
  29   2.0000      -0.852528       -23.1985
  30   2.0000      -0.847506       -23.0618
  31   2.0000      -0.813334       -22.1320
  32   2.0000      -0.778562       -21.1857
  33   2.0000      -0.760306       -20.6890
  34   2.0000      -0.709142       -19.2967
  35   2.0000      -0.700385       -19.0584
  36   2.0000      -0.694790       -18.9062
  37   2.0000      -0.659717       -17.9518
  38   2.0000      -0.646112       -17.5816
  39   2.0000      -0.617334       -16.7985
  40   2.0000      -0.593831       -16.1590
  41   2.0000      -0.569380       -15.4936
  42   2.0000      -0.566322       -15.4104
  43   2.0000      -0.554482       -15.0882
  44   2.0000      -0.530086       -14.4244
  45   2.0000      -0.520498       -14.1635
  46   2.0000      -0.514580       -14.0024
  47   2.0000      -0.508931       -13.8487
  48   2.0000      -0.504668       -13.7327
  49   2.0000      -0.497103       -13.5269
  50   2.0000      -0.491866       -13.3844
  51   2.0000      -0.475656       -12.9433
  52   2.0000      -0.470143       -12.7932
  53   2.0000      -0.458620       -12.4797
  54   2.0000      -0.458076       -12.4649
  55   2.0000      -0.448502       -12.2044
  56   2.0000      -0.443829       -12.0772
  57   2.0000      -0.441694       -12.0191
  58   2.0000      -0.438327       -11.9275
  59   2.0000      -0.429228       -11.6799
  60   2.0000      -0.424482       -11.5507
  61   2.0000      -0.415036       -11.2937
  62   2.0000      -0.403377       -10.9765
  63   2.0000      -0.343158        -9.3378
  64   2.0000      -0.330286        -8.9875
  65   2.0000      -0.310201        -8.4410
  66   2.0000      -0.301953        -8.2166
  67   0.0000       0.037486         1.0200
  68   0.0000       0.045247         1.2312
  69   0.0000       0.104507         2.8438
  70   0.0000       0.120816         3.2876
  71   0.0000       0.124206         3.3798

MULLIKEN ATOMIC CHARGES
-----------------------
   0 S :    0.102283
   1 C :   -0.131451
   2 C :   -0.057906
   3 C :    0.042233
   4 C :   -0.170538
   5 H :    0.020195
   6 C :    0.043718
   7 H :    0.053675
   8 H :    0.008568
   9 C :   -0.035754
  10 H :    0.032502
  11 H :    0.025514
  12 C :   -0.107046
  13 H :    0.040529
  14 H :    0.029101
  15 H :    0.039615
  16 S :    0.133188
  17 C :   -0.095984
  18 C :   -0.049190
  19 C :   -0.051390
  20 C :   -0.192895
  21 H :    0.038319
  22 C :    0.057331
  23 H :    0.012102
  24 H :    0.022095
  25 C :   -0.033432
  26 H :    0.024390
  27 H :    0.023592
  28 C :   -0.043642
  29 H :    0.020062
  30 H :    0.033516
  31 H :    0.041478
  32 H :    0.061640
  33 H :    0.063583
Sum of atomic charges:   -0.0000000

LOEWDIN ATOMIC CHARGES
----------------------
   0 S :    0.366302
   1 C :   -0.186959
   2 C :   -0.058142
   3 C :   -0.052459
   4 C :   -0.185737
   5 H :    0.032831
   6 C :   -0.030447
   7 H :    0.046039
   8 H :    0.019168
   9 C :   -0.029993
  10 H :    0.021930
  11 H :    0.018662
  12 C :   -0.081971
  13 H :    0.028452
  14 H :    0.028030
  15 H :    0.027886
  16 S :    0.434991
  17 C :   -0.192246
  18 C :   -0.076280
  19 C :   -0.049776
  20 C :   -0.233471
  21 H :    0.041872
  22 C :   -0.035652
  23 H :    0.023629
  24 H :    0.031990
  25 C :   -0.031210
  26 H :    0.021970
  27 H :    0.023540
  28 C :   -0.070403
  29 H :    0.022995
  30 H :    0.027414
  31 H :    0.032965
  32 H :    0.030044
  33 H :    0.034036

  Mayer bond orders larger than 0.100000
B(  0-S ,  1-C ) :   1.1261 B(  0-S ,  4-C ) :   1.1281 B(  1-C ,  2-C ) :   1.5941
B(  1-C ,  4-C ) :   0.1075 B(  1-C , 32-H ) :   0.9669 B(  2-C ,  3-C ) :   1.2155
B(  2-C ,  6-C ) :   1.0446 B(  3-C ,  4-C ) :   1.5951 B(  3-C ,  5-H ) :   0.9905
B(  4-C , 20-C ) :   1.0610 B(  6-C ,  7-H ) :   0.9401 B(  6-C ,  8-H ) :   0.9455
B(  6-C ,  9-C ) :   1.0444 B(  9-C , 10-H ) :   0.9581 B(  9-C , 11-H ) :   0.9596
B(  9-C , 12-C ) :   1.0851 B( 12-C , 13-H ) :   0.9752 B( 12-C , 14-H ) :   0.9726
B( 12-C , 15-H ) :   0.9753 B( 16-S , 17-C ) :   1.1666 B( 16-S , 20-C ) :   1.1611
B( 17-C , 18-C ) :   1.5818 B( 17-C , 20-C ) :   0.1023 B( 17-C , 33-H ) :   0.9616
B( 18-C , 19-C ) :   1.2881 B( 18-C , 21-H ) :   0.9773 B( 19-C , 20-C ) :   1.5473
B( 19-C , 22-C ) :   1.0439 B( 22-C , 23-H ) :   0.9264 B( 22-C , 24-H ) :   0.9379
B( 22-C , 25-C ) :   1.0531 B( 25-C , 26-H ) :   0.9572 B( 25-C , 27-H ) :   0.9465
B( 25-C , 28-C ) :   1.0979 B( 28-C , 29-H ) :   0.9683 B( 28-C , 30-H ) :   0.9734
B( 28-C , 31-H ) :   0.9705

Dispersion correction           -0.014751482
FINAL SINGLE POINT ENERGY     -1339.853467131230

DIPOLE MOMENT
-------------
                                X             Y             Z
Electronic contribution:     21.96342      15.24417     -16.97372
Nuclear contribution   :    -22.42491     -15.41952      17.53825
                        -----------------------------------------
Total Dipole Moment    :     -0.46149      -0.17535       0.56453
                        -----------------------------------------
Magnitude (a.u.)       :      0.74995
Magnitude (Debye)      :      1.90621

Rotational constants in cm-1:     0.017298     0.009232     0.007114
Rotational constants in MHz :   518.574874   276.759721   213.262582

                             ****ORCA TERMINATED NORMALLY****
TOTAL RUN TIME: 0 days 0 hours 0 minutes 23 seconds 161 msec
