                         Program Version 4.2.1 -  RELEASE  -
|  1> ! wB97X-D3 SP def2-SVP
|  2> %pal
|  3> nprocs 24
|  4> end
|  5>
|  6> * xyz 0 1
|  7> S 	 -37.0944 	 -47.9568 	 -71.3343
|  8> C 	 -38.3364 	 -46.7326 	 -71.4812
|  9> C 	 -39.4557 	 -47.1821 	 -72.1535
| 10> C 	 -39.363 	 -48.5889 	 -72.4664
| 11> C 	 -38.0834 	 -49.1219 	 -72.1683
| 12> H 	 -40.0459 	 -49.1496 	 -73.0626
| 13> C 	 -40.7136 	 -46.3984 	 -72.5358
| 14> H 	 -40.5119 	 -45.3537 	 -72.2325
| 15> H 	 -41.456 	 -46.792 	 -71.8568
| 16> C 	 -41.2816 	 -46.6239 	 -73.9109
| 17> H 	 -41.4897 	 -47.6776 	 -74.1307
| 18> H 	 -42.2028 	 -46.0405 	 -73.938
| 19> C 	 -40.2973 	 -46.0054 	 -75.0492
| 20> H 	 -40.7145 	 -46.0515 	 -76.0168
| 21> H 	 -40.252 	 -44.9534 	 -74.8172
| 22> H 	 -39.2873 	 -46.3388 	 -75.0735
| 23> S 	 -38.6606 	 -51.499 	 -73.4119
| 24> C 	 -37.435 	 -52.7542 	 -73.3728
| 25> C 	 -36.2328 	 -52.3774 	 -72.8063
| 26> C 	 -36.2833 	 -51.0052 	 -72.3716
| 27> C 	 -37.539 	 -50.4 	 -72.6051
| 28> H 	 -35.4216 	 -53.0554 	 -72.7834
| 29> C 	 -35.053 	 -50.2168 	 -71.9324
| 30> H 	 -34.3835 	 -51.0367 	 -71.7062
| 31> H 	 -35.3172 	 -49.7497 	 -70.9632
| 32> C 	 -34.463 	 -49.2839 	 -72.9589
| 33> H 	 -33.8532 	 -48.5737 	 -72.4185
| 34> H 	 -35.1582 	 -48.6303 	 -73.4972
| 35> C 	 -33.7757 	 -50.0399 	 -74.1188
| 36> H 	 -34.4362 	 -50.6213 	 -74.7739
| 37> H 	 -32.9553 	 -50.7233 	 -73.6886
| 38> H 	 -33.2079 	 -49.3806 	 -74.699
| 39> H 	 -38.2209 	 -45.7179 	 -71.3283
| 40> H 	 -37.5267 	 -53.7502 	 -73.8929
| 41> *
| 42>
| 43>                          ****END OF INPUT****

CARTESIAN COORDINATES (ANGSTROEM)
---------------------------------
  S    -37.094400  -47.956800  -71.334300
  C    -38.336400  -46.732600  -71.481200
  C    -39.455700  -47.182100  -72.153500
  C    -39.363000  -48.588900  -72.466400
  C    -38.083400  -49.121900  -72.168300
  H    -40.045900  -49.149600  -73.062600
  C    -40.713600  -46.398400  -72.535800
  H    -40.511900  -45.353700  -72.232500
  H    -41.456000  -46.792000  -71.856800
  C    -41.281600  -46.623900  -73.910900
  H    -41.489700  -47.677600  -74.130700
  H    -42.202800  -46.040500  -73.938000
  C    -40.297300  -46.005400  -75.049200
  H    -40.714500  -46.051500  -76.016800
  H    -40.252000  -44.953400  -74.817200
  H    -39.287300  -46.338800  -75.073500
  S    -38.660600  -51.499000  -73.411900
  C    -37.435000  -52.754200  -73.372800
  C    -36.232800  -52.377400  -72.806300
  C    -36.283300  -51.005200  -72.371600
  C    -37.539000  -50.400000  -72.605100
  H    -35.421600  -53.055400  -72.783400
  C    -35.053000  -50.216800  -71.932400
  H    -34.383500  -51.036700  -71.706200
  H    -35.317200  -49.749700  -70.963200
  C    -34.463000  -49.283900  -72.958900
  H    -33.853200  -48.573700  -72.418500
  H    -35.158200  -48.630300  -73.497200
  C    -33.775700  -50.039900  -74.118800
  H    -34.436200  -50.621300  -74.773900
  H    -32.955300  -50.723300  -73.688600
  H    -33.207900  -49.380600  -74.699000
  H    -38.220900  -45.717900  -71.328300
  H    -37.526700  -53.750200  -73.892900

 Total Charge           Charge          ....    0
 Multiplicity           Mult            ....    1
 Number of Electrons    NEL             ....  134
 Basis Dimension        Dim             ....  322

ORBITAL ENERGIES
----------------

  NO   OCC          E(Eh)            E(eV)
   0   2.0000     -88.969311     -2420.9780
   1   2.0000     -88.968074     -2420.9444
   2   2.0000     -10.333663      -281.1933
   3   2.0000     -10.329106      -281.0693
   4   2.0000     -10.322281      -280.8836
   5   2.0000     -10.306367      -280.4505
   6   2.0000     -10.303275      -280.3664
   7   2.0000     -10.301464      -280.3171
   8   2.0000     -10.295683      -280.1598
   9   2.0000     -10.295349      -280.1507
  10   2.0000     -10.293255      -280.0937
  11   2.0000     -10.291870      -280.0560
  12   2.0000     -10.291159      -280.0367
  13   2.0000     -10.284443      -279.8539
  14   2.0000     -10.277852      -279.6746
  15   2.0000     -10.271233      -279.4944
  16   2.0000      -8.083404      -219.9606
  17   2.0000      -8.081982      -219.9219
  18   2.0000      -6.041980      -164.4106
  19   2.0000      -6.040647      -164.3744
  20   2.0000      -6.038076      -164.3044
  21   2.0000      -6.036507      -164.2617
  22   2.0000      -6.034117      -164.1967
  23   2.0000      -6.032731      -164.1590
  24   2.0000      -1.003411       -27.3042
  25   2.0000      -0.979452       -26.6522
  26   2.0000      -0.912430       -24.8285
  27   2.0000      -0.908651       -24.7257
  28   2.0000      -0.868117       -23.6227
  29   2.0000      -0.849362       -23.1123
  30   2.0000      -0.837703       -22.7951
  31   2.0000      -0.810924       -22.0664
  32   2.0000      -0.785814       -21.3831
  33   2.0000      -0.774670       -21.0798
  34   2.0000      -0.714980       -19.4556
  35   2.0000      -0.701659       -19.0931
  36   2.0000      -0.689239       -18.7552
  37   2.0000      -0.666753       -18.1433
  38   2.0000      -0.632208       -17.2033
  39   2.0000      -0.616351       -16.7718
  40   2.0000      -0.589430       -16.0392
  41   2.0000      -0.566232       -15.4080
  42   2.0000      -0.560091       -15.2408
  43   2.0000      -0.550556       -14.9814
  44   2.0000      -0.541231       -14.7277
  45   2.0000      -0.534645       -14.5484
  46   2.0000      -0.519100       -14.1254
  47   2.0000      -0.513338       -13.9686
  48   2.0000      -0.498511       -13.5652
  49   2.0000      -0.492455       -13.4004
  50   2.0000      -0.484950       -13.1962
  51   2.0000      -0.476829       -12.9752
  52   2.0000      -0.476211       -12.9583
  53   2.0000      -0.463105       -12.6017
  54   2.0000      -0.460432       -12.5290
  55   2.0000      -0.452368       -12.3095
  56   2.0000      -0.444986       -12.1087
  57   2.0000      -0.443488       -12.0679
  58   2.0000      -0.429735       -11.6937
  59   2.0000      -0.427958       -11.6453
  60   2.0000      -0.420507       -11.4426
  61   2.0000      -0.413543       -11.2531
  62   2.0000      -0.404717       -11.0129
  63   2.0000      -0.361509        -9.8372
  64   2.0000      -0.334318        -9.0973
  65   2.0000      -0.327678        -8.9166
  66   2.0000      -0.274565        -7.4713
  67   0.0000       0.014975         0.4075
  68   0.0000       0.088629         2.4117
  69   0.0000       0.107352         2.9212
  70   0.0000       0.122709         3.3391
  71   0.0000       0.128317         3.4917

MULLIKEN ATOMIC CHARGES
-----------------------
   0 S :    0.081905
   1 C :   -0.071438
   2 C :   -0.112411
   3 C :   -0.008349
   4 C :   -0.101104
   5 H :    0.007595
   6 C :    0.072108
   7 H :    0.020783
   8 H :    0.041120
   9 C :   -0.081164
  10 H :    0.043759
  11 H :    0.037449
  12 C :   -0.043296
  13 H :    0.025847
  14 H :    0.014594
  15 H :    0.042417
  16 S :    0.090978
  17 C :   -0.102983
  18 C :   -0.010136
  19 C :   -0.111794
  20 C :   -0.108989
  21 H :    0.006563
  22 C :    0.046608
  23 H :    0.013931
  24 H :    0.050492
  25 C :   -0.030248
  26 H :    0.025062
  27 H :    0.039104
  28 C :   -0.059715
  29 H :    0.054514
  30 H :    0.022374
  31 H :    0.018634
  32 H :    0.012932
  33 H :    0.072858
Sum of atomic charges:   -0.0000000

LOEWDIN ATOMIC CHARGES
----------------------
   0 S :    0.432374
   1 C :   -0.205793
   2 C :   -0.050190
   3 C :   -0.078564
   4 C :   -0.179202
   5 H :    0.015879
   6 C :   -0.034464
   7 H :    0.031102
   8 H :    0.038210
   9 C :   -0.032652
  10 H :    0.024634
  11 H :    0.030234
  12 C :   -0.062132
  13 H :    0.018458
  14 H :    0.022837
  15 H :    0.023554
  16 S :    0.400874
  17 C :   -0.188366
  18 C :   -0.068436
  19 C :   -0.055790
  20 C :   -0.190770
  21 H :    0.028175
  22 C :   -0.045039
  23 H :    0.030140
  24 H :    0.023996
  25 C :   -0.044666
  26 H :    0.025880
  27 H :    0.025944
  28 C :   -0.063452
  29 H :    0.030393
  30 H :    0.027252
  31 H :    0.017293
  32 H :    0.012028
  33 H :    0.040261

  Mayer bond orders larger than 0.100000
B(  0-S ,  1-C ) :   1.1145 B(  0-S ,  4-C ) :   1.1537 B(  1-C ,  2-C ) :   1.6386
B(  1-C , 32-H ) :   0.9649 B(  2-C ,  3-C ) :   1.2437 B(  2-C ,  6-C ) :   1.0149
B(  3-C ,  4-C ) :   1.5429 B(  3-C ,  5-H ) :   0.9794 B(  4-C , 20-C ) :   1.1173
B(  6-C ,  7-H ) :   0.9430 B(  6-C ,  8-H ) :   0.9302 B(  6-C ,  9-C ) :   1.0815
B(  9-C , 10-H ) :   0.9537 B(  9-C , 11-H ) :   0.9537 B(  9-C , 12-C ) :   1.0582
B( 12-C , 13-H ) :   0.9794 B( 12-C , 14-H ) :   0.9758 B( 12-C , 15-H ) :   0.9817
B( 16-S , 17-C ) :   1.1538 B( 16-S , 20-C ) :   1.1281 B( 17-C , 18-C ) :   1.6198
B( 17-C , 33-H ) :   0.9544 B( 18-C , 19-C ) :   1.2470 B( 18-C , 21-H ) :   0.9949
B( 19-C , 20-C ) :   1.5462 B( 19-C , 22-C ) :   1.0334 B( 22-C , 23-H ) :   0.9305
B( 22-C , 24-H ) :   0.9235 B( 22-C , 25-C ) :   1.0596 B( 25-C , 26-H ) :   0.9533
B( 25-C , 27-H ) :   0.9557 B( 25-C , 28-C ) :   1.0690 B( 28-C , 29-H ) :   0.9762
B( 28-C , 30-H ) :   0.9742 B( 28-C , 31-H ) :   0.9727

Dispersion correction           -0.014968744
FINAL SINGLE POINT ENERGY     -1339.873481442873

DIPOLE MOMENT
-------------
                                X             Y             Z
Electronic contribution:     -2.97773     -10.94007      10.06443
Nuclear contribution   :      3.06853      11.08348     -10.39562
                        -----------------------------------------
Total Dipole Moment    :      0.09080       0.14341      -0.33119
                        -----------------------------------------
Magnitude (a.u.)       :      0.37215
Magnitude (Debye)      :      0.94593

Rotational constants in cm-1:     0.020837     0.008904     0.007519
Rotational constants in MHz :   624.676237   266.942906   225.428679

                             ****ORCA TERMINATED NORMALLY****
TOTAL RUN TIME: 0 days 0 hours 0 minutes 21 seconds 29 msec
