                         Program Version 4.2.1 -  RELEASE  -
|  1> ! wB97X-D3 SP def2-SVP
|  2> %pal
|  3> nprocs 24
|  4> end
|  5>
|  6> * xyz 0 1
|  7> S 	 -42.6889 	 -49.7961 	 -70.071
|  8> C 	 -40.9765 	 -49.5481 	 -70.0381
|  9> C 	 -40.3593 	 -50.7955 	 -70.0397
| 10> C 	 -41.2269 	 -51.9188 	 -70.0751
| 11> C 	 -42.5668 	 -51.563 	 -70.0745
| 12> H 	 -40.9079 	 -52.918 	 -69.955
| 13> C 	 -38.8816 	 -50.977 	 -69.9808
| 14> H 	 -38.4043 	 -50.0038 	 -69.9376
| 15> H 	 -38.5403 	 -51.4169 	 -70.9191
| 16> C 	 -38.3146 	 -51.7911 	 -68.8346
| 17> H 	 -39.0059 	 -51.554 	 -68.0557
| 18> H 	 -38.4411 	 -52.9252 	 -68.9867
| 19> C 	 -36.9356 	 -51.5022 	 -68.2405
| 20> H 	 -36.1526 	 -51.6652 	 -68.9644
| 21> H 	 -36.799 	 -50.5344 	 -67.9173
| 22> H 	 -36.7109 	 -52.1449 	 -67.4182
| 23> S 	 -44.7826 	 -52.6981 	 -71.3731
| 24> C 	 -45.785 	 -53.8485 	 -70.4865
| 25> C 	 -45.2904 	 -54.1437 	 -69.2583
| 26> C 	 -44.1317 	 -53.3253 	 -68.9257
| 27> C 	 -43.7454 	 -52.4741 	 -69.9686
| 28> H 	 -45.7316 	 -54.8678 	 -68.6217
| 29> C 	 -43.5857 	 -53.3547 	 -67.5372
| 30> H 	 -42.5782 	 -52.9033 	 -67.5095
| 31> H 	 -43.3904 	 -54.386 	 -67.3436
| 32> C 	 -44.4837 	 -52.8641 	 -66.3818
| 33> H 	 -45.363 	 -53.501 	 -66.3827
| 34> H 	 -44.7094 	 -51.8282 	 -66.648
| 35> C 	 -43.8702 	 -52.948 	 -64.9902
| 36> H 	 -44.6575 	 -52.7992 	 -64.4106
| 37> H 	 -43.0915 	 -52.2076 	 -64.8754
| 38> H 	 -43.5111 	 -53.9533 	 -64.6585
| 39> H 	 -40.4894 	 -48.6176 	 -70.1383
| 40> H 	 -46.7123 	 -54.2764 	 -70.8394
| 41> *
| 42>
| 43>                          ****END OF INPUT****

CARTESIAN COORDINATES (ANGSTROEM)
---------------------------------
  S    -42.688900  -49.796100  -70.071000
  C    -40.976500  -49.548100  -70.038100
  C    -40.359300  -50.795500  -70.039700
  C    -41.226900  -51.918800  -70.075100
  C    -42.566800  -51.563000  -70.074500
  H    -40.907900  -52.918000  -69.955000
  C    -38.881600  -50.977000  -69.980800
  H    -38.404300  -50.003800  -69.937600
  H    -38.540300  -51.416900  -70.919100
  C    -38.314600  -51.791100  -68.834600
  H    -39.005900  -51.554000  -68.055700
  H    -38.441100  -52.925200  -68.986700
  C    -36.935600  -51.502200  -68.240500
  H    -36.152600  -51.665200  -68.964400
  H    -36.799000  -50.534400  -67.917300
  H    -36.710900  -52.144900  -67.418200
  S    -44.782600  -52.698100  -71.373100
  C    -45.785000  -53.848500  -70.486500
  C    -45.290400  -54.143700  -69.258300
  C    -44.131700  -53.325300  -68.925700
  C    -43.745400  -52.474100  -69.968600
  H    -45.731600  -54.867800  -68.621700
  C    -43.585700  -53.354700  -67.537200
  H    -42.578200  -52.903300  -67.509500
  H    -43.390400  -54.386000  -67.343600
  C    -44.483700  -52.864100  -66.381800
  H    -45.363000  -53.501000  -66.382700
  H    -44.709400  -51.828200  -66.648000
  C    -43.870200  -52.948000  -64.990200
  H    -44.657500  -52.799200  -64.410600
  H    -43.091500  -52.207600  -64.875400
  H    -43.511100  -53.953300  -64.658500
  H    -40.489400  -48.617600  -70.138300
  H    -46.712300  -54.276400  -70.839400

 Total Charge           Charge          ....    0
 Multiplicity           Mult            ....    1
 Number of Electrons    NEL             ....  134
 Basis Dimension        Dim             ....  322

ORBITAL ENERGIES
----------------

  NO   OCC          E(Eh)            E(eV)
   0   2.0000     -88.964852     -2420.8567
   1   2.0000     -88.964077     -2420.8356
   2   2.0000     -10.334103      -281.2052
   3   2.0000     -10.329800      -281.0882
   4   2.0000     -10.317334      -280.7489
   5   2.0000     -10.313227      -280.6372
   6   2.0000     -10.305411      -280.4245
   7   2.0000     -10.298152      -280.2270
   8   2.0000     -10.291823      -280.0547
   9   2.0000     -10.291709      -280.0516
  10   2.0000     -10.286414      -279.9076
  11   2.0000     -10.285393      -279.8798
  12   2.0000     -10.285319      -279.8778
  13   2.0000     -10.282642      -279.8049
  14   2.0000     -10.270224      -279.4670
  15   2.0000     -10.269672      -279.4520
  16   2.0000      -8.079482      -219.8539
  17   2.0000      -8.078546      -219.8284
  18   2.0000      -6.037969      -164.3015
  19   2.0000      -6.037177      -164.2799
  20   2.0000      -6.033838      -164.1891
  21   2.0000      -6.033077      -164.1684
  22   2.0000      -6.030425      -164.0962
  23   2.0000      -6.029203      -164.0629
  24   2.0000      -1.002191       -27.2710
  25   2.0000      -0.983587       -26.7648
  26   2.0000      -0.912637       -24.8341
  27   2.0000      -0.909610       -24.7518
  28   2.0000      -0.868751       -23.6399
  29   2.0000      -0.853559       -23.2265
  30   2.0000      -0.849975       -23.1290
  31   2.0000      -0.821451       -22.3528
  32   2.0000      -0.785454       -21.3733
  33   2.0000      -0.772942       -21.0328
  34   2.0000      -0.709015       -19.2933
  35   2.0000      -0.696375       -18.9493
  36   2.0000      -0.691856       -18.8264
  37   2.0000      -0.659955       -17.9583
  38   2.0000      -0.646375       -17.5888
  39   2.0000      -0.623227       -16.9589
  40   2.0000      -0.595862       -16.2142
  41   2.0000      -0.573732       -15.6120
  42   2.0000      -0.570927       -15.5357
  43   2.0000      -0.562442       -15.3048
  44   2.0000      -0.529457       -14.4072
  45   2.0000      -0.524191       -14.2640
  46   2.0000      -0.519064       -14.1244
  47   2.0000      -0.514681       -14.0052
  48   2.0000      -0.510390       -13.8884
  49   2.0000      -0.504952       -13.7404
  50   2.0000      -0.491058       -13.3624
  51   2.0000      -0.481026       -13.0894
  52   2.0000      -0.478738       -13.0271
  53   2.0000      -0.464588       -12.6421
  54   2.0000      -0.458857       -12.4861
  55   2.0000      -0.454902       -12.3785
  56   2.0000      -0.450161       -12.2495
  57   2.0000      -0.428035       -11.6474
  58   2.0000      -0.425390       -11.5754
  59   2.0000      -0.422951       -11.5091
  60   2.0000      -0.421052       -11.4574
  61   2.0000      -0.419732       -11.4215
  62   2.0000      -0.407271       -11.0824
  63   2.0000      -0.339078        -9.2268
  64   2.0000      -0.330113        -8.9828
  65   2.0000      -0.323481        -8.8024
  66   2.0000      -0.304875        -8.2961
  67   0.0000       0.038490         1.0474
  68   0.0000       0.063298         1.7224
  69   0.0000       0.117255         3.1907
  70   0.0000       0.125497         3.4150
  71   0.0000       0.131645         3.5823

MULLIKEN ATOMIC CHARGES
-----------------------
   0 S :    0.109217
   1 C :   -0.100428
   2 C :   -0.126648
   3 C :    0.080922
   4 C :   -0.166207
   5 H :    0.001183
   6 C :    0.115807
   7 H :   -0.002023
   8 H :    0.031630
   9 C :   -0.130765
  10 H :    0.021754
  11 H :    0.038877
  12 C :    0.010215
  13 H :    0.018734
  14 H :    0.010223
  15 H :    0.027356
  16 S :    0.104771
  17 C :   -0.079822
  18 C :   -0.021927
  19 C :   -0.028713
  20 C :   -0.166931
  21 H :    0.010470
  22 C :    0.073300
  23 H :    0.020436
  24 H :    0.004674
  25 C :   -0.088786
  26 H :    0.020449
  27 H :    0.038578
  28 C :    0.016879
  29 H :    0.001643
  30 H :    0.037832
  31 H :    0.024418
  32 H :    0.039174
  33 H :    0.053710
Sum of atomic charges:    0.0000000

LOEWDIN ATOMIC CHARGES
----------------------
   0 S :    0.410013
   1 C :   -0.197259
   2 C :   -0.066268
   3 C :   -0.051712
   4 C :   -0.188579
   5 H :    0.027652
   6 C :   -0.035776
   7 H :    0.027025
   8 H :    0.031444
   9 C :   -0.050541
  10 H :    0.020823
  11 H :    0.029357
  12 C :   -0.054179
  13 H :    0.022608
  14 H :    0.014226
  15 H :    0.028648
  16 S :    0.392798
  17 C :   -0.171192
  18 C :   -0.066532
  19 C :   -0.046784
  20 C :   -0.205430
  21 H :    0.027174
  22 C :   -0.041900
  23 H :    0.030138
  24 H :    0.024977
  25 C :   -0.029507
  26 H :    0.020692
  27 H :    0.028972
  28 C :   -0.052047
  29 H :    0.009681
  30 H :    0.027161
  31 H :    0.030192
  32 H :    0.024292
  33 H :    0.029833

  Mayer bond orders larger than 0.100000
B(  0-S ,  1-C ) :   1.1472 B(  0-S ,  4-C ) :   1.1663 B(  1-C ,  2-C ) :   1.5800
B(  1-C ,  4-C ) :   0.1001 B(  1-C , 32-H ) :   0.9760 B(  2-C ,  3-C ) :   1.2493
B(  2-C ,  6-C ) :   1.0511 B(  3-C ,  4-C ) :   1.5589 B(  3-C ,  5-H ) :   1.0060
B(  4-C , 20-C ) :   1.0018 B(  6-C ,  7-H ) :   0.9351 B(  6-C ,  8-H ) :   0.9273
B(  6-C ,  9-C ) :   1.0519 B(  9-C , 10-H ) :   0.9592 B(  9-C , 11-H ) :   0.9485
B(  9-C , 12-C ) :   1.1011 B( 12-C , 13-H ) :   0.9736 B( 12-C , 14-H ) :   0.9694
B( 12-C , 15-H ) :   0.9712 B( 16-S , 17-C ) :   1.1447 B( 16-S , 20-C ) :   1.1297
B( 17-C , 18-C ) :   1.6378 B( 17-C , 33-H ) :   0.9651 B( 18-C , 19-C ) :   1.2075
B( 18-C , 21-H ) :   0.9950 B( 19-C , 20-C ) :   1.6189 B( 19-C , 22-C ) :   1.0644
B( 22-C , 23-H ) :   0.9302 B( 22-C , 24-H ) :   0.9177 B( 22-C , 25-C ) :   1.0659
B( 25-C , 26-H ) :   0.9530 B( 25-C , 27-H ) :   0.9547 B( 25-C , 28-C ) :   1.0908
B( 28-C , 29-H ) :   0.9690 B( 28-C , 30-H ) :   0.9744 B( 28-C , 31-H ) :   0.9698

Dispersion correction           -0.013807118
FINAL SINGLE POINT ENERGY     -1339.873148603248

DIPOLE MOMENT
-------------
                                X             Y             Z
Electronic contribution:    -18.42566       6.16463     -22.03724
Nuclear contribution   :     18.72217      -6.48297      22.60909
                        -----------------------------------------
Total Dipole Moment    :      0.29651      -0.31833       0.57185
                        -----------------------------------------
Magnitude (a.u.)       :      0.71852
Magnitude (Debye)      :      1.82633

Rotational constants in cm-1:     0.016870     0.008340     0.006663
Rotational constants in MHz :   505.756536   250.027427   199.757803

                             ****ORCA TERMINATED NORMALLY****
TOTAL RUN TIME: 0 days 0 hours 0 minutes 21 seconds 259 msec
