                         Program Version 4.2.1 -  RELEASE  -
|  1> ! wB97X-D3 SP def2-SVP
|  2> %pal
|  3> nprocs 24
|  4> end
|  5>
|  6> * xyz 0 1
|  7> S 	 -112.016 	 16.7038 	 -10.6475
|  8> C 	 -111.623 	 16.221 	 -8.99807
|  9> C 	 -112.24 	 15.0062 	 -8.66539
| 10> C 	 -113.112 	 14.6206 	 -9.73901
| 11> C 	 -113.133 	 15.3836 	 -10.8426
| 12> H 	 -113.634 	 13.718 	 -9.72485
| 13> C 	 -112.077 	 14.1727 	 -7.44979
| 14> H 	 -112.985 	 14.0586 	 -6.93379
| 15> H 	 -111.459 	 14.8229 	 -6.86414
| 16> C 	 -111.273 	 12.8368 	 -7.51636
| 17> H 	 -110.422 	 13.1143 	 -8.05019
| 18> H 	 -110.816 	 12.5499 	 -6.57101
| 19> C 	 -111.954 	 11.6675 	 -8.25671
| 20> H 	 -111.291 	 10.8071 	 -8.12833
| 21> H 	 -112.993 	 11.5566 	 -7.94278
| 22> H 	 -111.997 	 11.8828 	 -9.29647
| 23> S 	 -112.981 	 14.9484 	 -13.503
| 24> C 	 -114.308 	 13.9981 	 -14.2443
| 25> C 	 -115.444 	 13.9869 	 -13.4352
| 26> C 	 -115.193 	 14.513 	 -12.1404
| 27> C 	 -113.901 	 14.9969 	 -12.0058
| 28> H 	 -116.356 	 13.5244 	 -13.7586
| 29> C 	 -116.221 	 14.4017 	 -11.0375
| 30> H 	 -115.973 	 15.0448 	 -10.1764
| 31> H 	 -115.993 	 13.3684 	 -10.7503
| 32> C 	 -117.695 	 14.6871 	 -11.3938
| 33> H 	 -118.313 	 14.2993 	 -10.6436
| 34> H 	 -118.039 	 14.0788 	 -12.2172
| 35> C 	 -117.995 	 16.1467 	 -11.6564
| 36> H 	 -118.988 	 16.3388 	 -12.0938
| 37> H 	 -117.342 	 16.4807 	 -12.4588
| 38> H 	 -117.755 	 16.8366 	 -10.8667
| 39> H 	 -110.924 	 16.7869 	 -8.31866
| 40> H 	 -114.337 	 13.8966 	 -15.2714
| 41> *
| 42>
| 43>                          ****END OF INPUT****

CARTESIAN COORDINATES (ANGSTROEM)
---------------------------------
  S    -112.016000   16.703800  -10.647500
  C    -111.623000   16.221000   -8.998070
  C    -112.240000   15.006200   -8.665390
  C    -113.112000   14.620600   -9.739010
  C    -113.133000   15.383600  -10.842600
  H    -113.634000   13.718000   -9.724850
  C    -112.077000   14.172700   -7.449790
  H    -112.985000   14.058600   -6.933790
  H    -111.459000   14.822900   -6.864140
  C    -111.273000   12.836800   -7.516360
  H    -110.422000   13.114300   -8.050190
  H    -110.816000   12.549900   -6.571010
  C    -111.954000   11.667500   -8.256710
  H    -111.291000   10.807100   -8.128330
  H    -112.993000   11.556600   -7.942780
  H    -111.997000   11.882800   -9.296470
  S    -112.981000   14.948400  -13.503000
  C    -114.308000   13.998100  -14.244300
  C    -115.444000   13.986900  -13.435200
  C    -115.193000   14.513000  -12.140400
  C    -113.901000   14.996900  -12.005800
  H    -116.356000   13.524400  -13.758600
  C    -116.221000   14.401700  -11.037500
  H    -115.973000   15.044800  -10.176400
  H    -115.993000   13.368400  -10.750300
  C    -117.695000   14.687100  -11.393800
  H    -118.313000   14.299300  -10.643600
  H    -118.039000   14.078800  -12.217200
  C    -117.995000   16.146700  -11.656400
  H    -118.988000   16.338800  -12.093800
  H    -117.342000   16.480700  -12.458800
  H    -117.755000   16.836600  -10.866700
  H    -110.924000   16.786900   -8.318660
  H    -114.337000   13.896600  -15.271400

 Total Charge           Charge          ....    0
 Multiplicity           Mult            ....    1
 Number of Electrons    NEL             ....  134
 Basis Dimension        Dim             ....  322

ORBITAL ENERGIES
----------------

  NO   OCC          E(Eh)            E(eV)
   0   2.0000     -88.967694     -2420.9340
   1   2.0000     -88.963112     -2420.8093
   2   2.0000     -10.325783      -280.9788
   3   2.0000     -10.323225      -280.9092
   4   2.0000     -10.322162      -280.8803
   5   2.0000     -10.315005      -280.6856
   6   2.0000     -10.304002      -280.3862
   7   2.0000     -10.301548      -280.3194
   8   2.0000     -10.296635      -280.1857
   9   2.0000     -10.295167      -280.1457
  10   2.0000     -10.285520      -279.8832
  11   2.0000     -10.283785      -279.8360
  12   2.0000     -10.282780      -279.8087
  13   2.0000     -10.280067      -279.7349
  14   2.0000     -10.275947      -279.6227
  15   2.0000     -10.274090      -279.5722
  16   2.0000      -8.082204      -219.9280
  17   2.0000      -8.077500      -219.7999
  18   2.0000      -6.040832      -164.3794
  19   2.0000      -6.036762      -164.2687
  20   2.0000      -6.035986      -164.2475
  21   2.0000      -6.032835      -164.1618
  22   2.0000      -6.032230      -164.1453
  23   2.0000      -6.028142      -164.0341
  24   2.0000      -1.008262       -27.4362
  25   2.0000      -0.982262       -26.7287
  26   2.0000      -0.914109       -24.8742
  27   2.0000      -0.910283       -24.7701
  28   2.0000      -0.871423       -23.7126
  29   2.0000      -0.853995       -23.2384
  30   2.0000      -0.846543       -23.0356
  31   2.0000      -0.816879       -22.2284
  32   2.0000      -0.785820       -21.3833
  33   2.0000      -0.774149       -21.0657
  34   2.0000      -0.713473       -19.4146
  35   2.0000      -0.707686       -19.2571
  36   2.0000      -0.699004       -19.0209
  37   2.0000      -0.664316       -18.0770
  38   2.0000      -0.641120       -17.4458
  39   2.0000      -0.620716       -16.8905
  40   2.0000      -0.598423       -16.2839
  41   2.0000      -0.574220       -15.6253
  42   2.0000      -0.560967       -15.2647
  43   2.0000      -0.547112       -14.8877
  44   2.0000      -0.543881       -14.7997
  45   2.0000      -0.532474       -14.4894
  46   2.0000      -0.521265       -14.1844
  47   2.0000      -0.517123       -14.0716
  48   2.0000      -0.503968       -13.7137
  49   2.0000      -0.493957       -13.4413
  50   2.0000      -0.492346       -13.3974
  51   2.0000      -0.477032       -12.9807
  52   2.0000      -0.475378       -12.9357
  53   2.0000      -0.466382       -12.6909
  54   2.0000      -0.461176       -12.5492
  55   2.0000      -0.450370       -12.2552
  56   2.0000      -0.443217       -12.0606
  57   2.0000      -0.439035       -11.9467
  58   2.0000      -0.434304       -11.8180
  59   2.0000      -0.427347       -11.6287
  60   2.0000      -0.422187       -11.4883
  61   2.0000      -0.416544       -11.3347
  62   2.0000      -0.411558       -11.1991
  63   2.0000      -0.350614        -9.5407
  64   2.0000      -0.330809        -9.0018
  65   2.0000      -0.327150        -8.9022
  66   2.0000      -0.290106        -7.8942
  67   0.0000       0.029196         0.7945
  68   0.0000       0.067097         1.8258
  69   0.0000       0.106246         2.8911
  70   0.0000       0.122574         3.3354
  71   0.0000       0.133516         3.6332

MULLIKEN ATOMIC CHARGES
-----------------------
   0 S :    0.109566
   1 C :   -0.149748
   2 C :   -0.095883
   3 C :    0.015211
   4 C :   -0.101946
   5 H :   -0.022383
   6 C :    0.097009
   7 H :    0.026498
   8 H :   -0.001371
   9 C :   -0.046081
  10 H :    0.003899
  11 H :    0.027223
  12 C :   -0.042565
  13 H :    0.041328
  14 H :    0.032094
  15 H :    0.034436
  16 S :    0.085687
  17 C :   -0.062479
  18 C :   -0.048794
  19 C :   -0.039701
  20 C :   -0.163234
  21 H :    0.019801
  22 C :    0.027234
  23 H :    0.039099
  24 H :    0.047492
  25 C :   -0.012275
  26 H :    0.010571
  27 H :    0.010097
  28 C :   -0.039762
  29 H :    0.036395
  30 H :    0.023561
  31 H :    0.031584
  32 H :    0.067978
  33 H :    0.039459
Sum of atomic charges:    0.0000000

LOEWDIN ATOMIC CHARGES
----------------------
   0 S :    0.399357
   1 C :   -0.200590
   2 C :   -0.060068
   3 C :   -0.059852
   4 C :   -0.202023
   5 H :    0.017597
   6 C :   -0.030002
   7 H :    0.023879
   8 H :    0.031180
   9 C :   -0.033392
  10 H :    0.018492
  11 H :    0.025340
  12 C :   -0.063756
  13 H :    0.032523
  14 H :    0.023454
  15 H :    0.022605
  16 S :    0.381256
  17 C :   -0.161094
  18 C :   -0.060145
  19 C :   -0.058437
  20 C :   -0.186816
  21 H :    0.030078
  22 C :   -0.031938
  23 H :    0.034425
  24 H :    0.038625
  25 C :   -0.038751
  26 H :    0.019334
  27 H :    0.021460
  28 C :   -0.066549
  29 H :    0.031054
  30 H :    0.028049
  31 H :    0.024804
  32 H :    0.039705
  33 H :    0.010197

  Mayer bond orders larger than 0.100000
B(  0-S ,  1-C ) :   1.1372 B(  0-S ,  4-C ) :   1.1250 B(  1-C ,  2-C ) :   1.6051
B(  1-C , 32-H ) :   0.9572 B(  2-C ,  3-C ) :   1.2340 B(  2-C ,  6-C ) :   1.0358
B(  3-C ,  4-C ) :   1.5818 B(  3-C ,  5-H ) :   1.0044 B(  4-C , 20-C ) :   1.0415
B(  6-C ,  7-H ) :   0.9397 B(  6-C ,  8-H ) :   0.9215 B(  6-C ,  9-C ) :   1.0689
B(  9-C , 10-H ) :   0.9457 B(  9-C , 11-H ) :   0.9598 B(  9-C , 12-C ) :   1.0794
B( 12-C , 13-H ) :   0.9709 B( 12-C , 14-H ) :   0.9785 B( 12-C , 15-H ) :   0.9717
B( 16-S , 17-C ) :   1.1467 B( 16-S , 20-C ) :   1.1343 B( 17-C , 18-C ) :   1.6149
B( 17-C , 20-C ) :   0.1082 B( 17-C , 33-H ) :   0.9703 B( 18-C , 19-C ) :   1.2311
B( 18-C , 21-H ) :   0.9917 B( 19-C , 20-C ) :   1.6057 B( 19-C , 22-C ) :   1.0204
B( 22-C , 23-H ) :   0.9398 B( 22-C , 24-H ) :   0.9292 B( 22-C , 25-C ) :   1.0754
B( 25-C , 26-H ) :   0.9474 B( 25-C , 27-H ) :   0.9474 B( 25-C , 28-C ) :   1.0766
B( 28-C , 29-H ) :   0.9722 B( 28-C , 30-H ) :   0.9722 B( 28-C , 31-H ) :   0.9738

Dispersion correction           -0.014590402
FINAL SINGLE POINT ENERGY     -1339.864708287421

DIPOLE MOMENT
-------------
                                X             Y             Z
Electronic contribution:     12.69914      11.91085     -14.58181
Nuclear contribution   :    -13.05083     -12.31902      14.96260
                        -----------------------------------------
Total Dipole Moment    :     -0.35169      -0.40817       0.38079
                        -----------------------------------------
Magnitude (a.u.)       :      0.65977
Magnitude (Debye)      :      1.67700

Rotational constants in cm-1:     0.017782     0.008561     0.007753
Rotational constants in MHz :   533.099663   256.644611   232.438732

                             ****ORCA TERMINATED NORMALLY****
TOTAL RUN TIME: 0 days 0 hours 0 minutes 20 seconds 961 msec
