                         Program Version 4.2.1 -  RELEASE  -
|  1> ! wB97X-D3 SP def2-SVP
|  2> %pal
|  3> nprocs 24
|  4> end
|  5>
|  6> * xyz 0 1
|  7> S 	 -103.333 	 9.79236 	 -5.83246
|  8> C 	 -101.912 	 10.7811 	 -6.17698
|  9> C 	 -102.177 	 12.1351 	 -6.16076
| 10> C 	 -103.555 	 12.3591 	 -5.81754
| 11> C 	 -104.314 	 11.2086 	 -5.53899
| 12> H 	 -104.006 	 13.3148 	 -5.66119
| 13> C 	 -101.112 	 13.2211 	 -6.30496
| 14> H 	 -101.397 	 13.9918 	 -6.96433
| 15> H 	 -100.224 	 12.7367 	 -6.72211
| 16> C 	 -100.579 	 13.8104 	 -4.97161
| 17> H 	 -100.114 	 13.1098 	 -4.18769
| 18> H 	 -99.65 	 14.4006 	 -5.24627
| 19> C 	 -101.589 	 14.7118 	 -4.25122
| 20> H 	 -102.352 	 14.2154 	 -3.77322
| 21> H 	 -101.164 	 15.3279 	 -3.6046
| 22> H 	 -102.065 	 15.3899 	 -5.03826
| 23> S 	 -106.887 	 10.2228 	 -6.03751
| 24> C 	 -108.116 	 10.478 	 -4.85888
| 25> C 	 -107.638 	 11.2041 	 -3.76956
| 26> C 	 -106.263 	 11.5527 	 -3.88182
| 27> C 	 -105.707 	 11.108 	 -5.08535
| 28> H 	 -108.283 	 11.3595 	 -2.88848
| 29> C 	 -105.542 	 12.4091 	 -2.77022
| 30> H 	 -106.345 	 13.0961 	 -2.43301
| 31> H 	 -104.662 	 12.9539 	 -3.17051
| 32> C 	 -105.032 	 11.673 	 -1.50761
| 33> H 	 -104.099 	 11.2704 	 -1.7313
| 34> H 	 -105.678 	 10.8889 	 -0.982681
| 35> C 	 -104.726 	 12.6625 	 -0.424079
| 36> H 	 -105.631 	 13.0872 	 -0.0841169
| 37> H 	 -104.174 	 13.495 	 -0.883703
| 38> H 	 -104.194 	 12.2762 	 0.455464
| 39> H 	 -100.906 	 10.4486 	 -6.23018
| 40> H 	 -109.036 	 9.89743 	 -4.86223
| 41> *
| 42>
| 43>                          ****END OF INPUT****

CARTESIAN COORDINATES (ANGSTROEM)
---------------------------------
  S    -103.333000    9.792360   -5.832460
  C    -101.912000   10.781100   -6.176980
  C    -102.177000   12.135100   -6.160760
  C    -103.555000   12.359100   -5.817540
  C    -104.314000   11.208600   -5.538990
  H    -104.006000   13.314800   -5.661190
  C    -101.112000   13.221100   -6.304960
  H    -101.397000   13.991800   -6.964330
  H    -100.224000   12.736700   -6.722110
  C    -100.579000   13.810400   -4.971610
  H    -100.114000   13.109800   -4.187690
  H    -99.650000   14.400600   -5.246270
  C    -101.589000   14.711800   -4.251220
  H    -102.352000   14.215400   -3.773220
  H    -101.164000   15.327900   -3.604600
  H    -102.065000   15.389900   -5.038260
  S    -106.887000   10.222800   -6.037510
  C    -108.116000   10.478000   -4.858880
  C    -107.638000   11.204100   -3.769560
  C    -106.263000   11.552700   -3.881820
  C    -105.707000   11.108000   -5.085350
  H    -108.283000   11.359500   -2.888480
  C    -105.542000   12.409100   -2.770220
  H    -106.345000   13.096100   -2.433010
  H    -104.662000   12.953900   -3.170510
  C    -105.032000   11.673000   -1.507610
  H    -104.099000   11.270400   -1.731300
  H    -105.678000   10.888900   -0.982681
  C    -104.726000   12.662500   -0.424079
  H    -105.631000   13.087200   -0.084117
  H    -104.174000   13.495000   -0.883703
  H    -104.194000   12.276200    0.455464
  H    -100.906000   10.448600   -6.230180
  H    -109.036000    9.897430   -4.862230

 Total Charge           Charge          ....    0
 Multiplicity           Mult            ....    1
 Number of Electrons    NEL             ....  134
 Basis Dimension        Dim             ....  322

ORBITAL ENERGIES
----------------

  NO   OCC          E(Eh)            E(eV)
   0   2.0000     -88.967508     -2420.9290
   1   2.0000     -88.966778     -2420.9091
   2   2.0000     -10.331759      -281.1414
   3   2.0000     -10.328719      -281.0587
   4   2.0000     -10.317520      -280.7540
   5   2.0000     -10.312299      -280.6119
   6   2.0000     -10.308915      -280.5198
   7   2.0000     -10.303839      -280.3817
   8   2.0000     -10.302947      -280.3574
   9   2.0000     -10.299903      -280.2746
  10   2.0000     -10.297260      -280.2027
  11   2.0000     -10.296487      -280.1817
  12   2.0000     -10.295299      -280.1493
  13   2.0000     -10.282212      -279.7932
  14   2.0000     -10.271155      -279.4923
  15   2.0000     -10.267941      -279.4049
  16   2.0000      -8.081927      -219.9204
  17   2.0000      -8.081837      -219.9180
  18   2.0000      -6.040392      -164.3674
  19   2.0000      -6.040360      -164.3665
  20   2.0000      -6.036347      -164.2574
  21   2.0000      -6.036226      -164.2541
  22   2.0000      -6.032887      -164.1632
  23   2.0000      -6.032634      -164.1563
  24   2.0000      -1.003814       -27.3152
  25   2.0000      -0.982698       -26.7406
  26   2.0000      -0.910880       -24.7863
  27   2.0000      -0.910323       -24.7711
  28   2.0000      -0.867495       -23.6057
  29   2.0000      -0.854467       -23.2512
  30   2.0000      -0.843229       -22.9454
  31   2.0000      -0.813880       -22.1468
  32   2.0000      -0.788629       -21.4597
  33   2.0000      -0.772727       -21.0270
  34   2.0000      -0.703422       -19.1411
  35   2.0000      -0.700386       -19.0585
  36   2.0000      -0.690580       -18.7916
  37   2.0000      -0.658951       -17.9310
  38   2.0000      -0.641095       -17.4451
  39   2.0000      -0.616309       -16.7706
  40   2.0000      -0.597114       -16.2483
  41   2.0000      -0.574318       -15.6280
  42   2.0000      -0.568903       -15.4806
  43   2.0000      -0.552199       -15.0261
  44   2.0000      -0.541232       -14.7277
  45   2.0000      -0.526803       -14.3350
  46   2.0000      -0.515055       -14.0154
  47   2.0000      -0.510729       -13.8976
  48   2.0000      -0.506353       -13.7786
  49   2.0000      -0.497060       -13.5257
  50   2.0000      -0.490287       -13.3414
  51   2.0000      -0.486324       -13.2335
  52   2.0000      -0.473061       -12.8726
  53   2.0000      -0.464754       -12.6466
  54   2.0000      -0.458698       -12.4818
  55   2.0000      -0.449203       -12.2234
  56   2.0000      -0.440290       -11.9809
  57   2.0000      -0.435476       -11.8499
  58   2.0000      -0.431245       -11.7348
  59   2.0000      -0.431170       -11.7327
  60   2.0000      -0.422173       -11.4879
  61   2.0000      -0.417344       -11.3565
  62   2.0000      -0.413113       -11.2414
  63   2.0000      -0.337973        -9.1967
  64   2.0000      -0.334588        -9.1046
  65   2.0000      -0.330742        -8.9999
  66   2.0000      -0.296670        -8.0728
  67   0.0000       0.033124         0.9013
  68   0.0000       0.062970         1.7135
  69   0.0000       0.116536         3.1711
  70   0.0000       0.120083         3.2676
  71   0.0000       0.125821         3.4238

MULLIKEN ATOMIC CHARGES
-----------------------
   0 S :    0.118955
   1 C :   -0.101949
   2 C :   -0.091830
   3 C :    0.046010
   4 C :   -0.175068
   5 H :    0.001697
   6 C :    0.100289
   7 H :    0.029555
   8 H :    0.017717
   9 C :   -0.129266
  10 H :    0.040434
  11 H :    0.034728
  12 C :    0.018719
  13 H :    0.019438
  14 H :    0.000200
  15 H :    0.020277
  16 S :    0.118839
  17 C :   -0.102817
  18 C :   -0.053136
  19 C :    0.005033
  20 C :   -0.184610
  21 H :    0.030827
  22 C :    0.034730
  23 H :    0.032210
  24 H :    0.034871
  25 C :   -0.048047
  26 H :    0.018147
  27 H :    0.041475
  28 C :   -0.047410
  29 H :    0.011253
  30 H :    0.016554
  31 H :    0.041125
  32 H :    0.032882
  33 H :    0.068167
Sum of atomic charges:    0.0000000

LOEWDIN ATOMIC CHARGES
----------------------
   0 S :    0.405546
   1 C :   -0.186600
   2 C :   -0.062424
   3 C :   -0.059795
   4 C :   -0.197756
   5 H :    0.024250
   6 C :   -0.024232
   7 H :    0.027569
   8 H :    0.034118
   9 C :   -0.045425
  10 H :    0.032133
  11 H :    0.028687
  12 C :   -0.053949
  13 H :    0.012670
  14 H :    0.007170
  15 H :    0.032013
  16 S :    0.420406
  17 C :   -0.197850
  18 C :   -0.076423
  19 C :   -0.051052
  20 C :   -0.209170
  21 H :    0.036387
  22 C :   -0.025548
  23 H :    0.033217
  24 H :    0.034501
  25 C :   -0.042607
  26 H :    0.016342
  27 H :    0.032441
  28 C :   -0.063511
  29 H :    0.013668
  30 H :    0.022309
  31 H :    0.028622
  32 H :    0.021988
  33 H :    0.032304

  Mayer bond orders larger than 0.100000
B(  0-S ,  1-C ) :   1.1413 B(  0-S ,  4-C ) :   1.1533 B(  1-C ,  2-C ) :   1.6264
B(  1-C , 32-H ) :   0.9641 B(  2-C ,  3-C ) :   1.2349 B(  2-C ,  6-C ) :   1.0291
B(  3-C ,  4-C ) :   1.5764 B(  3-C ,  5-H ) :   0.9955 B(  4-C , 20-C ) :   1.0317
B(  6-C ,  7-H ) :   0.9405 B(  6-C ,  8-H ) :   0.9347 B(  6-C ,  9-C ) :   1.0689
B(  9-C , 10-H ) :   0.9552 B(  9-C , 11-H ) :   0.9557 B(  9-C , 12-C ) :   1.0772
B( 12-C , 13-H ) :   0.9751 B( 12-C , 14-H ) :   0.9652 B( 12-C , 15-H ) :   0.9700
B( 16-S , 17-C ) :   1.1727 B( 16-S , 20-C ) :   1.1540 B( 17-C , 18-C ) :   1.5865
B( 17-C , 20-C ) :   0.1003 B( 17-C , 33-H ) :   0.9644 B( 18-C , 19-C ) :   1.2708
B( 18-C , 21-H ) :   0.9845 B( 19-C , 20-C ) :   1.5801 B( 19-C , 22-C ) :   1.0194
B( 22-C , 23-H ) :   0.9471 B( 22-C , 24-H ) :   0.9317 B( 22-C , 25-C ) :   1.0648
B( 25-C , 26-H ) :   0.9520 B( 25-C , 27-H ) :   0.9594 B( 25-C , 28-C ) :   1.0814
B( 28-C , 29-H ) :   0.9750 B( 28-C , 30-H ) :   0.9682 B( 28-C , 31-H ) :   0.9727

Dispersion correction           -0.014664192
FINAL SINGLE POINT ENERGY     -1339.868631274341

DIPOLE MOMENT
-------------
                                X             Y             Z
Electronic contribution:    -13.36202     -20.48825     -19.33456
Nuclear contribution   :     13.65420      20.92283      19.86174
                        -----------------------------------------
Total Dipole Moment    :      0.29219       0.43458       0.52718
                        -----------------------------------------
Magnitude (a.u.)       :      0.74307
Magnitude (Debye)      :      1.88872

Rotational constants in cm-1:     0.016602     0.009975     0.007165
Rotational constants in MHz :   497.725448   299.033283   214.791305

                             ****ORCA TERMINATED NORMALLY****
TOTAL RUN TIME: 0 days 0 hours 0 minutes 22 seconds 56 msec
