                         Program Version 4.2.1 -  RELEASE  -
|  1> ! wB97X-D3 SP def2-SVP
|  2> %pal
|  3> nprocs 24
|  4> end
|  5>
|  6> * xyz 0 1
|  7> S 	 -138.821 	 7.10231 	 5.99843
|  8> C 	 -140.269 	 7.02528 	 5.07034
|  9> C 	 -141.337 	 7.53921 	 5.78695
| 10> C 	 -141.038 	 7.92339 	 7.13037
| 11> C 	 -139.728 	 7.61316 	 7.42963
| 12> H 	 -141.718 	 8.32652 	 7.84858
| 13> C 	 -142.749 	 7.5392 	 5.26472
| 14> H 	 -142.535 	 7.73308 	 4.21856
| 15> H 	 -143.382 	 8.2735 	 5.60667
| 16> C 	 -143.453 	 6.18965 	 5.4782
| 17> H 	 -143.632 	 6.06974 	 6.52005
| 18> H 	 -144.418 	 6.33593 	 5.09153
| 19> C 	 -142.722 	 4.89266 	 4.92853
| 20> H 	 -141.787 	 4.67931 	 5.48821
| 21> H 	 -143.385 	 4.04411 	 4.97013
| 22> H 	 -142.35 	 5.03417 	 3.87608
| 23> S 	 -137.518 	 8.36041 	 8.79037
| 24> C 	 -137.373 	 8.14078 	 10.4675
| 25> C 	 -138.452 	 7.43487 	 11.0346
| 26> C 	 -139.454 	 7.19918 	 10.04
| 27> C 	 -139.099 	 7.60145 	 8.76495
| 28> H 	 -138.476 	 7.22216 	 12.1155
| 29> C 	 -140.709 	 6.50365 	 10.3194
| 30> H 	 -140.519 	 5.59053 	 10.8205
| 31> H 	 -141.224 	 6.17522 	 9.40004
| 32> C 	 -141.705 	 7.31114 	 11.2256
| 33> H 	 -141.946 	 8.28242 	 10.7739
| 34> H 	 -141.262 	 7.33256 	 12.2051
| 35> C 	 -143.035 	 6.51233 	 11.3755
| 36> H 	 -143.584 	 6.82073 	 12.274
| 37> H 	 -142.819 	 5.47433 	 11.3434
| 38> H 	 -143.598 	 6.73552 	 10.4861
| 39> H 	 -140.305 	 6.75731 	 4.05971
| 40> H 	 -136.441 	 8.44302 	 10.9192
| 41> *
| 42>
| 43>                          ****END OF INPUT****

CARTESIAN COORDINATES (ANGSTROEM)
---------------------------------
  S    -138.821000    7.102310    5.998430
  C    -140.269000    7.025280    5.070340
  C    -141.337000    7.539210    5.786950
  C    -141.038000    7.923390    7.130370
  C    -139.728000    7.613160    7.429630
  H    -141.718000    8.326520    7.848580
  C    -142.749000    7.539200    5.264720
  H    -142.535000    7.733080    4.218560
  H    -143.382000    8.273500    5.606670
  C    -143.453000    6.189650    5.478200
  H    -143.632000    6.069740    6.520050
  H    -144.418000    6.335930    5.091530
  C    -142.722000    4.892660    4.928530
  H    -141.787000    4.679310    5.488210
  H    -143.385000    4.044110    4.970130
  H    -142.350000    5.034170    3.876080
  S    -137.518000    8.360410    8.790370
  C    -137.373000    8.140780   10.467500
  C    -138.452000    7.434870   11.034600
  C    -139.454000    7.199180   10.040000
  C    -139.099000    7.601450    8.764950
  H    -138.476000    7.222160   12.115500
  C    -140.709000    6.503650   10.319400
  H    -140.519000    5.590530   10.820500
  H    -141.224000    6.175220    9.400040
  C    -141.705000    7.311140   11.225600
  H    -141.946000    8.282420   10.773900
  H    -141.262000    7.332560   12.205100
  C    -143.035000    6.512330   11.375500
  H    -143.584000    6.820730   12.274000
  H    -142.819000    5.474330   11.343400
  H    -143.598000    6.735520   10.486100
  H    -140.305000    6.757310    4.059710
  H    -136.441000    8.443020   10.919200

 Total Charge           Charge          ....    0
 Multiplicity           Mult            ....    1
 Number of Electrons    NEL             ....  134
 Basis Dimension        Dim             ....  322

ORBITAL ENERGIES
----------------

  NO   OCC          E(Eh)            E(eV)
   0   2.0000     -88.965722     -2420.8804
   1   2.0000     -88.960958     -2420.7507
   2   2.0000     -10.331495      -281.1343
   3   2.0000     -10.323547      -280.9180
   4   2.0000     -10.316974      -280.7391
   5   2.0000     -10.307030      -280.4685
   6   2.0000     -10.302149      -280.3357
   7   2.0000     -10.300066      -280.2791
   8   2.0000     -10.297359      -280.2054
   9   2.0000     -10.291999      -280.0595
  10   2.0000     -10.287739      -279.9436
  11   2.0000     -10.284203      -279.8474
  12   2.0000     -10.283543      -279.8294
  13   2.0000     -10.282729      -279.8073
  14   2.0000     -10.281792      -279.7818
  15   2.0000     -10.274928      -279.5950
  16   2.0000      -8.080687      -219.8867
  17   2.0000      -8.077179      -219.7912
  18   2.0000      -6.039215      -164.3354
  19   2.0000      -6.035403      -164.2317
  20   2.0000      -6.035239      -164.2272
  21   2.0000      -6.031423      -164.1234
  22   2.0000      -6.031339      -164.1211
  23   2.0000      -6.028211      -164.0360
  24   2.0000      -1.008784       -27.4504
  25   2.0000      -0.987603       -26.8740
  26   2.0000      -0.912652       -24.8345
  27   2.0000      -0.910380       -24.7727
  28   2.0000      -0.865426       -23.5494
  29   2.0000      -0.854933       -23.2639
  30   2.0000      -0.844709       -22.9857
  31   2.0000      -0.812072       -22.0976
  32   2.0000      -0.783066       -21.3083
  33   2.0000      -0.772933       -21.0326
  34   2.0000      -0.709064       -19.2946
  35   2.0000      -0.699735       -19.0408
  36   2.0000      -0.694000       -18.8847
  37   2.0000      -0.664814       -18.0905
  38   2.0000      -0.645563       -17.5666
  39   2.0000      -0.619860       -16.8673
  40   2.0000      -0.599913       -16.3245
  41   2.0000      -0.573485       -15.6053
  42   2.0000      -0.569514       -15.4973
  43   2.0000      -0.547544       -14.8994
  44   2.0000      -0.542374       -14.7587
  45   2.0000      -0.527040       -14.3415
  46   2.0000      -0.520071       -14.1519
  47   2.0000      -0.511705       -13.9242
  48   2.0000      -0.505744       -13.7620
  49   2.0000      -0.503476       -13.7003
  50   2.0000      -0.491674       -13.3791
  51   2.0000      -0.476307       -12.9610
  52   2.0000      -0.467287       -12.7155
  53   2.0000      -0.463354       -12.6085
  54   2.0000      -0.459096       -12.4926
  55   2.0000      -0.451665       -12.2904
  56   2.0000      -0.445665       -12.1272
  57   2.0000      -0.438513       -11.9325
  58   2.0000      -0.436512       -11.8781
  59   2.0000      -0.430035       -11.7019
  60   2.0000      -0.424109       -11.5406
  61   2.0000      -0.417019       -11.3477
  62   2.0000      -0.410839       -11.1795
  63   2.0000      -0.347534        -9.4569
  64   2.0000      -0.330399        -8.9906
  65   2.0000      -0.328922        -8.9504
  66   2.0000      -0.287134        -7.8133
  67   0.0000       0.031080         0.8457
  68   0.0000       0.070344         1.9142
  69   0.0000       0.110753         3.0137
  70   0.0000       0.119623         3.2551
  71   0.0000       0.126406         3.4397

MULLIKEN ATOMIC CHARGES
-----------------------
   0 S :    0.115504
   1 C :   -0.103625
   2 C :   -0.116436
   3 C :    0.043108
   4 C :   -0.128658
   5 H :    0.004852
   6 C :    0.094682
   7 H :    0.018546
   8 H :    0.001908
   9 C :   -0.031068
  10 H :    0.013245
  11 H :    0.016407
  12 C :   -0.076975
  13 H :    0.056283
  14 H :    0.038888
  15 H :    0.028163
  16 S :    0.095624
  17 C :   -0.095830
  18 C :   -0.036258
  19 C :   -0.011729
  20 C :   -0.148167
  21 H :    0.034610
  22 C :    0.027497
  23 H :    0.013928
  24 H :    0.023967
  25 C :   -0.097196
  26 H :    0.039170
  27 H :    0.029526
  28 C :   -0.024871
  29 H :    0.044375
  30 H :    0.021365
  31 H :    0.022624
  32 H :    0.027568
  33 H :    0.058972
Sum of atomic charges:   -0.0000000

LOEWDIN ATOMIC CHARGES
----------------------
   0 S :    0.406803
   1 C :   -0.202941
   2 C :   -0.057282
   3 C :   -0.060844
   4 C :   -0.181686
   5 H :    0.030368
   6 C :   -0.025942
   7 H :    0.030272
   8 H :    0.018814
   9 C :   -0.028930
  10 H :    0.018835
  11 H :    0.017179
  12 C :   -0.069115
  13 H :    0.031917
  14 H :    0.024142
  15 H :    0.025546
  16 S :    0.423365
  17 C :   -0.191280
  18 C :   -0.075188
  19 C :   -0.056526
  20 C :   -0.198420
  21 H :    0.038691
  22 C :   -0.036139
  23 H :    0.026120
  24 H :    0.029752
  25 C :   -0.029472
  26 H :    0.023570
  27 H :    0.019243
  28 C :   -0.061167
  29 H :    0.028811
  30 H :    0.018353
  31 H :    0.022241
  32 H :    0.017135
  33 H :    0.023775

  Mayer bond orders larger than 0.100000
B(  0-S ,  1-C ) :   1.1275 B(  0-S ,  4-C ) :   1.1610 B(  1-C ,  2-C ) :   1.6092
B(  1-C , 32-H ) :   0.9750 B(  2-C ,  3-C ) :   1.2250 B(  2-C ,  6-C ) :   1.0287
B(  3-C ,  4-C ) :   1.5612 B(  3-C ,  5-H ) :   1.0087 B(  4-C , 20-C ) :   1.0136
B(  6-C ,  7-H ) :   0.9371 B(  6-C ,  8-H ) :   0.9395 B(  6-C ,  9-C ) :   1.0758
B(  9-C , 10-H ) :   0.9523 B(  9-C , 11-H ) :   0.9564 B(  9-C , 12-C ) :   1.0697
B( 12-C , 13-H ) :   0.9708 B( 12-C , 14-H ) :   0.9748 B( 12-C , 15-H ) :   0.9767
B( 16-S , 17-C ) :   1.1996 B( 16-S , 20-C ) :   1.1405 B( 17-C , 18-C ) :   1.5619
B( 17-C , 20-C ) :   0.1003 B( 17-C , 33-H ) :   0.9697 B( 18-C , 19-C ) :   1.2340
B( 18-C , 21-H ) :   0.9941 B( 19-C , 20-C ) :   1.5962 B( 19-C , 22-C ) :   1.0644
B( 22-C , 23-H ) :   0.9217 B( 22-C , 24-H ) :   0.9414 B( 22-C , 25-C ) :   1.0587
B( 25-C , 26-H ) :   0.9622 B( 25-C , 27-H ) :   0.9576 B( 25-C , 28-C ) :   1.0781
B( 28-C , 29-H ) :   0.9761 B( 28-C , 30-H ) :   0.9719 B( 28-C , 31-H ) :   0.9771

Dispersion correction           -0.014839853
FINAL SINGLE POINT ENERGY     -1339.879961606907

DIPOLE MOMENT
-------------
                                X             Y             Z
Electronic contribution:     27.48846      10.00181      -3.99882
Nuclear contribution   :    -28.07143     -10.15057       4.27175
                        -----------------------------------------
Total Dipole Moment    :     -0.58297      -0.14876       0.27294
                        -----------------------------------------
Magnitude (a.u.)       :      0.66067
Magnitude (Debye)      :      1.67928

Rotational constants in cm-1:     0.017692     0.010012     0.006918
Rotational constants in MHz :   530.395689   300.142050   207.390816

                             ****ORCA TERMINATED NORMALLY****
TOTAL RUN TIME: 0 days 0 hours 0 minutes 22 seconds 331 msec
