                         Program Version 4.2.1 -  RELEASE  -
|  1> ! wB97X-D3 SP def2-SVP
|  2> %pal
|  3> nprocs 24
|  4> end
|  5>
|  6> * xyz 0 1
|  7> S 	 -129.088 	 65.5787 	 -58.1312
|  8> C 	 -128.866 	 67.0173 	 -57.2858
|  9> C 	 -129.145 	 68.1125 	 -58.1038
| 10> C 	 -129.551 	 67.6909 	 -59.4163
| 11> C 	 -129.609 	 66.318 	 -59.6492
| 12> H 	 -129.839 	 68.3786 	 -60.2762
| 13> C 	 -129.121 	 69.5329 	 -57.6441
| 14> H 	 -129.195 	 69.5418 	 -56.6251
| 15> H 	 -130.041 	 70.0412 	 -57.8154
| 16> C 	 -127.924 	 70.3534 	 -58.0176
| 17> H 	 -127.019 	 69.8256 	 -58.0185
| 18> H 	 -128.055 	 70.7159 	 -59.0512
| 19> C 	 -127.751 	 71.5773 	 -57.0395
| 20> H 	 -127.191 	 71.2095 	 -56.2582
| 21> H 	 -127.182 	 72.3799 	 -57.4998
| 22> H 	 -128.662 	 72.128 	 -56.8259
| 23> S 	 -131.362 	 64.5838 	 -60.5524
| 24> C 	 -131.179 	 63.7913 	 -62.1755
| 25> C 	 -130.349 	 64.529 	 -62.9322
| 26> C 	 -129.555 	 65.468 	 -62.2124
| 27> C 	 -129.994 	 65.5959 	 -60.8837
| 28> H 	 -130.159 	 64.3121 	 -63.9907
| 29> C 	 -128.269 	 66.0044 	 -62.8418
| 30> H 	 -128.006 	 66.9327 	 -62.3555
| 31> H 	 -128.58 	 66.4727 	 -63.8205
| 32> C 	 -127.147 	 65 	 -62.8699
| 33> H 	 -126.265 	 65.3833 	 -63.3986
| 34> H 	 -127.311 	 64.23 	 -63.5099
| 35> C 	 -126.723 	 64.4476 	 -61.5172
| 36> H 	 -126.205 	 65.251 	 -61.004
| 37> H 	 -125.984 	 63.6952 	 -61.6569
| 38> H 	 -127.584 	 64.1132 	 -60.9677
| 39> H 	 -128.657 	 67.0665 	 -56.2728
| 40> H 	 -131.739 	 62.9685 	 -62.5451
| 41> *
| 42>
| 43>                          ****END OF INPUT****

CARTESIAN COORDINATES (ANGSTROEM)
---------------------------------
  S    -129.088000   65.578700  -58.131200
  C    -128.866000   67.017300  -57.285800
  C    -129.145000   68.112500  -58.103800
  C    -129.551000   67.690900  -59.416300
  C    -129.609000   66.318000  -59.649200
  H    -129.839000   68.378600  -60.276200
  C    -129.121000   69.532900  -57.644100
  H    -129.195000   69.541800  -56.625100
  H    -130.041000   70.041200  -57.815400
  C    -127.924000   70.353400  -58.017600
  H    -127.019000   69.825600  -58.018500
  H    -128.055000   70.715900  -59.051200
  C    -127.751000   71.577300  -57.039500
  H    -127.191000   71.209500  -56.258200
  H    -127.182000   72.379900  -57.499800
  H    -128.662000   72.128000  -56.825900
  S    -131.362000   64.583800  -60.552400
  C    -131.179000   63.791300  -62.175500
  C    -130.349000   64.529000  -62.932200
  C    -129.555000   65.468000  -62.212400
  C    -129.994000   65.595900  -60.883700
  H    -130.159000   64.312100  -63.990700
  C    -128.269000   66.004400  -62.841800
  H    -128.006000   66.932700  -62.355500
  H    -128.580000   66.472700  -63.820500
  C    -127.147000   65.000000  -62.869900
  H    -126.265000   65.383300  -63.398600
  H    -127.311000   64.230000  -63.509900
  C    -126.723000   64.447600  -61.517200
  H    -126.205000   65.251000  -61.004000
  H    -125.984000   63.695200  -61.656900
  H    -127.584000   64.113200  -60.967700
  H    -128.657000   67.066500  -56.272800
  H    -131.739000   62.968500  -62.545100

 Total Charge           Charge          ....    0
 Multiplicity           Mult            ....    1
 Number of Electrons    NEL             ....  134
 Basis Dimension        Dim             ....  322

ORBITAL ENERGIES
----------------

  NO   OCC          E(Eh)            E(eV)
   0   2.0000     -88.963942     -2420.8319
   1   2.0000     -88.962160     -2420.7835
   2   2.0000     -10.331692      -281.1396
   3   2.0000     -10.331371      -281.1309
   4   2.0000     -10.316173      -280.7173
   5   2.0000     -10.308661      -280.5129
   6   2.0000     -10.306505      -280.4542
   7   2.0000     -10.299800      -280.2718
   8   2.0000     -10.298665      -280.2409
   9   2.0000     -10.293564      -280.1021
  10   2.0000     -10.292079      -280.0617
  11   2.0000     -10.280993      -279.7600
  12   2.0000     -10.276097      -279.6268
  13   2.0000     -10.274060      -279.5714
  14   2.0000     -10.272800      -279.5371
  15   2.0000     -10.264569      -279.3131
  16   2.0000      -8.079338      -219.8500
  17   2.0000      -8.076525      -219.7734
  18   2.0000      -6.037728      -164.2949
  19   2.0000      -6.035145      -164.2246
  20   2.0000      -6.033472      -164.1791
  21   2.0000      -6.031141      -164.1157
  22   2.0000      -6.030424      -164.0962
  23   2.0000      -6.027100      -164.0057
  24   2.0000      -1.006308       -27.3830
  25   2.0000      -0.986331       -26.8394
  26   2.0000      -0.916421       -24.9371
  27   2.0000      -0.910439       -24.7743
  28   2.0000      -0.873865       -23.7791
  29   2.0000      -0.846351       -23.0304
  30   2.0000      -0.843174       -22.9439
  31   2.0000      -0.819161       -22.2905
  32   2.0000      -0.782241       -21.2858
  33   2.0000      -0.773753       -21.0549
  34   2.0000      -0.711851       -19.3705
  35   2.0000      -0.704935       -19.1822
  36   2.0000      -0.696899       -18.9636
  37   2.0000      -0.661188       -17.9918
  38   2.0000      -0.649252       -17.6670
  39   2.0000      -0.616492       -16.7756
  40   2.0000      -0.596969       -16.2444
  41   2.0000      -0.578107       -15.7311
  42   2.0000      -0.565464       -15.3871
  43   2.0000      -0.561009       -15.2658
  44   2.0000      -0.538734       -14.6597
  45   2.0000      -0.523936       -14.2570
  46   2.0000      -0.517489       -14.0816
  47   2.0000      -0.509533       -13.8651
  48   2.0000      -0.504887       -13.7387
  49   2.0000      -0.501131       -13.6365
  50   2.0000      -0.492660       -13.4060
  51   2.0000      -0.478088       -13.0094
  52   2.0000      -0.468546       -12.7498
  53   2.0000      -0.465219       -12.6593
  54   2.0000      -0.460884       -12.5413
  55   2.0000      -0.448944       -12.2164
  56   2.0000      -0.442701       -12.0465
  57   2.0000      -0.439494       -11.9592
  58   2.0000      -0.434885       -11.8338
  59   2.0000      -0.417298       -11.3553
  60   2.0000      -0.415515       -11.3067
  61   2.0000      -0.410501       -11.1703
  62   2.0000      -0.407920       -11.1001
  63   2.0000      -0.343198        -9.3389
  64   2.0000      -0.330135        -8.9834
  65   2.0000      -0.325516        -8.8577
  66   2.0000      -0.299000        -8.1362
  67   0.0000       0.032236         0.8772
  68   0.0000       0.068057         1.8519
  69   0.0000       0.104990         2.8569
  70   0.0000       0.125546         3.4163
  71   0.0000       0.137716         3.7474

MULLIKEN ATOMIC CHARGES
-----------------------
   0 S :    0.126024
   1 C :   -0.085501
   2 C :   -0.113334
   3 C :    0.032406
   4 C :   -0.159907
   5 H :    0.033118
   6 C :    0.129432
   7 H :   -0.027193
   8 H :    0.015383
   9 C :   -0.052055
  10 H :    0.017885
  11 H :    0.024583
  12 C :   -0.043083
  13 H :    0.029794
  14 H :    0.021521
  15 H :    0.031620
  16 S :    0.090465
  17 C :   -0.075959
  18 C :   -0.027189
  19 C :   -0.072039
  20 C :   -0.182541
  21 H :    0.028511
  22 C :    0.089252
  23 H :    0.009161
  24 H :    0.025821
  25 C :   -0.019034
  26 H :    0.013218
  27 H :   -0.009543
  28 C :   -0.019113
  29 H :    0.025960
  30 H :    0.022121
  31 H :    0.047141
  32 H :    0.027130
  33 H :    0.045947
Sum of atomic charges:    0.0000000

LOEWDIN ATOMIC CHARGES
----------------------
   0 S :    0.434681
   1 C :   -0.201052
   2 C :   -0.066008
   3 C :   -0.066480
   4 C :   -0.215291
   5 H :    0.040895
   6 C :   -0.035622
   7 H :    0.018081
   8 H :    0.032571
   9 C :   -0.027730
  10 H :    0.017859
  11 H :    0.022435
  12 C :   -0.059483
  13 H :    0.016492
  14 H :    0.027072
  15 H :    0.026139
  16 S :    0.388737
  17 C :   -0.156991
  18 C :   -0.068406
  19 C :   -0.058603
  20 C :   -0.198800
  21 H :    0.035923
  22 C :   -0.034102
  23 H :    0.027122
  24 H :    0.038975
  25 C :   -0.040247
  26 H :    0.028625
  27 H :    0.007935
  28 C :   -0.050959
  29 H :    0.026412
  30 H :    0.023126
  31 H :    0.024705
  32 H :    0.017645
  33 H :    0.024345

  Mayer bond orders larger than 0.100000
B(  0-S ,  1-C ) :   1.1794 B(  0-S ,  4-C ) :   1.1549 B(  1-C ,  2-C ) :   1.5541
B(  1-C ,  4-C ) :   0.1014 B(  1-C , 32-H ) :   0.9783 B(  2-C ,  3-C ) :   1.2722
B(  2-C ,  6-C ) :   1.0368 B(  3-C ,  4-C ) :   1.5577 B(  3-C ,  5-H ) :   0.9860
B(  4-C , 20-C ) :   1.0121 B(  6-C ,  7-H ) :   0.9258 B(  6-C ,  8-H ) :   0.9249
B(  6-C ,  9-C ) :   1.0561 B(  9-C , 10-H ) :   0.9610 B(  9-C , 11-H ) :   0.9576
B(  9-C , 12-C ) :   1.0764 B( 12-C , 13-H ) :   0.9800 B( 12-C , 14-H ) :   0.9739
B( 12-C , 15-H ) :   0.9761 B( 16-S , 17-C ) :   1.1197 B( 16-S , 20-C ) :   1.1568
B( 17-C , 18-C ) :   1.6451 B( 17-C , 33-H ) :   0.9733 B( 18-C , 19-C ) :   1.2200
B( 18-C , 21-H ) :   0.9795 B( 19-C , 20-C ) :   1.6075 B( 19-C , 22-C ) :   1.0460
B( 22-C , 23-H ) :   0.9333 B( 22-C , 24-H ) :   0.9281 B( 22-C , 25-C ) :   1.0632
B( 25-C , 26-H ) :   0.9448 B( 25-C , 27-H ) :   0.9506 B( 25-C , 28-C ) :   1.0789
B( 28-C , 29-H ) :   0.9755 B( 28-C , 30-H ) :   0.9702 B( 28-C , 31-H ) :   0.9755

Dispersion correction           -0.014596599
FINAL SINGLE POINT ENERGY     -1339.852087325135

DIPOLE MOMENT
-------------
                                X             Y             Z
Electronic contribution:    -16.84327     -17.58669       2.15933
Nuclear contribution   :     17.16002      17.97245      -2.43143
                        -----------------------------------------
Total Dipole Moment    :      0.31675       0.38576      -0.27210
                        -----------------------------------------
Magnitude (a.u.)       :      0.56849
Magnitude (Debye)      :      1.44499

Rotational constants in cm-1:     0.022492     0.007522     0.006727
Rotational constants in MHz :   674.296436   225.500671   201.660646

                             ****ORCA TERMINATED NORMALLY****
TOTAL RUN TIME: 0 days 0 hours 0 minutes 21 seconds 571 msec
