                         Program Version 4.2.1 -  RELEASE  -
|  1> ! wB97X-D3 SP def2-SVP
|  2> %pal
|  3> nprocs 24
|  4> end
|  5>
|  6> * xyz 0 1
|  7> S 	 -72.7039 	 11.2787 	 -71.1062
|  8> C 	 -73.5246 	 11.8493 	 -72.5614
|  9> C 	 -72.925 	 11.3607 	 -73.6973
| 10> C 	 -72.0385 	 10.3222 	 -73.3758
| 11> C 	 -71.7606 	 10.086 	 -72.0655
| 12> H 	 -71.5148 	 9.75806 	 -74.0958
| 13> C 	 -73.3235 	 11.7193 	 -75.1295
| 14> H 	 -74.4043 	 12.0569 	 -75.0871
| 15> H 	 -73.2535 	 10.7021 	 -75.6189
| 16> C 	 -72.3612 	 12.8577 	 -75.6854
| 17> H 	 -71.3291 	 12.742 	 -75.329
| 18> H 	 -72.5254 	 12.8123 	 -76.7901
| 19> C 	 -72.6627 	 14.3069 	 -75.2991
| 20> H 	 -73.4688 	 14.7623 	 -75.8289
| 21> H 	 -72.9821 	 14.3978 	 -74.215
| 22> H 	 -71.7706 	 14.8802 	 -75.5598
| 23> S 	 -69.322 	 9.63925 	 -70.7483
| 24> C 	 -68.7957 	 7.94288 	 -70.6594
| 25> C 	 -69.6239 	 7.09425 	 -71.3441
| 26> C 	 -70.8269 	 7.74282 	 -71.7493
| 27> C 	 -70.8398 	 9.09812 	 -71.5315
| 28> H 	 -69.3609 	 6.03875 	 -71.377
| 29> C 	 -71.8997 	 6.81608 	 -72.3391
| 30> H 	 -71.5797 	 5.74176 	 -72.1965
| 31> H 	 -71.9308 	 7.07798 	 -73.4099
| 32> C 	 -73.3139 	 6.77734 	 -71.6501
| 33> H 	 -73.8106 	 7.7187 	 -71.7884
| 34> H 	 -73.0668 	 6.66566 	 -70.5694
| 35> C 	 -74.2286 	 5.72669 	 -72.1738
| 36> H 	 -74.5003 	 5.99981 	 -73.2591
| 37> H 	 -75.1572 	 5.68452 	 -71.5856
| 38> H 	 -73.7167 	 4.79769 	 -72.1173
| 39> H 	 -74.3862 	 12.5011 	 -72.5328
| 40> H 	 -67.8814 	 7.63596 	 -70.1221
| 41> *
| 42>
| 43>                          ****END OF INPUT****

CARTESIAN COORDINATES (ANGSTROEM)
---------------------------------
  S    -72.703900   11.278700  -71.106200
  C    -73.524600   11.849300  -72.561400
  C    -72.925000   11.360700  -73.697300
  C    -72.038500   10.322200  -73.375800
  C    -71.760600   10.086000  -72.065500
  H    -71.514800    9.758060  -74.095800
  C    -73.323500   11.719300  -75.129500
  H    -74.404300   12.056900  -75.087100
  H    -73.253500   10.702100  -75.618900
  C    -72.361200   12.857700  -75.685400
  H    -71.329100   12.742000  -75.329000
  H    -72.525400   12.812300  -76.790100
  C    -72.662700   14.306900  -75.299100
  H    -73.468800   14.762300  -75.828900
  H    -72.982100   14.397800  -74.215000
  H    -71.770600   14.880200  -75.559800
  S    -69.322000    9.639250  -70.748300
  C    -68.795700    7.942880  -70.659400
  C    -69.623900    7.094250  -71.344100
  C    -70.826900    7.742820  -71.749300
  C    -70.839800    9.098120  -71.531500
  H    -69.360900    6.038750  -71.377000
  C    -71.899700    6.816080  -72.339100
  H    -71.579700    5.741760  -72.196500
  H    -71.930800    7.077980  -73.409900
  C    -73.313900    6.777340  -71.650100
  H    -73.810600    7.718700  -71.788400
  H    -73.066800    6.665660  -70.569400
  C    -74.228600    5.726690  -72.173800
  H    -74.500300    5.999810  -73.259100
  H    -75.157200    5.684520  -71.585600
  H    -73.716700    4.797690  -72.117300
  H    -74.386200   12.501100  -72.532800
  H    -67.881400    7.635960  -70.122100

 Total Charge           Charge          ....    0
 Multiplicity           Mult            ....    1
 Number of Electrons    NEL             ....  134
 Basis Dimension        Dim             ....  322

ORBITAL ENERGIES
----------------

  NO   OCC          E(Eh)            E(eV)
   0   2.0000     -88.964501     -2420.8471
   1   2.0000     -88.961944     -2420.7776
   2   2.0000     -10.328263      -281.0463
   3   2.0000     -10.327651      -281.0297
   4   2.0000     -10.320895      -280.8458
   5   2.0000     -10.315268      -280.6927
   6   2.0000     -10.307479      -280.4808
   7   2.0000     -10.304539      -280.4008
   8   2.0000     -10.298066      -280.2246
   9   2.0000     -10.297102      -280.1984
  10   2.0000     -10.296627      -280.1855
  11   2.0000     -10.293044      -280.0880
  12   2.0000     -10.286764      -279.9171
  13   2.0000     -10.280600      -279.7493
  14   2.0000     -10.279208      -279.7115
  15   2.0000     -10.278769      -279.6995
  16   2.0000      -8.078463      -219.8261
  17   2.0000      -8.075954      -219.7579
  18   2.0000      -6.037071      -164.2771
  19   2.0000      -6.034518      -164.2076
  20   2.0000      -6.033226      -164.1724
  21   2.0000      -6.030583      -164.1005
  22   2.0000      -6.029013      -164.0578
  23   2.0000      -6.026670      -163.9940
  24   2.0000      -1.002761       -27.2865
  25   2.0000      -0.982062       -26.7233
  26   2.0000      -0.904223       -24.6052
  27   2.0000      -0.903843       -24.5948
  28   2.0000      -0.869150       -23.6508
  29   2.0000      -0.852702       -23.2032
  30   2.0000      -0.846927       -23.0460
  31   2.0000      -0.814503       -22.1637
  32   2.0000      -0.779079       -21.1998
  33   2.0000      -0.767942       -20.8968
  34   2.0000      -0.706508       -19.2251
  35   2.0000      -0.691646       -18.8207
  36   2.0000      -0.684818       -18.6348
  37   2.0000      -0.659246       -17.9390
  38   2.0000      -0.643195       -17.5022
  39   2.0000      -0.620262       -16.8782
  40   2.0000      -0.589109       -16.0305
  41   2.0000      -0.573262       -15.5992
  42   2.0000      -0.569218       -15.4892
  43   2.0000      -0.546049       -14.8588
  44   2.0000      -0.537503       -14.6262
  45   2.0000      -0.521446       -14.1893
  46   2.0000      -0.518670       -14.1137
  47   2.0000      -0.512717       -13.9517
  48   2.0000      -0.503628       -13.7044
  49   2.0000      -0.495720       -13.4892
  50   2.0000      -0.489321       -13.3151
  51   2.0000      -0.480573       -13.0771
  52   2.0000      -0.473186       -12.8760
  53   2.0000      -0.460248       -12.5240
  54   2.0000      -0.455829       -12.4037
  55   2.0000      -0.447245       -12.1701
  56   2.0000      -0.441506       -12.0140
  57   2.0000      -0.433162       -11.7869
  58   2.0000      -0.430491       -11.7143
  59   2.0000      -0.423856       -11.5337
  60   2.0000      -0.418172       -11.3790
  61   2.0000      -0.411443       -11.1959
  62   2.0000      -0.403947       -10.9920
  63   2.0000      -0.341968        -9.3054
  64   2.0000      -0.330619        -8.9966
  65   2.0000      -0.328777        -8.9465
  66   2.0000      -0.297085        -8.0841
  67   0.0000       0.032561         0.8860
  68   0.0000       0.059733         1.6254
  69   0.0000       0.109069         2.9679
  70   0.0000       0.122273         3.3272
  71   0.0000       0.128417         3.4944

MULLIKEN ATOMIC CHARGES
-----------------------
   0 S :    0.092459
   1 C :   -0.131058
   2 C :   -0.085451
   3 C :    0.049468
   4 C :   -0.162820
   5 H :   -0.009792
   6 C :    0.031072
   7 H :    0.040067
   8 H :    0.045797
   9 C :   -0.078565
  10 H :    0.048867
  11 H :    0.045529
  12 C :   -0.063031
  13 H :    0.021247
  14 H :    0.037904
  15 H :    0.043180
  16 S :    0.095496
  17 C :   -0.106187
  18 C :   -0.035268
  19 C :   -0.028524
  20 C :   -0.143498
  21 H :    0.028758
  22 C :    0.034791
  23 H :    0.023313
  24 H :    0.037282
  25 C :   -0.082002
  26 H :    0.033486
  27 H :    0.036705
  28 C :   -0.039391
  29 H :    0.039840
  30 H :    0.044328
  31 H :    0.019760
  32 H :    0.049169
  33 H :    0.067069
Sum of atomic charges:   -0.0000000

LOEWDIN ATOMIC CHARGES
----------------------
   0 S :    0.370824
   1 C :   -0.183494
   2 C :   -0.073990
   3 C :   -0.055682
   4 C :   -0.182149
   5 H :    0.023388
   6 C :   -0.035304
   7 H :    0.036866
   8 H :    0.039269
   9 C :   -0.042755
  10 H :    0.031665
  11 H :    0.031588
  12 C :   -0.070641
  13 H :    0.016129
  14 H :    0.030563
  15 H :    0.031810
  16 S :    0.372288
  17 C :   -0.169047
  18 C :   -0.075067
  19 C :   -0.053304
  20 C :   -0.191594
  21 H :    0.036214
  22 C :   -0.032258
  23 H :    0.032107
  24 H :    0.030743
  25 C :   -0.045018
  26 H :    0.020756
  27 H :    0.028408
  28 C :   -0.064998
  29 H :    0.035609
  30 H :    0.031823
  31 H :    0.015897
  32 H :    0.025628
  33 H :    0.033726

  Mayer bond orders larger than 0.100000
B(  0-S ,  1-C ) :   1.1442 B(  0-S ,  4-C ) :   1.1141 B(  1-C ,  2-C ) :   1.6023
B(  1-C , 32-H ) :   0.9683 B(  2-C ,  3-C ) :   1.2448 B(  2-C ,  6-C ) :   1.0024
B(  3-C ,  4-C ) :   1.6056 B(  3-C ,  5-H ) :   0.9975 B(  4-C , 20-C ) :   1.0464
B(  6-C ,  7-H ) :   0.9497 B(  6-C ,  8-H ) :   0.9499 B(  6-C ,  9-C ) :   1.0339
B(  9-C , 10-H ) :   0.9648 B(  9-C , 11-H ) :   0.9575 B(  9-C , 12-C ) :   1.0749
B( 12-C , 13-H ) :   0.9770 B( 12-C , 14-H ) :   0.9720 B( 12-C , 15-H ) :   0.9749
B( 16-S , 17-C ) :   1.1463 B( 16-S , 20-C ) :   1.1138 B( 17-C , 18-C ) :   1.6380
B( 17-C , 33-H ) :   0.9617 B( 18-C , 19-C ) :   1.2200 B( 18-C , 21-H ) :   0.9880
B( 19-C , 20-C ) :   1.6304 B( 19-C , 22-C ) :   1.0290 B( 22-C , 23-H ) :   0.9475
B( 22-C , 24-H ) :   0.9257 B( 22-C , 25-C ) :   1.0570 B( 25-C , 26-H ) :   0.9519
B( 25-C , 27-H ) :   0.9550 B( 25-C , 28-C ) :   1.0957 B( 28-C , 29-H ) :   0.9712
B( 28-C , 30-H ) :   0.9708 B( 28-C , 31-H ) :   0.9731

Dispersion correction           -0.014356303
FINAL SINGLE POINT ENERGY     -1339.869650979215

DIPOLE MOMENT
-------------
                                X             Y             Z
Electronic contribution:     13.28332       3.60914      17.21440
Nuclear contribution   :    -13.47066      -3.90573     -17.77570
                        -----------------------------------------
Total Dipole Moment    :     -0.18734      -0.29659      -0.56130
                        -----------------------------------------
Magnitude (a.u.)       :      0.66190
Magnitude (Debye)      :      1.68243

Rotational constants in cm-1:     0.018414     0.008294     0.006881
Rotational constants in MHz :   552.035685   248.645771   206.284762

                             ****ORCA TERMINATED NORMALLY****
TOTAL RUN TIME: 0 days 0 hours 0 minutes 21 seconds 306 msec
