                         Program Version 4.2.1 -  RELEASE  -
|  1> ! wB97X-D3 SP def2-SVP
|  2> %pal
|  3> nprocs 24
|  4> end
|  5>
|  6> * xyz 0 1
|  7> S 	 -65.1933 	 11.5514 	 -99.3883
|  8> C 	 -63.7283 	 12.0736 	 -98.5791
|  9> C 	 -63.0477 	 10.9688 	 -98.1135
| 10> C 	 -63.7787 	 9.72498 	 -98.2325
| 11> C 	 -64.8149 	 9.83993 	 -99.1195
| 12> H 	 -63.5581 	 8.69338 	 -97.9014
| 13> C 	 -61.7802 	 10.9848 	 -97.3867
| 14> H 	 -61.8046 	 10.0761 	 -96.6926
| 15> H 	 -61.7534 	 11.9159 	 -96.7548
| 16> C 	 -60.5829 	 11.0124 	 -98.3038
| 17> H 	 -60.8419 	 10.3859 	 -99.1976
| 18> H 	 -60.3835 	 12.0429 	 -98.7009
| 19> C 	 -59.3357 	 10.4827 	 -97.612
| 20> H 	 -59.5282 	 9.54841 	 -97.1244
| 21> H 	 -58.4997 	 10.2494 	 -98.2993
| 22> H 	 -58.9323 	 11.2412 	 -96.9226
| 23> S 	 -66.9841 	 8.38398 	 -98.3057
| 24> C 	 -67.5611 	 7.04401 	 -99.3677
| 25> C 	 -66.7253 	 6.78815 	 -100.455
| 26> C 	 -65.6489 	 7.82314 	 -100.55
| 27> C 	 -65.6819 	 8.76034 	 -99.4938
| 28> H 	 -66.8167 	 5.97477 	 -101.12
| 29> C 	 -64.5968 	 7.75699 	 -101.599
| 30> H 	 -64.2245 	 6.72238 	 -101.672
| 31> H 	 -63.6985 	 8.2714 	 -101.364
| 32> C 	 -65.1472 	 8.44203 	 -102.911
| 33> H 	 -65.6211 	 9.39628 	 -102.581
| 34> H 	 -65.9363 	 7.88385 	 -103.348
| 35> C 	 -63.9242 	 8.76718 	 -103.776
| 36> H 	 -63.4722 	 9.74457 	 -103.387
| 37> H 	 -64.2788 	 8.97997 	 -104.88
| 38> H 	 -63.21 	 7.93469 	 -103.682
| 39> H 	 -63.2991 	 13.048 	 -98.6573
| 40> H 	 -68.5159 	 6.50438 	 -99.172
| 41> *
| 42>
| 43>                          ****END OF INPUT****

CARTESIAN COORDINATES (ANGSTROEM)
---------------------------------
  S    -65.193300   11.551400  -99.388300
  C    -63.728300   12.073600  -98.579100
  C    -63.047700   10.968800  -98.113500
  C    -63.778700    9.724980  -98.232500
  C    -64.814900    9.839930  -99.119500
  H    -63.558100    8.693380  -97.901400
  C    -61.780200   10.984800  -97.386700
  H    -61.804600   10.076100  -96.692600
  H    -61.753400   11.915900  -96.754800
  C    -60.582900   11.012400  -98.303800
  H    -60.841900   10.385900  -99.197600
  H    -60.383500   12.042900  -98.700900
  C    -59.335700   10.482700  -97.612000
  H    -59.528200    9.548410  -97.124400
  H    -58.499700   10.249400  -98.299300
  H    -58.932300   11.241200  -96.922600
  S    -66.984100    8.383980  -98.305700
  C    -67.561100    7.044010  -99.367700
  C    -66.725300    6.788150  -100.455000
  C    -65.648900    7.823140  -100.550000
  C    -65.681900    8.760340  -99.493800
  H    -66.816700    5.974770  -101.120000
  C    -64.596800    7.756990  -101.599000
  H    -64.224500    6.722380  -101.672000
  H    -63.698500    8.271400  -101.364000
  C    -65.147200    8.442030  -102.911000
  H    -65.621100    9.396280  -102.581000
  H    -65.936300    7.883850  -103.348000
  C    -63.924200    8.767180  -103.776000
  H    -63.472200    9.744570  -103.387000
  H    -64.278800    8.979970  -104.880000
  H    -63.210000    7.934690  -103.682000
  H    -63.299100   13.048000  -98.657300
  H    -68.515900    6.504380  -99.172000

 Total Charge           Charge          ....    0
 Multiplicity           Mult            ....    1
 Number of Electrons    NEL             ....  134
 Basis Dimension        Dim             ....  322

ORBITAL ENERGIES
----------------

  NO   OCC          E(Eh)            E(eV)
   0   2.0000     -88.964033     -2420.8344
   1   2.0000     -88.962966     -2420.8054
   2   2.0000     -10.328504      -281.0529
   3   2.0000     -10.327773      -281.0330
   4   2.0000     -10.325869      -280.9812
   5   2.0000     -10.312589      -280.6198
   6   2.0000     -10.311804      -280.5984
   7   2.0000     -10.302003      -280.3317
   8   2.0000     -10.298860      -280.2462
   9   2.0000     -10.296233      -280.1747
  10   2.0000     -10.292169      -280.0641
  11   2.0000     -10.291856      -280.0556
  12   2.0000     -10.290221      -280.0112
  13   2.0000     -10.289094      -279.9805
  14   2.0000     -10.285795      -279.8907
  15   2.0000     -10.277957      -279.6774
  16   2.0000      -8.077372      -219.7965
  17   2.0000      -8.077281      -219.7940
  18   2.0000      -6.036024      -164.2486
  19   2.0000      -6.035997      -164.2478
  20   2.0000      -6.032108      -164.1420
  21   2.0000      -6.031919      -164.1369
  22   2.0000      -6.028021      -164.0308
  23   2.0000      -6.027771      -164.0240
  24   2.0000      -1.001408       -27.2497
  25   2.0000      -0.971629       -26.4394
  26   2.0000      -0.916971       -24.9520
  27   2.0000      -0.906301       -24.6617
  28   2.0000      -0.870497       -23.6874
  29   2.0000      -0.847785       -23.0694
  30   2.0000      -0.841418       -22.8962
  31   2.0000      -0.813417       -22.1342
  32   2.0000      -0.775697       -21.1078
  33   2.0000      -0.759640       -20.6709
  34   2.0000      -0.701777       -19.0963
  35   2.0000      -0.698711       -19.0129
  36   2.0000      -0.693942       -18.8831
  37   2.0000      -0.662642       -18.0314
  38   2.0000      -0.644394       -17.5349
  39   2.0000      -0.611339       -16.6354
  40   2.0000      -0.594525       -16.1778
  41   2.0000      -0.567564       -15.4442
  42   2.0000      -0.564470       -15.3600
  43   2.0000      -0.557706       -15.1760
  44   2.0000      -0.526356       -14.3229
  45   2.0000      -0.525815       -14.3081
  46   2.0000      -0.518111       -14.0985
  47   2.0000      -0.513085       -13.9617
  48   2.0000      -0.500642       -13.6232
  49   2.0000      -0.498002       -13.5513
  50   2.0000      -0.493184       -13.4202
  51   2.0000      -0.472296       -12.8518
  52   2.0000      -0.464361       -12.6359
  53   2.0000      -0.461722       -12.5641
  54   2.0000      -0.453955       -12.3527
  55   2.0000      -0.446980       -12.1629
  56   2.0000      -0.442159       -12.0318
  57   2.0000      -0.437404       -11.9024
  58   2.0000      -0.433589       -11.7986
  59   2.0000      -0.423332       -11.5195
  60   2.0000      -0.416919       -11.3449
  61   2.0000      -0.413249       -11.2451
  62   2.0000      -0.409992       -11.1564
  63   2.0000      -0.334398        -9.0994
  64   2.0000      -0.325867        -8.8673
  65   2.0000      -0.313583        -8.5330
  66   2.0000      -0.309826        -8.4308
  67   0.0000       0.041799         1.1374
  68   0.0000       0.045473         1.2374
  69   0.0000       0.100977         2.7477
  70   0.0000       0.114574         3.1177
  71   0.0000       0.127137         3.4596

MULLIKEN ATOMIC CHARGES
-----------------------
   0 S :    0.100554
   1 C :   -0.097719
   2 C :   -0.087758
   3 C :    0.021946
   4 C :   -0.161477
   5 H :    0.034340
   6 C :    0.029244
   7 H :    0.040371
   8 H :    0.035150
   9 C :   -0.089564
  10 H :    0.036145
  11 H :    0.035321
  12 C :   -0.040342
  13 H :    0.025026
  14 H :    0.032237
  15 H :    0.035329
  16 S :    0.097007
  17 C :   -0.103322
  18 C :    0.000779
  19 C :   -0.047166
  20 C :   -0.184361
  21 H :    0.010309
  22 C :    0.056263
  23 H :    0.034010
  24 H :    0.011333
  25 C :   -0.069669
  26 H :    0.039177
  27 H :    0.025807
  28 C :   -0.095880
  29 H :    0.057323
  30 H :    0.052061
  31 H :    0.045152
  32 H :    0.045194
  33 H :    0.077177
Sum of atomic charges:   -0.0000000

LOEWDIN ATOMIC CHARGES
----------------------
   0 S :    0.390380
   1 C :   -0.195065
   2 C :   -0.064510
   3 C :   -0.058766
   4 C :   -0.196405
   5 H :    0.041063
   6 C :   -0.044409
   7 H :    0.038653
   8 H :    0.035848
   9 C :   -0.047033
  10 H :    0.026800
  11 H :    0.028680
  12 C :   -0.068023
  13 H :    0.020155
  14 H :    0.028497
  15 H :    0.028352
  16 S :    0.361105
  17 C :   -0.167236
  18 C :   -0.064077
  19 C :   -0.037938
  20 C :   -0.195622
  21 H :    0.025412
  22 C :   -0.037178
  23 H :    0.034129
  24 H :    0.024314
  25 C :   -0.036055
  26 H :    0.031052
  27 H :    0.014809
  28 C :   -0.078620
  29 H :    0.037286
  30 H :    0.036853
  31 H :    0.024088
  32 H :    0.026752
  33 H :    0.036707

  Mayer bond orders larger than 0.100000
B(  0-S ,  1-C ) :   1.1241 B(  0-S ,  4-C ) :   1.1369 B(  1-C ,  2-C ) :   1.6282
B(  1-C , 32-H ) :   0.9693 B(  2-C ,  3-C ) :   1.2014 B(  2-C ,  6-C ) :   1.0358
B(  3-C ,  4-C ) :   1.6133 B(  3-C ,  5-H ) :   0.9849 B(  4-C , 20-C ) :   1.0394
B(  6-C ,  7-H ) :   0.9492 B(  6-C ,  8-H ) :   0.9338 B(  6-C ,  9-C ) :   1.0472
B(  9-C , 10-H ) :   0.9605 B(  9-C , 11-H ) :   0.9506 B(  9-C , 12-C ) :   1.0857
B( 12-C , 13-H ) :   0.9764 B( 12-C , 14-H ) :   0.9739 B( 12-C , 15-H ) :   0.9725
B( 16-S , 17-C ) :   1.1354 B( 16-S , 20-C ) :   1.1101 B( 17-C , 18-C ) :   1.6405
B( 17-C , 33-H ) :   0.9606 B( 18-C , 19-C ) :   1.1916 B( 18-C , 21-H ) :   0.9935
B( 19-C , 20-C ) :   1.6336 B( 19-C , 22-C ) :   1.0666 B( 22-C , 23-H ) :   0.9293
B( 22-C , 24-H ) :   0.9371 B( 22-C , 25-C ) :   1.0316 B( 25-C , 26-H ) :   0.9594
B( 25-C , 27-H ) :   0.9646 B( 25-C , 28-C ) :   1.0648 B( 28-C , 29-H ) :   0.9754
B( 28-C , 30-H ) :   0.9730 B( 28-C , 31-H ) :   0.9728

Dispersion correction           -0.014135703
FINAL SINGLE POINT ENERGY     -1339.862596407564

DIPOLE MOMENT
-------------
                                X             Y             Z
Electronic contribution:    -24.20876       1.77273       9.73841
Nuclear contribution   :     24.74865      -2.07677      -9.93607
                        -----------------------------------------
Total Dipole Moment    :      0.53989      -0.30404      -0.19766
                        -----------------------------------------
Magnitude (a.u.)       :      0.65038
Magnitude (Debye)      :      1.65314

Rotational constants in cm-1:     0.017660     0.008322     0.007066
Rotational constants in MHz :   529.441793   249.472356   211.836979

                             ****ORCA TERMINATED NORMALLY****
TOTAL RUN TIME: 0 days 0 hours 0 minutes 20 seconds 212 msec
