                         Program Version 4.2.1 -  RELEASE  -
|  1> ! wB97X-D3 SP def2-SVP
|  2> %pal
|  3> nprocs 24
|  4> end
|  5>
|  6> * xyz 0 1
|  7> S 	 -134.039 	 6.04874 	 5.39591
|  8> C 	 -134.351 	 4.63132 	 4.53998
|  9> C 	 -134.622 	 3.51049 	 5.36808
| 10> C 	 -134.467 	 3.88797 	 6.77578
| 11> C 	 -134.139 	 5.22676 	 6.96274
| 12> H 	 -134.505 	 3.24736 	 7.65649
| 13> C 	 -134.849 	 2.14397 	 4.89352
| 14> H 	 -135.293 	 2.29896 	 3.91663
| 15> H 	 -135.565 	 1.77385 	 5.66113
| 16> C 	 -133.744 	 1.16021 	 4.61712
| 17> H 	 -133.327 	 1.47682 	 3.65359
| 18> H 	 -133.007 	 1.17695 	 5.35617
| 19> C 	 -134.121 	 -0.332884 	 4.56113
| 20> H 	 -134.152 	 -0.732472 	 5.59215
| 21> H 	 -135.054 	 -0.399554 	 4.04159
| 22> H 	 -133.332 	 -0.952893 	 4.03823
| 23> S 	 -132.738 	 7.23707 	 8.15076
| 24> C 	 -132.724 	 7.36546 	 9.87402
| 25> C 	 -133.548 	 6.4693 	 10.4555
| 26> C 	 -134.245 	 5.66957 	 9.50581
| 27> C 	 -133.742 	 5.81023 	 8.2211
| 28> H 	 -133.489 	 6.41354 	 11.5282
| 29> C 	 -135.37 	 4.75364 	 9.89851
| 30> H 	 -135.814 	 4.33025 	 8.96131
| 31> H 	 -136.061 	 5.46243 	 10.365
| 32> C 	 -135.012 	 3.69465 	 10.9731
| 33> H 	 -135.813 	 2.90684 	 10.9949
| 34> H 	 -135.062 	 3.96588 	 11.9939
| 35> C 	 -133.727 	 2.90923 	 10.7308
| 36> H 	 -133.52 	 2.33006 	 11.5671
| 37> H 	 -132.799 	 3.49509 	 10.5109
| 38> H 	 -133.802 	 2.15502 	 9.95232
| 39> H 	 -134.531 	 4.58956 	 3.47051
| 40> H 	 -132.292 	 8.15748 	 10.5266
| 41> *
| 42>
| 43>                          ****END OF INPUT****

CARTESIAN COORDINATES (ANGSTROEM)
---------------------------------
  S    -134.039000    6.048740    5.395910
  C    -134.351000    4.631320    4.539980
  C    -134.622000    3.510490    5.368080
  C    -134.467000    3.887970    6.775780
  C    -134.139000    5.226760    6.962740
  H    -134.505000    3.247360    7.656490
  C    -134.849000    2.143970    4.893520
  H    -135.293000    2.298960    3.916630
  H    -135.565000    1.773850    5.661130
  C    -133.744000    1.160210    4.617120
  H    -133.327000    1.476820    3.653590
  H    -133.007000    1.176950    5.356170
  C    -134.121000   -0.332884    4.561130
  H    -134.152000   -0.732472    5.592150
  H    -135.054000   -0.399554    4.041590
  H    -133.332000   -0.952893    4.038230
  S    -132.738000    7.237070    8.150760
  C    -132.724000    7.365460    9.874020
  C    -133.548000    6.469300   10.455500
  C    -134.245000    5.669570    9.505810
  C    -133.742000    5.810230    8.221100
  H    -133.489000    6.413540   11.528200
  C    -135.370000    4.753640    9.898510
  H    -135.814000    4.330250    8.961310
  H    -136.061000    5.462430   10.365000
  C    -135.012000    3.694650   10.973100
  H    -135.813000    2.906840   10.994900
  H    -135.062000    3.965880   11.993900
  C    -133.727000    2.909230   10.730800
  H    -133.520000    2.330060   11.567100
  H    -132.799000    3.495090   10.510900
  H    -133.802000    2.155020    9.952320
  H    -134.531000    4.589560    3.470510
  H    -132.292000    8.157480   10.526600

 Total Charge           Charge          ....    0
 Multiplicity           Mult            ....    1
 Number of Electrons    NEL             ....  134
 Basis Dimension        Dim             ....  322

ORBITAL ENERGIES
----------------

  NO   OCC          E(Eh)            E(eV)
   0   2.0000     -88.968957     -2420.9684
   1   2.0000     -88.962168     -2420.7836
   2   2.0000     -10.329952      -281.0923
   3   2.0000     -10.323875      -280.9269
   4   2.0000     -10.313500      -280.6446
   5   2.0000     -10.312764      -280.6246
   6   2.0000     -10.304457      -280.3985
   7   2.0000     -10.301107      -280.3074
   8   2.0000     -10.297160      -280.2000
   9   2.0000     -10.295165      -280.1457
  10   2.0000     -10.289967      -280.0042
  11   2.0000     -10.288464      -279.9633
  12   2.0000     -10.287452      -279.9358
  13   2.0000     -10.283247      -279.8214
  14   2.0000     -10.279761      -279.7265
  15   2.0000     -10.271914      -279.5130
  16   2.0000      -8.084198      -219.9822
  17   2.0000      -8.077645      -219.8039
  18   2.0000      -6.042740      -164.4313
  19   2.0000      -6.038551      -164.3173
  20   2.0000      -6.036192      -164.2531
  21   2.0000      -6.034985      -164.2203
  22   2.0000      -6.032176      -164.1438
  23   2.0000      -6.028194      -164.0355
  24   2.0000      -1.011138       -27.5145
  25   2.0000      -0.987384       -26.8681
  26   2.0000      -0.918420       -24.9915
  27   2.0000      -0.909229       -24.7414
  28   2.0000      -0.875844       -23.8329
  29   2.0000      -0.855603       -23.2821
  30   2.0000      -0.847961       -23.0742
  31   2.0000      -0.820032       -22.3142
  32   2.0000      -0.783815       -21.3287
  33   2.0000      -0.770362       -20.9626
  34   2.0000      -0.711221       -19.3533
  35   2.0000      -0.700543       -19.0627
  36   2.0000      -0.695576       -18.9276
  37   2.0000      -0.660402       -17.9705
  38   2.0000      -0.637355       -17.3433
  39   2.0000      -0.622553       -16.9405
  40   2.0000      -0.587841       -15.9960
  41   2.0000      -0.571924       -15.5628
  42   2.0000      -0.567656       -15.4467
  43   2.0000      -0.559376       -15.2214
  44   2.0000      -0.541757       -14.7420
  45   2.0000      -0.526705       -14.3324
  46   2.0000      -0.516956       -14.0671
  47   2.0000      -0.512184       -13.9372
  48   2.0000      -0.507758       -13.8168
  49   2.0000      -0.498322       -13.5600
  50   2.0000      -0.489988       -13.3333
  51   2.0000      -0.486852       -13.2479
  52   2.0000      -0.467927       -12.7329
  53   2.0000      -0.464808       -12.6481
  54   2.0000      -0.459364       -12.4999
  55   2.0000      -0.454249       -12.3607
  56   2.0000      -0.446832       -12.1589
  57   2.0000      -0.441242       -12.0068
  58   2.0000      -0.435286       -11.8447
  59   2.0000      -0.422239       -11.4897
  60   2.0000      -0.417366       -11.3571
  61   2.0000      -0.413195       -11.2436
  62   2.0000      -0.407802       -11.0969
  63   2.0000      -0.363185        -9.8828
  64   2.0000      -0.330872        -9.0035
  65   2.0000      -0.322764        -8.7829
  66   2.0000      -0.281093        -7.6489
  67   0.0000       0.025121         0.6836
  68   0.0000       0.081347         2.2136
  69   0.0000       0.103624         2.8198
  70   0.0000       0.115398         3.1401
  71   0.0000       0.130197         3.5429

MULLIKEN ATOMIC CHARGES
-----------------------
   0 S :    0.125144
   1 C :   -0.115173
   2 C :   -0.106170
   3 C :    0.002631
   4 C :   -0.139406
   5 H :    0.011027
   6 C :    0.053772
   7 H :    0.015521
   8 H :    0.029718
   9 C :   -0.017519
  10 H :    0.020814
  11 H :    0.010389
  12 C :   -0.074451
  13 H :    0.039135
  14 H :    0.031470
  15 H :    0.045827
  16 S :    0.089705
  17 C :   -0.089360
  18 C :   -0.038710
  19 C :   -0.082729
  20 C :   -0.124533
  21 H :    0.018454
  22 C :    0.087649
  23 H :    0.039768
  24 H :    0.038951
  25 C :   -0.070883
  26 H :    0.025411
  27 H :    0.019744
  28 C :   -0.049980
  29 H :    0.010452
  30 H :    0.051597
  31 H :    0.024742
  32 H :    0.051181
  33 H :    0.065813
Sum of atomic charges:    0.0000000

LOEWDIN ATOMIC CHARGES
----------------------
   0 S :    0.424570
   1 C :   -0.222030
   2 C :   -0.061688
   3 C :   -0.063667
   4 C :   -0.189392
   5 H :    0.029693
   6 C :   -0.044363
   7 H :    0.033424
   8 H :    0.036363
   9 C :   -0.036335
  10 H :    0.024571
  11 H :    0.014058
  12 C :   -0.063572
  13 H :    0.028049
  14 H :    0.018959
  15 H :    0.035571
  16 S :    0.403130
  17 C :   -0.192956
  18 C :   -0.077567
  19 C :   -0.056368
  20 C :   -0.197656
  21 H :    0.032670
  22 C :   -0.034457
  23 H :    0.037063
  24 H :    0.040794
  25 C :   -0.045422
  26 H :    0.033900
  27 H :    0.019185
  28 C :   -0.070347
  29 H :    0.018370
  30 H :    0.032646
  31 H :    0.021198
  32 H :    0.029089
  33 H :    0.042518

  Mayer bond orders larger than 0.100000
B(  0-S ,  1-C ) :   1.1587 B(  0-S ,  4-C ) :   1.1395 B(  1-C ,  2-C ) :   1.5764
B(  1-C , 32-H ) :   0.9630 B(  2-C ,  3-C ) :   1.2386 B(  2-C ,  6-C ) :   1.0524
B(  3-C ,  4-C ) :   1.5590 B(  3-C ,  5-H ) :   0.9872 B(  4-C , 20-C ) :   1.0937
B(  6-C ,  7-H ) :   0.9251 B(  6-C ,  8-H ) :   0.9339 B(  6-C ,  9-C ) :   1.0690
B(  9-C , 10-H ) :   0.9525 B(  9-C , 11-H ) :   0.9592 B(  9-C , 12-C ) :   1.0774
B( 12-C , 13-H ) :   0.9774 B( 12-C , 14-H ) :   0.9778 B( 12-C , 15-H ) :   0.9738
B( 16-S , 17-C ) :   1.1512 B( 16-S , 20-C ) :   1.1163 B( 17-C , 18-C ) :   1.6533
B( 17-C , 33-H ) :   0.9561 B( 18-C , 19-C ) :   1.2086 B( 18-C , 21-H ) :   0.9925
B( 19-C , 20-C ) :   1.5846 B( 19-C , 22-C ) :   1.0519 B( 22-C , 23-H ) :   0.9317
B( 22-C , 24-H ) :   0.9241 B( 22-C , 25-C ) :   1.0612 B( 25-C , 26-H ) :   0.9516
B( 25-C , 27-H ) :   0.9570 B( 25-C , 28-C ) :   1.0855 B( 28-C , 29-H ) :   0.9683
B( 28-C , 30-H ) :   0.9695 B( 28-C , 31-H ) :   0.9728

Dispersion correction           -0.014339586
FINAL SINGLE POINT ENERGY     -1339.864292975121

DIPOLE MOMENT
-------------
                                X             Y             Z
Electronic contribution:      5.02591      29.40628      -5.04323
Nuclear contribution   :     -5.23852     -29.94217       5.42106
                        -----------------------------------------
Total Dipole Moment    :     -0.21262      -0.53588       0.37783
                        -----------------------------------------
Magnitude (a.u.)       :      0.68930
Magnitude (Debye)      :      1.75205

Rotational constants in cm-1:     0.019024     0.008765     0.006526
Rotational constants in MHz :   570.324183   262.757272   195.647958

                             ****ORCA TERMINATED NORMALLY****
TOTAL RUN TIME: 0 days 0 hours 0 minutes 21 seconds 946 msec
