                         Program Version 4.2.1 -  RELEASE  -
|  1> ! wB97X-D3 SP def2-SVP
|  2> %pal
|  3> nprocs 24
|  4> end
|  5>
|  6> * xyz 0 1
|  7> S 	 -103.273 	 42.2574 	 -92.9767
|  8> C 	 -102.714 	 40.9874 	 -91.9795
|  9> C 	 -101.891 	 40.121 	 -92.7037
| 10> C 	 -101.932 	 40.3673 	 -94.074
| 11> C 	 -102.697 	 41.4399 	 -94.3821
| 12> H 	 -101.527 	 39.7793 	 -94.901
| 13> C 	 -100.947 	 39.144 	 -92.0068
| 14> H 	 -101.447 	 38.2119 	 -92.1229
| 15> H 	 -100.936 	 39.2131 	 -90.9063
| 16> C 	 -99.5734 	 39.205 	 -92.5521
| 17> H 	 -99.687 	 39.2641 	 -93.656
| 18> H 	 -99.0696 	 40.2155 	 -92.2898
| 19> C 	 -98.6511 	 38.0272 	 -92.0973
| 20> H 	 -97.605 	 38.2222 	 -92.4825
| 21> H 	 -98.5877 	 37.9011 	 -91.0496
| 22> H 	 -98.7668 	 37.1319 	 -92.6685
| 23> S 	 -104.327 	 43.0169 	 -95.9649
| 24> C 	 -104.113 	 43.1737 	 -97.6601
| 25> C 	 -103.11 	 42.3406 	 -98.1178
| 26> C 	 -102.512 	 41.5882 	 -97.0016
| 27> C 	 -102.97 	 41.9612 	 -95.7508
| 28> H 	 -102.87 	 42.384 	 -99.1152
| 29> C 	 -101.31 	 40.6943 	 -97.314
| 30> H 	 -100.64 	 40.8577 	 -96.4324
| 31> H 	 -100.753 	 40.9955 	 -98.2674
| 32> C 	 -101.524 	 39.1505 	 -97.3938
| 33> H 	 -102.128 	 38.9263 	 -96.5403
| 34> H 	 -100.619 	 38.6834 	 -97.264
| 35> C 	 -102.375 	 38.5562 	 -98.5517
| 36> H 	 -103.271 	 39.1821 	 -98.56
| 37> H 	 -102.687 	 37.5294 	 -98.4148
| 38> H 	 -101.97 	 38.5331 	 -99.5532
| 39> H 	 -102.637 	 41.0307 	 -90.8711
| 40> H 	 -104.563 	 44.0266 	 -98.1917
| 41> *
| 42>
| 43>                          ****END OF INPUT****

CARTESIAN COORDINATES (ANGSTROEM)
---------------------------------
  S    -103.273000   42.257400  -92.976700
  C    -102.714000   40.987400  -91.979500
  C    -101.891000   40.121000  -92.703700
  C    -101.932000   40.367300  -94.074000
  C    -102.697000   41.439900  -94.382100
  H    -101.527000   39.779300  -94.901000
  C    -100.947000   39.144000  -92.006800
  H    -101.447000   38.211900  -92.122900
  H    -100.936000   39.213100  -90.906300
  C    -99.573400   39.205000  -92.552100
  H    -99.687000   39.264100  -93.656000
  H    -99.069600   40.215500  -92.289800
  C    -98.651100   38.027200  -92.097300
  H    -97.605000   38.222200  -92.482500
  H    -98.587700   37.901100  -91.049600
  H    -98.766800   37.131900  -92.668500
  S    -104.327000   43.016900  -95.964900
  C    -104.113000   43.173700  -97.660100
  C    -103.110000   42.340600  -98.117800
  C    -102.512000   41.588200  -97.001600
  C    -102.970000   41.961200  -95.750800
  H    -102.870000   42.384000  -99.115200
  C    -101.310000   40.694300  -97.314000
  H    -100.640000   40.857700  -96.432400
  H    -100.753000   40.995500  -98.267400
  C    -101.524000   39.150500  -97.393800
  H    -102.128000   38.926300  -96.540300
  H    -100.619000   38.683400  -97.264000
  C    -102.375000   38.556200  -98.551700
  H    -103.271000   39.182100  -98.560000
  H    -102.687000   37.529400  -98.414800
  H    -101.970000   38.533100  -99.553200
  H    -102.637000   41.030700  -90.871100
  H    -104.563000   44.026600  -98.191700

 Total Charge           Charge          ....    0
 Multiplicity           Mult            ....    1
 Number of Electrons    NEL             ....  134
 Basis Dimension        Dim             ....  322

ORBITAL ENERGIES
----------------

  NO   OCC          E(Eh)            E(eV)
   0   2.0000     -88.969518     -2420.9837
   1   2.0000     -88.961707     -2420.7711
   2   2.0000     -10.331186      -281.1259
   3   2.0000     -10.330490      -281.1069
   4   2.0000     -10.316433      -280.7244
   5   2.0000     -10.311880      -280.6005
   6   2.0000     -10.309858      -280.5455
   7   2.0000     -10.303128      -280.3624
   8   2.0000     -10.300289      -280.2851
   9   2.0000     -10.296140      -280.1722
  10   2.0000     -10.293968      -280.1131
  11   2.0000     -10.290593      -280.0213
  12   2.0000     -10.287405      -279.9345
  13   2.0000     -10.283131      -279.8182
  14   2.0000     -10.281183      -279.7652
  15   2.0000     -10.275895      -279.6213
  16   2.0000      -8.085177      -220.0088
  17   2.0000      -8.077745      -219.8066
  18   2.0000      -6.043550      -164.4534
  19   2.0000      -6.039682      -164.3481
  20   2.0000      -6.036257      -164.2549
  21   2.0000      -6.035896      -164.2451
  22   2.0000      -6.031945      -164.1376
  23   2.0000      -6.028551      -164.0452
  24   2.0000      -1.017698       -27.6930
  25   2.0000      -0.992930       -27.0190
  26   2.0000      -0.916840       -24.9485
  27   2.0000      -0.906119       -24.6567
  28   2.0000      -0.870798       -23.6956
  29   2.0000      -0.855453       -23.2780
  30   2.0000      -0.844891       -22.9907
  31   2.0000      -0.821109       -22.3435
  32   2.0000      -0.785997       -21.3881
  33   2.0000      -0.776299       -21.1242
  34   2.0000      -0.712741       -19.3947
  35   2.0000      -0.700748       -19.0683
  36   2.0000      -0.686364       -18.6769
  37   2.0000      -0.669689       -18.2232
  38   2.0000      -0.640575       -17.4309
  39   2.0000      -0.629846       -17.1390
  40   2.0000      -0.592356       -16.1188
  41   2.0000      -0.572780       -15.5861
  42   2.0000      -0.561269       -15.2729
  43   2.0000      -0.555286       -15.1101
  44   2.0000      -0.547146       -14.8886
  45   2.0000      -0.525228       -14.2922
  46   2.0000      -0.523247       -14.2383
  47   2.0000      -0.512441       -13.9442
  48   2.0000      -0.499154       -13.5827
  49   2.0000      -0.498405       -13.5623
  50   2.0000      -0.494654       -13.4602
  51   2.0000      -0.484893       -13.1946
  52   2.0000      -0.476840       -12.9755
  53   2.0000      -0.468936       -12.7604
  54   2.0000      -0.466562       -12.6958
  55   2.0000      -0.454529       -12.3684
  56   2.0000      -0.451136       -12.2760
  57   2.0000      -0.436996       -11.8913
  58   2.0000      -0.426993       -11.6191
  59   2.0000      -0.418960       -11.4005
  60   2.0000      -0.416129       -11.3234
  61   2.0000      -0.414980       -11.2922
  62   2.0000      -0.410055       -11.1582
  63   2.0000      -0.363655        -9.8956
  64   2.0000      -0.335085        -9.1181
  65   2.0000      -0.326597        -8.8872
  66   2.0000      -0.287697        -7.8286
  67   0.0000       0.022010         0.5989
  68   0.0000       0.087567         2.3828
  69   0.0000       0.103111         2.8058
  70   0.0000       0.114880         3.1260
  71   0.0000       0.129526         3.5246

MULLIKEN ATOMIC CHARGES
-----------------------
   0 S :    0.121741
   1 C :   -0.120042
   2 C :   -0.095272
   3 C :   -0.032407
   4 C :   -0.097644
   5 H :    0.000056
   6 C :    0.108667
   7 H :    0.023091
   8 H :    0.012648
   9 C :   -0.125017
  10 H :    0.028702
  11 H :    0.046306
  12 C :   -0.026856
  13 H :    0.024521
  14 H :    0.038497
  15 H :    0.026442
  16 S :    0.085581
  17 C :   -0.103583
  18 C :    0.004305
  19 C :   -0.074522
  20 C :   -0.085197
  21 H :   -0.007563
  22 C :   -0.031438
  23 H :    0.043380
  24 H :    0.045181
  25 C :   -0.046134
  26 H :    0.037412
  27 H :    0.014435
  28 C :   -0.044242
  29 H :    0.035375
  30 H :    0.031497
  31 H :    0.024312
  32 H :    0.061900
  33 H :    0.075871
Sum of atomic charges:    0.0000000

LOEWDIN ATOMIC CHARGES
----------------------
   0 S :    0.433616
   1 C :   -0.222201
   2 C :   -0.055710
   3 C :   -0.078347
   4 C :   -0.187848
   5 H :    0.035115
   6 C :   -0.037075
   7 H :    0.029430
   8 H :    0.028876
   9 C :   -0.047642
  10 H :    0.024859
  11 H :    0.035819
  12 C :   -0.068341
  13 H :    0.035453
  14 H :    0.020787
  15 H :    0.024501
  16 S :    0.415793
  17 C :   -0.196351
  18 C :   -0.059725
  19 C :   -0.064129
  20 C :   -0.196794
  21 H :    0.019170
  22 C :   -0.040845
  23 H :    0.035592
  24 H :    0.037054
  25 C :   -0.037049
  26 H :    0.023138
  27 H :    0.011411
  28 C :   -0.067217
  29 H :    0.030091
  30 H :    0.026965
  31 H :    0.019339
  32 H :    0.036045
  33 H :    0.036220

  Mayer bond orders larger than 0.100000
B(  0-S ,  1-C ) :   1.1464 B(  0-S ,  4-C ) :   1.1697 B(  1-C ,  2-C ) :   1.6012
B(  1-C , 32-H ) :   0.9599 B(  2-C ,  3-C ) :   1.2608 B(  2-C ,  6-C ) :   1.0093
B(  3-C ,  4-C ) :   1.5725 B(  3-C ,  5-H ) :   0.9766 B(  4-C , 20-C ) :   1.0365
B(  6-C ,  7-H ) :   0.9305 B(  6-C ,  8-H ) :   0.9393 B(  6-C ,  9-C ) :   1.0623
B(  9-C , 10-H ) :   0.9548 B(  9-C , 11-H ) :   0.9542 B(  9-C , 12-C ) :   1.0812
B( 12-C , 13-H ) :   0.9696 B( 12-C , 14-H ) :   0.9774 B( 12-C , 15-H ) :   0.9729
B( 16-S , 17-C ) :   1.1679 B( 16-S , 20-C ) :   1.1384 B( 17-C , 18-C ) :   1.6016
B( 17-C , 33-H ) :   0.9614 B( 18-C , 19-C ) :   1.2178 B( 18-C , 21-H ) :   1.0103
B( 19-C , 20-C ) :   1.6077 B( 19-C , 22-C ) :   1.0262 B( 22-C , 23-H ) :   0.9412
B( 22-C , 24-H ) :   0.9481 B( 22-C , 25-C ) :   1.0655 B( 25-C , 26-H ) :   0.9401
B( 25-C , 27-H ) :   0.9605 B( 25-C , 28-C ) :   1.0665 B( 28-C , 29-H ) :   0.9757
B( 28-C , 30-H ) :   0.9759 B( 28-C , 31-H ) :   0.9769

Dispersion correction           -0.014371342
FINAL SINGLE POINT ENERGY     -1339.859836009128

DIPOLE MOMENT
-------------
                                X             Y             Z
Electronic contribution:    -20.07660      23.47675       3.73722
Nuclear contribution   :     20.63651     -23.85739      -3.89226
                        -----------------------------------------
Total Dipole Moment    :      0.55991      -0.38065      -0.15504
                        -----------------------------------------
Magnitude (a.u.)       :      0.69457
Magnitude (Debye)      :      1.76545

Rotational constants in cm-1:     0.018171     0.009501     0.006629
Rotational constants in MHz :   544.739767   284.837580   198.734426

                             ****ORCA TERMINATED NORMALLY****
TOTAL RUN TIME: 0 days 0 hours 0 minutes 20 seconds 971 msec
