                         Program Version 4.2.1 -  RELEASE  -
|  1> ! wB97X-D3 SP def2-SVP
|  2> %pal
|  3> nprocs 24
|  4> end
|  5>
|  6> * xyz 0 1
|  7> S 	 -36.3421 	 -49.753 	 -79.7644
|  8> C 	 -34.6898 	 -49.8089 	 -80.2387
|  9> C 	 -33.9633 	 -49.0492 	 -79.3622
| 10> C 	 -34.7447 	 -48.4405 	 -78.2808
| 11> C 	 -36.0716 	 -48.7295 	 -78.3792
| 12> H 	 -34.3553 	 -47.8081 	 -77.4641
| 13> C 	 -32.462 	 -48.6649 	 -79.4659
| 14> H 	 -32.2898 	 -47.6534 	 -79.2134
| 15> H 	 -32.1256 	 -48.8038 	 -80.4929
| 16> C 	 -31.6179 	 -49.5902 	 -78.6775
| 17> H 	 -31.8679 	 -49.3726 	 -77.6802
| 18> H 	 -31.7887 	 -50.6653 	 -78.8715
| 19> C 	 -30.1079 	 -49.3778 	 -78.8612
| 20> H 	 -29.7647 	 -48.4456 	 -78.4453
| 21> H 	 -29.4068 	 -50.1089 	 -78.7523
| 22> H 	 -29.9725 	 -49.274 	 -79.8799
| 23> S 	 -38.0043 	 -49.5939 	 -76.6185
| 24> C 	 -38.7733 	 -48.5756 	 -75.5267
| 25> C 	 -38.2838 	 -47.2517 	 -75.675
| 26> C 	 -37.3455 	 -47.1052 	 -76.7725
| 27> C 	 -37.1368 	 -48.3338 	 -77.4349
| 28> H 	 -38.5486 	 -46.4666 	 -74.9658
| 29> C 	 -36.6635 	 -45.8153 	 -76.8767
| 30> H 	 -36.0328 	 -45.8344 	 -77.7339
| 31> H 	 -35.9729 	 -45.7591 	 -76.0408
| 32> C 	 -37.606 	 -44.6352 	 -76.8444
| 33> H 	 -38.1548 	 -44.6368 	 -75.9301
| 34> H 	 -38.4011 	 -44.7648 	 -77.5326
| 35> C 	 -37.011 	 -43.2193 	 -77.1325
| 36> H 	 -36.9162 	 -43.1129 	 -78.2013
| 37> H 	 -36.0573 	 -42.9964 	 -76.6949
| 38> H 	 -37.709 	 -42.4077 	 -76.8529
| 39> H 	 -34.3357 	 -50.1705 	 -81.1814
| 40> H 	 -39.5495 	 -48.8615 	 -74.8206
| 41> *
| 42>
| 43>                          ****END OF INPUT****

CARTESIAN COORDINATES (ANGSTROEM)
---------------------------------
  S    -36.342100  -49.753000  -79.764400
  C    -34.689800  -49.808900  -80.238700
  C    -33.963300  -49.049200  -79.362200
  C    -34.744700  -48.440500  -78.280800
  C    -36.071600  -48.729500  -78.379200
  H    -34.355300  -47.808100  -77.464100
  C    -32.462000  -48.664900  -79.465900
  H    -32.289800  -47.653400  -79.213400
  H    -32.125600  -48.803800  -80.492900
  C    -31.617900  -49.590200  -78.677500
  H    -31.867900  -49.372600  -77.680200
  H    -31.788700  -50.665300  -78.871500
  C    -30.107900  -49.377800  -78.861200
  H    -29.764700  -48.445600  -78.445300
  H    -29.406800  -50.108900  -78.752300
  H    -29.972500  -49.274000  -79.879900
  S    -38.004300  -49.593900  -76.618500
  C    -38.773300  -48.575600  -75.526700
  C    -38.283800  -47.251700  -75.675000
  C    -37.345500  -47.105200  -76.772500
  C    -37.136800  -48.333800  -77.434900
  H    -38.548600  -46.466600  -74.965800
  C    -36.663500  -45.815300  -76.876700
  H    -36.032800  -45.834400  -77.733900
  H    -35.972900  -45.759100  -76.040800
  C    -37.606000  -44.635200  -76.844400
  H    -38.154800  -44.636800  -75.930100
  H    -38.401100  -44.764800  -77.532600
  C    -37.011000  -43.219300  -77.132500
  H    -36.916200  -43.112900  -78.201300
  H    -36.057300  -42.996400  -76.694900
  H    -37.709000  -42.407700  -76.852900
  H    -34.335700  -50.170500  -81.181400
  H    -39.549500  -48.861500  -74.820600

 Total Charge           Charge          ....    0
 Multiplicity           Mult            ....    1
 Number of Electrons    NEL             ....  134
 Basis Dimension        Dim             ....  322

ORBITAL ENERGIES
----------------

  NO   OCC          E(Eh)            E(eV)
   0   2.0000     -88.965933     -2420.8861
   1   2.0000     -88.962966     -2420.8054
   2   2.0000     -10.330175      -281.0984
   3   2.0000     -10.328649      -281.0568
   4   2.0000     -10.317938      -280.7654
   5   2.0000     -10.313186      -280.6360
   6   2.0000     -10.305460      -280.4258
   7   2.0000     -10.304873      -280.4098
   8   2.0000     -10.296969      -280.1948
   9   2.0000     -10.295663      -280.1592
  10   2.0000     -10.286615      -279.9130
  11   2.0000     -10.285608      -279.8856
  12   2.0000     -10.281265      -279.7675
  13   2.0000     -10.278718      -279.6981
  14   2.0000     -10.277605      -279.6679
  15   2.0000     -10.260183      -279.1938
  16   2.0000      -8.082034      -219.9233
  17   2.0000      -8.078522      -219.8278
  18   2.0000      -6.040352      -164.3663
  19   2.0000      -6.037078      -164.2773
  20   2.0000      -6.036120      -164.2512
  21   2.0000      -6.033127      -164.1697
  22   2.0000      -6.032805      -164.1610
  23   2.0000      -6.029264      -164.0646
  24   2.0000      -1.010702       -27.5026
  25   2.0000      -0.990148       -26.9433
  26   2.0000      -0.920068       -25.0363
  27   2.0000      -0.918621       -24.9970
  28   2.0000      -0.872320       -23.7370
  29   2.0000      -0.851527       -23.1712
  30   2.0000      -0.844933       -22.9918
  31   2.0000      -0.814405       -22.1611
  32   2.0000      -0.786933       -21.4135
  33   2.0000      -0.778938       -21.1960
  34   2.0000      -0.715679       -19.4746
  35   2.0000      -0.703367       -19.1396
  36   2.0000      -0.695983       -18.9387
  37   2.0000      -0.658753       -17.9256
  38   2.0000      -0.645849       -17.5744
  39   2.0000      -0.622057       -16.9270
  40   2.0000      -0.601356       -16.3637
  41   2.0000      -0.578912       -15.7530
  42   2.0000      -0.565313       -15.3829
  43   2.0000      -0.564712       -15.3666
  44   2.0000      -0.531105       -14.4521
  45   2.0000      -0.524966       -14.2851
  46   2.0000      -0.518975       -14.1220
  47   2.0000      -0.515734       -14.0338
  48   2.0000      -0.511694       -13.9239
  49   2.0000      -0.504295       -13.7226
  50   2.0000      -0.497863       -13.5475
  51   2.0000      -0.482669       -13.1341
  52   2.0000      -0.479421       -13.0457
  53   2.0000      -0.465167       -12.6578
  54   2.0000      -0.461253       -12.5513
  55   2.0000      -0.450808       -12.2671
  56   2.0000      -0.445513       -12.1230
  57   2.0000      -0.441441       -12.0122
  58   2.0000      -0.432291       -11.7632
  59   2.0000      -0.423870       -11.5341
  60   2.0000      -0.417273       -11.3546
  61   2.0000      -0.415195       -11.2980
  62   2.0000      -0.411202       -11.1894
  63   2.0000      -0.350582        -9.5398
  64   2.0000      -0.327774        -8.9192
  65   2.0000      -0.324344        -8.8258
  66   2.0000      -0.298621        -8.1259
  67   0.0000       0.036108         0.9826
  68   0.0000       0.072607         1.9757
  69   0.0000       0.110520         3.0074
  70   0.0000       0.123789         3.3685
  71   0.0000       0.136998         3.7279

MULLIKEN ATOMIC CHARGES
-----------------------
   0 S :    0.103757
   1 C :   -0.097999
   2 C :   -0.109988
   3 C :    0.019666
   4 C :   -0.152449
   5 H :    0.027431
   6 C :    0.082137
   7 H :    0.018710
   8 H :    0.004502
   9 C :   -0.062502
  10 H :    0.009233
  11 H :    0.035199
  12 C :    0.033968
  13 H :    0.016798
  14 H :    0.008042
  15 H :   -0.017692
  16 S :    0.126881
  17 C :   -0.091209
  18 C :   -0.078060
  19 C :   -0.063918
  20 C :   -0.128934
  21 H :    0.032157
  22 C :    0.122816
  23 H :    0.006008
  24 H :    0.034160
  25 C :   -0.082790
  26 H :    0.014374
  27 H :    0.019574
  28 C :   -0.031380
  29 H :    0.027905
  30 H :    0.026631
  31 H :    0.033380
  32 H :    0.046952
  33 H :    0.066638
Sum of atomic charges:    0.0000000

LOEWDIN ATOMIC CHARGES
----------------------
   0 S :    0.415640
   1 C :   -0.202587
   2 C :   -0.055253
   3 C :   -0.068822
   4 C :   -0.197160
   5 H :    0.036678
   6 C :   -0.023939
   7 H :    0.024438
   8 H :    0.023935
   9 C :   -0.035791
  10 H :    0.014307
  11 H :    0.030679
  12 C :   -0.062391
  13 H :    0.023930
  14 H :    0.017290
  15 H :    0.017628
  16 S :    0.454582
  17 C :   -0.210851
  18 C :   -0.077553
  19 C :   -0.048802
  20 C :   -0.216858
  21 H :    0.030014
  22 C :   -0.032650
  23 H :    0.024164
  24 H :    0.036733
  25 C :   -0.036012
  26 H :    0.016946
  27 H :    0.024310
  28 C :   -0.063041
  29 H :    0.024594
  30 H :    0.019832
  31 H :    0.031611
  32 H :    0.029954
  33 H :    0.034447

  Mayer bond orders larger than 0.100000
B(  0-S ,  1-C ) :   1.1316 B(  0-S ,  4-C ) :   1.1592 B(  1-C ,  2-C ) :   1.6329
B(  1-C , 32-H ) :   0.9728 B(  2-C ,  3-C ) :   1.2189 B(  2-C ,  6-C ) :   1.0207
B(  3-C ,  4-C ) :   1.5922 B(  3-C ,  5-H ) :   0.9900 B(  4-C , 20-C ) :   1.0020
B(  6-C ,  7-H ) :   0.9462 B(  6-C ,  8-H ) :   0.9398 B(  6-C ,  9-C ) :   1.0650
B(  9-C , 10-H ) :   0.9569 B(  9-C , 11-H ) :   0.9574 B(  9-C , 12-C ) :   1.0773
B( 12-C , 13-H ) :   0.9719 B( 12-C , 14-H ) :   0.9720 B( 12-C , 15-H ) :   0.9602
B( 16-S , 17-C ) :   1.1998 B( 16-S , 20-C ) :   1.1656 B( 17-C , 18-C ) :   1.5493
B( 17-C , 33-H ) :   0.9690 B( 18-C , 19-C ) :   1.2695 B( 18-C , 21-H ) :   0.9884
B( 19-C , 20-C ) :   1.5474 B( 19-C , 22-C ) :   1.0661 B( 22-C , 23-H ) :   0.9256
B( 22-C , 24-H ) :   0.9198 B( 22-C , 25-C ) :   1.0545 B( 25-C , 26-H ) :   0.9525
B( 25-C , 27-H ) :   0.9578 B( 25-C , 28-C ) :   1.0818 B( 28-C , 29-H ) :   0.9766
B( 28-C , 30-H ) :   0.9770 B( 28-C , 31-H ) :   0.9745

Dispersion correction           -0.013284087
FINAL SINGLE POINT ENERGY     -1339.863850618211

DIPOLE MOMENT
-------------
                                X             Y             Z
Electronic contribution:    -20.16828     -18.71121      -1.48107
Nuclear contribution   :     20.59493      19.23469       1.66636
                        -----------------------------------------
Total Dipole Moment    :      0.42665       0.52347       0.18529
                        -----------------------------------------
Magnitude (a.u.)       :      0.70028
Magnitude (Debye)      :      1.77996

Rotational constants in cm-1:     0.017566     0.007668     0.006226
Rotational constants in MHz :   526.624229   229.890144   186.636066

                             ****ORCA TERMINATED NORMALLY****
TOTAL RUN TIME: 0 days 0 hours 0 minutes 20 seconds 892 msec
