                         Program Version 4.2.1 -  RELEASE  -
|  1> ! wB97X-D3 SP def2-SVP
|  2> %pal
|  3> nprocs 24
|  4> end
|  5>
|  6> * xyz 0 1
|  7> S 	 -119.176 	 63.0424 	 -35.5942
|  8> C 	 -118.406 	 64.443 	 -34.9357
|  9> C 	 -119.278 	 65.4011 	 -34.4126
| 10> C 	 -120.67 	 64.9533 	 -34.6182
| 11> C 	 -120.799 	 63.6669 	 -35.1364
| 12> H 	 -121.601 	 65.4929 	 -34.332
| 13> C 	 -118.854 	 66.7228 	 -33.8439
| 14> H 	 -119.321 	 67.4816 	 -34.4119
| 15> H 	 -117.698 	 66.8664 	 -33.9756
| 16> C 	 -119.194 	 66.9852 	 -32.3427
| 17> H 	 -118.586 	 67.8851 	 -32.0696
| 18> H 	 -120.265 	 67.2375 	 -32.1607
| 19> C 	 -118.792 	 65.8284 	 -31.509
| 20> H 	 -119.489 	 65.0085 	 -31.5845
| 21> H 	 -117.844 	 65.4681 	 -31.7997
| 22> H 	 -118.856 	 66.2009 	 -30.515
| 23> S 	 -121.904 	 62.3392 	 -37.1895
| 24> C 	 -123.647 	 62.1254 	 -37.2297
| 25> C 	 -124.258 	 62.6611 	 -36.1484
| 26> C 	 -123.367 	 63.2432 	 -35.2289
| 27> C 	 -122.032 	 63.0967 	 -35.6753
| 28> H 	 -125.359 	 62.5466 	 -36.1021
| 29> C 	 -123.899 	 63.8315 	 -33.9612
| 30> H 	 -123.111 	 63.8985 	 -33.2783
| 31> H 	 -124.636 	 63.12 	 -33.5319
| 32> C 	 -124.454 	 65.2298 	 -34.1666
| 33> H 	 -125.371 	 65.3002 	 -34.78
| 34> H 	 -123.901 	 65.9773 	 -34.8408
| 35> C 	 -124.714 	 65.9809 	 -32.7987
| 36> H 	 -124.975 	 67.0626 	 -32.8145
| 37> H 	 -123.738 	 66.0634 	 -32.2721
| 38> H 	 -125.588 	 65.56 	 -32.2825
| 39> H 	 -117.348 	 64.5347 	 -34.7637
| 40> H 	 -124.171 	 61.4873 	 -37.9148
| 41> *
| 42>
| 43>                          ****END OF INPUT****

CARTESIAN COORDINATES (ANGSTROEM)
---------------------------------
  S    -119.176000   63.042400  -35.594200
  C    -118.406000   64.443000  -34.935700
  C    -119.278000   65.401100  -34.412600
  C    -120.670000   64.953300  -34.618200
  C    -120.799000   63.666900  -35.136400
  H    -121.601000   65.492900  -34.332000
  C    -118.854000   66.722800  -33.843900
  H    -119.321000   67.481600  -34.411900
  H    -117.698000   66.866400  -33.975600
  C    -119.194000   66.985200  -32.342700
  H    -118.586000   67.885100  -32.069600
  H    -120.265000   67.237500  -32.160700
  C    -118.792000   65.828400  -31.509000
  H    -119.489000   65.008500  -31.584500
  H    -117.844000   65.468100  -31.799700
  H    -118.856000   66.200900  -30.515000
  S    -121.904000   62.339200  -37.189500
  C    -123.647000   62.125400  -37.229700
  C    -124.258000   62.661100  -36.148400
  C    -123.367000   63.243200  -35.228900
  C    -122.032000   63.096700  -35.675300
  H    -125.359000   62.546600  -36.102100
  C    -123.899000   63.831500  -33.961200
  H    -123.111000   63.898500  -33.278300
  H    -124.636000   63.120000  -33.531900
  C    -124.454000   65.229800  -34.166600
  H    -125.371000   65.300200  -34.780000
  H    -123.901000   65.977300  -34.840800
  C    -124.714000   65.980900  -32.798700
  H    -124.975000   67.062600  -32.814500
  H    -123.738000   66.063400  -32.272100
  H    -125.588000   65.560000  -32.282500
  H    -117.348000   64.534700  -34.763700
  H    -124.171000   61.487300  -37.914800

 Total Charge           Charge          ....    0
 Multiplicity           Mult            ....    1
 Number of Electrons    NEL             ....  134
 Basis Dimension        Dim             ....  322

ORBITAL ENERGIES
----------------

  NO   OCC          E(Eh)            E(eV)
   0   2.0000     -88.967521     -2420.9293
   1   2.0000     -88.966452     -2420.9002
   2   2.0000     -10.333937      -281.2007
   3   2.0000     -10.326967      -281.0111
   4   2.0000     -10.314997      -280.6854
   5   2.0000     -10.308805      -280.5168
   6   2.0000     -10.307707      -280.4870
   7   2.0000     -10.303740      -280.3790
   8   2.0000     -10.301088      -280.3068
   9   2.0000     -10.299100      -280.2527
  10   2.0000     -10.297729      -280.2154
  11   2.0000     -10.293101      -280.0895
  12   2.0000     -10.289908      -280.0026
  13   2.0000     -10.289522      -279.9921
  14   2.0000     -10.287934      -279.9489
  15   2.0000     -10.263513      -279.2844
  16   2.0000      -8.082115      -219.9255
  17   2.0000      -8.081833      -219.9178
  18   2.0000      -6.040544      -164.3716
  19   2.0000      -6.040493      -164.3702
  20   2.0000      -6.036584      -164.2638
  21   2.0000      -6.036419      -164.2593
  22   2.0000      -6.032847      -164.1621
  23   2.0000      -6.032410      -164.1502
  24   2.0000      -1.010175       -27.4883
  25   2.0000      -0.981618       -26.7112
  26   2.0000      -0.915471       -24.9112
  27   2.0000      -0.911851       -24.8127
  28   2.0000      -0.873771       -23.7765
  29   2.0000      -0.850396       -23.1404
  30   2.0000      -0.845684       -23.0122
  31   2.0000      -0.816431       -22.2162
  32   2.0000      -0.782426       -21.2909
  33   2.0000      -0.771577       -20.9957
  34   2.0000      -0.707711       -19.2578
  35   2.0000      -0.699568       -19.0362
  36   2.0000      -0.691824       -18.8255
  37   2.0000      -0.660972       -17.9860
  38   2.0000      -0.634314       -17.2606
  39   2.0000      -0.617829       -16.8120
  40   2.0000      -0.599354       -16.3093
  41   2.0000      -0.565154       -15.3786
  42   2.0000      -0.563802       -15.3418
  43   2.0000      -0.558864       -15.2075
  44   2.0000      -0.544168       -14.8076
  45   2.0000      -0.525600       -14.3023
  46   2.0000      -0.519515       -14.1367
  47   2.0000      -0.514327       -13.9955
  48   2.0000      -0.503437       -13.6992
  49   2.0000      -0.498010       -13.5515
  50   2.0000      -0.491428       -13.3724
  51   2.0000      -0.483397       -13.1539
  52   2.0000      -0.473084       -12.8733
  53   2.0000      -0.463593       -12.6150
  54   2.0000      -0.457087       -12.4380
  55   2.0000      -0.448664       -12.2088
  56   2.0000      -0.442581       -12.0432
  57   2.0000      -0.436447       -11.8763
  58   2.0000      -0.428126       -11.6499
  59   2.0000      -0.425476       -11.5778
  60   2.0000      -0.422822       -11.5056
  61   2.0000      -0.414915       -11.2904
  62   2.0000      -0.410858       -11.1800
  63   2.0000      -0.359989        -9.7958
  64   2.0000      -0.335643        -9.1333
  65   2.0000      -0.324435        -8.8283
  66   2.0000      -0.284007        -7.7282
  67   0.0000       0.024335         0.6622
  68   0.0000       0.079932         2.1751
  69   0.0000       0.105459         2.8697
  70   0.0000       0.118190         3.2161
  71   0.0000       0.120400         3.2763

MULLIKEN ATOMIC CHARGES
-----------------------
   0 S :    0.094734
   1 C :   -0.104650
   2 C :   -0.098695
   3 C :    0.005416
   4 C :   -0.131467
   5 H :    0.018684
   6 C :    0.043916
   7 H :    0.029383
   8 H :    0.037301
   9 C :   -0.116659
  10 H :    0.035938
  11 H :    0.033770
  12 C :    0.014158
  13 H :    0.032774
  14 H :    0.011862
  15 H :    0.025689
  16 S :    0.109855
  17 C :   -0.091615
  18 C :   -0.044037
  19 C :   -0.061556
  20 C :   -0.124720
  21 H :    0.029163
  22 C :    0.140193
  23 H :   -0.000586
  24 H :    0.042373
  25 C :   -0.128618
  26 H :    0.025416
  27 H :    0.043453
  28 C :   -0.076127
  29 H :    0.030355
  30 H :    0.037023
  31 H :    0.044994
  32 H :    0.046573
  33 H :    0.045709
Sum of atomic charges:   -0.0000000

LOEWDIN ATOMIC CHARGES
----------------------
   0 S :    0.384581
   1 C :   -0.199280
   2 C :   -0.062413
   3 C :   -0.060360
   4 C :   -0.181630
   5 H :    0.035458
   6 C :   -0.037688
   7 H :    0.027359
   8 H :    0.040923
   9 C :   -0.044453
  10 H :    0.028532
  11 H :    0.024271
  12 C :   -0.057644
  13 H :    0.027044
  14 H :    0.017945
  15 H :    0.024875
  16 S :    0.426266
  17 C :   -0.187303
  18 C :   -0.070949
  19 C :   -0.060968
  20 C :   -0.207908
  21 H :    0.040236
  22 C :   -0.026924
  23 H :    0.020413
  24 H :    0.042622
  25 C :   -0.055860
  26 H :    0.024740
  27 H :    0.033928
  28 C :   -0.081098
  29 H :    0.028902
  30 H :    0.027492
  31 H :    0.027968
  32 H :    0.025825
  33 H :    0.025095

  Mayer bond orders larger than 0.100000
B(  0-S ,  1-C ) :   1.1389 B(  0-S ,  4-C ) :   1.1245 B(  1-C ,  2-C ) :   1.6282
B(  1-C , 32-H ) :   0.9575 B(  2-C ,  3-C ) :   1.2114 B(  2-C ,  6-C ) :   1.0323
B(  3-C ,  4-C ) :   1.5935 B(  3-C ,  5-H ) :   0.9780 B(  4-C , 20-C ) :   1.0498
B(  6-C ,  7-H ) :   0.9359 B(  6-C ,  8-H ) :   0.9451 B(  6-C ,  9-C ) :   1.0668
B(  9-C , 10-H ) :   0.9587 B(  9-C , 11-H ) :   0.9519 B(  9-C , 12-C ) :   1.0889
B( 12-C , 13-H ) :   0.9634 B( 12-C , 14-H ) :   0.9743 B( 12-C , 15-H ) :   0.9705
B( 16-S , 17-C ) :   1.1430 B( 16-S , 20-C ) :   1.1654 B( 17-C , 18-C ) :   1.6274
B( 17-C , 33-H ) :   0.9661 B( 18-C , 19-C ) :   1.2519 B( 18-C , 21-H ) :   0.9863
B( 19-C , 20-C ) :   1.5600 B( 19-C , 22-C ) :   1.0521 B( 22-C , 23-H ) :   0.9300
B( 22-C , 24-H ) :   0.9315 B( 22-C , 25-C ) :   1.0330 B( 25-C , 26-H ) :   0.9519
B( 25-C , 27-H ) :   0.9552 B( 25-C , 28-C ) :   1.0730 B( 28-C , 29-H ) :   0.9751
B( 28-C , 30-H ) :   0.9750 B( 28-C , 31-H ) :   0.9766

Dispersion correction           -0.014813855
FINAL SINGLE POINT ENERGY     -1339.869476117237

DIPOLE MOMENT
-------------
                                X             Y             Z
Electronic contribution:      6.95799     -20.54793     -22.37775
Nuclear contribution   :     -7.31994      21.05076      22.75432
                        -----------------------------------------
Total Dipole Moment    :     -0.36195       0.50283       0.37657
                        -----------------------------------------
Magnitude (a.u.)       :      0.72502
Magnitude (Debye)      :      1.84284

Rotational constants in cm-1:     0.017357     0.010246     0.006851
Rotational constants in MHz :   520.342011   307.170295   205.386424

                             ****ORCA TERMINATED NORMALLY****
TOTAL RUN TIME: 0 days 0 hours 0 minutes 22 seconds 158 msec
