                         Program Version 4.2.1 -  RELEASE  -
|  1> ! wB97X-D3 SP def2-SVP
|  2> %pal
|  3> nprocs 24
|  4> end
|  5>
|  6> * xyz 0 1
|  7> S 	 -45.2392 	 -0.957672 	 -18.7789
|  8> C 	 -44.8751 	 -0.330235 	 -17.1956
|  9> C 	 -44.0199 	 -1.19407 	 -16.5058
| 10> C 	 -43.6016 	 -2.31743 	 -17.3477
| 11> C 	 -44.1543 	 -2.33426 	 -18.5849
| 12> H 	 -42.8795 	 -3.09854 	 -17.0174
| 13> C 	 -43.4707 	 -0.827702 	 -15.1591
| 14> H 	 -43.4097 	 0.283018 	 -14.9823
| 15> H 	 -42.4647 	 -1.11658 	 -15.0382
| 16> C 	 -44.2109 	 -1.39717 	 -13.949
| 17> H 	 -43.7987 	 -0.819862 	 -13.1346
| 18> H 	 -45.2645 	 -1.07348 	 -13.9417
| 19> C 	 -44.0964 	 -2.86582 	 -13.6693
| 20> H 	 -44.4743 	 -3.43665 	 -14.4183
| 21> H 	 -43.0849 	 -3.19433 	 -13.4924
| 22> H 	 -44.7246 	 -3.10747 	 -12.7841
| 23> S 	 -45.6879 	 -4.1348 	 -19.717
| 24> C 	 -44.8834 	 -5.54585 	 -20.4795
| 25> C 	 -43.6138 	 -5.32482 	 -20.7253
| 26> C 	 -43.0643 	 -4.24153 	 -19.9685
| 27> C 	 -44.1019 	 -3.39616 	 -19.5112
| 28> H 	 -43.0827 	 -5.95854 	 -21.345
| 29> C 	 -41.6033 	 -3.82434 	 -19.9499
| 30> H 	 -41.0547 	 -4.82497 	 -19.9363
| 31> H 	 -41.3229 	 -3.34694 	 -19.0398
| 32> C 	 -41.1511 	 -2.99911 	 -21.1458
| 33> H 	 -41.3273 	 -3.56865 	 -22.0913
| 34> H 	 -40.0972 	 -2.86568 	 -21.1392
| 35> C 	 -41.8731 	 -1.58218 	 -21.2621
| 36> H 	 -42.9788 	 -1.62608 	 -21.5795
| 37> H 	 -41.3476 	 -0.945063 	 -21.9847
| 38> H 	 -41.7768 	 -0.946579 	 -20.3671
| 39> H 	 -45.1873 	 0.602902 	 -16.7064
| 40> H 	 -45.3565 	 -6.30193 	 -21.0934
| 41> *
| 42>
| 43>                          ****END OF INPUT****

CARTESIAN COORDINATES (ANGSTROEM)
---------------------------------
  S    -45.239200   -0.957672  -18.778900
  C    -44.875100   -0.330235  -17.195600
  C    -44.019900   -1.194070  -16.505800
  C    -43.601600   -2.317430  -17.347700
  C    -44.154300   -2.334260  -18.584900
  H    -42.879500   -3.098540  -17.017400
  C    -43.470700   -0.827702  -15.159100
  H    -43.409700    0.283018  -14.982300
  H    -42.464700   -1.116580  -15.038200
  C    -44.210900   -1.397170  -13.949000
  H    -43.798700   -0.819862  -13.134600
  H    -45.264500   -1.073480  -13.941700
  C    -44.096400   -2.865820  -13.669300
  H    -44.474300   -3.436650  -14.418300
  H    -43.084900   -3.194330  -13.492400
  H    -44.724600   -3.107470  -12.784100
  S    -45.687900   -4.134800  -19.717000
  C    -44.883400   -5.545850  -20.479500
  C    -43.613800   -5.324820  -20.725300
  C    -43.064300   -4.241530  -19.968500
  C    -44.101900   -3.396160  -19.511200
  H    -43.082700   -5.958540  -21.345000
  C    -41.603300   -3.824340  -19.949900
  H    -41.054700   -4.824970  -19.936300
  H    -41.322900   -3.346940  -19.039800
  C    -41.151100   -2.999110  -21.145800
  H    -41.327300   -3.568650  -22.091300
  H    -40.097200   -2.865680  -21.139200
  C    -41.873100   -1.582180  -21.262100
  H    -42.978800   -1.626080  -21.579500
  H    -41.347600   -0.945063  -21.984700
  H    -41.776800   -0.946579  -20.367100
  H    -45.187300    0.602902  -16.706400
  H    -45.356500   -6.301930  -21.093400

 Total Charge           Charge          ....    0
 Multiplicity           Mult            ....    1
 Number of Electrons    NEL             ....  134
 Basis Dimension        Dim             ....  322

ORBITAL ENERGIES
----------------

  NO   OCC          E(Eh)            E(eV)
   0   2.0000     -88.966400     -2420.8988
   1   2.0000     -88.962074     -2420.7811
   2   2.0000     -10.325394      -280.9683
   3   2.0000     -10.324516      -280.9444
   4   2.0000     -10.315879      -280.7093
   5   2.0000     -10.308983      -280.5217
   6   2.0000     -10.306240      -280.4470
   7   2.0000     -10.302435      -280.3435
   8   2.0000     -10.297019      -280.1961
   9   2.0000     -10.294924      -280.1391
  10   2.0000     -10.291139      -280.0361
  11   2.0000     -10.289337      -279.9871
  12   2.0000     -10.285015      -279.8695
  13   2.0000     -10.282188      -279.7926
  14   2.0000     -10.280254      -279.7399
  15   2.0000     -10.266846      -279.3751
  16   2.0000      -8.080877      -219.8919
  17   2.0000      -8.076385      -219.7696
  18   2.0000      -6.039548      -164.3445
  19   2.0000      -6.035342      -164.2300
  20   2.0000      -6.035129      -164.2242
  21   2.0000      -6.031554      -164.1269
  22   2.0000      -6.031119      -164.1151
  23   2.0000      -6.026701      -163.9949
  24   2.0000      -1.009441       -27.4683
  25   2.0000      -0.982120       -26.7248
  26   2.0000      -0.915566       -24.9138
  27   2.0000      -0.903109       -24.5748
  28   2.0000      -0.881077       -23.9753
  29   2.0000      -0.845841       -23.0165
  30   2.0000      -0.838286       -22.8109
  31   2.0000      -0.818345       -22.2683
  32   2.0000      -0.785887       -21.3851
  33   2.0000      -0.770650       -20.9704
  34   2.0000      -0.711667       -19.3655
  35   2.0000      -0.700030       -19.0488
  36   2.0000      -0.694197       -18.8901
  37   2.0000      -0.661791       -18.0082
  38   2.0000      -0.637438       -17.3456
  39   2.0000      -0.614793       -16.7294
  40   2.0000      -0.594932       -16.1889
  41   2.0000      -0.577858       -15.7243
  42   2.0000      -0.549518       -14.9531
  43   2.0000      -0.545533       -14.8447
  44   2.0000      -0.541489       -14.7347
  45   2.0000      -0.532998       -14.5036
  46   2.0000      -0.514248       -13.9934
  47   2.0000      -0.509125       -13.8540
  48   2.0000      -0.502280       -13.6677
  49   2.0000      -0.498160       -13.5556
  50   2.0000      -0.493836       -13.4380
  51   2.0000      -0.474386       -12.9087
  52   2.0000      -0.470910       -12.8141
  53   2.0000      -0.464613       -12.6428
  54   2.0000      -0.457538       -12.4502
  55   2.0000      -0.446362       -12.1461
  56   2.0000      -0.439269       -11.9531
  57   2.0000      -0.432486       -11.7685
  58   2.0000      -0.429726       -11.6934
  59   2.0000      -0.427340       -11.6285
  60   2.0000      -0.421496       -11.4695
  61   2.0000      -0.414699       -11.2845
  62   2.0000      -0.410367       -11.1666
  63   2.0000      -0.355541        -9.6748
  64   2.0000      -0.328771        -8.9463
  65   2.0000      -0.323213        -8.7951
  66   2.0000      -0.292024        -7.9464
  67   0.0000       0.031309         0.8520
  68   0.0000       0.063539         1.7290
  69   0.0000       0.106503         2.8981
  70   0.0000       0.121057         3.2941
  71   0.0000       0.122869         3.3434

MULLIKEN ATOMIC CHARGES
-----------------------
   0 S :    0.108151
   1 C :   -0.108463
   2 C :   -0.091475
   3 C :    0.031063
   4 C :   -0.141834
   5 H :    0.029686
   6 C :    0.039998
   7 H :    0.030798
   8 H :    0.005761
   9 C :   -0.071992
  10 H :    0.014505
  11 H :    0.020975
  12 C :    0.001028
  13 H :    0.013842
  14 H :    0.019633
  15 H :    0.033527
  16 S :    0.089120
  17 C :   -0.062087
  18 C :   -0.002916
  19 C :   -0.070329
  20 C :   -0.138074
  21 H :   -0.007791
  22 C :    0.062030
  23 H :    0.028528
  24 H :    0.017139
  25 C :   -0.039753
  26 H :    0.026815
  27 H :    0.024923
  28 C :   -0.094067
  29 H :    0.062257
  30 H :    0.027507
  31 H :    0.036918
  32 H :    0.054022
  33 H :    0.050555
Sum of atomic charges:    0.0000000

LOEWDIN ATOMIC CHARGES
----------------------
   0 S :    0.398530
   1 C :   -0.201460
   2 C :   -0.063450
   3 C :   -0.062746
   4 C :   -0.200488
   5 H :    0.037487
   6 C :   -0.036838
   7 H :    0.038814
   8 H :    0.022313
   9 C :   -0.041851
  10 H :    0.021135
  11 H :    0.023816
  12 C :   -0.057652
  13 H :    0.011975
  14 H :    0.022363
  15 H :    0.036019
  16 S :    0.381287
  17 C :   -0.171218
  18 C :   -0.056443
  19 C :   -0.050418
  20 C :   -0.186323
  21 H :    0.021910
  22 C :   -0.035498
  23 H :    0.037936
  24 H :    0.023746
  25 C :   -0.036132
  26 H :    0.027795
  27 H :    0.020365
  28 C :   -0.080305
  29 H :    0.036967
  30 H :    0.024923
  31 H :    0.026548
  32 H :    0.036510
  33 H :    0.030384

  Mayer bond orders larger than 0.100000
B(  0-S ,  1-C ) :   1.1271 B(  0-S ,  4-C ) :   1.1231 B(  1-C ,  2-C ) :   1.6304
B(  1-C , 32-H ) :   0.9627 B(  2-C ,  3-C ) :   1.2200 B(  2-C ,  6-C ) :   1.0270
B(  3-C ,  4-C ) :   1.6011 B(  3-C ,  5-H ) :   0.9832 B(  4-C , 20-C ) :   1.0389
B(  6-C ,  7-H ) :   0.9465 B(  6-C ,  8-H ) :   0.9391 B(  6-C ,  9-C ) :   1.0765
B(  9-C , 10-H ) :   0.9516 B(  9-C , 11-H ) :   0.9523 B(  9-C , 12-C ) :   1.0883
B( 12-C , 13-H ) :   0.9733 B( 12-C , 14-H ) :   0.9721 B( 12-C , 15-H ) :   0.9681
B( 16-S , 17-C ) :   1.1154 B( 16-S , 20-C ) :   1.1310 B( 17-C , 18-C ) :   1.6938
B( 17-C , 33-H ) :   0.9526 B( 18-C , 19-C ) :   1.1920 B( 18-C , 21-H ) :   0.9912
B( 19-C , 20-C ) :   1.6067 B( 19-C , 22-C ) :   1.0552 B( 22-C , 23-H ) :   0.9274
B( 22-C , 24-H ) :   0.9385 B( 22-C , 25-C ) :   1.0772 B( 25-C , 26-H ) :   0.9536
B( 25-C , 27-H ) :   0.9544 B( 25-C , 28-C ) :   1.0680 B( 28-C , 29-H ) :   0.9724
B( 28-C , 30-H ) :   0.9741 B( 28-C , 31-H ) :   0.9751

Dispersion correction           -0.015339940
FINAL SINGLE POINT ENERGY     -1339.861710586883

DIPOLE MOMENT
-------------
                                X             Y             Z
Electronic contribution:    -15.86680      -2.54344     -11.42262
Nuclear contribution   :     16.50239       2.46868      11.63961
                        -----------------------------------------
Total Dipole Moment    :      0.63560      -0.07476       0.21699
                        -----------------------------------------
Magnitude (a.u.)       :      0.67577
Magnitude (Debye)      :      1.71766

Rotational constants in cm-1:     0.019928     0.008534     0.008049
Rotational constants in MHz :   597.425510   255.850855   241.314063

                             ****ORCA TERMINATED NORMALLY****
TOTAL RUN TIME: 0 days 0 hours 0 minutes 22 seconds 229 msec
