                         Program Version 4.2.1 -  RELEASE  -
|  1> ! wB97X-D3 SP def2-SVP
|  2> %pal
|  3> nprocs 24
|  4> end
|  5>
|  6> * xyz 0 1
|  7> S 	 -104.895 	 60.1275 	 -101.422
|  8> C 	 -105.894 	 58.7276 	 -101.846
|  9> C 	 -105.426 	 57.5446 	 -101.348
| 10> C 	 -104.376 	 57.7435 	 -100.466
| 11> C 	 -104.032 	 59.0621 	 -100.289
| 12> H 	 -103.922 	 56.9062 	 -99.9751
| 13> C 	 -106.111 	 56.24 	 -101.661
| 14> H 	 -106.992 	 56.4549 	 -102.373
| 15> H 	 -106.626 	 56.0257 	 -100.684
| 16> C 	 -105.121 	 55.1183 	 -102.067
| 17> H 	 -104.331 	 55.1166 	 -101.264
| 18> H 	 -105.561 	 54.1855 	 -101.935
| 19> C 	 -104.407 	 55.4128 	 -103.475
| 20> H 	 -105.094 	 55.1616 	 -104.318
| 21> H 	 -104.215 	 56.4652 	 -103.442
| 22> H 	 -103.4 	 55.0229 	 -103.475
| 23> S 	 -103.233 	 60.7688 	 -98.2957
| 24> C 	 -101.523 	 60.8687 	 -97.8902
| 25> C 	 -100.758 	 59.9436 	 -98.5769
| 26> C 	 -101.548 	 59.1989 	 -99.556
| 27> C 	 -102.906 	 59.5366 	 -99.5144
| 28> H 	 -99.7289 	 59.9133 	 -98.5218
| 29> C 	 -100.912 	 58.3305 	 -100.549
| 30> H 	 -100.41 	 59.0112 	 -101.182
| 31> H 	 -101.586 	 57.8808 	 -101.226
| 32> C 	 -100.002 	 57.2663 	 -99.9974
| 33> H 	 -100.554 	 56.688 	 -99.2668
| 34> H 	 -99.2256 	 57.8401 	 -99.4825
| 35> C 	 -99.4388 	 56.4262 	 -101.109
| 36> H 	 -98.9604 	 55.5162 	 -100.793
| 37> H 	 -98.6232 	 56.9389 	 -101.595
| 38> H 	 -100.185 	 56.1596 	 -101.911
| 39> H 	 -106.812 	 58.7661 	 -102.39
| 40> H 	 -101.144 	 61.4897 	 -97.0976
| 41> *
| 42>
| 43>                          ****END OF INPUT****

CARTESIAN COORDINATES (ANGSTROEM)
---------------------------------
  S    -104.895000   60.127500  -101.422000
  C    -105.894000   58.727600  -101.846000
  C    -105.426000   57.544600  -101.348000
  C    -104.376000   57.743500  -100.466000
  C    -104.032000   59.062100  -100.289000
  H    -103.922000   56.906200  -99.975100
  C    -106.111000   56.240000  -101.661000
  H    -106.992000   56.454900  -102.373000
  H    -106.626000   56.025700  -100.684000
  C    -105.121000   55.118300  -102.067000
  H    -104.331000   55.116600  -101.264000
  H    -105.561000   54.185500  -101.935000
  C    -104.407000   55.412800  -103.475000
  H    -105.094000   55.161600  -104.318000
  H    -104.215000   56.465200  -103.442000
  H    -103.400000   55.022900  -103.475000
  S    -103.233000   60.768800  -98.295700
  C    -101.523000   60.868700  -97.890200
  C    -100.758000   59.943600  -98.576900
  C    -101.548000   59.198900  -99.556000
  C    -102.906000   59.536600  -99.514400
  H    -99.728900   59.913300  -98.521800
  C    -100.912000   58.330500  -100.549000
  H    -100.410000   59.011200  -101.182000
  H    -101.586000   57.880800  -101.226000
  C    -100.002000   57.266300  -99.997400
  H    -100.554000   56.688000  -99.266800
  H    -99.225600   57.840100  -99.482500
  C    -99.438800   56.426200  -101.109000
  H    -98.960400   55.516200  -100.793000
  H    -98.623200   56.938900  -101.595000
  H    -100.185000   56.159600  -101.911000
  H    -106.812000   58.766100  -102.390000
  H    -101.144000   61.489700  -97.097600

 Total Charge           Charge          ....    0
 Multiplicity           Mult            ....    1
 Number of Electrons    NEL             ....  134
 Basis Dimension        Dim             ....  322

ORBITAL ENERGIES
----------------

  NO   OCC          E(Eh)            E(eV)
   0   2.0000     -88.966422     -2420.8994
   1   2.0000     -88.962474     -2420.7920
   2   2.0000     -10.327174      -281.0167
   3   2.0000     -10.322451      -280.8882
   4   2.0000     -10.319180      -280.7992
   5   2.0000     -10.306807      -280.4625
   6   2.0000     -10.303355      -280.3685
   7   2.0000     -10.302619      -280.3485
   8   2.0000     -10.294633      -280.1312
   9   2.0000     -10.292235      -280.0660
  10   2.0000     -10.290959      -280.0312
  11   2.0000     -10.288471      -279.9635
  12   2.0000     -10.284255      -279.8488
  13   2.0000     -10.283252      -279.8215
  14   2.0000     -10.278847      -279.7017
  15   2.0000     -10.275679      -279.6154
  16   2.0000      -8.080385      -219.8785
  17   2.0000      -8.077060      -219.7880
  18   2.0000      -6.038815      -164.3245
  19   2.0000      -6.035546      -164.2356
  20   2.0000      -6.035261      -164.2278
  21   2.0000      -6.031603      -164.1282
  22   2.0000      -6.031019      -164.1124
  23   2.0000      -6.027836      -164.0257
  24   2.0000      -1.004220       -27.3262
  25   2.0000      -0.981639       -26.7118
  26   2.0000      -0.922079       -25.0911
  27   2.0000      -0.907840       -24.7036
  28   2.0000      -0.866141       -23.5689
  29   2.0000      -0.852969       -23.2105
  30   2.0000      -0.844307       -22.9748
  31   2.0000      -0.815505       -22.1910
  32   2.0000      -0.783547       -21.3214
  33   2.0000      -0.770222       -20.9588
  34   2.0000      -0.715065       -19.4579
  35   2.0000      -0.705699       -19.2031
  36   2.0000      -0.694531       -18.8991
  37   2.0000      -0.662367       -18.0239
  38   2.0000      -0.634830       -17.2746
  39   2.0000      -0.627644       -17.0791
  40   2.0000      -0.604008       -16.4359
  41   2.0000      -0.574214       -15.6252
  42   2.0000      -0.561428       -15.2772
  43   2.0000      -0.550711       -14.9856
  44   2.0000      -0.539942       -14.6926
  45   2.0000      -0.526810       -14.3352
  46   2.0000      -0.522502       -14.2180
  47   2.0000      -0.510875       -13.9016
  48   2.0000      -0.502668       -13.6783
  49   2.0000      -0.492652       -13.4057
  50   2.0000      -0.488620       -13.2960
  51   2.0000      -0.474642       -12.9157
  52   2.0000      -0.468696       -12.7539
  53   2.0000      -0.465712       -12.6727
  54   2.0000      -0.459112       -12.4931
  55   2.0000      -0.457475       -12.4485
  56   2.0000      -0.447595       -12.1797
  57   2.0000      -0.437696       -11.9103
  58   2.0000      -0.436066       -11.8659
  59   2.0000      -0.427888       -11.6434
  60   2.0000      -0.423718       -11.5300
  61   2.0000      -0.419106       -11.4045
  62   2.0000      -0.414896       -11.2899
  63   2.0000      -0.338745        -9.2177
  64   2.0000      -0.331878        -9.0309
  65   2.0000      -0.325746        -8.8640
  66   2.0000      -0.294060        -8.0018
  67   0.0000       0.031600         0.8599
  68   0.0000       0.067789         1.8446
  69   0.0000       0.109019         2.9666
  70   0.0000       0.118869         3.2346
  71   0.0000       0.122849         3.3429

MULLIKEN ATOMIC CHARGES
-----------------------
   0 S :    0.113819
   1 C :   -0.119515
   2 C :   -0.091077
   3 C :    0.035138
   4 C :   -0.137587
   5 H :    0.001342
   6 C :    0.021282
   7 H :    0.032953
   8 H :    0.049186
   9 C :   -0.062424
  10 H :    0.019995
  11 H :    0.018080
  12 C :   -0.034618
  13 H :    0.055343
  14 H :    0.030448
  15 H :    0.034367
  16 S :    0.101939
  17 C :   -0.081285
  18 C :   -0.008130
  19 C :   -0.021723
  20 C :   -0.184865
  21 H :   -0.004304
  22 C :    0.090892
  23 H :    0.020052
  24 H :   -0.006050
  25 C :   -0.071715
  26 H :    0.029863
  27 H :    0.026007
  28 C :   -0.028272
  29 H :    0.026826
  30 H :    0.022301
  31 H :    0.034353
  32 H :    0.030440
  33 H :    0.056939
Sum of atomic charges:    0.0000000

LOEWDIN ATOMIC CHARGES
----------------------
   0 S :    0.384983
   1 C :   -0.187109
   2 C :   -0.073371
   3 C :   -0.056783
   4 C :   -0.184166
   5 H :    0.028346
   6 C :   -0.037925
   7 H :    0.034999
   8 H :    0.040252
   9 C :   -0.036354
  10 H :    0.026751
  11 H :    0.012871
  12 C :   -0.063746
  13 H :    0.034671
  14 H :    0.025728
  15 H :    0.027088
  16 S :    0.393440
  17 C :   -0.170346
  18 C :   -0.062945
  19 C :   -0.040820
  20 C :   -0.205501
  21 H :    0.016990
  22 C :   -0.033878
  23 H :    0.032340
  24 H :    0.020813
  25 C :   -0.035351
  26 H :    0.023701
  27 H :    0.024688
  28 C :   -0.066749
  29 H :    0.023780
  30 H :    0.026016
  31 H :    0.030793
  32 H :    0.019829
  33 H :    0.026965

  Mayer bond orders larger than 0.100000
B(  0-S ,  1-C ) :   1.1269 B(  0-S ,  4-C ) :   1.1470 B(  1-C ,  2-C ) :   1.6126
B(  1-C , 32-H ) :   0.9655 B(  2-C ,  3-C ) :   1.2522 B(  2-C ,  6-C ) :   1.0067
B(  3-C ,  4-C ) :   1.5631 B(  3-C ,  5-H ) :   1.0027 B(  4-C , 20-C ) :   1.0388
B(  6-C ,  7-H ) :   0.9469 B(  6-C ,  8-H ) :   0.9390 B(  6-C ,  9-C ) :   1.0605
B(  9-C , 10-H ) :   0.9560 B(  9-C , 11-H ) :   0.9600 B(  9-C , 12-C ) :   1.0515
B( 12-C , 13-H ) :   0.9766 B( 12-C , 14-H ) :   0.9762 B( 12-C , 15-H ) :   0.9752
B( 16-S , 17-C ) :   1.1551 B( 16-S , 20-C ) :   1.1276 B( 17-C , 18-C ) :   1.6201
B( 17-C , 33-H ) :   0.9673 B( 18-C , 19-C ) :   1.2133 B( 18-C , 21-H ) :   0.9975
B( 19-C , 20-C ) :   1.6021 B( 19-C , 22-C ) :   1.0563 B( 22-C , 23-H ) :   0.9207
B( 22-C , 24-H ) :   0.9246 B( 22-C , 25-C ) :   1.0520 B( 25-C , 26-H ) :   0.9605
B( 25-C , 27-H ) :   0.9518 B( 25-C , 28-C ) :   1.0896 B( 28-C , 29-H ) :   0.9722
B( 28-C , 30-H ) :   0.9706 B( 28-C , 31-H ) :   0.9723

Dispersion correction           -0.014743670
FINAL SINGLE POINT ENERGY     -1339.872592359649

DIPOLE MOMENT
-------------
                                X             Y             Z
Electronic contribution:    -10.41309      25.71124      11.94474
Nuclear contribution   :     10.78456     -26.28885     -12.10019
                        -----------------------------------------
Total Dipole Moment    :      0.37147      -0.57762      -0.15545
                        -----------------------------------------
Magnitude (a.u.)       :      0.70413
Magnitude (Debye)      :      1.78976

Rotational constants in cm-1:     0.016827     0.010226     0.007012
Rotational constants in MHz :   504.466667   306.571425   210.201951

                             ****ORCA TERMINATED NORMALLY****
TOTAL RUN TIME: 0 days 0 hours 0 minutes 22 seconds 438 msec
