                         Program Version 4.2.1 -  RELEASE  -
|  1> ! wB97X-D3 SP def2-SVP
|  2> %pal
|  3> nprocs 24
|  4> end
|  5>
|  6> * xyz 0 1
|  7> S 	 46.3631 	 -18.4856 	 -112.914
|  8> C 	 47.2551 	 -19.9565 	 -113.34
|  9> C 	 46.6295 	 -21.1112 	 -112.898
| 10> C 	 45.3306 	 -20.8465 	 -112.345
| 11> C 	 45.0754 	 -19.5065 	 -112.279
| 12> H 	 44.6547 	 -21.6282 	 -111.809
| 13> C 	 47.2922 	 -22.462 	 -112.787
| 14> H 	 47.1656 	 -22.9775 	 -111.82
| 15> H 	 48.3766 	 -22.3427 	 -112.722
| 16> C 	 46.8472 	 -23.372 	 -113.921
| 17> H 	 46.4839 	 -22.6992 	 -114.732
| 18> H 	 47.5916 	 -23.9606 	 -114.494
| 19> C 	 45.5573 	 -24.216 	 -113.688
| 20> H 	 44.7328 	 -23.6372 	 -113.93
| 21> H 	 45.5515 	 -25.1366 	 -114.296
| 22> H 	 45.5578 	 -24.4223 	 -112.617
| 23> S 	 43.7973 	 -17.5636 	 -110.832
| 24> C 	 42.0553 	 -17.6441 	 -110.755
| 25> C 	 41.4982 	 -18.7696 	 -111.324
| 26> C 	 42.5367 	 -19.5774 	 -112.005
| 27> C 	 43.8401 	 -19.0188 	 -111.827
| 28> H 	 40.4468 	 -19.0013 	 -111.169
| 29> C 	 42.0395 	 -20.8243 	 -112.758
| 30> H 	 41.6723 	 -21.4967 	 -111.982
| 31> H 	 42.92 	 -21.3868 	 -113.259
| 32> C 	 40.8991 	 -20.7083 	 -113.739
| 33> H 	 40.1285 	 -20.0938 	 -113.153
| 34> H 	 40.5705 	 -21.7031 	 -113.928
| 35> C 	 41.3592 	 -20.1375 	 -115.098
| 36> H 	 41.845 	 -19.1914 	 -114.976
| 37> H 	 40.5274 	 -19.9059 	 -115.648
| 38> H 	 41.8956 	 -20.8244 	 -115.699
| 39> H 	 48.3229 	 -19.9822 	 -113.578
| 40> H 	 41.4738 	 -17.0225 	 -110.105
| 41> *
| 42>
| 43>                          ****END OF INPUT****

CARTESIAN COORDINATES (ANGSTROEM)
---------------------------------
  S     46.363100  -18.485600  -112.914000
  C     47.255100  -19.956500  -113.340000
  C     46.629500  -21.111200  -112.898000
  C     45.330600  -20.846500  -112.345000
  C     45.075400  -19.506500  -112.279000
  H     44.654700  -21.628200  -111.809000
  C     47.292200  -22.462000  -112.787000
  H     47.165600  -22.977500  -111.820000
  H     48.376600  -22.342700  -112.722000
  C     46.847200  -23.372000  -113.921000
  H     46.483900  -22.699200  -114.732000
  H     47.591600  -23.960600  -114.494000
  C     45.557300  -24.216000  -113.688000
  H     44.732800  -23.637200  -113.930000
  H     45.551500  -25.136600  -114.296000
  H     45.557800  -24.422300  -112.617000
  S     43.797300  -17.563600  -110.832000
  C     42.055300  -17.644100  -110.755000
  C     41.498200  -18.769600  -111.324000
  C     42.536700  -19.577400  -112.005000
  C     43.840100  -19.018800  -111.827000
  H     40.446800  -19.001300  -111.169000
  C     42.039500  -20.824300  -112.758000
  H     41.672300  -21.496700  -111.982000
  H     42.920000  -21.386800  -113.259000
  C     40.899100  -20.708300  -113.739000
  H     40.128500  -20.093800  -113.153000
  H     40.570500  -21.703100  -113.928000
  C     41.359200  -20.137500  -115.098000
  H     41.845000  -19.191400  -114.976000
  H     40.527400  -19.905900  -115.648000
  H     41.895600  -20.824400  -115.699000
  H     48.322900  -19.982200  -113.578000
  H     41.473800  -17.022500  -110.105000

 Total Charge           Charge          ....    0
 Multiplicity           Mult            ....    1
 Number of Electrons    NEL             ....  134
 Basis Dimension        Dim             ....  322

ORBITAL ENERGIES
----------------

  NO   OCC          E(Eh)            E(eV)
   0   2.0000     -88.969913     -2420.9944
   1   2.0000     -88.967377     -2420.9254
   2   2.0000     -10.328292      -281.0471
   3   2.0000     -10.324353      -280.9399
   4   2.0000     -10.316926      -280.7378
   5   2.0000     -10.315174      -280.6902
   6   2.0000     -10.314495      -280.6717
   7   2.0000     -10.302933      -280.3571
   8   2.0000     -10.299749      -280.2704
   9   2.0000     -10.298217      -280.2287
  10   2.0000     -10.295659      -280.1591
  11   2.0000     -10.294883      -280.1380
  12   2.0000     -10.289129      -279.9814
  13   2.0000     -10.285233      -279.8754
  14   2.0000     -10.274300      -279.5779
  15   2.0000     -10.262100      -279.2459
  16   2.0000      -8.084018      -219.9773
  17   2.0000      -8.082109      -219.9254
  18   2.0000      -6.042657      -164.4291
  19   2.0000      -6.040652      -164.3745
  20   2.0000      -6.038849      -164.3254
  21   2.0000      -6.036727      -164.2677
  22   2.0000      -6.034446      -164.2056
  23   2.0000      -6.032745      -164.1593
  24   2.0000      -1.005892       -27.3717
  25   2.0000      -0.978146       -26.6167
  26   2.0000      -0.913196       -24.8493
  27   2.0000      -0.909853       -24.7584
  28   2.0000      -0.872936       -23.7538
  29   2.0000      -0.850700       -23.1487
  30   2.0000      -0.842332       -22.9210
  31   2.0000      -0.812838       -22.1184
  32   2.0000      -0.788006       -21.4427
  33   2.0000      -0.773309       -21.0428
  34   2.0000      -0.710117       -19.3233
  35   2.0000      -0.696547       -18.9540
  36   2.0000      -0.689061       -18.7503
  37   2.0000      -0.656994       -17.8777
  38   2.0000      -0.636325       -17.3153
  39   2.0000      -0.616833       -16.7849
  40   2.0000      -0.595332       -16.1998
  41   2.0000      -0.568109       -15.4590
  42   2.0000      -0.554135       -15.0788
  43   2.0000      -0.552116       -15.0238
  44   2.0000      -0.546765       -14.8782
  45   2.0000      -0.533379       -14.5140
  46   2.0000      -0.515060       -14.0155
  47   2.0000      -0.502545       -13.6750
  48   2.0000      -0.501284       -13.6406
  49   2.0000      -0.496408       -13.5079
  50   2.0000      -0.494096       -13.4450
  51   2.0000      -0.482749       -13.1363
  52   2.0000      -0.471028       -12.8173
  53   2.0000      -0.459331       -12.4990
  54   2.0000      -0.457745       -12.4559
  55   2.0000      -0.455443       -12.3932
  56   2.0000      -0.446231       -12.1426
  57   2.0000      -0.438494       -11.9320
  58   2.0000      -0.433315       -11.7911
  59   2.0000      -0.420356       -11.4385
  60   2.0000      -0.416347       -11.3294
  61   2.0000      -0.411973       -11.2103
  62   2.0000      -0.405307       -11.0290
  63   2.0000      -0.354769        -9.6538
  64   2.0000      -0.333164        -9.0658
  65   2.0000      -0.329201        -8.9580
  66   2.0000      -0.283854        -7.7241
  67   0.0000       0.022361         0.6085
  68   0.0000       0.073340         1.9957
  69   0.0000       0.097675         2.6579
  70   0.0000       0.120247         3.2721
  71   0.0000       0.125709         3.4207

MULLIKEN ATOMIC CHARGES
-----------------------
   0 S :    0.115041
   1 C :   -0.116997
   2 C :   -0.086074
   3 C :   -0.043530
   4 C :   -0.118352
   5 H :    0.064776
   6 C :    0.055518
   7 H :    0.035794
   8 H :    0.019986
   9 C :   -0.118121
  10 H :    0.034016
  11 H :    0.035313
  12 C :   -0.022803
  13 H :    0.022385
  14 H :    0.041575
  15 H :    0.020172
  16 S :    0.104138
  17 C :   -0.071603
  18 C :   -0.060253
  19 C :   -0.033838
  20 C :   -0.151256
  21 H :    0.036077
  22 C :   -0.001203
  23 H :    0.034882
  24 H :    0.038177
  25 C :   -0.066738
  26 H :    0.033497
  27 H :    0.022075
  28 C :    0.013997
  29 H :    0.033513
  30 H :    0.003770
  31 H :    0.024209
  32 H :    0.053023
  33 H :    0.048835
Sum of atomic charges:    0.0000000

LOEWDIN ATOMIC CHARGES
----------------------
   0 S :    0.390081
   1 C :   -0.199043
   2 C :   -0.055499
   3 C :   -0.073535
   4 C :   -0.190739
   5 H :    0.053764
   6 C :   -0.037863
   7 H :    0.033431
   8 H :    0.033605
   9 C :   -0.055661
  10 H :    0.031458
  11 H :    0.025858
  12 C :   -0.058457
  13 H :    0.012904
  14 H :    0.032284
  15 H :    0.020610
  16 S :    0.395830
  17 C :   -0.180246
  18 C :   -0.071837
  19 C :   -0.045017
  20 C :   -0.198412
  21 H :    0.034474
  22 C :   -0.048122
  23 H :    0.033197
  24 H :    0.033925
  25 C :   -0.037146
  26 H :    0.029982
  27 H :    0.022384
  28 C :   -0.053680
  29 H :    0.028415
  30 H :    0.015756
  31 H :    0.023663
  32 H :    0.030038
  33 H :    0.023596

  Mayer bond orders larger than 0.100000
B(  0-S ,  1-C ) :   1.1129 B(  0-S ,  4-C ) :   1.1278 B(  1-C ,  2-C ) :   1.6482
B(  1-C , 32-H ) :   0.9572 B(  2-C ,  3-C ) :   1.2195 B(  2-C ,  6-C ) :   1.0315
B(  3-C ,  4-C ) :   1.5921 B(  3-C ,  5-H ) :   0.9723 B(  4-C , 20-C ) :   1.1020
B(  6-C ,  7-H ) :   0.9550 B(  6-C ,  8-H ) :   0.9387 B(  6-C ,  9-C ) :   1.0345
B(  9-C , 10-H ) :   0.9646 B(  9-C , 11-H ) :   0.9622 B(  9-C , 12-C ) :   1.0625
B( 12-C , 13-H ) :   0.9821 B( 12-C , 14-H ) :   0.9741 B( 12-C , 15-H ) :   0.9782
B( 16-S , 17-C ) :   1.1443 B( 16-S , 20-C ) :   1.1201 B( 17-C , 18-C ) :   1.6508
B( 17-C , 33-H ) :   0.9638 B( 18-C , 19-C ) :   1.2015 B( 18-C , 21-H ) :   0.9805
B( 19-C , 20-C ) :   1.5881 B( 19-C , 22-C ) :   1.0345 B( 22-C , 23-H ) :   0.9296
B( 22-C , 24-H ) :   0.9320 B( 22-C , 25-C ) :   1.0835 B( 25-C , 26-H ) :   0.9497
B( 25-C , 27-H ) :   0.9470 B( 25-C , 28-C ) :   1.0844 B( 28-C , 29-H ) :   0.9757
B( 28-C , 30-H ) :   0.9683 B( 28-C , 31-H ) :   0.9705

Dispersion correction           -0.014712134
FINAL SINGLE POINT ENERGY     -1339.853170492450

DIPOLE MOMENT
-------------
                                X             Y             Z
Electronic contribution:      8.03786      25.26733      12.72630
Nuclear contribution   :     -8.31842     -25.90818     -12.68413
                        -----------------------------------------
Total Dipole Moment    :     -0.28056      -0.64085       0.04217
                        -----------------------------------------
Magnitude (a.u.)       :      0.70084
Magnitude (Debye)      :      1.78140

Rotational constants in cm-1:     0.017258     0.009956     0.007275
Rotational constants in MHz :   517.385147   298.486296   218.104088

                             ****ORCA TERMINATED NORMALLY****
TOTAL RUN TIME: 0 days 0 hours 0 minutes 22 seconds 242 msec
