                         Program Version 4.2.1 -  RELEASE  -
|  1> ! wB97X-D3 SP def2-SVP
|  2> %pal
|  3> nprocs 24
|  4> end
|  5>
|  6> * xyz 0 1
|  7> S 	 -111.898 	 61.3124 	 -71.0068
|  8> C 	 -110.672 	 62.5147 	 -70.645
|  9> C 	 -111.138 	 63.7893 	 -70.9091
| 10> C 	 -112.551 	 63.768 	 -71.1434
| 11> C 	 -113.105 	 62.5323 	 -71.2529
| 12> H 	 -113.148 	 64.6615 	 -71.2753
| 13> C 	 -110.322 	 65.0714 	 -70.6135
| 14> H 	 -110.035 	 65.0042 	 -69.6263
| 15> H 	 -111.084 	 65.8433 	 -70.5564
| 16> C 	 -109.084 	 65.4039 	 -71.5764
| 17> H 	 -108.388 	 66.144 	 -71.1151
| 18> H 	 -108.428 	 64.5194 	 -71.7594
| 19> C 	 -109.632 	 65.9754 	 -72.8917
| 20> H 	 -110.224 	 65.1467 	 -73.4138
| 21> H 	 -110.341 	 66.7356 	 -72.8118
| 22> H 	 -108.827 	 66.2257 	 -73.5845
| 23> S 	 -115.187 	 60.845 	 -70.508
| 24> C 	 -116.778 	 61.0882 	 -70.9818
| 25> C 	 -116.83 	 62.1879 	 -71.8492
| 26> C 	 -115.51 	 62.7799 	 -72.1521
| 27> C 	 -114.492 	 62.1896 	 -71.4067
| 28> H 	 -117.782 	 62.4461 	 -72.2639
| 29> C 	 -115.425 	 64.0016 	 -73.0712
| 30> H 	 -114.801 	 64.7692 	 -72.6301
| 31> H 	 -116.455 	 64.478 	 -73.1005
| 32> C 	 -114.919 	 63.8098 	 -74.4674
| 33> H 	 -113.917 	 63.5107 	 -74.534
| 34> H 	 -115.06 	 64.7908 	 -74.8539
| 35> C 	 -115.809 	 62.8442 	 -75.3534
| 36> H 	 -115.523 	 62.978 	 -76.34
| 37> H 	 -116.863 	 63.057 	 -75.2115
| 38> H 	 -115.565 	 61.82 	 -75.0197
| 39> H 	 -109.576 	 62.2948 	 -70.4986
| 40> H 	 -117.582 	 60.4012 	 -70.7857
| 41> *
| 42>
| 43>                          ****END OF INPUT****

CARTESIAN COORDINATES (ANGSTROEM)
---------------------------------
  S    -111.898000   61.312400  -71.006800
  C    -110.672000   62.514700  -70.645000
  C    -111.138000   63.789300  -70.909100
  C    -112.551000   63.768000  -71.143400
  C    -113.105000   62.532300  -71.252900
  H    -113.148000   64.661500  -71.275300
  C    -110.322000   65.071400  -70.613500
  H    -110.035000   65.004200  -69.626300
  H    -111.084000   65.843300  -70.556400
  C    -109.084000   65.403900  -71.576400
  H    -108.388000   66.144000  -71.115100
  H    -108.428000   64.519400  -71.759400
  C    -109.632000   65.975400  -72.891700
  H    -110.224000   65.146700  -73.413800
  H    -110.341000   66.735600  -72.811800
  H    -108.827000   66.225700  -73.584500
  S    -115.187000   60.845000  -70.508000
  C    -116.778000   61.088200  -70.981800
  C    -116.830000   62.187900  -71.849200
  C    -115.510000   62.779900  -72.152100
  C    -114.492000   62.189600  -71.406700
  H    -117.782000   62.446100  -72.263900
  C    -115.425000   64.001600  -73.071200
  H    -114.801000   64.769200  -72.630100
  H    -116.455000   64.478000  -73.100500
  C    -114.919000   63.809800  -74.467400
  H    -113.917000   63.510700  -74.534000
  H    -115.060000   64.790800  -74.853900
  C    -115.809000   62.844200  -75.353400
  H    -115.523000   62.978000  -76.340000
  H    -116.863000   63.057000  -75.211500
  H    -115.565000   61.820000  -75.019700
  H    -109.576000   62.294800  -70.498600
  H    -117.582000   60.401200  -70.785700

 Total Charge           Charge          ....    0
 Multiplicity           Mult            ....    1
 Number of Electrons    NEL             ....  134
 Basis Dimension        Dim             ....  322

ORBITAL ENERGIES
----------------

  NO   OCC          E(Eh)            E(eV)
   0   2.0000     -88.966031     -2420.8888
   1   2.0000     -88.962606     -2420.7956
   2   2.0000     -10.328016      -281.0396
   3   2.0000     -10.327067      -281.0138
   4   2.0000     -10.317321      -280.7486
   5   2.0000     -10.314971      -280.6846
   6   2.0000     -10.308673      -280.5133
   7   2.0000     -10.303354      -280.3685
   8   2.0000     -10.301201      -280.3099
   9   2.0000     -10.296254      -280.1753
  10   2.0000     -10.293844      -280.1097
  11   2.0000     -10.293758      -280.1074
  12   2.0000     -10.292767      -280.0804
  13   2.0000     -10.277685      -279.6700
  14   2.0000     -10.276278      -279.6317
  15   2.0000     -10.270326      -279.4698
  16   2.0000      -8.081092      -219.8977
  17   2.0000      -8.078585      -219.8295
  18   2.0000      -6.039657      -164.3474
  19   2.0000      -6.037048      -164.2764
  20   2.0000      -6.035517      -164.2348
  21   2.0000      -6.032627      -164.1561
  22   2.0000      -6.031798      -164.1336
  23   2.0000      -6.029586      -164.0734
  24   2.0000      -1.011041       -27.5118
  25   2.0000      -0.986954       -26.8564
  26   2.0000      -0.911216       -24.7954
  27   2.0000      -0.905075       -24.6283
  28   2.0000      -0.871006       -23.7013
  29   2.0000      -0.850396       -23.1405
  30   2.0000      -0.839263       -22.8375
  31   2.0000      -0.814263       -22.1572
  32   2.0000      -0.785698       -21.3799
  33   2.0000      -0.775344       -21.0982
  34   2.0000      -0.708318       -19.2743
  35   2.0000      -0.707305       -19.2467
  36   2.0000      -0.688155       -18.7256
  37   2.0000      -0.664027       -18.0691
  38   2.0000      -0.636255       -17.3134
  39   2.0000      -0.618883       -16.8407
  40   2.0000      -0.593075       -16.1384
  41   2.0000      -0.568470       -15.4689
  42   2.0000      -0.558202       -15.1894
  43   2.0000      -0.551633       -15.0107
  44   2.0000      -0.544961       -14.8292
  45   2.0000      -0.534888       -14.5551
  46   2.0000      -0.517090       -14.0707
  47   2.0000      -0.513829       -13.9820
  48   2.0000      -0.509812       -13.8727
  49   2.0000      -0.492566       -13.4034
  50   2.0000      -0.482532       -13.1304
  51   2.0000      -0.481714       -13.1081
  52   2.0000      -0.475581       -12.9412
  53   2.0000      -0.469288       -12.7700
  54   2.0000      -0.460776       -12.5383
  55   2.0000      -0.446655       -12.1541
  56   2.0000      -0.446131       -12.1398
  57   2.0000      -0.439404       -11.9568
  58   2.0000      -0.436006       -11.8643
  59   2.0000      -0.427198       -11.6247
  60   2.0000      -0.414970       -11.2919
  61   2.0000      -0.410899       -11.1811
  62   2.0000      -0.407638       -11.0924
  63   2.0000      -0.356104        -9.6901
  64   2.0000      -0.332472        -9.0470
  65   2.0000      -0.325690        -8.8625
  66   2.0000      -0.290213        -7.8971
  67   0.0000       0.024967         0.6794
  68   0.0000       0.079190         2.1549
  69   0.0000       0.110932         3.0186
  70   0.0000       0.115464         3.1419
  71   0.0000       0.130372         3.5476

MULLIKEN ATOMIC CHARGES
-----------------------
   0 S :    0.110670
   1 C :   -0.138654
   2 C :   -0.100194
   3 C :    0.007062
   4 C :   -0.126335
   5 H :    0.006157
   6 C :    0.076666
   7 H :    0.020646
   8 H :    0.010627
   9 C :   -0.073674
  10 H :    0.036596
  11 H :    0.039714
  12 C :   -0.051947
  13 H :    0.035935
  14 H :    0.019389
  15 H :    0.037842
  16 S :    0.110396
  17 C :   -0.089857
  18 C :   -0.045924
  19 C :   -0.031883
  20 C :   -0.137757
  21 H :    0.011795
  22 C :    0.032719
  23 H :    0.017107
  24 H :    0.027982
  25 C :   -0.045916
  26 H :    0.029624
  27 H :    0.018406
  28 C :   -0.035838
  29 H :    0.023012
  30 H :    0.023711
  31 H :    0.045191
  32 H :    0.071976
  33 H :    0.064758
Sum of atomic charges:    0.0000000

LOEWDIN ATOMIC CHARGES
----------------------
   0 S :    0.409156
   1 C :   -0.202040
   2 C :   -0.064821
   3 C :   -0.065567
   4 C :   -0.196302
   5 H :    0.028031
   6 C :   -0.022866
   7 H :    0.022923
   8 H :    0.028876
   9 C :   -0.038935
  10 H :    0.026156
  11 H :    0.028800
  12 C :   -0.068703
  13 H :    0.034880
  14 H :    0.013694
  15 H :    0.025856
  16 S :    0.432343
  17 C :   -0.208660
  18 C :   -0.074239
  19 C :   -0.053994
  20 C :   -0.202410
  21 H :    0.023723
  22 C :   -0.035690
  23 H :    0.025905
  24 H :    0.037317
  25 C :   -0.028911
  26 H :    0.018746
  27 H :    0.021727
  28 C :   -0.055399
  29 H :    0.015041
  30 H :    0.021256
  31 H :    0.030590
  32 H :    0.040292
  33 H :    0.033224

  Mayer bond orders larger than 0.100000
B(  0-S ,  1-C ) :   1.1421 B(  0-S ,  4-C ) :   1.1443 B(  1-C ,  2-C ) :   1.6123
B(  1-C , 32-H ) :   0.9580 B(  2-C ,  3-C ) :   1.2458 B(  2-C ,  6-C ) :   1.0003
B(  3-C ,  4-C ) :   1.5817 B(  3-C ,  5-H ) :   0.9879 B(  4-C , 20-C ) :   1.0700
B(  6-C ,  7-H ) :   0.9461 B(  6-C ,  8-H ) :   0.9498 B(  6-C ,  9-C ) :   1.0462
B(  9-C , 10-H ) :   0.9593 B(  9-C , 11-H ) :   0.9613 B(  9-C , 12-C ) :   1.0696
B( 12-C , 13-H ) :   0.9752 B( 12-C , 14-H ) :   0.9786 B( 12-C , 15-H ) :   0.9743
B( 16-S , 17-C ) :   1.1844 B( 16-S , 20-C ) :   1.1420 B( 17-C , 18-C ) :   1.5703
B( 17-C , 33-H ) :   0.9708 B( 18-C , 19-C ) :   1.2527 B( 18-C , 21-H ) :   0.9945
B( 19-C , 20-C ) :   1.5651 B( 19-C , 22-C ) :   1.0315 B( 22-C , 23-H ) :   0.9356
B( 22-C , 24-H ) :   0.9364 B( 22-C , 25-C ) :   1.0866 B( 25-C , 26-H ) :   0.9574
B( 25-C , 27-H ) :   0.9523 B( 25-C , 28-C ) :   1.0744 B( 28-C , 29-H ) :   0.9769
B( 28-C , 30-H ) :   0.9773 B( 28-C , 31-H ) :   0.9767

Dispersion correction           -0.014423604
FINAL SINGLE POINT ENERGY     -1339.873632055263

DIPOLE MOMENT
-------------
                                X             Y             Z
Electronic contribution:     -6.12052     -21.11159      16.56992
Nuclear contribution   :      6.16248      21.71046     -16.82006
                        -----------------------------------------
Total Dipole Moment    :      0.04196       0.59887      -0.25014
                        -----------------------------------------
Magnitude (a.u.)       :      0.65037
Magnitude (Debye)      :      1.65310

Rotational constants in cm-1:     0.019969     0.008643     0.006699
Rotational constants in MHz :   598.643411   259.107629   200.825646

                             ****ORCA TERMINATED NORMALLY****
TOTAL RUN TIME: 0 days 0 hours 0 minutes 20 seconds 632 msec
