                         Program Version 4.2.1 -  RELEASE  -
|  1> ! wB97X-D3 SP def2-SVP
|  2> %pal
|  3> nprocs 24
|  4> end
|  5>
|  6> * xyz 0 1
|  7> S 	 18.1101 	 -11.9313 	 -127.625
|  8> C 	 16.9202 	 -11.0286 	 -128.61
|  9> C 	 15.8952 	 -11.8732 	 -129.04
| 10> C 	 16.1891 	 -13.2543 	 -128.722
| 11> C 	 17.3411 	 -13.4103 	 -128.021
| 12> H 	 15.6786 	 -14.1763 	 -128.944
| 13> C 	 14.6371 	 -11.3755 	 -129.705
| 14> H 	 14.587 	 -11.6772 	 -130.731
| 15> H 	 14.5624 	 -10.2962 	 -129.818
| 16> C 	 13.3382 	 -11.865 	 -129.024
| 17> H 	 13.4745 	 -12.9806 	 -129.085
| 18> H 	 13.2173 	 -11.4756 	 -128.012
| 19> C 	 12.1679 	 -11.4076 	 -129.829
| 20> H 	 11.1453 	 -11.5154 	 -129.423
| 21> H 	 12.2749 	 -10.3346 	 -129.972
| 22> H 	 12.1311 	 -11.8748 	 -130.839
| 23> S 	 18.8078 	 -15.7881 	 -128.21
| 24> C 	 19.2386 	 -16.5918 	 -126.723
| 25> C 	 18.4478 	 -16.1249 	 -125.69
| 26> C 	 17.6419 	 -14.9832 	 -126.044
| 27> C 	 17.7489 	 -14.6661 	 -127.361
| 28> H 	 18.6374 	 -16.6528 	 -124.82
| 29> C 	 16.8133 	 -14.163 	 -125.072
| 30> H 	 15.9856 	 -13.7513 	 -125.665
| 31> H 	 17.2662 	 -13.1458 	 -124.741
| 32> C 	 16.0573 	 -14.862 	 -123.961
| 33> H 	 15.8034 	 -14.124 	 -123.16
| 34> H 	 16.7389 	 -15.5074 	 -123.36
| 35> C 	 14.9731 	 -15.8108 	 -124.322
| 36> H 	 15.3224 	 -16.6836 	 -124.896
| 37> H 	 14.2501 	 -15.2718 	 -124.8
| 38> H 	 14.5727 	 -16.2902 	 -123.406
| 39> H 	 17.0304 	 -10.0012 	 -128.756
| 40> H 	 19.9328 	 -17.4415 	 -126.662
| 41> *
| 42>
| 43>                          ****END OF INPUT****

CARTESIAN COORDINATES (ANGSTROEM)
---------------------------------
  S     18.110100  -11.931300  -127.625000
  C     16.920200  -11.028600  -128.610000
  C     15.895200  -11.873200  -129.040000
  C     16.189100  -13.254300  -128.722000
  C     17.341100  -13.410300  -128.021000
  H     15.678600  -14.176300  -128.944000
  C     14.637100  -11.375500  -129.705000
  H     14.587000  -11.677200  -130.731000
  H     14.562400  -10.296200  -129.818000
  C     13.338200  -11.865000  -129.024000
  H     13.474500  -12.980600  -129.085000
  H     13.217300  -11.475600  -128.012000
  C     12.167900  -11.407600  -129.829000
  H     11.145300  -11.515400  -129.423000
  H     12.274900  -10.334600  -129.972000
  H     12.131100  -11.874800  -130.839000
  S     18.807800  -15.788100  -128.210000
  C     19.238600  -16.591800  -126.723000
  C     18.447800  -16.124900  -125.690000
  C     17.641900  -14.983200  -126.044000
  C     17.748900  -14.666100  -127.361000
  H     18.637400  -16.652800  -124.820000
  C     16.813300  -14.163000  -125.072000
  H     15.985600  -13.751300  -125.665000
  H     17.266200  -13.145800  -124.741000
  C     16.057300  -14.862000  -123.961000
  H     15.803400  -14.124000  -123.160000
  H     16.738900  -15.507400  -123.360000
  C     14.973100  -15.810800  -124.322000
  H     15.322400  -16.683600  -124.896000
  H     14.250100  -15.271800  -124.800000
  H     14.572700  -16.290200  -123.406000
  H     17.030400  -10.001200  -128.756000
  H     19.932800  -17.441500  -126.662000

 Total Charge           Charge          ....    0
 Multiplicity           Mult            ....    1
 Number of Electrons    NEL             ....  134
 Basis Dimension        Dim             ....  322

ORBITAL ENERGIES
----------------

  NO   OCC          E(Eh)            E(eV)
   0   2.0000     -88.964782     -2420.8548
   1   2.0000     -88.961063     -2420.7536
   2   2.0000     -10.323334      -280.9122
   3   2.0000     -10.321289      -280.8566
   4   2.0000     -10.318060      -280.7687
   5   2.0000     -10.315634      -280.7027
   6   2.0000     -10.309425      -280.5337
   7   2.0000     -10.305292      -280.4213
   8   2.0000     -10.294022      -280.1146
   9   2.0000     -10.293619      -280.1036
  10   2.0000     -10.290559      -280.0203
  11   2.0000     -10.290180      -280.0100
  12   2.0000     -10.290168      -280.0097
  13   2.0000     -10.283437      -279.8265
  14   2.0000     -10.279804      -279.7277
  15   2.0000     -10.268324      -279.4153
  16   2.0000      -8.079546      -219.8556
  17   2.0000      -8.076041      -219.7602
  18   2.0000      -6.037971      -164.3016
  19   2.0000      -6.034558      -164.2087
  20   2.0000      -6.034084      -164.1958
  21   2.0000      -6.030430      -164.0963
  22   2.0000      -6.030354      -164.0943
  23   2.0000      -6.026873      -163.9996
  24   2.0000      -1.008183       -27.4340
  25   2.0000      -0.983891       -26.7730
  26   2.0000      -0.918489       -24.9934
  27   2.0000      -0.910566       -24.7778
  28   2.0000      -0.871864       -23.7246
  29   2.0000      -0.848898       -23.0997
  30   2.0000      -0.848430       -23.0870
  31   2.0000      -0.819441       -22.2981
  32   2.0000      -0.784144       -21.3376
  33   2.0000      -0.773253       -21.0413
  34   2.0000      -0.705300       -19.1922
  35   2.0000      -0.695156       -18.9162
  36   2.0000      -0.690673       -18.7942
  37   2.0000      -0.658901       -17.9296
  38   2.0000      -0.647258       -17.6128
  39   2.0000      -0.620633       -16.8883
  40   2.0000      -0.600435       -16.3387
  41   2.0000      -0.576364       -15.6837
  42   2.0000      -0.569139       -15.4871
  43   2.0000      -0.550728       -14.9861
  44   2.0000      -0.539407       -14.6780
  45   2.0000      -0.528286       -14.3754
  46   2.0000      -0.519949       -14.1485
  47   2.0000      -0.514282       -13.9943
  48   2.0000      -0.510500       -13.8914
  49   2.0000      -0.493117       -13.4184
  50   2.0000      -0.485344       -13.2069
  51   2.0000      -0.482985       -13.1427
  52   2.0000      -0.467496       -12.7212
  53   2.0000      -0.466583       -12.6964
  54   2.0000      -0.458521       -12.4770
  55   2.0000      -0.454402       -12.3649
  56   2.0000      -0.440474       -11.9859
  57   2.0000      -0.435456       -11.8494
  58   2.0000      -0.432245       -11.7620
  59   2.0000      -0.429300       -11.6819
  60   2.0000      -0.414556       -11.2806
  61   2.0000      -0.412240       -11.2176
  62   2.0000      -0.399294       -10.8653
  63   2.0000      -0.333983        -9.0881
  64   2.0000      -0.331414        -9.0182
  65   2.0000      -0.323300        -8.7975
  66   2.0000      -0.310940        -8.4611
  67   0.0000       0.047377         1.2892
  68   0.0000       0.053703         1.4613
  69   0.0000       0.110312         3.0017
  70   0.0000       0.122677         3.3382
  71   0.0000       0.132337         3.6011

MULLIKEN ATOMIC CHARGES
-----------------------
   0 S :    0.110423
   1 C :   -0.117543
   2 C :   -0.028894
   3 C :    0.035337
   4 C :   -0.155357
   5 H :    0.013993
   6 C :    0.059558
   7 H :    0.023105
   8 H :    0.006525
   9 C :   -0.085015
  10 H :    0.041830
  11 H :    0.041843
  12 C :   -0.056424
  13 H :    0.039041
  14 H :    0.019869
  15 H :    0.031803
  16 S :    0.099509
  17 C :   -0.118130
  18 C :   -0.020060
  19 C :   -0.002474
  20 C :   -0.182774
  21 H :   -0.006085
  22 C :    0.061552
  23 H :    0.018580
  24 H :    0.053640
  25 C :   -0.099268
  26 H :    0.029226
  27 H :    0.011763
  28 C :   -0.003078
  29 H :    0.038204
  30 H :    0.011848
  31 H :    0.030045
  32 H :    0.030346
  33 H :    0.067062
Sum of atomic charges:   -0.0000000

LOEWDIN ATOMIC CHARGES
----------------------
   0 S :    0.406772
   1 C :   -0.171580
   2 C :   -0.052012
   3 C :   -0.062444
   4 C :   -0.201422
   5 H :    0.033516
   6 C :   -0.032758
   7 H :    0.028982
   8 H :    0.025122
   9 C :   -0.040278
  10 H :    0.029393
  11 H :    0.028030
  12 C :   -0.073705
  13 H :    0.028257
  14 H :    0.023062
  15 H :    0.028237
  16 S :    0.395776
  17 C :   -0.181106
  18 C :   -0.068742
  19 C :   -0.054734
  20 C :   -0.200554
  21 H :    0.021233
  22 C :   -0.049089
  23 H :    0.033826
  24 H :    0.045350
  25 C :   -0.056283
  26 H :    0.031908
  27 H :    0.019307
  28 C :   -0.057216
  29 H :    0.031596
  30 H :    0.008947
  31 H :    0.033670
  32 H :    0.014545
  33 H :    0.034396

  Mayer bond orders larger than 0.100000
B(  0-S ,  1-C ) :   1.1315 B(  0-S ,  4-C ) :   1.1573 B(  1-C ,  2-C ) :   1.6155
B(  1-C , 32-H ) :   0.9841 B(  2-C ,  3-C ) :   1.1906 B(  2-C ,  6-C ) :   1.0280
B(  3-C ,  4-C ) :   1.6203 B(  3-C ,  5-H ) :   0.9925 B(  4-C , 20-C ) :   0.9820
B(  6-C ,  7-H ) :   0.9376 B(  6-C ,  8-H ) :   0.9423 B(  6-C ,  9-C ) :   1.0503
B(  9-C , 10-H ) :   0.9551 B(  9-C , 11-H ) :   0.9561 B(  9-C , 12-C ) :   1.0876
B( 12-C , 13-H ) :   0.9735 B( 12-C , 14-H ) :   0.9692 B( 12-C , 15-H ) :   0.9716
B( 16-S , 17-C ) :   1.1581 B( 16-S , 20-C ) :   1.1377 B( 17-C , 18-C ) :   1.6305
B( 17-C , 33-H ) :   0.9630 B( 18-C , 19-C ) :   1.1817 B( 18-C , 21-H ) :   1.0109
B( 19-C , 20-C ) :   1.6348 B( 19-C , 22-C ) :   1.0334 B( 22-C , 23-H ) :   0.9274
B( 22-C , 24-H ) :   0.9260 B( 22-C , 25-C ) :   1.0746 B( 25-C , 26-H ) :   0.9492
B( 25-C , 27-H ) :   0.9499 B( 25-C , 28-C ) :   1.0871 B( 28-C , 29-H ) :   0.9693
B( 28-C , 30-H ) :   0.9751 B( 28-C , 31-H ) :   0.9676

Dispersion correction           -0.014335403
FINAL SINGLE POINT ENERGY     -1339.866051918492

DIPOLE MOMENT
-------------
                                X             Y             Z
Electronic contribution:     26.36697      -3.25629      -6.17934
Nuclear contribution   :    -26.88580       3.34691       6.38689
                        -----------------------------------------
Total Dipole Moment    :     -0.51884       0.09063       0.20755
                        -----------------------------------------
Magnitude (a.u.)       :      0.56611
Magnitude (Debye)      :      1.43894

Rotational constants in cm-1:     0.018528     0.008392     0.007041
Rotational constants in MHz :   555.466249   251.573214   211.085802

                             ****ORCA TERMINATED NORMALLY****
TOTAL RUN TIME: 0 days 0 hours 0 minutes 20 seconds 621 msec
