                         Program Version 4.2.1 -  RELEASE  -
|  1> ! wB97X-D3 SP def2-SVP
|  2> %pal
|  3> nprocs 24
|  4> end
|  5>
|  6> * xyz 0 1
|  7> S 	 -97.5631 	 14.4536 	 -120.444
|  8> C 	 -95.938 	 15.0099 	 -120.361
|  9> C 	 -95.3772 	 14.5698 	 -119.2
| 10> C 	 -96.0795 	 13.5918 	 -118.437
| 11> C 	 -97.3192 	 13.3722 	 -118.975
| 12> H 	 -95.7225 	 13.1071 	 -117.514
| 13> C 	 -94.0169 	 15.0964 	 -118.62
| 14> H 	 -94.2365 	 15.4328 	 -117.607
| 15> H 	 -93.6512 	 15.9026 	 -119.2
| 16> C 	 -92.778 	 14.0996 	 -118.464
| 17> H 	 -92.1786 	 14.6314 	 -117.651
| 18> H 	 -92.9939 	 13.154 	 -118.03
| 19> C 	 -91.9524 	 13.7489 	 -119.781
| 20> H 	 -92.3214 	 12.7934 	 -120.12
| 21> H 	 -92.0628 	 14.6023 	 -120.454
| 22> H 	 -90.9528 	 13.6474 	 -119.533
| 23> S 	 -99.439 	 12.8101 	 -117.311
| 24> C 	 -99.9692 	 11.1499 	 -117.192
| 25> C 	 -99.4647 	 10.344 	 -118.171
| 26> C 	 -98.4262 	 11.0407 	 -118.945
| 27> C 	 -98.2638 	 12.3542 	 -118.529
| 28> H 	 -99.7173 	 9.26804 	 -118.315
| 29> C 	 -97.6033 	 10.4454 	 -120.013
| 30> H 	 -97.6615 	 9.3572 	 -120.039
| 31> H 	 -96.5938 	 10.7734 	 -119.75
| 32> C 	 -97.8853 	 11.0442 	 -121.398
| 33> H 	 -96.9422 	 11.1386 	 -121.998
| 34> H 	 -98.2714 	 12.0121 	 -121.363
| 35> C 	 -98.7929 	 9.99754 	 -122.095
| 36> H 	 -98.3621 	 8.99482 	 -122.01
| 37> H 	 -98.8365 	 10.3549 	 -123.134
| 38> H 	 -99.9007 	 9.89719 	 -121.805
| 39> H 	 -95.5706 	 15.727 	 -121.072
| 40> H 	 -100.607 	 10.7168 	 -116.45
| 41> *
| 42>
| 43>                          ****END OF INPUT****

CARTESIAN COORDINATES (ANGSTROEM)
---------------------------------
  S    -97.563100   14.453600  -120.444000
  C    -95.938000   15.009900  -120.361000
  C    -95.377200   14.569800  -119.200000
  C    -96.079500   13.591800  -118.437000
  C    -97.319200   13.372200  -118.975000
  H    -95.722500   13.107100  -117.514000
  C    -94.016900   15.096400  -118.620000
  H    -94.236500   15.432800  -117.607000
  H    -93.651200   15.902600  -119.200000
  C    -92.778000   14.099600  -118.464000
  H    -92.178600   14.631400  -117.651000
  H    -92.993900   13.154000  -118.030000
  C    -91.952400   13.748900  -119.781000
  H    -92.321400   12.793400  -120.120000
  H    -92.062800   14.602300  -120.454000
  H    -90.952800   13.647400  -119.533000
  S    -99.439000   12.810100  -117.311000
  C    -99.969200   11.149900  -117.192000
  C    -99.464700   10.344000  -118.171000
  C    -98.426200   11.040700  -118.945000
  C    -98.263800   12.354200  -118.529000
  H    -99.717300    9.268040  -118.315000
  C    -97.603300   10.445400  -120.013000
  H    -97.661500    9.357200  -120.039000
  H    -96.593800   10.773400  -119.750000
  C    -97.885300   11.044200  -121.398000
  H    -96.942200   11.138600  -121.998000
  H    -98.271400   12.012100  -121.363000
  C    -98.792900    9.997540  -122.095000
  H    -98.362100    8.994820  -122.010000
  H    -98.836500   10.354900  -123.134000
  H    -99.900700    9.897190  -121.805000
  H    -95.570600   15.727000  -121.072000
  H    -100.607000   10.716800  -116.450000

 Total Charge           Charge          ....    0
 Multiplicity           Mult            ....    1
 Number of Electrons    NEL             ....  134
 Basis Dimension        Dim             ....  322

ORBITAL ENERGIES
----------------

  NO   OCC          E(Eh)            E(eV)
   0   2.0000     -88.964145     -2420.8375
   1   2.0000     -88.963937     -2420.8318
   2   2.0000     -10.334094      -281.2050
   3   2.0000     -10.319359      -280.8040
   4   2.0000     -10.314484      -280.6714
   5   2.0000     -10.314063      -280.6599
   6   2.0000     -10.302225      -280.3378
   7   2.0000     -10.301532      -280.3189
   8   2.0000     -10.299715      -280.2695
   9   2.0000     -10.297007      -280.1958
  10   2.0000     -10.294402      -280.1249
  11   2.0000     -10.293034      -280.0877
  12   2.0000     -10.282156      -279.7917
  13   2.0000     -10.278870      -279.7023
  14   2.0000     -10.278171      -279.6832
  15   2.0000     -10.275596      -279.6132
  16   2.0000      -8.078742      -219.8338
  17   2.0000      -8.078030      -219.8144
  18   2.0000      -6.037266      -164.2824
  19   2.0000      -6.036588      -164.2639
  20   2.0000      -6.033386      -164.1768
  21   2.0000      -6.032722      -164.1587
  22   2.0000      -6.029338      -164.0666
  23   2.0000      -6.028699      -164.0492
  24   2.0000      -1.003563       -27.3083
  25   2.0000      -0.983074       -26.7508
  26   2.0000      -0.910651       -24.7801
  27   2.0000      -0.893541       -24.3145
  28   2.0000      -0.871925       -23.7263
  29   2.0000      -0.845387       -23.0041
  30   2.0000      -0.842135       -22.9157
  31   2.0000      -0.816207       -22.2101
  32   2.0000      -0.778893       -21.1948
  33   2.0000      -0.763958       -20.7884
  34   2.0000      -0.709162       -19.2973
  35   2.0000      -0.693111       -18.8605
  36   2.0000      -0.691660       -18.8210
  37   2.0000      -0.659138       -17.9361
  38   2.0000      -0.646427       -17.5902
  39   2.0000      -0.618045       -16.8179
  40   2.0000      -0.595033       -16.1917
  41   2.0000      -0.562507       -15.3066
  42   2.0000      -0.550835       -14.9890
  43   2.0000      -0.546574       -14.8730
  44   2.0000      -0.535966       -14.5844
  45   2.0000      -0.530305       -14.4303
  46   2.0000      -0.523849       -14.2547
  47   2.0000      -0.515556       -14.0290
  48   2.0000      -0.504618       -13.7314
  49   2.0000      -0.489766       -13.3272
  50   2.0000      -0.484877       -13.1942
  51   2.0000      -0.478979       -13.0337
  52   2.0000      -0.472578       -12.8595
  53   2.0000      -0.465364       -12.6632
  54   2.0000      -0.459148       -12.4941
  55   2.0000      -0.451138       -12.2761
  56   2.0000      -0.441531       -12.0147
  57   2.0000      -0.437699       -11.9104
  58   2.0000      -0.432340       -11.7646
  59   2.0000      -0.424869       -11.5613
  60   2.0000      -0.410139       -11.1604
  61   2.0000      -0.409343       -11.1388
  62   2.0000      -0.403605       -10.9826
  63   2.0000      -0.340471        -9.2647
  64   2.0000      -0.329618        -8.9694
  65   2.0000      -0.312760        -8.5106
  66   2.0000      -0.308348        -8.3906
  67   0.0000       0.041720         1.1353
  68   0.0000       0.052590         1.4310
  69   0.0000       0.107166         2.9161
  70   0.0000       0.120037         3.2664
  71   0.0000       0.127264         3.4630

MULLIKEN ATOMIC CHARGES
-----------------------
   0 S :    0.088401
   1 C :   -0.124094
   2 C :   -0.068559
   3 C :    0.053300
   4 C :   -0.163828
   5 H :    0.037343
   6 C :    0.075031
   7 H :    0.033858
   8 H :    0.008256
   9 C :   -0.131747
  10 H :    0.034374
  11 H :    0.019432
  12 C :   -0.007663
  13 H :    0.040739
  14 H :    0.028328
  15 H :    0.022148
  16 S :    0.116420
  17 C :   -0.075915
  18 C :   -0.041682
  19 C :   -0.041322
  20 C :   -0.198176
  21 H :    0.034094
  22 C :    0.090131
  23 H :    0.015130
  24 H :    0.026580
  25 C :   -0.039289
  26 H :    0.033114
  27 H :    0.018367
  28 C :   -0.091900
  29 H :    0.031730
  30 H :    0.032115
  31 H :    0.046230
  32 H :    0.051956
  33 H :    0.047100
Sum of atomic charges:   -0.0000000

LOEWDIN ATOMIC CHARGES
----------------------
   0 S :    0.384223
   1 C :   -0.197697
   2 C :   -0.071588
   3 C :   -0.048594
   4 C :   -0.168764
   5 H :    0.044463
   6 C :   -0.024305
   7 H :    0.032839
   8 H :    0.019098
   9 C :   -0.044095
  10 H :    0.028512
  11 H :    0.012391
  12 C :   -0.054437
  13 H :    0.028461
  14 H :    0.024848
  15 H :    0.017794
  16 S :    0.404017
  17 C :   -0.181712
  18 C :   -0.077426
  19 C :   -0.042019
  20 C :   -0.214362
  21 H :    0.039056
  22 C :   -0.035299
  23 H :    0.026537
  24 H :    0.036999
  25 C :   -0.031398
  26 H :    0.031070
  27 H :    0.002074
  28 C :   -0.075751
  29 H :    0.021053
  30 H :    0.024316
  31 H :    0.032655
  32 H :    0.029628
  33 H :    0.027411

  Mayer bond orders larger than 0.100000
B(  0-S ,  1-C ) :   1.1324 B(  0-S ,  4-C ) :   1.1207 B(  1-C ,  2-C ) :   1.6277
B(  1-C , 32-H ) :   0.9742 B(  2-C ,  3-C ) :   1.2096 B(  2-C ,  6-C ) :   1.0164
B(  3-C ,  4-C ) :   1.6138 B(  3-C ,  5-H ) :   0.9902 B(  4-C , 20-C ) :   1.0251
B(  6-C ,  7-H ) :   0.9463 B(  6-C ,  8-H ) :   0.9469 B(  6-C ,  9-C ) :   1.0584
B(  9-C , 10-H ) :   0.9631 B(  9-C , 11-H ) :   0.9657 B(  9-C , 12-C ) :   1.0508
B( 12-C , 13-H ) :   0.9816 B( 12-C , 14-H ) :   0.9818 B( 12-C , 15-H ) :   0.9765
B( 16-S , 17-C ) :   1.1508 B( 16-S , 20-C ) :   1.1261 B( 17-C , 18-C ) :   1.6315
B( 17-C , 33-H ) :   0.9657 B( 18-C , 19-C ) :   1.2201 B( 18-C , 21-H ) :   0.9812
B( 19-C , 20-C ) :   1.6161 B( 19-C , 22-C ) :   1.0631 B( 22-C , 23-H ) :   0.9384
B( 22-C , 24-H ) :   0.9160 B( 22-C , 25-C ) :   1.0602 B( 25-C , 26-H ) :   0.9547
B( 25-C , 27-H ) :   0.9542 B( 25-C , 28-C ) :   1.0686 B( 28-C , 29-H ) :   0.9780
B( 28-C , 30-H ) :   0.9749 B( 28-C , 31-H ) :   0.9762

Dispersion correction           -0.014920621
FINAL SINGLE POINT ENERGY     -1339.857176538295

DIPOLE MOMENT
-------------
                                X             Y             Z
Electronic contribution:    -19.56130       8.42964       9.44184
Nuclear contribution   :     20.12011      -8.67762      -9.38532
                        -----------------------------------------
Total Dipole Moment    :      0.55881      -0.24798       0.05652
                        -----------------------------------------
Magnitude (a.u.)       :      0.61397
Magnitude (Debye)      :      1.56058

Rotational constants in cm-1:     0.019456     0.008367     0.007439
Rotational constants in MHz :   583.285743   250.829907   223.024698

                             ****ORCA TERMINATED NORMALLY****
TOTAL RUN TIME: 0 days 0 hours 0 minutes 21 seconds 871 msec
