                         Program Version 4.2.1 -  RELEASE  -
|  1> ! wB97X-D3 SP def2-SVP
|  2> %pal
|  3> nprocs 24
|  4> end
|  5>
|  6> * xyz 0 1
|  7> S 	 -71.2189 	 3.50983 	 -70.7848
|  8> C 	 -71.1076 	 5.06122 	 -70.0363
|  9> C 	 -71.9855 	 5.19262 	 -68.9667
| 10> C 	 -72.7227 	 3.95942 	 -68.7985
| 11> C 	 -72.5931 	 3.0552 	 -69.8449
| 12> H 	 -73.4664 	 3.76365 	 -68.024
| 13> C 	 -71.8785 	 6.2308 	 -67.9036
| 14> H 	 -71.7102 	 7.24606 	 -68.4151
| 15> H 	 -71.0256 	 5.90213 	 -67.3226
| 16> C 	 -73.1807 	 6.42931 	 -67.0341
| 17> H 	 -73.947 	 6.48414 	 -67.8414
| 18> H 	 -73.5628 	 5.54178 	 -66.4988
| 19> C 	 -73.2443 	 7.65948 	 -66.0841
| 20> H 	 -72.9021 	 8.59171 	 -66.5819
| 21> H 	 -74.1955 	 7.92828 	 -65.6839
| 22> H 	 -72.4827 	 7.58352 	 -65.3191
| 23> S 	 -72.4185 	 0.505081 	 -70.7955
| 24> C 	 -73.7049 	 -0.640205 	 -70.5686
| 25> C 	 -74.7552 	 -0.0642938 	 -69.8009
| 26> C 	 -74.5954 	 1.36399 	 -69.5992
| 27> C 	 -73.3189 	 1.76391 	 -70.0096
| 28> H 	 -75.6618 	 -0.645282 	 -69.4892
| 29> C 	 -75.6265 	 2.1426 	 -68.8387
| 30> H 	 -75.3214 	 3.15517 	 -69.0467
| 31> H 	 -75.5306 	 1.91297 	 -67.7681
| 32> C 	 -77.1183 	 1.94063 	 -69.2738
| 33> H 	 -77.4253 	 0.954899 	 -68.9904
| 34> H 	 -77.1923 	 1.94478 	 -70.4112
| 35> C 	 -77.981 	 3.05096 	 -68.6856
| 36> H 	 -77.8141 	 3.16668 	 -67.573
| 37> H 	 -79.0741 	 2.8622 	 -68.9443
| 38> H 	 -77.8007 	 4.00444 	 -69.1692
| 39> H 	 -70.3362 	 5.80457 	 -70.3082
| 40> H 	 -73.6564 	 -1.70505 	 -70.8487
| 41> *
| 42>
| 43>                          ****END OF INPUT****

CARTESIAN COORDINATES (ANGSTROEM)
---------------------------------
  S    -71.218900    3.509830  -70.784800
  C    -71.107600    5.061220  -70.036300
  C    -71.985500    5.192620  -68.966700
  C    -72.722700    3.959420  -68.798500
  C    -72.593100    3.055200  -69.844900
  H    -73.466400    3.763650  -68.024000
  C    -71.878500    6.230800  -67.903600
  H    -71.710200    7.246060  -68.415100
  H    -71.025600    5.902130  -67.322600
  C    -73.180700    6.429310  -67.034100
  H    -73.947000    6.484140  -67.841400
  H    -73.562800    5.541780  -66.498800
  C    -73.244300    7.659480  -66.084100
  H    -72.902100    8.591710  -66.581900
  H    -74.195500    7.928280  -65.683900
  H    -72.482700    7.583520  -65.319100
  S    -72.418500    0.505081  -70.795500
  C    -73.704900   -0.640205  -70.568600
  C    -74.755200   -0.064294  -69.800900
  C    -74.595400    1.363990  -69.599200
  C    -73.318900    1.763910  -70.009600
  H    -75.661800   -0.645282  -69.489200
  C    -75.626500    2.142600  -68.838700
  H    -75.321400    3.155170  -69.046700
  H    -75.530600    1.912970  -67.768100
  C    -77.118300    1.940630  -69.273800
  H    -77.425300    0.954899  -68.990400
  H    -77.192300    1.944780  -70.411200
  C    -77.981000    3.050960  -68.685600
  H    -77.814100    3.166680  -67.573000
  H    -79.074100    2.862200  -68.944300
  H    -77.800700    4.004440  -69.169200
  H    -70.336200    5.804570  -70.308200
  H    -73.656400   -1.705050  -70.848700

 Total Charge           Charge          ....    0
 Multiplicity           Mult            ....    1
 Number of Electrons    NEL             ....  134
 Basis Dimension        Dim             ....  322

ORBITAL ENERGIES
----------------

  NO   OCC          E(Eh)            E(eV)
   0   2.0000     -88.968114     -2420.9455
   1   2.0000     -88.965961     -2420.8869
   2   2.0000     -10.331271      -281.1282
   3   2.0000     -10.330388      -281.1041
   4   2.0000     -10.323019      -280.9036
   5   2.0000     -10.314429      -280.6699
   6   2.0000     -10.305740      -280.4334
   7   2.0000     -10.302731      -280.3516
   8   2.0000     -10.302593      -280.3478
   9   2.0000     -10.302566      -280.3471
  10   2.0000     -10.296764      -280.1892
  11   2.0000     -10.293987      -280.1136
  12   2.0000     -10.293691      -280.1056
  13   2.0000     -10.293437      -280.0987
  14   2.0000     -10.288403      -279.9617
  15   2.0000     -10.282059      -279.7890
  16   2.0000      -8.083247      -219.9563
  17   2.0000      -8.081500      -219.9088
  18   2.0000      -6.041747      -164.4043
  19   2.0000      -6.040025      -164.3574
  20   2.0000      -6.037666      -164.2933
  21   2.0000      -6.035930      -164.2460
  22   2.0000      -6.034044      -164.1947
  23   2.0000      -6.032172      -164.1438
  24   2.0000      -1.008571       -27.4446
  25   2.0000      -0.985019       -26.8037
  26   2.0000      -0.910951       -24.7882
  27   2.0000      -0.907031       -24.6816
  28   2.0000      -0.864254       -23.5176
  29   2.0000      -0.854269       -23.2458
  30   2.0000      -0.843363       -22.9491
  31   2.0000      -0.811609       -22.0850
  32   2.0000      -0.780210       -21.2306
  33   2.0000      -0.770842       -20.9757
  34   2.0000      -0.711546       -19.3622
  35   2.0000      -0.701765       -19.0960
  36   2.0000      -0.687189       -18.6994
  37   2.0000      -0.655193       -17.8287
  38   2.0000      -0.635771       -17.3002
  39   2.0000      -0.618847       -16.8397
  40   2.0000      -0.593020       -16.1369
  41   2.0000      -0.569728       -15.5031
  42   2.0000      -0.565491       -15.3878
  43   2.0000      -0.559142       -15.2150
  44   2.0000      -0.526546       -14.3281
  45   2.0000      -0.522064       -14.2061
  46   2.0000      -0.515685       -14.0325
  47   2.0000      -0.507698       -13.8152
  48   2.0000      -0.501254       -13.6398
  49   2.0000      -0.497538       -13.5387
  50   2.0000      -0.492889       -13.4122
  51   2.0000      -0.483504       -13.1568
  52   2.0000      -0.473507       -12.8848
  53   2.0000      -0.469433       -12.7739
  54   2.0000      -0.461324       -12.5533
  55   2.0000      -0.450570       -12.2606
  56   2.0000      -0.446136       -12.1400
  57   2.0000      -0.431910       -11.7529
  58   2.0000      -0.430844       -11.7239
  59   2.0000      -0.425552       -11.5799
  60   2.0000      -0.423037       -11.5114
  61   2.0000      -0.416851       -11.3431
  62   2.0000      -0.414638       -11.2829
  63   2.0000      -0.354143        -9.6367
  64   2.0000      -0.332281        -9.0418
  65   2.0000      -0.325565        -8.8591
  66   2.0000      -0.283470        -7.7136
  67   0.0000       0.023565         0.6412
  68   0.0000       0.081248         2.2109
  69   0.0000       0.096694         2.6312
  70   0.0000       0.117754         3.2043
  71   0.0000       0.132349         3.6014

MULLIKEN ATOMIC CHARGES
-----------------------
   0 S :    0.107596
   1 C :   -0.125830
   2 C :   -0.090639
   3 C :   -0.017609
   4 C :   -0.123010
   5 H :    0.017834
   6 C :    0.042470
   7 H :    0.045598
   8 H :    0.056800
   9 C :   -0.131660
  10 H :    0.028680
  11 H :    0.041066
  12 C :   -0.011357
  13 H :    0.016421
  14 H :    0.036461
  15 H :    0.026736
  16 S :    0.106261
  17 C :   -0.104132
  18 C :   -0.059577
  19 C :   -0.070356
  20 C :   -0.125765
  21 H :    0.041968
  22 C :    0.037605
  23 H :    0.024736
  24 H :    0.053846
  25 C :   -0.080495
  26 H :    0.024135
  27 H :    0.044077
  28 C :   -0.066816
  29 H :    0.044207
  30 H :    0.043556
  31 H :    0.035784
  32 H :    0.059340
  33 H :    0.072070
Sum of atomic charges:   -0.0000000

LOEWDIN ATOMIC CHARGES
----------------------
   0 S :    0.420002
   1 C :   -0.208174
   2 C :   -0.070324
   3 C :   -0.072213
   4 C :   -0.199942
   5 H :    0.028114
   6 C :   -0.033071
   7 H :    0.043771
   8 H :    0.035698
   9 C :   -0.053547
  10 H :    0.026893
  11 H :    0.023821
  12 C :   -0.066866
  13 H :    0.027306
  14 H :    0.025187
  15 H :    0.024924
  16 S :    0.417419
  17 C :   -0.199801
  18 C :   -0.073411
  19 C :   -0.060486
  20 C :   -0.197717
  21 H :    0.037382
  22 C :   -0.036361
  23 H :    0.028080
  24 H :    0.037223
  25 C :   -0.040976
  26 H :    0.015002
  27 H :    0.034640
  28 C :   -0.073241
  29 H :    0.031297
  30 H :    0.034419
  31 H :    0.024955
  32 H :    0.034434
  33 H :    0.035564

  Mayer bond orders larger than 0.100000
B(  0-S ,  1-C ) :   1.1497 B(  0-S ,  4-C ) :   1.1606 B(  1-C ,  2-C ) :   1.5902
B(  1-C , 32-H ) :   0.9684 B(  2-C ,  3-C ) :   1.2516 B(  2-C ,  6-C ) :   1.0311
B(  3-C ,  4-C ) :   1.5526 B(  3-C ,  5-H ) :   0.9824 B(  4-C , 20-C ) :   1.0482
B(  6-C ,  7-H ) :   0.9400 B(  6-C ,  8-H ) :   0.9392 B(  6-C ,  9-C ) :   1.0502
B(  9-C , 10-H ) :   0.9619 B(  9-C , 11-H ) :   0.9507 B(  9-C , 12-C ) :   1.0781
B( 12-C , 13-H ) :   0.9717 B( 12-C , 14-H ) :   0.9761 B( 12-C , 15-H ) :   0.9737
B( 16-S , 17-C ) :   1.1607 B( 16-S , 20-C ) :   1.1486 B( 17-C , 18-C ) :   1.5934
B( 17-C , 33-H ) :   0.9671 B( 18-C , 19-C ) :   1.2426 B( 18-C , 21-H ) :   0.9776
B( 19-C , 20-C ) :   1.5830 B( 19-C , 22-C ) :   1.0509 B( 22-C , 23-H ) :   0.9301
B( 22-C , 24-H ) :   0.9288 B( 22-C , 25-C ) :   1.0523 B( 25-C , 26-H ) :   0.9523
B( 25-C , 27-H ) :   0.9583 B( 25-C , 28-C ) :   1.0857 B( 28-C , 29-H ) :   0.9712
B( 28-C , 30-H ) :   0.9726 B( 28-C , 31-H ) :   0.9744

Dispersion correction           -0.013463300
FINAL SINGLE POINT ENERGY     -1339.878104504859

DIPOLE MOMENT
-------------
                                X             Y             Z
Electronic contribution:     20.57181     -17.80968     -18.82296
Nuclear contribution   :    -20.95789      18.02195      19.35022
                        -----------------------------------------
Total Dipole Moment    :     -0.38607       0.21226       0.52725
                        -----------------------------------------
Magnitude (a.u.)       :      0.68710
Magnitude (Debye)      :      1.74646

Rotational constants in cm-1:     0.015705     0.009326     0.006181
Rotational constants in MHz :   470.820445   279.583597   185.297101

                             ****ORCA TERMINATED NORMALLY****
TOTAL RUN TIME: 0 days 0 hours 0 minutes 21 seconds 32 msec
