                         Program Version 4.2.1 -  RELEASE  -
|  1> ! wB97X-D3 SP def2-SVP
|  2> %pal
|  3> nprocs 24
|  4> end
|  5>
|  6> * xyz 0 1
|  7> S 	 -71.961 	 8.53829 	 -109.64
|  8> C 	 -73.4813 	 9.48347 	 -109.384
|  9> C 	 -74.5603 	 8.71548 	 -108.947
| 10> C 	 -74.1084 	 7.36998 	 -108.727
| 11> C 	 -72.8035 	 7.08556 	 -109.131
| 12> H 	 -74.732 	 6.63984 	 -108.189
| 13> C 	 -75.8973 	 9.1837 	 -108.393
| 14> H 	 -75.665 	 10.2218 	 -108.095
| 15> H 	 -76.3922 	 8.62087 	 -107.557
| 16> C 	 -77.0218 	 9.37545 	 -109.42
| 17> H 	 -76.6737 	 9.96231 	 -110.355
| 18> H 	 -77.4253 	 8.43234 	 -109.824
| 19> C 	 -78.2452 	 10.2408 	 -108.87
| 20> H 	 -78.4553 	 9.99103 	 -107.871
| 21> H 	 -78.0556 	 11.3176 	 -108.86
| 22> H 	 -79.1403 	 9.97914 	 -109.469
| 23> S 	 -70.5156 	 5.95815 	 -108.109
| 24> C 	 -70.3408 	 4.26022 	 -108.26
| 25> C 	 -71.4774 	 3.61118 	 -108.681
| 26> C 	 -72.4564 	 4.53882 	 -109.07
| 27> C 	 -72.1142 	 5.8514 	 -108.845
| 28> H 	 -71.5228 	 2.47259 	 -108.637
| 29> C 	 -73.6983 	 4.05028 	 -109.788
| 30> H 	 -73.3821 	 3.5393 	 -110.689
| 31> H 	 -74.2486 	 4.93316 	 -110.125
| 32> C 	 -74.6651 	 3.21269 	 -108.985
| 33> H 	 -74.9396 	 3.87314 	 -108.166
| 34> H 	 -74.2098 	 2.34027 	 -108.614
| 35> C 	 -75.8355 	 2.75811 	 -109.881
| 36> H 	 -76.7258 	 3.39099 	 -109.855
| 37> H 	 -76.1549 	 1.87289 	 -109.388
| 38> H 	 -75.4676 	 2.57789 	 -110.885
| 39> H 	 -73.5233 	 10.5844 	 -109.518
| 40> H 	 -69.412 	 3.75956 	 -107.871
| 41> *
| 42>
| 43>                          ****END OF INPUT****

CARTESIAN COORDINATES (ANGSTROEM)
---------------------------------
  S    -71.961000    8.538290  -109.640000
  C    -73.481300    9.483470  -109.384000
  C    -74.560300    8.715480  -108.947000
  C    -74.108400    7.369980  -108.727000
  C    -72.803500    7.085560  -109.131000
  H    -74.732000    6.639840  -108.189000
  C    -75.897300    9.183700  -108.393000
  H    -75.665000   10.221800  -108.095000
  H    -76.392200    8.620870  -107.557000
  C    -77.021800    9.375450  -109.420000
  H    -76.673700    9.962310  -110.355000
  H    -77.425300    8.432340  -109.824000
  C    -78.245200   10.240800  -108.870000
  H    -78.455300    9.991030  -107.871000
  H    -78.055600   11.317600  -108.860000
  H    -79.140300    9.979140  -109.469000
  S    -70.515600    5.958150  -108.109000
  C    -70.340800    4.260220  -108.260000
  C    -71.477400    3.611180  -108.681000
  C    -72.456400    4.538820  -109.070000
  C    -72.114200    5.851400  -108.845000
  H    -71.522800    2.472590  -108.637000
  C    -73.698300    4.050280  -109.788000
  H    -73.382100    3.539300  -110.689000
  H    -74.248600    4.933160  -110.125000
  C    -74.665100    3.212690  -108.985000
  H    -74.939600    3.873140  -108.166000
  H    -74.209800    2.340270  -108.614000
  C    -75.835500    2.758110  -109.881000
  H    -76.725800    3.390990  -109.855000
  H    -76.154900    1.872890  -109.388000
  H    -75.467600    2.577890  -110.885000
  H    -73.523300   10.584400  -109.518000
  H    -69.412000    3.759560  -107.871000

 Total Charge           Charge          ....    0
 Multiplicity           Mult            ....    1
 Number of Electrons    NEL             ....  134
 Basis Dimension        Dim             ....  322

ORBITAL ENERGIES
----------------

  NO   OCC          E(Eh)            E(eV)
   0   2.0000     -88.971738     -2421.0441
   1   2.0000     -88.963759     -2420.8270
   2   2.0000     -10.329099      -281.0691
   3   2.0000     -10.324775      -280.9514
   4   2.0000     -10.321832      -280.8713
   5   2.0000     -10.316655      -280.7305
   6   2.0000     -10.307974      -280.4942
   7   2.0000     -10.303534      -280.3734
   8   2.0000     -10.297350      -280.2051
   9   2.0000     -10.296802      -280.1902
  10   2.0000     -10.296103      -280.1712
  11   2.0000     -10.295146      -280.1452
  12   2.0000     -10.281486      -279.7735
  13   2.0000     -10.280896      -279.7574
  14   2.0000     -10.279256      -279.7128
  15   2.0000     -10.274432      -279.5815
  16   2.0000      -8.085233      -220.0104
  17   2.0000      -8.079329      -219.8497
  18   2.0000      -6.043850      -164.4615
  19   2.0000      -6.040070      -164.3587
  20   2.0000      -6.037642      -164.2926
  21   2.0000      -6.035796      -164.2424
  22   2.0000      -6.033847      -164.1893
  23   2.0000      -6.030114      -164.0877
  24   2.0000      -1.008305       -27.4374
  25   2.0000      -0.981165       -26.6989
  26   2.0000      -0.914199       -24.8766
  27   2.0000      -0.908228       -24.7141
  28   2.0000      -0.866297       -23.5732
  29   2.0000      -0.855521       -23.2799
  30   2.0000      -0.843328       -22.9481
  31   2.0000      -0.807412       -21.9708
  32   2.0000      -0.783434       -21.3183
  33   2.0000      -0.771907       -21.0046
  34   2.0000      -0.703716       -19.1491
  35   2.0000      -0.696035       -18.9401
  36   2.0000      -0.693823       -18.8799
  37   2.0000      -0.658003       -17.9052
  38   2.0000      -0.635333       -17.2883
  39   2.0000      -0.618605       -16.8331
  40   2.0000      -0.598409       -16.2835
  41   2.0000      -0.573374       -15.6023
  42   2.0000      -0.572282       -15.5726
  43   2.0000      -0.552099       -15.0234
  44   2.0000      -0.529866       -14.4184
  45   2.0000      -0.520755       -14.1705
  46   2.0000      -0.516287       -14.0489
  47   2.0000      -0.503247       -13.6940
  48   2.0000      -0.500608       -13.6222
  49   2.0000      -0.492923       -13.4131
  50   2.0000      -0.489281       -13.3140
  51   2.0000      -0.478971       -13.0335
  52   2.0000      -0.468065       -12.7367
  53   2.0000      -0.466945       -12.7062
  54   2.0000      -0.464131       -12.6297
  55   2.0000      -0.451988       -12.2992
  56   2.0000      -0.441574       -12.0158
  57   2.0000      -0.436847       -11.8872
  58   2.0000      -0.436288       -11.8720
  59   2.0000      -0.421466       -11.4687
  60   2.0000      -0.419986       -11.4284
  61   2.0000      -0.418989       -11.4013
  62   2.0000      -0.415410       -11.3039
  63   2.0000      -0.346764        -9.4359
  64   2.0000      -0.334829        -9.1112
  65   2.0000      -0.331632        -9.0242
  66   2.0000      -0.286407        -7.7935
  67   0.0000       0.025323         0.6891
  68   0.0000       0.071126         1.9354
  69   0.0000       0.101579         2.7641
  70   0.0000       0.121590         3.3086
  71   0.0000       0.127471         3.4687

MULLIKEN ATOMIC CHARGES
-----------------------
   0 S :    0.109548
   1 C :   -0.149136
   2 C :   -0.029326
   3 C :   -0.006310
   4 C :   -0.140019
   5 H :    0.023009
   6 C :    0.045259
   7 H :    0.026103
   8 H :    0.050700
   9 C :   -0.130258
  10 H :    0.041876
  11 H :    0.033893
  12 C :   -0.048122
  13 H :    0.012373
  14 H :    0.040348
  15 H :    0.042611
  16 S :    0.106768
  17 C :   -0.121142
  18 C :   -0.051036
  19 C :   -0.031250
  20 C :   -0.146978
  21 H :    0.048588
  22 C :    0.049104
  23 H :    0.025192
  24 H :    0.018776
  25 C :   -0.068757
  26 H :    0.026155
  27 H :    0.015129
  28 C :   -0.013189
  29 H :    0.035363
  30 H :    0.018393
  31 H :    0.033877
  32 H :    0.060323
  33 H :    0.072137
Sum of atomic charges:   -0.0000000

LOEWDIN ATOMIC CHARGES
----------------------
   0 S :    0.386243
   1 C :   -0.182492
   2 C :   -0.061107
   3 C :   -0.060324
   4 C :   -0.195595
   5 H :    0.032077
   6 C :   -0.038102
   7 H :    0.036752
   8 H :    0.040642
   9 C :   -0.047409
  10 H :    0.030779
  11 H :    0.020072
  12 C :   -0.067077
  13 H :    0.012652
  14 H :    0.026173
  15 H :    0.032924
  16 S :    0.408711
  17 C :   -0.196833
  18 C :   -0.082476
  19 C :   -0.058386
  20 C :   -0.197319
  21 H :    0.046973
  22 C :   -0.032857
  23 H :    0.026310
  24 H :    0.028246
  25 C :   -0.032922
  26 H :    0.024689
  27 H :    0.013177
  28 C :   -0.057878
  29 H :    0.027273
  30 H :    0.023539
  31 H :    0.026381
  32 H :    0.031534
  33 H :    0.035629

  Mayer bond orders larger than 0.100000
B(  0-S ,  1-C ) :   1.1304 B(  0-S ,  4-C ) :   1.1355 B(  1-C ,  2-C ) :   1.6172
B(  1-C , 32-H ) :   0.9582 B(  2-C ,  3-C ) :   1.2443 B(  2-C ,  6-C ) :   1.0105
B(  3-C ,  4-C ) :   1.5655 B(  3-C ,  5-H ) :   0.9860 B(  4-C , 20-C ) :   1.0671
B(  6-C ,  7-H ) :   0.9417 B(  6-C ,  8-H ) :   0.9502 B(  6-C ,  9-C ) :   1.0514
B(  9-C , 10-H ) :   0.9608 B(  9-C , 11-H ) :   0.9611 B(  9-C , 12-C ) :   1.0642
B( 12-C , 13-H ) :   0.9760 B( 12-C , 14-H ) :   0.9785 B( 12-C , 15-H ) :   0.9771
B( 16-S , 17-C ) :   1.1723 B( 16-S , 20-C ) :   1.1260 B( 17-C , 18-C ) :   1.6043
B( 17-C , 33-H ) :   0.9583 B( 18-C , 19-C ) :   1.2403 B( 18-C , 21-H ) :   0.9822
B( 19-C , 20-C ) :   1.6063 B( 19-C , 22-C ) :   1.0409 B( 22-C , 23-H ) :   0.9321
B( 22-C , 24-H ) :   0.9311 B( 22-C , 25-C ) :   1.0723 B( 25-C , 26-H ) :   0.9515
B( 25-C , 27-H ) :   0.9611 B( 25-C , 28-C ) :   1.0763 B( 28-C , 29-H ) :   0.9757
B( 28-C , 30-H ) :   0.9760 B( 28-C , 31-H ) :   0.9735

Dispersion correction           -0.013448781
FINAL SINGLE POINT ENERGY     -1339.873108813551

DIPOLE MOMENT
-------------
                                X             Y             Z
Electronic contribution:     31.90037       4.18649       2.16176
Nuclear contribution   :    -32.49106      -4.41630      -1.95273
                        -----------------------------------------
Total Dipole Moment    :     -0.59069      -0.22981       0.20903
                        -----------------------------------------
Magnitude (a.u.)       :      0.66740
Magnitude (Debye)      :      1.69639

Rotational constants in cm-1:     0.017343     0.008502     0.006033
Rotational constants in MHz :   519.937969   254.880612   180.872022

                             ****ORCA TERMINATED NORMALLY****
TOTAL RUN TIME: 0 days 0 hours 0 minutes 21 seconds 173 msec
