                         Program Version 4.2.1 -  RELEASE  -
|  1> ! wB97X-D3 SP def2-SVP
|  2> %pal
|  3> nprocs 24
|  4> end
|  5>
|  6> * xyz 0 1
|  7> S 	 -44.2534 	 27.3996 	 30.6715
|  8> C 	 -44.1824 	 25.9364 	 29.6834
|  9> C 	 -44.6137 	 24.7913 	 30.3996
| 10> C 	 -44.9127 	 25.0862 	 31.7702
| 11> C 	 -44.7438 	 26.4112 	 32.1047
| 12> H 	 -45.2943 	 24.366 	 32.4655
| 13> C 	 -44.8133 	 23.3873 	 29.8732
| 14> H 	 -44.2059 	 23.4417 	 28.9502
| 15> H 	 -45.8684 	 23.2324 	 29.5879
| 16> C 	 -44.4329 	 22.2639 	 30.8143
| 17> H 	 -43.4773 	 22.4041 	 31.3109
| 18> H 	 -45.2518 	 22.249 	 31.5446
| 19> C 	 -44.4712 	 20.8146 	 30.1707
| 20> H 	 -45.5074 	 20.4429 	 29.8601
| 21> H 	 -43.9407 	 20.7715 	 29.2078
| 22> H 	 -43.939 	 20.0573 	 30.8057
| 23> S 	 -46.323 	 27.3266 	 34.0587
| 24> C 	 -45.7071 	 28.0871 	 35.4323
| 25> C 	 -44.3764 	 28.0681 	 35.4431
| 26> C 	 -43.8069 	 27.6341 	 34.1634
| 27> C 	 -44.7821 	 27.0196 	 33.3987
| 28> H 	 -43.9233 	 28.5688 	 36.3216
| 29> C 	 -42.3277 	 27.6152 	 33.7888
| 30> H 	 -42.229 	 28.3997 	 33.0016
| 31> H 	 -42.1111 	 26.6009 	 33.4606
| 32> C 	 -41.2132 	 27.9416 	 34.8484
| 33> H 	 -41.3791 	 27.291 	 35.6965
| 34> H 	 -41.4135 	 28.9631 	 35.229
| 35> C 	 -39.7661 	 27.7342 	 34.4282
| 36> H 	 -39.5555 	 28.1829 	 33.4717
| 37> H 	 -39.5061 	 26.6905 	 34.3241
| 38> H 	 -39.1097 	 28.2329 	 35.1126
| 39> H 	 -43.9674 	 26.0338 	 28.6393
| 40> H 	 -46.2591 	 28.4144 	 36.257
| 41> *
| 42>
| 43>                          ****END OF INPUT****

CARTESIAN COORDINATES (ANGSTROEM)
---------------------------------
  S    -44.253400   27.399600   30.671500
  C    -44.182400   25.936400   29.683400
  C    -44.613700   24.791300   30.399600
  C    -44.912700   25.086200   31.770200
  C    -44.743800   26.411200   32.104700
  H    -45.294300   24.366000   32.465500
  C    -44.813300   23.387300   29.873200
  H    -44.205900   23.441700   28.950200
  H    -45.868400   23.232400   29.587900
  C    -44.432900   22.263900   30.814300
  H    -43.477300   22.404100   31.310900
  H    -45.251800   22.249000   31.544600
  C    -44.471200   20.814600   30.170700
  H    -45.507400   20.442900   29.860100
  H    -43.940700   20.771500   29.207800
  H    -43.939000   20.057300   30.805700
  S    -46.323000   27.326600   34.058700
  C    -45.707100   28.087100   35.432300
  C    -44.376400   28.068100   35.443100
  C    -43.806900   27.634100   34.163400
  C    -44.782100   27.019600   33.398700
  H    -43.923300   28.568800   36.321600
  C    -42.327700   27.615200   33.788800
  H    -42.229000   28.399700   33.001600
  H    -42.111100   26.600900   33.460600
  C    -41.213200   27.941600   34.848400
  H    -41.379100   27.291000   35.696500
  H    -41.413500   28.963100   35.229000
  C    -39.766100   27.734200   34.428200
  H    -39.555500   28.182900   33.471700
  H    -39.506100   26.690500   34.324100
  H    -39.109700   28.232900   35.112600
  H    -43.967400   26.033800   28.639300
  H    -46.259100   28.414400   36.257000

 Total Charge           Charge          ....    0
 Multiplicity           Mult            ....    1
 Number of Electrons    NEL             ....  134
 Basis Dimension        Dim             ....  322

ORBITAL ENERGIES
----------------

  NO   OCC          E(Eh)            E(eV)
   0   2.0000     -88.965359     -2420.8705
   1   2.0000     -88.957363     -2420.6529
   2   2.0000     -10.329535      -281.0809
   3   2.0000     -10.319302      -280.8025
   4   2.0000     -10.315398      -280.6962
   5   2.0000     -10.306401      -280.4514
   6   2.0000     -10.305865      -280.4368
   7   2.0000     -10.300382      -280.2876
   8   2.0000     -10.294688      -280.1327
   9   2.0000     -10.293953      -280.1127
  10   2.0000     -10.293938      -280.1123
  11   2.0000     -10.292006      -280.0597
  12   2.0000     -10.292002      -280.0596
  13   2.0000     -10.289694      -279.9968
  14   2.0000     -10.285729      -279.8889
  15   2.0000     -10.273307      -279.5509
  16   2.0000      -8.078867      -219.8371
  17   2.0000      -8.074545      -219.7195
  18   2.0000      -6.037408      -164.2862
  19   2.0000      -6.033601      -164.1826
  20   2.0000      -6.032893      -164.1634
  21   2.0000      -6.029621      -164.0743
  22   2.0000      -6.028606      -164.0467
  23   2.0000      -6.025424      -163.9601
  24   2.0000      -1.013496       -27.5786
  25   2.0000      -0.980411       -26.6783
  26   2.0000      -0.910652       -24.7801
  27   2.0000      -0.901697       -24.5364
  28   2.0000      -0.874102       -23.7855
  29   2.0000      -0.849740       -23.1226
  30   2.0000      -0.842899       -22.9364
  31   2.0000      -0.817747       -22.2520
  32   2.0000      -0.780659       -21.2428
  33   2.0000      -0.767894       -20.8955
  34   2.0000      -0.713080       -19.4039
  35   2.0000      -0.700059       -19.0496
  36   2.0000      -0.690973       -18.8023
  37   2.0000      -0.650804       -17.7093
  38   2.0000      -0.638533       -17.3754
  39   2.0000      -0.622292       -16.9334
  40   2.0000      -0.592847       -16.1322
  41   2.0000      -0.577366       -15.7109
  42   2.0000      -0.569799       -15.5050
  43   2.0000      -0.556566       -15.1449
  44   2.0000      -0.524894       -14.2831
  45   2.0000      -0.521448       -14.1893
  46   2.0000      -0.514333       -13.9957
  47   2.0000      -0.510323       -13.8866
  48   2.0000      -0.507372       -13.8063
  49   2.0000      -0.494624       -13.4594
  50   2.0000      -0.492877       -13.4119
  51   2.0000      -0.476321       -12.9613
  52   2.0000      -0.472635       -12.8611
  53   2.0000      -0.467324       -12.7165
  54   2.0000      -0.459414       -12.5013
  55   2.0000      -0.451820       -12.2946
  56   2.0000      -0.446504       -12.1500
  57   2.0000      -0.439121       -11.9491
  58   2.0000      -0.425954       -11.5908
  59   2.0000      -0.423666       -11.5285
  60   2.0000      -0.418047       -11.3756
  61   2.0000      -0.413293       -11.2463
  62   2.0000      -0.407732       -11.0949
  63   2.0000      -0.340702        -9.2710
  64   2.0000      -0.331748        -9.0273
  65   2.0000      -0.319377        -8.6907
  66   2.0000      -0.301016        -8.1911
  67   0.0000       0.037514         1.0208
  68   0.0000       0.066974         1.8225
  69   0.0000       0.108933         2.9642
  70   0.0000       0.122366         3.3297
  71   0.0000       0.137101         3.7307

MULLIKEN ATOMIC CHARGES
-----------------------
   0 S :    0.104733
   1 C :   -0.133256
   2 C :   -0.084574
   3 C :    0.037567
   4 C :   -0.150919
   5 H :    0.010477
   6 C :    0.074741
   7 H :    0.020589
   8 H :    0.047448
   9 C :   -0.095894
  10 H :    0.042886
  11 H :    0.041471
  12 C :   -0.084915
  13 H :    0.040709
  14 H :    0.027256
  15 H :    0.048831
  16 S :    0.116629
  17 C :   -0.053956
  18 C :   -0.062987
  19 C :   -0.041854
  20 C :   -0.168349
  21 H :    0.029464
  22 C :    0.046560
  23 H :    0.043662
  24 H :    0.042660
  25 C :   -0.103182
  26 H :    0.023622
  27 H :    0.028050
  28 C :   -0.006859
  29 H :    0.018537
  30 H :    0.032748
  31 H :    0.030065
  32 H :    0.047196
  33 H :    0.030843
Sum of atomic charges:    0.0000000

LOEWDIN ATOMIC CHARGES
----------------------
   0 S :    0.379844
   1 C :   -0.189066
   2 C :   -0.061144
   3 C :   -0.054174
   4 C :   -0.175967
   5 H :    0.031434
   6 C :   -0.037662
   7 H :    0.030859
   8 H :    0.038600
   9 C :   -0.042691
  10 H :    0.027266
  11 H :    0.027310
  12 C :   -0.078389
  13 H :    0.031542
  14 H :    0.022477
  15 H :    0.032852
  16 S :    0.446049
  17 C :   -0.197431
  18 C :   -0.084160
  19 C :   -0.050108
  20 C :   -0.227158
  21 H :    0.038084
  22 C :   -0.037177
  23 H :    0.036456
  24 H :    0.034190
  25 C :   -0.045346
  26 H :    0.020261
  27 H :    0.022280
  28 C :   -0.058968
  29 H :    0.022667
  30 H :    0.026067
  31 H :    0.028072
  32 H :    0.021824
  33 H :    0.021308

  Mayer bond orders larger than 0.100000
B(  0-S ,  1-C ) :   1.1431 B(  0-S ,  4-C ) :   1.1295 B(  1-C ,  2-C ) :   1.6024
B(  1-C ,  4-C ) :   0.1015 B(  1-C , 32-H ) :   0.9726 B(  2-C ,  3-C ) :   1.2297
B(  2-C ,  6-C ) :   1.0221 B(  3-C ,  4-C ) :   1.6029 B(  3-C ,  5-H ) :   0.9925
B(  4-C , 20-C ) :   1.0200 B(  6-C ,  7-H ) :   0.9399 B(  6-C ,  8-H ) :   0.9330
B(  6-C ,  9-C ) :   1.0680 B(  9-C , 10-H ) :   0.9644 B(  9-C , 11-H ) :   0.9446
B(  9-C , 12-C ) :   1.0730 B( 12-C , 13-H ) :   0.9750 B( 12-C , 14-H ) :   0.9765
B( 12-C , 15-H ) :   0.9767 B( 16-S , 17-C ) :   1.1646 B( 16-S , 20-C ) :   1.1632
B( 17-C , 18-C ) :   1.6410 B( 17-C , 33-H ) :   0.9651 B( 18-C , 19-C ) :   1.2122
B( 18-C , 21-H ) :   0.9835 B( 19-C , 20-C ) :   1.5973 B( 19-C , 22-C ) :   1.0341
B( 22-C , 23-H ) :   0.9224 B( 22-C , 24-H ) :   0.9449 B( 22-C , 25-C ) :   1.0815
B( 25-C , 26-H ) :   0.9545 B( 25-C , 27-H ) :   0.9523 B( 25-C , 28-C ) :   1.0889
B( 28-C , 29-H ) :   0.9733 B( 28-C , 30-H ) :   0.9742 B( 28-C , 31-H ) :   0.9707

Dispersion correction           -0.013580522
FINAL SINGLE POINT ENERGY     -1339.875606419833

DIPOLE MOMENT
-------------
                                X             Y             Z
Electronic contribution:    -16.95182      16.53373       0.34678
Nuclear contribution   :     17.24189     -16.86429      -0.26084
                        -----------------------------------------
Total Dipole Moment    :      0.29008      -0.33056       0.08594
                        -----------------------------------------
Magnitude (a.u.)       :      0.44811
Magnitude (Debye)      :      1.13900

Rotational constants in cm-1:     0.017178     0.007615     0.006691
Rotational constants in MHz :   514.993362   228.288458   200.603161

                             ****ORCA TERMINATED NORMALLY****
TOTAL RUN TIME: 0 days 0 hours 0 minutes 19 seconds 713 msec
