                         Program Version 4.2.1 -  RELEASE  -
|  1> ! wB97X-D3 SP def2-SVP
|  2> %pal
|  3> nprocs 24
|  4> end
|  5>
|  6> * xyz 0 1
|  7> S 	 27.1526 	 -0.940005 	 -109.979
|  8> C 	 28.1638 	 -0.865613 	 -111.397
|  9> C 	 27.7062 	 0.0811367 	 -112.314
| 10> C 	 26.5681 	 0.794232 	 -111.81
| 11> C 	 26.2162 	 0.487057 	 -110.529
| 12> H 	 26.1017 	 1.62428 	 -112.185
| 13> C 	 28.2668 	 0.333606 	 -113.634
| 14> H 	 29.3751 	 0.47731 	 -113.61
| 15> H 	 27.861 	 1.3175 	 -113.985
| 16> C 	 27.9134 	 -0.704303 	 -114.651
| 17> H 	 27.5912 	 -1.66386 	 -114.345
| 18> H 	 26.9481 	 -0.386153 	 -115.148
| 19> C 	 28.8965 	 -0.664206 	 -115.774
| 20> H 	 28.4944 	 -1.01491 	 -116.649
| 21> H 	 29.1417 	 0.366949 	 -116.022
| 22> H 	 29.8717 	 -1.23924 	 -115.619
| 23> S 	 25.1108 	 0.738047 	 -108.042
| 24> C 	 23.5347 	 1.33612 	 -107.858
| 25> C 	 23.0276 	 1.88542 	 -109.057
| 26> C 	 23.9141 	 1.65724 	 -110.146
| 27> C 	 25.0857 	 1.02963 	 -109.767
| 28> H 	 22.0009 	 2.34418 	 -109.058
| 29> C 	 23.544 	 1.951 	 -111.585
| 30> H 	 22.4751 	 1.93232 	 -111.565
| 31> H 	 24.0241 	 1.12249 	 -112.143
| 32> C 	 23.993 	 3.40128 	 -111.849
| 33> H 	 24.9441 	 3.6071 	 -111.402
| 34> H 	 23.4007 	 4.06059 	 -111.265
| 35> C 	 24.0349 	 3.73082 	 -113.358
| 36> H 	 24.9911 	 3.46582 	 -113.839
| 37> H 	 23.8815 	 4.81205 	 -113.48
| 38> H 	 23.1302 	 3.31809 	 -113.8
| 39> H 	 28.8845 	 -1.61531 	 -111.632
| 40> H 	 22.863 	 1.18899 	 -107.06
| 41> *
| 42>
| 43>                          ****END OF INPUT****

CARTESIAN COORDINATES (ANGSTROEM)
---------------------------------
  S     27.152600   -0.940005  -109.979000
  C     28.163800   -0.865613  -111.397000
  C     27.706200    0.081137  -112.314000
  C     26.568100    0.794232  -111.810000
  C     26.216200    0.487057  -110.529000
  H     26.101700    1.624280  -112.185000
  C     28.266800    0.333606  -113.634000
  H     29.375100    0.477310  -113.610000
  H     27.861000    1.317500  -113.985000
  C     27.913400   -0.704303  -114.651000
  H     27.591200   -1.663860  -114.345000
  H     26.948100   -0.386153  -115.148000
  C     28.896500   -0.664206  -115.774000
  H     28.494400   -1.014910  -116.649000
  H     29.141700    0.366949  -116.022000
  H     29.871700   -1.239240  -115.619000
  S     25.110800    0.738047  -108.042000
  C     23.534700    1.336120  -107.858000
  C     23.027600    1.885420  -109.057000
  C     23.914100    1.657240  -110.146000
  C     25.085700    1.029630  -109.767000
  H     22.000900    2.344180  -109.058000
  C     23.544000    1.951000  -111.585000
  H     22.475100    1.932320  -111.565000
  H     24.024100    1.122490  -112.143000
  C     23.993000    3.401280  -111.849000
  H     24.944100    3.607100  -111.402000
  H     23.400700    4.060590  -111.265000
  C     24.034900    3.730820  -113.358000
  H     24.991100    3.465820  -113.839000
  H     23.881500    4.812050  -113.480000
  H     23.130200    3.318090  -113.800000
  H     28.884500   -1.615310  -111.632000
  H     22.863000    1.188990  -107.060000

 Total Charge           Charge          ....    0
 Multiplicity           Mult            ....    1
 Number of Electrons    NEL             ....  134
 Basis Dimension        Dim             ....  322

ORBITAL ENERGIES
----------------

  NO   OCC          E(Eh)            E(eV)
   0   2.0000     -88.966936     -2420.9134
   1   2.0000     -88.964876     -2420.8574
   2   2.0000     -10.330829      -281.1161
   3   2.0000     -10.324192      -280.9356
   4   2.0000     -10.312480      -280.6168
   5   2.0000     -10.310824      -280.5718
   6   2.0000     -10.301442      -280.3165
   7   2.0000     -10.299111      -280.2531
   8   2.0000     -10.298804      -280.2447
   9   2.0000     -10.291714      -280.0518
  10   2.0000     -10.290722      -280.0248
  11   2.0000     -10.284463      -279.8545
  12   2.0000     -10.284192      -279.8471
  13   2.0000     -10.282258      -279.7945
  14   2.0000     -10.281122      -279.7635
  15   2.0000     -10.272821      -279.5377
  16   2.0000      -8.082403      -219.9334
  17   2.0000      -8.078982      -219.8403
  18   2.0000      -6.040751      -164.3772
  19   2.0000      -6.037578      -164.2908
  20   2.0000      -6.036782      -164.2692
  21   2.0000      -6.033616      -164.1830
  22   2.0000      -6.033332      -164.1753
  23   2.0000      -6.029657      -164.0753
  24   2.0000      -1.009018       -27.4568
  25   2.0000      -0.985406       -26.8143
  26   2.0000      -0.923113       -25.1192
  27   2.0000      -0.916398       -24.9365
  28   2.0000      -0.870222       -23.6799
  29   2.0000      -0.856744       -23.3132
  30   2.0000      -0.849573       -23.1180
  31   2.0000      -0.816807       -22.2264
  32   2.0000      -0.782619       -21.2961
  33   2.0000      -0.769208       -20.9312
  34   2.0000      -0.708929       -19.2909
  35   2.0000      -0.706245       -19.2179
  36   2.0000      -0.697950       -18.9922
  37   2.0000      -0.669593       -18.2205
  38   2.0000      -0.646031       -17.5794
  39   2.0000      -0.623669       -16.9709
  40   2.0000      -0.590241       -16.0613
  41   2.0000      -0.574986       -15.6462
  42   2.0000      -0.570910       -15.5352
  43   2.0000      -0.553562       -15.0632
  44   2.0000      -0.530039       -14.4231
  45   2.0000      -0.526594       -14.3293
  46   2.0000      -0.522630       -14.2215
  47   2.0000      -0.514732       -14.0066
  48   2.0000      -0.510458       -13.8903
  49   2.0000      -0.500341       -13.6150
  50   2.0000      -0.497251       -13.5309
  51   2.0000      -0.482159       -13.1202
  52   2.0000      -0.478425       -13.0186
  53   2.0000      -0.461341       -12.5537
  54   2.0000      -0.460790       -12.5387
  55   2.0000      -0.453223       -12.3328
  56   2.0000      -0.446422       -12.1478
  57   2.0000      -0.442688       -12.0462
  58   2.0000      -0.433885       -11.8066
  59   2.0000      -0.430248       -11.7076
  60   2.0000      -0.422952       -11.5091
  61   2.0000      -0.411968       -11.2102
  62   2.0000      -0.400635       -10.9018
  63   2.0000      -0.357154        -9.7187
  64   2.0000      -0.331877        -9.0308
  65   2.0000      -0.328709        -8.9446
  66   2.0000      -0.280556        -7.6343
  67   0.0000       0.021949         0.5973
  68   0.0000       0.079150         2.1538
  69   0.0000       0.101831         2.7709
  70   0.0000       0.119956         3.2642
  71   0.0000       0.127240         3.4624

MULLIKEN ATOMIC CHARGES
-----------------------
   0 S :    0.093759
   1 C :   -0.102159
   2 C :   -0.069592
   3 C :    0.020985
   4 C :   -0.087242
   5 H :   -0.048051
   6 C :    0.052157
   7 H :    0.043379
   8 H :    0.025947
   9 C :   -0.062959
  10 H :    0.023605
  11 H :    0.018936
  12 C :   -0.020858
  13 H :    0.003233
  14 H :    0.018873
  15 H :    0.042120
  16 S :    0.116846
  17 C :   -0.071059
  18 C :   -0.074587
  19 C :   -0.104039
  20 C :   -0.141816
  21 H :    0.037853
  22 C :    0.084177
  23 H :    0.015317
  24 H :    0.052224
  25 C :   -0.072023
  26 H :    0.025656
  27 H :    0.009210
  28 C :   -0.022290
  29 H :    0.051526
  30 H :    0.026745
  31 H :    0.029490
  32 H :    0.040860
  33 H :    0.043777
Sum of atomic charges:    0.0000000

LOEWDIN ATOMIC CHARGES
----------------------
   0 S :    0.383667
   1 C :   -0.193263
   2 C :   -0.058687
   3 C :   -0.065056
   4 C :   -0.167178
   5 H :    0.015298
   6 C :   -0.040130
   7 H :    0.037459
   8 H :    0.036891
   9 C :   -0.045234
  10 H :    0.018779
  11 H :    0.033418
  12 C :   -0.061957
  13 H :    0.011903
  14 H :    0.025899
  15 H :    0.031054
  16 S :    0.431141
  17 C :   -0.198939
  18 C :   -0.082048
  19 C :   -0.054245
  20 C :   -0.203346
  21 H :    0.040635
  22 C :   -0.027416
  23 H :    0.027677
  24 H :    0.038314
  25 C :   -0.040359
  26 H :    0.020711
  27 H :    0.022669
  28 C :   -0.066960
  29 H :    0.028425
  30 H :    0.028117
  31 H :    0.026049
  32 H :    0.023569
  33 H :    0.023147

  Mayer bond orders larger than 0.100000
B(  0-S ,  1-C ) :   1.1323 B(  0-S ,  4-C ) :   1.1283 B(  1-C ,  2-C ) :   1.6032
B(  1-C , 32-H ) :   0.9714 B(  2-C ,  3-C ) :   1.2255 B(  2-C ,  6-C ) :   1.0360
B(  3-C ,  4-C ) :   1.5947 B(  3-C ,  5-H ) :   1.0036 B(  4-C , 20-C ) :   1.0701
B(  6-C ,  7-H ) :   0.9487 B(  6-C ,  8-H ) :   0.9279 B(  6-C ,  9-C ) :   1.0452
B(  9-C , 10-H ) :   0.9674 B(  9-C , 11-H ) :   0.9450 B(  9-C , 12-C ) :   1.0852
B( 12-C , 13-H ) :   0.9688 B( 12-C , 14-H ) :   0.9665 B( 12-C , 15-H ) :   0.9728
B( 16-S , 17-C ) :   1.1844 B( 16-S , 20-C ) :   1.1333 B( 17-C , 18-C ) :   1.5826
B( 17-C , 33-H ) :   0.9692 B( 18-C , 19-C ) :   1.2752 B( 18-C , 21-H ) :   0.9796
B( 19-C , 20-C ) :   1.5715 B( 19-C , 22-C ) :   1.0260 B( 22-C , 23-H ) :   0.9195
B( 22-C , 24-H ) :   0.9424 B( 22-C , 25-C ) :   1.0534 B( 25-C , 26-H ) :   0.9594
B( 25-C , 27-H ) :   0.9471 B( 25-C , 28-C ) :   1.0715 B( 28-C , 29-H ) :   0.9780
B( 28-C , 30-H ) :   0.9725 B( 28-C , 31-H ) :   0.9702

Dispersion correction           -0.014269321
FINAL SINGLE POINT ENERGY     -1339.859762713642

DIPOLE MOMENT
-------------
                                X             Y             Z
Electronic contribution:     -0.56237      -9.17705      30.48964
Nuclear contribution   :      0.19723       9.41936     -31.13227
                        -----------------------------------------
Total Dipole Moment    :     -0.36514       0.24231      -0.64262
                        -----------------------------------------
Magnitude (a.u.)       :      0.77782
Magnitude (Debye)      :      1.97707

Rotational constants in cm-1:     0.019580     0.008950     0.006379
Rotational constants in MHz :   586.999564   268.301419   191.235573

                             ****ORCA TERMINATED NORMALLY****
TOTAL RUN TIME: 0 days 0 hours 0 minutes 21 seconds 26 msec
