                         Program Version 4.2.1 -  RELEASE  -
|  1> ! wB97X-D3 SP def2-SVP
|  2> %pal
|  3> nprocs 24
|  4> end
|  5>
|  6> * xyz 0 1
|  7> S 	 -64.8737 	 19.3325 	 -118.937
|  8> C 	 -63.1377 	 19.4462 	 -118.697
|  9> C 	 -62.7729 	 19.7262 	 -117.418
| 10> C 	 -63.9015 	 19.8034 	 -116.556
| 11> C 	 -65.1241 	 19.6926 	 -117.23
| 12> H 	 -64.0229 	 19.8702 	 -115.468
| 13> C 	 -61.3748 	 20.0664 	 -117.044
| 14> H 	 -60.4924 	 19.6756 	 -117.624
| 15> H 	 -61.2779 	 19.6583 	 -116.056
| 16> C 	 -61.0683 	 21.611 	 -117.091
| 17> H 	 -61.6576 	 22.1552 	 -116.326
| 18> H 	 -60.1149 	 21.7965 	 -116.639
| 19> C 	 -61.049 	 22.4087 	 -118.449
| 20> H 	 -61.9552 	 22.1431 	 -118.974
| 21> H 	 -61.021 	 23.4843 	 -118.37
| 22> H 	 -60.3308 	 21.8831 	 -119.037
| 23> S 	 -67.3742 	 18.1928 	 -117.016
| 24> C 	 -68.6748 	 18.5865 	 -115.974
| 25> C 	 -68.4643 	 19.8215 	 -115.454
| 26> C 	 -67.2068 	 20.431 	 -115.759
| 27> C 	 -66.5116 	 19.6722 	 -116.702
| 28> H 	 -69.2814 	 20.3302 	 -114.942
| 29> C 	 -66.8101 	 21.7608 	 -115.289
| 30> H 	 -65.7597 	 21.5898 	 -114.882
| 31> H 	 -67.3859 	 22.0268 	 -114.348
| 32> C 	 -66.8615 	 22.8769 	 -116.286
| 33> H 	 -67.8438 	 22.9357 	 -116.847
| 34> H 	 -66.2201 	 22.5637 	 -117.017
| 35> C 	 -66.3817 	 24.1592 	 -115.627
| 36> H 	 -66.9777 	 24.3367 	 -114.757
| 37> H 	 -66.4865 	 25.1875 	 -116.115
| 38> H 	 -65.2994 	 24.0408 	 -115.379
| 39> H 	 -62.4558 	 19.4745 	 -119.51
| 40> H 	 -69.5819 	 18.0345 	 -115.779
| 41> *
| 42>
| 43>                          ****END OF INPUT****

CARTESIAN COORDINATES (ANGSTROEM)
---------------------------------
  S    -64.873700   19.332500  -118.937000
  C    -63.137700   19.446200  -118.697000
  C    -62.772900   19.726200  -117.418000
  C    -63.901500   19.803400  -116.556000
  C    -65.124100   19.692600  -117.230000
  H    -64.022900   19.870200  -115.468000
  C    -61.374800   20.066400  -117.044000
  H    -60.492400   19.675600  -117.624000
  H    -61.277900   19.658300  -116.056000
  C    -61.068300   21.611000  -117.091000
  H    -61.657600   22.155200  -116.326000
  H    -60.114900   21.796500  -116.639000
  C    -61.049000   22.408700  -118.449000
  H    -61.955200   22.143100  -118.974000
  H    -61.021000   23.484300  -118.370000
  H    -60.330800   21.883100  -119.037000
  S    -67.374200   18.192800  -117.016000
  C    -68.674800   18.586500  -115.974000
  C    -68.464300   19.821500  -115.454000
  C    -67.206800   20.431000  -115.759000
  C    -66.511600   19.672200  -116.702000
  H    -69.281400   20.330200  -114.942000
  C    -66.810100   21.760800  -115.289000
  H    -65.759700   21.589800  -114.882000
  H    -67.385900   22.026800  -114.348000
  C    -66.861500   22.876900  -116.286000
  H    -67.843800   22.935700  -116.847000
  H    -66.220100   22.563700  -117.017000
  C    -66.381700   24.159200  -115.627000
  H    -66.977700   24.336700  -114.757000
  H    -66.486500   25.187500  -116.115000
  H    -65.299400   24.040800  -115.379000
  H    -62.455800   19.474500  -119.510000
  H    -69.581900   18.034500  -115.779000

 Total Charge           Charge          ....    0
 Multiplicity           Mult            ....    1
 Number of Electrons    NEL             ....  134
 Basis Dimension        Dim             ....  322

ORBITAL ENERGIES
----------------

  NO   OCC          E(Eh)            E(eV)
   0   2.0000     -88.966518     -2420.9020
   1   2.0000     -88.963398     -2420.8171
   2   2.0000     -10.335896      -281.2540
   3   2.0000     -10.327685      -281.0306
   4   2.0000     -10.312388      -280.6143
   5   2.0000     -10.309640      -280.5396
   6   2.0000     -10.302327      -280.3406
   7   2.0000     -10.302115      -280.3348
   8   2.0000     -10.300909      -280.3020
   9   2.0000     -10.299762      -280.2708
  10   2.0000     -10.293927      -280.1120
  11   2.0000     -10.289495      -279.9914
  12   2.0000     -10.288746      -279.9710
  13   2.0000     -10.281846      -279.7832
  14   2.0000     -10.280208      -279.7387
  15   2.0000     -10.277582      -279.6672
  16   2.0000      -8.081149      -219.8992
  17   2.0000      -8.079051      -219.8422
  18   2.0000      -6.039534      -164.3441
  19   2.0000      -6.037531      -164.2896
  20   2.0000      -6.035761      -164.2414
  21   2.0000      -6.033239      -164.1728
  22   2.0000      -6.031950      -164.1377
  23   2.0000      -6.029938      -164.0830
  24   2.0000      -1.011122       -27.5140
  25   2.0000      -0.989587       -26.9280
  26   2.0000      -0.920229       -25.0407
  27   2.0000      -0.909004       -24.7353
  28   2.0000      -0.867665       -23.6104
  29   2.0000      -0.853961       -23.2375
  30   2.0000      -0.846755       -23.0414
  31   2.0000      -0.817809       -22.2537
  32   2.0000      -0.785917       -21.3859
  33   2.0000      -0.771072       -20.9819
  34   2.0000      -0.713249       -19.4085
  35   2.0000      -0.702639       -19.1198
  36   2.0000      -0.694611       -18.9013
  37   2.0000      -0.662388       -18.0245
  38   2.0000      -0.646360       -17.5884
  39   2.0000      -0.618029       -16.8174
  40   2.0000      -0.597299       -16.2533
  41   2.0000      -0.570425       -15.5221
  42   2.0000      -0.565925       -15.3996
  43   2.0000      -0.555039       -15.1034
  44   2.0000      -0.535751       -14.5785
  45   2.0000      -0.524401       -14.2697
  46   2.0000      -0.522142       -14.2082
  47   2.0000      -0.518692       -14.1143
  48   2.0000      -0.504659       -13.7325
  49   2.0000      -0.494406       -13.4535
  50   2.0000      -0.490229       -13.3398
  51   2.0000      -0.479341       -13.0435
  52   2.0000      -0.474970       -12.9246
  53   2.0000      -0.468283       -12.7426
  54   2.0000      -0.455600       -12.3975
  55   2.0000      -0.453092       -12.3293
  56   2.0000      -0.445769       -12.1300
  57   2.0000      -0.440313       -11.9815
  58   2.0000      -0.430595       -11.7171
  59   2.0000      -0.422648       -11.5008
  60   2.0000      -0.413136       -11.2420
  61   2.0000      -0.411662       -11.2019
  62   2.0000      -0.409824       -11.1519
  63   2.0000      -0.349378        -9.5071
  64   2.0000      -0.333319        -9.0701
  65   2.0000      -0.328230        -8.9316
  66   2.0000      -0.294801        -8.0219
  67   0.0000       0.030849         0.8394
  68   0.0000       0.067723         1.8428
  69   0.0000       0.113112         3.0779
  70   0.0000       0.121105         3.2954
  71   0.0000       0.128675         3.5014

MULLIKEN ATOMIC CHARGES
-----------------------
   0 S :    0.099987
   1 C :   -0.099671
   2 C :   -0.053002
   3 C :    0.030874
   4 C :   -0.180642
   5 H :    0.025965
   6 C :    0.059372
   7 H :    0.039220
   8 H :    0.024405
   9 C :   -0.103209
  10 H :    0.014571
  11 H :    0.016905
  12 C :   -0.013668
  13 H :    0.022424
  14 H :    0.051931
  15 H :    0.015454
  16 S :    0.109410
  17 C :   -0.078176
  18 C :   -0.045962
  19 C :   -0.044602
  20 C :   -0.141161
  21 H :    0.019478
  22 C :    0.005868
  23 H :    0.026149
  24 H :    0.019845
  25 C :    0.002901
  26 H :    0.037012
  27 H :    0.008547
  28 C :   -0.060367
  29 H :    0.019732
  30 H :    0.041372
  31 H :    0.039550
  32 H :    0.034125
  33 H :    0.055364
Sum of atomic charges:   -0.0000000

LOEWDIN ATOMIC CHARGES
----------------------
   0 S :    0.394325
   1 C :   -0.183793
   2 C :   -0.066290
   3 C :   -0.064728
   4 C :   -0.186776
   5 H :    0.037126
   6 C :   -0.031210
   7 H :    0.038889
   8 H :    0.033021
   9 C :   -0.044717
  10 H :    0.019036
  11 H :    0.017416
  12 C :   -0.061955
  13 H :    0.023921
  14 H :    0.032354
  15 H :    0.020928
  16 S :    0.429941
  17 C :   -0.198032
  18 C :   -0.076498
  19 C :   -0.061563
  20 C :   -0.208667
  21 H :    0.031883
  22 C :   -0.041426
  23 H :    0.038378
  24 H :    0.031115
  25 C :   -0.038663
  26 H :    0.034366
  27 H :    0.014897
  28 C :   -0.072696
  29 H :    0.019078
  30 H :    0.033838
  31 H :    0.032482
  32 H :    0.019276
  33 H :    0.034746

  Mayer bond orders larger than 0.100000
B(  0-S ,  1-C ) :   1.1283 B(  0-S ,  4-C ) :   1.1545 B(  1-C ,  2-C ) :   1.6330
B(  1-C , 32-H ) :   0.9697 B(  2-C ,  3-C ) :   1.2035 B(  2-C ,  6-C ) :   1.0310
B(  3-C ,  4-C ) :   1.6008 B(  3-C ,  5-H ) :   0.9880 B(  4-C , 20-C ) :   0.9963
B(  6-C ,  7-H ) :   0.9506 B(  6-C ,  8-H ) :   0.9292 B(  6-C ,  9-C ) :   1.0646
B(  9-C , 10-H ) :   0.9563 B(  9-C , 11-H ) :   0.9574 B(  9-C , 12-C ) :   1.0626
B( 12-C , 13-H ) :   0.9742 B( 12-C , 14-H ) :   0.9739 B( 12-C , 15-H ) :   0.9727
B( 16-S , 17-C ) :   1.1650 B( 16-S , 20-C ) :   1.1563 B( 17-C , 18-C ) :   1.5976
B( 17-C , 33-H ) :   0.9666 B( 18-C , 19-C ) :   1.2633 B( 18-C , 21-H ) :   0.9862
B( 19-C , 20-C ) :   1.5718 B( 19-C , 22-C ) :   1.0562 B( 22-C , 23-H ) :   0.9223
B( 22-C , 24-H ) :   0.9306 B( 22-C , 25-C ) :   1.0587 B( 25-C , 26-H ) :   0.9513
B( 25-C , 27-H ) :   0.9484 B( 25-C , 28-C ) :   1.0702 B( 28-C , 29-H ) :   0.9755
B( 28-C , 30-H ) :   0.9744 B( 28-C , 31-H ) :   0.9725

Dispersion correction           -0.014648241
FINAL SINGLE POINT ENERGY     -1339.862772366307

DIPOLE MOMENT
-------------
                                X             Y             Z
Electronic contribution:    -14.48998     -24.00843      -7.23087
Nuclear contribution   :     14.67656      24.42689       7.59595
                        -----------------------------------------
Total Dipole Moment    :      0.18658       0.41846       0.36507
                        -----------------------------------------
Magnitude (a.u.)       :      0.58583
Magnitude (Debye)      :      1.48906

Rotational constants in cm-1:     0.018873     0.009324     0.007021
Rotational constants in MHz :   565.809636   279.520213   210.482086

                             ****ORCA TERMINATED NORMALLY****
TOTAL RUN TIME: 0 days 0 hours 0 minutes 22 seconds 207 msec
