                         Program Version 4.2.1 -  RELEASE  -
|  1> ! wB97X-D3 SP def2-SVP
|  2> %pal
|  3> nprocs 24
|  4> end
|  5>
|  6> * xyz 0 1
|  7> S 	 39.9708 	 -12.9784 	 -123.679
|  8> C 	 40.9677 	 -11.5649 	 -123.109
|  9> C 	 42.2394 	 -11.9101 	 -122.719
| 10> C 	 42.5455 	 -13.2544 	 -123.219
| 11> C 	 41.5305 	 -13.9016 	 -123.801
| 12> H 	 43.5027 	 -13.759 	 -123.3
| 13> C 	 43.3126 	 -11.1699 	 -121.992
| 14> H 	 43.7279 	 -11.83 	 -121.299
| 15> H 	 42.7579 	 -10.3415 	 -121.517
| 16> C 	 44.3582 	 -10.4386 	 -122.86
| 17> H 	 43.9249 	 -9.69196 	 -123.518
| 18> H 	 44.8346 	 -9.88009 	 -122.016
| 19> C 	 45.2528 	 -11.3903 	 -123.72
| 20> H 	 44.7296 	 -11.8138 	 -124.618
| 21> H 	 46.0769 	 -10.8708 	 -124.272
| 22> H 	 45.5723 	 -12.2683 	 -123.249
| 23> S 	 40.2431 	 -16.3433 	 -123.303
| 24> C 	 41.0389 	 -17.8324 	 -123.766
| 25> C 	 42.1991 	 -17.6339 	 -124.455
| 26> C 	 42.492 	 -16.2439 	 -124.592
| 27> C 	 41.5492 	 -15.369 	 -124.02
| 28> H 	 42.8335 	 -18.4196 	 -124.719
| 29> C 	 43.7612 	 -15.6892 	 -125.211
| 30> H 	 44.4808 	 -15.363 	 -124.45
| 31> H 	 43.4552 	 -14.7831 	 -125.667
| 32> C 	 44.4574 	 -16.6151 	 -126.218
| 33> H 	 43.7036 	 -16.9568 	 -127.009
| 34> H 	 44.7483 	 -17.5091 	 -125.706
| 35> C 	 45.7436 	 -15.8869 	 -126.831
| 36> H 	 46.3772 	 -15.5531 	 -126.037
| 37> H 	 45.5471 	 -14.9479 	 -127.375
| 38> H 	 46.1996 	 -16.5049 	 -127.617
| 39> H 	 40.5154 	 -10.6184 	 -122.813
| 40> H 	 40.6656 	 -18.7711 	 -123.391
| 41> *
| 42>
| 43>                          ****END OF INPUT****

CARTESIAN COORDINATES (ANGSTROEM)
---------------------------------
  S     39.970800  -12.978400  -123.679000
  C     40.967700  -11.564900  -123.109000
  C     42.239400  -11.910100  -122.719000
  C     42.545500  -13.254400  -123.219000
  C     41.530500  -13.901600  -123.801000
  H     43.502700  -13.759000  -123.300000
  C     43.312600  -11.169900  -121.992000
  H     43.727900  -11.830000  -121.299000
  H     42.757900  -10.341500  -121.517000
  C     44.358200  -10.438600  -122.860000
  H     43.924900   -9.691960  -123.518000
  H     44.834600   -9.880090  -122.016000
  C     45.252800  -11.390300  -123.720000
  H     44.729600  -11.813800  -124.618000
  H     46.076900  -10.870800  -124.272000
  H     45.572300  -12.268300  -123.249000
  S     40.243100  -16.343300  -123.303000
  C     41.038900  -17.832400  -123.766000
  C     42.199100  -17.633900  -124.455000
  C     42.492000  -16.243900  -124.592000
  C     41.549200  -15.369000  -124.020000
  H     42.833500  -18.419600  -124.719000
  C     43.761200  -15.689200  -125.211000
  H     44.480800  -15.363000  -124.450000
  H     43.455200  -14.783100  -125.667000
  C     44.457400  -16.615100  -126.218000
  H     43.703600  -16.956800  -127.009000
  H     44.748300  -17.509100  -125.706000
  C     45.743600  -15.886900  -126.831000
  H     46.377200  -15.553100  -126.037000
  H     45.547100  -14.947900  -127.375000
  H     46.199600  -16.504900  -127.617000
  H     40.515400  -10.618400  -122.813000
  H     40.665600  -18.771100  -123.391000

 Total Charge           Charge          ....    0
 Multiplicity           Mult            ....    1
 Number of Electrons    NEL             ....  134
 Basis Dimension        Dim             ....  322

ORBITAL ENERGIES
----------------

  NO   OCC          E(Eh)            E(eV)
   0   2.0000     -88.965625     -2420.8777
   1   2.0000     -88.962583     -2420.7950
   2   2.0000     -10.331342      -281.1301
   3   2.0000     -10.329246      -281.0731
   4   2.0000     -10.321642      -280.8662
   5   2.0000     -10.314960      -280.6843
   6   2.0000     -10.305378      -280.4236
   7   2.0000     -10.302324      -280.3405
   8   2.0000     -10.299544      -280.2648
   9   2.0000     -10.296269      -280.1757
  10   2.0000     -10.294189      -280.1191
  11   2.0000     -10.292245      -280.0662
  12   2.0000     -10.290118      -280.0084
  13   2.0000     -10.287898      -279.9479
  14   2.0000     -10.285799      -279.8908
  15   2.0000     -10.284740      -279.8620
  16   2.0000      -8.078542      -219.8283
  17   2.0000      -8.076981      -219.7858
  18   2.0000      -6.037428      -164.2868
  19   2.0000      -6.035523      -164.2349
  20   2.0000      -6.033764      -164.1871
  21   2.0000      -6.031507      -164.1256
  22   2.0000      -6.028545      -164.0451
  23   2.0000      -6.027773      -164.0241
  24   2.0000      -0.999607       -27.2007
  25   2.0000      -0.977742       -26.6057
  26   2.0000      -0.914382       -24.8816
  27   2.0000      -0.905469       -24.6391
  28   2.0000      -0.868159       -23.6238
  29   2.0000      -0.845690       -23.0124
  30   2.0000      -0.838237       -22.8096
  31   2.0000      -0.818398       -22.2697
  32   2.0000      -0.788051       -21.4440
  33   2.0000      -0.771681       -20.9985
  34   2.0000      -0.713999       -19.4289
  35   2.0000      -0.710108       -19.3230
  36   2.0000      -0.695865       -18.9355
  37   2.0000      -0.653428       -17.7807
  38   2.0000      -0.640427       -17.4269
  39   2.0000      -0.614503       -16.7215
  40   2.0000      -0.598938       -16.2979
  41   2.0000      -0.579113       -15.7585
  42   2.0000      -0.564923       -15.3723
  43   2.0000      -0.549915       -14.9640
  44   2.0000      -0.536129       -14.5888
  45   2.0000      -0.526358       -14.3229
  46   2.0000      -0.523615       -14.2483
  47   2.0000      -0.508608       -13.8399
  48   2.0000      -0.497558       -13.5392
  49   2.0000      -0.492269       -13.3953
  50   2.0000      -0.487726       -13.2717
  51   2.0000      -0.477123       -12.9832
  52   2.0000      -0.474070       -12.9001
  53   2.0000      -0.465178       -12.6581
  54   2.0000      -0.464555       -12.6412
  55   2.0000      -0.451407       -12.2834
  56   2.0000      -0.448084       -12.1930
  57   2.0000      -0.440710       -11.9923
  58   2.0000      -0.434962       -11.8359
  59   2.0000      -0.426322       -11.6008
  60   2.0000      -0.423713       -11.5298
  61   2.0000      -0.413128       -11.2418
  62   2.0000      -0.409380       -11.1398
  63   2.0000      -0.354315        -9.6414
  64   2.0000      -0.331003        -9.0071
  65   2.0000      -0.325835        -8.8664
  66   2.0000      -0.288314        -7.8454
  67   0.0000       0.028718         0.7815
  68   0.0000       0.063859         1.7377
  69   0.0000       0.096801         2.6341
  70   0.0000       0.119664         3.2562
  71   0.0000       0.124581         3.3900

MULLIKEN ATOMIC CHARGES
-----------------------
   0 S :    0.073817
   1 C :   -0.115266
   2 C :   -0.074616
   3 C :    0.003028
   4 C :   -0.110756
   5 H :    0.002929
   6 C :    0.068390
   7 H :    0.032654
   8 H :    0.022462
   9 C :   -0.051082
  10 H :    0.033521
  11 H :    0.043262
  12 C :   -0.067344
  13 H :    0.037186
  14 H :    0.042573
  15 H :    0.022094
  16 S :    0.086541
  17 C :   -0.083958
  18 C :   -0.002708
  19 C :   -0.063705
  20 C :   -0.141864
  21 H :   -0.001541
  22 C :    0.035104
  23 H :    0.043651
  24 H :    0.025287
  25 C :   -0.096192
  26 H :    0.046745
  27 H :    0.031932
  28 C :   -0.041958
  29 H :    0.027516
  30 H :    0.027750
  31 H :    0.043017
  32 H :    0.047406
  33 H :    0.054124
Sum of atomic charges:   -0.0000000

LOEWDIN ATOMIC CHARGES
----------------------
   0 S :    0.333138
   1 C :   -0.170028
   2 C :   -0.054679
   3 C :   -0.056909
   4 C :   -0.168369
   5 H :    0.031076
   6 C :   -0.028992
   7 H :    0.027936
   8 H :    0.037061
   9 C :   -0.032480
  10 H :    0.027145
  11 H :    0.032792
  12 C :   -0.077511
  13 H :    0.034562
  14 H :    0.034363
  15 H :    0.012442
  16 S :    0.388257
  17 C :   -0.173917
  18 C :   -0.069128
  19 C :   -0.060018
  20 C :   -0.184128
  21 H :    0.024646
  22 C :   -0.038890
  23 H :    0.027923
  24 H :    0.026936
  25 C :   -0.038220
  26 H :    0.033996
  27 H :    0.017196
  28 C :   -0.067764
  29 H :    0.021835
  30 H :    0.027665
  31 H :    0.029830
  32 H :    0.026528
  33 H :    0.025705

  Mayer bond orders larger than 0.100000
B(  0-S ,  1-C ) :   1.0968 B(  0-S ,  4-C ) :   1.0948 B(  1-C ,  2-C ) :   1.6932
B(  1-C , 32-H ) :   0.9606 B(  2-C ,  3-C ) :   1.1548 B(  2-C ,  6-C ) :   1.0232
B(  3-C ,  4-C ) :   1.6642 B(  3-C ,  5-H ) :   0.9793 B(  4-C , 20-C ) :   1.0373
B(  6-C ,  7-H ) :   0.9412 B(  6-C ,  8-H ) :   0.9329 B(  6-C ,  9-C ) :   1.0721
B(  9-C , 10-H ) :   0.9550 B(  9-C , 11-H ) :   0.9610 B(  9-C , 12-C ) :   1.0701
B( 12-C , 13-H ) :   0.9665 B( 12-C , 14-H ) :   0.9721 B( 12-C , 15-H ) :   0.9771
B( 16-S , 17-C ) :   1.1645 B( 16-S , 20-C ) :   1.1302 B( 17-C , 18-C ) :   1.5914
B( 17-C , 33-H ) :   0.9653 B( 18-C , 19-C ) :   1.2455 B( 18-C , 21-H ) :   1.0045
B( 19-C , 20-C ) :   1.6061 B( 19-C , 22-C ) :   1.0341 B( 22-C , 23-H ) :   0.9233
B( 22-C , 24-H ) :   0.9335 B( 22-C , 25-C ) :   1.0744 B( 25-C , 26-H ) :   0.9600
B( 25-C , 27-H ) :   0.9482 B( 25-C , 28-C ) :   1.0700 B( 28-C , 29-H ) :   0.9741
B( 28-C , 30-H ) :   0.9774 B( 28-C , 31-H ) :   0.9759

Dispersion correction           -0.014505736
FINAL SINGLE POINT ENERGY     -1339.858030317968

DIPOLE MOMENT
-------------
                                X             Y             Z
Electronic contribution:    -29.33754      -6.91207       7.69527
Nuclear contribution   :     30.18636       7.07019      -7.53011
                        -----------------------------------------
Total Dipole Moment    :      0.84882       0.15812       0.16516
                        -----------------------------------------
Magnitude (a.u.)       :      0.87908
Magnitude (Debye)      :      2.23443

Rotational constants in cm-1:     0.015555     0.010283     0.006732
Rotational constants in MHz :   466.333317   308.267117   201.813498

                             ****ORCA TERMINATED NORMALLY****
TOTAL RUN TIME: 0 days 0 hours 0 minutes 22 seconds 51 msec
