                         Program Version 4.2.1 -  RELEASE  -
|  1> ! wB97X-D3 SP def2-SVP
|  2> %pal
|  3> nprocs 24
|  4> end
|  5>
|  6> * xyz 0 1
|  7> S 	 -54.0243 	 11.3168 	 -99.6743
|  8> C 	 -53.1848 	 11.0875 	 -98.1933
|  9> C 	 -53.989 	 11.4446 	 -97.1127
| 10> C 	 -55.242 	 11.8806 	 -97.4779
| 11> C 	 -55.4182 	 11.8493 	 -98.8382
| 12> H 	 -55.9956 	 12.2395 	 -96.8543
| 13> C 	 -53.6101 	 11.3754 	 -95.6502
| 14> H 	 -53.4374 	 12.4311 	 -95.333
| 15> H 	 -52.5986 	 10.8597 	 -95.4455
| 16> C 	 -54.6096 	 10.6824 	 -94.698
| 17> H 	 -55.5824 	 10.9455 	 -94.9445
| 18> H 	 -54.6236 	 9.62688 	 -94.9135
| 19> C 	 -54.4005 	 10.7586 	 -93.1386
| 20> H 	 -53.4382 	 10.4986 	 -92.8483
| 21> H 	 -54.5237 	 11.8187 	 -92.8915
| 22> H 	 -55.1486 	 10.0874 	 -92.6883
| 23> S 	 -57.6523 	 11.0225 	 -100.401
| 24> C 	 -58.7804 	 12.2314 	 -100.901
| 25> C 	 -58.4211 	 13.4952 	 -100.508
| 26> C 	 -57.1719 	 13.5191 	 -99.7584
| 27> C 	 -56.6163 	 12.2489 	 -99.6108
| 28> H 	 -59.1281 	 14.2497 	 -100.794
| 29> C 	 -56.5835 	 14.8233 	 -99.151
| 30> H 	 -56.5918 	 14.8641 	 -98.1072
| 31> H 	 -57.3439 	 15.5815 	 -99.2814
| 32> C 	 -55.2522 	 15.3106 	 -99.7669
| 33> H 	 -54.4969 	 14.5766 	 -99.4644
| 34> H 	 -54.9075 	 16.1852 	 -99.2818
| 35> C 	 -55.1675 	 15.3704 	 -101.295
| 36> H 	 -55.2278 	 14.2896 	 -101.655
| 37> H 	 -54.2272 	 15.8823 	 -101.697
| 38> H 	 -55.9627 	 15.8732 	 -101.73
| 39> H 	 -52.2466 	 10.517 	 -98.0572
| 40> H 	 -59.7275 	 11.983 	 -101.427
| 41> *
| 42>
| 43>                          ****END OF INPUT****

CARTESIAN COORDINATES (ANGSTROEM)
---------------------------------
  S    -54.024300   11.316800  -99.674300
  C    -53.184800   11.087500  -98.193300
  C    -53.989000   11.444600  -97.112700
  C    -55.242000   11.880600  -97.477900
  C    -55.418200   11.849300  -98.838200
  H    -55.995600   12.239500  -96.854300
  C    -53.610100   11.375400  -95.650200
  H    -53.437400   12.431100  -95.333000
  H    -52.598600   10.859700  -95.445500
  C    -54.609600   10.682400  -94.698000
  H    -55.582400   10.945500  -94.944500
  H    -54.623600    9.626880  -94.913500
  C    -54.400500   10.758600  -93.138600
  H    -53.438200   10.498600  -92.848300
  H    -54.523700   11.818700  -92.891500
  H    -55.148600   10.087400  -92.688300
  S    -57.652300   11.022500  -100.401000
  C    -58.780400   12.231400  -100.901000
  C    -58.421100   13.495200  -100.508000
  C    -57.171900   13.519100  -99.758400
  C    -56.616300   12.248900  -99.610800
  H    -59.128100   14.249700  -100.794000
  C    -56.583500   14.823300  -99.151000
  H    -56.591800   14.864100  -98.107200
  H    -57.343900   15.581500  -99.281400
  C    -55.252200   15.310600  -99.766900
  H    -54.496900   14.576600  -99.464400
  H    -54.907500   16.185200  -99.281800
  C    -55.167500   15.370400  -101.295000
  H    -55.227800   14.289600  -101.655000
  H    -54.227200   15.882300  -101.697000
  H    -55.962700   15.873200  -101.730000
  H    -52.246600   10.517000  -98.057200
  H    -59.727500   11.983000  -101.427000

 Total Charge           Charge          ....    0
 Multiplicity           Mult            ....    1
 Number of Electrons    NEL             ....  134
 Basis Dimension        Dim             ....  322

ORBITAL ENERGIES
----------------

  NO   OCC          E(Eh)            E(eV)
   0   2.0000     -88.969005     -2420.9697
   1   2.0000     -88.964514     -2420.8475
   2   2.0000     -10.328883      -281.0632
   3   2.0000     -10.325229      -280.9638
   4   2.0000     -10.318112      -280.7701
   5   2.0000     -10.312261      -280.6109
   6   2.0000     -10.311897      -280.6010
   7   2.0000     -10.300201      -280.2827
   8   2.0000     -10.297331      -280.2046
   9   2.0000     -10.294425      -280.1255
  10   2.0000     -10.288669      -279.9689
  11   2.0000     -10.284668      -279.8600
  12   2.0000     -10.280367      -279.7430
  13   2.0000     -10.279516      -279.7199
  14   2.0000     -10.278434      -279.6904
  15   2.0000     -10.274782      -279.5910
  16   2.0000      -8.084607      -219.9933
  17   2.0000      -8.079207      -219.8464
  18   2.0000      -6.042840      -164.4340
  19   2.0000      -6.038893      -164.3266
  20   2.0000      -6.037665      -164.2932
  21   2.0000      -6.035704      -164.2398
  22   2.0000      -6.033698      -164.1853
  23   2.0000      -6.030044      -164.0858
  24   2.0000      -1.012718       -27.5575
  25   2.0000      -0.985205       -26.8088
  26   2.0000      -0.908242       -24.7145
  27   2.0000      -0.902157       -24.5489
  28   2.0000      -0.865820       -23.5602
  29   2.0000      -0.856057       -23.2945
  30   2.0000      -0.841428       -22.8964
  31   2.0000      -0.814503       -22.1638
  32   2.0000      -0.785860       -21.3843
  33   2.0000      -0.772951       -21.0331
  34   2.0000      -0.711145       -19.3513
  35   2.0000      -0.699396       -19.0315
  36   2.0000      -0.686371       -18.6771
  37   2.0000      -0.655483       -17.8366
  38   2.0000      -0.645430       -17.5631
  39   2.0000      -0.627621       -17.0784
  40   2.0000      -0.592972       -16.1356
  41   2.0000      -0.569285       -15.4910
  42   2.0000      -0.556925       -15.1547
  43   2.0000      -0.545566       -14.8456
  44   2.0000      -0.541519       -14.7355
  45   2.0000      -0.528134       -14.3713
  46   2.0000      -0.511744       -13.9253
  47   2.0000      -0.506267       -13.7762
  48   2.0000      -0.504052       -13.7159
  49   2.0000      -0.498417       -13.5626
  50   2.0000      -0.480104       -13.0643
  51   2.0000      -0.477650       -12.9975
  52   2.0000      -0.473621       -12.8879
  53   2.0000      -0.471523       -12.8308
  54   2.0000      -0.462127       -12.5751
  55   2.0000      -0.455056       -12.3827
  56   2.0000      -0.441034       -12.0012
  57   2.0000      -0.435746       -11.8572
  58   2.0000      -0.431567       -11.7435
  59   2.0000      -0.430076       -11.7030
  60   2.0000      -0.421256       -11.4629
  61   2.0000      -0.409784       -11.1508
  62   2.0000      -0.402823       -10.9614
  63   2.0000      -0.340917        -9.2768
  64   2.0000      -0.330877        -9.0036
  65   2.0000      -0.328637        -8.9427
  66   2.0000      -0.304708        -8.2915
  67   0.0000       0.039546         1.0761
  68   0.0000       0.061616         1.6767
  69   0.0000       0.121607         3.3091
  70   0.0000       0.124474         3.3871
  71   0.0000       0.132016         3.5923

MULLIKEN ATOMIC CHARGES
-----------------------
   0 S :    0.137655
   1 C :   -0.133357
   2 C :   -0.064067
   3 C :    0.065178
   4 C :   -0.185022
   5 H :   -0.009252
   6 C :    0.036182
   7 H :    0.039680
   8 H :    0.027504
   9 C :   -0.084190
  10 H :    0.006152
  11 H :    0.019750
  12 C :   -0.020842
  13 H :    0.017716
  14 H :    0.029670
  15 H :    0.046374
  16 S :    0.110317
  17 C :   -0.117231
  18 C :   -0.030618
  19 C :   -0.032317
  20 C :   -0.176551
  21 H :    0.016810
  22 C :    0.126305
  23 H :    0.011486
  24 H :   -0.003843
  25 C :   -0.057249
  26 H :    0.031109
  27 H :    0.013805
  28 C :   -0.059202
  29 H :    0.048607
  30 H :    0.045962
  31 H :    0.012600
  32 H :    0.058729
  33 H :    0.072148
Sum of atomic charges:   -0.0000000

LOEWDIN ATOMIC CHARGES
----------------------
   0 S :    0.449900
   1 C :   -0.220517
   2 C :   -0.066045
   3 C :   -0.053291
   4 C :   -0.203027
   5 H :    0.025529
   6 C :   -0.038248
   7 H :    0.034044
   8 H :    0.034314
   9 C :   -0.041759
  10 H :    0.009361
  11 H :    0.023120
  12 C :   -0.051540
  13 H :    0.012882
  14 H :    0.025632
  15 H :    0.034645
  16 S :    0.396129
  17 C :   -0.192753
  18 C :   -0.078782
  19 C :   -0.045164
  20 C :   -0.199942
  21 H :    0.032304
  22 C :   -0.027877
  23 H :    0.025181
  24 H :    0.026633
  25 C :   -0.040621
  26 H :    0.025621
  27 H :    0.016900
  28 C :   -0.068435
  29 H :    0.036326
  30 H :    0.036428
  31 H :    0.008595
  32 H :    0.036198
  33 H :    0.038256

  Mayer bond orders larger than 0.100000
B(  0-S ,  1-C ) :   1.1559 B(  0-S ,  4-C ) :   1.1955 B(  1-C ,  2-C ) :   1.5783
B(  1-C ,  4-C ) :   0.1042 B(  1-C , 32-H ) :   0.9629 B(  2-C ,  3-C ) :   1.2700
B(  2-C ,  6-C ) :   1.0217 B(  3-C ,  4-C ) :   1.5504 B(  3-C ,  5-H ) :   1.0108
B(  4-C , 20-C ) :   1.0044 B(  6-C ,  7-H ) :   0.9383 B(  6-C ,  8-H ) :   0.9458
B(  6-C ,  9-C ) :   1.0517 B(  9-C , 10-H ) :   0.9581 B(  9-C , 11-H ) :   0.9540
B(  9-C , 12-C ) :   1.0789 B( 12-C , 13-H ) :   0.9782 B( 12-C , 14-H ) :   0.9778
B( 12-C , 15-H ) :   0.9750 B( 16-S , 17-C ) :   1.1601 B( 16-S , 20-C ) :   1.1380
B( 17-C , 18-C ) :   1.6348 B( 17-C , 33-H ) :   0.9585 B( 18-C , 19-C ) :   1.2104
B( 18-C , 21-H ) :   0.9940 B( 19-C , 20-C ) :   1.6104 B( 19-C , 22-C ) :   1.0253
B( 22-C , 23-H ) :   0.9337 B( 22-C , 24-H ) :   0.9269 B( 22-C , 25-C ) :   1.0684
B( 25-C , 26-H ) :   0.9569 B( 25-C , 27-H ) :   0.9555 B( 25-C , 28-C ) :   1.0707
B( 28-C , 29-H ) :   0.9681 B( 28-C , 30-H ) :   0.9739 B( 28-C , 31-H ) :   0.9805

Dispersion correction           -0.015126502
FINAL SINGLE POINT ENERGY     -1339.875065881804

DIPOLE MOMENT
-------------
                                X             Y             Z
Electronic contribution:     -6.08344     -11.19102     -17.46333
Nuclear contribution   :      5.94607      11.47673      17.94082
                        -----------------------------------------
Total Dipole Moment    :     -0.13737       0.28571       0.47749
                        -----------------------------------------
Magnitude (a.u.)       :      0.57315
Magnitude (Debye)      :      1.45683

Rotational constants in cm-1:     0.019836     0.007948     0.007438
Rotational constants in MHz :   594.682822   238.281473   222.973289

                             ****ORCA TERMINATED NORMALLY****
TOTAL RUN TIME: 0 days 0 hours 0 minutes 21 seconds 760 msec
