                         Program Version 4.2.1 -  RELEASE  -
|  1> ! wB97X-D3 SP def2-SVP
|  2> %pal
|  3> nprocs 24
|  4> end
|  5>
|  6> * xyz 0 1
|  7> S 	 -72.4318 	 4.48237 	 -112.529
|  8> C 	 -73.0156 	 5.10986 	 -110.952
|  9> C 	 -73.0823 	 6.49673 	 -110.986
| 10> C 	 -72.1986 	 7.01795 	 -112.021
| 11> C 	 -72.089 	 6.08725 	 -113.09
| 12> H 	 -71.9212 	 8.03449 	 -112.112
| 13> C 	 -73.4884 	 7.43293 	 -109.894
| 14> H 	 -73.3131 	 8.508 	 -110.289
| 15> H 	 -72.6683 	 7.27827 	 -109.147
| 16> C 	 -74.8888 	 7.25719 	 -109.251
| 17> H 	 -75.5545 	 7.61935 	 -109.986
| 18> H 	 -75.0656 	 6.22167 	 -108.983
| 19> C 	 -74.9596 	 8.05303 	 -107.953
| 20> H 	 -75.8393 	 7.7369 	 -107.358
| 21> H 	 -74.057 	 8.0787 	 -107.316
| 22> H 	 -75.1139 	 9.03659 	 -108.282
| 23> S 	 -72.0473 	 7.27022 	 -115.652
| 24> C 	 -70.6761 	 7.07512 	 -116.683
| 25> C 	 -69.7017 	 6.39797 	 -116.049
| 26> C 	 -70.0763 	 5.94558 	 -114.722
| 27> C 	 -71.3525 	 6.34052 	 -114.34
| 28> H 	 -68.718 	 6.29537 	 -116.495
| 29> C 	 -69.0798 	 5.10952 	 -113.903
| 30> H 	 -69.2727 	 5.315 	 -112.801
| 31> H 	 -68.0098 	 5.3733 	 -113.911
| 32> C 	 -69.2054 	 3.60292 	 -114.191
| 33> H 	 -70.1699 	 3.30752 	 -113.879
| 34> H 	 -68.6134 	 3.05119 	 -113.476
| 35> C 	 -68.8554 	 3.18131 	 -115.577
| 36> H 	 -67.8424 	 3.52571 	 -115.828
| 37> H 	 -69.4199 	 3.81023 	 -116.197
| 38> H 	 -69.1005 	 2.15557 	 -115.65
| 39> H 	 -73.1688 	 4.44834 	 -110.09
| 40> H 	 -70.4251 	 7.64246 	 -117.535
| 41> *
| 42>
| 43>                          ****END OF INPUT****

CARTESIAN COORDINATES (ANGSTROEM)
---------------------------------
  S    -72.431800    4.482370  -112.529000
  C    -73.015600    5.109860  -110.952000
  C    -73.082300    6.496730  -110.986000
  C    -72.198600    7.017950  -112.021000
  C    -72.089000    6.087250  -113.090000
  H    -71.921200    8.034490  -112.112000
  C    -73.488400    7.432930  -109.894000
  H    -73.313100    8.508000  -110.289000
  H    -72.668300    7.278270  -109.147000
  C    -74.888800    7.257190  -109.251000
  H    -75.554500    7.619350  -109.986000
  H    -75.065600    6.221670  -108.983000
  C    -74.959600    8.053030  -107.953000
  H    -75.839300    7.736900  -107.358000
  H    -74.057000    8.078700  -107.316000
  H    -75.113900    9.036590  -108.282000
  S    -72.047300    7.270220  -115.652000
  C    -70.676100    7.075120  -116.683000
  C    -69.701700    6.397970  -116.049000
  C    -70.076300    5.945580  -114.722000
  C    -71.352500    6.340520  -114.340000
  H    -68.718000    6.295370  -116.495000
  C    -69.079800    5.109520  -113.903000
  H    -69.272700    5.315000  -112.801000
  H    -68.009800    5.373300  -113.911000
  C    -69.205400    3.602920  -114.191000
  H    -70.169900    3.307520  -113.879000
  H    -68.613400    3.051190  -113.476000
  C    -68.855400    3.181310  -115.577000
  H    -67.842400    3.525710  -115.828000
  H    -69.419900    3.810230  -116.197000
  H    -69.100500    2.155570  -115.650000
  H    -73.168800    4.448340  -110.090000
  H    -70.425100    7.642460  -117.535000

 Total Charge           Charge          ....    0
 Multiplicity           Mult            ....    1
 Number of Electrons    NEL             ....  134
 Basis Dimension        Dim             ....  322

ORBITAL ENERGIES
----------------

  NO   OCC          E(Eh)            E(eV)
   0   2.0000     -88.968343     -2420.9517
   1   2.0000     -88.963083     -2420.8085
   2   2.0000     -10.333563      -281.1905
   3   2.0000     -10.328248      -281.0459
   4   2.0000     -10.321256      -280.8557
   5   2.0000     -10.308792      -280.5165
   6   2.0000     -10.306604      -280.4570
   7   2.0000     -10.305121      -280.4166
   8   2.0000     -10.301462      -280.3170
   9   2.0000     -10.299430      -280.2617
  10   2.0000     -10.291348      -280.0418
  11   2.0000     -10.289828      -280.0004
  12   2.0000     -10.286849      -279.9194
  13   2.0000     -10.277289      -279.6592
  14   2.0000     -10.268505      -279.4202
  15   2.0000     -10.261294      -279.2240
  16   2.0000      -8.082058      -219.9240
  17   2.0000      -8.078186      -219.8186
  18   2.0000      -6.040641      -164.3742
  19   2.0000      -6.036751      -164.2683
  20   2.0000      -6.036699      -164.2669
  21   2.0000      -6.032795      -164.1607
  22   2.0000      -6.032531      -164.1535
  23   2.0000      -6.028956      -164.0562
  24   2.0000      -1.004853       -27.3435
  25   2.0000      -0.983837       -26.7716
  26   2.0000      -0.914570       -24.8867
  27   2.0000      -0.907941       -24.7063
  28   2.0000      -0.871633       -23.7183
  29   2.0000      -0.851339       -23.1661
  30   2.0000      -0.843349       -22.9487
  31   2.0000      -0.813336       -22.1320
  32   2.0000      -0.780685       -21.2435
  33   2.0000      -0.771582       -20.9958
  34   2.0000      -0.708511       -19.2796
  35   2.0000      -0.703404       -19.1406
  36   2.0000      -0.686744       -18.6872
  37   2.0000      -0.656911       -17.8755
  38   2.0000      -0.643299       -17.5051
  39   2.0000      -0.609105       -16.5746
  40   2.0000      -0.595162       -16.1952
  41   2.0000      -0.579497       -15.7689
  42   2.0000      -0.566309       -15.4100
  43   2.0000      -0.554590       -15.0912
  44   2.0000      -0.544035       -14.8039
  45   2.0000      -0.524189       -14.2639
  46   2.0000      -0.520958       -14.1760
  47   2.0000      -0.512860       -13.9556
  48   2.0000      -0.505934       -13.7672
  49   2.0000      -0.497112       -13.5271
  50   2.0000      -0.482978       -13.1425
  51   2.0000      -0.479328       -13.0432
  52   2.0000      -0.478329       -13.0160
  53   2.0000      -0.469820       -12.7845
  54   2.0000      -0.465009       -12.6535
  55   2.0000      -0.443716       -12.0741
  56   2.0000      -0.438089       -11.9210
  57   2.0000      -0.436739       -11.8843
  58   2.0000      -0.426238       -11.5985
  59   2.0000      -0.424597       -11.5539
  60   2.0000      -0.418915       -11.3992
  61   2.0000      -0.410917       -11.1816
  62   2.0000      -0.402303       -10.9472
  63   2.0000      -0.332518        -9.0483
  64   2.0000      -0.329737        -8.9726
  65   2.0000      -0.319293        -8.6884
  66   2.0000      -0.305898        -8.3239
  67   0.0000       0.031162         0.8480
  68   0.0000       0.064410         1.7527
  69   0.0000       0.099738         2.7140
  70   0.0000       0.109876         2.9899
  71   0.0000       0.125783         3.4227

MULLIKEN ATOMIC CHARGES
-----------------------
   0 S :    0.112625
   1 C :   -0.150350
   2 C :   -0.040570
   3 C :    0.024693
   4 C :   -0.150264
   5 H :    0.015177
   6 C :   -0.044372
   7 H :    0.038581
   8 H :    0.047751
   9 C :   -0.029677
  10 H :    0.035175
  11 H :    0.029848
  12 C :   -0.042669
  13 H :    0.040617
  14 H :    0.036677
  15 H :    0.014912
  16 S :    0.106475
  17 C :   -0.058584
  18 C :   -0.048857
  19 C :   -0.028218
  20 C :   -0.166513
  21 H :    0.022437
  22 C :    0.010880
  23 H :    0.031094
  24 H :    0.028535
  25 C :   -0.041556
  26 H :   -0.004905
  27 H :    0.009294
  28 C :    0.024154
  29 H :    0.013530
  30 H :    0.011855
  31 H :    0.037492
  32 H :    0.069045
  33 H :    0.045690
Sum of atomic charges:    0.0000000

LOEWDIN ATOMIC CHARGES
----------------------
   0 S :    0.409541
   1 C :   -0.190734
   2 C :   -0.060866
   3 C :   -0.043752
   4 C :   -0.201316
   5 H :    0.024253
   6 C :   -0.045604
   7 H :    0.036735
   8 H :    0.039555
   9 C :   -0.031111
  10 H :    0.025298
  11 H :    0.022669
  12 C :   -0.064496
  13 H :    0.030370
  14 H :    0.028066
  15 H :    0.018445
  16 S :    0.413399
  17 C :   -0.189346
  18 C :   -0.075258
  19 C :   -0.052447
  20 C :   -0.207527
  21 H :    0.031933
  22 C :   -0.042679
  23 H :    0.036418
  24 H :    0.029423
  25 C :   -0.039338
  26 H :    0.004614
  27 H :    0.018677
  28 C :   -0.055440
  29 H :    0.025797
  30 H :    0.018076
  31 H :    0.026836
  32 H :    0.032310
  33 H :    0.027496

  Mayer bond orders larger than 0.100000
B(  0-S ,  1-C ) :   1.1325 B(  0-S ,  4-C ) :   1.1514 B(  1-C ,  2-C ) :   1.5919
B(  1-C ,  4-C ) :   0.1004 B(  1-C , 32-H ) :   0.9709 B(  2-C ,  3-C ) :   1.2276
B(  2-C ,  6-C ) :   1.0248 B(  3-C ,  4-C ) :   1.5860 B(  3-C ,  5-H ) :   0.9850
B(  4-C , 20-C ) :   1.0171 B(  6-C ,  7-H ) :   0.9476 B(  6-C ,  8-H ) :   0.9393
B(  6-C ,  9-C ) :   1.0532 B(  9-C , 10-H ) :   0.9585 B(  9-C , 11-H ) :   0.9607
B(  9-C , 12-C ) :   1.0746 B( 12-C , 13-H ) :   0.9748 B( 12-C , 14-H ) :   0.9773
B( 12-C , 15-H ) :   0.9751 B( 16-S , 17-C ) :   1.1577 B( 16-S , 20-C ) :   1.1395
B( 17-C , 18-C ) :   1.6223 B( 17-C , 33-H ) :   0.9635 B( 18-C , 19-C ) :   1.2381
B( 18-C , 21-H ) :   0.9862 B( 19-C , 20-C ) :   1.6077 B( 19-C , 22-C ) :   1.0349
B( 22-C , 23-H ) :   0.9297 B( 22-C , 24-H ) :   0.9496 B( 22-C , 25-C ) :   1.0797
B( 25-C , 26-H ) :   0.9446 B( 25-C , 27-H ) :   0.9470 B( 25-C , 28-C ) :   1.0824
B( 28-C , 29-H ) :   0.9670 B( 28-C , 30-H ) :   0.9678 B( 28-C , 31-H ) :   0.9682

Dispersion correction           -0.014562118
FINAL SINGLE POINT ENERGY     -1339.847724536166

DIPOLE MOMENT
-------------
                                X             Y             Z
Electronic contribution:     -3.18498       1.10947     -15.04669
Nuclear contribution   :      3.46887      -0.84266      15.59962
                        -----------------------------------------
Total Dipole Moment    :      0.28389       0.26681       0.55293
                        -----------------------------------------
Magnitude (a.u.)       :      0.67640
Magnitude (Debye)      :      1.71926

Rotational constants in cm-1:     0.026236     0.007005     0.005997
Rotational constants in MHz :   786.521997   209.990018   179.781106

                             ****ORCA TERMINATED NORMALLY****
TOTAL RUN TIME: 0 days 0 hours 0 minutes 21 seconds 346 msec
