                         Program Version 4.2.1 -  RELEASE  -
|  1> ! wB97X-D3 SP def2-SVP
|  2> %pal
|  3> nprocs 24
|  4> end
|  5>
|  6> * xyz 0 1
|  7> S 	 -61.7493 	 11.9524 	 -86.3487
|  8> C 	 -63.028 	 11.1185 	 -87.2472
|  9> C 	 -63.9081 	 10.4731 	 -86.4343
| 10> C 	 -63.5821 	 10.7216 	 -85.0312
| 11> C 	 -62.4618 	 11.526 	 -84.8698
| 12> H 	 -64.231 	 10.4394 	 -84.1549
| 13> C 	 -65.1768 	 9.61278 	 -86.8162
| 14> H 	 -65.0464 	 8.8133 	 -86.075
| 15> H 	 -64.9392 	 9.13888 	 -87.8121
| 16> C 	 -66.5852 	 10.2686 	 -86.7344
| 17> H 	 -67.3541 	 9.47287 	 -86.8936
| 18> H 	 -66.7293 	 10.7333 	 -85.7557
| 19> C 	 -66.7722 	 11.3334 	 -87.7158
| 20> H 	 -67.8157 	 11.7235 	 -87.738
| 21> H 	 -66.0701 	 12.1666 	 -87.6263
| 22> H 	 -66.7194 	 10.9462 	 -88.7462
| 23> S 	 -60.8951 	 13.4335 	 -83.7591
| 24> C 	 -60.2799 	 13.311 	 -82.105
| 25> C 	 -60.8926 	 12.2463 	 -81.4684
| 26> C 	 -61.8093 	 11.5371 	 -82.2841
| 27> C 	 -61.8735 	 12.0074 	 -83.6262
| 28> H 	 -60.5949 	 12.1315 	 -80.4647
| 29> C 	 -62.4364 	 10.2057 	 -81.8046
| 30> H 	 -61.8529 	 9.8206 	 -80.9437
| 31> H 	 -62.3086 	 9.34647 	 -82.4399
| 32> C 	 -63.8648 	 10.2626 	 -81.2785
| 33> H 	 -63.9589 	 9.43723 	 -80.6393
| 34> H 	 -64.5251 	 10.1276 	 -82.2048
| 35> C 	 -64.0946 	 11.6074 	 -80.508
| 36> H 	 -64.1635 	 12.4242 	 -81.2413
| 37> H 	 -63.1827 	 11.8193 	 -79.873
| 38> H 	 -64.9691 	 11.5727 	 -79.9002
| 39> H 	 -62.9949 	 11.1143 	 -88.3644
| 40> H 	 -59.6494 	 14.0608 	 -81.5234
| 41> *
| 42>
| 43>                          ****END OF INPUT****

CARTESIAN COORDINATES (ANGSTROEM)
---------------------------------
  S    -61.749300   11.952400  -86.348700
  C    -63.028000   11.118500  -87.247200
  C    -63.908100   10.473100  -86.434300
  C    -63.582100   10.721600  -85.031200
  C    -62.461800   11.526000  -84.869800
  H    -64.231000   10.439400  -84.154900
  C    -65.176800    9.612780  -86.816200
  H    -65.046400    8.813300  -86.075000
  H    -64.939200    9.138880  -87.812100
  C    -66.585200   10.268600  -86.734400
  H    -67.354100    9.472870  -86.893600
  H    -66.729300   10.733300  -85.755700
  C    -66.772200   11.333400  -87.715800
  H    -67.815700   11.723500  -87.738000
  H    -66.070100   12.166600  -87.626300
  H    -66.719400   10.946200  -88.746200
  S    -60.895100   13.433500  -83.759100
  C    -60.279900   13.311000  -82.105000
  C    -60.892600   12.246300  -81.468400
  C    -61.809300   11.537100  -82.284100
  C    -61.873500   12.007400  -83.626200
  H    -60.594900   12.131500  -80.464700
  C    -62.436400   10.205700  -81.804600
  H    -61.852900    9.820600  -80.943700
  H    -62.308600    9.346470  -82.439900
  C    -63.864800   10.262600  -81.278500
  H    -63.958900    9.437230  -80.639300
  H    -64.525100   10.127600  -82.204800
  C    -64.094600   11.607400  -80.508000
  H    -64.163500   12.424200  -81.241300
  H    -63.182700   11.819300  -79.873000
  H    -64.969100   11.572700  -79.900200
  H    -62.994900   11.114300  -88.364400
  H    -59.649400   14.060800  -81.523400

 Total Charge           Charge          ....    0
 Multiplicity           Mult            ....    1
 Number of Electrons    NEL             ....  134
 Basis Dimension        Dim             ....  322

ORBITAL ENERGIES
----------------

  NO   OCC          E(Eh)            E(eV)
   0   2.0000     -88.966862     -2420.9114
   1   2.0000     -88.966474     -2420.9008
   2   2.0000     -10.333104      -281.1781
   3   2.0000     -10.330578      -281.1093
   4   2.0000     -10.323304      -280.9114
   5   2.0000     -10.317930      -280.7652
   6   2.0000     -10.310656      -280.5672
   7   2.0000     -10.308283      -280.5026
   8   2.0000     -10.304494      -280.3995
   9   2.0000     -10.299750      -280.2704
  10   2.0000     -10.293447      -280.0989
  11   2.0000     -10.291575      -280.0480
  12   2.0000     -10.288972      -279.9772
  13   2.0000     -10.288012      -279.9510
  14   2.0000     -10.279561      -279.7211
  15   2.0000     -10.274357      -279.5795
  16   2.0000      -8.082135      -219.9261
  17   2.0000      -8.081499      -219.9088
  18   2.0000      -6.040673      -164.3751
  19   2.0000      -6.039971      -164.3560
  20   2.0000      -6.036554      -164.2630
  21   2.0000      -6.035870      -164.2444
  22   2.0000      -6.032740      -164.1592
  23   2.0000      -6.032435      -164.1509
  24   2.0000      -1.011258       -27.5177
  25   2.0000      -0.984015       -26.7764
  26   2.0000      -0.913071       -24.8459
  27   2.0000      -0.907315       -24.6893
  28   2.0000      -0.875552       -23.8250
  29   2.0000      -0.847030       -23.0489
  30   2.0000      -0.839878       -22.8543
  31   2.0000      -0.811267       -22.0757
  32   2.0000      -0.783285       -21.3143
  33   2.0000      -0.775880       -21.1128
  34   2.0000      -0.708233       -19.2720
  35   2.0000      -0.695703       -18.9310
  36   2.0000      -0.683358       -18.5951
  37   2.0000      -0.662809       -18.0359
  38   2.0000      -0.633438       -17.2367
  39   2.0000      -0.618308       -16.8250
  40   2.0000      -0.589436       -16.0394
  41   2.0000      -0.571498       -15.5513
  42   2.0000      -0.558040       -15.1850
  43   2.0000      -0.552056       -15.0222
  44   2.0000      -0.544917       -14.8280
  45   2.0000      -0.543671       -14.7940
  46   2.0000      -0.515274       -14.0213
  47   2.0000      -0.506250       -13.7758
  48   2.0000      -0.500072       -13.6077
  49   2.0000      -0.492321       -13.3967
  50   2.0000      -0.487002       -13.2520
  51   2.0000      -0.484806       -13.1922
  52   2.0000      -0.469047       -12.7634
  53   2.0000      -0.464072       -12.6280
  54   2.0000      -0.453250       -12.3336
  55   2.0000      -0.452411       -12.3107
  56   2.0000      -0.441066       -12.0020
  57   2.0000      -0.434542       -11.8245
  58   2.0000      -0.433942       -11.8082
  59   2.0000      -0.423732       -11.5303
  60   2.0000      -0.418375       -11.3846
  61   2.0000      -0.412549       -11.2260
  62   2.0000      -0.405002       -11.0207
  63   2.0000      -0.361592        -9.8394
  64   2.0000      -0.334078        -9.0907
  65   2.0000      -0.331718        -9.0265
  66   2.0000      -0.285874        -7.7790
  67   0.0000       0.019961         0.5432
  68   0.0000       0.082763         2.2521
  69   0.0000       0.103079         2.8049
  70   0.0000       0.117183         3.1887
  71   0.0000       0.130699         3.5565

MULLIKEN ATOMIC CHARGES
-----------------------
   0 S :    0.104375
   1 C :   -0.157621
   2 C :   -0.076845
   3 C :   -0.027256
   4 C :   -0.095725
   5 H :    0.013476
   6 C :    0.038452
   7 H :    0.033576
   8 H :    0.034099
   9 C :   -0.028301
  10 H :    0.040751
  11 H :    0.030507
  12 C :   -0.066752
  13 H :    0.032447
  14 H :    0.047306
  15 H :    0.014855
  16 S :    0.088861
  17 C :   -0.120097
  18 C :   -0.029619
  19 C :   -0.027996
  20 C :   -0.122225
  21 H :    0.008724
  22 C :    0.020893
  23 H :    0.012275
  24 H :    0.029566
  25 C :   -0.067525
  26 H :    0.019143
  27 H :    0.037124
  28 C :   -0.046562
  29 H :    0.049546
  30 H :    0.029832
  31 H :    0.035082
  32 H :    0.063348
  33 H :    0.082286
Sum of atomic charges:    0.0000000

LOEWDIN ATOMIC CHARGES
----------------------
   0 S :    0.413628
   1 C :   -0.197897
   2 C :   -0.063603
   3 C :   -0.078334
   4 C :   -0.204935
   5 H :    0.036032
   6 C :   -0.031181
   7 H :    0.032945
   8 H :    0.034378
   9 C :   -0.043701
  10 H :    0.033630
  11 H :    0.027697
  12 C :   -0.074103
  13 H :    0.030861
  14 H :    0.027980
  15 H :    0.022621
  16 S :    0.405239
  17 C :   -0.197445
  18 C :   -0.068859
  19 C :   -0.058493
  20 C :   -0.193609
  21 H :    0.026843
  22 C :   -0.041129
  23 H :    0.031154
  24 H :    0.028124
  25 C :   -0.037514
  26 H :    0.015844
  27 H :    0.021938
  28 C :   -0.063779
  29 H :    0.031773
  30 H :    0.030995
  31 H :    0.018971
  32 H :    0.035225
  33 H :    0.048706

  Mayer bond orders larger than 0.100000
B(  0-S ,  1-C ) :   1.1185 B(  0-S ,  4-C ) :   1.1592 B(  1-C ,  2-C ) :   1.6406
B(  1-C , 32-H ) :   0.9654 B(  2-C ,  3-C ) :   1.2224 B(  2-C ,  6-C ) :   0.9943
B(  3-C ,  4-C ) :   1.5751 B(  3-C ,  5-H ) :   0.9814 B(  4-C , 20-C ) :   1.0715
B(  6-C ,  7-H ) :   0.9412 B(  6-C ,  8-H ) :   0.9477 B(  6-C ,  9-C ) :   1.0641
B(  9-C , 10-H ) :   0.9503 B(  9-C , 11-H ) :   0.9520 B(  9-C , 12-C ) :   1.0915
B( 12-C , 13-H ) :   0.9680 B( 12-C , 14-H ) :   0.9738 B( 12-C , 15-H ) :   0.9704
B( 16-S , 17-C ) :   1.1464 B( 16-S , 20-C ) :   1.1579 B( 17-C , 18-C ) :   1.6062
B( 17-C , 20-C ) :   0.1047 B( 17-C , 33-H ) :   0.9567 B( 18-C , 19-C ) :   1.2643
B( 18-C , 21-H ) :   0.9940 B( 19-C , 20-C ) :   1.5260 B( 19-C , 22-C ) :   1.0298
B( 22-C , 23-H ) :   0.9366 B( 22-C , 24-H ) :   0.9455 B( 22-C , 25-C ) :   1.0725
B( 25-C , 26-H ) :   0.9533 B( 25-C , 27-H ) :   0.9504 B( 25-C , 28-C ) :   1.0811
B( 28-C , 29-H ) :   0.9640 B( 28-C , 30-H ) :   0.9738 B( 28-C , 31-H ) :   0.9760

Dispersion correction           -0.014875548
FINAL SINGLE POINT ENERGY     -1339.874520040256

DIPOLE MOMENT
-------------
                                X             Y             Z
Electronic contribution:     23.19954      11.19333      -5.52420
Nuclear contribution   :    -23.59208     -11.55443       5.81013
                        -----------------------------------------
Total Dipole Moment    :     -0.39254      -0.36110       0.28592
                        -----------------------------------------
Magnitude (a.u.)       :      0.60517
Magnitude (Debye)      :      1.53822

Rotational constants in cm-1:     0.020251     0.008887     0.006825
Rotational constants in MHz :   607.119753   266.425262   204.613073

                             ****ORCA TERMINATED NORMALLY****
TOTAL RUN TIME: 0 days 0 hours 0 minutes 22 seconds 94 msec
