                         Program Version 4.2.1 -  RELEASE  -
|  1> ! wB97X-D3 SP def2-SVP
|  2> %pal
|  3> nprocs 24
|  4> end
|  5>
|  6> * xyz 0 1
|  7> S 	 -39.3002 	 -12.6137 	 5.92998
|  8> C 	 -39.9789 	 -13.1091 	 7.47836
|  9> C 	 -40.7532 	 -12.1001 	 8.06815
| 10> C 	 -40.7234 	 -10.9209 	 7.19674
| 11> C 	 -40.2268 	 -11.1023 	 5.92728
| 12> H 	 -41.1769 	 -9.99516 	 7.40226
| 13> C 	 -41.5082 	 -12.039 	 9.39987
| 14> H 	 -41.9569 	 -13.0646 	 9.47451
| 15> H 	 -42.3011 	 -11.3676 	 9.53995
| 16> C 	 -40.6298 	 -11.77 	 10.5781
| 17> H 	 -40.3121 	 -10.7579 	 10.414
| 18> H 	 -41.1222 	 -11.7776 	 11.5486
| 19> C 	 -39.3896 	 -12.6914 	 10.7069
| 20> H 	 -38.6618 	 -12.5344 	 9.93582
| 21> H 	 -38.8667 	 -12.3761 	 11.6714
| 22> H 	 -39.5961 	 -13.7731 	 10.6807
| 23> S 	 -39.0873 	 -10.3382 	 3.44546
| 24> C 	 -39.8551 	 -9.07187 	 2.59061
| 25> C 	 -41.112 	 -8.73918 	 3.01183
| 26> C 	 -41.3677 	 -9.37455 	 4.26753
| 27> C 	 -40.3271 	 -10.1871 	 4.72588
| 28> H 	 -41.7309 	 -8.15041 	 2.43799
| 29> C 	 -42.6698 	 -9.01692 	 5.01907
| 30> H 	 -42.8267 	 -9.92825 	 5.56879
| 31> H 	 -43.4881 	 -8.90763 	 4.34052
| 32> C 	 -42.4936 	 -7.85065 	 5.96356
| 33> H 	 -42.3233 	 -6.8869 	 5.36511
| 34> H 	 -41.6062 	 -8.09173 	 6.47432
| 35> C 	 -43.5932 	 -7.62362 	 7.04298
| 36> H 	 -43.8092 	 -8.42277 	 7.65066
| 37> H 	 -44.5098 	 -7.33729 	 6.66663
| 38> H 	 -43.294 	 -6.86759 	 7.74353
| 39> H 	 -39.7546 	 -14.0478 	 7.86392
| 40> H 	 -39.4054 	 -8.80338 	 1.72144
| 41> *
| 42>
| 43>                          ****END OF INPUT****

CARTESIAN COORDINATES (ANGSTROEM)
---------------------------------
  S    -39.300200  -12.613700    5.929980
  C    -39.978900  -13.109100    7.478360
  C    -40.753200  -12.100100    8.068150
  C    -40.723400  -10.920900    7.196740
  C    -40.226800  -11.102300    5.927280
  H    -41.176900   -9.995160    7.402260
  C    -41.508200  -12.039000    9.399870
  H    -41.956900  -13.064600    9.474510
  H    -42.301100  -11.367600    9.539950
  C    -40.629800  -11.770000   10.578100
  H    -40.312100  -10.757900   10.414000
  H    -41.122200  -11.777600   11.548600
  C    -39.389600  -12.691400   10.706900
  H    -38.661800  -12.534400    9.935820
  H    -38.866700  -12.376100   11.671400
  H    -39.596100  -13.773100   10.680700
  S    -39.087300  -10.338200    3.445460
  C    -39.855100   -9.071870    2.590610
  C    -41.112000   -8.739180    3.011830
  C    -41.367700   -9.374550    4.267530
  C    -40.327100  -10.187100    4.725880
  H    -41.730900   -8.150410    2.437990
  C    -42.669800   -9.016920    5.019070
  H    -42.826700   -9.928250    5.568790
  H    -43.488100   -8.907630    4.340520
  C    -42.493600   -7.850650    5.963560
  H    -42.323300   -6.886900    5.365110
  H    -41.606200   -8.091730    6.474320
  C    -43.593200   -7.623620    7.042980
  H    -43.809200   -8.422770    7.650660
  H    -44.509800   -7.337290    6.666630
  H    -43.294000   -6.867590    7.743530
  H    -39.754600  -14.047800    7.863920
  H    -39.405400   -8.803380    1.721440

 Total Charge           Charge          ....    0
 Multiplicity           Mult            ....    1
 Number of Electrons    NEL             ....  134
 Basis Dimension        Dim             ....  322

ORBITAL ENERGIES
----------------

  NO   OCC          E(Eh)            E(eV)
   0   2.0000     -88.966228     -2420.8941
   1   2.0000     -88.964850     -2420.8566
   2   2.0000     -10.336422      -281.2683
   3   2.0000     -10.336289      -281.2647
   4   2.0000     -10.317835      -280.7626
   5   2.0000     -10.312642      -280.6213
   6   2.0000     -10.309758      -280.5428
   7   2.0000     -10.309070      -280.5241
   8   2.0000     -10.292920      -280.0846
   9   2.0000     -10.291580      -280.0481
  10   2.0000     -10.290180      -280.0100
  11   2.0000     -10.290037      -280.0061
  12   2.0000     -10.287348      -279.9330
  13   2.0000     -10.283075      -279.8167
  14   2.0000     -10.278160      -279.6829
  15   2.0000     -10.266869      -279.3757
  16   2.0000      -8.081559      -219.9104
  17   2.0000      -8.079255      -219.8477
  18   2.0000      -6.039956      -164.3556
  19   2.0000      -6.037934      -164.3005
  20   2.0000      -6.036156      -164.2522
  21   2.0000      -6.033927      -164.1915
  22   2.0000      -6.032252      -164.1459
  23   2.0000      -6.029750      -164.0778
  24   2.0000      -1.003922       -27.3181
  25   2.0000      -0.983536       -26.7634
  26   2.0000      -0.915831       -24.9210
  27   2.0000      -0.912295       -24.8248
  28   2.0000      -0.864510       -23.5245
  29   2.0000      -0.854830       -23.2611
  30   2.0000      -0.840438       -22.8695
  31   2.0000      -0.816026       -22.2052
  32   2.0000      -0.790885       -21.5211
  33   2.0000      -0.782675       -21.2977
  34   2.0000      -0.709412       -19.3041
  35   2.0000      -0.699114       -19.0238
  36   2.0000      -0.694889       -18.9089
  37   2.0000      -0.669867       -18.2280
  38   2.0000      -0.649036       -17.6612
  39   2.0000      -0.619861       -16.8673
  40   2.0000      -0.600271       -16.3342
  41   2.0000      -0.576738       -15.6938
  42   2.0000      -0.570301       -15.5187
  43   2.0000      -0.556305       -15.1378
  44   2.0000      -0.543470       -14.7886
  45   2.0000      -0.526346       -14.3226
  46   2.0000      -0.521929       -14.2024
  47   2.0000      -0.510870       -13.9015
  48   2.0000      -0.506124       -13.7723
  49   2.0000      -0.499975       -13.6050
  50   2.0000      -0.492161       -13.3924
  51   2.0000      -0.483018       -13.1436
  52   2.0000      -0.474836       -12.9209
  53   2.0000      -0.465059       -12.6549
  54   2.0000      -0.459173       -12.4947
  55   2.0000      -0.453461       -12.3393
  56   2.0000      -0.442987       -12.0543
  57   2.0000      -0.439940       -11.9714
  58   2.0000      -0.428845       -11.6695
  59   2.0000      -0.427364       -11.6292
  60   2.0000      -0.422775       -11.5043
  61   2.0000      -0.416482       -11.3330
  62   2.0000      -0.410106       -11.1596
  63   2.0000      -0.356821        -9.7096
  64   2.0000      -0.335298        -9.1239
  65   2.0000      -0.326687        -8.8896
  66   2.0000      -0.286823        -7.8048
  67   0.0000       0.023143         0.6298
  68   0.0000       0.072033         1.9601
  69   0.0000       0.093677         2.5491
  70   0.0000       0.117478         3.1967
  71   0.0000       0.130255         3.5444

MULLIKEN ATOMIC CHARGES
-----------------------
   0 S :    0.085643
   1 C :   -0.101228
   2 C :   -0.084813
   3 C :    0.018264
   4 C :   -0.104309
   5 H :   -0.024400
   6 C :    0.095555
   7 H :    0.030051
   8 H :    0.016238
   9 C :   -0.063182
  10 H :    0.016966
  11 H :    0.034411
  12 C :   -0.083060
  13 H :    0.040172
  14 H :    0.039565
  15 H :    0.032022
  16 S :    0.091518
  17 C :   -0.039954
  18 C :    0.021151
  19 C :   -0.090773
  20 C :   -0.135031
  21 H :   -0.010495
  22 C :    0.093145
  23 H :    0.018332
  24 H :    0.016372
  25 C :   -0.071996
  26 H :    0.037769
  27 H :    0.018750
  28 C :    0.024993
  29 H :    0.001181
  30 H :    0.009561
  31 H :    0.023990
  32 H :    0.026734
  33 H :    0.016855
Sum of atomic charges:    0.0000000

LOEWDIN ATOMIC CHARGES
----------------------
   0 S :    0.379563
   1 C :   -0.175508
   2 C :   -0.048775
   3 C :   -0.068124
   4 C :   -0.175575
   5 H :    0.016511
   6 C :   -0.031538
   7 H :    0.035262
   8 H :    0.025742
   9 C :   -0.040461
  10 H :    0.022773
  11 H :    0.025558
  12 C :   -0.073201
  13 H :    0.020461
  14 H :    0.034508
  15 H :    0.022552
  16 S :    0.401030
  17 C :   -0.160356
  18 C :   -0.059337
  19 C :   -0.041734
  20 C :   -0.189141
  21 H :    0.021799
  22 C :   -0.027441
  23 H :    0.028037
  24 H :    0.023682
  25 C :   -0.034916
  26 H :    0.033869
  27 H :    0.015172
  28 C :   -0.054799
  29 H :    0.014076
  30 H :    0.015358
  31 H :    0.029701
  32 H :    0.012161
  33 H :    0.003094

  Mayer bond orders larger than 0.100000
B(  0-S ,  1-C ) :   1.1361 B(  0-S ,  4-C ) :   1.1276 B(  1-C ,  2-C ) :   1.6113
B(  1-C , 32-H ) :   0.9801 B(  2-C ,  3-C ) :   1.2131 B(  2-C ,  6-C ) :   1.0150
B(  3-C ,  4-C ) :   1.6040 B(  3-C ,  5-H ) :   0.9966 B(  4-C , 20-C ) :   1.0476
B(  6-C ,  7-H ) :   0.9375 B(  6-C ,  8-H ) :   0.9467 B(  6-C ,  9-C ) :   1.0759
B(  9-C , 10-H ) :   0.9489 B(  9-C , 11-H ) :   0.9586 B(  9-C , 12-C ) :   1.0804
B( 12-C , 13-H ) :   0.9704 B( 12-C , 14-H ) :   0.9733 B( 12-C , 15-H ) :   0.9769
B( 16-S , 17-C ) :   1.1830 B( 16-S , 20-C ) :   1.1230 B( 17-C , 18-C ) :   1.5885
B( 17-C , 33-H ) :   0.9783 B( 18-C , 19-C ) :   1.2275 B( 18-C , 21-H ) :   1.0147
B( 19-C , 20-C ) :   1.6017 B( 19-C , 22-C ) :   1.0397 B( 22-C , 23-H ) :   0.9241
B( 22-C , 24-H ) :   0.9361 B( 22-C , 25-C ) :   1.0687 B( 25-C , 26-H ) :   0.9517
B( 25-C , 27-H ) :   0.9517 B( 25-C , 28-C ) :   1.0833 B( 28-C , 29-H ) :   0.9700
B( 28-C , 30-H ) :   0.9731 B( 28-C , 31-H ) :   0.9717

Dispersion correction           -0.014707997
FINAL SINGLE POINT ENERGY     -1339.850318638837

DIPOLE MOMENT
-------------
                                X             Y             Z
Electronic contribution:     14.43893      -7.93666     -23.84011
Nuclear contribution   :    -14.99011       8.27337      24.09942
                        -----------------------------------------
Total Dipole Moment    :     -0.55118       0.33671       0.25932
                        -----------------------------------------
Magnitude (a.u.)       :      0.69600
Magnitude (Debye)      :      1.76910

Rotational constants in cm-1:     0.018848     0.009121     0.006481
Rotational constants in MHz :   565.039307   273.449907   194.301924

                             ****ORCA TERMINATED NORMALLY****
TOTAL RUN TIME: 0 days 0 hours 0 minutes 21 seconds 967 msec
