                         Program Version 4.2.1 -  RELEASE  -
|  1> ! wB97X-D3 SP def2-SVP
|  2> %pal
|  3> nprocs 24
|  4> end
|  5>
|  6> * xyz 0 1
|  7> S 	 -56.8572 	 9.80766 	 -95.5078
|  8> C 	 -55.3411 	 9.11876 	 -95.8657
|  9> C 	 -54.4988 	 9.0111 	 -94.774
| 10> C 	 -55.0284 	 9.78888 	 -93.6697
| 11> C 	 -56.2653 	 10.4496 	 -93.9477
| 12> H 	 -54.4518 	 9.88387 	 -92.7268
| 13> C 	 -53.1347 	 8.33792 	 -94.7434
| 14> H 	 -53.1364 	 7.39964 	 -95.3854
| 15> H 	 -52.8244 	 8.03866 	 -93.7232
| 16> C 	 -51.9835 	 9.17936 	 -95.2982
| 17> H 	 -52.301 	 9.4554 	 -96.263
| 18> H 	 -51.8877 	 10.0653 	 -94.7125
| 19> C 	 -50.6637 	 8.49927 	 -95.5041
| 20> H 	 -50.786 	 7.85357 	 -96.3693
| 21> H 	 -49.9376 	 9.22816 	 -95.7238
| 22> H 	 -50.2554 	 7.8772 	 -94.7528
| 23> S 	 -57.8446 	 10.4241 	 -91.7122
| 24> C 	 -57.9633 	 11.9613 	 -90.8814
| 25> C 	 -57.3278 	 13.0248 	 -91.5536
| 26> C 	 -56.789 	 12.5927 	 -92.7837
| 27> C 	 -56.9671 	 11.2368 	 -92.9558
| 28> H 	 -57.3568 	 14.123 	 -91.2408
| 29> C 	 -56.0241 	 13.5431 	 -93.659
| 30> H 	 -56.4964 	 14.4778 	 -93.741
| 31> H 	 -55.8843 	 13.2128 	 -94.6827
| 32> C 	 -54.5641 	 13.8794 	 -93.2063
| 33> H 	 -53.9203 	 12.9462 	 -93.1174
| 34> H 	 -54.5801 	 14.3527 	 -92.2303
| 35> C 	 -53.8044 	 14.7093 	 -94.2994
| 36> H 	 -54.2251 	 15.6969 	 -94.5837
| 37> H 	 -53.6691 	 14.011 	 -95.1318
| 38> H 	 -52.7247 	 14.7871 	 -93.9823
| 39> H 	 -55.0934 	 8.5531 	 -96.7368
| 40> H 	 -58.5483 	 11.9372 	 -89.9758
| 41> *
| 42>
| 43>                          ****END OF INPUT****

CARTESIAN COORDINATES (ANGSTROEM)
---------------------------------
  S    -56.857200    9.807660  -95.507800
  C    -55.341100    9.118760  -95.865700
  C    -54.498800    9.011100  -94.774000
  C    -55.028400    9.788880  -93.669700
  C    -56.265300   10.449600  -93.947700
  H    -54.451800    9.883870  -92.726800
  C    -53.134700    8.337920  -94.743400
  H    -53.136400    7.399640  -95.385400
  H    -52.824400    8.038660  -93.723200
  C    -51.983500    9.179360  -95.298200
  H    -52.301000    9.455400  -96.263000
  H    -51.887700   10.065300  -94.712500
  C    -50.663700    8.499270  -95.504100
  H    -50.786000    7.853570  -96.369300
  H    -49.937600    9.228160  -95.723800
  H    -50.255400    7.877200  -94.752800
  S    -57.844600   10.424100  -91.712200
  C    -57.963300   11.961300  -90.881400
  C    -57.327800   13.024800  -91.553600
  C    -56.789000   12.592700  -92.783700
  C    -56.967100   11.236800  -92.955800
  H    -57.356800   14.123000  -91.240800
  C    -56.024100   13.543100  -93.659000
  H    -56.496400   14.477800  -93.741000
  H    -55.884300   13.212800  -94.682700
  C    -54.564100   13.879400  -93.206300
  H    -53.920300   12.946200  -93.117400
  H    -54.580100   14.352700  -92.230300
  C    -53.804400   14.709300  -94.299400
  H    -54.225100   15.696900  -94.583700
  H    -53.669100   14.011000  -95.131800
  H    -52.724700   14.787100  -93.982300
  H    -55.093400    8.553100  -96.736800
  H    -58.548300   11.937200  -89.975800

 Total Charge           Charge          ....    0
 Multiplicity           Mult            ....    1
 Number of Electrons    NEL             ....  134
 Basis Dimension        Dim             ....  322

ORBITAL ENERGIES
----------------

  NO   OCC          E(Eh)            E(eV)
   0   2.0000     -88.968979     -2420.9690
   1   2.0000     -88.967940     -2420.9407
   2   2.0000     -10.330002      -281.0936
   3   2.0000     -10.321680      -280.8672
   4   2.0000     -10.318786      -280.7885
   5   2.0000     -10.308550      -280.5099
   6   2.0000     -10.302739      -280.3518
   7   2.0000     -10.300436      -280.2891
   8   2.0000     -10.300200      -280.2827
   9   2.0000     -10.299582      -280.2659
  10   2.0000     -10.297884      -280.2197
  11   2.0000     -10.291648      -280.0500
  12   2.0000     -10.285654      -279.8869
  13   2.0000     -10.285152      -279.8732
  14   2.0000     -10.275833      -279.6196
  15   2.0000     -10.269260      -279.4408
  16   2.0000      -8.084289      -219.9847
  17   2.0000      -8.082382      -219.9328
  18   2.0000      -6.042487      -164.4244
  19   2.0000      -6.040819      -164.3790
  20   2.0000      -6.038841      -164.3252
  21   2.0000      -6.036965      -164.2742
  22   2.0000      -6.035215      -164.2266
  23   2.0000      -6.033202      -164.1718
  24   2.0000      -1.006136       -27.3784
  25   2.0000      -0.983014       -26.7492
  26   2.0000      -0.914198       -24.8766
  27   2.0000      -0.905416       -24.6376
  28   2.0000      -0.867970       -23.6187
  29   2.0000      -0.852421       -23.1956
  30   2.0000      -0.849383       -23.1129
  31   2.0000      -0.804888       -21.9021
  32   2.0000      -0.782862       -21.3028
  33   2.0000      -0.770894       -20.9771
  34   2.0000      -0.699126       -19.0242
  35   2.0000      -0.698941       -19.0192
  36   2.0000      -0.691072       -18.8050
  37   2.0000      -0.663228       -18.0473
  38   2.0000      -0.635672       -17.2975
  39   2.0000      -0.615722       -16.7547
  40   2.0000      -0.602075       -16.3833
  41   2.0000      -0.574779       -15.6405
  42   2.0000      -0.564196       -15.3526
  43   2.0000      -0.559207       -15.2168
  44   2.0000      -0.523958       -14.2576
  45   2.0000      -0.520094       -14.1525
  46   2.0000      -0.512572       -13.9478
  47   2.0000      -0.508158       -13.8277
  48   2.0000      -0.506192       -13.7742
  49   2.0000      -0.496950       -13.5227
  50   2.0000      -0.488735       -13.2992
  51   2.0000      -0.473443       -12.8830
  52   2.0000      -0.469722       -12.7818
  53   2.0000      -0.461788       -12.5659
  54   2.0000      -0.456395       -12.4191
  55   2.0000      -0.451613       -12.2890
  56   2.0000      -0.446541       -12.1510
  57   2.0000      -0.435820       -11.8593
  58   2.0000      -0.431365       -11.7380
  59   2.0000      -0.426814       -11.6142
  60   2.0000      -0.424697       -11.5566
  61   2.0000      -0.419673       -11.4199
  62   2.0000      -0.417600       -11.3635
  63   2.0000      -0.339516        -9.2387
  64   2.0000      -0.326515        -8.8849
  65   2.0000      -0.312297        -8.4980
  66   2.0000      -0.308984        -8.4079
  67   0.0000       0.044375         1.2075
  68   0.0000       0.046587         1.2677
  69   0.0000       0.107959         2.9377
  70   0.0000       0.115988         3.1562
  71   0.0000       0.125011         3.4017

MULLIKEN ATOMIC CHARGES
-----------------------
   0 S :    0.127407
   1 C :   -0.098224
   2 C :   -0.087932
   3 C :    0.024987
   4 C :   -0.180945
   5 H :    0.029085
   6 C :    0.026641
   7 H :    0.025263
   8 H :    0.025750
   9 C :   -0.044899
  10 H :    0.005784
  11 H :    0.015950
  12 C :   -0.001360
  13 H :    0.019183
  14 H :    0.024950
  15 H :    0.019244
  16 S :    0.132676
  17 C :   -0.112925
  18 C :   -0.039246
  19 C :    0.003646
  20 C :   -0.190393
  21 H :    0.048929
  22 C :    0.106756
  23 H :    0.009053
  24 H :    0.015855
  25 C :   -0.111284
  26 H :    0.036346
  27 H :    0.027876
  28 C :   -0.073345
  29 H :    0.049994
  30 H :    0.034233
  31 H :    0.036601
  32 H :    0.035700
  33 H :    0.058643
Sum of atomic charges:    0.0000000

LOEWDIN ATOMIC CHARGES
----------------------
   0 S :    0.414922
   1 C :   -0.208286
   2 C :   -0.069127
   3 C :   -0.054102
   4 C :   -0.200116
   5 H :    0.034427
   6 C :   -0.034642
   7 H :    0.032838
   8 H :    0.029753
   9 C :   -0.036716
  10 H :    0.018316
  11 H :    0.016952
  12 C :   -0.057078
  13 H :    0.026524
  14 H :    0.025490
  15 H :    0.018189
  16 S :    0.427239
  17 C :   -0.179057
  18 C :   -0.073982
  19 C :   -0.049370
  20 C :   -0.219048
  21 H :    0.046675
  22 C :   -0.029569
  23 H :    0.024776
  24 H :    0.030569
  25 C :   -0.037281
  26 H :    0.030441
  27 H :    0.015042
  28 C :   -0.075940
  29 H :    0.026336
  30 H :    0.027800
  31 H :    0.033377
  32 H :    0.023664
  33 H :    0.020985

  Mayer bond orders larger than 0.100000
B(  0-S ,  1-C ) :   1.1646 B(  0-S ,  4-C ) :   1.1348 B(  1-C ,  2-C ) :   1.5933
B(  1-C , 32-H ) :   0.9617 B(  2-C ,  3-C ) :   1.2684 B(  2-C ,  6-C ) :   1.0373
B(  3-C ,  4-C ) :   1.5515 B(  3-C ,  5-H ) :   0.9847 B(  4-C , 20-C ) :   1.0406
B(  6-C ,  7-H ) :   0.9399 B(  6-C ,  8-H ) :   0.9409 B(  6-C ,  9-C ) :   1.0686
B(  9-C , 10-H ) :   0.9520 B(  9-C , 11-H ) :   0.9554 B(  9-C , 12-C ) :   1.0859
B( 12-C , 13-H ) :   0.9725 B( 12-C , 14-H ) :   0.9698 B( 12-C , 15-H ) :   0.9756
B( 16-S , 17-C ) :   1.1771 B( 16-S , 20-C ) :   1.1589 B( 17-C , 18-C ) :   1.5638
B( 17-C , 33-H ) :   0.9734 B( 18-C , 19-C ) :   1.2640 B( 18-C , 21-H ) :   0.9785
B( 19-C , 20-C ) :   1.5935 B( 19-C , 22-C ) :   1.0604 B( 22-C , 23-H ) :   0.9276
B( 22-C , 24-H ) :   0.9279 B( 22-C , 25-C ) :   1.0572 B( 25-C , 26-H ) :   0.9552
B( 25-C , 27-H ) :   0.9585 B( 25-C , 28-C ) :   1.0765 B( 28-C , 29-H ) :   0.9754
B( 28-C , 30-H ) :   0.9735 B( 28-C , 31-H ) :   0.9732

Dispersion correction           -0.014297069
FINAL SINGLE POINT ENERGY     -1339.869884290854

DIPOLE MOMENT
-------------
                                X             Y             Z
Electronic contribution:    -29.07448      -7.76596       6.77260
Nuclear contribution   :     29.63429       7.92080      -6.69054
                        -----------------------------------------
Total Dipole Moment    :      0.55981       0.15485       0.08206
                        -----------------------------------------
Magnitude (a.u.)       :      0.58660
Magnitude (Debye)      :      1.49102

Rotational constants in cm-1:     0.017406     0.008641     0.006969
Rotational constants in MHz :   521.804534   259.038979   208.921094

                             ****ORCA TERMINATED NORMALLY****
TOTAL RUN TIME: 0 days 0 hours 0 minutes 21 seconds 512 msec
