                         Program Version 4.2.1 -  RELEASE  -
|  1> ! wB97X-D3 SP def2-SVP
|  2> %pal
|  3> nprocs 24
|  4> end
|  5>
|  6> * xyz 0 1
|  7> S 	 -34.5195 	 -48.2389 	 -75.6958
|  8> C 	 -32.9061 	 -48.9391 	 -75.7158
|  9> C 	 -32.1566 	 -48.1998 	 -74.8638
| 10> C 	 -32.7456 	 -46.8909 	 -74.5381
| 11> C 	 -34.0236 	 -46.7187 	 -74.9646
| 12> H 	 -32.1647 	 -46.0994 	 -74.1248
| 13> C 	 -30.7649 	 -48.5608 	 -74.435
| 14> H 	 -30.7608 	 -49.6256 	 -74.0072
| 15> H 	 -30.6015 	 -48.0465 	 -73.5237
| 16> C 	 -29.5913 	 -48.3665 	 -75.4807
| 17> H 	 -28.6402 	 -48.5955 	 -75.043
| 18> H 	 -29.7228 	 -49.0729 	 -76.372
| 19> C 	 -29.6077 	 -46.9398 	 -76.0789
| 20> H 	 -30.4303 	 -46.6634 	 -76.7752
| 21> H 	 -29.7628 	 -46.1669 	 -75.2515
| 22> H 	 -28.6372 	 -46.6769 	 -76.5807
| 23> S 	 -36.6107 	 -45.9388 	 -75.3494
| 24> C 	 -37.068 	 -44.2611 	 -74.8951
| 25> C 	 -35.9658 	 -43.564 	 -74.4857
| 26> C 	 -34.7424 	 -44.2817 	 -74.4762
| 27> C 	 -34.9236 	 -45.6047 	 -74.7834
| 28> H 	 -36.1342 	 -42.5053 	 -74.2478
| 29> C 	 -33.4328 	 -43.491 	 -74.4448
| 30> H 	 -32.6792 	 -43.7796 	 -73.7077
| 31> H 	 -33.7359 	 -42.5043 	 -74.0736
| 32> C 	 -32.7269 	 -43.3017 	 -75.833
| 33> H 	 -33.3893 	 -42.8005 	 -76.5384
| 34> H 	 -32.4703 	 -44.3295 	 -76.2733
| 35> C 	 -31.4427 	 -42.5374 	 -75.601
| 36> H 	 -31.7225 	 -41.5098 	 -75.4197
| 37> H 	 -30.7338 	 -42.5259 	 -76.4958
| 38> H 	 -30.8283 	 -42.8998 	 -74.8213
| 39> H 	 -32.6234 	 -49.8381 	 -76.2468
| 40> H 	 -38.0524 	 -43.8605 	 -74.7322
| 41> *
| 42>
| 43>                          ****END OF INPUT****

CARTESIAN COORDINATES (ANGSTROEM)
---------------------------------
  S    -34.519500  -48.238900  -75.695800
  C    -32.906100  -48.939100  -75.715800
  C    -32.156600  -48.199800  -74.863800
  C    -32.745600  -46.890900  -74.538100
  C    -34.023600  -46.718700  -74.964600
  H    -32.164700  -46.099400  -74.124800
  C    -30.764900  -48.560800  -74.435000
  H    -30.760800  -49.625600  -74.007200
  H    -30.601500  -48.046500  -73.523700
  C    -29.591300  -48.366500  -75.480700
  H    -28.640200  -48.595500  -75.043000
  H    -29.722800  -49.072900  -76.372000
  C    -29.607700  -46.939800  -76.078900
  H    -30.430300  -46.663400  -76.775200
  H    -29.762800  -46.166900  -75.251500
  H    -28.637200  -46.676900  -76.580700
  S    -36.610700  -45.938800  -75.349400
  C    -37.068000  -44.261100  -74.895100
  C    -35.965800  -43.564000  -74.485700
  C    -34.742400  -44.281700  -74.476200
  C    -34.923600  -45.604700  -74.783400
  H    -36.134200  -42.505300  -74.247800
  C    -33.432800  -43.491000  -74.444800
  H    -32.679200  -43.779600  -73.707700
  H    -33.735900  -42.504300  -74.073600
  C    -32.726900  -43.301700  -75.833000
  H    -33.389300  -42.800500  -76.538400
  H    -32.470300  -44.329500  -76.273300
  C    -31.442700  -42.537400  -75.601000
  H    -31.722500  -41.509800  -75.419700
  H    -30.733800  -42.525900  -76.495800
  H    -30.828300  -42.899800  -74.821300
  H    -32.623400  -49.838100  -76.246800
  H    -38.052400  -43.860500  -74.732200

 Total Charge           Charge          ....    0
 Multiplicity           Mult            ....    1
 Number of Electrons    NEL             ....  134
 Basis Dimension        Dim             ....  322

ORBITAL ENERGIES
----------------

  NO   OCC          E(Eh)            E(eV)
   0   2.0000     -88.966169     -2420.8925
   1   2.0000     -88.958992     -2420.6972
   2   2.0000     -10.334558      -281.2176
   3   2.0000     -10.330480      -281.1067
   4   2.0000     -10.318626      -280.7841
   5   2.0000     -10.314468      -280.6709
   6   2.0000     -10.306485      -280.4537
   7   2.0000     -10.301544      -280.3193
   8   2.0000     -10.300243      -280.2839
   9   2.0000     -10.299797      -280.2717
  10   2.0000     -10.295371      -280.1513
  11   2.0000     -10.294569      -280.1295
  12   2.0000     -10.294523      -280.1282
  13   2.0000     -10.292740      -280.0797
  14   2.0000     -10.288638      -279.9681
  15   2.0000     -10.279275      -279.7133
  16   2.0000      -8.079434      -219.8526
  17   2.0000      -8.073964      -219.7037
  18   2.0000      -6.038245      -164.3090
  19   2.0000      -6.034318      -164.2021
  20   2.0000      -6.032809      -164.1611
  21   2.0000      -6.029786      -164.0788
  22   2.0000      -6.028527      -164.0446
  23   2.0000      -6.024239      -163.9279
  24   2.0000      -1.007635       -27.4192
  25   2.0000      -0.982928       -26.7468
  26   2.0000      -0.908704       -24.7271
  27   2.0000      -0.905660       -24.6443
  28   2.0000      -0.872085       -23.7306
  29   2.0000      -0.853228       -23.2175
  30   2.0000      -0.836573       -22.7643
  31   2.0000      -0.819326       -22.2950
  32   2.0000      -0.778426       -21.1820
  33   2.0000      -0.772050       -21.0086
  34   2.0000      -0.711630       -19.3644
  35   2.0000      -0.704036       -19.1578
  36   2.0000      -0.695415       -18.9232
  37   2.0000      -0.665448       -18.1077
  38   2.0000      -0.639995       -17.4152
  39   2.0000      -0.616790       -16.7837
  40   2.0000      -0.595212       -16.1965
  41   2.0000      -0.569816       -15.5055
  42   2.0000      -0.566065       -15.4034
  43   2.0000      -0.541334       -14.7304
  44   2.0000      -0.539177       -14.6718
  45   2.0000      -0.524168       -14.2633
  46   2.0000      -0.519172       -14.1274
  47   2.0000      -0.510862       -13.9013
  48   2.0000      -0.509989       -13.8775
  49   2.0000      -0.506175       -13.7737
  50   2.0000      -0.490061       -13.3352
  51   2.0000      -0.480885       -13.0856
  52   2.0000      -0.470712       -12.8087
  53   2.0000      -0.462289       -12.5795
  54   2.0000      -0.455253       -12.3881
  55   2.0000      -0.447287       -12.1713
  56   2.0000      -0.442303       -12.0357
  57   2.0000      -0.437207       -11.8970
  58   2.0000      -0.433356       -11.7922
  59   2.0000      -0.423456       -11.5228
  60   2.0000      -0.418995       -11.4014
  61   2.0000      -0.414351       -11.2751
  62   2.0000      -0.401647       -10.9294
  63   2.0000      -0.366677        -9.9778
  64   2.0000      -0.336319        -9.1517
  65   2.0000      -0.320605        -8.7241
  66   2.0000      -0.285295        -7.7633
  67   0.0000       0.013497         0.3673
  68   0.0000       0.076253         2.0749
  69   0.0000       0.089915         2.4467
  70   0.0000       0.113727         3.0947
  71   0.0000       0.119916         3.2631

MULLIKEN ATOMIC CHARGES
-----------------------
   0 S :    0.068857
   1 C :   -0.106447
   2 C :   -0.096843
   3 C :   -0.005820
   4 C :   -0.068363
   5 H :   -0.010272
   6 C :    0.038162
   7 H :    0.039169
   8 H :    0.012535
   9 C :   -0.035912
  10 H :    0.033762
  11 H :    0.040454
  12 C :   -0.114475
  13 H :    0.057132
  14 H :    0.025166
  15 H :    0.044625
  16 S :    0.074652
  17 C :   -0.072344
  18 C :   -0.056703
  19 C :   -0.023740
  20 C :   -0.104005
  21 H :    0.028930
  22 C :    0.016692
  23 H :    0.030584
  24 H :    0.010921
  25 C :   -0.071224
  26 H :    0.037390
  27 H :    0.048193
  28 C :   -0.045073
  29 H :    0.028309
  30 H :    0.040783
  31 H :    0.022813
  32 H :    0.057275
  33 H :    0.054816
Sum of atomic charges:    0.0000000

LOEWDIN ATOMIC CHARGES
----------------------
   0 S :    0.377191
   1 C :   -0.178409
   2 C :   -0.065806
   3 C :   -0.067312
   4 C :   -0.181173
   5 H :    0.021903
   6 C :   -0.043051
   7 H :    0.040863
   8 H :    0.023436
   9 C :   -0.036400
  10 H :    0.022625
  11 H :    0.031464
  12 C :   -0.083854
  13 H :    0.031051
  14 H :    0.024090
  15 H :    0.030499
  16 S :    0.356971
  17 C :   -0.168209
  18 C :   -0.071417
  19 C :   -0.062046
  20 C :   -0.156829
  21 H :    0.036824
  22 C :   -0.031784
  23 H :    0.026442
  24 H :    0.029013
  25 C :   -0.037883
  26 H :    0.026645
  27 H :    0.031374
  28 C :   -0.068010
  29 H :    0.024139
  30 H :    0.034675
  31 H :    0.017142
  32 H :    0.034520
  33 H :    0.031317

  Mayer bond orders larger than 0.100000
B(  0-S ,  1-C ) :   1.1131 B(  0-S ,  4-C ) :   1.1197 B(  1-C ,  2-C ) :   1.6300
B(  1-C , 32-H ) :   0.9795 B(  2-C ,  3-C ) :   1.2013 B(  2-C ,  6-C ) :   1.0340
B(  3-C ,  4-C ) :   1.5899 B(  3-C ,  5-H ) :   1.0011 B(  4-C , 20-C ) :   1.1036
B(  6-C ,  7-H ) :   0.9409 B(  6-C ,  8-H ) :   0.9397 B(  6-C ,  9-C ) :   1.0605
B(  9-C , 10-H ) :   0.9588 B(  9-C , 11-H ) :   0.9577 B(  9-C , 12-C ) :   1.0636
B( 12-C , 13-H ) :   0.9721 B( 12-C , 14-H ) :   0.9756 B( 12-C , 15-H ) :   0.9740
B( 16-S , 17-C ) :   1.1197 B( 16-S , 20-C ) :   1.1121 B( 17-C , 18-C ) :   1.6672
B( 17-C , 33-H ) :   0.9622 B( 18-C , 19-C ) :   1.2189 B( 18-C , 21-H ) :   0.9785
B( 19-C , 20-C ) :   1.6159 B( 19-C , 22-C ) :   1.0419 B( 22-C , 23-H ) :   0.9375
B( 22-C , 24-H ) :   0.9326 B( 22-C , 25-C ) :   1.0504 B( 25-C , 26-H ) :   0.9558
B( 25-C , 27-H ) :   0.9559 B( 25-C , 28-C ) :   1.0767 B( 28-C , 29-H ) :   0.9750
B( 28-C , 30-H ) :   0.9721 B( 28-C , 31-H ) :   0.9732

Dispersion correction           -0.015345119
FINAL SINGLE POINT ENERGY     -1339.866387260268

DIPOLE MOMENT
-------------
                                X             Y             Z
Electronic contribution:    -28.79936     -11.55556       1.03756
Nuclear contribution   :     29.48219      12.00319      -0.92263
                        -----------------------------------------
Total Dipole Moment    :      0.68283       0.44763       0.11494
                        -----------------------------------------
Magnitude (a.u.)       :      0.82452
Magnitude (Debye)      :      2.09577

Rotational constants in cm-1:     0.018350     0.010253     0.007021
Rotational constants in MHz :   550.110555   307.370998   210.488268

                             ****ORCA TERMINATED NORMALLY****
TOTAL RUN TIME: 0 days 0 hours 0 minutes 21 seconds 493 msec
