                         Program Version 4.2.1 -  RELEASE  -
|  1> ! wB97X-D3 SP def2-SVP
|  2> %pal
|  3> nprocs 24
|  4> end
|  5>
|  6> * xyz 0 1
|  7> S 	 -107.081 	 59.5015 	 -93.6972
|  8> C 	 -105.521 	 59.4769 	 -92.8482
|  9> C 	 -104.457 	 59.4814 	 -93.7395
| 10> C 	 -104.953 	 59.4852 	 -95.0926
| 11> C 	 -106.282 	 59.5791 	 -95.2824
| 12> H 	 -104.47 	 59.3464 	 -96.018
| 13> C 	 -103.027 	 59.5307 	 -93.2633
| 14> H 	 -102.388 	 58.8471 	 -93.8871
| 15> H 	 -103.113 	 59.1269 	 -92.2667
| 16> C 	 -102.462 	 60.9642 	 -93.1816
| 17> H 	 -102.504 	 61.5277 	 -94.1218
| 18> H 	 -103.022 	 61.5398 	 -92.4296
| 19> C 	 -101.006 	 60.9522 	 -92.8487
| 20> H 	 -100.68 	 61.9412 	 -92.7496
| 21> H 	 -100.854 	 60.3357 	 -91.9547
| 22> H 	 -100.611 	 60.3844 	 -93.6668
| 23> S 	 -108.017 	 57.9284 	 -96.7641
| 24> C 	 -108.255 	 58.3664 	 -98.446
| 25> C 	 -107.65 	 59.5162 	 -98.8082
| 26> C 	 -106.929 	 60.1339 	 -97.7507
| 27> C 	 -107.034 	 59.4182 	 -96.5538
| 28> H 	 -107.846 	 59.9155 	 -99.751
| 29> C 	 -106.203 	 61.4522 	 -97.9392
| 30> H 	 -105.653 	 61.725 	 -96.994
| 31> H 	 -106.93 	 62.2956 	 -98.067
| 32> C 	 -105.317 	 61.491 	 -99.2016
| 33> H 	 -105.81 	 61.1492 	 -100.117
| 34> H 	 -104.439 	 60.8515 	 -99.1524
| 35> C 	 -104.753 	 62.8929 	 -99.4055
| 36> H 	 -105.534 	 63.6814 	 -99.5727
| 37> H 	 -104.056 	 62.8768 	 -100.304
| 38> H 	 -104.049 	 63.1521 	 -98.5667
| 39> H 	 -105.368 	 59.5533 	 -91.7794
| 40> H 	 -108.899 	 57.7915 	 -99.0923
| 41> *
| 42>
| 43>                          ****END OF INPUT****

CARTESIAN COORDINATES (ANGSTROEM)
---------------------------------
  S    -107.081000   59.501500  -93.697200
  C    -105.521000   59.476900  -92.848200
  C    -104.457000   59.481400  -93.739500
  C    -104.953000   59.485200  -95.092600
  C    -106.282000   59.579100  -95.282400
  H    -104.470000   59.346400  -96.018000
  C    -103.027000   59.530700  -93.263300
  H    -102.388000   58.847100  -93.887100
  H    -103.113000   59.126900  -92.266700
  C    -102.462000   60.964200  -93.181600
  H    -102.504000   61.527700  -94.121800
  H    -103.022000   61.539800  -92.429600
  C    -101.006000   60.952200  -92.848700
  H    -100.680000   61.941200  -92.749600
  H    -100.854000   60.335700  -91.954700
  H    -100.611000   60.384400  -93.666800
  S    -108.017000   57.928400  -96.764100
  C    -108.255000   58.366400  -98.446000
  C    -107.650000   59.516200  -98.808200
  C    -106.929000   60.133900  -97.750700
  C    -107.034000   59.418200  -96.553800
  H    -107.846000   59.915500  -99.751000
  C    -106.203000   61.452200  -97.939200
  H    -105.653000   61.725000  -96.994000
  H    -106.930000   62.295600  -98.067000
  C    -105.317000   61.491000  -99.201600
  H    -105.810000   61.149200  -100.117000
  H    -104.439000   60.851500  -99.152400
  C    -104.753000   62.892900  -99.405500
  H    -105.534000   63.681400  -99.572700
  H    -104.056000   62.876800  -100.304000
  H    -104.049000   63.152100  -98.566700
  H    -105.368000   59.553300  -91.779400
  H    -108.899000   57.791500  -99.092300

 Total Charge           Charge          ....    0
 Multiplicity           Mult            ....    1
 Number of Electrons    NEL             ....  134
 Basis Dimension        Dim             ....  322

ORBITAL ENERGIES
----------------

  NO   OCC          E(Eh)            E(eV)
   0   2.0000     -88.965442     -2420.8727
   1   2.0000     -88.960954     -2420.7506
   2   2.0000     -10.331935      -281.1462
   3   2.0000     -10.327019      -281.0125
   4   2.0000     -10.316456      -280.7250
   5   2.0000     -10.316017      -280.7131
   6   2.0000     -10.306478      -280.4535
   7   2.0000     -10.303295      -280.3669
   8   2.0000     -10.299787      -280.2715
   9   2.0000     -10.297445      -280.2077
  10   2.0000     -10.289131      -279.9815
  11   2.0000     -10.288689      -279.9695
  12   2.0000     -10.287721      -279.9431
  13   2.0000     -10.287176      -279.9283
  14   2.0000     -10.284527      -279.8562
  15   2.0000     -10.269576      -279.4494
  16   2.0000      -8.079641      -219.8582
  17   2.0000      -8.075088      -219.7343
  18   2.0000      -6.038148      -164.3064
  19   2.0000      -6.034364      -164.2034
  20   2.0000      -6.033767      -164.1871
  21   2.0000      -6.030280      -164.0922
  22   2.0000      -6.029716      -164.0769
  23   2.0000      -6.025653      -163.9663
  24   2.0000      -1.001767       -27.2595
  25   2.0000      -0.981798       -26.7161
  26   2.0000      -0.917939       -24.9784
  27   2.0000      -0.908583       -24.7238
  28   2.0000      -0.872792       -23.7499
  29   2.0000      -0.851610       -23.1735
  30   2.0000      -0.845860       -23.0170
  31   2.0000      -0.821364       -22.3504
  32   2.0000      -0.779369       -21.2077
  33   2.0000      -0.765767       -20.8376
  34   2.0000      -0.701203       -19.0807
  35   2.0000      -0.697210       -18.9721
  36   2.0000      -0.693372       -18.8676
  37   2.0000      -0.658006       -17.9052
  38   2.0000      -0.649025       -17.6609
  39   2.0000      -0.615339       -16.7442
  40   2.0000      -0.600988       -16.3537
  41   2.0000      -0.578500       -15.7418
  42   2.0000      -0.566446       -15.4138
  43   2.0000      -0.561821       -15.2879
  44   2.0000      -0.536547       -14.6002
  45   2.0000      -0.526216       -14.3191
  46   2.0000      -0.516478       -14.0541
  47   2.0000      -0.514478       -13.9997
  48   2.0000      -0.507303       -13.8044
  49   2.0000      -0.492303       -13.3962
  50   2.0000      -0.491336       -13.3699
  51   2.0000      -0.475357       -12.9351
  52   2.0000      -0.463283       -12.6066
  53   2.0000      -0.462368       -12.5817
  54   2.0000      -0.456099       -12.4111
  55   2.0000      -0.453304       -12.3350
  56   2.0000      -0.441892       -12.0245
  57   2.0000      -0.437558       -11.9066
  58   2.0000      -0.436762       -11.8849
  59   2.0000      -0.423718       -11.5299
  60   2.0000      -0.421533       -11.4705
  61   2.0000      -0.418878       -11.3982
  62   2.0000      -0.416258       -11.3269
  63   2.0000      -0.346414        -9.4264
  64   2.0000      -0.331808        -9.0290
  65   2.0000      -0.325597        -8.8599
  66   2.0000      -0.298621        -8.1259
  67   0.0000       0.035444         0.9645
  68   0.0000       0.065142         1.7726
  69   0.0000       0.114485         3.1153
  70   0.0000       0.124542         3.3889
  71   0.0000       0.125309         3.4098

MULLIKEN ATOMIC CHARGES
-----------------------
   0 S :    0.084819
   1 C :   -0.110439
   2 C :   -0.087971
   3 C :    0.066903
   4 C :   -0.184525
   5 H :   -0.010773
   6 C :    0.056934
   7 H :    0.036094
   8 H :    0.017188
   9 C :   -0.090427
  10 H :    0.028967
  11 H :    0.023669
  12 C :    0.014118
  13 H :    0.032521
  14 H :    0.020235
  15 H :    0.018005
  16 S :    0.102884
  17 C :   -0.084255
  18 C :   -0.004866
  19 C :   -0.005688
  20 C :   -0.151760
  21 H :   -0.001826
  22 C :    0.048547
  23 H :    0.039267
  24 H :    0.039832
  25 C :   -0.085565
  26 H :    0.032301
  27 H :    0.025888
  28 C :   -0.092663
  29 H :    0.045922
  30 H :    0.037018
  31 H :    0.040540
  32 H :    0.047579
  33 H :    0.051528
Sum of atomic charges:    0.0000000

LOEWDIN ATOMIC CHARGES
----------------------
   0 S :    0.370898
   1 C :   -0.183523
   2 C :   -0.061847
   3 C :   -0.060158
   4 C :   -0.186172
   5 H :    0.025595
   6 C :   -0.030560
   7 H :    0.035054
   8 H :    0.030647
   9 C :   -0.039822
  10 H :    0.024533
  11 H :    0.021697
  12 C :   -0.054760
  13 H :    0.020502
  14 H :    0.023698
  15 H :    0.023187
  16 S :    0.383097
  17 C :   -0.166771
  18 C :   -0.068147
  19 C :   -0.050741
  20 C :   -0.187286
  21 H :    0.023774
  22 C :   -0.035862
  23 H :    0.037632
  24 H :    0.038186
  25 C :   -0.047205
  26 H :    0.023603
  27 H :    0.024827
  28 C :   -0.075895
  29 H :    0.026706
  30 H :    0.030642
  31 H :    0.029867
  32 H :    0.028186
  33 H :    0.026418

  Mayer bond orders larger than 0.100000
B(  0-S ,  1-C ) :   1.1313 B(  0-S ,  4-C ) :   1.1200 B(  1-C ,  2-C ) :   1.6374
B(  1-C , 32-H ) :   0.9636 B(  2-C ,  3-C ) :   1.1899 B(  2-C ,  6-C ) :   1.0296
B(  3-C ,  4-C ) :   1.6356 B(  3-C ,  5-H ) :   0.9994 B(  4-C , 20-C ) :   1.0071
B(  6-C ,  7-H ) :   0.9419 B(  6-C ,  8-H ) :   0.9307 B(  6-C ,  9-C ) :   1.0660
B(  9-C , 10-H ) :   0.9601 B(  9-C , 11-H ) :   0.9513 B(  9-C , 12-C ) :   1.0812
B( 12-C , 13-H ) :   0.9725 B( 12-C , 14-H ) :   0.9716 B( 12-C , 15-H ) :   0.9752
B( 16-S , 17-C ) :   1.1477 B( 16-S , 20-C ) :   1.1273 B( 17-C , 18-C ) :   1.6403
B( 17-C , 33-H ) :   0.9639 B( 18-C , 19-C ) :   1.2118 B( 18-C , 21-H ) :   0.9987
B( 19-C , 20-C ) :   1.6215 B( 19-C , 22-C ) :   1.0445 B( 22-C , 23-H ) :   0.9356
B( 22-C , 24-H ) :   0.9373 B( 22-C , 25-C ) :   1.0479 B( 25-C , 26-H ) :   0.9552
B( 25-C , 27-H ) :   0.9517 B( 25-C , 28-C ) :   1.0896 B( 28-C , 29-H ) :   0.9738
B( 28-C , 30-H ) :   0.9737 B( 28-C , 31-H ) :   0.9732

Dispersion correction           -0.013382597
FINAL SINGLE POINT ENERGY     -1339.882390220948

DIPOLE MOMENT
-------------
                                X             Y             Z
Electronic contribution:    -25.66863     -17.07345       4.88335
Nuclear contribution   :     26.22791      17.36250      -5.23624
                        -----------------------------------------
Total Dipole Moment    :      0.55928       0.28905      -0.35289
                        -----------------------------------------
Magnitude (a.u.)       :      0.72172
Magnitude (Debye)      :      1.83446

Rotational constants in cm-1:     0.016617     0.008601     0.006147
Rotational constants in MHz :   498.179882   257.854417   184.291294

                             ****ORCA TERMINATED NORMALLY****
TOTAL RUN TIME: 0 days 0 hours 0 minutes 20 seconds 963 msec
