                         Program Version 4.2.1 -  RELEASE  -
|  1> ! wB97X-D3 SP def2-SVP
|  2> %pal
|  3> nprocs 24
|  4> end
|  5>
|  6> * xyz 0 1
|  7> S 	 -37.562 	 -41.8218 	 -78.0836
|  8> C 	 -38.603 	 -40.4777 	 -77.7399
|  9> C 	 -38.6336 	 -39.5198 	 -78.7462
| 10> C 	 -37.7145 	 -39.8993 	 -79.8097
| 11> C 	 -37.1407 	 -41.1422 	 -79.6305
| 12> H 	 -37.514 	 -39.3027 	 -80.6749
| 13> C 	 -39.3025 	 -38.1815 	 -78.6084
| 14> H 	 -38.4679 	 -37.537 	 -78.3808
| 15> H 	 -39.9447 	 -38.146 	 -77.7245
| 16> C 	 -39.9914 	 -37.6572 	 -79.8808
| 17> H 	 -39.2554 	 -37.441 	 -80.6049
| 18> H 	 -40.5487 	 -38.5258 	 -80.3095
| 19> C 	 -40.8531 	 -36.3676 	 -79.7052
| 20> H 	 -40.2223 	 -35.5205 	 -79.4544
| 21> H 	 -41.2764 	 -36.1388 	 -80.6515
| 22> H 	 -41.6964 	 -36.3988 	 -79.0131
| 23> S 	 -34.5025 	 -41.8231 	 -79.716
| 24> C 	 -33.8698 	 -42.4653 	 -81.1631
| 25> C 	 -34.8053 	 -42.6303 	 -82.1552
| 26> C 	 -36.096 	 -42.1518 	 -81.777
| 27> C 	 -36.1235 	 -41.7576 	 -80.4718
| 28> H 	 -34.447 	 -43.196 	 -83.0256
| 29> C 	 -37.2391 	 -42.3244 	 -82.7987
| 30> H 	 -37.1148 	 -43.1533 	 -83.4473
| 31> H 	 -37.1345 	 -41.4703 	 -83.4932
| 32> C 	 -38.6908 	 -42.1887 	 -82.2768
| 33> H 	 -38.8611 	 -41.2215 	 -81.8232
| 34> H 	 -38.8588 	 -42.8667 	 -81.5043
| 35> C 	 -39.6575 	 -42.4148 	 -83.4109
| 36> H 	 -40.721 	 -42.3213 	 -83.1506
| 37> H 	 -39.5086 	 -43.3688 	 -83.9652
| 38> H 	 -39.3938 	 -41.5969 	 -84.2238
| 39> H 	 -39.1005 	 -40.2409 	 -76.7562
| 40> H 	 -32.884 	 -42.9243 	 -81.2974
| 41> *
| 42>
| 43>                          ****END OF INPUT****

CARTESIAN COORDINATES (ANGSTROEM)
---------------------------------
  S    -37.562000  -41.821800  -78.083600
  C    -38.603000  -40.477700  -77.739900
  C    -38.633600  -39.519800  -78.746200
  C    -37.714500  -39.899300  -79.809700
  C    -37.140700  -41.142200  -79.630500
  H    -37.514000  -39.302700  -80.674900
  C    -39.302500  -38.181500  -78.608400
  H    -38.467900  -37.537000  -78.380800
  H    -39.944700  -38.146000  -77.724500
  C    -39.991400  -37.657200  -79.880800
  H    -39.255400  -37.441000  -80.604900
  H    -40.548700  -38.525800  -80.309500
  C    -40.853100  -36.367600  -79.705200
  H    -40.222300  -35.520500  -79.454400
  H    -41.276400  -36.138800  -80.651500
  H    -41.696400  -36.398800  -79.013100
  S    -34.502500  -41.823100  -79.716000
  C    -33.869800  -42.465300  -81.163100
  C    -34.805300  -42.630300  -82.155200
  C    -36.096000  -42.151800  -81.777000
  C    -36.123500  -41.757600  -80.471800
  H    -34.447000  -43.196000  -83.025600
  C    -37.239100  -42.324400  -82.798700
  H    -37.114800  -43.153300  -83.447300
  H    -37.134500  -41.470300  -83.493200
  C    -38.690800  -42.188700  -82.276800
  H    -38.861100  -41.221500  -81.823200
  H    -38.858800  -42.866700  -81.504300
  C    -39.657500  -42.414800  -83.410900
  H    -40.721000  -42.321300  -83.150600
  H    -39.508600  -43.368800  -83.965200
  H    -39.393800  -41.596900  -84.223800
  H    -39.100500  -40.240900  -76.756200
  H    -32.884000  -42.924300  -81.297400

 Total Charge           Charge          ....    0
 Multiplicity           Mult            ....    1
 Number of Electrons    NEL             ....  134
 Basis Dimension        Dim             ....  322

ORBITAL ENERGIES
----------------

  NO   OCC          E(Eh)            E(eV)
   0   2.0000     -88.966878     -2420.9118
   1   2.0000     -88.962675     -2420.7975
   2   2.0000     -10.326577      -281.0005
   3   2.0000     -10.324845      -280.9533
   4   2.0000     -10.314039      -280.6593
   5   2.0000     -10.311642      -280.5940
   6   2.0000     -10.306558      -280.4557
   7   2.0000     -10.301713      -280.3239
   8   2.0000     -10.294298      -280.1221
   9   2.0000     -10.293239      -280.0933
  10   2.0000     -10.291162      -280.0368
  11   2.0000     -10.290105      -280.0080
  12   2.0000     -10.289965      -280.0042
  13   2.0000     -10.285490      -279.8824
  14   2.0000     -10.279923      -279.7309
  15   2.0000     -10.274043      -279.5709
  16   2.0000      -8.081800      -219.9170
  17   2.0000      -8.077973      -219.8128
  18   2.0000      -6.040244      -164.3634
  19   2.0000      -6.036484      -164.2611
  20   2.0000      -6.036296      -164.2560
  21   2.0000      -6.032604      -164.1555
  22   2.0000      -6.032496      -164.1526
  23   2.0000      -6.028593      -164.0464
  24   2.0000      -1.007636       -27.4192
  25   2.0000      -0.984812       -26.7981
  26   2.0000      -0.911649       -24.8072
  27   2.0000      -0.908552       -24.7229
  28   2.0000      -0.867749       -23.6127
  29   2.0000      -0.852775       -23.2052
  30   2.0000      -0.846833       -23.0435
  31   2.0000      -0.813078       -22.1250
  32   2.0000      -0.782451       -21.2916
  33   2.0000      -0.771041       -20.9811
  34   2.0000      -0.713888       -19.4259
  35   2.0000      -0.703695       -19.1485
  36   2.0000      -0.685288       -18.6476
  37   2.0000      -0.654146       -17.8002
  38   2.0000      -0.637948       -17.3594
  39   2.0000      -0.620445       -16.8832
  40   2.0000      -0.595721       -16.2104
  41   2.0000      -0.569392       -15.4939
  42   2.0000      -0.564886       -15.3713
  43   2.0000      -0.560717       -15.2579
  44   2.0000      -0.523803       -14.2534
  45   2.0000      -0.517890       -14.0925
  46   2.0000      -0.513714       -13.9789
  47   2.0000      -0.511284       -13.9127
  48   2.0000      -0.501630       -13.6501
  49   2.0000      -0.500025       -13.6064
  50   2.0000      -0.492264       -13.3952
  51   2.0000      -0.478066       -13.0088
  52   2.0000      -0.472217       -12.8497
  53   2.0000      -0.468096       -12.7375
  54   2.0000      -0.454614       -12.3707
  55   2.0000      -0.451458       -12.2848
  56   2.0000      -0.446794       -12.1579
  57   2.0000      -0.437066       -11.8932
  58   2.0000      -0.432554       -11.7704
  59   2.0000      -0.427644       -11.6368
  60   2.0000      -0.422590       -11.4993
  61   2.0000      -0.420343       -11.4381
  62   2.0000      -0.414159       -11.2698
  63   2.0000      -0.338411        -9.2086
  64   2.0000      -0.332205        -9.0398
  65   2.0000      -0.324224        -8.8226
  66   2.0000      -0.299057        -8.1377
  67   0.0000       0.037660         1.0248
  68   0.0000       0.069632         1.8948
  69   0.0000       0.118925         3.2361
  70   0.0000       0.121966         3.3189
  71   0.0000       0.129614         3.5270

MULLIKEN ATOMIC CHARGES
-----------------------
   0 S :    0.121752
   1 C :   -0.137469
   2 C :   -0.113347
   3 C :    0.055849
   4 C :   -0.179110
   5 H :    0.009318
   6 C :    0.086088
   7 H :    0.036383
   8 H :    0.016767
   9 C :   -0.105966
  10 H :    0.023299
  11 H :    0.039150
  12 C :   -0.021648
  13 H :    0.029237
  14 H :    0.022631
  15 H :    0.035615
  16 S :    0.110839
  17 C :   -0.084940
  18 C :   -0.074453
  19 C :    0.031727
  20 C :   -0.188226
  21 H :    0.026865
  22 C :    0.042617
  23 H :    0.017165
  24 H :    0.026597
  25 C :   -0.022147
  26 H :    0.029111
  27 H :    0.019452
  28 C :   -0.075994
  29 H :    0.044056
  30 H :    0.033542
  31 H :    0.025579
  32 H :    0.062279
  33 H :    0.057381
Sum of atomic charges:    0.0000000

LOEWDIN ATOMIC CHARGES
----------------------
   0 S :    0.416338
   1 C :   -0.217437
   2 C :   -0.062926
   3 C :   -0.055995
   4 C :   -0.202112
   5 H :    0.026382
   6 C :   -0.033732
   7 H :    0.035354
   8 H :    0.028697
   9 C :   -0.039738
  10 H :    0.018277
  11 H :    0.028598
  12 C :   -0.060997
  13 H :    0.026604
  14 H :    0.024001
  15 H :    0.025388
  16 S :    0.404168
  17 C :   -0.198095
  18 C :   -0.080744
  19 C :   -0.048588
  20 C :   -0.193099
  21 H :    0.036979
  22 C :   -0.023063
  23 H :    0.025279
  24 H :    0.037564
  25 C :   -0.041219
  26 H :    0.025892
  27 H :    0.015314
  28 C :   -0.071886
  29 H :    0.026762
  30 H :    0.024598
  31 H :    0.030905
  32 H :    0.039351
  33 H :    0.033181

  Mayer bond orders larger than 0.100000
B(  0-S ,  1-C ) :   1.1365 B(  0-S ,  4-C ) :   1.1537 B(  1-C ,  2-C ) :   1.6281
B(  1-C , 32-H ) :   0.9551 B(  2-C ,  3-C ) :   1.2254 B(  2-C ,  6-C ) :   1.0337
B(  3-C ,  4-C ) :   1.5891 B(  3-C ,  5-H ) :   0.9907 B(  4-C , 20-C ) :   1.0118
B(  6-C ,  7-H ) :   0.9310 B(  6-C ,  8-H ) :   0.9428 B(  6-C ,  9-C ) :   1.0507
B(  9-C , 10-H ) :   0.9490 B(  9-C , 11-H ) :   0.9660 B(  9-C , 12-C ) :   1.0856
B( 12-C , 13-H ) :   0.9730 B( 12-C , 14-H ) :   0.9730 B( 12-C , 15-H ) :   0.9780
B( 16-S , 17-C ) :   1.1561 B( 16-S , 20-C ) :   1.1271 B( 17-C , 18-C ) :   1.6574
B( 17-C , 33-H ) :   0.9565 B( 18-C , 19-C ) :   1.1966 B( 18-C , 21-H ) :   0.9877
B( 19-C , 20-C ) :   1.6527 B( 19-C , 22-C ) :   1.0176 B( 22-C , 23-H ) :   0.9511
B( 22-C , 24-H ) :   0.9235 B( 22-C , 25-C ) :   1.0635 B( 25-C , 26-H ) :   0.9421
B( 25-C , 27-H ) :   0.9518 B( 25-C , 28-C ) :   1.0858 B( 28-C , 29-H ) :   0.9722
B( 28-C , 30-H ) :   0.9727 B( 28-C , 31-H ) :   0.9718

Dispersion correction           -0.014349322
FINAL SINGLE POINT ENERGY     -1339.882471961989

DIPOLE MOMENT
-------------
                                X             Y             Z
Electronic contribution:     22.29086     -13.82374      14.79956
Nuclear contribution   :    -22.51229      14.17435     -15.18028
                        -----------------------------------------
Total Dipole Moment    :     -0.22143       0.35061      -0.38071
                        -----------------------------------------
Magnitude (a.u.)       :      0.56294
Magnitude (Debye)      :      1.43089

Rotational constants in cm-1:     0.017873     0.008749     0.007008
Rotational constants in MHz :   535.811400   262.294953   210.080521

                             ****ORCA TERMINATED NORMALLY****
TOTAL RUN TIME: 0 days 0 hours 0 minutes 21 seconds 779 msec
