                         Program Version 4.2.1 -  RELEASE  -
|  1> ! wB97X-D3 SP def2-SVP
|  2> %pal
|  3> nprocs 24
|  4> end
|  5>
|  6> * xyz 0 1
|  7> S 	 -125.938 	 67.1067 	 -50.8904
|  8> C 	 -124.888 	 67.0705 	 -52.3239
|  9> C 	 -123.587 	 67.3541 	 -51.9377
| 10> C 	 -123.489 	 67.6871 	 -50.5615
| 11> C 	 -124.642 	 67.5763 	 -49.8369
| 12> H 	 -122.609 	 67.9758 	 -50.052
| 13> C 	 -122.396 	 67.1791 	 -52.9104
| 14> H 	 -122.212 	 66.1155 	 -52.936
| 15> H 	 -121.469 	 67.6557 	 -52.5569
| 16> C 	 -122.638 	 67.6516 	 -54.3363
| 17> H 	 -121.768 	 67.6209 	 -54.9317
| 18> H 	 -123.358 	 66.9913 	 -54.7697
| 19> C 	 -123.233 	 69.0664 	 -54.383
| 20> H 	 -123.057 	 69.4894 	 -55.4162
| 21> H 	 -124.307 	 69.0103 	 -54.3941
| 22> H 	 -122.866 	 69.6213 	 -53.5406
| 23> S 	 -125.388 	 69.3148 	 -47.8242
| 24> C 	 -125.84 	 68.6717 	 -46.2729
| 25> C 	 -125.664 	 67.2948 	 -46.2285
| 26> C 	 -125.052 	 66.7967 	 -47.4267
| 27> C 	 -124.825 	 67.7675 	 -48.4204
| 28> H 	 -126.038 	 66.8411 	 -45.3651
| 29> C 	 -124.605 	 65.3752 	 -47.5614
| 30> H 	 -124.309 	 65.0774 	 -48.5724
| 31> H 	 -125.436 	 64.766 	 -47.2628
| 32> C 	 -123.447 	 65.0375 	 -46.5595
| 33> H 	 -123.903 	 64.9472 	 -45.603
| 34> H 	 -122.83 	 65.8655 	 -46.5256
| 35> C 	 -122.675 	 63.7085 	 -46.8282
| 36> H 	 -122.079 	 63.5741 	 -45.9536
| 37> H 	 -122.171 	 63.7806 	 -47.7822
| 38> H 	 -123.204 	 62.8402 	 -46.9514
| 39> H 	 -125.232 	 66.6831 	 -53.247
| 40> H 	 -126.263 	 69.3105 	 -45.4858
| 41> *
| 42>
| 43>                          ****END OF INPUT****

CARTESIAN COORDINATES (ANGSTROEM)
---------------------------------
  S    -125.938000   67.106700  -50.890400
  C    -124.888000   67.070500  -52.323900
  C    -123.587000   67.354100  -51.937700
  C    -123.489000   67.687100  -50.561500
  C    -124.642000   67.576300  -49.836900
  H    -122.609000   67.975800  -50.052000
  C    -122.396000   67.179100  -52.910400
  H    -122.212000   66.115500  -52.936000
  H    -121.469000   67.655700  -52.556900
  C    -122.638000   67.651600  -54.336300
  H    -121.768000   67.620900  -54.931700
  H    -123.358000   66.991300  -54.769700
  C    -123.233000   69.066400  -54.383000
  H    -123.057000   69.489400  -55.416200
  H    -124.307000   69.010300  -54.394100
  H    -122.866000   69.621300  -53.540600
  S    -125.388000   69.314800  -47.824200
  C    -125.840000   68.671700  -46.272900
  C    -125.664000   67.294800  -46.228500
  C    -125.052000   66.796700  -47.426700
  C    -124.825000   67.767500  -48.420400
  H    -126.038000   66.841100  -45.365100
  C    -124.605000   65.375200  -47.561400
  H    -124.309000   65.077400  -48.572400
  H    -125.436000   64.766000  -47.262800
  C    -123.447000   65.037500  -46.559500
  H    -123.903000   64.947200  -45.603000
  H    -122.830000   65.865500  -46.525600
  C    -122.675000   63.708500  -46.828200
  H    -122.079000   63.574100  -45.953600
  H    -122.171000   63.780600  -47.782200
  H    -123.204000   62.840200  -46.951400
  H    -125.232000   66.683100  -53.247000
  H    -126.263000   69.310500  -45.485800

 Total Charge           Charge          ....    0
 Multiplicity           Mult            ....    1
 Number of Electrons    NEL             ....  134
 Basis Dimension        Dim             ....  322

ORBITAL ENERGIES
----------------

  NO   OCC          E(Eh)            E(eV)
   0   2.0000     -88.962430     -2420.7908
   1   2.0000     -88.962120     -2420.7824
   2   2.0000     -10.324007      -280.9305
   3   2.0000     -10.322404      -280.8869
   4   2.0000     -10.320910      -280.8462
   5   2.0000     -10.313849      -280.6541
   6   2.0000     -10.307615      -280.4845
   7   2.0000     -10.303935      -280.3843
   8   2.0000     -10.293372      -280.0969
   9   2.0000     -10.292335      -280.0687
  10   2.0000     -10.288285      -279.9585
  11   2.0000     -10.284059      -279.8435
  12   2.0000     -10.277218      -279.6573
  13   2.0000     -10.277064      -279.6531
  14   2.0000     -10.272153      -279.5195
  15   2.0000     -10.268524      -279.4207
  16   2.0000      -8.077203      -219.7919
  17   2.0000      -8.077042      -219.7875
  18   2.0000      -6.035547      -164.2356
  19   2.0000      -6.035523      -164.2349
  20   2.0000      -6.031494      -164.1253
  21   2.0000      -6.031468      -164.1246
  22   2.0000      -6.028280      -164.0378
  23   2.0000      -6.027920      -164.0280
  24   2.0000      -1.006597       -27.3909
  25   2.0000      -0.983543       -26.7636
  26   2.0000      -0.913921       -24.8690
  27   2.0000      -0.905699       -24.6453
  28   2.0000      -0.869585       -23.6626
  29   2.0000      -0.848767       -23.0961
  30   2.0000      -0.843595       -22.9554
  31   2.0000      -0.815612       -22.1939
  32   2.0000      -0.784791       -21.3553
  33   2.0000      -0.772367       -21.0172
  34   2.0000      -0.709295       -19.3009
  35   2.0000      -0.700814       -19.0701
  36   2.0000      -0.697739       -18.9864
  37   2.0000      -0.659415       -17.9436
  38   2.0000      -0.646439       -17.5905
  39   2.0000      -0.613611       -16.6972
  40   2.0000      -0.593263       -16.1435
  41   2.0000      -0.581278       -15.8174
  42   2.0000      -0.568051       -15.4574
  43   2.0000      -0.559157       -15.2154
  44   2.0000      -0.543130       -14.7793
  45   2.0000      -0.531655       -14.4671
  46   2.0000      -0.517175       -14.0730
  47   2.0000      -0.514955       -14.0126
  48   2.0000      -0.505772       -13.7628
  49   2.0000      -0.495400       -13.4805
  50   2.0000      -0.490445       -13.3457
  51   2.0000      -0.484684       -13.1889
  52   2.0000      -0.473316       -12.8796
  53   2.0000      -0.462105       -12.5745
  54   2.0000      -0.459596       -12.5062
  55   2.0000      -0.447313       -12.1720
  56   2.0000      -0.438696       -11.9375
  57   2.0000      -0.433175       -11.7873
  58   2.0000      -0.431350       -11.7376
  59   2.0000      -0.420607       -11.4453
  60   2.0000      -0.419150       -11.4056
  61   2.0000      -0.415771       -11.3137
  62   2.0000      -0.413487       -11.2515
  63   2.0000      -0.333848        -9.0845
  64   2.0000      -0.329212        -8.9583
  65   2.0000      -0.316243        -8.6054
  66   2.0000      -0.312826        -8.5124
  67   0.0000       0.043321         1.1788
  68   0.0000       0.049585         1.3493
  69   0.0000       0.116148         3.1605
  70   0.0000       0.127114         3.4590
  71   0.0000       0.130611         3.5541

MULLIKEN ATOMIC CHARGES
-----------------------
   0 S :    0.115188
   1 C :   -0.132344
   2 C :   -0.079184
   3 C :    0.041601
   4 C :   -0.153826
   5 H :   -0.008409
   6 C :    0.073354
   7 H :    0.040477
   8 H :    0.025810
   9 C :   -0.071963
  10 H :    0.025445
  11 H :    0.012793
  12 C :   -0.042315
  13 H :    0.033172
  14 H :    0.023379
  15 H :    0.042209
  16 S :    0.106274
  17 C :   -0.118473
  18 C :   -0.007758
  19 C :   -0.050170
  20 C :   -0.160245
  21 H :    0.003398
  22 C :    0.094951
  23 H :    0.026358
  24 H :    0.016782
  25 C :   -0.071768
  26 H :    0.015452
  27 H :    0.020161
  28 C :   -0.001224
  29 H :    0.032881
  30 H :    0.028644
  31 H :    0.004768
  32 H :    0.043230
  33 H :    0.071351
Sum of atomic charges:   -0.0000000

LOEWDIN ATOMIC CHARGES
----------------------
   0 S :    0.406366
   1 C :   -0.182289
   2 C :   -0.059755
   3 C :   -0.059097
   4 C :   -0.202453
   5 H :    0.026148
   6 C :   -0.028901
   7 H :    0.034444
   8 H :    0.028381
   9 C :   -0.040560
  10 H :    0.019809
  11 H :    0.016512
  12 C :   -0.064304
  13 H :    0.031983
  14 H :    0.022372
  15 H :    0.024771
  16 S :    0.413580
  17 C :   -0.181526
  18 C :   -0.071234
  19 C :   -0.041302
  20 C :   -0.219805
  21 H :    0.025537
  22 C :   -0.029983
  23 H :    0.027345
  24 H :    0.028338
  25 C :   -0.022805
  26 H :    0.017327
  27 H :    0.013885
  28 C :   -0.055347
  29 H :    0.028519
  30 H :    0.026948
  31 H :    0.013204
  32 H :    0.019428
  33 H :    0.034463

  Mayer bond orders larger than 0.100000
B(  0-S ,  1-C ) :   1.1461 B(  0-S ,  4-C ) :   1.1493 B(  1-C ,  2-C ) :   1.5884
B(  1-C , 32-H ) :   0.9770 B(  2-C ,  3-C ) :   1.2504 B(  2-C ,  6-C ) :   1.0008
B(  3-C ,  4-C ) :   1.5791 B(  3-C ,  5-H ) :   1.0053 B(  4-C , 20-C ) :   1.0316
B(  6-C ,  7-H ) :   0.9382 B(  6-C ,  8-H ) :   0.9473 B(  6-C ,  9-C ) :   1.0889
B(  9-C , 10-H ) :   0.9600 B(  9-C , 11-H ) :   0.9494 B(  9-C , 12-C ) :   1.0833
B( 12-C , 13-H ) :   0.9739 B( 12-C , 14-H ) :   0.9705 B( 12-C , 15-H ) :   0.9788
B( 16-S , 17-C ) :   1.1880 B( 16-S , 20-C ) :   1.1413 B( 17-C , 18-C ) :   1.5781
B( 17-C , 33-H ) :   0.9644 B( 18-C , 19-C ) :   1.2329 B( 18-C , 21-H ) :   1.0087
B( 19-C , 20-C ) :   1.5664 B( 19-C , 22-C ) :   1.0644 B( 22-C , 23-H ) :   0.9420
B( 22-C , 24-H ) :   0.9235 B( 22-C , 25-C ) :   1.0503 B( 25-C , 26-H ) :   0.9555
B( 25-C , 27-H ) :   0.9622 B( 25-C , 28-C ) :   1.0843 B( 28-C , 29-H ) :   0.9747
B( 28-C , 30-H ) :   0.9749 B( 28-C , 31-H ) :   0.9736

Dispersion correction           -0.014314531
FINAL SINGLE POINT ENERGY     -1339.869898454931

DIPOLE MOMENT
-------------
                                X             Y             Z
Electronic contribution:    -15.52825      11.82617       7.60613
Nuclear contribution   :     15.79158     -12.29780      -7.54032
                        -----------------------------------------
Total Dipole Moment    :      0.26333      -0.47163       0.06581
                        -----------------------------------------
Magnitude (a.u.)       :      0.54416
Magnitude (Debye)      :      1.38315

Rotational constants in cm-1:     0.020681     0.007896     0.006483
Rotational constants in MHz :   619.995548   236.715608   194.367762

                             ****ORCA TERMINATED NORMALLY****
TOTAL RUN TIME: 0 days 0 hours 0 minutes 20 seconds 233 msec
