                         Program Version 4.2.1 -  RELEASE  -
|  1> ! wB97X-D3 SP def2-SVP
|  2> %pal
|  3> nprocs 24
|  4> end
|  5>
|  6> * xyz 0 1
|  7> S 	 20.466 	 -7.3885 	 -112.349
|  8> C 	 20.6666 	 -7.60438 	 -110.591
|  9> C 	 20.0204 	 -8.72638 	 -110.159
| 10> C 	 19.2288 	 -9.36248 	 -111.222
| 11> C 	 19.2753 	 -8.67783 	 -112.427
| 12> H 	 18.6894 	 -10.3194 	 -111.052
| 13> C 	 20.0751 	 -9.2142 	 -108.741
| 14> H 	 19.1784 	 -9.81134 	 -108.572
| 15> H 	 20.1818 	 -8.3757 	 -108.09
| 16> C 	 21.3461 	 -10.0312 	 -108.424
| 17> H 	 22.212 	 -9.34006 	 -108.761
| 18> H 	 21.4994 	 -10.1646 	 -107.392
| 19> C 	 21.6015 	 -11.3754 	 -109.127
| 20> H 	 22.432 	 -11.9428 	 -108.745
| 21> H 	 20.7654 	 -12.0073 	 -108.916
| 22> H 	 21.6018 	 -11.3074 	 -110.244
| 23> S 	 19.2641 	 -9.11833 	 -115.121
| 24> C 	 17.806 	 -9.60736 	 -115.906
| 25> C 	 16.7339 	 -9.31355 	 -115.134
| 26> C 	 17.0722 	 -8.9247 	 -113.794
| 27> C 	 18.4782 	 -8.89248 	 -113.604
| 28> H 	 15.7534 	 -9.34324 	 -115.501
| 29> C 	 16.0196 	 -8.79036 	 -112.762
| 30> H 	 16.2349 	 -8.03151 	 -111.988
| 31> H 	 15.9842 	 -9.70943 	 -112.151
| 32> C 	 14.5933 	 -8.48733 	 -113.19
| 33> H 	 14.2244 	 -9.30698 	 -113.86
| 34> H 	 14.6842 	 -7.60246 	 -113.774
| 35> C 	 13.5526 	 -8.2018 	 -112.142
| 36> H 	 12.6048 	 -7.69257 	 -112.409
| 37> H 	 14.0311 	 -7.50979 	 -111.41
| 38> H 	 13.3221 	 -9.05963 	 -111.543
| 39> H 	 21.4317 	 -7.12189 	 -110.048
| 40> H 	 17.7434 	 -9.8306 	 -116.952
| 41> *
| 42>
| 43>                          ****END OF INPUT****

CARTESIAN COORDINATES (ANGSTROEM)
---------------------------------
  S     20.466000   -7.388500  -112.349000
  C     20.666600   -7.604380  -110.591000
  C     20.020400   -8.726380  -110.159000
  C     19.228800   -9.362480  -111.222000
  C     19.275300   -8.677830  -112.427000
  H     18.689400  -10.319400  -111.052000
  C     20.075100   -9.214200  -108.741000
  H     19.178400   -9.811340  -108.572000
  H     20.181800   -8.375700  -108.090000
  C     21.346100  -10.031200  -108.424000
  H     22.212000   -9.340060  -108.761000
  H     21.499400  -10.164600  -107.392000
  C     21.601500  -11.375400  -109.127000
  H     22.432000  -11.942800  -108.745000
  H     20.765400  -12.007300  -108.916000
  H     21.601800  -11.307400  -110.244000
  S     19.264100   -9.118330  -115.121000
  C     17.806000   -9.607360  -115.906000
  C     16.733900   -9.313550  -115.134000
  C     17.072200   -8.924700  -113.794000
  C     18.478200   -8.892480  -113.604000
  H     15.753400   -9.343240  -115.501000
  C     16.019600   -8.790360  -112.762000
  H     16.234900   -8.031510  -111.988000
  H     15.984200   -9.709430  -112.151000
  C     14.593300   -8.487330  -113.190000
  H     14.224400   -9.306980  -113.860000
  H     14.684200   -7.602460  -113.774000
  C     13.552600   -8.201800  -112.142000
  H     12.604800   -7.692570  -112.409000
  H     14.031100   -7.509790  -111.410000
  H     13.322100   -9.059630  -111.543000
  H     21.431700   -7.121890  -110.048000
  H     17.743400   -9.830600  -116.952000

 Total Charge           Charge          ....    0
 Multiplicity           Mult            ....    1
 Number of Electrons    NEL             ....  134
 Basis Dimension        Dim             ....  322

ORBITAL ENERGIES
----------------

  NO   OCC          E(Eh)            E(eV)
   0   2.0000     -88.964001     -2420.8335
   1   2.0000     -88.962647     -2420.7967
   2   2.0000     -10.331883      -281.1448
   3   2.0000     -10.326049      -280.9861
   4   2.0000     -10.312525      -280.6181
   5   2.0000     -10.310998      -280.5765
   6   2.0000     -10.307302      -280.4759
   7   2.0000     -10.302308      -280.3400
   8   2.0000     -10.301713      -280.3239
   9   2.0000     -10.292844      -280.0825
  10   2.0000     -10.290707      -280.0244
  11   2.0000     -10.289838      -280.0007
  12   2.0000     -10.287917      -279.9484
  13   2.0000     -10.285300      -279.8772
  14   2.0000     -10.280930      -279.7583
  15   2.0000     -10.275150      -279.6010
  16   2.0000      -8.079865      -219.8643
  17   2.0000      -8.077150      -219.7904
  18   2.0000      -6.038321      -164.3111
  19   2.0000      -6.035801      -164.2425
  20   2.0000      -6.034179      -164.1984
  21   2.0000      -6.031770      -164.1328
  22   2.0000      -6.030652      -164.1024
  23   2.0000      -6.027694      -164.0219
  24   2.0000      -1.009590       -27.4723
  25   2.0000      -0.984049       -26.7773
  26   2.0000      -0.917062       -24.9545
  27   2.0000      -0.913206       -24.8496
  28   2.0000      -0.872182       -23.7333
  29   2.0000      -0.854423       -23.2500
  30   2.0000      -0.840917       -22.8825
  31   2.0000      -0.818825       -22.2814
  32   2.0000      -0.786744       -21.4084
  33   2.0000      -0.774433       -21.0734
  34   2.0000      -0.708789       -19.2871
  35   2.0000      -0.703855       -19.1529
  36   2.0000      -0.698754       -19.0141
  37   2.0000      -0.654146       -17.8002
  38   2.0000      -0.637747       -17.3540
  39   2.0000      -0.619188       -16.8490
  40   2.0000      -0.605497       -16.4764
  41   2.0000      -0.573664       -15.6102
  42   2.0000      -0.572446       -15.5770
  43   2.0000      -0.551142       -14.9973
  44   2.0000      -0.545856       -14.8535
  45   2.0000      -0.524123       -14.2621
  46   2.0000      -0.520334       -14.1590
  47   2.0000      -0.510593       -13.8939
  48   2.0000      -0.508895       -13.8477
  49   2.0000      -0.502511       -13.6740
  50   2.0000      -0.486610       -13.2413
  51   2.0000      -0.478812       -13.0291
  52   2.0000      -0.474337       -12.9074
  53   2.0000      -0.469083       -12.7644
  54   2.0000      -0.461632       -12.5616
  55   2.0000      -0.460681       -12.5358
  56   2.0000      -0.446400       -12.1472
  57   2.0000      -0.436876       -11.8880
  58   2.0000      -0.427884       -11.6433
  59   2.0000      -0.421837       -11.4788
  60   2.0000      -0.420868       -11.4524
  61   2.0000      -0.412318       -11.2198
  62   2.0000      -0.408679       -11.1207
  63   2.0000      -0.346944        -9.4408
  64   2.0000      -0.327107        -8.9010
  65   2.0000      -0.325757        -8.8643
  66   2.0000      -0.295115        -8.0305
  67   0.0000       0.028210         0.7676
  68   0.0000       0.064417         1.7529
  69   0.0000       0.106476         2.8974
  70   0.0000       0.121133         3.2962
  71   0.0000       0.132856         3.6152

MULLIKEN ATOMIC CHARGES
-----------------------
   0 S :    0.095012
   1 C :   -0.104141
   2 C :   -0.119688
   3 C :    0.023169
   4 C :   -0.144516
   5 H :    0.028289
   6 C :    0.112751
   7 H :    0.024539
   8 H :    0.025355
   9 C :   -0.100811
  10 H :    0.024596
  11 H :    0.023124
  12 C :   -0.044885
  13 H :    0.036005
  14 H :    0.008580
  15 H :    0.048516
  16 S :    0.111541
  17 C :   -0.067915
  18 C :   -0.030076
  19 C :   -0.003807
  20 C :   -0.164018
  21 H :    0.003017
  22 C :    0.047947
  23 H :    0.026877
  24 H :    0.034325
  25 C :   -0.105120
  26 H :    0.037354
  27 H :    0.025672
  28 C :   -0.031378
  29 H :    0.047932
  30 H :    0.017339
  31 H :    0.023110
  32 H :    0.038787
  33 H :    0.052521
Sum of atomic charges:    0.0000000

LOEWDIN ATOMIC CHARGES
----------------------
   0 S :    0.381718
   1 C :   -0.180547
   2 C :   -0.059748
   3 C :   -0.065383
   4 C :   -0.189469
   5 H :    0.037247
   6 C :   -0.025798
   7 H :    0.029007
   8 H :    0.034788
   9 C :   -0.040516
  10 H :    0.028081
  11 H :    0.015560
  12 C :   -0.071782
  13 H :    0.027345
  14 H :    0.017426
  15 H :    0.032972
  16 S :    0.428640
  17 C :   -0.185279
  18 C :   -0.066194
  19 C :   -0.046850
  20 C :   -0.213403
  21 H :    0.023227
  22 C :   -0.041565
  23 H :    0.034761
  24 H :    0.035154
  25 C :   -0.048336
  26 H :    0.024191
  27 H :    0.022036
  28 C :   -0.067870
  29 H :    0.034800
  30 H :    0.027994
  31 H :    0.020342
  32 H :    0.019512
  33 H :    0.027937

  Mayer bond orders larger than 0.100000
B(  0-S ,  1-C ) :   1.1169 B(  0-S ,  4-C ) :   1.1428 B(  1-C ,  2-C ) :   1.6479
B(  1-C , 32-H ) :   0.9678 B(  2-C ,  3-C ) :   1.2098 B(  2-C ,  6-C ) :   1.0299
B(  3-C ,  4-C ) :   1.5865 B(  3-C ,  5-H ) :   0.9902 B(  4-C , 20-C ) :   1.0522
B(  6-C ,  7-H ) :   0.9405 B(  6-C ,  8-H ) :   0.9337 B(  6-C ,  9-C ) :   1.0681
B(  9-C , 10-H ) :   0.9552 B(  9-C , 11-H ) :   0.9588 B(  9-C , 12-C ) :   1.0762
B( 12-C , 13-H ) :   0.9735 B( 12-C , 14-H ) :   0.9717 B( 12-C , 15-H ) :   0.9738
B( 16-S , 17-C ) :   1.1668 B( 16-S , 20-C ) :   1.1565 B( 17-C , 18-C ) :   1.5850
B( 17-C , 20-C ) :   0.1004 B( 17-C , 33-H ) :   0.9664 B( 18-C , 19-C ) :   1.2617
B( 18-C , 21-H ) :   0.9969 B( 19-C , 20-C ) :   1.5452 B( 19-C , 22-C ) :   1.0599
B( 22-C , 23-H ) :   0.9229 B( 22-C , 24-H ) :   0.9227 B( 22-C , 25-C ) :   1.0750
B( 25-C , 26-H ) :   0.9402 B( 25-C , 27-H ) :   0.9572 B( 25-C , 28-C ) :   1.0888
B( 28-C , 29-H ) :   0.9737 B( 28-C , 30-H ) :   0.9675 B( 28-C , 31-H ) :   0.9725

Dispersion correction           -0.013823976
FINAL SINGLE POINT ENERGY     -1339.876218000695

DIPOLE MOMENT
-------------
                                X             Y             Z
Electronic contribution:     12.56001       7.66098     -19.20608
Nuclear contribution   :    -12.99353      -7.92166      19.65104
                        -----------------------------------------
Total Dipole Moment    :     -0.43352      -0.26068       0.44496
                        -----------------------------------------
Magnitude (a.u.)       :      0.67371
Magnitude (Debye)      :      1.71243

Rotational constants in cm-1:     0.018298     0.007961     0.006550
Rotational constants in MHz :   548.573887   238.663991   196.359436

                             ****ORCA TERMINATED NORMALLY****
TOTAL RUN TIME: 0 days 0 hours 0 minutes 21 seconds 193 msec
