                         Program Version 4.2.1 -  RELEASE  -
|  1> ! wB97X-D3 SP def2-SVP
|  2> %pal
|  3> nprocs 24
|  4> end
|  5>
|  6> * xyz 0 1
|  7> S 	 34.6327 	 -24.828 	 -113.628
|  8> C 	 36.0756 	 -24.2014 	 -114.365
|  9> C 	 36.5076 	 -23.0729 	 -113.721
| 10> C 	 35.5824 	 -22.6994 	 -112.729
| 11> C 	 34.7413 	 -23.6875 	 -112.317
| 12> H 	 35.6131 	 -21.774 	 -112.24
| 13> C 	 37.8717 	 -22.3509 	 -113.888
| 14> H 	 37.6691 	 -21.318 	 -113.695
| 15> H 	 38.243 	 -22.3813 	 -114.885
| 16> C 	 39.0955 	 -22.9316 	 -113.026
| 17> H 	 39.8473 	 -22.1365 	 -113.092
| 18> H 	 38.8531 	 -22.9736 	 -111.995
| 19> C 	 39.6507 	 -24.248 	 -113.609
| 20> H 	 38.8819 	 -25.0164 	 -113.502
| 21> H 	 39.739 	 -24.16 	 -114.704
| 22> H 	 40.6907 	 -24.5342 	 -113.256
| 23> S 	 32.4375 	 -22.5001 	 -111.196
| 24> C 	 31.8004 	 -23.0736 	 -109.696
| 25> C 	 32.359 	 -24.301 	 -109.418
| 26> C 	 33.4686 	 -24.6628 	 -110.243
| 27> C 	 33.7425 	 -23.7135 	 -111.214
| 28> H 	 31.9256 	 -24.8551 	 -108.555
| 29> C 	 34.3235 	 -25.9286 	 -110.049
| 30> H 	 34.9263 	 -26.14 	 -110.91
| 31> H 	 33.5243 	 -26.6666 	 -110.072
| 32> C 	 35.2224 	 -25.9945 	 -108.761
| 33> H 	 35.702 	 -24.9527 	 -108.756
| 34> H 	 35.9738 	 -26.7508 	 -108.834
| 35> C 	 34.4796 	 -26.2451 	 -107.494
| 36> H 	 33.824 	 -27.1437 	 -107.647
| 37> H 	 33.8229 	 -25.4555 	 -107.195
| 38> H 	 35.2639 	 -26.4549 	 -106.713
| 39> H 	 36.7178 	 -24.7135 	 -115.133
| 40> H 	 30.8151 	 -22.7786 	 -109.289
| 41> *
| 42>
| 43>                          ****END OF INPUT****

CARTESIAN COORDINATES (ANGSTROEM)
---------------------------------
  S     34.632700  -24.828000  -113.628000
  C     36.075600  -24.201400  -114.365000
  C     36.507600  -23.072900  -113.721000
  C     35.582400  -22.699400  -112.729000
  C     34.741300  -23.687500  -112.317000
  H     35.613100  -21.774000  -112.240000
  C     37.871700  -22.350900  -113.888000
  H     37.669100  -21.318000  -113.695000
  H     38.243000  -22.381300  -114.885000
  C     39.095500  -22.931600  -113.026000
  H     39.847300  -22.136500  -113.092000
  H     38.853100  -22.973600  -111.995000
  C     39.650700  -24.248000  -113.609000
  H     38.881900  -25.016400  -113.502000
  H     39.739000  -24.160000  -114.704000
  H     40.690700  -24.534200  -113.256000
  S     32.437500  -22.500100  -111.196000
  C     31.800400  -23.073600  -109.696000
  C     32.359000  -24.301000  -109.418000
  C     33.468600  -24.662800  -110.243000
  C     33.742500  -23.713500  -111.214000
  H     31.925600  -24.855100  -108.555000
  C     34.323500  -25.928600  -110.049000
  H     34.926300  -26.140000  -110.910000
  H     33.524300  -26.666600  -110.072000
  C     35.222400  -25.994500  -108.761000
  H     35.702000  -24.952700  -108.756000
  H     35.973800  -26.750800  -108.834000
  C     34.479600  -26.245100  -107.494000
  H     33.824000  -27.143700  -107.647000
  H     33.822900  -25.455500  -107.195000
  H     35.263900  -26.454900  -106.713000
  H     36.717800  -24.713500  -115.133000
  H     30.815100  -22.778600  -109.289000

 Total Charge           Charge          ....    0
 Multiplicity           Mult            ....    1
 Number of Electrons    NEL             ....  134
 Basis Dimension        Dim             ....  322

ORBITAL ENERGIES
----------------

  NO   OCC          E(Eh)            E(eV)
   0   2.0000     -88.963896     -2420.8307
   1   2.0000     -88.962566     -2420.7945
   2   2.0000     -10.330901      -281.1181
   3   2.0000     -10.329694      -281.0853
   4   2.0000     -10.319060      -280.7959
   5   2.0000     -10.314350      -280.6677
   6   2.0000     -10.307853      -280.4909
   7   2.0000     -10.298906      -280.2475
   8   2.0000     -10.298093      -280.2254
   9   2.0000     -10.296321      -280.1771
  10   2.0000     -10.291596      -280.0486
  11   2.0000     -10.289292      -279.9859
  12   2.0000     -10.287853      -279.9467
  13   2.0000     -10.287749      -279.9439
  14   2.0000     -10.286989      -279.9232
  15   2.0000     -10.278143      -279.6825
  16   2.0000      -8.078930      -219.8389
  17   2.0000      -8.077341      -219.7956
  18   2.0000      -6.037530      -164.2896
  19   2.0000      -6.035808      -164.2427
  20   2.0000      -6.033408      -164.1774
  21   2.0000      -6.031809      -164.1339
  22   2.0000      -6.029529      -164.0718
  23   2.0000      -6.028162      -164.0346
  24   2.0000      -1.010851       -27.5067
  25   2.0000      -0.989803       -26.9339
  26   2.0000      -0.906253       -24.6604
  27   2.0000      -0.903535       -24.5864
  28   2.0000      -0.867350       -23.6018
  29   2.0000      -0.849523       -23.1167
  30   2.0000      -0.846781       -23.0421
  31   2.0000      -0.814195       -22.1554
  32   2.0000      -0.783435       -21.3183
  33   2.0000      -0.773844       -21.0574
  34   2.0000      -0.707777       -19.2596
  35   2.0000      -0.698631       -19.0107
  36   2.0000      -0.688115       -18.7246
  37   2.0000      -0.658784       -17.9264
  38   2.0000      -0.638431       -17.3726
  39   2.0000      -0.621765       -16.9191
  40   2.0000      -0.590269       -16.0620
  41   2.0000      -0.571674       -15.5560
  42   2.0000      -0.556689       -15.1483
  43   2.0000      -0.545834       -14.8529
  44   2.0000      -0.541478       -14.7344
  45   2.0000      -0.540471       -14.7070
  46   2.0000      -0.516585       -14.0570
  47   2.0000      -0.508469       -13.8361
  48   2.0000      -0.505140       -13.7456
  49   2.0000      -0.494480       -13.4555
  50   2.0000      -0.488332       -13.2882
  51   2.0000      -0.478827       -13.0295
  52   2.0000      -0.475152       -12.9295
  53   2.0000      -0.464734       -12.6461
  54   2.0000      -0.459454       -12.5024
  55   2.0000      -0.445140       -12.1129
  56   2.0000      -0.439935       -11.9712
  57   2.0000      -0.437536       -11.9060
  58   2.0000      -0.433105       -11.7854
  59   2.0000      -0.430537       -11.7155
  60   2.0000      -0.419138       -11.4053
  61   2.0000      -0.414461       -11.2781
  62   2.0000      -0.408465       -11.1149
  63   2.0000      -0.337435        -9.1821
  64   2.0000      -0.330455        -8.9921
  65   2.0000      -0.326313        -8.8794
  66   2.0000      -0.304060        -8.2739
  67   0.0000       0.029171         0.7938
  68   0.0000       0.062818         1.7094
  69   0.0000       0.105165         2.8617
  70   0.0000       0.122358         3.3295
  71   0.0000       0.132050         3.5933

MULLIKEN ATOMIC CHARGES
-----------------------
   0 S :    0.110076
   1 C :   -0.131464
   2 C :   -0.099775
   3 C :    0.037462
   4 C :   -0.146607
   5 H :   -0.007995
   6 C :    0.066140
   7 H :    0.021332
   8 H :    0.013886
   9 C :   -0.045084
  10 H :    0.028320
  11 H :    0.028591
  12 C :   -0.072932
  13 H :    0.041635
  14 H :    0.018525
  15 H :    0.055114
  16 S :    0.099836
  17 C :   -0.093618
  18 C :   -0.077994
  19 C :   -0.037832
  20 C :   -0.156315
  21 H :    0.038131
  22 C :    0.079532
  23 H :    0.017088
  24 H :    0.023003
  25 C :   -0.066049
  26 H :    0.044757
  27 H :    0.029531
  28 C :   -0.062275
  29 H :    0.028309
  30 H :    0.034831
  31 H :    0.044772
  32 H :    0.062470
  33 H :    0.074599
Sum of atomic charges:    0.0000000

LOEWDIN ATOMIC CHARGES
----------------------
   0 S :    0.412384
   1 C :   -0.208940
   2 C :   -0.069523
   3 C :   -0.052187
   4 C :   -0.193052
   5 H :    0.021481
   6 C :   -0.020636
   7 H :    0.027790
   8 H :    0.023455
   9 C :   -0.030873
  10 H :    0.024945
  11 H :    0.018080
  12 C :   -0.074034
  13 H :    0.026820
  14 H :    0.022855
  15 H :    0.036773
  16 S :    0.398901
  17 C :   -0.197541
  18 C :   -0.082619
  19 C :   -0.054233
  20 C :   -0.194166
  21 H :    0.037783
  22 C :   -0.030277
  23 H :    0.022581
  24 H :    0.029092
  25 C :   -0.040658
  26 H :    0.036078
  27 H :    0.021638
  28 C :   -0.071070
  29 H :    0.027621
  30 H :    0.018071
  31 H :    0.034909
  32 H :    0.038724
  33 H :    0.039829

  Mayer bond orders larger than 0.100000
B(  0-S ,  1-C ) :   1.1416 B(  0-S ,  4-C ) :   1.1432 B(  1-C ,  2-C ) :   1.6224
B(  1-C , 32-H ) :   0.9571 B(  2-C ,  3-C ) :   1.2413 B(  2-C ,  6-C ) :   1.0242
B(  3-C ,  4-C ) :   1.5892 B(  3-C ,  5-H ) :   1.0040 B(  4-C , 20-C ) :   1.0219
B(  6-C ,  7-H ) :   0.9411 B(  6-C ,  8-H ) :   0.9443 B(  6-C ,  9-C ) :   1.0564
B(  9-C , 10-H ) :   0.9565 B(  9-C , 11-H ) :   0.9618 B(  9-C , 12-C ) :   1.0658
B( 12-C , 13-H ) :   0.9759 B( 12-C , 14-H ) :   0.9745 B( 12-C , 15-H ) :   0.9730
B( 16-S , 17-C ) :   1.1634 B( 16-S , 20-C ) :   1.1427 B( 17-C , 18-C ) :   1.6112
B( 17-C , 33-H ) :   0.9579 B( 18-C , 19-C ) :   1.2453 B( 18-C , 21-H ) :   0.9800
B( 19-C , 20-C ) :   1.5883 B( 19-C , 22-C ) :   1.0314 B( 22-C , 23-H ) :   0.9305
B( 22-C , 24-H ) :   0.9363 B( 22-C , 25-C ) :   1.0584 B( 25-C , 26-H ) :   0.9520
B( 25-C , 27-H ) :   0.9586 B( 25-C , 28-C ) :   1.0861 B( 28-C , 29-H ) :   0.9723
B( 28-C , 30-H ) :   0.9715 B( 28-C , 31-H ) :   0.9709

Dispersion correction           -0.014562642
FINAL SINGLE POINT ENERGY     -1339.864349547470

DIPOLE MOMENT
-------------
                                X             Y             Z
Electronic contribution:    -21.20156       7.60993      -9.07268
Nuclear contribution   :     21.60345      -7.71274       9.28471
                        -----------------------------------------
Total Dipole Moment    :      0.40189      -0.10281       0.21202
                        -----------------------------------------
Magnitude (a.u.)       :      0.46587
Magnitude (Debye)      :      1.18415

Rotational constants in cm-1:     0.019595     0.008227     0.006851
Rotational constants in MHz :   587.457339   246.641378   205.402173

                             ****ORCA TERMINATED NORMALLY****
TOTAL RUN TIME: 0 days 0 hours 0 minutes 21 seconds 452 msec
