                         Program Version 4.2.1 -  RELEASE  -
|  1> ! wB97X-D3 SP def2-SVP
|  2> %pal
|  3> nprocs 24
|  4> end
|  5>
|  6> * xyz 0 1
|  7> S 	 -118.068 	 26.9692 	 -13.6854
|  8> C 	 -118.328 	 26.4737 	 -15.3033
|  9> C 	 -118.332 	 27.5455 	 -16.1422
| 10> C 	 -117.961 	 28.7409 	 -15.5147
| 11> C 	 -117.701 	 28.5952 	 -14.1805
| 12> H 	 -117.756 	 29.6562 	 -16.0258
| 13> C 	 -118.673 	 27.4632 	 -17.6386
| 14> H 	 -118.717 	 28.4923 	 -18.1908
| 15> H 	 -119.66 	 27.0586 	 -17.6946
| 16> C 	 -117.849 	 26.4317 	 -18.4693
| 17> H 	 -116.788 	 26.1992 	 -18.1796
| 18> H 	 -118.404 	 25.5387 	 -18.3585
| 19> C 	 -117.782 	 26.8904 	 -19.9561
| 20> H 	 -117.447 	 26.0453 	 -20.5927
| 21> H 	 -118.698 	 27.3083 	 -20.4582
| 22> H 	 -117.116 	 27.7509 	 -20.0245
| 23> S 	 -115.821 	 29.1769 	 -12.3184
| 24> C 	 -115.456 	 30.848 	 -11.9611
| 25> C 	 -116.375 	 31.7178 	 -12.5211
| 26> C 	 -117.206 	 31.0286 	 -13.4281
| 27> C 	 -117.19 	 29.6167 	 -13.2647
| 28> H 	 -116.4 	 32.7257 	 -12.367
| 29> C 	 -118.179 	 31.9336 	 -14.1405
| 30> H 	 -118.485 	 31.4462 	 -15.0186
| 31> H 	 -117.708 	 32.8423 	 -14.5309
| 32> C 	 -119.436 	 32.41 	 -13.394
| 33> H 	 -119.817 	 33.3185 	 -13.8822
| 34> H 	 -119.093 	 32.6803 	 -12.3208
| 35> C 	 -120.463 	 31.3058 	 -13.2477
| 36> H 	 -120.866 	 30.9998 	 -14.1811
| 37> H 	 -121.309 	 31.612 	 -12.6546
| 38> H 	 -120.084 	 30.4728 	 -12.6779
| 39> H 	 -118.681 	 25.4465 	 -15.5657
| 40> H 	 -114.662 	 31.2245 	 -11.2843
| 41> *
| 42>
| 43>                          ****END OF INPUT****

CARTESIAN COORDINATES (ANGSTROEM)
---------------------------------
  S    -118.068000   26.969200  -13.685400
  C    -118.328000   26.473700  -15.303300
  C    -118.332000   27.545500  -16.142200
  C    -117.961000   28.740900  -15.514700
  C    -117.701000   28.595200  -14.180500
  H    -117.756000   29.656200  -16.025800
  C    -118.673000   27.463200  -17.638600
  H    -118.717000   28.492300  -18.190800
  H    -119.660000   27.058600  -17.694600
  C    -117.849000   26.431700  -18.469300
  H    -116.788000   26.199200  -18.179600
  H    -118.404000   25.538700  -18.358500
  C    -117.782000   26.890400  -19.956100
  H    -117.447000   26.045300  -20.592700
  H    -118.698000   27.308300  -20.458200
  H    -117.116000   27.750900  -20.024500
  S    -115.821000   29.176900  -12.318400
  C    -115.456000   30.848000  -11.961100
  C    -116.375000   31.717800  -12.521100
  C    -117.206000   31.028600  -13.428100
  C    -117.190000   29.616700  -13.264700
  H    -116.400000   32.725700  -12.367000
  C    -118.179000   31.933600  -14.140500
  H    -118.485000   31.446200  -15.018600
  H    -117.708000   32.842300  -14.530900
  C    -119.436000   32.410000  -13.394000
  H    -119.817000   33.318500  -13.882200
  H    -119.093000   32.680300  -12.320800
  C    -120.463000   31.305800  -13.247700
  H    -120.866000   30.999800  -14.181100
  H    -121.309000   31.612000  -12.654600
  H    -120.084000   30.472800  -12.677900
  H    -118.681000   25.446500  -15.565700
  H    -114.662000   31.224500  -11.284300

 Total Charge           Charge          ....    0
 Multiplicity           Mult            ....    1
 Number of Electrons    NEL             ....  134
 Basis Dimension        Dim             ....  322

ORBITAL ENERGIES
----------------

  NO   OCC          E(Eh)            E(eV)
   0   2.0000     -88.969048     -2420.9709
   1   2.0000     -88.964386     -2420.8440
   2   2.0000     -10.328407      -281.0502
   3   2.0000     -10.326300      -280.9929
   4   2.0000     -10.320264      -280.8287
   5   2.0000     -10.309260      -280.5292
   6   2.0000     -10.302946      -280.3574
   7   2.0000     -10.298291      -280.2307
   8   2.0000     -10.295683      -280.1598
   9   2.0000     -10.291819      -280.0546
  10   2.0000     -10.289849      -280.0010
  11   2.0000     -10.286169      -279.9009
  12   2.0000     -10.284583      -279.8577
  13   2.0000     -10.284398      -279.8527
  14   2.0000     -10.283631      -279.8318
  15   2.0000     -10.264332      -279.3067
  16   2.0000      -8.084162      -219.9812
  17   2.0000      -8.080034      -219.8689
  18   2.0000      -6.042627      -164.4282
  19   2.0000      -6.038523      -164.3166
  20   2.0000      -6.038433      -164.3141
  21   2.0000      -6.035016      -164.2211
  22   2.0000      -6.034425      -164.2051
  23   2.0000      -6.030868      -164.1083
  24   2.0000      -1.014308       -27.6007
  25   2.0000      -0.991979       -26.9931
  26   2.0000      -0.911599       -24.8059
  27   2.0000      -0.905443       -24.6383
  28   2.0000      -0.871657       -23.7190
  29   2.0000      -0.853298       -23.2194
  30   2.0000      -0.847355       -23.0577
  31   2.0000      -0.813394       -22.1336
  32   2.0000      -0.782431       -21.2910
  33   2.0000      -0.768535       -20.9129
  34   2.0000      -0.703042       -19.1307
  35   2.0000      -0.701024       -19.0758
  36   2.0000      -0.688185       -18.7265
  37   2.0000      -0.668850       -18.2003
  38   2.0000      -0.640002       -17.4153
  39   2.0000      -0.622846       -16.9485
  40   2.0000      -0.598881       -16.2964
  41   2.0000      -0.570428       -15.5221
  42   2.0000      -0.560402       -15.2493
  43   2.0000      -0.548995       -14.9389
  44   2.0000      -0.540275       -14.7016
  45   2.0000      -0.520114       -14.1530
  46   2.0000      -0.517640       -14.0857
  47   2.0000      -0.508337       -13.8326
  48   2.0000      -0.503997       -13.7145
  49   2.0000      -0.498509       -13.5651
  50   2.0000      -0.492258       -13.3950
  51   2.0000      -0.480617       -13.0782
  52   2.0000      -0.473599       -12.8873
  53   2.0000      -0.459483       -12.5032
  54   2.0000      -0.458511       -12.4767
  55   2.0000      -0.450003       -12.2452
  56   2.0000      -0.447635       -12.1808
  57   2.0000      -0.434130       -11.8133
  58   2.0000      -0.427815       -11.6414
  59   2.0000      -0.424536       -11.5522
  60   2.0000      -0.419118       -11.4048
  61   2.0000      -0.414378       -11.2758
  62   2.0000      -0.410895       -11.1810
  63   2.0000      -0.357101        -9.7172
  64   2.0000      -0.333367        -9.0714
  65   2.0000      -0.328417        -8.9367
  66   2.0000      -0.285366        -7.7652
  67   0.0000       0.025792         0.7018
  68   0.0000       0.076516         2.0821
  69   0.0000       0.110284         3.0010
  70   0.0000       0.116653         3.1743
  71   0.0000       0.134675         3.6647

MULLIKEN ATOMIC CHARGES
-----------------------
   0 S :    0.111462
   1 C :   -0.149765
   2 C :   -0.049125
   3 C :    0.001578
   4 C :   -0.130614
   5 H :    0.010313
   6 C :    0.031634
   7 H :    0.039753
   8 H :    0.030610
   9 C :   -0.062062
  10 H :    0.050306
  11 H :    0.020241
  12 C :   -0.100343
  13 H :    0.043603
  14 H :    0.032780
  15 H :    0.036855
  16 S :    0.113724
  17 C :   -0.091100
  18 C :    0.011827
  19 C :   -0.094901
  20 C :   -0.093576
  21 H :   -0.012764
  22 C :    0.083422
  23 H :   -0.019924
  24 H :    0.018887
  25 C :   -0.084784
  26 H :    0.033691
  27 H :    0.029791
  28 C :   -0.016062
  29 H :    0.019967
  30 H :    0.019472
  31 H :    0.036419
  32 H :    0.062301
  33 H :    0.066384
Sum of atomic charges:   -0.0000000

LOEWDIN ATOMIC CHARGES
----------------------
   0 S :    0.420052
   1 C :   -0.219224
   2 C :   -0.066043
   3 C :   -0.067772
   4 C :   -0.192694
   5 H :    0.027936
   6 C :   -0.033217
   7 H :    0.036359
   8 H :    0.031574
   9 C :   -0.039850
  10 H :    0.032833
  11 H :    0.014987
  12 C :   -0.076378
  13 H :    0.028833
  14 H :    0.026361
  15 H :    0.024527
  16 S :    0.432625
  17 C :   -0.186914
  18 C :   -0.054432
  19 C :   -0.049892
  20 C :   -0.217088
  21 H :    0.017518
  22 C :   -0.036780
  23 H :    0.014606
  24 H :    0.032781
  25 C :   -0.037031
  26 H :    0.025001
  27 H :    0.029447
  28 C :   -0.063053
  29 H :    0.018585
  30 H :    0.024320
  31 H :    0.029158
  32 H :    0.036648
  33 H :    0.036218

  Mayer bond orders larger than 0.100000
B(  0-S ,  1-C ) :   1.1411 B(  0-S ,  4-C ) :   1.1622 B(  1-C ,  2-C ) :   1.5982
B(  1-C , 32-H ) :   0.9653 B(  2-C ,  3-C ) :   1.2781 B(  2-C ,  6-C ) :   1.0060
B(  3-C ,  4-C ) :   1.5665 B(  3-C ,  5-H ) :   0.9926 B(  4-C , 20-C ) :   1.0179
B(  6-C ,  7-H ) :   0.9606 B(  6-C ,  8-H ) :   0.9341 B(  6-C ,  9-C ) :   1.0378
B(  9-C , 10-H ) :   0.9654 B(  9-C , 11-H ) :   0.9587 B(  9-C , 12-C ) :   1.0749
B( 12-C , 13-H ) :   0.9750 B( 12-C , 14-H ) :   0.9753 B( 12-C , 15-H ) :   0.9783
B( 16-S , 17-C ) :   1.1760 B( 16-S , 20-C ) :   1.1502 B( 17-C , 18-C ) :   1.5639
B( 17-C , 33-H ) :   0.9614 B( 18-C , 19-C ) :   1.2683 B( 18-C , 21-H ) :   1.0060
B( 19-C , 20-C ) :   1.5445 B( 19-C , 22-C ) :   1.0644 B( 22-C , 23-H ) :   0.9266
B( 22-C , 24-H ) :   0.9306 B( 22-C , 25-C ) :   1.0643 B( 25-C , 26-H ) :   0.9530
B( 25-C , 27-H ) :   0.9551 B( 25-C , 28-C ) :   1.0865 B( 28-C , 29-H ) :   0.9736
B( 28-C , 30-H ) :   0.9696 B( 28-C , 31-H ) :   0.9722

Dispersion correction           -0.014349228
FINAL SINGLE POINT ENERGY     -1339.864870110143

DIPOLE MOMENT
-------------
                                X             Y             Z
Electronic contribution:     12.00401      -7.27731      21.14339
Nuclear contribution   :    -12.16684       7.68676     -21.59521
                        -----------------------------------------
Total Dipole Moment    :     -0.16283       0.40945      -0.45183
                        -----------------------------------------
Magnitude (a.u.)       :      0.63111
Magnitude (Debye)      :      1.60417

Rotational constants in cm-1:     0.020108     0.007863     0.006912
Rotational constants in MHz :   602.818448   235.719264   207.208986

                             ****ORCA TERMINATED NORMALLY****
TOTAL RUN TIME: 0 days 0 hours 0 minutes 21 seconds 838 msec
