                         Program Version 4.2.1 -  RELEASE  -
|  1> ! wB97X-D3 SP def2-SVP
|  2> %pal
|  3> nprocs 24
|  4> end
|  5>
|  6> * xyz 0 1
|  7> S 	 -33.9569 	 -36.6344 	 -93.8456
|  8> C 	 -33.7277 	 -34.9901 	 -94.307
|  9> C 	 -32.8045 	 -34.2284 	 -93.5876
| 10> C 	 -32.2477 	 -35.0681 	 -92.5417
| 11> C 	 -32.7639 	 -36.4134 	 -92.5772
| 12> H 	 -31.4409 	 -34.7703 	 -91.8402
| 13> C 	 -32.3469 	 -32.7916 	 -93.8558
| 14> H 	 -32.4578 	 -32.4447 	 -92.8736
| 15> H 	 -33.0688 	 -32.1619 	 -94.382
| 16> C 	 -30.9366 	 -32.4003 	 -94.418
| 17> H 	 -30.9569 	 -31.3057 	 -94.5554
| 18> H 	 -30.3004 	 -32.6086 	 -93.5649
| 19> C 	 -30.3528 	 -33.2792 	 -95.52
| 20> H 	 -30.0537 	 -34.2141 	 -95.0594
| 21> H 	 -31.0143 	 -33.3187 	 -96.3811
| 22> H 	 -29.4065 	 -32.8991 	 -95.9459
| 23> S 	 -32.5761 	 -39.0648 	 -92.3613
| 24> C 	 -31.645 	 -39.7407 	 -91.0616
| 25> C 	 -31.3884 	 -38.8989 	 -90.0376
| 26> C 	 -31.7224 	 -37.5565 	 -90.4652
| 27> C 	 -32.3892 	 -37.5126 	 -91.6936
| 28> H 	 -31.0074 	 -39.0794 	 -89.0576
| 29> C 	 -31.5246 	 -36.417 	 -89.5097
| 30> H 	 -31.5997 	 -36.8251 	 -88.5317
| 31> H 	 -32.3197 	 -35.7326 	 -89.5909
| 32> C 	 -30.1781 	 -35.6169 	 -89.535
| 33> H 	 -30.1963 	 -35.1214 	 -90.4985
| 34> H 	 -29.3436 	 -36.3297 	 -89.4901
| 35> C 	 -29.9928 	 -34.545 	 -88.3946
| 36> H 	 -29.0684 	 -34.1338 	 -88.5955
| 37> H 	 -30.0698 	 -34.874 	 -87.3599
| 38> H 	 -30.8028 	 -33.7576 	 -88.4706
| 39> H 	 -34.1259 	 -34.5354 	 -95.2753
| 40> H 	 -31.5474 	 -40.8547 	 -90.9733
| 41> *
| 42>
| 43>                          ****END OF INPUT****

CARTESIAN COORDINATES (ANGSTROEM)
---------------------------------
  S    -33.956900  -36.634400  -93.845600
  C    -33.727700  -34.990100  -94.307000
  C    -32.804500  -34.228400  -93.587600
  C    -32.247700  -35.068100  -92.541700
  C    -32.763900  -36.413400  -92.577200
  H    -31.440900  -34.770300  -91.840200
  C    -32.346900  -32.791600  -93.855800
  H    -32.457800  -32.444700  -92.873600
  H    -33.068800  -32.161900  -94.382000
  C    -30.936600  -32.400300  -94.418000
  H    -30.956900  -31.305700  -94.555400
  H    -30.300400  -32.608600  -93.564900
  C    -30.352800  -33.279200  -95.520000
  H    -30.053700  -34.214100  -95.059400
  H    -31.014300  -33.318700  -96.381100
  H    -29.406500  -32.899100  -95.945900
  S    -32.576100  -39.064800  -92.361300
  C    -31.645000  -39.740700  -91.061600
  C    -31.388400  -38.898900  -90.037600
  C    -31.722400  -37.556500  -90.465200
  C    -32.389200  -37.512600  -91.693600
  H    -31.007400  -39.079400  -89.057600
  C    -31.524600  -36.417000  -89.509700
  H    -31.599700  -36.825100  -88.531700
  H    -32.319700  -35.732600  -89.590900
  C    -30.178100  -35.616900  -89.535000
  H    -30.196300  -35.121400  -90.498500
  H    -29.343600  -36.329700  -89.490100
  C    -29.992800  -34.545000  -88.394600
  H    -29.068400  -34.133800  -88.595500
  H    -30.069800  -34.874000  -87.359900
  H    -30.802800  -33.757600  -88.470600
  H    -34.125900  -34.535400  -95.275300
  H    -31.547400  -40.854700  -90.973300

 Total Charge           Charge          ....    0
 Multiplicity           Mult            ....    1
 Number of Electrons    NEL             ....  134
 Basis Dimension        Dim             ....  322

ORBITAL ENERGIES
----------------

  NO   OCC          E(Eh)            E(eV)
   0   2.0000     -88.973416     -2421.0897
   1   2.0000     -88.964850     -2420.8566
   2   2.0000     -10.335892      -281.2539
   3   2.0000     -10.322848      -280.8990
   4   2.0000     -10.317146      -280.7438
   5   2.0000     -10.315825      -280.7079
   6   2.0000     -10.307788      -280.4892
   7   2.0000     -10.303774      -280.3799
   8   2.0000     -10.300817      -280.2995
   9   2.0000     -10.293574      -280.1024
  10   2.0000     -10.293054      -280.0882
  11   2.0000     -10.291399      -280.0432
  12   2.0000     -10.291328      -280.0413
  13   2.0000     -10.282578      -279.8032
  14   2.0000     -10.282128      -279.7909
  15   2.0000     -10.277951      -279.6773
  16   2.0000      -8.088179      -220.0905
  17   2.0000      -8.081302      -219.9034
  18   2.0000      -6.046659      -164.5379
  19   2.0000      -6.042794      -164.4328
  20   2.0000      -6.039767      -164.3504
  21   2.0000      -6.038881      -164.3263
  22   2.0000      -6.035719      -164.2403
  23   2.0000      -6.031866      -164.1354
  24   2.0000      -1.012057       -27.5395
  25   2.0000      -0.983547       -26.7637
  26   2.0000      -0.909630       -24.7523
  27   2.0000      -0.905654       -24.6441
  28   2.0000      -0.871281       -23.7088
  29   2.0000      -0.851699       -23.1759
  30   2.0000      -0.848995       -23.1023
  31   2.0000      -0.810614       -22.0579
  32   2.0000      -0.788329       -21.4515
  33   2.0000      -0.772518       -21.0213
  34   2.0000      -0.706573       -19.2268
  35   2.0000      -0.700761       -19.0687
  36   2.0000      -0.687918       -18.7192
  37   2.0000      -0.671468       -18.2716
  38   2.0000      -0.627740       -17.0817
  39   2.0000      -0.618309       -16.8250
  40   2.0000      -0.597662       -16.2632
  41   2.0000      -0.568023       -15.4567
  42   2.0000      -0.560402       -15.2493
  43   2.0000      -0.553328       -15.0568
  44   2.0000      -0.539096       -14.6696
  45   2.0000      -0.529795       -14.4165
  46   2.0000      -0.516804       -14.0630
  47   2.0000      -0.508100       -13.8261
  48   2.0000      -0.502611       -13.6767
  49   2.0000      -0.496693       -13.5157
  50   2.0000      -0.488421       -13.2906
  51   2.0000      -0.476486       -12.9659
  52   2.0000      -0.470521       -12.8035
  53   2.0000      -0.465601       -12.6696
  54   2.0000      -0.460354       -12.5269
  55   2.0000      -0.458545       -12.4777
  56   2.0000      -0.442690       -12.0462
  57   2.0000      -0.438216       -11.9245
  58   2.0000      -0.435062       -11.8387
  59   2.0000      -0.429567       -11.6891
  60   2.0000      -0.423950       -11.5363
  61   2.0000      -0.421305       -11.4643
  62   2.0000      -0.404526       -11.0077
  63   2.0000      -0.360998        -9.8233
  64   2.0000      -0.336505        -9.1568
  65   2.0000      -0.326362        -8.8808
  66   2.0000      -0.277998        -7.5647
  67   0.0000       0.021455         0.5838
  68   0.0000       0.075457         2.0533
  69   0.0000       0.101808         2.7703
  70   0.0000       0.116624         3.1735
  71   0.0000       0.125121         3.4047

MULLIKEN ATOMIC CHARGES
-----------------------
   0 S :    0.122635
   1 C :   -0.126505
   2 C :   -0.094154
   3 C :   -0.010311
   4 C :   -0.121689
   5 H :   -0.002787
   6 C :    0.059737
   7 H :    0.018843
   8 H :    0.018383
   9 C :   -0.070439
  10 H :    0.039068
  11 H :    0.017909
  12 C :   -0.029960
  13 H :    0.042679
  14 H :    0.032895
  15 H :    0.028935
  16 S :    0.095360
  17 C :   -0.090249
  18 C :    0.010786
  19 C :   -0.102795
  20 C :   -0.100478
  21 H :    0.012120
  22 C :    0.067891
  23 H :   -0.000933
  24 H :    0.012582
  25 C :   -0.075952
  26 H :    0.022833
  27 H :    0.028580
  28 C :   -0.034129
  29 H :    0.028850
  30 H :    0.036589
  31 H :    0.032215
  32 H :    0.063512
  33 H :    0.067978
Sum of atomic charges:   -0.0000000

LOEWDIN ATOMIC CHARGES
----------------------
   0 S :    0.414732
   1 C :   -0.219959
   2 C :   -0.061757
   3 C :   -0.070528
   4 C :   -0.188756
   5 H :    0.030894
   6 C :   -0.037457
   7 H :    0.030237
   8 H :    0.029360
   9 C :   -0.040799
  10 H :    0.028706
  11 H :    0.021835
  12 C :   -0.065256
  13 H :    0.032183
  14 H :    0.023071
  15 H :    0.029956
  16 S :    0.423240
  17 C :   -0.189185
  18 C :   -0.060645
  19 C :   -0.056007
  20 C :   -0.213387
  21 H :    0.031765
  22 C :   -0.033210
  23 H :    0.024072
  24 H :    0.022193
  25 C :   -0.030680
  26 H :    0.016038
  27 H :    0.023439
  28 C :   -0.060783
  29 H :    0.017810
  30 H :    0.025242
  31 H :    0.030793
  32 H :    0.039256
  33 H :    0.033588

  Mayer bond orders larger than 0.100000
B(  0-S ,  1-C ) :   1.1412 B(  0-S ,  4-C ) :   1.1525 B(  1-C ,  2-C ) :   1.6269
B(  1-C , 32-H ) :   0.9473 B(  2-C ,  3-C ) :   1.2522 B(  2-C ,  6-C ) :   1.0045
B(  3-C ,  4-C ) :   1.5469 B(  3-C ,  5-H ) :   0.9798 B(  4-C , 20-C ) :   1.0690
B(  6-C ,  7-H ) :   0.9368 B(  6-C ,  8-H ) :   0.9447 B(  6-C ,  9-C ) :   1.0616
B(  9-C , 10-H ) :   0.9562 B(  9-C , 11-H ) :   0.9578 B(  9-C , 12-C ) :   1.0822
B( 12-C , 13-H ) :   0.9685 B( 12-C , 14-H ) :   0.9791 B( 12-C , 15-H ) :   0.9720
B( 16-S , 17-C ) :   1.1623 B( 16-S , 20-C ) :   1.1330 B( 17-C , 18-C ) :   1.5997
B( 17-C , 33-H ) :   0.9564 B( 18-C , 19-C ) :   1.2446 B( 18-C , 21-H ) :   0.9948
B( 19-C , 20-C ) :   1.5888 B( 19-C , 22-C ) :   1.0511 B( 22-C , 23-H ) :   0.9312
B( 22-C , 24-H ) :   0.9370 B( 22-C , 25-C ) :   1.0564 B( 25-C , 26-H ) :   0.9527
B( 25-C , 27-H ) :   0.9526 B( 25-C , 28-C ) :   1.0746 B( 28-C , 29-H ) :   0.9756
B( 28-C , 30-H ) :   0.9777 B( 28-C , 31-H ) :   0.9749

Dispersion correction           -0.014294755
FINAL SINGLE POINT ENERGY     -1339.859111415289

DIPOLE MOMENT
-------------
                                X             Y             Z
Electronic contribution:    -16.88673     -24.04380      -7.17944
Nuclear contribution   :     17.30735      24.46049       7.51256
                        -----------------------------------------
Total Dipole Moment    :      0.42061       0.41669       0.33312
                        -----------------------------------------
Magnitude (a.u.)       :      0.67935
Magnitude (Debye)      :      1.72677

Rotational constants in cm-1:     0.016207     0.009806     0.006878
Rotational constants in MHz :   485.887169   293.962446   206.193396

                             ****ORCA TERMINATED NORMALLY****
TOTAL RUN TIME: 0 days 0 hours 0 minutes 21 seconds 628 msec
