                         Program Version 4.2.1 -  RELEASE  -
|  1> ! wB97X-D3 SP def2-SVP
|  2> %pal
|  3> nprocs 24
|  4> end
|  5>
|  6> * xyz 0 1
|  7> S 	 -107.458 	 41.0032 	 -11.5855
|  8> C 	 -107.538 	 42.6396 	 -12.2683
|  9> C 	 -108.865 	 43.0735 	 -12.4084
| 10> C 	 -109.857 	 42.0649 	 -12.1389
| 11> C 	 -109.296 	 40.8999 	 -11.6185
| 12> H 	 -110.895 	 42.1656 	 -12.1858
| 13> C 	 -109.33 	 44.4717 	 -12.8966
| 14> H 	 -108.686 	 45.2592 	 -12.5457
| 15> H 	 -110.228 	 44.7089 	 -12.5222
| 16> C 	 -109.304 	 44.5905 	 -14.4544
| 17> H 	 -109.441 	 45.6463 	 -14.7119
| 18> H 	 -108.414 	 44.3413 	 -14.9719
| 19> C 	 -110.393 	 43.7559 	 -15.0964
| 20> H 	 -111.304 	 44.3597 	 -14.939
| 21> H 	 -110.111 	 43.6135 	 -16.1311
| 22> H 	 -110.311 	 42.7444 	 -14.6141
| 23> S 	 -109.604 	 38.2409 	 -12.0242
| 24> C 	 -110.835 	 37.3659 	 -11.1429
| 25> C 	 -111.47 	 38.228 	 -10.2731
| 26> C 	 -111.199 	 39.5982 	 -10.396
| 27> C 	 -110.007 	 39.7362 	 -11.1618
| 28> H 	 -112.235 	 37.8325 	 -9.59549
| 29> C 	 -111.981 	 40.7188 	 -9.67753
| 30> H 	 -111.469 	 41.6641 	 -9.7989
| 31> H 	 -111.961 	 40.3924 	 -8.63909
| 32> C 	 -113.424 	 40.9194 	 -10.0452
| 33> H 	 -113.873 	 41.59 	 -9.28652
| 34> H 	 -113.96 	 39.9939 	 -10.0107
| 35> C 	 -113.577 	 41.6418 	 -11.4514
| 36> H 	 -113.206 	 42.6443 	 -11.4122
| 37> H 	 -114.67 	 41.7035 	 -11.5977
| 38> H 	 -113.037 	 41.0209 	 -12.2139
| 39> H 	 -106.761 	 43.4312 	 -12.2233
| 40> H 	 -110.979 	 36.2984 	 -11.1242
| 41> *
| 42>
| 43>                          ****END OF INPUT****

CARTESIAN COORDINATES (ANGSTROEM)
---------------------------------
  S    -107.458000   41.003200  -11.585500
  C    -107.538000   42.639600  -12.268300
  C    -108.865000   43.073500  -12.408400
  C    -109.857000   42.064900  -12.138900
  C    -109.296000   40.899900  -11.618500
  H    -110.895000   42.165600  -12.185800
  C    -109.330000   44.471700  -12.896600
  H    -108.686000   45.259200  -12.545700
  H    -110.228000   44.708900  -12.522200
  C    -109.304000   44.590500  -14.454400
  H    -109.441000   45.646300  -14.711900
  H    -108.414000   44.341300  -14.971900
  C    -110.393000   43.755900  -15.096400
  H    -111.304000   44.359700  -14.939000
  H    -110.111000   43.613500  -16.131100
  H    -110.311000   42.744400  -14.614100
  S    -109.604000   38.240900  -12.024200
  C    -110.835000   37.365900  -11.142900
  C    -111.470000   38.228000  -10.273100
  C    -111.199000   39.598200  -10.396000
  C    -110.007000   39.736200  -11.161800
  H    -112.235000   37.832500   -9.595490
  C    -111.981000   40.718800   -9.677530
  H    -111.469000   41.664100   -9.798900
  H    -111.961000   40.392400   -8.639090
  C    -113.424000   40.919400  -10.045200
  H    -113.873000   41.590000   -9.286520
  H    -113.960000   39.993900  -10.010700
  C    -113.577000   41.641800  -11.451400
  H    -113.206000   42.644300  -11.412200
  H    -114.670000   41.703500  -11.597700
  H    -113.037000   41.020900  -12.213900
  H    -106.761000   43.431200  -12.223300
  H    -110.979000   36.298400  -11.124200

 Total Charge           Charge          ....    0
 Multiplicity           Mult            ....    1
 Number of Electrons    NEL             ....  134
 Basis Dimension        Dim             ....  322

ORBITAL ENERGIES
----------------

  NO   OCC          E(Eh)            E(eV)
   0   2.0000     -88.969825     -2420.9920
   1   2.0000     -88.966977     -2420.9145
   2   2.0000     -10.336018      -281.2574
   3   2.0000     -10.329640      -281.0838
   4   2.0000     -10.319085      -280.7966
   5   2.0000     -10.316544      -280.7274
   6   2.0000     -10.310066      -280.5512
   7   2.0000     -10.306817      -280.4628
   8   2.0000     -10.294542      -280.1287
   9   2.0000     -10.294104      -280.1168
  10   2.0000     -10.293479      -280.0998
  11   2.0000     -10.290797      -280.0268
  12   2.0000     -10.286208      -279.9020
  13   2.0000     -10.286075      -279.8983
  14   2.0000     -10.277863      -279.6749
  15   2.0000     -10.273051      -279.5439
  16   2.0000      -8.082479      -219.9354
  17   2.0000      -8.081271      -219.9026
  18   2.0000      -6.041193      -164.3892
  19   2.0000      -6.039798      -164.3513
  20   2.0000      -6.037384      -164.2856
  21   2.0000      -6.035780      -164.2419
  22   2.0000      -6.033028      -164.1670
  23   2.0000      -6.032083      -164.1413
  24   2.0000      -1.001167       -27.2431
  25   2.0000      -0.974126       -26.5073
  26   2.0000      -0.912758       -24.8374
  27   2.0000      -0.908755       -24.7285
  28   2.0000      -0.868306       -23.6278
  29   2.0000      -0.849540       -23.1172
  30   2.0000      -0.843103       -22.9420
  31   2.0000      -0.811314       -22.0770
  32   2.0000      -0.785862       -21.3844
  33   2.0000      -0.771794       -21.0016
  34   2.0000      -0.709376       -19.3031
  35   2.0000      -0.698427       -19.0052
  36   2.0000      -0.691126       -18.8065
  37   2.0000      -0.656357       -17.8604
  38   2.0000      -0.637962       -17.3598
  39   2.0000      -0.617543       -16.8042
  40   2.0000      -0.599883       -16.3237
  41   2.0000      -0.571063       -15.5394
  42   2.0000      -0.557710       -15.1761
  43   2.0000      -0.547246       -14.8913
  44   2.0000      -0.543726       -14.7955
  45   2.0000      -0.538097       -14.6424
  46   2.0000      -0.521893       -14.2014
  47   2.0000      -0.519925       -14.1479
  48   2.0000      -0.499959       -13.6046
  49   2.0000      -0.495553       -13.4847
  50   2.0000      -0.489246       -13.3131
  51   2.0000      -0.478826       -13.0295
  52   2.0000      -0.473593       -12.8871
  53   2.0000      -0.462703       -12.5908
  54   2.0000      -0.457398       -12.4464
  55   2.0000      -0.445359       -12.1188
  56   2.0000      -0.441349       -12.0097
  57   2.0000      -0.434345       -11.8191
  58   2.0000      -0.432109       -11.7583
  59   2.0000      -0.431089       -11.7305
  60   2.0000      -0.419511       -11.4155
  61   2.0000      -0.414453       -11.2779
  62   2.0000      -0.411706       -11.2031
  63   2.0000      -0.347726        -9.4621
  64   2.0000      -0.330857        -9.0031
  65   2.0000      -0.329338        -8.9617
  66   2.0000      -0.287288        -7.8175
  67   0.0000       0.020972         0.5707
  68   0.0000       0.059891         1.6297
  69   0.0000       0.105256         2.8642
  70   0.0000       0.115123         3.1327
  71   0.0000       0.123912         3.3718

MULLIKEN ATOMIC CHARGES
-----------------------
   0 S :    0.102416
   1 C :   -0.105366
   2 C :   -0.143929
   3 C :    0.082933
   4 C :   -0.149893
   5 H :   -0.040139
   6 C :    0.139306
   7 H :    0.014719
   8 H :   -0.016000
   9 C :   -0.078124
  10 H :    0.019365
  11 H :    0.016765
  12 C :   -0.064917
  13 H :    0.039606
  14 H :    0.031721
  15 H :    0.049675
  16 S :    0.108072
  17 C :   -0.087071
  18 C :   -0.042501
  19 C :   -0.043590
  20 C :   -0.163517
  21 H :    0.018966
  22 C :    0.082525
  23 H :    0.021294
  24 H :    0.034028
  25 C :   -0.082268
  26 H :    0.035685
  27 H :    0.027067
  28 C :   -0.078359
  29 H :    0.037337
  30 H :    0.043047
  31 H :    0.067982
  32 H :    0.065632
  33 H :    0.057533
Sum of atomic charges:    0.0000000

LOEWDIN ATOMIC CHARGES
----------------------
   0 S :    0.363640
   1 C :   -0.206150
   2 C :   -0.053761
   3 C :   -0.056365
   4 C :   -0.164420
   5 H :    0.019402
   6 C :   -0.015654
   7 H :    0.029682
   8 H :    0.010154
   9 C :   -0.037951
  10 H :    0.019380
  11 H :    0.016972
  12 C :   -0.070462
  13 H :    0.028059
  14 H :    0.024524
  15 H :    0.034988
  16 S :    0.406457
  17 C :   -0.190262
  18 C :   -0.074782
  19 C :   -0.051209
  20 C :   -0.196377
  21 H :    0.030881
  22 C :   -0.029699
  23 H :    0.029124
  24 H :    0.036740
  25 C :   -0.037005
  26 H :    0.029327
  27 H :    0.018610
  28 C :   -0.067928
  29 H :    0.018487
  30 H :    0.031493
  31 H :    0.034183
  32 H :    0.039578
  33 H :    0.030344

  Mayer bond orders larger than 0.100000
B(  0-S ,  1-C ) :   1.1192 B(  0-S ,  4-C ) :   1.1270 B(  1-C ,  2-C ) :   1.6445
B(  1-C , 32-H ) :   0.9523 B(  2-C ,  3-C ) :   1.2111 B(  2-C ,  6-C ) :   1.0301
B(  3-C ,  4-C ) :   1.5786 B(  3-C ,  5-H ) :   0.9899 B(  4-C , 20-C ) :   1.0551
B(  6-C ,  7-H ) :   0.9369 B(  6-C ,  8-H ) :   0.9387 B(  6-C ,  9-C ) :   1.0611
B(  9-C , 10-H ) :   0.9579 B(  9-C , 11-H ) :   0.9630 B(  9-C , 12-C ) :   1.0726
B( 12-C , 13-H ) :   0.9796 B( 12-C , 14-H ) :   0.9747 B( 12-C , 15-H ) :   0.9712
B( 16-S , 17-C ) :   1.1486 B( 16-S , 20-C ) :   1.1578 B( 17-C , 18-C ) :   1.6043
B( 17-C , 20-C ) :   0.1122 B( 17-C , 33-H ) :   0.9676 B( 18-C , 19-C ) :   1.2587
B( 18-C , 21-H ) :   0.9799 B( 19-C , 20-C ) :   1.5475 B( 19-C , 22-C ) :   1.0341
B( 22-C , 23-H ) :   0.9364 B( 22-C , 24-H ) :   0.9298 B( 22-C , 25-C ) :   1.0830
B( 25-C , 26-H ) :   0.9527 B( 25-C , 27-H ) :   0.9567 B( 25-C , 28-C ) :   1.0731
B( 28-C , 29-H ) :   0.9680 B( 28-C , 30-H ) :   0.9714 B( 28-C , 31-H ) :   0.9704

Dispersion correction           -0.015274102
FINAL SINGLE POINT ENERGY     -1339.859066561007

DIPOLE MOMENT
-------------
                                X             Y             Z
Electronic contribution:     18.79887     -19.60058       5.68730
Nuclear contribution   :    -19.45352      20.04919      -5.44678
                        -----------------------------------------
Total Dipole Moment    :     -0.65465       0.44861       0.24052
                        -----------------------------------------
Magnitude (a.u.)       :      0.82926
Magnitude (Debye)      :      2.10781

Rotational constants in cm-1:     0.017921     0.009734     0.007495
Rotational constants in MHz :   537.265512   291.829738   224.698150

                             ****ORCA TERMINATED NORMALLY****
TOTAL RUN TIME: 0 days 0 hours 0 minutes 21 seconds 263 msec
