                         Program Version 4.2.1 -  RELEASE  -
|  1> ! wB97X-D3 SP def2-SVP
|  2> %pal
|  3> nprocs 24
|  4> end
|  5>
|  6> * xyz 0 1
|  7> S 	 -121.026 	 61.8106 	 -53.3774
|  8> C 	 -119.827 	 62.8631 	 -52.6593
|  9> C 	 -120.297 	 64.1557 	 -52.6519
| 10> C 	 -121.647 	 64.2527 	 -53.1345
| 11> C 	 -122.178 	 63.1094 	 -53.6327
| 12> H 	 -122.206 	 65.119 	 -53.3432
| 13> C 	 -119.631 	 65.2228 	 -51.7836
| 14> H 	 -119.168 	 64.8911 	 -50.8649
| 15> H 	 -120.32 	 65.9764 	 -51.3451
| 16> C 	 -118.617 	 66.004 	 -52.5202
| 17> H 	 -118.106 	 66.7328 	 -51.8921
| 18> H 	 -117.775 	 65.4358 	 -52.8772
| 19> C 	 -119.151 	 66.8736 	 -53.7095
| 20> H 	 -119.444 	 66.1751 	 -54.4909
| 21> H 	 -120.018 	 67.3648 	 -53.3988
| 22> H 	 -118.405 	 67.6025 	 -53.9913
| 23> S 	 -122.89 	 62.2594 	 -56.1499
| 24> C 	 -124.62 	 62.2137 	 -56.5386
| 25> C 	 -125.42 	 62.6348 	 -55.507
| 26> C 	 -124.645 	 63.2592 	 -54.4775
| 27> C 	 -123.31 	 62.8594 	 -54.5287
| 28> H 	 -126.503 	 62.5969 	 -55.6499
| 29> C 	 -125.269 	 64.072 	 -53.4123
| 30> H 	 -126.274 	 64.2737 	 -53.7934
| 31> H 	 -124.742 	 65.071 	 -53.3198
| 32> C 	 -125.33 	 63.2853 	 -52.0037
| 33> H 	 -124.317 	 63.0321 	 -51.7239
| 34> H 	 -125.911 	 62.3864 	 -52.1743
| 35> C 	 -125.966 	 64.1978 	 -50.9607
| 36> H 	 -127.06 	 64.4299 	 -51.0529
| 37> H 	 -125.288 	 65.0841 	 -50.8311
| 38> H 	 -125.848 	 63.6201 	 -50.0572
| 39> H 	 -118.885 	 62.5324 	 -52.3253
| 40> H 	 -125.047 	 61.7561 	 -57.4296
| 41> *
| 42>
| 43>                          ****END OF INPUT****

CARTESIAN COORDINATES (ANGSTROEM)
---------------------------------
  S    -121.026000   61.810600  -53.377400
  C    -119.827000   62.863100  -52.659300
  C    -120.297000   64.155700  -52.651900
  C    -121.647000   64.252700  -53.134500
  C    -122.178000   63.109400  -53.632700
  H    -122.206000   65.119000  -53.343200
  C    -119.631000   65.222800  -51.783600
  H    -119.168000   64.891100  -50.864900
  H    -120.320000   65.976400  -51.345100
  C    -118.617000   66.004000  -52.520200
  H    -118.106000   66.732800  -51.892100
  H    -117.775000   65.435800  -52.877200
  C    -119.151000   66.873600  -53.709500
  H    -119.444000   66.175100  -54.490900
  H    -120.018000   67.364800  -53.398800
  H    -118.405000   67.602500  -53.991300
  S    -122.890000   62.259400  -56.149900
  C    -124.620000   62.213700  -56.538600
  C    -125.420000   62.634800  -55.507000
  C    -124.645000   63.259200  -54.477500
  C    -123.310000   62.859400  -54.528700
  H    -126.503000   62.596900  -55.649900
  C    -125.269000   64.072000  -53.412300
  H    -126.274000   64.273700  -53.793400
  H    -124.742000   65.071000  -53.319800
  C    -125.330000   63.285300  -52.003700
  H    -124.317000   63.032100  -51.723900
  H    -125.911000   62.386400  -52.174300
  C    -125.966000   64.197800  -50.960700
  H    -127.060000   64.429900  -51.052900
  H    -125.288000   65.084100  -50.831100
  H    -125.848000   63.620100  -50.057200
  H    -118.885000   62.532400  -52.325300
  H    -125.047000   61.756100  -57.429600

 Total Charge           Charge          ....    0
 Multiplicity           Mult            ....    1
 Number of Electrons    NEL             ....  134
 Basis Dimension        Dim             ....  322

ORBITAL ENERGIES
----------------

  NO   OCC          E(Eh)            E(eV)
   0   2.0000     -88.965886     -2420.8848
   1   2.0000     -88.962462     -2420.7917
   2   2.0000     -10.327920      -281.0370
   3   2.0000     -10.327072      -281.0139
   4   2.0000     -10.316565      -280.7280
   5   2.0000     -10.315124      -280.6888
   6   2.0000     -10.304246      -280.3928
   7   2.0000     -10.303204      -280.3644
   8   2.0000     -10.295185      -280.1462
   9   2.0000     -10.294990      -280.1409
  10   2.0000     -10.290525      -280.0194
  11   2.0000     -10.290225      -280.0112
  12   2.0000     -10.289338      -279.9871
  13   2.0000     -10.281760      -279.7809
  14   2.0000     -10.275744      -279.6172
  15   2.0000     -10.267256      -279.3862
  16   2.0000      -8.079686      -219.8594
  17   2.0000      -8.077514      -219.8003
  18   2.0000      -6.038339      -164.3116
  19   2.0000      -6.036002      -164.2480
  20   2.0000      -6.034480      -164.2066
  21   2.0000      -6.031813      -164.1340
  22   2.0000      -6.030178      -164.0895
  23   2.0000      -6.028416      -164.0415
  24   2.0000      -1.007680       -27.4204
  25   2.0000      -0.983886       -26.7729
  26   2.0000      -0.914836       -24.8939
  27   2.0000      -0.903612       -24.5885
  28   2.0000      -0.870319       -23.6826
  29   2.0000      -0.851902       -23.1814
  30   2.0000      -0.841737       -22.9048
  31   2.0000      -0.818938       -22.2844
  32   2.0000      -0.784487       -21.3470
  33   2.0000      -0.767468       -20.8839
  34   2.0000      -0.706270       -19.2186
  35   2.0000      -0.697637       -18.9837
  36   2.0000      -0.689814       -18.7708
  37   2.0000      -0.662316       -18.0225
  38   2.0000      -0.650199       -17.6928
  39   2.0000      -0.617131       -16.7930
  40   2.0000      -0.590496       -16.0682
  41   2.0000      -0.577643       -15.7185
  42   2.0000      -0.565653       -15.3922
  43   2.0000      -0.551506       -15.0072
  44   2.0000      -0.541884       -14.7454
  45   2.0000      -0.524097       -14.2614
  46   2.0000      -0.513672       -13.9777
  47   2.0000      -0.512817       -13.9545
  48   2.0000      -0.499670       -13.5967
  49   2.0000      -0.498710       -13.5706
  50   2.0000      -0.490801       -13.3554
  51   2.0000      -0.478993       -13.0341
  52   2.0000      -0.472970       -12.8702
  53   2.0000      -0.469726       -12.7819
  54   2.0000      -0.458010       -12.4631
  55   2.0000      -0.450906       -12.2698
  56   2.0000      -0.443024       -12.0553
  57   2.0000      -0.434238       -11.8162
  58   2.0000      -0.433264       -11.7897
  59   2.0000      -0.424788       -11.5591
  60   2.0000      -0.415749       -11.3131
  61   2.0000      -0.410406       -11.1677
  62   2.0000      -0.406761       -11.0685
  63   2.0000      -0.349401        -9.5077
  64   2.0000      -0.328806        -8.9473
  65   2.0000      -0.325981        -8.8704
  66   2.0000      -0.292963        -7.9719
  67   0.0000       0.029510         0.8030
  68   0.0000       0.060970         1.6591
  69   0.0000       0.109764         2.9868
  70   0.0000       0.111178         3.0253
  71   0.0000       0.130636         3.5548

MULLIKEN ATOMIC CHARGES
-----------------------
   0 S :    0.092800
   1 C :   -0.093963
   2 C :   -0.051044
   3 C :    0.060017
   4 C :   -0.172107
   5 H :   -0.008779
   6 C :    0.057229
   7 H :    0.025163
   8 H :    0.024455
   9 C :   -0.097353
  10 H :    0.011742
  11 H :    0.016590
  12 C :   -0.034726
  13 H :    0.042228
  14 H :    0.006781
  15 H :    0.038163
  16 S :    0.108783
  17 C :   -0.095297
  18 C :   -0.029107
  19 C :   -0.048178
  20 C :   -0.131841
  21 H :    0.029131
  22 C :    0.029811
  23 H :    0.015046
  24 H :    0.041724
  25 C :   -0.077873
  26 H :    0.044590
  27 H :    0.032802
  28 C :   -0.043747
  29 H :    0.049650
  30 H :    0.036641
  31 H :    0.026805
  32 H :    0.037787
  33 H :    0.056077
Sum of atomic charges:    0.0000000

LOEWDIN ATOMIC CHARGES
----------------------
   0 S :    0.400748
   1 C :   -0.172237
   2 C :   -0.064458
   3 C :   -0.062278
   4 C :   -0.191670
   5 H :    0.023568
   6 C :   -0.035387
   7 H :    0.031791
   8 H :    0.034723
   9 C :   -0.046252
  10 H :    0.018821
  11 H :    0.016618
  12 C :   -0.057251
  13 H :    0.026680
  14 H :    0.011402
  15 H :    0.026912
  16 S :    0.386674
  17 C :   -0.177124
  18 C :   -0.071975
  19 C :   -0.053698
  20 C :   -0.196626
  21 H :    0.036962
  22 C :   -0.039701
  23 H :    0.028330
  24 H :    0.035756
  25 C :   -0.025400
  26 H :    0.026109
  27 H :    0.024348
  28 C :   -0.074045
  29 H :    0.031735
  30 H :    0.031371
  31 H :    0.024907
  32 H :    0.021455
  33 H :    0.029194

  Mayer bond orders larger than 0.100000
B(  0-S ,  1-C ) :   1.1483 B(  0-S ,  4-C ) :   1.1392 B(  1-C ,  2-C ) :   1.6054
B(  1-C , 32-H ) :   0.9783 B(  2-C ,  3-C ) :   1.2254 B(  2-C ,  6-C ) :   0.9994
B(  3-C ,  4-C ) :   1.6008 B(  3-C ,  5-H ) :   0.9981 B(  4-C , 20-C ) :   1.0255
B(  6-C ,  7-H ) :   0.9498 B(  6-C ,  8-H ) :   0.9485 B(  6-C ,  9-C ) :   1.0831
B(  9-C , 10-H ) :   0.9538 B(  9-C , 11-H ) :   0.9562 B(  9-C , 12-C ) :   1.0736
B( 12-C , 13-H ) :   0.9751 B( 12-C , 14-H ) :   0.9754 B( 12-C , 15-H ) :   0.9773
B( 16-S , 17-C ) :   1.1412 B( 16-S , 20-C ) :   1.1283 B( 17-C , 18-C ) :   1.6542
B( 17-C , 20-C ) :   0.1001 B( 17-C , 33-H ) :   0.9611 B( 18-C , 19-C ) :   1.2105
B( 18-C , 21-H ) :   0.9809 B( 19-C , 20-C ) :   1.5981 B( 19-C , 22-C ) :   1.0677
B( 22-C , 23-H ) :   0.9314 B( 22-C , 24-H ) :   0.9304 B( 22-C , 25-C ) :   1.0513
B( 25-C , 26-H ) :   0.9568 B( 25-C , 27-H ) :   0.9556 B( 25-C , 28-C ) :   1.0871
B( 28-C , 29-H ) :   0.9742 B( 28-C , 30-H ) :   0.9715 B( 28-C , 31-H ) :   0.9716

Dispersion correction           -0.014551752
FINAL SINGLE POINT ENERGY     -1339.862872202020

DIPOLE MOMENT
-------------
                                X             Y             Z
Electronic contribution:      1.65824     -19.50080     -14.81192
Nuclear contribution   :     -1.90994      19.90067      15.15137
                        -----------------------------------------
Total Dipole Moment    :     -0.25171       0.39988       0.33945
                        -----------------------------------------
Magnitude (a.u.)       :      0.58179
Magnitude (Debye)      :      1.47880

Rotational constants in cm-1:     0.017783     0.008910     0.007388
Rotational constants in MHz :   533.132170   267.125115   221.499468

                             ****ORCA TERMINATED NORMALLY****
TOTAL RUN TIME: 0 days 0 hours 0 minutes 21 seconds 696 msec
