                         Program Version 4.2.1 -  RELEASE  -
|  1> ! wB97X-D3 SP def2-SVP
|  2> %pal
|  3> nprocs 24
|  4> end
|  5>
|  6> * xyz 0 1
|  7> S 	 -129.346 	 64.1605 	 -58.4279
|  8> C 	 -129.539 	 64.8101 	 -59.9972
|  9> C 	 -130.224 	 64.0048 	 -60.8946
| 10> C 	 -130.665 	 62.8005 	 -60.2568
| 11> C 	 -130.347 	 62.7738 	 -58.8958
| 12> H 	 -131.252 	 61.9221 	 -60.526
| 13> C 	 -130.635 	 64.3362 	 -62.3178
| 14> H 	 -129.906 	 65.1953 	 -62.466
| 15> H 	 -131.659 	 64.6765 	 -62.2622
| 16> C 	 -130.495 	 63.2984 	 -63.4185
| 17> H 	 -129.409 	 63.0406 	 -63.6088
| 18> H 	 -130.989 	 62.3539 	 -63.2855
| 19> C 	 -131.135 	 63.8806 	 -64.7305
| 20> H 	 -130.59 	 64.7405 	 -65.0244
| 21> H 	 -131.125 	 63.123 	 -65.5187
| 22> H 	 -132.207 	 64.1248 	 -64.6461
| 23> S 	 -129.419 	 61.0068 	 -57.0646
| 24> C 	 -130.546 	 59.9674 	 -56.2091
| 25> C 	 -131.868 	 60.2854 	 -56.5754
| 26> C 	 -132.017 	 61.2696 	 -57.5715
| 27> C 	 -130.745 	 61.7104 	 -57.9727
| 28> H 	 -132.656 	 59.8561 	 -55.9794
| 29> C 	 -133.381 	 61.7894 	 -58.0672
| 30> H 	 -133.149 	 62.3835 	 -58.8907
| 31> H 	 -133.827 	 62.5296 	 -57.4111
| 32> C 	 -134.395 	 60.7484 	 -58.6892
| 33> H 	 -135.005 	 60.2068 	 -57.9169
| 34> H 	 -133.917 	 59.9393 	 -59.2136
| 35> C 	 -135.402 	 61.5727 	 -59.5685
| 36> H 	 -134.91 	 61.9518 	 -60.4143
| 37> H 	 -135.839 	 62.3855 	 -59.0222
| 38> H 	 -136.214 	 60.9149 	 -59.9619
| 39> H 	 -129.287 	 65.8273 	 -60.2498
| 40> H 	 -130.241 	 59.2704 	 -55.4298
| 41> *
| 42>
| 43>                          ****END OF INPUT****

CARTESIAN COORDINATES (ANGSTROEM)
---------------------------------
  S    -129.346000   64.160500  -58.427900
  C    -129.539000   64.810100  -59.997200
  C    -130.224000   64.004800  -60.894600
  C    -130.665000   62.800500  -60.256800
  C    -130.347000   62.773800  -58.895800
  H    -131.252000   61.922100  -60.526000
  C    -130.635000   64.336200  -62.317800
  H    -129.906000   65.195300  -62.466000
  H    -131.659000   64.676500  -62.262200
  C    -130.495000   63.298400  -63.418500
  H    -129.409000   63.040600  -63.608800
  H    -130.989000   62.353900  -63.285500
  C    -131.135000   63.880600  -64.730500
  H    -130.590000   64.740500  -65.024400
  H    -131.125000   63.123000  -65.518700
  H    -132.207000   64.124800  -64.646100
  S    -129.419000   61.006800  -57.064600
  C    -130.546000   59.967400  -56.209100
  C    -131.868000   60.285400  -56.575400
  C    -132.017000   61.269600  -57.571500
  C    -130.745000   61.710400  -57.972700
  H    -132.656000   59.856100  -55.979400
  C    -133.381000   61.789400  -58.067200
  H    -133.149000   62.383500  -58.890700
  H    -133.827000   62.529600  -57.411100
  C    -134.395000   60.748400  -58.689200
  H    -135.005000   60.206800  -57.916900
  H    -133.917000   59.939300  -59.213600
  C    -135.402000   61.572700  -59.568500
  H    -134.910000   61.951800  -60.414300
  H    -135.839000   62.385500  -59.022200
  H    -136.214000   60.914900  -59.961900
  H    -129.287000   65.827300  -60.249800
  H    -130.241000   59.270400  -55.429800

 Total Charge           Charge          ....    0
 Multiplicity           Mult            ....    1
 Number of Electrons    NEL             ....  134
 Basis Dimension        Dim             ....  322

ORBITAL ENERGIES
----------------

  NO   OCC          E(Eh)            E(eV)
   0   2.0000     -88.968323     -2420.9512
   1   2.0000     -88.966502     -2420.9016
   2   2.0000     -10.327147      -281.0160
   3   2.0000     -10.326326      -280.9936
   4   2.0000     -10.318123      -280.7704
   5   2.0000     -10.309757      -280.5428
   6   2.0000     -10.306652      -280.4582
   7   2.0000     -10.301920      -280.3295
   8   2.0000     -10.296815      -280.1906
   9   2.0000     -10.295654      -280.1590
  10   2.0000     -10.293231      -280.0931
  11   2.0000     -10.292448      -280.0718
  12   2.0000     -10.292185      -280.0646
  13   2.0000     -10.291607      -280.0489
  14   2.0000     -10.278962      -279.7048
  15   2.0000     -10.278651      -279.6963
  16   2.0000      -8.083216      -219.9555
  17   2.0000      -8.081027      -219.8959
  18   2.0000      -6.041622      -164.4009
  19   2.0000      -6.039356      -164.3392
  20   2.0000      -6.037791      -164.2967
  21   2.0000      -6.035567      -164.2361
  22   2.0000      -6.034000      -164.1935
  23   2.0000      -6.032001      -164.1391
  24   2.0000      -1.003951       -27.3189
  25   2.0000      -0.981460       -26.7069
  26   2.0000      -0.909948       -24.7609
  27   2.0000      -0.902949       -24.5705
  28   2.0000      -0.866315       -23.5736
  29   2.0000      -0.852904       -23.2087
  30   2.0000      -0.847729       -23.0679
  31   2.0000      -0.809750       -22.0344
  32   2.0000      -0.780846       -21.2479
  33   2.0000      -0.768050       -20.8997
  34   2.0000      -0.709813       -19.3150
  35   2.0000      -0.704417       -19.1682
  36   2.0000      -0.691982       -18.8298
  37   2.0000      -0.658056       -17.9066
  38   2.0000      -0.643466       -17.5096
  39   2.0000      -0.612378       -16.6637
  40   2.0000      -0.595776       -16.2119
  41   2.0000      -0.572728       -15.5847
  42   2.0000      -0.562880       -15.3167
  43   2.0000      -0.559106       -15.2140
  44   2.0000      -0.525293       -14.2939
  45   2.0000      -0.522685       -14.2230
  46   2.0000      -0.514502       -14.0003
  47   2.0000      -0.503659       -13.7053
  48   2.0000      -0.502118       -13.6633
  49   2.0000      -0.500165       -13.6102
  50   2.0000      -0.488555       -13.2943
  51   2.0000      -0.477237       -12.9863
  52   2.0000      -0.465913       -12.6781
  53   2.0000      -0.462994       -12.5987
  54   2.0000      -0.461061       -12.5461
  55   2.0000      -0.448114       -12.1938
  56   2.0000      -0.446374       -12.1465
  57   2.0000      -0.442663       -12.0455
  58   2.0000      -0.433569       -11.7980
  59   2.0000      -0.433071       -11.7844
  60   2.0000      -0.424121       -11.5409
  61   2.0000      -0.418541       -11.3891
  62   2.0000      -0.412592       -11.2272
  63   2.0000      -0.343027        -9.3342
  64   2.0000      -0.333906        -9.0861
  65   2.0000      -0.329223        -8.9586
  66   2.0000      -0.287370        -7.8197
  67   0.0000       0.032758         0.8914
  68   0.0000       0.064235         1.7479
  69   0.0000       0.113174         3.0796
  70   0.0000       0.122122         3.3231
  71   0.0000       0.125395         3.4122

MULLIKEN ATOMIC CHARGES
-----------------------
   0 S :    0.129607
   1 C :   -0.120349
   2 C :   -0.072355
   3 C :    0.032305
   4 C :   -0.183192
   5 H :    0.018760
   6 C :    0.058952
   7 H :    0.030068
   8 H :    0.042012
   9 C :   -0.084779
  10 H :    0.043341
  11 H :    0.031772
  12 C :   -0.051692
  13 H :    0.027676
  14 H :    0.029621
  15 H :    0.031766
  16 S :    0.108228
  17 C :   -0.108612
  18 C :   -0.035715
  19 C :   -0.021959
  20 C :   -0.194843
  21 H :    0.016033
  22 C :    0.118963
  23 H :   -0.015476
  24 H :    0.040265
  25 C :   -0.083385
  26 H :    0.034938
  27 H :    0.032990
  28 C :   -0.055363
  29 H :    0.024957
  30 H :    0.034621
  31 H :    0.037714
  32 H :    0.039522
  33 H :    0.063607
Sum of atomic charges:   -0.0000000

LOEWDIN ATOMIC CHARGES
----------------------
   0 S :    0.412151
   1 C :   -0.214489
   2 C :   -0.065954
   3 C :   -0.064688
   4 C :   -0.192819
   5 H :    0.035536
   6 C :   -0.035998
   7 H :    0.040027
   8 H :    0.033567
   9 C :   -0.040958
  10 H :    0.034207
  11 H :    0.020290
  12 C :   -0.061080
  13 H :    0.018404
  14 H :    0.025109
  15 H :    0.026138
  16 S :    0.407445
  17 C :   -0.191778
  18 C :   -0.068632
  19 C :   -0.056115
  20 C :   -0.197285
  21 H :    0.029586
  22 C :   -0.028075
  23 H :    0.020589
  24 H :    0.037039
  25 C :   -0.034712
  26 H :    0.024602
  27 H :    0.022739
  28 C :   -0.060720
  29 H :    0.015961
  30 H :    0.024071
  31 H :    0.031055
  32 H :    0.024643
  33 H :    0.030147

  Mayer bond orders larger than 0.100000
B(  0-S ,  1-C ) :   1.1411 B(  0-S ,  4-C ) :   1.1462 B(  1-C ,  2-C ) :   1.6291
B(  1-C , 32-H ) :   0.9620 B(  2-C ,  3-C ) :   1.2042 B(  2-C ,  6-C ) :   1.0054
B(  3-C ,  4-C ) :   1.5915 B(  3-C ,  5-H ) :   0.9908 B(  4-C , 20-C ) :   1.0372
B(  6-C ,  7-H ) :   0.9395 B(  6-C ,  8-H ) :   0.9401 B(  6-C ,  9-C ) :   1.0708
B(  9-C , 10-H ) :   0.9544 B(  9-C , 11-H ) :   0.9560 B(  9-C , 12-C ) :   1.0788
B( 12-C , 13-H ) :   0.9778 B( 12-C , 14-H ) :   0.9756 B( 12-C , 15-H ) :   0.9757
B( 16-S , 17-C ) :   1.1524 B( 16-S , 20-C ) :   1.1670 B( 17-C , 18-C ) :   1.5874
B( 17-C , 20-C ) :   0.1095 B( 17-C , 33-H ) :   0.9697 B( 18-C , 19-C ) :   1.2589
B( 18-C , 21-H ) :   0.9909 B( 19-C , 20-C ) :   1.5628 B( 19-C , 22-C ) :   1.0348
B( 22-C , 23-H ) :   0.9262 B( 22-C , 24-H ) :   0.9283 B( 22-C , 25-C ) :   1.0415
B( 25-C , 26-H ) :   0.9572 B( 25-C , 27-H ) :   0.9624 B( 25-C , 28-C ) :   1.0766
B( 28-C , 29-H ) :   0.9777 B( 28-C , 30-H ) :   0.9762 B( 28-C , 31-H ) :   0.9748

Dispersion correction           -0.013591382
FINAL SINGLE POINT ENERGY     -1339.871946332241

DIPOLE MOMENT
-------------
                                X             Y             Z
Electronic contribution:     21.53915      -0.53847      23.70667
Nuclear contribution   :    -22.14416       0.56336     -24.04020
                        -----------------------------------------
Total Dipole Moment    :     -0.60500       0.02488      -0.33353
                        -----------------------------------------
Magnitude (a.u.)       :      0.69130
Magnitude (Debye)      :      1.75714

Rotational constants in cm-1:     0.016036     0.008922     0.006487
Rotational constants in MHz :   480.746381   267.484366   194.476263

                             ****ORCA TERMINATED NORMALLY****
TOTAL RUN TIME: 0 days 0 hours 0 minutes 19 seconds 981 msec
