                         Program Version 4.2.1 -  RELEASE  -
|  1> ! wB97X-D3 SP def2-SVP
|  2> %pal
|  3> nprocs 24
|  4> end
|  5>
|  6> * xyz 0 1
|  7> S 	 -95.8589 	 50.2804 	 -93.0163
|  8> C 	 -95.5889 	 48.7359 	 -92.3696
|  9> C 	 -95.3777 	 47.7882 	 -93.3303
| 10> C 	 -95.3753 	 48.378 	 -94.6302
| 11> C 	 -95.7215 	 49.6995 	 -94.6851
| 12> H 	 -95.2179 	 47.8442 	 -95.4972
| 13> C 	 -95.2751 	 46.2936 	 -92.9915
| 14> H 	 -95.6213 	 46.2351 	 -91.9635
| 15> H 	 -94.2198 	 45.9378 	 -93.0895
| 16> C 	 -96.1244 	 45.3959 	 -93.715
| 17> H 	 -97.181 	 45.7379 	 -93.8084
| 18> H 	 -95.8346 	 45.2935 	 -94.8134
| 19> C 	 -96.1802 	 43.9488 	 -93.0861
| 20> H 	 -95.2947 	 43.4482 	 -93.4038
| 21> H 	 -96.1513 	 43.934 	 -92.0018
| 22> H 	 -96.9531 	 43.3339 	 -93.4549
| 23> S 	 -95.5256 	 52.2613 	 -95.5892
| 24> C 	 -96.1764 	 52.7308 	 -97.1343
| 25> C 	 -96.7208 	 51.6138 	 -97.8153
| 26> C 	 -96.6111 	 50.4417 	 -97.0395
| 27> C 	 -95.9753 	 50.5701 	 -95.8154
| 28> H 	 -97.1029 	 51.6828 	 -98.79
| 29> C 	 -97.1592 	 49.1946 	 -97.5483
| 30> H 	 -98.2354 	 49.1994 	 -97.7782
| 31> H 	 -97.2733 	 48.4649 	 -96.7315
| 32> C 	 -96.261 	 48.6597 	 -98.6366
| 33> H 	 -95.2342 	 48.6773 	 -98.2708
| 34> H 	 -96.2538 	 49.3096 	 -99.5318
| 35> C 	 -96.4701 	 47.1431 	 -98.9233
| 36> H 	 -96.2414 	 46.5868 	 -97.9435
| 37> H 	 -95.7056 	 46.8258 	 -99.6061
| 38> H 	 -97.457 	 46.827 	 -99.3251
| 39> H 	 -95.6213 	 48.4789 	 -91.3037
| 40> H 	 -96.2996 	 53.7488 	 -97.4145
| 41> *
| 42>
| 43>                          ****END OF INPUT****

CARTESIAN COORDINATES (ANGSTROEM)
---------------------------------
  S    -95.858900   50.280400  -93.016300
  C    -95.588900   48.735900  -92.369600
  C    -95.377700   47.788200  -93.330300
  C    -95.375300   48.378000  -94.630200
  C    -95.721500   49.699500  -94.685100
  H    -95.217900   47.844200  -95.497200
  C    -95.275100   46.293600  -92.991500
  H    -95.621300   46.235100  -91.963500
  H    -94.219800   45.937800  -93.089500
  C    -96.124400   45.395900  -93.715000
  H    -97.181000   45.737900  -93.808400
  H    -95.834600   45.293500  -94.813400
  C    -96.180200   43.948800  -93.086100
  H    -95.294700   43.448200  -93.403800
  H    -96.151300   43.934000  -92.001800
  H    -96.953100   43.333900  -93.454900
  S    -95.525600   52.261300  -95.589200
  C    -96.176400   52.730800  -97.134300
  C    -96.720800   51.613800  -97.815300
  C    -96.611100   50.441700  -97.039500
  C    -95.975300   50.570100  -95.815400
  H    -97.102900   51.682800  -98.790000
  C    -97.159200   49.194600  -97.548300
  H    -98.235400   49.199400  -97.778200
  H    -97.273300   48.464900  -96.731500
  C    -96.261000   48.659700  -98.636600
  H    -95.234200   48.677300  -98.270800
  H    -96.253800   49.309600  -99.531800
  C    -96.470100   47.143100  -98.923300
  H    -96.241400   46.586800  -97.943500
  H    -95.705600   46.825800  -99.606100
  H    -97.457000   46.827000  -99.325100
  H    -95.621300   48.478900  -91.303700
  H    -96.299600   53.748800  -97.414500

 Total Charge           Charge          ....    0
 Multiplicity           Mult            ....    1
 Number of Electrons    NEL             ....  134
 Basis Dimension        Dim             ....  322

ORBITAL ENERGIES
----------------

  NO   OCC          E(Eh)            E(eV)
   0   2.0000     -88.964703     -2420.8526
   1   2.0000     -88.964163     -2420.8379
   2   2.0000     -10.330699      -281.1126
   3   2.0000     -10.327493      -281.0254
   4   2.0000     -10.320569      -280.8370
   5   2.0000     -10.310004      -280.5495
   6   2.0000     -10.298924      -280.2480
   7   2.0000     -10.297661      -280.2136
   8   2.0000     -10.293726      -280.1065
   9   2.0000     -10.292311      -280.0680
  10   2.0000     -10.290324      -280.0140
  11   2.0000     -10.289253      -279.9848
  12   2.0000     -10.287989      -279.9504
  13   2.0000     -10.286880      -279.9202
  14   2.0000     -10.283807      -279.8366
  15   2.0000     -10.275320      -279.6057
  16   2.0000      -8.079658      -219.8587
  17   2.0000      -8.079502      -219.8544
  18   2.0000      -6.038214      -164.3081
  19   2.0000      -6.037935      -164.3006
  20   2.0000      -6.034017      -164.1939
  21   2.0000      -6.033881      -164.1903
  22   2.0000      -6.030471      -164.0975
  23   2.0000      -6.030352      -164.0942
  24   2.0000      -1.011415       -27.5220
  25   2.0000      -0.989298       -26.9202
  26   2.0000      -0.921597       -25.0779
  27   2.0000      -0.916190       -24.9308
  28   2.0000      -0.873528       -23.7699
  29   2.0000      -0.852811       -23.2062
  30   2.0000      -0.845951       -23.0195
  31   2.0000      -0.818466       -22.2716
  32   2.0000      -0.784831       -21.3563
  33   2.0000      -0.773179       -21.0393
  34   2.0000      -0.710674       -19.3384
  35   2.0000      -0.701242       -19.0818
  36   2.0000      -0.689623       -18.7656
  37   2.0000      -0.669026       -18.2051
  38   2.0000      -0.646046       -17.5798
  39   2.0000      -0.628896       -17.1131
  40   2.0000      -0.605192       -16.4681
  41   2.0000      -0.578235       -15.7346
  42   2.0000      -0.568504       -15.4698
  43   2.0000      -0.559298       -15.2193
  44   2.0000      -0.531587       -14.4652
  45   2.0000      -0.530765       -14.4428
  46   2.0000      -0.517410       -14.0794
  47   2.0000      -0.512824       -13.9546
  48   2.0000      -0.506956       -13.7950
  49   2.0000      -0.502382       -13.6705
  50   2.0000      -0.492460       -13.4005
  51   2.0000      -0.487291       -13.2599
  52   2.0000      -0.471834       -12.8393
  53   2.0000      -0.465733       -12.6732
  54   2.0000      -0.459954       -12.5160
  55   2.0000      -0.454501       -12.3676
  56   2.0000      -0.444831       -12.1045
  57   2.0000      -0.443198       -12.0600
  58   2.0000      -0.435095       -11.8395
  59   2.0000      -0.422804       -11.5051
  60   2.0000      -0.418121       -11.3776
  61   2.0000      -0.409347       -11.1389
  62   2.0000      -0.407156       -11.0793
  63   2.0000      -0.356456        -9.6996
  64   2.0000      -0.332531        -9.0486
  65   2.0000      -0.330153        -8.9839
  66   2.0000      -0.286728        -7.8023
  67   0.0000       0.024765         0.6739
  68   0.0000       0.076830         2.0907
  69   0.0000       0.109312         2.9745
  70   0.0000       0.118810         3.2330
  71   0.0000       0.125825         3.4239

MULLIKEN ATOMIC CHARGES
-----------------------
   0 S :    0.111690
   1 C :   -0.120224
   2 C :   -0.098394
   3 C :    0.056734
   4 C :   -0.120282
   5 H :   -0.038309
   6 C :    0.112624
   7 H :    0.008597
   8 H :    0.044813
   9 C :   -0.137153
  10 H :    0.034406
  11 H :    0.032006
  12 C :   -0.019852
  13 H :    0.015517
  14 H :    0.028680
  15 H :    0.027745
  16 S :    0.092054
  17 C :   -0.079870
  18 C :   -0.015010
  19 C :   -0.039669
  20 C :   -0.132494
  21 H :    0.005471
  22 C :    0.058541
  23 H :    0.028862
  24 H :    0.003410
  25 C :   -0.083605
  26 H :    0.030629
  27 H :    0.035635
  28 C :   -0.063217
  29 H :    0.036745
  30 H :    0.032218
  31 H :    0.042381
  32 H :    0.053592
  33 H :    0.055732
Sum of atomic charges:    0.0000000

LOEWDIN ATOMIC CHARGES
----------------------
   0 S :    0.413476
   1 C :   -0.210367
   2 C :   -0.065977
   3 C :   -0.055731
   4 C :   -0.182238
   5 H :    0.014252
   6 C :   -0.035799
   7 H :    0.031205
   8 H :    0.038694
   9 C :   -0.051662
  10 H :    0.025502
  11 H :    0.025221
  12 C :   -0.058220
  13 H :    0.021875
  14 H :    0.024008
  15 H :    0.022269
  16 S :    0.406137
  17 C :   -0.175584
  18 C :   -0.060168
  19 C :   -0.055738
  20 C :   -0.194352
  21 H :    0.025214
  22 C :   -0.046089
  23 H :    0.034378
  24 H :    0.029300
  25 C :   -0.039440
  26 H :    0.028413
  27 H :    0.024632
  28 C :   -0.069562
  29 H :    0.031608
  30 H :    0.022466
  31 H :    0.024904
  32 H :    0.034132
  33 H :    0.023243

  Mayer bond orders larger than 0.100000
B(  0-S ,  1-C ) :   1.1506 B(  0-S ,  4-C ) :   1.1379 B(  1-C ,  2-C ) :   1.6263
B(  1-C , 32-H ) :   0.9585 B(  2-C ,  3-C ) :   1.2385 B(  2-C ,  6-C ) :   1.0140
B(  3-C ,  4-C ) :   1.5684 B(  3-C ,  5-H ) :   1.0147 B(  4-C , 20-C ) :   1.0618
B(  6-C ,  7-H ) :   0.9368 B(  6-C ,  8-H ) :   0.9292 B(  6-C ,  9-C ) :   1.0789
B(  9-C , 10-H ) :   0.9587 B(  9-C , 11-H ) :   0.9463 B(  9-C , 12-C ) :   1.0744
B( 12-C , 13-H ) :   0.9736 B( 12-C , 14-H ) :   0.9774 B( 12-C , 15-H ) :   0.9756
B( 16-S , 17-C ) :   1.1821 B( 16-S , 20-C ) :   1.1295 B( 17-C , 18-C ) :   1.5522
B( 17-C , 20-C ) :   0.1059 B( 17-C , 33-H ) :   0.9725 B( 18-C , 19-C ) :   1.2637
B( 18-C , 21-H ) :   1.0025 B( 19-C , 20-C ) :   1.5690 B( 19-C , 22-C ) :   1.0675
B( 22-C , 23-H ) :   0.9240 B( 22-C , 24-H ) :   0.9295 B( 22-C , 25-C ) :   1.0451
B( 25-C , 26-H ) :   0.9520 B( 25-C , 27-H ) :   0.9567 B( 25-C , 28-C ) :   1.0802
B( 28-C , 29-H ) :   0.9738 B( 28-C , 30-H ) :   0.9753 B( 28-C , 31-H ) :   0.9751

Dispersion correction           -0.014194148
FINAL SINGLE POINT ENERGY     -1339.876288136130

DIPOLE MOMENT
-------------
                                X             Y             Z
Electronic contribution:      3.71489      31.44570       9.31544
Nuclear contribution   :     -3.91617     -32.04389      -9.63247
                        -----------------------------------------
Total Dipole Moment    :     -0.20129      -0.59818      -0.31703
                        -----------------------------------------
Magnitude (a.u.)       :      0.70629
Magnitude (Debye)      :      1.79525

Rotational constants in cm-1:     0.018254     0.009254     0.006344
Rotational constants in MHz :   547.256075   277.441009   190.186163

                             ****ORCA TERMINATED NORMALLY****
TOTAL RUN TIME: 0 days 0 hours 0 minutes 21 seconds 879 msec
