                         Program Version 4.2.1 -  RELEASE  -
|  1> ! wB97X-D3 SP def2-SVP
|  2> %pal
|  3> nprocs 24
|  4> end
|  5>
|  6> * xyz 0 1
|  7> S 	 -60.7432 	 17.2261 	 -90.9226
|  8> C 	 -59.6142 	 18.3504 	 -90.3853
|  9> C 	 -58.3565 	 17.7679 	 -90.2593
| 10> C 	 -58.4374 	 16.3998 	 -90.5621
| 11> C 	 -59.6772 	 15.8778 	 -90.9303
| 12> H 	 -57.6113 	 15.7422 	 -90.4105
| 13> C 	 -57.1181 	 18.4295 	 -89.5857
| 14> H 	 -56.9462 	 17.9624 	 -88.6459
| 15> H 	 -57.5322 	 19.3157 	 -89.1258
| 16> C 	 -55.7727 	 18.6342 	 -90.3181
| 17> H 	 -55.9736 	 19.0695 	 -91.2899
| 18> H 	 -55.1257 	 19.4041 	 -89.828
| 19> C 	 -55.0548 	 17.3478 	 -90.6257
| 20> H 	 -55.5081 	 16.7631 	 -91.3755
| 21> H 	 -54.1069 	 17.6451 	 -91.1019
| 22> H 	 -54.8656 	 16.8115 	 -89.7118
| 23> S 	 -61.9312 	 14.3303 	 -90.9425
| 24> C 	 -61.8019 	 12.6723 	 -91.4943
| 25> C 	 -60.5673 	 12.3825 	 -92.0926
| 26> C 	 -59.5847 	 13.3997 	 -91.8581
| 27> C 	 -60.1577 	 14.5284 	 -91.3113
| 28> H 	 -60.3995 	 11.4135 	 -92.5451
| 29> C 	 -58.1003 	 13.2615 	 -92.2104
| 30> H 	 -57.469 	 14.0736 	 -91.7278
| 31> H 	 -57.9582 	 13.5258 	 -93.2304
| 32> C 	 -57.424 	 11.896 	 -91.8926
| 33> H 	 -58.0711 	 11.1352 	 -92.3406
| 34> H 	 -57.3413 	 11.7403 	 -90.8567
| 35> C 	 -56.0833 	 11.8076 	 -92.4867
| 36> H 	 -56.1566 	 12.1014 	 -93.5491
| 37> H 	 -55.7643 	 10.7602 	 -92.5383
| 38> H 	 -55.2434 	 12.3889 	 -91.9679
| 39> H 	 -59.8514 	 19.3343 	 -90.0436
| 40> H 	 -62.7011 	 12.0111 	 -91.5491
| 41> *
| 42>
| 43>                          ****END OF INPUT****

CARTESIAN COORDINATES (ANGSTROEM)
---------------------------------
  S    -60.743200   17.226100  -90.922600
  C    -59.614200   18.350400  -90.385300
  C    -58.356500   17.767900  -90.259300
  C    -58.437400   16.399800  -90.562100
  C    -59.677200   15.877800  -90.930300
  H    -57.611300   15.742200  -90.410500
  C    -57.118100   18.429500  -89.585700
  H    -56.946200   17.962400  -88.645900
  H    -57.532200   19.315700  -89.125800
  C    -55.772700   18.634200  -90.318100
  H    -55.973600   19.069500  -91.289900
  H    -55.125700   19.404100  -89.828000
  C    -55.054800   17.347800  -90.625700
  H    -55.508100   16.763100  -91.375500
  H    -54.106900   17.645100  -91.101900
  H    -54.865600   16.811500  -89.711800
  S    -61.931200   14.330300  -90.942500
  C    -61.801900   12.672300  -91.494300
  C    -60.567300   12.382500  -92.092600
  C    -59.584700   13.399700  -91.858100
  C    -60.157700   14.528400  -91.311300
  H    -60.399500   11.413500  -92.545100
  C    -58.100300   13.261500  -92.210400
  H    -57.469000   14.073600  -91.727800
  H    -57.958200   13.525800  -93.230400
  C    -57.424000   11.896000  -91.892600
  H    -58.071100   11.135200  -92.340600
  H    -57.341300   11.740300  -90.856700
  C    -56.083300   11.807600  -92.486700
  H    -56.156600   12.101400  -93.549100
  H    -55.764300   10.760200  -92.538300
  H    -55.243400   12.388900  -91.967900
  H    -59.851400   19.334300  -90.043600
  H    -62.701100   12.011100  -91.549100

 Total Charge           Charge          ....    0
 Multiplicity           Mult            ....    1
 Number of Electrons    NEL             ....  134
 Basis Dimension        Dim             ....  322

ORBITAL ENERGIES
----------------

  NO   OCC          E(Eh)            E(eV)
   0   2.0000     -88.966809     -2420.9100
   1   2.0000     -88.963417     -2420.8176
   2   2.0000     -10.335628      -281.2467
   3   2.0000     -10.329055      -281.0679
   4   2.0000     -10.324949      -280.9561
   5   2.0000     -10.310749      -280.5697
   6   2.0000     -10.307966      -280.4940
   7   2.0000     -10.300550      -280.2922
   8   2.0000     -10.299887      -280.2742
   9   2.0000     -10.297214      -280.2015
  10   2.0000     -10.289858      -280.0013
  11   2.0000     -10.288660      -279.9687
  12   2.0000     -10.286019      -279.8968
  13   2.0000     -10.284198      -279.8473
  14   2.0000     -10.283381      -279.8250
  15   2.0000     -10.272810      -279.5374
  16   2.0000      -8.080679      -219.8865
  17   2.0000      -8.079903      -219.8653
  18   2.0000      -6.039201      -164.3350
  19   2.0000      -6.038270      -164.3097
  20   2.0000      -6.035541      -164.2354
  21   2.0000      -6.033906      -164.1909
  22   2.0000      -6.031230      -164.1181
  23   2.0000      -6.030965      -164.1109
  24   2.0000      -1.011387       -27.5213
  25   2.0000      -0.983521       -26.7630
  26   2.0000      -0.915333       -24.9075
  27   2.0000      -0.909064       -24.7369
  28   2.0000      -0.868753       -23.6400
  29   2.0000      -0.859295       -23.3826
  30   2.0000      -0.845711       -23.0130
  31   2.0000      -0.814505       -22.1638
  32   2.0000      -0.786213       -21.3939
  33   2.0000      -0.773597       -21.0506
  34   2.0000      -0.705312       -19.1925
  35   2.0000      -0.699183       -19.0257
  36   2.0000      -0.693785       -18.8789
  37   2.0000      -0.661825       -18.0092
  38   2.0000      -0.642002       -17.4698
  39   2.0000      -0.623247       -16.9594
  40   2.0000      -0.598926       -16.2976
  41   2.0000      -0.574026       -15.6200
  42   2.0000      -0.572618       -15.5817
  43   2.0000      -0.545981       -14.8569
  44   2.0000      -0.545680       -14.8487
  45   2.0000      -0.525056       -14.2875
  46   2.0000      -0.518400       -14.1064
  47   2.0000      -0.510586       -13.8938
  48   2.0000      -0.505936       -13.7672
  49   2.0000      -0.498045       -13.5525
  50   2.0000      -0.491007       -13.3610
  51   2.0000      -0.480324       -13.0703
  52   2.0000      -0.474031       -12.8990
  53   2.0000      -0.467818       -12.7300
  54   2.0000      -0.460161       -12.5216
  55   2.0000      -0.455845       -12.4042
  56   2.0000      -0.439528       -11.9602
  57   2.0000      -0.435254       -11.8439
  58   2.0000      -0.434193       -11.8150
  59   2.0000      -0.424662       -11.5556
  60   2.0000      -0.423323       -11.5192
  61   2.0000      -0.411655       -11.2017
  62   2.0000      -0.407864       -11.0985
  63   2.0000      -0.357161        -9.7188
  64   2.0000      -0.336106        -9.1459
  65   2.0000      -0.329570        -8.9680
  66   2.0000      -0.282477        -7.6866
  67   0.0000       0.022982         0.6254
  68   0.0000       0.073870         2.0101
  69   0.0000       0.104111         2.8330
  70   0.0000       0.119264         3.2453
  71   0.0000       0.131295         3.5727

MULLIKEN ATOMIC CHARGES
-----------------------
   0 S :    0.109509
   1 C :   -0.112388
   2 C :   -0.090580
   3 C :   -0.004977
   4 C :   -0.114945
   5 H :   -0.001871
   6 C :    0.074801
   7 H :    0.018060
   8 H :   -0.007054
   9 C :   -0.057042
  10 H :    0.021886
  11 H :    0.039121
  12 C :   -0.035464
  13 H :    0.031198
  14 H :    0.027944
  15 H :    0.029376
  16 S :    0.085483
  17 C :   -0.104651
  18 C :   -0.040264
  19 C :   -0.022582
  20 C :   -0.121100
  21 H :    0.024788
  22 C :    0.044426
  23 H :    0.018570
  24 H :    0.026047
  25 C :   -0.050916
  26 H :    0.027520
  27 H :    0.030105
  28 C :   -0.069703
  29 H :    0.024947
  30 H :    0.032476
  31 H :    0.049546
  32 H :    0.042325
  33 H :    0.075409
Sum of atomic charges:    0.0000000

LOEWDIN ATOMIC CHARGES
----------------------
   0 S :    0.449146
   1 C :   -0.215487
   2 C :   -0.065424
   3 C :   -0.076194
   4 C :   -0.206404
   5 H :    0.019026
   6 C :   -0.036791
   7 H :    0.028212
   8 H :    0.028891
   9 C :   -0.042226
  10 H :    0.024500
  11 H :    0.031922
  12 C :   -0.062080
  13 H :    0.019851
  14 H :    0.031915
  15 H :    0.021098
  16 S :    0.371040
  17 C :   -0.183476
  18 C :   -0.071101
  19 C :   -0.052173
  20 C :   -0.165070
  21 H :    0.030964
  22 C :   -0.031840
  23 H :    0.035998
  24 H :    0.028505
  25 C :   -0.037982
  26 H :    0.025085
  27 H :    0.022062
  28 C :   -0.071861
  29 H :    0.025878
  30 H :    0.028463
  31 H :    0.033869
  32 H :    0.025435
  33 H :    0.036252

  Mayer bond orders larger than 0.100000
B(  0-S ,  1-C ) :   1.1855 B(  0-S ,  4-C ) :   1.1756 B(  1-C ,  2-C ) :   1.5518
B(  1-C ,  4-C ) :   0.1075 B(  1-C , 32-H ) :   0.9681 B(  2-C ,  3-C ) :   1.3153
B(  2-C ,  6-C ) :   1.0075 B(  3-C ,  4-C ) :   1.5259 B(  3-C ,  5-H ) :   0.9942
B(  4-C , 20-C ) :   1.0401 B(  6-C ,  7-H ) :   0.9423 B(  6-C ,  8-H ) :   0.9314
B(  6-C ,  9-C ) :   1.0580 B(  9-C , 10-H ) :   0.9535 B(  9-C , 11-H ) :   0.9566
B(  9-C , 12-C ) :   1.0887 B( 12-C , 13-H ) :   0.9711 B( 12-C , 14-H ) :   0.9676
B( 12-C , 15-H ) :   0.9761 B( 16-S , 17-C ) :   1.1531 B( 16-S , 20-C ) :   1.1173
B( 17-C , 18-C ) :   1.6261 B( 17-C , 20-C ) :   0.1008 B( 17-C , 33-H ) :   0.9604
B( 18-C , 19-C ) :   1.2096 B( 18-C , 21-H ) :   0.9854 B( 19-C , 20-C ) :   1.6366
B( 19-C , 22-C ) :   1.0261 B( 22-C , 23-H ) :   0.9383 B( 22-C , 24-H ) :   0.9290
B( 22-C , 25-C ) :   1.0604 B( 25-C , 26-H ) :   0.9500 B( 25-C , 27-H ) :   0.9537
B( 25-C , 28-C ) :   1.1008 B( 28-C , 29-H ) :   0.9701 B( 28-C , 30-H ) :   0.9698
B( 28-C , 31-H ) :   0.9713

Dispersion correction           -0.013564738
FINAL SINGLE POINT ENERGY     -1339.868942831171

DIPOLE MOMENT
-------------
                                X             Y             Z
Electronic contribution:    -31.96527       4.32380       2.00167
Nuclear contribution   :     32.59772      -4.57991      -2.01072
                        -----------------------------------------
Total Dipole Moment    :      0.63245      -0.25610      -0.00905
                        -----------------------------------------
Magnitude (a.u.)       :      0.68239
Magnitude (Debye)      :      1.73451

Rotational constants in cm-1:     0.015790     0.009888     0.006234
Rotational constants in MHz :   473.384869   296.432743   186.892754

                             ****ORCA TERMINATED NORMALLY****
TOTAL RUN TIME: 0 days 0 hours 0 minutes 21 seconds 448 msec
