                         Program Version 4.2.1 -  RELEASE  -
|  1> ! wB97X-D3 SP def2-SVP
|  2> %pal
|  3> nprocs 24
|  4> end
|  5>
|  6> * xyz 0 1
|  7> S 	 -51.8468 	 21.3477 	 -97.9587
|  8> C 	 -51.6846 	 19.7943 	 -97.2496
|  9> C 	 -51.9262 	 18.7074 	 -98.0777
| 10> C 	 -52.2155 	 19.1519 	 -99.3878
| 11> C 	 -52.1187 	 20.5494 	 -99.5504
| 12> H 	 -52.2426 	 18.6742 	 -100.299
| 13> C 	 -51.7153 	 17.2808 	 -97.6193
| 14> H 	 -51.9588 	 17.3608 	 -96.5497
| 15> H 	 -50.5867 	 17.1658 	 -97.7286
| 16> C 	 -52.4514 	 16.1187 	 -98.2678
| 17> H 	 -52.157 	 16.0344 	 -99.2919
| 18> H 	 -51.9932 	 15.199 	 -97.8916
| 19> C 	 -53.9679 	 16.1452 	 -97.9494
| 20> H 	 -54.0659 	 16.0038 	 -96.8777
| 21> H 	 -54.3735 	 17.2176 	 -98.0856
| 22> H 	 -54.5002 	 15.4661 	 -98.5858
| 23> S 	 -53.7847 	 22.5304 	 -100.59
| 24> C 	 -53.5994 	 22.8389 	 -102.321
| 25> C 	 -52.5975 	 22.0899 	 -102.872
| 26> C 	 -52.0353 	 21.1292 	 -102.04
| 27> C 	 -52.4567 	 21.3267 	 -100.717
| 28> H 	 -52.4228 	 22.2477 	 -103.916
| 29> C 	 -50.9759 	 20.1482 	 -102.543
| 30> H 	 -50.5391 	 19.7539 	 -101.681
| 31> H 	 -50.1503 	 20.7123 	 -102.991
| 32> C 	 -51.3915 	 19.0928 	 -103.549
| 33> H 	 -50.4815 	 18.6439 	 -103.945
| 34> H 	 -51.9122 	 19.6269 	 -104.371
| 35> C 	 -52.454 	 18.0663 	 -103.123
| 36> H 	 -53.3681 	 18.5221 	 -102.689
| 37> H 	 -51.8689 	 17.5259 	 -102.357
| 38> H 	 -52.6674 	 17.2125 	 -103.837
| 39> H 	 -51.2403 	 19.7354 	 -96.2805
| 40> H 	 -54.2508 	 23.4494 	 -102.945
| 41> *
| 42>
| 43>                          ****END OF INPUT****

CARTESIAN COORDINATES (ANGSTROEM)
---------------------------------
  S    -51.846800   21.347700  -97.958700
  C    -51.684600   19.794300  -97.249600
  C    -51.926200   18.707400  -98.077700
  C    -52.215500   19.151900  -99.387800
  C    -52.118700   20.549400  -99.550400
  H    -52.242600   18.674200  -100.299000
  C    -51.715300   17.280800  -97.619300
  H    -51.958800   17.360800  -96.549700
  H    -50.586700   17.165800  -97.728600
  C    -52.451400   16.118700  -98.267800
  H    -52.157000   16.034400  -99.291900
  H    -51.993200   15.199000  -97.891600
  C    -53.967900   16.145200  -97.949400
  H    -54.065900   16.003800  -96.877700
  H    -54.373500   17.217600  -98.085600
  H    -54.500200   15.466100  -98.585800
  S    -53.784700   22.530400  -100.590000
  C    -53.599400   22.838900  -102.321000
  C    -52.597500   22.089900  -102.872000
  C    -52.035300   21.129200  -102.040000
  C    -52.456700   21.326700  -100.717000
  H    -52.422800   22.247700  -103.916000
  C    -50.975900   20.148200  -102.543000
  H    -50.539100   19.753900  -101.681000
  H    -50.150300   20.712300  -102.991000
  C    -51.391500   19.092800  -103.549000
  H    -50.481500   18.643900  -103.945000
  H    -51.912200   19.626900  -104.371000
  C    -52.454000   18.066300  -103.123000
  H    -53.368100   18.522100  -102.689000
  H    -51.868900   17.525900  -102.357000
  H    -52.667400   17.212500  -103.837000
  H    -51.240300   19.735400  -96.280500
  H    -54.250800   23.449400  -102.945000

 Total Charge           Charge          ....    0
 Multiplicity           Mult            ....    1
 Number of Electrons    NEL             ....  134
 Basis Dimension        Dim             ....  322

ORBITAL ENERGIES
----------------

  NO   OCC          E(Eh)            E(eV)
   0   2.0000     -88.967612     -2420.9318
   1   2.0000     -88.964911     -2420.8583
   2   2.0000     -10.328766      -281.0600
   3   2.0000     -10.328358      -281.0489
   4   2.0000     -10.315001      -280.6854
   5   2.0000     -10.306710      -280.4598
   6   2.0000     -10.301635      -280.3217
   7   2.0000     -10.301154      -280.3086
   8   2.0000     -10.297058      -280.1972
   9   2.0000     -10.290769      -280.0261
  10   2.0000     -10.289268      -279.9852
  11   2.0000     -10.289043      -279.9791
  12   2.0000     -10.287201      -279.9290
  13   2.0000     -10.287019      -279.9240
  14   2.0000     -10.285595      -279.8853
  15   2.0000     -10.283259      -279.8217
  16   2.0000      -8.081288      -219.9030
  17   2.0000      -8.079599      -219.8571
  18   2.0000      -6.039822      -164.3519
  19   2.0000      -6.037889      -164.2993
  20   2.0000      -6.036070      -164.2498
  21   2.0000      -6.034201      -164.1990
  22   2.0000      -6.031943      -164.1375
  23   2.0000      -6.030533      -164.0991
  24   2.0000      -1.002201       -27.2713
  25   2.0000      -0.981272       -26.7018
  26   2.0000      -0.912162       -24.8212
  27   2.0000      -0.910374       -24.7725
  28   2.0000      -0.869310       -23.6551
  29   2.0000      -0.852108       -23.1870
  30   2.0000      -0.846811       -23.0429
  31   2.0000      -0.814013       -22.1504
  32   2.0000      -0.786752       -21.4086
  33   2.0000      -0.769452       -20.9379
  34   2.0000      -0.715329       -19.4651
  35   2.0000      -0.696285       -18.9469
  36   2.0000      -0.692727       -18.8501
  37   2.0000      -0.655779       -17.8447
  38   2.0000      -0.645686       -17.5700
  39   2.0000      -0.616274       -16.7697
  40   2.0000      -0.597755       -16.2657
  41   2.0000      -0.565731       -15.3943
  42   2.0000      -0.553993       -15.0749
  43   2.0000      -0.551525       -15.0078
  44   2.0000      -0.542679       -14.7671
  45   2.0000      -0.533418       -14.5150
  46   2.0000      -0.519798       -14.1444
  47   2.0000      -0.518843       -14.1184
  48   2.0000      -0.494667       -13.4606
  49   2.0000      -0.492410       -13.3992
  50   2.0000      -0.485922       -13.2226
  51   2.0000      -0.484100       -13.1730
  52   2.0000      -0.470408       -12.8005
  53   2.0000      -0.464591       -12.6422
  54   2.0000      -0.460670       -12.5355
  55   2.0000      -0.447660       -12.1814
  56   2.0000      -0.443798       -12.0764
  57   2.0000      -0.438554       -11.9337
  58   2.0000      -0.437813       -11.9135
  59   2.0000      -0.432611       -11.7719
  60   2.0000      -0.422723       -11.5029
  61   2.0000      -0.412244       -11.2177
  62   2.0000      -0.400218       -10.8905
  63   2.0000      -0.347865        -9.4659
  64   2.0000      -0.335269        -9.1231
  65   2.0000      -0.328908        -8.9500
  66   2.0000      -0.280640        -7.6366
  67   0.0000       0.027451         0.7470
  68   0.0000       0.060411         1.6439
  69   0.0000       0.110893         3.0175
  70   0.0000       0.122647         3.3374
  71   0.0000       0.125514         3.4154

MULLIKEN ATOMIC CHARGES
-----------------------
   0 S :    0.108124
   1 C :   -0.125358
   2 C :   -0.071139
   3 C :    0.101957
   4 C :   -0.213228
   5 H :   -0.064791
   6 C :    0.008395
   7 H :    0.027009
   8 H :    0.057109
   9 C :   -0.025570
  10 H :    0.016974
  11 H :    0.021605
  12 C :   -0.055550
  13 H :    0.032035
  14 H :    0.050211
  15 H :    0.043286
  16 S :    0.110016
  17 C :   -0.098431
  18 C :   -0.026290
  19 C :   -0.046372
  20 C :   -0.137281
  21 H :    0.009801
  22 C :    0.098306
  23 H :    0.000822
  24 H :    0.033967
  25 C :   -0.073417
  26 H :    0.034926
  27 H :    0.025578
  28 C :   -0.085393
  29 H :    0.067469
  30 H :    0.029822
  31 H :    0.049374
  32 H :    0.041462
  33 H :    0.054572
Sum of atomic charges:    0.0000000

LOEWDIN ATOMIC CHARGES
----------------------
   0 S :    0.398194
   1 C :   -0.204355
   2 C :   -0.066014
   3 C :   -0.050497
   4 C :   -0.177988
   5 H :    0.014387
   6 C :   -0.038383
   7 H :    0.031640
   8 H :    0.045273
   9 C :   -0.045965
  10 H :    0.018884
  11 H :    0.028576
  12 C :   -0.063761
  13 H :    0.026827
  14 H :    0.038300
  15 H :    0.024110
  16 S :    0.381726
  17 C :   -0.180796
  18 C :   -0.070497
  19 C :   -0.057541
  20 C :   -0.184920
  21 H :    0.029124
  22 C :   -0.027308
  23 H :    0.018318
  24 H :    0.040434
  25 C :   -0.041922
  26 H :    0.027558
  27 H :    0.022748
  28 C :   -0.080857
  29 H :    0.034446
  30 H :    0.022361
  31 H :    0.037192
  32 H :    0.019431
  33 H :    0.031275

  Mayer bond orders larger than 0.100000
B(  0-S ,  1-C ) :   1.1583 B(  0-S ,  4-C ) :   1.1448 B(  1-C ,  2-C ) :   1.5941
B(  1-C ,  4-C ) :   0.1026 B(  1-C , 32-H ) :   0.9680 B(  2-C ,  3-C ) :   1.2364
B(  2-C ,  6-C ) :   1.0011 B(  3-C ,  4-C ) :   1.5582 B(  3-C ,  5-H ) :   0.9969
B(  4-C , 20-C ) :   1.0609 B(  6-C ,  7-H ) :   0.9434 B(  6-C ,  8-H ) :   0.9344
B(  6-C ,  9-C ) :   1.0885 B(  9-C , 10-H ) :   0.9479 B(  9-C , 11-H ) :   0.9472
B(  9-C , 12-C ) :   1.0604 B( 12-C , 13-H ) :   0.9727 B( 12-C , 14-H ) :   0.9794
B( 12-C , 15-H ) :   0.9757 B( 16-S , 17-C ) :   1.1346 B( 16-S , 20-C ) :   1.1361
B( 17-C , 18-C ) :   1.6342 B( 17-C , 20-C ) :   0.1030 B( 17-C , 33-H ) :   0.9631
B( 18-C , 19-C ) :   1.2345 B( 18-C , 21-H ) :   0.9902 B( 19-C , 20-C ) :   1.5789
B( 19-C , 22-C ) :   1.0390 B( 22-C , 23-H ) :   0.9238 B( 22-C , 24-H ) :   0.9328
B( 22-C , 25-C ) :   1.0733 B( 25-C , 26-H ) :   0.9549 B( 25-C , 27-H ) :   0.9561
B( 25-C , 28-C ) :   1.0713 B( 28-C , 29-H ) :   0.9667 B( 28-C , 30-H ) :   0.9639
B( 28-C , 31-H ) :   0.9690

Dispersion correction           -0.015132461
FINAL SINGLE POINT ENERGY     -1339.864776517752

DIPOLE MOMENT
-------------
                                X             Y             Z
Electronic contribution:     -2.03262      27.34898       7.51975
Nuclear contribution   :      2.30012     -27.99812      -7.90243
                        -----------------------------------------
Total Dipole Moment    :      0.26750      -0.64914      -0.38268
                        -----------------------------------------
Magnitude (a.u.)       :      0.79961
Magnitude (Debye)      :      2.03246

Rotational constants in cm-1:     0.017609     0.009785     0.007374
Rotational constants in MHz :   527.907614   293.331963   221.056231

                             ****ORCA TERMINATED NORMALLY****
TOTAL RUN TIME: 0 days 0 hours 0 minutes 22 seconds 532 msec
