                         Program Version 4.2.1 -  RELEASE  -
|  1> ! wB97X-D3 SP def2-SVP
|  2> %pal
|  3> nprocs 24
|  4> end
|  5>
|  6> * xyz 0 1
|  7> S 	 -76.1218 	 2.21194 	 -109.211
|  8> C 	 -77.3113 	 3.4661 	 -108.94
|  9> C 	 -76.7344 	 4.67511 	 -108.732
| 10> C 	 -75.3117 	 4.58117 	 -108.627
| 11> C 	 -74.8237 	 3.28685 	 -108.856
| 12> H 	 -74.5892 	 5.42312 	 -108.553
| 13> C 	 -77.4491 	 5.96769 	 -108.818
| 14> H 	 -78.123 	 6.03304 	 -109.669
| 15> H 	 -76.586 	 6.7568 	 -108.845
| 16> C 	 -78.2988 	 6.3984 	 -107.596
| 17> H 	 -79.0396 	 5.62017 	 -107.304
| 18> H 	 -77.6018 	 6.51141 	 -106.831
| 19> C 	 -78.9017 	 7.77271 	 -107.804
| 20> H 	 -78.3372 	 8.38625 	 -108.5
| 21> H 	 -79.8927 	 7.68459 	 -108.262
| 22> H 	 -79.1193 	 8.17622 	 -106.776
| 23> S 	 -72.4631 	 4.27573 	 -109.562
| 24> C 	 -70.9507 	 3.30104 	 -109.436
| 25> C 	 -71.1982 	 2.14031 	 -108.746
| 26> C 	 -72.5946 	 1.94641 	 -108.438
| 27> C 	 -73.3922 	 3.00043 	 -108.861
| 28> H 	 -70.3799 	 1.39004 	 -108.507
| 29> C 	 -73.1288 	 0.563433 	 -107.966
| 30> H 	 -74.0813 	 0.629671 	 -107.423
| 31> H 	 -72.4501 	 0.319013 	 -107.186
| 32> C 	 -73.1176 	 -0.596942 	 -108.958
| 33> H 	 -72.1513 	 -0.575357 	 -109.483
| 34> H 	 -73.8586 	 -0.458961 	 -109.774
| 35> C 	 -73.4809 	 -1.86594 	 -108.297
| 36> H 	 -72.5876 	 -2.25783 	 -107.665
| 37> H 	 -73.674 	 -2.76113 	 -108.877
| 38> H 	 -74.3763 	 -1.87011 	 -107.659
| 39> H 	 -78.3701 	 3.45764 	 -109.037
| 40> H 	 -69.9553 	 3.71593 	 -109.668
| 41> *
| 42>
| 43>                          ****END OF INPUT****

CARTESIAN COORDINATES (ANGSTROEM)
---------------------------------
  S    -76.121800    2.211940  -109.211000
  C    -77.311300    3.466100  -108.940000
  C    -76.734400    4.675110  -108.732000
  C    -75.311700    4.581170  -108.627000
  C    -74.823700    3.286850  -108.856000
  H    -74.589200    5.423120  -108.553000
  C    -77.449100    5.967690  -108.818000
  H    -78.123000    6.033040  -109.669000
  H    -76.586000    6.756800  -108.845000
  C    -78.298800    6.398400  -107.596000
  H    -79.039600    5.620170  -107.304000
  H    -77.601800    6.511410  -106.831000
  C    -78.901700    7.772710  -107.804000
  H    -78.337200    8.386250  -108.500000
  H    -79.892700    7.684590  -108.262000
  H    -79.119300    8.176220  -106.776000
  S    -72.463100    4.275730  -109.562000
  C    -70.950700    3.301040  -109.436000
  C    -71.198200    2.140310  -108.746000
  C    -72.594600    1.946410  -108.438000
  C    -73.392200    3.000430  -108.861000
  H    -70.379900    1.390040  -108.507000
  C    -73.128800    0.563433  -107.966000
  H    -74.081300    0.629671  -107.423000
  H    -72.450100    0.319013  -107.186000
  C    -73.117600   -0.596942  -108.958000
  H    -72.151300   -0.575357  -109.483000
  H    -73.858600   -0.458961  -109.774000
  C    -73.480900   -1.865940  -108.297000
  H    -72.587600   -2.257830  -107.665000
  H    -73.674000   -2.761130  -108.877000
  H    -74.376300   -1.870110  -107.659000
  H    -78.370100    3.457640  -109.037000
  H    -69.955300    3.715930  -109.668000

 Total Charge           Charge          ....    0
 Multiplicity           Mult            ....    1
 Number of Electrons    NEL             ....  134
 Basis Dimension        Dim             ....  322

ORBITAL ENERGIES
----------------

  NO   OCC          E(Eh)            E(eV)
   0   2.0000     -88.972838     -2421.0740
   1   2.0000     -88.964480     -2420.8466
   2   2.0000     -10.330684      -281.1122
   3   2.0000     -10.328166      -281.0437
   4   2.0000     -10.323618      -280.9199
   5   2.0000     -10.307739      -280.4878
   6   2.0000     -10.306465      -280.4532
   7   2.0000     -10.304197      -280.3915
   8   2.0000     -10.296335      -280.1775
   9   2.0000     -10.295278      -280.1488
  10   2.0000     -10.294331      -280.1230
  11   2.0000     -10.289644      -279.9954
  12   2.0000     -10.286993      -279.9233
  13   2.0000     -10.281192      -279.7654
  14   2.0000     -10.281108      -279.7632
  15   2.0000     -10.280414      -279.7443
  16   2.0000      -8.087145      -220.0624
  17   2.0000      -8.078955      -219.8395
  18   2.0000      -6.045800      -164.5146
  19   2.0000      -6.041628      -164.4011
  20   2.0000      -6.037861      -164.2986
  21   2.0000      -6.037630      -164.2923
  22   2.0000      -6.033529      -164.1807
  23   2.0000      -6.029508      -164.0712
  24   2.0000      -1.010230       -27.4898
  25   2.0000      -0.985165       -26.8077
  26   2.0000      -0.915911       -24.9232
  27   2.0000      -0.910853       -24.7856
  28   2.0000      -0.874959       -23.8089
  29   2.0000      -0.856746       -23.3132
  30   2.0000      -0.843973       -22.9657
  31   2.0000      -0.811929       -22.0937
  32   2.0000      -0.779697       -21.2166
  33   2.0000      -0.769654       -20.9434
  34   2.0000      -0.707008       -19.2387
  35   2.0000      -0.698837       -19.0163
  36   2.0000      -0.695937       -18.9374
  37   2.0000      -0.667235       -18.1564
  38   2.0000      -0.632499       -17.2112
  39   2.0000      -0.614405       -16.7188
  40   2.0000      -0.596921       -16.2430
  41   2.0000      -0.573745       -15.6124
  42   2.0000      -0.563884       -15.3441
  43   2.0000      -0.559677       -15.2296
  44   2.0000      -0.526423       -14.3247
  45   2.0000      -0.524669       -14.2770
  46   2.0000      -0.518805       -14.1174
  47   2.0000      -0.511612       -13.9217
  48   2.0000      -0.505542       -13.7565
  49   2.0000      -0.500074       -13.6077
  50   2.0000      -0.495422       -13.4811
  51   2.0000      -0.480084       -13.0638
  52   2.0000      -0.466782       -12.7018
  53   2.0000      -0.465757       -12.6739
  54   2.0000      -0.460308       -12.5256
  55   2.0000      -0.450598       -12.2614
  56   2.0000      -0.445240       -12.1156
  57   2.0000      -0.432617       -11.7721
  58   2.0000      -0.430131       -11.7045
  59   2.0000      -0.426261       -11.5992
  60   2.0000      -0.419578       -11.4173
  61   2.0000      -0.414618       -11.2823
  62   2.0000      -0.404549       -11.0083
  63   2.0000      -0.354735        -9.6528
  64   2.0000      -0.330757        -9.0003
  65   2.0000      -0.329296        -8.9606
  66   2.0000      -0.290684        -7.9099
  67   0.0000       0.025884         0.7043
  68   0.0000       0.075029         2.0417
  69   0.0000       0.104069         2.8318
  70   0.0000       0.111441         3.0325
  71   0.0000       0.127864         3.4793

MULLIKEN ATOMIC CHARGES
-----------------------
   0 S :    0.131308
   1 C :   -0.096120
   2 C :   -0.050516
   3 C :   -0.027655
   4 C :   -0.117465
   5 H :    0.036838
   6 C :   -0.007370
   7 H :    0.036664
   8 H :    0.036752
   9 C :   -0.060938
  10 H :    0.036315
  11 H :    0.012212
  12 C :   -0.048263
  13 H :    0.035328
  14 H :    0.025732
  15 H :    0.045079
  16 S :    0.076764
  17 C :   -0.099193
  18 C :   -0.055578
  19 C :   -0.041185
  20 C :   -0.141616
  21 H :    0.049436
  22 C :    0.042526
  23 H :    0.024829
  24 H :    0.008285
  25 C :   -0.017949
  26 H :    0.026916
  27 H :    0.028358
  28 C :   -0.080021
  29 H :    0.031106
  30 H :    0.027558
  31 H :    0.036402
  32 H :    0.025271
  33 H :    0.070187
Sum of atomic charges:    0.0000000

LOEWDIN ATOMIC CHARGES
----------------------
   0 S :    0.429957
   1 C :   -0.196073
   2 C :   -0.069283
   3 C :   -0.077163
   4 C :   -0.204140
   5 H :    0.028231
   6 C :   -0.035627
   7 H :    0.028700
   8 H :    0.042028
   9 C :   -0.040438
  10 H :    0.025795
  11 H :    0.014095
  12 C :   -0.069374
  13 H :    0.025524
  14 H :    0.024516
  15 H :    0.036373
  16 S :    0.400670
  17 C :   -0.175886
  18 C :   -0.074354
  19 C :   -0.063613
  20 C :   -0.190432
  21 H :    0.045043
  22 C :   -0.033968
  23 H :    0.027693
  24 H :    0.025826
  25 C :   -0.046247
  26 H :    0.028051
  27 H :    0.026478
  28 C :   -0.078855
  29 H :    0.032040
  30 H :    0.025321
  31 H :    0.029412
  32 H :    0.024886
  33 H :    0.034815

  Mayer bond orders larger than 0.100000
B(  0-S ,  1-C ) :   1.1271 B(  0-S ,  4-C ) :   1.1610 B(  1-C ,  2-C ) :   1.6192
B(  1-C , 32-H ) :   0.9655 B(  2-C ,  3-C ) :   1.2654 B(  2-C ,  6-C ) :   1.0165
B(  3-C ,  4-C ) :   1.5407 B(  3-C ,  5-H ) :   0.9738 B(  4-C , 20-C ) :   1.0433
B(  6-C ,  7-H ) :   0.9465 B(  6-C ,  8-H ) :   0.9416 B(  6-C ,  9-C ) :   1.0661
B(  9-C , 10-H ) :   0.9564 B(  9-C , 11-H ) :   0.9570 B(  9-C , 12-C ) :   1.0790
B( 12-C , 13-H ) :   0.9710 B( 12-C , 14-H ) :   0.9730 B( 12-C , 15-H ) :   0.9752
B( 16-S , 17-C ) :   1.1272 B( 16-S , 20-C ) :   1.1455 B( 17-C , 18-C ) :   1.6329
B( 17-C , 33-H ) :   0.9652 B( 18-C , 19-C ) :   1.2219 B( 18-C , 21-H ) :   0.9758
B( 19-C , 20-C ) :   1.6018 B( 19-C , 22-C ) :   1.0421 B( 22-C , 23-H ) :   0.9383
B( 22-C , 24-H ) :   0.9287 B( 22-C , 25-C ) :   1.0582 B( 25-C , 26-H ) :   0.9510
B( 25-C , 27-H ) :   0.9505 B( 25-C , 28-C ) :   1.0795 B( 28-C , 29-H ) :   0.9717
B( 28-C , 30-H ) :   0.9718 B( 28-C , 31-H ) :   0.9724

Dispersion correction           -0.013542789
FINAL SINGLE POINT ENERGY     -1339.868361730506

DIPOLE MOMENT
-------------
                                X             Y             Z
Electronic contribution:     10.18483       1.27892      -7.24708
Nuclear contribution   :    -10.26177      -1.29525       7.33390
                        -----------------------------------------
Total Dipole Moment    :     -0.07694      -0.01633       0.08683
                        -----------------------------------------
Magnitude (a.u.)       :      0.11715
Magnitude (Debye)      :      0.29778

Rotational constants in cm-1:     0.023350     0.007192     0.005775
Rotational constants in MHz :   700.029926   215.613000   173.124265

                             ****ORCA TERMINATED NORMALLY****
TOTAL RUN TIME: 0 days 0 hours 0 minutes 20 seconds 882 msec
