                         Program Version 4.2.1 -  RELEASE  -
|  1> ! wB97X-D3 SP def2-SVP
|  2> %pal
|  3> nprocs 24
|  4> end
|  5>
|  6> * xyz 0 1
|  7> S 	 -123.66 	 66.914 	 -38.559
|  8> C 	 -123.457 	 68.5414 	 -37.8107
|  9> C 	 -123.268 	 69.4515 	 -38.8476
| 10> C 	 -123.27 	 68.8783 	 -40.1969
| 11> C 	 -123.519 	 67.5072 	 -40.2473
| 12> H 	 -123.067 	 69.3042 	 -41.1949
| 13> C 	 -122.984 	 70.9231 	 -38.6239
| 14> H 	 -121.92 	 70.9544 	 -38.8407
| 15> H 	 -122.931 	 71.2371 	 -37.5788
| 16> C 	 -123.845 	 71.9539 	 -39.3744
| 17> H 	 -123.334 	 72.894 	 -39.256
| 18> H 	 -123.83 	 71.7996 	 -40.4289
| 19> C 	 -125.292 	 72.2144 	 -38.8491
| 20> H 	 -126.041 	 71.667 	 -39.479
| 21> H 	 -125.348 	 71.9274 	 -37.831
| 22> H 	 -125.511 	 73.2969 	 -38.8968
| 23> S 	 -122.576 	 65.2506 	 -41.5834
| 24> C 	 -123.151 	 64.8114 	 -43.2251
| 25> C 	 -124.105 	 65.6529 	 -43.5919
| 26> C 	 -124.478 	 66.6751 	 -42.6231
| 27> C 	 -123.651 	 66.6875 	 -41.4769
| 28> H 	 -124.42 	 65.4191 	 -44.5314
| 29> C 	 -125.452 	 67.8151 	 -42.9072
| 30> H 	 -125.454 	 67.9393 	 -43.9779
| 31> H 	 -124.989 	 68.7621 	 -42.5825
| 32> C 	 -126.911 	 67.5666 	 -42.585
| 33> H 	 -127.037 	 67.6531 	 -41.4948
| 34> H 	 -127.303 	 66.5205 	 -42.8299
| 35> C 	 -127.751 	 68.7156 	 -43.2177
| 36> H 	 -127.3 	 69.2261 	 -44.0699
| 37> H 	 -127.969 	 69.4933 	 -42.4994
| 38> H 	 -128.778 	 68.4014 	 -43.474
| 39> H 	 -123.364 	 68.7782 	 -36.8007
| 40> H 	 -122.907 	 63.9677 	 -43.8255
| 41> *
| 42>
| 43>                          ****END OF INPUT****

CARTESIAN COORDINATES (ANGSTROEM)
---------------------------------
  S    -123.660000   66.914000  -38.559000
  C    -123.457000   68.541400  -37.810700
  C    -123.268000   69.451500  -38.847600
  C    -123.270000   68.878300  -40.196900
  C    -123.519000   67.507200  -40.247300
  H    -123.067000   69.304200  -41.194900
  C    -122.984000   70.923100  -38.623900
  H    -121.920000   70.954400  -38.840700
  H    -122.931000   71.237100  -37.578800
  C    -123.845000   71.953900  -39.374400
  H    -123.334000   72.894000  -39.256000
  H    -123.830000   71.799600  -40.428900
  C    -125.292000   72.214400  -38.849100
  H    -126.041000   71.667000  -39.479000
  H    -125.348000   71.927400  -37.831000
  H    -125.511000   73.296900  -38.896800
  S    -122.576000   65.250600  -41.583400
  C    -123.151000   64.811400  -43.225100
  C    -124.105000   65.652900  -43.591900
  C    -124.478000   66.675100  -42.623100
  C    -123.651000   66.687500  -41.476900
  H    -124.420000   65.419100  -44.531400
  C    -125.452000   67.815100  -42.907200
  H    -125.454000   67.939300  -43.977900
  H    -124.989000   68.762100  -42.582500
  C    -126.911000   67.566600  -42.585000
  H    -127.037000   67.653100  -41.494800
  H    -127.303000   66.520500  -42.829900
  C    -127.751000   68.715600  -43.217700
  H    -127.300000   69.226100  -44.069900
  H    -127.969000   69.493300  -42.499400
  H    -128.778000   68.401400  -43.474000
  H    -123.364000   68.778200  -36.800700
  H    -122.907000   63.967700  -43.825500

 Total Charge           Charge          ....    0
 Multiplicity           Mult            ....    1
 Number of Electrons    NEL             ....  134
 Basis Dimension        Dim             ....  322

ORBITAL ENERGIES
----------------

  NO   OCC          E(Eh)            E(eV)
   0   2.0000     -88.964926     -2420.8587
   1   2.0000     -88.959277     -2420.7050
   2   2.0000     -10.341456      -281.4053
   3   2.0000     -10.339435      -281.3503
   4   2.0000     -10.319314      -280.8028
   5   2.0000     -10.315235      -280.6918
   6   2.0000     -10.314830      -280.6808
   7   2.0000     -10.311133      -280.5802
   8   2.0000     -10.304074      -280.3881
   9   2.0000     -10.293592      -280.1029
  10   2.0000     -10.292818      -280.0818
  11   2.0000     -10.290958      -280.0312
  12   2.0000     -10.287067      -279.9253
  13   2.0000     -10.285555      -279.8842
  14   2.0000     -10.281278      -279.7678
  15   2.0000     -10.277746      -279.6717
  16   2.0000      -8.078000      -219.8135
  17   2.0000      -8.073001      -219.6775
  18   2.0000      -6.036857      -164.2712
  19   2.0000      -6.032662      -164.1571
  20   2.0000      -6.031719      -164.1314
  21   2.0000      -6.028510      -164.0441
  22   2.0000      -6.027580      -164.0188
  23   2.0000      -6.023632      -163.9114
  24   2.0000      -0.995290       -27.0832
  25   2.0000      -0.975557       -26.5463
  26   2.0000      -0.908100       -24.7107
  27   2.0000      -0.907019       -24.6812
  28   2.0000      -0.873681       -23.7741
  29   2.0000      -0.841953       -22.9107
  30   2.0000      -0.837862       -22.7994
  31   2.0000      -0.825049       -22.4507
  32   2.0000      -0.780363       -21.2347
  33   2.0000      -0.769878       -20.9495
  34   2.0000      -0.715403       -19.4671
  35   2.0000      -0.700762       -19.0687
  36   2.0000      -0.696472       -18.9520
  37   2.0000      -0.657393       -17.8886
  38   2.0000      -0.646612       -17.5952
  39   2.0000      -0.616738       -16.7823
  40   2.0000      -0.593202       -16.1419
  41   2.0000      -0.576913       -15.6986
  42   2.0000      -0.557891       -15.1810
  43   2.0000      -0.552389       -15.0313
  44   2.0000      -0.533754       -14.5242
  45   2.0000      -0.527585       -14.3563
  46   2.0000      -0.518995       -14.1226
  47   2.0000      -0.513917       -13.9844
  48   2.0000      -0.511851       -13.9282
  49   2.0000      -0.499706       -13.5977
  50   2.0000      -0.484683       -13.1889
  51   2.0000      -0.480531       -13.0759
  52   2.0000      -0.468899       -12.7594
  53   2.0000      -0.464051       -12.6275
  54   2.0000      -0.459946       -12.5158
  55   2.0000      -0.448377       -12.2010
  56   2.0000      -0.441622       -12.0172
  57   2.0000      -0.438092       -11.9211
  58   2.0000      -0.431960       -11.7542
  59   2.0000      -0.427895       -11.6436
  60   2.0000      -0.410502       -11.1703
  61   2.0000      -0.406251       -11.0546
  62   2.0000      -0.400607       -10.9011
  63   2.0000      -0.347473        -9.4552
  64   2.0000      -0.326750        -8.8913
  65   2.0000      -0.325052        -8.8451
  66   2.0000      -0.302674        -8.2362
  67   0.0000       0.026008         0.7077
  68   0.0000       0.064575         1.7572
  69   0.0000       0.115239         3.1358
  70   0.0000       0.122106         3.3227
  71   0.0000       0.124014         3.3746

MULLIKEN ATOMIC CHARGES
-----------------------
   0 S :    0.094438
   1 C :   -0.088881
   2 C :   -0.075076
   3 C :    0.016512
   4 C :   -0.126049
   5 H :    0.034087
   6 C :    0.046248
   7 H :    0.038312
   8 H :    0.009422
   9 C :   -0.065143
  10 H :    0.020595
  11 H :    0.021174
  12 C :   -0.043269
  13 H :    0.048081
  14 H :    0.023131
  15 H :    0.036714
  16 S :    0.068945
  17 C :   -0.073376
  18 C :    0.001430
  19 C :   -0.002848
  20 C :   -0.174570
  21 H :   -0.020649
  22 C :    0.049216
  23 H :    0.008516
  24 H :    0.026428
  25 C :   -0.074311
  26 H :    0.039709
  27 H :    0.049007
  28 C :   -0.054508
  29 H :    0.030718
  30 H :    0.026824
  31 H :    0.030948
  32 H :    0.031375
  33 H :    0.046848
Sum of atomic charges:   -0.0000000

LOEWDIN ATOMIC CHARGES
----------------------
   0 S :    0.365408
   1 C :   -0.173646
   2 C :   -0.057710
   3 C :   -0.067450
   4 C :   -0.181458
   5 H :    0.037584
   6 C :   -0.039924
   7 H :    0.039247
   8 H :    0.028138
   9 C :   -0.041274
  10 H :    0.025306
  11 H :    0.017503
  12 C :   -0.061787
  13 H :    0.032911
  14 H :    0.019150
  15 H :    0.030350
  16 S :    0.357768
  17 C :   -0.156360
  18 C :   -0.067863
  19 C :   -0.045313
  20 C :   -0.179555
  21 H :    0.019743
  22 C :   -0.038575
  23 H :    0.026236
  24 H :    0.033183
  25 C :   -0.043190
  26 H :    0.028914
  27 H :    0.034573
  28 C :   -0.072212
  29 H :    0.022629
  30 H :    0.025764
  31 H :    0.028836
  32 H :    0.021587
  33 H :    0.031491

  Mayer bond orders larger than 0.100000
B(  0-S ,  1-C ) :   1.1101 B(  0-S ,  4-C ) :   1.1294 B(  1-C ,  2-C ) :   1.6279
B(  1-C , 32-H ) :   0.9809 B(  2-C ,  3-C ) :   1.1906 B(  2-C ,  6-C ) :   1.0191
B(  3-C ,  4-C ) :   1.6098 B(  3-C ,  5-H ) :   0.9827 B(  4-C , 20-C ) :   1.0442
B(  6-C ,  7-H ) :   0.9356 B(  6-C ,  8-H ) :   0.9423 B(  6-C ,  9-C ) :   1.0805
B(  9-C , 10-H ) :   0.9555 B(  9-C , 11-H ) :   0.9600 B(  9-C , 12-C ) :   1.0598
B( 12-C , 13-H ) :   0.9784 B( 12-C , 14-H ) :   0.9781 B( 12-C , 15-H ) :   0.9798
B( 16-S , 17-C ) :   1.1214 B( 16-S , 20-C ) :   1.1195 B( 17-C , 18-C ) :   1.6862
B( 17-C , 33-H ) :   0.9649 B( 18-C , 19-C ) :   1.1795 B( 18-C , 21-H ) :   1.0027
B( 19-C , 20-C ) :   1.6079 B( 19-C , 22-C ) :   1.0327 B( 22-C , 23-H ) :   0.9377
B( 22-C , 24-H ) :   0.9429 B( 22-C , 25-C ) :   1.0499 B( 25-C , 26-H ) :   0.9573
B( 25-C , 27-H ) :   0.9628 B( 25-C , 28-C ) :   1.0586 B( 28-C , 29-H ) :   0.9789
B( 28-C , 30-H ) :   0.9764 B( 28-C , 31-H ) :   0.9757

Dispersion correction           -0.013762509
FINAL SINGLE POINT ENERGY     -1339.848232224586

DIPOLE MOMENT
-------------
                                X             Y             Z
Electronic contribution:     16.48436     -25.30839       5.41126
Nuclear contribution   :    -16.68368      25.99168      -5.78355
                        -----------------------------------------
Total Dipole Moment    :     -0.19933       0.68329      -0.37230
                        -----------------------------------------
Magnitude (a.u.)       :      0.80326
Magnitude (Debye)      :      2.04172

Rotational constants in cm-1:     0.016637     0.009216     0.006728
Rotational constants in MHz :   498.767342   276.281023   201.703675

                             ****ORCA TERMINATED NORMALLY****
TOTAL RUN TIME: 0 days 0 hours 0 minutes 21 seconds 288 msec
