                         Program Version 4.2.1 -  RELEASE  -
|  1> ! wB97X-D3 SP def2-SVP
|  2> %pal
|  3> nprocs 24
|  4> end
|  5>
|  6> * xyz 0 1
|  7> S 	 -36.6221 	 16.738 	 14.5393
|  8> C 	 -36.8494 	 15.6967 	 15.9965
|  9> C 	 -37.9272 	 16.1363 	 16.7581
| 10> C 	 -38.6741 	 17.2113 	 16.147
| 11> C 	 -38.0977 	 17.6367 	 14.9974
| 12> H 	 -39.6416 	 17.6902 	 16.3884
| 13> C 	 -38.5963 	 15.4798 	 17.9248
| 14> H 	 -38.3468 	 16.0904 	 18.7539
| 15> H 	 -38.0841 	 14.4617 	 17.9993
| 16> C 	 -40.1728 	 15.3023 	 17.8485
| 17> H 	 -40.7784 	 16.1835 	 18.0718
| 18> H 	 -40.4346 	 15.0416 	 16.7731
| 19> C 	 -40.6836 	 14.2254 	 18.8571
| 20> H 	 -40.5587 	 13.2428 	 18.3676
| 21> H 	 -40.0784 	 14.1364 	 19.6955
| 22> H 	 -41.6862 	 14.2834 	 19.2003
| 23> S 	 -39.715 	 17.9586 	 12.6124
| 24> C 	 -40.1614 	 19.5909 	 12.1761
| 25> C 	 -39.3408 	 20.5363 	 12.7895
| 26> C 	 -38.5792 	 19.8757 	 13.8118
| 27> C 	 -38.6978 	 18.5133 	 13.9616
| 28> H 	 -39.2914 	 21.578 	 12.5136
| 29> C 	 -37.5546 	 20.5935 	 14.5936
| 30> H 	 -36.7772 	 20.5801 	 13.8964
| 31> H 	 -37.228 	 20.1583 	 15.5687
| 32> C 	 -37.8206 	 22.0743 	 14.9653
| 33> H 	 -38.1099 	 22.5266 	 14.018
| 34> H 	 -36.8754 	 22.478 	 15.2486
| 35> C 	 -38.6246 	 22.2027 	 16.1962
| 36> H 	 -39.1922 	 23.1112 	 16.1877
| 37> H 	 -38.1077 	 22.2532 	 17.2247
| 38> H 	 -39.3489 	 21.4646 	 16.1873
| 39> H 	 -36.2235 	 14.8609 	 16.1957
| 40> H 	 -40.8638 	 19.853 	 11.4381
| 41> *
| 42>
| 43>                          ****END OF INPUT****

CARTESIAN COORDINATES (ANGSTROEM)
---------------------------------
  S    -36.622100   16.738000   14.539300
  C    -36.849400   15.696700   15.996500
  C    -37.927200   16.136300   16.758100
  C    -38.674100   17.211300   16.147000
  C    -38.097700   17.636700   14.997400
  H    -39.641600   17.690200   16.388400
  C    -38.596300   15.479800   17.924800
  H    -38.346800   16.090400   18.753900
  H    -38.084100   14.461700   17.999300
  C    -40.172800   15.302300   17.848500
  H    -40.778400   16.183500   18.071800
  H    -40.434600   15.041600   16.773100
  C    -40.683600   14.225400   18.857100
  H    -40.558700   13.242800   18.367600
  H    -40.078400   14.136400   19.695500
  H    -41.686200   14.283400   19.200300
  S    -39.715000   17.958600   12.612400
  C    -40.161400   19.590900   12.176100
  C    -39.340800   20.536300   12.789500
  C    -38.579200   19.875700   13.811800
  C    -38.697800   18.513300   13.961600
  H    -39.291400   21.578000   12.513600
  C    -37.554600   20.593500   14.593600
  H    -36.777200   20.580100   13.896400
  H    -37.228000   20.158300   15.568700
  C    -37.820600   22.074300   14.965300
  H    -38.109900   22.526600   14.018000
  H    -36.875400   22.478000   15.248600
  C    -38.624600   22.202700   16.196200
  H    -39.192200   23.111200   16.187700
  H    -38.107700   22.253200   17.224700
  H    -39.348900   21.464600   16.187300
  H    -36.223500   14.860900   16.195700
  H    -40.863800   19.853000   11.438100

 Total Charge           Charge          ....    0
 Multiplicity           Mult            ....    1
 Number of Electrons    NEL             ....  134
 Basis Dimension        Dim             ....  322

ORBITAL ENERGIES
----------------

  NO   OCC          E(Eh)            E(eV)
   0   2.0000     -88.963150     -2420.8104
   1   2.0000     -88.963009     -2420.8065
   2   2.0000     -10.329313      -281.0749
   3   2.0000     -10.320544      -280.8363
   4   2.0000     -10.319848      -280.8173
   5   2.0000     -10.319749      -280.8146
   6   2.0000     -10.305188      -280.4184
   7   2.0000     -10.299170      -280.2547
   8   2.0000     -10.297994      -280.2227
   9   2.0000     -10.297927      -280.2209
  10   2.0000     -10.296722      -280.1881
  11   2.0000     -10.295544      -280.1560
  12   2.0000     -10.275967      -279.6233
  13   2.0000     -10.275731      -279.6169
  14   2.0000     -10.273055      -279.5440
  15   2.0000     -10.268796      -279.4281
  16   2.0000      -8.077304      -219.7946
  17   2.0000      -8.076713      -219.7785
  18   2.0000      -6.035867      -164.2443
  19   2.0000      -6.035320      -164.2294
  20   2.0000      -6.031923      -164.1370
  21   2.0000      -6.031525      -164.1261
  22   2.0000      -6.027977      -164.0296
  23   2.0000      -6.027310      -164.0114
  24   2.0000      -1.000684       -27.2300
  25   2.0000      -0.979318       -26.6486
  26   2.0000      -0.914730       -24.8911
  27   2.0000      -0.904228       -24.6053
  28   2.0000      -0.866267       -23.5723
  29   2.0000      -0.850451       -23.1420
  30   2.0000      -0.845112       -22.9967
  31   2.0000      -0.818843       -22.2818
  32   2.0000      -0.780182       -21.2298
  33   2.0000      -0.769520       -20.9397
  34   2.0000      -0.710125       -19.3235
  35   2.0000      -0.700547       -19.0629
  36   2.0000      -0.695552       -18.9269
  37   2.0000      -0.656089       -17.8531
  38   2.0000      -0.642585       -17.4856
  39   2.0000      -0.612412       -16.6646
  40   2.0000      -0.599159       -16.3039
  41   2.0000      -0.568276       -15.4636
  42   2.0000      -0.564146       -15.3512
  43   2.0000      -0.561950       -15.2914
  44   2.0000      -0.543456       -14.7882
  45   2.0000      -0.525225       -14.2921
  46   2.0000      -0.519450       -14.1350
  47   2.0000      -0.514832       -14.0093
  48   2.0000      -0.501079       -13.6350
  49   2.0000      -0.496241       -13.5034
  50   2.0000      -0.488248       -13.2859
  51   2.0000      -0.479680       -13.0528
  52   2.0000      -0.468157       -12.7392
  53   2.0000      -0.460231       -12.5235
  54   2.0000      -0.459991       -12.5170
  55   2.0000      -0.452180       -12.3044
  56   2.0000      -0.443714       -12.0741
  57   2.0000      -0.438860       -11.9420
  58   2.0000      -0.432812       -11.7774
  59   2.0000      -0.421480       -11.4690
  60   2.0000      -0.415724       -11.3124
  61   2.0000      -0.403480       -10.9792
  62   2.0000      -0.403294       -10.9742
  63   2.0000      -0.336212        -9.1488
  64   2.0000      -0.325173        -8.8484
  65   2.0000      -0.316509        -8.6127
  66   2.0000      -0.310036        -8.4365
  67   0.0000       0.045749         1.2449
  68   0.0000       0.047231         1.2852
  69   0.0000       0.109596         2.9823
  70   0.0000       0.117740         3.2039
  71   0.0000       0.124245         3.3809

MULLIKEN ATOMIC CHARGES
-----------------------
   0 S :    0.086788
   1 C :   -0.122531
   2 C :   -0.077030
   3 C :    0.028402
   4 C :   -0.178938
   5 H :    0.035644
   6 C :    0.071314
   7 H :    0.036400
   8 H :    0.033049
   9 C :   -0.123640
  10 H :    0.038374
  11 H :    0.052817
  12 C :   -0.018767
  13 H :    0.028349
  14 H :    0.014736
  15 H :    0.030768
  16 S :    0.106840
  17 C :   -0.071289
  18 C :   -0.028869
  19 C :   -0.036105
  20 C :   -0.148055
  21 H :    0.027216
  22 C :    0.025870
  23 H :    0.022947
  24 H :    0.041710
  25 C :   -0.045213
  26 H :    0.017492
  27 H :    0.014381
  28 C :   -0.019404
  29 H :    0.016219
  30 H :    0.047253
  31 H :    0.008671
  32 H :    0.041509
  33 H :    0.043093
Sum of atomic charges:    0.0000000

LOEWDIN ATOMIC CHARGES
----------------------
   0 S :    0.359100
   1 C :   -0.174160
   2 C :   -0.063189
   3 C :   -0.056696
   4 C :   -0.170687
   5 H :    0.046083
   6 C :   -0.032368
   7 H :    0.030566
   8 H :    0.037640
   9 C :   -0.043364
  10 H :    0.023041
  11 H :    0.032697
  12 C :   -0.062667
  13 H :    0.030823
  14 H :    0.016118
  15 H :    0.022682
  16 S :    0.392575
  17 C :   -0.162921
  18 C :   -0.076893
  19 C :   -0.053138
  20 C :   -0.214437
  21 H :    0.032582
  22 C :   -0.033880
  23 H :    0.029778
  24 H :    0.036101
  25 C :   -0.042180
  26 H :    0.018857
  27 H :    0.023783
  28 C :   -0.067362
  29 H :    0.025637
  30 H :    0.040137
  31 H :    0.013361
  32 H :    0.021612
  33 H :    0.020769

  Mayer bond orders larger than 0.100000
B(  0-S ,  1-C ) :   1.1154 B(  0-S ,  4-C ) :   1.1261 B(  1-C ,  2-C ) :   1.6527
B(  1-C , 32-H ) :   0.9729 B(  2-C ,  3-C ) :   1.1675 B(  2-C ,  6-C ) :   1.0265
B(  3-C ,  4-C ) :   1.6717 B(  3-C ,  5-H ) :   0.9811 B(  4-C , 20-C ) :   1.0014
B(  6-C ,  7-H ) :   0.9191 B(  6-C ,  8-H ) :   0.9535 B(  6-C ,  9-C ) :   1.0543
B(  9-C , 10-H ) :   0.9537 B(  9-C , 11-H ) :   0.9670 B(  9-C , 12-C ) :   1.0657
B( 12-C , 13-H ) :   0.9754 B( 12-C , 14-H ) :   0.9756 B( 12-C , 15-H ) :   0.9782
B( 16-S , 17-C ) :   1.1842 B( 16-S , 20-C ) :   1.0996 B( 17-C , 18-C ) :   1.5827
B( 17-C , 33-H ) :   0.9698 B( 18-C , 19-C ) :   1.2349 B( 18-C , 21-H ) :   0.9912
B( 19-C , 20-C ) :   1.6154 B( 19-C , 22-C ) :   1.0404 B( 22-C , 23-H ) :   0.9246
B( 22-C , 24-H ) :   0.9362 B( 22-C , 25-C ) :   1.0910 B( 25-C , 26-H ) :   0.9530
B( 25-C , 27-H ) :   0.9485 B( 25-C , 28-C ) :   1.0740 B( 28-C , 29-H ) :   0.9666
B( 28-C , 30-H ) :   0.9704 B( 28-C , 31-H ) :   0.9761

Dispersion correction           -0.014157471
FINAL SINGLE POINT ENERGY     -1339.839185785368

DIPOLE MOMENT
-------------
                                X             Y             Z
Electronic contribution:      6.50784      -5.35065     -20.81001
Nuclear contribution   :     -6.71244       5.58102      21.20428
                        -----------------------------------------
Total Dipole Moment    :     -0.20460       0.23038       0.39428
                        -----------------------------------------
Magnitude (a.u.)       :      0.50039
Magnitude (Debye)      :      1.27189

Rotational constants in cm-1:     0.018435     0.007701     0.007261
Rotational constants in MHz :   552.664576   230.881108   217.693718

                             ****ORCA TERMINATED NORMALLY****
TOTAL RUN TIME: 0 days 0 hours 0 minutes 21 seconds 236 msec
