                         Program Version 4.2.1 -  RELEASE  -
|  1> ! wB97X-D3 SP def2-SVP
|  2> %pal
|  3> nprocs 24
|  4> end
|  5>
|  6> * xyz 0 1
|  7> S 	 -43.8796 	 -1.26067 	 12.121
|  8> C 	 -43.616 	 -0.160331 	 13.4118
|  9> C 	 -43.7053 	 -0.875841 	 14.6108
| 10> C 	 -44.0024 	 -2.26956 	 14.5158
| 11> C 	 -44.1714 	 -2.59055 	 13.1915
| 12> H 	 -44.1314 	 -3.01494 	 15.3282
| 13> C 	 -43.3917 	 -0.269503 	 15.9359
| 14> H 	 -42.3412 	 -0.0971902 	 15.9293
| 15> H 	 -43.4586 	 -1.10053 	 16.6743
| 16> C 	 -44.3465 	 0.838553 	 16.427
| 17> H 	 -44.0574 	 1.77055 	 16.0206
| 18> H 	 -45.4082 	 0.668436 	 16.1478
| 19> C 	 -44.2802 	 1.13074 	 17.9384
| 20> H 	 -44.6079 	 0.203957 	 18.4063
| 21> H 	 -43.2912 	 1.3873 	 18.2207
| 22> H 	 -45.028 	 1.82131 	 18.3145
| 23> S 	 -43.4048 	 -4.55274 	 11.3749
| 24> C 	 -44.3889 	 -5.95191 	 11.09
| 25> C 	 -45.4339 	 -5.9247 	 12.031
| 26> C 	 -45.4435 	 -4.76149 	 12.9439
| 27> C 	 -44.4503 	 -3.87924 	 12.663
| 28> H 	 -46.1509 	 -6.71895 	 11.9663
| 29> C 	 -46.6182 	 -4.5736 	 13.954
| 30> H 	 -47.543 	 -4.72684 	 13.3276
| 31> H 	 -46.6242 	 -3.53926 	 14.1406
| 32> C 	 -46.5756 	 -5.32145 	 15.2704
| 33> H 	 -45.5029 	 -5.37266 	 15.4989
| 34> H 	 -47.0331 	 -6.31941 	 15.1481
| 35> C 	 -47.473 	 -4.71841 	 16.4817
| 36> H 	 -48.5331 	 -4.86682 	 16.2543
| 37> H 	 -47.2422 	 -3.6173 	 16.5953
| 38> H 	 -47.3343 	 -5.18956 	 17.4697
| 39> H 	 -43.4366 	 0.89873 	 13.3438
| 40> H 	 -44.1537 	 -6.73608 	 10.3618
| 41> *
| 42>
| 43>                          ****END OF INPUT****

CARTESIAN COORDINATES (ANGSTROEM)
---------------------------------
  S    -43.879600   -1.260670   12.121000
  C    -43.616000   -0.160331   13.411800
  C    -43.705300   -0.875841   14.610800
  C    -44.002400   -2.269560   14.515800
  C    -44.171400   -2.590550   13.191500
  H    -44.131400   -3.014940   15.328200
  C    -43.391700   -0.269503   15.935900
  H    -42.341200   -0.097190   15.929300
  H    -43.458600   -1.100530   16.674300
  C    -44.346500    0.838553   16.427000
  H    -44.057400    1.770550   16.020600
  H    -45.408200    0.668436   16.147800
  C    -44.280200    1.130740   17.938400
  H    -44.607900    0.203957   18.406300
  H    -43.291200    1.387300   18.220700
  H    -45.028000    1.821310   18.314500
  S    -43.404800   -4.552740   11.374900
  C    -44.388900   -5.951910   11.090000
  C    -45.433900   -5.924700   12.031000
  C    -45.443500   -4.761490   12.943900
  C    -44.450300   -3.879240   12.663000
  H    -46.150900   -6.718950   11.966300
  C    -46.618200   -4.573600   13.954000
  H    -47.543000   -4.726840   13.327600
  H    -46.624200   -3.539260   14.140600
  C    -46.575600   -5.321450   15.270400
  H    -45.502900   -5.372660   15.498900
  H    -47.033100   -6.319410   15.148100
  C    -47.473000   -4.718410   16.481700
  H    -48.533100   -4.866820   16.254300
  H    -47.242200   -3.617300   16.595300
  H    -47.334300   -5.189560   17.469700
  H    -43.436600    0.898730   13.343800
  H    -44.153700   -6.736080   10.361800

 Total Charge           Charge          ....    0
 Multiplicity           Mult            ....    1
 Number of Electrons    NEL             ....  134
 Basis Dimension        Dim             ....  322

ORBITAL ENERGIES
----------------

  NO   OCC          E(Eh)            E(eV)
   0   2.0000     -88.968020     -2420.9429
   1   2.0000     -88.959932     -2420.7228
   2   2.0000     -10.325437      -280.9694
   3   2.0000     -10.325080      -280.9597
   4   2.0000     -10.321851      -280.8718
   5   2.0000     -10.312428      -280.6154
   6   2.0000     -10.308129      -280.4984
   7   2.0000     -10.299786      -280.2714
   8   2.0000     -10.298479      -280.2359
   9   2.0000     -10.297721      -280.2152
  10   2.0000     -10.296145      -280.1723
  11   2.0000     -10.292501      -280.0732
  12   2.0000     -10.292067      -280.0614
  13   2.0000     -10.287551      -279.9385
  14   2.0000     -10.285953      -279.8950
  15   2.0000     -10.274110      -279.5728
  16   2.0000      -8.083455      -219.9620
  17   2.0000      -8.074680      -219.7232
  18   2.0000      -6.041926      -164.4092
  19   2.0000      -6.037681      -164.2937
  20   2.0000      -6.034374      -164.2037
  21   2.0000      -6.033330      -164.1753
  22   2.0000      -6.029066      -164.0592
  23   2.0000      -6.025383      -163.9590
  24   2.0000      -1.012163       -27.5424
  25   2.0000      -0.982513       -26.7355
  26   2.0000      -0.912303       -24.8250
  27   2.0000      -0.901900       -24.5419
  28   2.0000      -0.873599       -23.7718
  29   2.0000      -0.856392       -23.3036
  30   2.0000      -0.838041       -22.8042
  31   2.0000      -0.814871       -22.1738
  32   2.0000      -0.780775       -21.2460
  33   2.0000      -0.770801       -20.9746
  34   2.0000      -0.708393       -19.2764
  35   2.0000      -0.704067       -19.1586
  36   2.0000      -0.695466       -18.9246
  37   2.0000      -0.662308       -18.0223
  38   2.0000      -0.643670       -17.5152
  39   2.0000      -0.614482       -16.7209
  40   2.0000      -0.588886       -16.0244
  41   2.0000      -0.568076       -15.4581
  42   2.0000      -0.566464       -15.4143
  43   2.0000      -0.564051       -15.3486
  44   2.0000      -0.535083       -14.5604
  45   2.0000      -0.524915       -14.2837
  46   2.0000      -0.518964       -14.1217
  47   2.0000      -0.516351       -14.0506
  48   2.0000      -0.505106       -13.7446
  49   2.0000      -0.502162       -13.6645
  50   2.0000      -0.493525       -13.4295
  51   2.0000      -0.481926       -13.1139
  52   2.0000      -0.471093       -12.8191
  53   2.0000      -0.463202       -12.6044
  54   2.0000      -0.459002       -12.4901
  55   2.0000      -0.450710       -12.2644
  56   2.0000      -0.446095       -12.1389
  57   2.0000      -0.439831       -11.9684
  58   2.0000      -0.431809       -11.7501
  59   2.0000      -0.420705       -11.4480
  60   2.0000      -0.413820       -11.2606
  61   2.0000      -0.408624       -11.1192
  62   2.0000      -0.406646       -11.0654
  63   2.0000      -0.351820        -9.5735
  64   2.0000      -0.333964        -9.0876
  65   2.0000      -0.323582        -8.8051
  66   2.0000      -0.293805        -7.9949
  67   0.0000       0.030551         0.8313
  68   0.0000       0.070581         1.9206
  69   0.0000       0.118111         3.2140
  70   0.0000       0.124799         3.3960
  71   0.0000       0.128355         3.4927

MULLIKEN ATOMIC CHARGES
-----------------------
   0 S :    0.131165
   1 C :   -0.105366
   2 C :   -0.119809
   3 C :    0.022823
   4 C :   -0.162213
   5 H :    0.034831
   6 C :    0.072804
   7 H :    0.035119
   8 H :    0.002963
   9 C :   -0.060954
  10 H :    0.015710
  11 H :    0.038935
  12 C :   -0.042170
  13 H :    0.017290
  14 H :    0.029934
  15 H :    0.034038
  16 S :    0.091927
  17 C :   -0.107712
  18 C :   -0.031959
  19 C :   -0.050559
  20 C :   -0.152567
  21 H :    0.012722
  22 C :    0.081081
  23 H :    0.037662
  24 H :    0.005796
  25 C :   -0.069575
  26 H :    0.041525
  27 H :    0.038600
  28 C :   -0.095024
  29 H :    0.040962
  30 H :    0.042195
  31 H :    0.045918
  32 H :    0.048445
  33 H :    0.075464
Sum of atomic charges:    0.0000000

LOEWDIN ATOMIC CHARGES
----------------------
   0 S :    0.439948
   1 C :   -0.212481
   2 C :   -0.061641
   3 C :   -0.063681
   4 C :   -0.198966
   5 H :    0.043101
   6 C :   -0.037055
   7 H :    0.031846
   8 H :    0.028057
   9 C :   -0.037524
  10 H :    0.014480
  11 H :    0.030806
  12 C :   -0.060934
  13 H :    0.021303
  14 H :    0.019370
  15 H :    0.027717
  16 S :    0.384731
  17 C :   -0.192336
  18 C :   -0.071666
  19 C :   -0.054715
  20 C :   -0.189999
  21 H :    0.024094
  22 C :   -0.033773
  23 H :    0.037897
  24 H :    0.020699
  25 C :   -0.042166
  26 H :    0.025755
  27 H :    0.028357
  28 C :   -0.073743
  29 H :    0.026217
  30 H :    0.027472
  31 H :    0.029568
  32 H :    0.030825
  33 H :    0.038441

  Mayer bond orders larger than 0.100000
B(  0-S ,  1-C ) :   1.1386 B(  0-S ,  4-C ) :   1.1796 B(  1-C ,  2-C ) :   1.5744
B(  1-C , 32-H ) :   0.9788 B(  2-C ,  3-C ) :   1.2619 B(  2-C ,  6-C ) :   1.0290
B(  3-C ,  4-C ) :   1.5345 B(  3-C ,  5-H ) :   0.9903 B(  4-C , 20-C ) :   1.0521
B(  6-C ,  7-H ) :   0.9316 B(  6-C ,  8-H ) :   0.9450 B(  6-C ,  9-C ) :   1.0446
B(  9-C , 10-H ) :   0.9539 B(  9-C , 11-H ) :   0.9626 B(  9-C , 12-C ) :   1.0882
B( 12-C , 13-H ) :   0.9754 B( 12-C , 14-H ) :   0.9762 B( 12-C , 15-H ) :   0.9746
B( 16-S , 17-C ) :   1.1474 B( 16-S , 20-C ) :   1.1214 B( 17-C , 18-C ) :   1.6145
B( 17-C , 33-H ) :   0.9690 B( 18-C , 19-C ) :   1.2044 B( 18-C , 21-H ) :   0.9949
B( 19-C , 20-C ) :   1.6269 B( 19-C , 22-C ) :   1.0402 B( 22-C , 23-H ) :   0.9364
B( 22-C , 24-H ) :   0.9288 B( 22-C , 25-C ) :   1.0503 B( 25-C , 26-H ) :   0.9591
B( 25-C , 27-H ) :   0.9563 B( 25-C , 28-C ) :   1.0651 B( 28-C , 29-H ) :   0.9785
B( 28-C , 30-H ) :   0.9779 B( 28-C , 31-H ) :   0.9785

Dispersion correction           -0.013913008
FINAL SINGLE POINT ENERGY     -1339.870735419871

DIPOLE MOMENT
-------------
                                X             Y             Z
Electronic contribution:     12.43658      -5.65288     -29.31841
Nuclear contribution   :    -12.74354       5.66142      29.86119
                        -----------------------------------------
Total Dipole Moment    :     -0.30697       0.00854       0.54278
                        -----------------------------------------
Magnitude (a.u.)       :      0.62363
Magnitude (Debye)      :      1.58514

Rotational constants in cm-1:     0.018013     0.008759     0.006246
Rotational constants in MHz :   540.002428   262.588800   187.241825

                             ****ORCA TERMINATED NORMALLY****
TOTAL RUN TIME: 0 days 0 hours 0 minutes 21 seconds 202 msec
