                         Program Version 4.2.1 -  RELEASE  -
|  1> ! wB97X-D3 SP def2-SVP
|  2> %pal
|  3> nprocs 24
|  4> end
|  5>
|  6> * xyz 0 1
|  7> S 	 -62.6518 	 0.350633 	 -23.5233
|  8> C 	 -63.6062 	 1.23164 	 -24.6887
|  9> C 	 -63.3459 	 2.54899 	 -24.5928
| 10> C 	 -62.6113 	 2.94156 	 -23.4523
| 11> C 	 -62.1392 	 1.84671 	 -22.7478
| 12> H 	 -62.3453 	 3.98398 	 -23.2354
| 13> C 	 -63.7814 	 3.53802 	 -25.6622
| 14> H 	 -63.9175 	 4.54698 	 -25.374
| 15> H 	 -64.7101 	 3.11724 	 -25.9197
| 16> C 	 -62.9215 	 3.56674 	 -26.9492
| 17> H 	 -62.0128 	 4.0566 	 -26.6908
| 18> H 	 -62.8492 	 2.50128 	 -27.2697
| 19> C 	 -63.5864 	 4.27408 	 -28.1016
| 20> H 	 -64.5118 	 3.79804 	 -28.326
| 21> H 	 -63.8287 	 5.27716 	 -27.8978
| 22> H 	 -62.8981 	 4.21833 	 -28.97
| 23> S 	 -62.0273 	 1.15154 	 -20.1412
| 24> C 	 -60.6435 	 1.66295 	 -19.1995
| 25> C 	 -59.7555 	 2.46313 	 -19.9244
| 26> C 	 -60.1554 	 2.61884 	 -21.309
| 27> C 	 -61.3288 	 1.88221 	 -21.5828
| 28> H 	 -58.9372 	 2.8016 	 -19.401
| 29> C 	 -59.4422 	 3.55561 	 -22.3179
| 30> H 	 -59.3888 	 4.60008 	 -21.9124
| 31> H 	 -60.0838 	 3.61697 	 -23.1899
| 32> C 	 -58.0832 	 3.16364 	 -22.8226
| 33> H 	 -58.0999 	 2.24036 	 -23.3547
| 34> H 	 -57.4571 	 3.05324 	 -21.9785
| 35> C 	 -57.4814 	 4.16482 	 -23.8616
| 36> H 	 -57.8233 	 3.93286 	 -24.8137
| 37> H 	 -56.4616 	 4.02895 	 -23.7887
| 38> H 	 -57.6063 	 5.22972 	 -23.6183
| 39> H 	 -64.267 	 0.862924 	 -25.4968
| 40> H 	 -60.5968 	 1.55137 	 -18.1292
| 41> *
| 42>
| 43>                          ****END OF INPUT****

CARTESIAN COORDINATES (ANGSTROEM)
---------------------------------
  S    -62.651800    0.350633  -23.523300
  C    -63.606200    1.231640  -24.688700
  C    -63.345900    2.548990  -24.592800
  C    -62.611300    2.941560  -23.452300
  C    -62.139200    1.846710  -22.747800
  H    -62.345300    3.983980  -23.235400
  C    -63.781400    3.538020  -25.662200
  H    -63.917500    4.546980  -25.374000
  H    -64.710100    3.117240  -25.919700
  C    -62.921500    3.566740  -26.949200
  H    -62.012800    4.056600  -26.690800
  H    -62.849200    2.501280  -27.269700
  C    -63.586400    4.274080  -28.101600
  H    -64.511800    3.798040  -28.326000
  H    -63.828700    5.277160  -27.897800
  H    -62.898100    4.218330  -28.970000
  S    -62.027300    1.151540  -20.141200
  C    -60.643500    1.662950  -19.199500
  C    -59.755500    2.463130  -19.924400
  C    -60.155400    2.618840  -21.309000
  C    -61.328800    1.882210  -21.582800
  H    -58.937200    2.801600  -19.401000
  C    -59.442200    3.555610  -22.317900
  H    -59.388800    4.600080  -21.912400
  H    -60.083800    3.616970  -23.189900
  C    -58.083200    3.163640  -22.822600
  H    -58.099900    2.240360  -23.354700
  H    -57.457100    3.053240  -21.978500
  C    -57.481400    4.164820  -23.861600
  H    -57.823300    3.932860  -24.813700
  H    -56.461600    4.028950  -23.788700
  H    -57.606300    5.229720  -23.618300
  H    -64.267000    0.862924  -25.496800
  H    -60.596800    1.551370  -18.129200

 Total Charge           Charge          ....    0
 Multiplicity           Mult            ....    1
 Number of Electrons    NEL             ....  134
 Basis Dimension        Dim             ....  322

ORBITAL ENERGIES
----------------

  NO   OCC          E(Eh)            E(eV)
   0   2.0000     -88.966420     -2420.8994
   1   2.0000     -88.965940     -2420.8863
   2   2.0000     -10.326076      -280.9868
   3   2.0000     -10.325334      -280.9666
   4   2.0000     -10.317873      -280.7636
   5   2.0000     -10.312727      -280.6236
   6   2.0000     -10.309772      -280.5432
   7   2.0000     -10.293728      -280.1066
   8   2.0000     -10.292115      -280.0627
   9   2.0000     -10.291864      -280.0559
  10   2.0000     -10.291415      -280.0436
  11   2.0000     -10.283049      -279.8160
  12   2.0000     -10.280595      -279.7492
  13   2.0000     -10.277355      -279.6611
  14   2.0000     -10.272027      -279.5161
  15   2.0000     -10.268731      -279.4264
  16   2.0000      -8.080935      -219.8934
  17   2.0000      -8.080624      -219.8850
  18   2.0000      -6.039534      -164.3441
  19   2.0000      -6.039045      -164.3308
  20   2.0000      -6.035490      -164.2340
  21   2.0000      -6.035172      -164.2254
  22   2.0000      -6.031589      -164.1279
  23   2.0000      -6.031432      -164.1236
  24   2.0000      -1.007708       -27.4211
  25   2.0000      -0.981846       -26.7174
  26   2.0000      -0.915149       -24.9025
  27   2.0000      -0.908896       -24.7323
  28   2.0000      -0.874630       -23.7999
  29   2.0000      -0.852820       -23.2064
  30   2.0000      -0.847228       -23.0543
  31   2.0000      -0.815464       -22.1899
  32   2.0000      -0.786839       -21.4110
  33   2.0000      -0.772383       -21.0176
  34   2.0000      -0.710979       -19.3467
  35   2.0000      -0.697128       -18.9698
  36   2.0000      -0.696242       -18.9457
  37   2.0000      -0.661480       -17.9998
  38   2.0000      -0.634887       -17.2762
  39   2.0000      -0.620718       -16.8906
  40   2.0000      -0.594238       -16.1700
  41   2.0000      -0.584884       -15.9155
  42   2.0000      -0.575445       -15.6587
  43   2.0000      -0.561051       -15.2670
  44   2.0000      -0.527554       -14.3555
  45   2.0000      -0.524216       -14.2646
  46   2.0000      -0.518306       -14.1038
  47   2.0000      -0.513056       -13.9610
  48   2.0000      -0.505928       -13.7670
  49   2.0000      -0.500096       -13.6083
  50   2.0000      -0.493872       -13.4390
  51   2.0000      -0.481289       -13.0965
  52   2.0000      -0.477133       -12.9834
  53   2.0000      -0.468180       -12.7398
  54   2.0000      -0.461324       -12.5533
  55   2.0000      -0.445844       -12.1320
  56   2.0000      -0.445481       -12.1222
  57   2.0000      -0.437128       -11.8949
  58   2.0000      -0.431672       -11.7464
  59   2.0000      -0.424081       -11.5398
  60   2.0000      -0.421741       -11.4762
  61   2.0000      -0.419114       -11.4047
  62   2.0000      -0.416455       -11.3323
  63   2.0000      -0.343162        -9.3379
  64   2.0000      -0.330528        -8.9941
  65   2.0000      -0.327530        -8.9126
  66   2.0000      -0.293095        -7.9755
  67   0.0000       0.029057         0.7907
  68   0.0000       0.068078         1.8525
  69   0.0000       0.109857         2.9894
  70   0.0000       0.116516         3.1706
  71   0.0000       0.132161         3.5963

MULLIKEN ATOMIC CHARGES
-----------------------
   0 S :    0.119737
   1 C :   -0.131255
   2 C :   -0.093414
   3 C :    0.045777
   4 C :   -0.171353
   5 H :    0.023171
   6 C :    0.084481
   7 H :    0.005997
   8 H :   -0.004110
   9 C :   -0.065454
  10 H :    0.022800
  11 H :    0.027246
  12 C :   -0.013061
  13 H :    0.014904
  14 H :    0.014381
  15 H :    0.041887
  16 S :    0.114360
  17 C :   -0.095237
  18 C :   -0.015394
  19 C :   -0.001452
  20 C :   -0.165800
  21 H :   -0.008499
  22 C :    0.056512
  23 H :    0.036019
  24 H :    0.007828
  25 C :   -0.061386
  26 H :    0.025859
  27 H :    0.013963
  28 C :   -0.005338
  29 H :    0.028652
  30 H :    0.013960
  31 H :    0.023786
  32 H :    0.053708
  33 H :    0.056726
Sum of atomic charges:   -0.0000000

LOEWDIN ATOMIC CHARGES
----------------------
   0 S :    0.405700
   1 C :   -0.208600
   2 C :   -0.066130
   3 C :   -0.061598
   4 C :   -0.195083
   5 H :    0.035667
   6 C :   -0.026084
   7 H :    0.019529
   8 H :    0.021051
   9 C :   -0.032792
  10 H :    0.017661
  11 H :    0.027816
  12 C :   -0.058397
  13 H :    0.019894
  14 H :    0.015264
  15 H :    0.033519
  16 S :    0.408942
  17 C :   -0.180867
  18 C :   -0.060740
  19 C :   -0.041482
  20 C :   -0.202563
  21 H :    0.018748
  22 C :   -0.036110
  23 H :    0.035797
  24 H :    0.025326
  25 C :   -0.031185
  26 H :    0.025338
  27 H :    0.013720
  28 C :   -0.050465
  29 H :    0.017898
  30 H :    0.020058
  31 H :    0.025750
  32 H :    0.038328
  33 H :    0.026091

  Mayer bond orders larger than 0.100000
B(  0-S ,  1-C ) :   1.1201 B(  0-S ,  4-C ) :   1.1548 B(  1-C ,  2-C ) :   1.6282
B(  1-C , 32-H ) :   0.9592 B(  2-C ,  3-C ) :   1.2562 B(  2-C ,  6-C ) :   1.0170
B(  3-C ,  4-C ) :   1.5461 B(  3-C ,  5-H ) :   0.9912 B(  4-C , 20-C ) :   1.0544
B(  6-C ,  7-H ) :   0.9462 B(  6-C ,  8-H ) :   0.9319 B(  6-C ,  9-C ) :   1.0695
B(  9-C , 10-H ) :   0.9556 B(  9-C , 11-H ) :   0.9547 B(  9-C , 12-C ) :   1.0912
B( 12-C , 13-H ) :   0.9723 B( 12-C , 14-H ) :   0.9722 B( 12-C , 15-H ) :   0.9726
B( 16-S , 17-C ) :   1.1562 B( 16-S , 20-C ) :   1.1509 B( 17-C , 18-C ) :   1.6157
B( 17-C , 20-C ) :   0.1013 B( 17-C , 33-H ) :   0.9671 B( 18-C , 19-C ) :   1.2148
B( 18-C , 21-H ) :   1.0062 B( 19-C , 20-C ) :   1.5835 B( 19-C , 22-C ) :   1.0365
B( 22-C , 23-H ) :   0.9367 B( 22-C , 24-H ) :   0.9273 B( 22-C , 25-C ) :   1.0783
B( 25-C , 26-H ) :   0.9516 B( 25-C , 27-H ) :   0.9611 B( 25-C , 28-C ) :   1.0796
B( 28-C , 29-H ) :   0.9792 B( 28-C , 30-H ) :   0.9721 B( 28-C , 31-H ) :   0.9748

Dispersion correction           -0.013591056
FINAL SINGLE POINT ENERGY     -1339.866412075997

DIPOLE MOMENT
-------------
                                X             Y             Z
Electronic contribution:     -9.69642     -19.44398      22.69018
Nuclear contribution   :      9.96873      20.06976     -22.97216
                        -----------------------------------------
Total Dipole Moment    :      0.27231       0.62578      -0.28199
                        -----------------------------------------
Magnitude (a.u.)       :      0.73842
Magnitude (Debye)      :      1.87693

Rotational constants in cm-1:     0.017560     0.008721     0.006398
Rotational constants in MHz :   526.439569   261.434764   191.807181

                             ****ORCA TERMINATED NORMALLY****
TOTAL RUN TIME: 0 days 0 hours 0 minutes 21 seconds 296 msec
