                         Program Version 4.2.1 -  RELEASE  -
|  1> ! wB97X-D3 SP def2-SVP
|  2> %pal
|  3> nprocs 24
|  4> end
|  5>
|  6> * xyz 0 1
|  7> S 	 -136.101 	 72.2219 	 -68.8925
|  8> C 	 -134.353 	 72.0625 	 -69.2589
|  9> C 	 -133.603 	 72.1191 	 -68.0841
| 10> C 	 -134.375 	 72.3548 	 -66.9271
| 11> C 	 -135.734 	 72.4369 	 -67.136
| 12> H 	 -134.02 	 72.447 	 -65.9014
| 13> C 	 -132.07 	 72.0897 	 -68.0128
| 14> H 	 -131.609 	 71.7614 	 -68.8854
| 15> H 	 -131.807 	 71.3474 	 -67.2296
| 16> C 	 -131.278 	 73.4018 	 -67.5313
| 17> H 	 -131.579 	 73.481 	 -66.4452
| 18> H 	 -130.187 	 73.2701 	 -67.5856
| 19> C 	 -131.75 	 74.7633 	 -68.1656
| 20> H 	 -131.127 	 75.6045 	 -67.8512
| 21> H 	 -131.785 	 74.6382 	 -69.2691
| 22> H 	 -132.834 	 74.9321 	 -67.8788
| 23> S 	 -138.409 	 71.6883 	 -66.4539
| 24> C 	 -139.04 	 72.161 	 -64.9819
| 25> C 	 -138.165 	 72.9728 	 -64.2872
| 26> C 	 -136.97 	 73.2437 	 -65.0041
| 27> C 	 -136.892 	 72.5326 	 -66.2346
| 28> H 	 -138.49 	 73.3845 	 -63.3344
| 29> C 	 -135.984 	 74.0655 	 -64.2272
| 30> H 	 -134.965 	 73.7824 	 -64.5759
| 31> H 	 -135.875 	 73.7462 	 -63.2179
| 32> C 	 -136.191 	 75.6389 	 -64.1248
| 33> H 	 -135.414 	 76.0147 	 -63.4467
| 34> H 	 -137.093 	 75.756 	 -63.5421
| 35> C 	 -136.209 	 76.2639 	 -65.5033
| 36> H 	 -135.198 	 76.2164 	 -65.9324
| 37> H 	 -136.6 	 77.266 	 -65.3757
| 38> H 	 -136.918 	 75.7606 	 -66.122
| 39> H 	 -134.022 	 71.7143 	 -70.2351
| 40> H 	 -140.02 	 71.9845 	 -64.5541
| 41> *
| 42>
| 43>                          ****END OF INPUT****

CARTESIAN COORDINATES (ANGSTROEM)
---------------------------------
  S    -136.101000   72.221900  -68.892500
  C    -134.353000   72.062500  -69.258900
  C    -133.603000   72.119100  -68.084100
  C    -134.375000   72.354800  -66.927100
  C    -135.734000   72.436900  -67.136000
  H    -134.020000   72.447000  -65.901400
  C    -132.070000   72.089700  -68.012800
  H    -131.609000   71.761400  -68.885400
  H    -131.807000   71.347400  -67.229600
  C    -131.278000   73.401800  -67.531300
  H    -131.579000   73.481000  -66.445200
  H    -130.187000   73.270100  -67.585600
  C    -131.750000   74.763300  -68.165600
  H    -131.127000   75.604500  -67.851200
  H    -131.785000   74.638200  -69.269100
  H    -132.834000   74.932100  -67.878800
  S    -138.409000   71.688300  -66.453900
  C    -139.040000   72.161000  -64.981900
  C    -138.165000   72.972800  -64.287200
  C    -136.970000   73.243700  -65.004100
  C    -136.892000   72.532600  -66.234600
  H    -138.490000   73.384500  -63.334400
  C    -135.984000   74.065500  -64.227200
  H    -134.965000   73.782400  -64.575900
  H    -135.875000   73.746200  -63.217900
  C    -136.191000   75.638900  -64.124800
  H    -135.414000   76.014700  -63.446700
  H    -137.093000   75.756000  -63.542100
  C    -136.209000   76.263900  -65.503300
  H    -135.198000   76.216400  -65.932400
  H    -136.600000   77.266000  -65.375700
  H    -136.918000   75.760600  -66.122000
  H    -134.022000   71.714300  -70.235100
  H    -140.020000   71.984500  -64.554100

 Total Charge           Charge          ....    0
 Multiplicity           Mult            ....    1
 Number of Electrons    NEL             ....  134
 Basis Dimension        Dim             ....  322

ORBITAL ENERGIES
----------------

  NO   OCC          E(Eh)            E(eV)
   0   2.0000     -88.972803     -2421.0731
   1   2.0000     -88.964154     -2420.8377
   2   2.0000     -10.339555      -281.3536
   3   2.0000     -10.335317      -281.2383
   4   2.0000     -10.321424      -280.8602
   5   2.0000     -10.313830      -280.6536
   6   2.0000     -10.308535      -280.5095
   7   2.0000     -10.305960      -280.4394
   8   2.0000     -10.298460      -280.2353
   9   2.0000     -10.297612      -280.2123
  10   2.0000     -10.295287      -280.1490
  11   2.0000     -10.289761      -279.9986
  12   2.0000     -10.289647      -279.9955
  13   2.0000     -10.288060      -279.9523
  14   2.0000     -10.283366      -279.8246
  15   2.0000     -10.270207      -279.4665
  16   2.0000      -8.088417      -220.0970
  17   2.0000      -8.077725      -219.8061
  18   2.0000      -6.046896      -164.5444
  19   2.0000      -6.042540      -164.4259
  20   2.0000      -6.039406      -164.3406
  21   2.0000      -6.036307      -164.2563
  22   2.0000      -6.032484      -164.1522
  23   2.0000      -6.028392      -164.0409
  24   2.0000      -1.009943       -27.4819
  25   2.0000      -0.983218       -26.7547
  26   2.0000      -0.908925       -24.7331
  27   2.0000      -0.898625       -24.4528
  28   2.0000      -0.865017       -23.5383
  29   2.0000      -0.854150       -23.2426
  30   2.0000      -0.840005       -22.8577
  31   2.0000      -0.814322       -22.1588
  32   2.0000      -0.784432       -21.3455
  33   2.0000      -0.772402       -21.0181
  34   2.0000      -0.710208       -19.3257
  35   2.0000      -0.695467       -18.9246
  36   2.0000      -0.690487       -18.7891
  37   2.0000      -0.655369       -17.8335
  38   2.0000      -0.641892       -17.4668
  39   2.0000      -0.625729       -17.0269
  40   2.0000      -0.598283       -16.2801
  41   2.0000      -0.564225       -15.3533
  42   2.0000      -0.546929       -14.8827
  43   2.0000      -0.543893       -14.8001
  44   2.0000      -0.541716       -14.7408
  45   2.0000      -0.539228       -14.6731
  46   2.0000      -0.519199       -14.1281
  47   2.0000      -0.509181       -13.8555
  48   2.0000      -0.504153       -13.7187
  49   2.0000      -0.501561       -13.6482
  50   2.0000      -0.493370       -13.4253
  51   2.0000      -0.476801       -12.9744
  52   2.0000      -0.468947       -12.7607
  53   2.0000      -0.464356       -12.6358
  54   2.0000      -0.458934       -12.4882
  55   2.0000      -0.450367       -12.2551
  56   2.0000      -0.444363       -12.0917
  57   2.0000      -0.432824       -11.7777
  58   2.0000      -0.428786       -11.6679
  59   2.0000      -0.423911       -11.5352
  60   2.0000      -0.417772       -11.3681
  61   2.0000      -0.409802       -11.1513
  62   2.0000      -0.408178       -11.1071
  63   2.0000      -0.355025        -9.6607
  64   2.0000      -0.333791        -9.0829
  65   2.0000      -0.331253        -9.0139
  66   2.0000      -0.287308        -7.8181
  67   0.0000       0.019190         0.5222
  68   0.0000       0.076085         2.0704
  69   0.0000       0.103604         2.8192
  70   0.0000       0.114708         3.1214
  71   0.0000       0.126392         3.4393

MULLIKEN ATOMIC CHARGES
-----------------------
   0 S :    0.069560
   1 C :   -0.122715
   2 C :   -0.072571
   3 C :    0.013245
   4 C :   -0.145895
   5 H :    0.021758
   6 C :    0.076406
   7 H :    0.006997
   8 H :    0.036775
   9 C :   -0.121725
  10 H :    0.030438
  11 H :    0.046097
  12 C :   -0.073513
  13 H :    0.047853
  14 H :    0.034865
  15 H :    0.050667
  16 S :    0.138453
  17 C :   -0.078327
  18 C :   -0.059425
  19 C :   -0.034573
  20 C :   -0.121065
  21 H :    0.021626
  22 C :    0.032733
  23 H :   -0.006749
  24 H :    0.017106
  25 C :   -0.064404
  26 H :    0.028967
  27 H :    0.017091
  28 C :   -0.017689
  29 H :    0.044277
  30 H :    0.029994
  31 H :    0.037799
  32 H :    0.059305
  33 H :    0.056641
Sum of atomic charges:   -0.0000000

LOEWDIN ATOMIC CHARGES
----------------------
   0 S :    0.356415
   1 C :   -0.181666
   2 C :   -0.061803
   3 C :   -0.068833
   4 C :   -0.155672
   5 H :    0.033082
   6 C :   -0.027351
   7 H :    0.015776
   8 H :    0.038116
   9 C :   -0.044454
  10 H :    0.023034
  11 H :    0.026205
  12 C :   -0.076485
  13 H :    0.026931
  14 H :    0.025377
  15 H :    0.034375
  16 S :    0.452577
  17 C :   -0.212596
  18 C :   -0.074819
  19 C :   -0.055022
  20 C :   -0.215595
  21 H :    0.031548
  22 C :   -0.039487
  23 H :    0.022787
  24 H :    0.027317
  25 C :   -0.032446
  26 H :    0.025506
  27 H :    0.017717
  28 C :   -0.060568
  29 H :    0.032092
  30 H :    0.026304
  31 H :    0.025537
  32 H :    0.029791
  33 H :    0.036308

  Mayer bond orders larger than 0.100000
B(  0-S ,  1-C ) :   1.1264 B(  0-S ,  4-C ) :   1.1333 B(  1-C ,  2-C ) :   1.6120
B(  1-C ,  4-C ) :   0.1042 B(  1-C , 32-H ) :   0.9669 B(  2-C ,  3-C ) :   1.2212
B(  2-C ,  6-C ) :   1.0302 B(  3-C ,  4-C ) :   1.5978 B(  3-C ,  5-H ) :   0.9851
B(  4-C , 20-C ) :   1.0616 B(  6-C ,  7-H ) :   0.9475 B(  6-C ,  8-H ) :   0.9427
B(  6-C ,  9-C ) :   1.0516 B(  9-C , 10-H ) :   0.9591 B(  9-C , 11-H ) :   0.9609
B(  9-C , 12-C ) :   1.0675 B( 12-C , 13-H ) :   0.9756 B( 12-C , 14-H ) :   0.9788
B( 12-C , 15-H ) :   0.9703 B( 16-S , 17-C ) :   1.1865 B( 16-S , 20-C ) :   1.1500
B( 17-C , 18-C ) :   1.5713 B( 17-C , 33-H ) :   0.9637 B( 18-C , 19-C ) :   1.2833
B( 18-C , 21-H ) :   0.9915 B( 19-C , 20-C ) :   1.5184 B( 19-C , 22-C ) :   1.0412
B( 22-C , 23-H ) :   0.9323 B( 22-C , 24-H ) :   0.9381 B( 22-C , 25-C ) :   1.0692
B( 25-C , 26-H ) :   0.9535 B( 25-C , 27-H ) :   0.9557 B( 25-C , 28-C ) :   1.0745
B( 28-C , 29-H ) :   0.9748 B( 28-C , 30-H ) :   0.9710 B( 28-C , 31-H ) :   0.9740

Dispersion correction           -0.015038984
FINAL SINGLE POINT ENERGY     -1339.874449550073

DIPOLE MOMENT
-------------
                                X             Y             Z
Electronic contribution:    -20.75166     -17.71102      -8.22409
Nuclear contribution   :     21.05987      17.88004       8.78519
                        -----------------------------------------
Total Dipole Moment    :      0.30821       0.16902       0.56110
                        -----------------------------------------
Magnitude (a.u.)       :      0.66212
Magnitude (Debye)      :      1.68297

Rotational constants in cm-1:     0.018916     0.009505     0.007176
Rotational constants in MHz :   567.098615   284.942009   215.124900

                             ****ORCA TERMINATED NORMALLY****
TOTAL RUN TIME: 0 days 0 hours 0 minutes 22 seconds 286 msec
