                         Program Version 4.2.1 -  RELEASE  -
|  1> ! wB97X-D3 SP def2-SVP
|  2> %pal
|  3> nprocs 24
|  4> end
|  5>
|  6> * xyz 0 1
|  7> S 	 -62.5306 	 -3.51862 	 -22.9522
|  8> C 	 -64.1726 	 -4.0087 	 -22.8437
|  9> C 	 -64.9791 	 -2.89396 	 -22.4746
| 10> C 	 -64.3011 	 -1.60475 	 -22.652
| 11> C 	 -62.9663 	 -1.79906 	 -22.7504
| 12> H 	 -64.5972 	 -0.573382 	 -22.6354
| 13> C 	 -66.4916 	 -3.01335 	 -22.3989
| 14> H 	 -66.8107 	 -2.23189 	 -21.7198
| 15> H 	 -66.891 	 -3.90661 	 -21.9457
| 16> C 	 -67.2192 	 -2.73748 	 -23.6716
| 17> H 	 -66.921 	 -1.78158 	 -24.1218
| 18> H 	 -67.0229 	 -3.54241 	 -24.326
| 19> C 	 -68.6877 	 -2.66979 	 -23.4558
| 20> H 	 -69.0677 	 -3.56896 	 -23.0663
| 21> H 	 -68.9659 	 -1.97649 	 -22.6346
| 22> H 	 -69.3031 	 -2.48197 	 -24.3463
| 23> S 	 -61.2833 	 -0.353365 	 -21.1599
| 24> C 	 -60.4346 	 0.974122 	 -21.8298
| 25> C 	 -60.6232 	 1.07554 	 -23.1594
| 26> C 	 -61.551 	 0.136625 	 -23.6926
| 27> C 	 -61.9678 	 -0.74336 	 -22.7194
| 28> H 	 -60.1227 	 1.80997 	 -23.7359
| 29> C 	 -62.1028 	 0.262016 	 -25.106
| 30> H 	 -61.6362 	 1.12824 	 -25.5723
| 31> H 	 -63.1789 	 0.428562 	 -25.0443
| 32> C 	 -61.7207 	 -0.866584 	 -26.08
| 33> H 	 -62.2013 	 -0.833077 	 -27.0637
| 34> H 	 -61.9464 	 -1.79747 	 -25.5803
| 35> C 	 -60.2377 	 -0.79099 	 -26.476
| 36> H 	 -60.056 	 -0.0351568 	 -27.2859
| 37> H 	 -60.1064 	 -1.67434 	 -27.0545
| 38> H 	 -59.6389 	 -0.782045 	 -25.5775
| 39> H 	 -64.5821 	 -5.04757 	 -22.85
| 40> H 	 -59.6618 	 1.53574 	 -21.3457
| 41> *
| 42>
| 43>                          ****END OF INPUT****

CARTESIAN COORDINATES (ANGSTROEM)
---------------------------------
  S    -62.530600   -3.518620  -22.952200
  C    -64.172600   -4.008700  -22.843700
  C    -64.979100   -2.893960  -22.474600
  C    -64.301100   -1.604750  -22.652000
  C    -62.966300   -1.799060  -22.750400
  H    -64.597200   -0.573382  -22.635400
  C    -66.491600   -3.013350  -22.398900
  H    -66.810700   -2.231890  -21.719800
  H    -66.891000   -3.906610  -21.945700
  C    -67.219200   -2.737480  -23.671600
  H    -66.921000   -1.781580  -24.121800
  H    -67.022900   -3.542410  -24.326000
  C    -68.687700   -2.669790  -23.455800
  H    -69.067700   -3.568960  -23.066300
  H    -68.965900   -1.976490  -22.634600
  H    -69.303100   -2.481970  -24.346300
  S    -61.283300   -0.353365  -21.159900
  C    -60.434600    0.974122  -21.829800
  C    -60.623200    1.075540  -23.159400
  C    -61.551000    0.136625  -23.692600
  C    -61.967800   -0.743360  -22.719400
  H    -60.122700    1.809970  -23.735900
  C    -62.102800    0.262016  -25.106000
  H    -61.636200    1.128240  -25.572300
  H    -63.178900    0.428562  -25.044300
  C    -61.720700   -0.866584  -26.080000
  H    -62.201300   -0.833077  -27.063700
  H    -61.946400   -1.797470  -25.580300
  C    -60.237700   -0.790990  -26.476000
  H    -60.056000   -0.035157  -27.285900
  H    -60.106400   -1.674340  -27.054500
  H    -59.638900   -0.782045  -25.577500
  H    -64.582100   -5.047570  -22.850000
  H    -59.661800    1.535740  -21.345700

 Total Charge           Charge          ....    0
 Multiplicity           Mult            ....    1
 Number of Electrons    NEL             ....  134
 Basis Dimension        Dim             ....  322

ORBITAL ENERGIES
----------------

  NO   OCC          E(Eh)            E(eV)
   0   2.0000     -88.967249     -2420.9219
   1   2.0000     -88.964390     -2420.8441
   2   2.0000     -10.326071      -280.9867
   3   2.0000     -10.321657      -280.8666
   4   2.0000     -10.320765      -280.8423
   5   2.0000     -10.309535      -280.5367
   6   2.0000     -10.308668      -280.5131
   7   2.0000     -10.301208      -280.3101
   8   2.0000     -10.297994      -280.2227
   9   2.0000     -10.288823      -279.9731
  10   2.0000     -10.284963      -279.8681
  11   2.0000     -10.284088      -279.8443
  12   2.0000     -10.278510      -279.6925
  13   2.0000     -10.275878      -279.6209
  14   2.0000     -10.271328      -279.4970
  15   2.0000     -10.271201      -279.4936
  16   2.0000      -8.081587      -219.9111
  17   2.0000      -8.080058      -219.8696
  18   2.0000      -6.040122      -164.3601
  19   2.0000      -6.038473      -164.3152
  20   2.0000      -6.036090      -164.2504
  21   2.0000      -6.034385      -164.2040
  22   2.0000      -6.032383      -164.1495
  23   2.0000      -6.030907      -164.1093
  24   2.0000      -1.011126       -27.5141
  25   2.0000      -0.986571       -26.8460
  26   2.0000      -0.921744       -25.0819
  27   2.0000      -0.908684       -24.7266
  28   2.0000      -0.875414       -23.8212
  29   2.0000      -0.851176       -23.1617
  30   2.0000      -0.849436       -23.1143
  31   2.0000      -0.818656       -22.2768
  32   2.0000      -0.782106       -21.2822
  33   2.0000      -0.767452       -20.8834
  34   2.0000      -0.705600       -19.2004
  35   2.0000      -0.698736       -19.0136
  36   2.0000      -0.683493       -18.5988
  37   2.0000      -0.663176       -18.0459
  38   2.0000      -0.651498       -17.7282
  39   2.0000      -0.616309       -16.7706
  40   2.0000      -0.595889       -16.2150
  41   2.0000      -0.575257       -15.6535
  42   2.0000      -0.565390       -15.3851
  43   2.0000      -0.561305       -15.2739
  44   2.0000      -0.550556       -14.9814
  45   2.0000      -0.525171       -14.2906
  46   2.0000      -0.513672       -13.9777
  47   2.0000      -0.511651       -13.9227
  48   2.0000      -0.507591       -13.8122
  49   2.0000      -0.496527       -13.5112
  50   2.0000      -0.482871       -13.1396
  51   2.0000      -0.482225       -13.1220
  52   2.0000      -0.473984       -12.8978
  53   2.0000      -0.461632       -12.5617
  54   2.0000      -0.457549       -12.4506
  55   2.0000      -0.452941       -12.3251
  56   2.0000      -0.448644       -12.2082
  57   2.0000      -0.437155       -11.8956
  58   2.0000      -0.429851       -11.6968
  59   2.0000      -0.424002       -11.5377
  60   2.0000      -0.416141       -11.3238
  61   2.0000      -0.412959       -11.2372
  62   2.0000      -0.408800       -11.1240
  63   2.0000      -0.342292        -9.3143
  64   2.0000      -0.330849        -9.0029
  65   2.0000      -0.321470        -8.7476
  66   2.0000      -0.308587        -8.3971
  67   0.0000       0.048311         1.3146
  68   0.0000       0.052139         1.4188
  69   0.0000       0.110964         3.0195
  70   0.0000       0.123303         3.3552
  71   0.0000       0.126545         3.4435

MULLIKEN ATOMIC CHARGES
-----------------------
   0 S :    0.122610
   1 C :   -0.121848
   2 C :   -0.073417
   3 C :    0.058056
   4 C :   -0.179035
   5 H :    0.018599
   6 C :    0.032227
   7 H :    0.009349
   8 H :    0.014829
   9 C :   -0.019619
  10 H :    0.027072
  11 H :    0.012604
  12 C :   -0.032600
  13 H :   -0.000275
  14 H :    0.019454
  15 H :    0.038029
  16 S :    0.125082
  17 C :   -0.068890
  18 C :   -0.031775
  19 C :   -0.032216
  20 C :   -0.213029
  21 H :    0.002137
  22 C :    0.116543
  23 H :    0.001850
  24 H :    0.036658
  25 C :   -0.082636
  26 H :    0.027285
  27 H :    0.027882
  28 C :   -0.058462
  29 H :    0.033922
  30 H :    0.020492
  31 H :    0.047171
  32 H :    0.073160
  33 H :    0.048792
Sum of atomic charges:   -0.0000000

LOEWDIN ATOMIC CHARGES
----------------------
   0 S :    0.404860
   1 C :   -0.214557
   2 C :   -0.056765
   3 C :   -0.049935
   4 C :   -0.189371
   5 H :    0.037272
   6 C :   -0.038445
   7 H :    0.027224
   8 H :    0.026204
   9 C :   -0.036854
  10 H :    0.026232
  11 H :    0.018989
  12 C :   -0.066239
  13 H :    0.014566
  14 H :    0.026297
  15 H :    0.029429
  16 S :    0.426265
  17 C :   -0.192520
  18 C :   -0.070812
  19 C :   -0.053350
  20 C :   -0.207903
  21 H :    0.025318
  22 C :   -0.028928
  23 H :    0.027103
  24 H :    0.032468
  25 C :   -0.038415
  26 H :    0.025716
  27 H :    0.015065
  28 C :   -0.068019
  29 H :    0.030065
  30 H :    0.023797
  31 H :    0.024367
  32 H :    0.042117
  33 H :    0.028758

  Mayer bond orders larger than 0.100000
B(  0-S ,  1-C ) :   1.1453 B(  0-S ,  4-C ) :   1.1245 B(  1-C ,  2-C ) :   1.6083
B(  1-C , 32-H ) :   0.9637 B(  2-C ,  3-C ) :   1.1778 B(  2-C ,  6-C ) :   1.0515
B(  3-C ,  4-C ) :   1.6463 B(  3-C ,  5-H ) :   0.9878 B(  4-C , 20-C ) :   1.0119
B(  6-C ,  7-H ) :   0.9321 B(  6-C ,  8-H ) :   0.9460 B(  6-C ,  9-C ) :   1.0688
B(  9-C , 10-H ) :   0.9514 B(  9-C , 11-H ) :   0.9487 B(  9-C , 12-C ) :   1.0911
B( 12-C , 13-H ) :   0.9667 B( 12-C , 14-H ) :   0.9702 B( 12-C , 15-H ) :   0.9708
B( 16-S , 17-C ) :   1.1573 B( 16-S , 20-C ) :   1.1565 B( 17-C , 18-C ) :   1.6249
B( 17-C , 33-H ) :   0.9629 B( 18-C , 19-C ) :   1.2454 B( 18-C , 21-H ) :   0.9923
B( 19-C , 20-C ) :   1.6031 B( 19-C , 22-C ) :   1.0347 B( 22-C , 23-H ) :   0.9295
B( 22-C , 24-H ) :   0.9349 B( 22-C , 25-C ) :   1.0637 B( 25-C , 26-H ) :   0.9567
B( 25-C , 27-H ) :   0.9612 B( 25-C , 28-C ) :   1.0798 B( 28-C , 29-H ) :   0.9720
B( 28-C , 30-H ) :   0.9712 B( 28-C , 31-H ) :   0.9767

Dispersion correction           -0.014644298
FINAL SINGLE POINT ENERGY     -1339.870743944082

DIPOLE MOMENT
-------------
                                X             Y             Z
Electronic contribution:     16.28140      -1.30756      16.96190
Nuclear contribution   :    -16.65584       1.48433     -17.28926
                        -----------------------------------------
Total Dipole Moment    :     -0.37444       0.17677      -0.32736
                        -----------------------------------------
Magnitude (a.u.)       :      0.52784
Magnitude (Debye)      :      1.34167

Rotational constants in cm-1:     0.020111     0.007965     0.007184
Rotational constants in MHz :   602.918250   238.789762   215.357766

                             ****ORCA TERMINATED NORMALLY****
TOTAL RUN TIME: 0 days 0 hours 0 minutes 20 seconds 758 msec
