                         Program Version 4.2.1 -  RELEASE  -
|  1> ! wB97X-D3 SP def2-SVP
|  2> %pal
|  3> nprocs 24
|  4> end
|  5>
|  6> * xyz 0 1
|  7> S 	 -54.1037 	 -1.78843 	 -27.1445
|  8> C 	 -53.9907 	 -0.823403 	 -25.6967
|  9> C 	 -54.2265 	 0.512808 	 -26.0341
| 10> C 	 -54.6823 	 0.719832 	 -27.3862
| 11> C 	 -54.7363 	 -0.477815 	 -28.1341
| 12> H 	 -55.0555 	 1.65326 	 -27.742
| 13> C 	 -54.0037 	 1.54623 	 -24.967
| 14> H 	 -53.2391 	 2.14985 	 -25.4705
| 15> H 	 -53.6534 	 1.15905 	 -24.0338
| 16> C 	 -55.2568 	 2.42388 	 -24.7248
| 17> H 	 -55.748 	 2.75009 	 -25.6152
| 18> H 	 -56.1078 	 1.85511 	 -24.2852
| 19> C 	 -54.9302 	 3.67135 	 -23.888
| 20> H 	 -55.8516 	 4.05927 	 -23.4678
| 21> H 	 -54.2598 	 3.37428 	 -23.0736
| 22> H 	 -54.4428 	 4.49681 	 -24.432
| 23> S 	 -54.2596 	 -1.8334 	 -30.4672
| 24> C 	 -55.1552 	 -1.42702 	 -31.947
| 25> C 	 -56.165 	 -0.600522 	 -31.6767
| 26> C 	 -56.2194 	 -0.227417 	 -30.2755
| 27> C 	 -55.1194 	 -0.650718 	 -29.5369
| 28> H 	 -56.8503 	 -0.447937 	 -32.4547
| 29> C 	 -57.2604 	 0.765941 	 -29.7339
| 30> H 	 -57.7979 	 1.15082 	 -30.5936
| 31> H 	 -56.6976 	 1.64183 	 -29.4595
| 32> C 	 -58.0009 	 0.311997 	 -28.5604
| 33> H 	 -58.5932 	 1.09611 	 -28.1565
| 34> H 	 -57.3481 	 0.0574595 	 -27.7499
| 35> C 	 -58.6737 	 -1.10613 	 -28.8708
| 36> H 	 -59.4662 	 -1.01102 	 -29.6052
| 37> H 	 -59.268 	 -1.62046 	 -28.106
| 38> H 	 -57.9172 	 -1.8088 	 -29.2327
| 39> H 	 -53.5769 	 -0.987525 	 -24.7359
| 40> H 	 -54.9963 	 -1.81232 	 -32.9071
| 41> *
| 42>
| 43>                          ****END OF INPUT****

CARTESIAN COORDINATES (ANGSTROEM)
---------------------------------
  S    -54.103700   -1.788430  -27.144500
  C    -53.990700   -0.823403  -25.696700
  C    -54.226500    0.512808  -26.034100
  C    -54.682300    0.719832  -27.386200
  C    -54.736300   -0.477815  -28.134100
  H    -55.055500    1.653260  -27.742000
  C    -54.003700    1.546230  -24.967000
  H    -53.239100    2.149850  -25.470500
  H    -53.653400    1.159050  -24.033800
  C    -55.256800    2.423880  -24.724800
  H    -55.748000    2.750090  -25.615200
  H    -56.107800    1.855110  -24.285200
  C    -54.930200    3.671350  -23.888000
  H    -55.851600    4.059270  -23.467800
  H    -54.259800    3.374280  -23.073600
  H    -54.442800    4.496810  -24.432000
  S    -54.259600   -1.833400  -30.467200
  C    -55.155200   -1.427020  -31.947000
  C    -56.165000   -0.600522  -31.676700
  C    -56.219400   -0.227417  -30.275500
  C    -55.119400   -0.650718  -29.536900
  H    -56.850300   -0.447937  -32.454700
  C    -57.260400    0.765941  -29.733900
  H    -57.797900    1.150820  -30.593600
  H    -56.697600    1.641830  -29.459500
  C    -58.000900    0.311997  -28.560400
  H    -58.593200    1.096110  -28.156500
  H    -57.348100    0.057459  -27.749900
  C    -58.673700   -1.106130  -28.870800
  H    -59.466200   -1.011020  -29.605200
  H    -59.268000   -1.620460  -28.106000
  H    -57.917200   -1.808800  -29.232700
  H    -53.576900   -0.987525  -24.735900
  H    -54.996300   -1.812320  -32.907100

 Total Charge           Charge          ....    0
 Multiplicity           Mult            ....    1
 Number of Electrons    NEL             ....  134
 Basis Dimension        Dim             ....  322

ORBITAL ENERGIES
----------------

  NO   OCC          E(Eh)            E(eV)
   0   2.0000     -88.969415     -2420.9809
   1   2.0000     -88.962407     -2420.7902
   2   2.0000     -10.340198      -281.3711
   3   2.0000     -10.329116      -281.0695
   4   2.0000     -10.312381      -280.6142
   5   2.0000     -10.310364      -280.5593
   6   2.0000     -10.307195      -280.4730
   7   2.0000     -10.302177      -280.3365
   8   2.0000     -10.300484      -280.2904
   9   2.0000     -10.293815      -280.1090
  10   2.0000     -10.289582      -279.9938
  11   2.0000     -10.287832      -279.9461
  12   2.0000     -10.284786      -279.8633
  13   2.0000     -10.279814      -279.7280
  14   2.0000     -10.277805      -279.6733
  15   2.0000     -10.272389      -279.5259
  16   2.0000      -8.083487      -219.9629
  17   2.0000      -8.077389      -219.7969
  18   2.0000      -6.042168      -164.4157
  19   2.0000      -6.037959      -164.3012
  20   2.0000      -6.036060      -164.2495
  21   2.0000      -6.034213      -164.1993
  22   2.0000      -6.031904      -164.1364
  23   2.0000      -6.027909      -164.0278
  24   2.0000      -1.008142       -27.4329
  25   2.0000      -0.985278       -26.8108
  26   2.0000      -0.913989       -24.8709
  27   2.0000      -0.913197       -24.8494
  28   2.0000      -0.875775       -23.8311
  29   2.0000      -0.846746       -23.0411
  30   2.0000      -0.837632       -22.7931
  31   2.0000      -0.822005       -22.3679
  32   2.0000      -0.781107       -21.2550
  33   2.0000      -0.772155       -21.0114
  34   2.0000      -0.720913       -19.6170
  35   2.0000      -0.703451       -19.1419
  36   2.0000      -0.693207       -18.8631
  37   2.0000      -0.665233       -18.1019
  38   2.0000      -0.640042       -17.4164
  39   2.0000      -0.625538       -17.0218
  40   2.0000      -0.594004       -16.1637
  41   2.0000      -0.575508       -15.6604
  42   2.0000      -0.561711       -15.2849
  43   2.0000      -0.553780       -15.0691
  44   2.0000      -0.546969       -14.8838
  45   2.0000      -0.528708       -14.3869
  46   2.0000      -0.516992       -14.0681
  47   2.0000      -0.515174       -14.0186
  48   2.0000      -0.505587       -13.7577
  49   2.0000      -0.497625       -13.5411
  50   2.0000      -0.494839       -13.4652
  51   2.0000      -0.479317       -13.0429
  52   2.0000      -0.473162       -12.8754
  53   2.0000      -0.466779       -12.7017
  54   2.0000      -0.464215       -12.6319
  55   2.0000      -0.450535       -12.2597
  56   2.0000      -0.443477       -12.0676
  57   2.0000      -0.440886       -11.9971
  58   2.0000      -0.433668       -11.8007
  59   2.0000      -0.420916       -11.4537
  60   2.0000      -0.419232       -11.4079
  61   2.0000      -0.408360       -11.1121
  62   2.0000      -0.402411       -10.9502
  63   2.0000      -0.356862        -9.7107
  64   2.0000      -0.331721        -9.0266
  65   2.0000      -0.323862        -8.8127
  66   2.0000      -0.289426        -7.8757
  67   0.0000       0.021870         0.5951
  68   0.0000       0.074418         2.0250
  69   0.0000       0.105123         2.8605
  70   0.0000       0.121730         3.3124
  71   0.0000       0.131400         3.5756

MULLIKEN ATOMIC CHARGES
-----------------------
   0 S :    0.114255
   1 C :   -0.084001
   2 C :   -0.134775
   3 C :    0.041901
   4 C :   -0.137683
   5 H :    0.000296
   6 C :    0.093808
   7 H :    0.041050
   8 H :    0.016445
   9 C :   -0.098550
  10 H :    0.013988
  11 H :    0.032858
  12 C :   -0.044259
  13 H :    0.030326
  14 H :    0.027193
  15 H :    0.039180
  16 S :    0.085105
  17 C :   -0.054460
  18 C :   -0.006265
  19 C :   -0.093876
  20 C :   -0.130649
  21 H :    0.005163
  22 C :    0.092835
  23 H :    0.010333
  24 H :    0.018871
  25 C :   -0.023429
  26 H :    0.017703
  27 H :    0.043314
  28 C :   -0.079379
  29 H :    0.014699
  30 H :    0.027820
  31 H :    0.056905
  32 H :    0.031475
  33 H :    0.031802
Sum of atomic charges:    0.0000000

LOEWDIN ATOMIC CHARGES
----------------------
   0 S :    0.409127
   1 C :   -0.209753
   2 C :   -0.056248
   3 C :   -0.063739
   4 C :   -0.183768
   5 H :    0.023318
   6 C :   -0.026152
   7 H :    0.039928
   8 H :    0.025486
   9 C :   -0.045737
  10 H :    0.016630
  11 H :    0.029395
  12 C :   -0.066249
  13 H :    0.025536
  14 H :    0.023753
  15 H :    0.027034
  16 S :    0.391285
  17 C :   -0.157394
  18 C :   -0.068105
  19 C :   -0.049331
  20 C :   -0.201865
  21 H :    0.028224
  22 C :   -0.033309
  23 H :    0.028284
  24 H :    0.030163
  25 C :   -0.037444
  26 H :    0.021851
  27 H :    0.028147
  28 C :   -0.070825
  29 H :    0.017905
  30 H :    0.025087
  31 H :    0.031044
  32 H :    0.025981
  33 H :    0.021740

  Mayer bond orders larger than 0.100000
B(  0-S ,  1-C ) :   1.1247 B(  0-S ,  4-C ) :   1.1614 B(  1-C ,  2-C ) :   1.6010
B(  1-C , 32-H ) :   0.9703 B(  2-C ,  3-C ) :   1.2548 B(  2-C ,  6-C ) :   1.0285
B(  3-C ,  4-C ) :   1.5249 B(  3-C ,  5-H ) :   0.9979 B(  4-C , 20-C ) :   1.0712
B(  6-C ,  7-H ) :   0.9352 B(  6-C ,  8-H ) :   0.9428 B(  6-C ,  9-C ) :   1.0551
B(  9-C , 10-H ) :   0.9566 B(  9-C , 11-H ) :   0.9559 B(  9-C , 12-C ) :   1.0787
B( 12-C , 13-H ) :   0.9738 B( 12-C , 14-H ) :   0.9756 B( 12-C , 15-H ) :   0.9771
B( 16-S , 17-C ) :   1.1351 B( 16-S , 20-C ) :   1.1263 B( 17-C , 18-C ) :   1.6551
B( 17-C , 33-H ) :   0.9710 B( 18-C , 19-C ) :   1.2036 B( 18-C , 21-H ) :   0.9976
B( 19-C , 20-C ) :   1.5883 B( 19-C , 22-C ) :   1.0254 B( 22-C , 23-H ) :   0.9370
B( 22-C , 24-H ) :   0.9327 B( 22-C , 25-C ) :   1.0746 B( 25-C , 26-H ) :   0.9529
B( 25-C , 27-H ) :   0.9491 B( 25-C , 28-C ) :   1.0541 B( 28-C , 29-H ) :   0.9783
B( 28-C , 30-H ) :   0.9779 B( 28-C , 31-H ) :   0.9723

Dispersion correction           -0.015216041
FINAL SINGLE POINT ENERGY     -1339.860168121861

DIPOLE MOMENT
-------------
                                X             Y             Z
Electronic contribution:     14.61403     -19.00043     -14.17545
Nuclear contribution   :    -14.94249      19.61911      14.27094
                        -----------------------------------------
Total Dipole Moment    :     -0.32847       0.61869       0.09549
                        -----------------------------------------
Magnitude (a.u.)       :      0.70695
Magnitude (Debye)      :      1.79693

Rotational constants in cm-1:     0.021654     0.008498     0.007085
Rotational constants in MHz :   649.157470   254.762337   212.403628

                             ****ORCA TERMINATED NORMALLY****
TOTAL RUN TIME: 0 days 0 hours 0 minutes 22 seconds 603 msec
