                         Program Version 4.2.1 -  RELEASE  -
|  1> ! wB97X-D3 SP def2-SVP
|  2> %pal
|  3> nprocs 24
|  4> end
|  5>
|  6> * xyz 0 1
|  7> S 	 -103.224 	 -1.80419 	 -106.659
|  8> C 	 -102.901 	 -0.290146 	 -107.557
|  9> C 	 -103.767 	 0.753691 	 -107.175
| 10> C 	 -104.433 	 0.316456 	 -105.973
| 11> C 	 -104.137 	 -0.923278 	 -105.423
| 12> H 	 -105.189 	 0.902111 	 -105.459
| 13> C 	 -103.739 	 2.16926 	 -107.741
| 14> H 	 -103.096 	 2.07681 	 -108.616
| 15> H 	 -103.242 	 2.82445 	 -106.997
| 16> C 	 -105.136 	 2.71984 	 -108.081
| 17> H 	 -105.574 	 2.12624 	 -108.859
| 18> H 	 -105.767 	 2.64202 	 -107.218
| 19> C 	 -105.036 	 4.26066 	 -108.48
| 20> H 	 -105.944 	 4.45963 	 -109.083
| 21> H 	 -104.971 	 4.84985 	 -107.569
| 22> H 	 -104.223 	 4.45998 	 -109.154
| 23> S 	 -104.75 	 -3.12314 	 -104.223
| 24> C 	 -105.062 	 -3.21615 	 -102.446
| 25> C 	 -105.007 	 -1.93181 	 -101.931
| 26> C 	 -104.821 	 -0.891372 	 -102.909
| 27> C 	 -104.544 	 -1.47289 	 -104.157
| 28> H 	 -105.205 	 -1.85578 	 -100.861
| 29> C 	 -104.862 	 0.564923 	 -102.621
| 30> H 	 -105.987 	 0.934031 	 -102.571
| 31> H 	 -104.289 	 1.16851 	 -103.384
| 32> C 	 -104.327 	 0.967635 	 -101.295
| 33> H 	 -104.627 	 0.350998 	 -100.451
| 34> H 	 -104.752 	 1.95927 	 -101.169
| 35> C 	 -102.76 	 1.06578 	 -101.183
| 36> H 	 -102.311 	 0.102031 	 -101.057
| 37> H 	 -102.61 	 1.61178 	 -100.255
| 38> H 	 -102.439 	 1.60925 	 -102.082
| 39> H 	 -102.361 	 -0.200443 	 -108.495
| 40> H 	 -104.976 	 -4.11158 	 -101.895
| 41> *
| 42>
| 43>                          ****END OF INPUT****

CARTESIAN COORDINATES (ANGSTROEM)
---------------------------------
  S    -103.224000   -1.804190  -106.659000
  C    -102.901000   -0.290146  -107.557000
  C    -103.767000    0.753691  -107.175000
  C    -104.433000    0.316456  -105.973000
  C    -104.137000   -0.923278  -105.423000
  H    -105.189000    0.902111  -105.459000
  C    -103.739000    2.169260  -107.741000
  H    -103.096000    2.076810  -108.616000
  H    -103.242000    2.824450  -106.997000
  C    -105.136000    2.719840  -108.081000
  H    -105.574000    2.126240  -108.859000
  H    -105.767000    2.642020  -107.218000
  C    -105.036000    4.260660  -108.480000
  H    -105.944000    4.459630  -109.083000
  H    -104.971000    4.849850  -107.569000
  H    -104.223000    4.459980  -109.154000
  S    -104.750000   -3.123140  -104.223000
  C    -105.062000   -3.216150  -102.446000
  C    -105.007000   -1.931810  -101.931000
  C    -104.821000   -0.891372  -102.909000
  C    -104.544000   -1.472890  -104.157000
  H    -105.205000   -1.855780  -100.861000
  C    -104.862000    0.564923  -102.621000
  H    -105.987000    0.934031  -102.571000
  H    -104.289000    1.168510  -103.384000
  C    -104.327000    0.967635  -101.295000
  H    -104.627000    0.350998  -100.451000
  H    -104.752000    1.959270  -101.169000
  C    -102.760000    1.065780  -101.183000
  H    -102.311000    0.102031  -101.057000
  H    -102.610000    1.611780  -100.255000
  H    -102.439000    1.609250  -102.082000
  H    -102.361000   -0.200443  -108.495000
  H    -104.976000   -4.111580  -101.895000

 Total Charge           Charge          ....    0
 Multiplicity           Mult            ....    1
 Number of Electrons    NEL             ....  134
 Basis Dimension        Dim             ....  322

ORBITAL ENERGIES
----------------

  NO   OCC          E(Eh)            E(eV)
   0   2.0000     -88.965962     -2420.8869
   1   2.0000     -88.963020     -2420.8068
   2   2.0000     -10.330633      -281.1108
   3   2.0000     -10.324902      -280.9549
   4   2.0000     -10.319168      -280.7988
   5   2.0000     -10.316767      -280.7335
   6   2.0000     -10.306118      -280.4437
   7   2.0000     -10.305762      -280.4340
   8   2.0000     -10.300676      -280.2956
   9   2.0000     -10.300370      -280.2873
  10   2.0000     -10.299894      -280.2744
  11   2.0000     -10.294409      -280.1251
  12   2.0000     -10.290152      -280.0093
  13   2.0000     -10.284616      -279.8586
  14   2.0000     -10.281486      -279.7735
  15   2.0000     -10.275091      -279.5995
  16   2.0000      -8.079626      -219.8578
  17   2.0000      -8.079086      -219.8431
  18   2.0000      -6.038381      -164.3127
  19   2.0000      -6.037540      -164.2898
  20   2.0000      -6.034487      -164.2067
  21   2.0000      -6.033379      -164.1766
  22   2.0000      -6.029966      -164.0837
  23   2.0000      -6.029840      -164.0803
  24   2.0000      -1.011501       -27.5243
  25   2.0000      -0.979016       -26.6404
  26   2.0000      -0.916933       -24.9510
  27   2.0000      -0.909326       -24.7440
  28   2.0000      -0.872863       -23.7518
  29   2.0000      -0.847625       -23.0650
  30   2.0000      -0.839560       -22.8456
  31   2.0000      -0.814764       -22.1709
  32   2.0000      -0.780855       -21.2481
  33   2.0000      -0.773264       -21.0416
  34   2.0000      -0.713955       -19.4277
  35   2.0000      -0.697455       -18.9787
  36   2.0000      -0.695179       -18.9168
  37   2.0000      -0.656710       -17.8700
  38   2.0000      -0.636629       -17.3236
  39   2.0000      -0.619189       -16.8490
  40   2.0000      -0.604476       -16.4486
  41   2.0000      -0.574390       -15.6300
  42   2.0000      -0.559778       -15.2323
  43   2.0000      -0.551262       -15.0006
  44   2.0000      -0.536894       -14.6096
  45   2.0000      -0.529240       -14.4013
  46   2.0000      -0.515704       -14.0330
  47   2.0000      -0.514033       -13.9876
  48   2.0000      -0.504558       -13.7297
  49   2.0000      -0.497413       -13.5353
  50   2.0000      -0.496438       -13.5088
  51   2.0000      -0.480398       -13.0723
  52   2.0000      -0.474962       -12.9244
  53   2.0000      -0.463857       -12.6222
  54   2.0000      -0.460306       -12.5256
  55   2.0000      -0.447470       -12.1763
  56   2.0000      -0.441243       -12.0068
  57   2.0000      -0.438384       -11.9290
  58   2.0000      -0.437425       -11.9029
  59   2.0000      -0.428296       -11.6545
  60   2.0000      -0.418436       -11.3862
  61   2.0000      -0.413620       -11.2552
  62   2.0000      -0.408479       -11.1153
  63   2.0000      -0.356848        -9.7103
  64   2.0000      -0.330204        -8.9853
  65   2.0000      -0.323820        -8.8116
  66   2.0000      -0.282593        -7.6898
  67   0.0000       0.015534         0.4227
  68   0.0000       0.073496         1.9999
  69   0.0000       0.097995         2.6666
  70   0.0000       0.111717         3.0400
  71   0.0000       0.134233         3.6527

MULLIKEN ATOMIC CHARGES
-----------------------
   0 S :    0.100643
   1 C :   -0.117633
   2 C :   -0.088438
   3 C :   -0.015867
   4 C :   -0.121099
   5 H :    0.013948
   6 C :    0.063765
   7 H :    0.017267
   8 H :    0.047643
   9 C :   -0.091869
  10 H :    0.032419
  11 H :    0.031962
  12 C :   -0.048688
  13 H :    0.039282
  14 H :    0.045292
  15 H :    0.030465
  16 S :    0.081930
  17 C :   -0.085207
  18 C :   -0.052404
  19 C :   -0.014886
  20 C :   -0.127590
  21 H :    0.031656
  22 C :    0.010328
  23 H :    0.057995
  24 H :    0.037710
  25 C :   -0.103749
  26 H :    0.024477
  27 H :    0.021955
  28 C :   -0.032235
  29 H :    0.039173
  30 H :    0.034333
  31 H :    0.034954
  32 H :    0.049915
  33 H :    0.052551
Sum of atomic charges:   -0.0000000

LOEWDIN ATOMIC CHARGES
----------------------
   0 S :    0.372323
   1 C :   -0.184915
   2 C :   -0.062655
   3 C :   -0.067826
   4 C :   -0.189617
   5 H :    0.023882
   6 C :   -0.029281
   7 H :    0.028961
   8 H :    0.037243
   9 C :   -0.032555
  10 H :    0.022788
  11 H :    0.020922
  12 C :   -0.062726
  13 H :    0.031833
  14 H :    0.027013
  15 H :    0.021271
  16 S :    0.418835
  17 C :   -0.172915
  18 C :   -0.061863
  19 C :   -0.067254
  20 C :   -0.209103
  21 H :    0.035490
  22 C :   -0.047746
  23 H :    0.048559
  24 H :    0.037086
  25 C :   -0.047136
  26 H :    0.019289
  27 H :    0.023318
  28 C :   -0.058027
  29 H :    0.022982
  30 H :    0.027410
  31 H :    0.025518
  32 H :    0.026998
  33 H :    0.021901

  Mayer bond orders larger than 0.100000
B(  0-S ,  1-C ) :   1.1307 B(  0-S ,  4-C ) :   1.1146 B(  1-C ,  2-C ) :   1.6124
B(  1-C ,  4-C ) :   0.1001 B(  1-C , 32-H ) :   0.9590 B(  2-C ,  3-C ) :   1.2227
B(  2-C ,  6-C ) :   1.0267 B(  3-C ,  4-C ) :   1.5812 B(  3-C ,  5-H ) :   0.9883
B(  4-C , 20-C ) :   1.0900 B(  6-C ,  7-H ) :   0.9356 B(  6-C ,  8-H ) :   0.9459
B(  6-C ,  9-C ) :   1.0551 B(  9-C , 10-H ) :   0.9602 B(  9-C , 11-H ) :   0.9619
B(  9-C , 12-C ) :   1.0723 B( 12-C , 13-H ) :   0.9771 B( 12-C , 14-H ) :   0.9784
B( 12-C , 15-H ) :   0.9778 B( 16-S , 17-C ) :   1.1268 B( 16-S , 20-C ) :   1.1702
B( 17-C , 18-C ) :   1.6279 B( 17-C , 33-H ) :   0.9707 B( 18-C , 19-C ) :   1.2298
B( 18-C , 21-H ) :   0.9813 B( 19-C , 20-C ) :   1.5351 B( 19-C , 22-C ) :   1.0601
B( 22-C , 23-H ) :   0.9230 B( 22-C , 24-H ) :   0.9298 B( 22-C , 25-C ) :   1.0803
B( 25-C , 26-H ) :   0.9499 B( 25-C , 27-H ) :   0.9544 B( 25-C , 28-C ) :   1.0728
B( 28-C , 29-H ) :   0.9779 B( 28-C , 30-H ) :   0.9759 B( 28-C , 31-H ) :   0.9746

Dispersion correction           -0.013543766
FINAL SINGLE POINT ENERGY     -1339.859114937249

DIPOLE MOMENT
-------------
                                X             Y             Z
Electronic contribution:      1.09995     -29.28565      -3.48297
Nuclear contribution   :     -1.24078      30.00767       3.68153
                        -----------------------------------------
Total Dipole Moment    :     -0.14083       0.72202       0.19856
                        -----------------------------------------
Magnitude (a.u.)       :      0.76196
Magnitude (Debye)      :      1.93674

Rotational constants in cm-1:     0.018166     0.008426     0.006465
Rotational constants in MHz :   544.591927   252.599267   193.827374

                             ****ORCA TERMINATED NORMALLY****
TOTAL RUN TIME: 0 days 0 hours 0 minutes 21 seconds 358 msec
