                         Program Version 4.2.1 -  RELEASE  -
|  1> ! wB97X-D3 SP def2-SVP
|  2> %pal
|  3> nprocs 24
|  4> end
|  5>
|  6> * xyz 0 1
|  7> S 	 -53.9654 	 14.3113 	 -103.712
|  8> C 	 -52.4156 	 14.4174 	 -102.827
|  9> C 	 -52.1127 	 13.2661 	 -102.112
| 10> C 	 -53.1121 	 12.244 	 -102.382
| 11> C 	 -54.2232 	 12.6735 	 -103.156
| 12> H 	 -53.1372 	 11.2776 	 -101.983
| 13> C 	 -51.0106 	 13.1057 	 -101.156
| 14> H 	 -51.3258 	 12.6544 	 -100.228
| 15> H 	 -50.6236 	 14.0946 	 -100.82
| 16> C 	 -49.8739 	 12.2991 	 -101.724
| 17> H 	 -49.5858 	 12.7874 	 -102.662
| 18> H 	 -49.0273 	 12.4855 	 -101.03
| 19> C 	 -49.9879 	 10.8556 	 -101.923
| 20> H 	 -50.3809 	 10.4365 	 -101.027
| 21> H 	 -50.579 	 10.7321 	 -102.808
| 22> H 	 -49.0677 	 10.4189 	 -102.226
| 23> S 	 -56.9016 	 12.921 	 -103.477
| 24> C 	 -57.8706 	 11.5937 	 -103.832
| 25> C 	 -57.1507 	 10.4103 	 -103.911
| 26> C 	 -55.7102 	 10.5558 	 -103.619
| 27> C 	 -55.4348 	 11.9215 	 -103.454
| 28> H 	 -57.7008 	 9.47227 	 -104.123
| 29> C 	 -54.789 	 9.33378 	 -103.571
| 30> H 	 -55.1611 	 8.68524 	 -102.848
| 31> H 	 -53.8681 	 9.69947 	 -103.193
| 32> C 	 -54.4487 	 8.58597 	 -104.81
| 33> H 	 -54.0268 	 9.31127 	 -105.498
| 34> H 	 -55.4224 	 8.30434 	 -105.227
| 35> C 	 -53.5155 	 7.30773 	 -104.601
| 36> H 	 -53.9874 	 6.66484 	 -103.841
| 37> H 	 -52.5656 	 7.60233 	 -104.136
| 38> H 	 -53.3444 	 6.68711 	 -105.451
| 39> H 	 -51.7387 	 15.2491 	 -102.615
| 40> H 	 -58.8784 	 11.6321 	 -104.133
| 41> *
| 42>
| 43>                          ****END OF INPUT****

CARTESIAN COORDINATES (ANGSTROEM)
---------------------------------
  S    -53.965400   14.311300  -103.712000
  C    -52.415600   14.417400  -102.827000
  C    -52.112700   13.266100  -102.112000
  C    -53.112100   12.244000  -102.382000
  C    -54.223200   12.673500  -103.156000
  H    -53.137200   11.277600  -101.983000
  C    -51.010600   13.105700  -101.156000
  H    -51.325800   12.654400  -100.228000
  H    -50.623600   14.094600  -100.820000
  C    -49.873900   12.299100  -101.724000
  H    -49.585800   12.787400  -102.662000
  H    -49.027300   12.485500  -101.030000
  C    -49.987900   10.855600  -101.923000
  H    -50.380900   10.436500  -101.027000
  H    -50.579000   10.732100  -102.808000
  H    -49.067700   10.418900  -102.226000
  S    -56.901600   12.921000  -103.477000
  C    -57.870600   11.593700  -103.832000
  C    -57.150700   10.410300  -103.911000
  C    -55.710200   10.555800  -103.619000
  C    -55.434800   11.921500  -103.454000
  H    -57.700800    9.472270  -104.123000
  C    -54.789000    9.333780  -103.571000
  H    -55.161100    8.685240  -102.848000
  H    -53.868100    9.699470  -103.193000
  C    -54.448700    8.585970  -104.810000
  H    -54.026800    9.311270  -105.498000
  H    -55.422400    8.304340  -105.227000
  C    -53.515500    7.307730  -104.601000
  H    -53.987400    6.664840  -103.841000
  H    -52.565600    7.602330  -104.136000
  H    -53.344400    6.687110  -105.451000
  H    -51.738700   15.249100  -102.615000
  H    -58.878400   11.632100  -104.133000

 Total Charge           Charge          ....    0
 Multiplicity           Mult            ....    1
 Number of Electrons    NEL             ....  134
 Basis Dimension        Dim             ....  322

ORBITAL ENERGIES
----------------

  NO   OCC          E(Eh)            E(eV)
   0   2.0000     -88.971179     -2421.0289
   1   2.0000     -88.966624     -2420.9049
   2   2.0000     -10.334220      -281.2084
   3   2.0000     -10.334032      -281.2033
   4   2.0000     -10.315369      -280.6955
   5   2.0000     -10.314720      -280.6778
   6   2.0000     -10.310142      -280.5532
   7   2.0000     -10.301034      -280.3054
   8   2.0000     -10.298715      -280.2423
   9   2.0000     -10.293473      -280.0997
  10   2.0000     -10.290897      -280.0295
  11   2.0000     -10.288456      -279.9631
  12   2.0000     -10.286124      -279.8997
  13   2.0000     -10.284902      -279.8664
  14   2.0000     -10.279359      -279.7156
  15   2.0000     -10.267871      -279.4030
  16   2.0000      -8.084711      -219.9962
  17   2.0000      -8.082380      -219.9327
  18   2.0000      -6.043451      -164.4507
  19   2.0000      -6.040849      -164.3798
  20   2.0000      -6.039395      -164.3403
  21   2.0000      -6.036759      -164.2686
  22   2.0000      -6.035272      -164.2281
  23   2.0000      -6.033094      -164.1688
  24   2.0000      -1.004721       -27.3399
  25   2.0000      -0.980118       -26.6704
  26   2.0000      -0.926164       -25.2022
  27   2.0000      -0.915611       -24.9150
  28   2.0000      -0.872650       -23.7460
  29   2.0000      -0.852468       -23.1968
  30   2.0000      -0.841996       -22.9119
  31   2.0000      -0.813441       -22.1349
  32   2.0000      -0.791604       -21.5406
  33   2.0000      -0.780880       -21.2488
  34   2.0000      -0.711862       -19.3707
  35   2.0000      -0.698144       -18.9975
  36   2.0000      -0.695224       -18.9180
  37   2.0000      -0.660507       -17.9733
  38   2.0000      -0.634873       -17.2758
  39   2.0000      -0.619384       -16.8543
  40   2.0000      -0.600456       -16.3392
  41   2.0000      -0.583325       -15.8731
  42   2.0000      -0.571171       -15.5423
  43   2.0000      -0.553954       -15.0739
  44   2.0000      -0.542745       -14.7688
  45   2.0000      -0.525367       -14.2960
  46   2.0000      -0.520691       -14.1687
  47   2.0000      -0.511520       -13.9192
  48   2.0000      -0.507481       -13.8093
  49   2.0000      -0.500398       -13.6165
  50   2.0000      -0.491898       -13.3852
  51   2.0000      -0.484964       -13.1966
  52   2.0000      -0.474941       -12.9238
  53   2.0000      -0.466352       -12.6901
  54   2.0000      -0.458807       -12.4848
  55   2.0000      -0.456442       -12.4204
  56   2.0000      -0.445647       -12.1267
  57   2.0000      -0.443891       -12.0789
  58   2.0000      -0.433388       -11.7931
  59   2.0000      -0.426379       -11.6024
  60   2.0000      -0.418576       -11.3900
  61   2.0000      -0.414349       -11.2750
  62   2.0000      -0.409240       -11.1360
  63   2.0000      -0.354562        -9.6481
  64   2.0000      -0.331173        -9.0117
  65   2.0000      -0.329154        -8.9567
  66   2.0000      -0.284506        -7.7418
  67   0.0000       0.022756         0.6192
  68   0.0000       0.076688         2.0868
  69   0.0000       0.106137         2.8881
  70   0.0000       0.115817         3.1515
  71   0.0000       0.122799         3.3415

MULLIKEN ATOMIC CHARGES
-----------------------
   0 S :    0.115800
   1 C :   -0.101439
   2 C :   -0.105920
   3 C :    0.031263
   4 C :   -0.136264
   5 H :   -0.007598
   6 C :    0.080414
   7 H :    0.022184
   8 H :    0.019546
   9 C :   -0.111408
  10 H :    0.016519
  11 H :    0.021351
  12 C :    0.031849
  13 H :    0.023133
  14 H :    0.022533
  15 H :    0.023227
  16 S :    0.110430
  17 C :   -0.064091
  18 C :   -0.067189
  19 C :   -0.058388
  20 C :   -0.152147
  21 H :    0.030665
  22 C :    0.128475
  23 H :    0.011937
  24 H :   -0.015754
  25 C :   -0.066524
  26 H :    0.034691
  27 H :    0.020154
  28 C :   -0.044385
  29 H :    0.024537
  30 H :    0.033913
  31 H :    0.042652
  32 H :    0.040924
  33 H :    0.044910
Sum of atomic charges:    0.0000000

LOEWDIN ATOMIC CHARGES
----------------------
   0 S :    0.394688
   1 C :   -0.199714
   2 C :   -0.056916
   3 C :   -0.061284
   4 C :   -0.193224
   5 H :    0.014986
   6 C :   -0.034097
   7 H :    0.029529
   8 H :    0.036868
   9 C :   -0.044613
  10 H :    0.023097
  11 H :    0.022780
  12 C :   -0.056785
  13 H :    0.021708
  14 H :    0.025886
  15 H :    0.027685
  16 S :    0.424065
  17 C :   -0.205188
  18 C :   -0.074604
  19 C :   -0.045061
  20 C :   -0.187490
  21 H :    0.034178
  22 C :   -0.028184
  23 H :    0.024571
  24 H :    0.021839
  25 C :   -0.034679
  26 H :    0.026188
  27 H :    0.020423
  28 C :   -0.062098
  29 H :    0.026870
  30 H :    0.027021
  31 H :    0.025269
  32 H :    0.032894
  33 H :    0.023391

  Mayer bond orders larger than 0.100000
B(  0-S ,  1-C ) :   1.1128 B(  0-S ,  4-C ) :   1.1416 B(  1-C ,  2-C ) :   1.6445
B(  1-C , 32-H ) :   0.9550 B(  2-C ,  3-C ) :   1.2232 B(  2-C ,  6-C ) :   1.0409
B(  3-C ,  4-C ) :   1.5679 B(  3-C ,  5-H ) :   0.9905 B(  4-C , 20-C ) :   1.0648
B(  6-C ,  7-H ) :   0.9345 B(  6-C ,  8-H ) :   0.9308 B(  6-C ,  9-C ) :   1.0770
B(  9-C , 10-H ) :   0.9467 B(  9-C , 11-H ) :   0.9514 B(  9-C , 12-C ) :   1.1027
B( 12-C , 13-H ) :   0.9692 B( 12-C , 14-H ) :   0.9640 B( 12-C , 15-H ) :   0.9616
B( 16-S , 17-C ) :   1.1584 B( 16-S , 20-C ) :   1.1425 B( 17-C , 18-C ) :   1.6277
B( 17-C , 33-H ) :   0.9682 B( 18-C , 19-C ) :   1.2146 B( 18-C , 21-H ) :   0.9821
B( 19-C , 20-C ) :   1.5966 B( 19-C , 22-C ) :   1.0397 B( 22-C , 23-H ) :   0.9228
B( 22-C , 24-H ) :   0.9201 B( 22-C , 25-C ) :   1.0720 B( 25-C , 26-H ) :   0.9548
B( 25-C , 27-H ) :   0.9575 B( 25-C , 28-C ) :   1.0656 B( 28-C , 29-H ) :   0.9749
B( 28-C , 30-H ) :   0.9774 B( 28-C , 31-H ) :   0.9780

Dispersion correction           -0.014012211
FINAL SINGLE POINT ENERGY     -1339.868033701330

DIPOLE MOMENT
-------------
                                X             Y             Z
Electronic contribution:    -21.20370      23.05156      -3.35142
Nuclear contribution   :     21.53642     -23.64848       3.59781
                        -----------------------------------------
Total Dipole Moment    :      0.33273      -0.59691       0.24639
                        -----------------------------------------
Magnitude (a.u.)       :      0.72644
Magnitude (Debye)      :      1.84648

Rotational constants in cm-1:     0.015811     0.010096     0.006583
Rotational constants in MHz :   474.012731   302.658194   197.366642

                             ****ORCA TERMINATED NORMALLY****
TOTAL RUN TIME: 0 days 0 hours 0 minutes 21 seconds 747 msec
