                         Program Version 4.2.1 -  RELEASE  -
|  1> ! wB97X-D3 SP def2-SVP
|  2> %pal
|  3> nprocs 24
|  4> end
|  5>
|  6> * xyz 0 1
|  7> S 	 -58.8642 	 -3.72827 	 -27.3958
|  8> C 	 -57.8639 	 -3.8578 	 -25.9667
|  9> C 	 -56.5421 	 -3.47367 	 -26.2351
| 10> C 	 -56.3984 	 -2.95144 	 -27.6028
| 11> C 	 -57.5353 	 -3.05489 	 -28.3797
| 12> H 	 -55.4679 	 -2.68604 	 -28.0924
| 13> C 	 -55.3438 	 -3.32128 	 -25.2508
| 14> H 	 -54.9741 	 -2.31755 	 -25.2355
| 15> H 	 -54.5958 	 -3.84467 	 -25.7103
| 16> C 	 -55.5187 	 -3.95845 	 -23.7836
| 17> H 	 -56.2308 	 -3.36286 	 -23.1703
| 18> H 	 -55.9137 	 -4.93721 	 -23.7417
| 19> C 	 -54.1571 	 -4.05445 	 -23.149
| 20> H 	 -54.1514 	 -4.21862 	 -22.0434
| 21> H 	 -53.6096 	 -4.9045 	 -23.6064
| 22> H 	 -53.4599 	 -3.1863 	 -23.3091
| 23> S 	 -58.7871 	 -3.66207 	 -30.727
| 24> C 	 -58.5202 	 -2.66539 	 -32.1676
| 25> C 	 -57.7781 	 -1.55809 	 -31.8337
| 26> C 	 -57.2144 	 -1.59137 	 -30.5064
| 27> C 	 -57.7566 	 -2.62225 	 -29.7398
| 28> H 	 -57.4636 	 -0.924569 	 -32.6744
| 29> C 	 -56.1744 	 -0.595163 	 -30.0617
| 30> H 	 -55.5595 	 -0.359069 	 -30.8807
| 31> H 	 -55.4848 	 -1.09271 	 -29.3358
| 32> C 	 -56.6342 	 0.725427 	 -29.4618
| 33> H 	 -55.7943 	 1.19565 	 -28.9045
| 34> H 	 -57.3228 	 0.53266 	 -28.6664
| 35> C 	 -57.3529 	 1.67668 	 -30.4557
| 36> H 	 -58.2924 	 1.48795 	 -30.9332
| 37> H 	 -56.6487 	 1.9414 	 -31.2351
| 38> H 	 -57.548 	 2.67014 	 -30.0259
| 39> H 	 -58.2512 	 -4.1833 	 -25.0369
| 40> H 	 -58.9232 	 -2.92947 	 -33.1625
| 41> *
| 42>
| 43>                          ****END OF INPUT****

CARTESIAN COORDINATES (ANGSTROEM)
---------------------------------
  S    -58.864200   -3.728270  -27.395800
  C    -57.863900   -3.857800  -25.966700
  C    -56.542100   -3.473670  -26.235100
  C    -56.398400   -2.951440  -27.602800
  C    -57.535300   -3.054890  -28.379700
  H    -55.467900   -2.686040  -28.092400
  C    -55.343800   -3.321280  -25.250800
  H    -54.974100   -2.317550  -25.235500
  H    -54.595800   -3.844670  -25.710300
  C    -55.518700   -3.958450  -23.783600
  H    -56.230800   -3.362860  -23.170300
  H    -55.913700   -4.937210  -23.741700
  C    -54.157100   -4.054450  -23.149000
  H    -54.151400   -4.218620  -22.043400
  H    -53.609600   -4.904500  -23.606400
  H    -53.459900   -3.186300  -23.309100
  S    -58.787100   -3.662070  -30.727000
  C    -58.520200   -2.665390  -32.167600
  C    -57.778100   -1.558090  -31.833700
  C    -57.214400   -1.591370  -30.506400
  C    -57.756600   -2.622250  -29.739800
  H    -57.463600   -0.924569  -32.674400
  C    -56.174400   -0.595163  -30.061700
  H    -55.559500   -0.359069  -30.880700
  H    -55.484800   -1.092710  -29.335800
  C    -56.634200    0.725427  -29.461800
  H    -55.794300    1.195650  -28.904500
  H    -57.322800    0.532660  -28.666400
  C    -57.352900    1.676680  -30.455700
  H    -58.292400    1.487950  -30.933200
  H    -56.648700    1.941400  -31.235100
  H    -57.548000    2.670140  -30.025900
  H    -58.251200   -4.183300  -25.036900
  H    -58.923200   -2.929470  -33.162500

 Total Charge           Charge          ....    0
 Multiplicity           Mult            ....    1
 Number of Electrons    NEL             ....  134
 Basis Dimension        Dim             ....  322

ORBITAL ENERGIES
----------------

  NO   OCC          E(Eh)            E(eV)
   0   2.0000     -88.964051     -2420.8349
   1   2.0000     -88.963610     -2420.8229
   2   2.0000     -10.333088      -281.1776
   3   2.0000     -10.330372      -281.1037
   4   2.0000     -10.322654      -280.8937
   5   2.0000     -10.316018      -280.7131
   6   2.0000     -10.311414      -280.5878
   7   2.0000     -10.308018      -280.4954
   8   2.0000     -10.297573      -280.2112
   9   2.0000     -10.297051      -280.1970
  10   2.0000     -10.294525      -280.1283
  11   2.0000     -10.292610      -280.0761
  12   2.0000     -10.290172      -280.0098
  13   2.0000     -10.288069      -279.9526
  14   2.0000     -10.285630      -279.8862
  15   2.0000     -10.275091      -279.5994
  16   2.0000      -8.078355      -219.8232
  17   2.0000      -8.078065      -219.8153
  18   2.0000      -6.037076      -164.2772
  19   2.0000      -6.036673      -164.2662
  20   2.0000      -6.032895      -164.1634
  21   2.0000      -6.032569      -164.1546
  22   2.0000      -6.028944      -164.0559
  23   2.0000      -6.028766      -164.0511
  24   2.0000      -1.002267       -27.2731
  25   2.0000      -0.976805       -26.5802
  26   2.0000      -0.908992       -24.7349
  27   2.0000      -0.905830       -24.6489
  28   2.0000      -0.871021       -23.7017
  29   2.0000      -0.849884       -23.1265
  30   2.0000      -0.841922       -22.9099
  31   2.0000      -0.813839       -22.1457
  32   2.0000      -0.784677       -21.3521
  33   2.0000      -0.771714       -20.9994
  34   2.0000      -0.714689       -19.4477
  35   2.0000      -0.707776       -19.2596
  36   2.0000      -0.690526       -18.7902
  37   2.0000      -0.665264       -18.1028
  38   2.0000      -0.642440       -17.4817
  39   2.0000      -0.612782       -16.6746
  40   2.0000      -0.593424       -16.1479
  41   2.0000      -0.566983       -15.4284
  42   2.0000      -0.562115       -15.2959
  43   2.0000      -0.552109       -15.0237
  44   2.0000      -0.539555       -14.6820
  45   2.0000      -0.521927       -14.2023
  46   2.0000      -0.515706       -14.0331
  47   2.0000      -0.509123       -13.8539
  48   2.0000      -0.506127       -13.7724
  49   2.0000      -0.497585       -13.5400
  50   2.0000      -0.492846       -13.4110
  51   2.0000      -0.484042       -13.1715
  52   2.0000      -0.476555       -12.9677
  53   2.0000      -0.469491       -12.7755
  54   2.0000      -0.454358       -12.3637
  55   2.0000      -0.453076       -12.3288
  56   2.0000      -0.437691       -11.9102
  57   2.0000      -0.433017       -11.7830
  58   2.0000      -0.429442       -11.6857
  59   2.0000      -0.426093       -11.5946
  60   2.0000      -0.421758       -11.4766
  61   2.0000      -0.415479       -11.3058
  62   2.0000      -0.410904       -11.1813
  63   2.0000      -0.358589        -9.7577
  64   2.0000      -0.331433        -9.0188
  65   2.0000      -0.325703        -8.8628
  66   2.0000      -0.286378        -7.7927
  67   0.0000       0.024551         0.6681
  68   0.0000       0.074007         2.0138
  69   0.0000       0.107111         2.9146
  70   0.0000       0.112624         3.0647
  71   0.0000       0.136410         3.7119

MULLIKEN ATOMIC CHARGES
-----------------------
   0 S :    0.096564
   1 C :   -0.118062
   2 C :   -0.071122
   3 C :   -0.029370
   4 C :   -0.107100
   5 H :    0.024953
   6 C :    0.079406
   7 H :    0.036914
   8 H :    0.006103
   9 C :   -0.048448
  10 H :    0.037079
  11 H :    0.026867
  12 C :   -0.098304
  13 H :    0.041153
  14 H :    0.036401
  15 H :    0.033376
  16 S :    0.088084
  17 C :   -0.112293
  18 C :   -0.024569
  19 C :   -0.061137
  20 C :   -0.124856
  21 H :    0.031468
  22 C :    0.080331
  23 H :    0.006327
  24 H :    0.012279
  25 C :   -0.032779
  26 H :    0.032371
  27 H :    0.024489
  28 C :   -0.057607
  29 H :    0.041767
  30 H :    0.012544
  31 H :    0.022659
  32 H :    0.041087
  33 H :    0.073423
Sum of atomic charges:   -0.0000000

LOEWDIN ATOMIC CHARGES
----------------------
   0 S :    0.385808
   1 C :   -0.194449
   2 C :   -0.053488
   3 C :   -0.071416
   4 C :   -0.177299
   5 H :    0.028701
   6 C :   -0.018006
   7 H :    0.033215
   8 H :    0.020083
   9 C :   -0.039691
  10 H :    0.025511
  11 H :    0.021668
  12 C :   -0.076461
  13 H :    0.029597
  14 H :    0.027903
  15 H :    0.026151
  16 S :    0.385724
  17 C :   -0.178520
  18 C :   -0.075082
  19 C :   -0.052614
  20 C :   -0.188807
  21 H :    0.036652
  22 C :   -0.032515
  23 H :    0.023251
  24 H :    0.033810
  25 C :   -0.035294
  26 H :    0.032621
  27 H :    0.023076
  28 C :   -0.075656
  29 H :    0.026385
  30 H :    0.020466
  31 H :    0.030284
  32 H :    0.021100
  33 H :    0.037288

  Mayer bond orders larger than 0.100000
B(  0-S ,  1-C ) :   1.1275 B(  0-S ,  4-C ) :   1.1276 B(  1-C ,  2-C ) :   1.6283
B(  1-C , 32-H ) :   0.9736 B(  2-C ,  3-C ) :   1.2165 B(  2-C ,  6-C ) :   0.9990
B(  3-C ,  4-C ) :   1.6129 B(  3-C ,  5-H ) :   0.9830 B(  4-C , 20-C ) :   1.0615
B(  6-C ,  7-H ) :   0.9469 B(  6-C ,  8-H ) :   0.9389 B(  6-C ,  9-C ) :   1.0573
B(  9-C , 10-H ) :   0.9571 B(  9-C , 11-H ) :   0.9578 B(  9-C , 12-C ) :   1.0789
B( 12-C , 13-H ) :   0.9723 B( 12-C , 14-H ) :   0.9763 B( 12-C , 15-H ) :   0.9760
B( 16-S , 17-C ) :   1.1440 B( 16-S , 20-C ) :   1.1313 B( 17-C , 18-C ) :   1.6270
B( 17-C , 33-H ) :   0.9644 B( 18-C , 19-C ) :   1.2270 B( 18-C , 21-H ) :   0.9798
B( 19-C , 20-C ) :   1.6001 B( 19-C , 22-C ) :   1.0474 B( 22-C , 23-H ) :   0.9257
B( 22-C , 24-H ) :   0.9307 B( 22-C , 25-C ) :   1.0802 B( 25-C , 26-H ) :   0.9525
B( 25-C , 27-H ) :   0.9531 B( 25-C , 28-C ) :   1.0703 B( 28-C , 29-H ) :   0.9766
B( 28-C , 30-H ) :   0.9748 B( 28-C , 31-H ) :   0.9708

Dispersion correction           -0.013760405
FINAL SINGLE POINT ENERGY     -1339.872824057937

DIPOLE MOMENT
-------------
                                X             Y             Z
Electronic contribution:    -18.92710     -13.95892     -13.81336
Nuclear contribution   :     19.57702      14.31692      13.89785
                        -----------------------------------------
Total Dipole Moment    :      0.64992       0.35800       0.08450
                        -----------------------------------------
Magnitude (a.u.)       :      0.74679
Magnitude (Debye)      :      1.89819

Rotational constants in cm-1:     0.021314     0.007318     0.005960
Rotational constants in MHz :   638.969144   219.397894   178.689668

                             ****ORCA TERMINATED NORMALLY****
TOTAL RUN TIME: 0 days 0 hours 0 minutes 21 seconds 72 msec
