                         Program Version 4.2.1 -  RELEASE  -
|  1> ! wB97X-D3 SP def2-SVP
|  2> %pal
|  3> nprocs 24
|  4> end
|  5>
|  6> * xyz 0 1
|  7> S 	 -66.716 	 19.4093 	 -71.9292
|  8> C 	 -65.4247 	 18.3204 	 -72.4708
|  9> C 	 -65.9334 	 17.4199 	 -73.3484
| 10> C 	 -67.3012 	 17.5554 	 -73.6371
| 11> C 	 -67.8695 	 18.5653 	 -72.8712
| 12> H 	 -67.8728 	 16.9937 	 -74.3627
| 13> C 	 -65.0933 	 16.3548 	 -73.9757
| 14> H 	 -64.3351 	 16.7967 	 -74.6165
| 15> H 	 -65.7164 	 15.7031 	 -74.5742
| 16> C 	 -64.2134 	 15.5254 	 -73.0471
| 17> H 	 -63.5021 	 16.1999 	 -72.5845
| 18> H 	 -64.8546 	 15.0681 	 -72.2199
| 19> C 	 -63.4377 	 14.4773 	 -73.8745
| 20> H 	 -62.6961 	 13.9702 	 -73.3165
| 21> H 	 -64.1466 	 13.7885 	 -74.3167
| 22> H 	 -62.8473 	 14.8938 	 -74.6873
| 23> S 	 -70.4775 	 17.8524 	 -72.428
| 24> C 	 -71.7876 	 19.0804 	 -72.4029
| 25> C 	 -71.2614 	 20.2643 	 -72.8144
| 26> C 	 -69.8286 	 20.2463 	 -73.0496
| 27> C 	 -69.2733 	 19.0039 	 -72.8725
| 28> H 	 -71.9113 	 21.0933 	 -72.8236
| 29> C 	 -69.0178 	 21.5008 	 -73.329
| 30> H 	 -68.0439 	 21.1276 	 -73.6622
| 31> H 	 -68.7424 	 22.0181 	 -72.3772
| 32> C 	 -69.5285 	 22.5442 	 -74.2805
| 33> H 	 -68.9072 	 23.4142 	 -74.3287
| 34> H 	 -70.4699 	 22.9046 	 -73.9314
| 35> C 	 -69.7762 	 22.1218 	 -75.7516
| 36> H 	 -69.9262 	 22.9772 	 -76.3929
| 37> H 	 -70.5445 	 21.3508 	 -75.8916
| 38> H 	 -68.9357 	 21.5889 	 -76.0857
| 39> H 	 -64.42 	 18.4591 	 -72.3506
| 40> H 	 -72.8405 	 18.9057 	 -72.1385
| 41> *
| 42>
| 43>                          ****END OF INPUT****

CARTESIAN COORDINATES (ANGSTROEM)
---------------------------------
  S    -66.716000   19.409300  -71.929200
  C    -65.424700   18.320400  -72.470800
  C    -65.933400   17.419900  -73.348400
  C    -67.301200   17.555400  -73.637100
  C    -67.869500   18.565300  -72.871200
  H    -67.872800   16.993700  -74.362700
  C    -65.093300   16.354800  -73.975700
  H    -64.335100   16.796700  -74.616500
  H    -65.716400   15.703100  -74.574200
  C    -64.213400   15.525400  -73.047100
  H    -63.502100   16.199900  -72.584500
  H    -64.854600   15.068100  -72.219900
  C    -63.437700   14.477300  -73.874500
  H    -62.696100   13.970200  -73.316500
  H    -64.146600   13.788500  -74.316700
  H    -62.847300   14.893800  -74.687300
  S    -70.477500   17.852400  -72.428000
  C    -71.787600   19.080400  -72.402900
  C    -71.261400   20.264300  -72.814400
  C    -69.828600   20.246300  -73.049600
  C    -69.273300   19.003900  -72.872500
  H    -71.911300   21.093300  -72.823600
  C    -69.017800   21.500800  -73.329000
  H    -68.043900   21.127600  -73.662200
  H    -68.742400   22.018100  -72.377200
  C    -69.528500   22.544200  -74.280500
  H    -68.907200   23.414200  -74.328700
  H    -70.469900   22.904600  -73.931400
  C    -69.776200   22.121800  -75.751600
  H    -69.926200   22.977200  -76.392900
  H    -70.544500   21.350800  -75.891600
  H    -68.935700   21.588900  -76.085700
  H    -64.420000   18.459100  -72.350600
  H    -72.840500   18.905700  -72.138500

 Total Charge           Charge          ....    0
 Multiplicity           Mult            ....    1
 Number of Electrons    NEL             ....  134
 Basis Dimension        Dim             ....  322

ORBITAL ENERGIES
----------------

  NO   OCC          E(Eh)            E(eV)
   0   2.0000     -88.969047     -2420.9709
   1   2.0000     -88.961329     -2420.7608
   2   2.0000     -10.330136      -281.0973
   3   2.0000     -10.324450      -280.9426
   4   2.0000     -10.321036      -280.8497
   5   2.0000     -10.304748      -280.4065
   6   2.0000     -10.303753      -280.3794
   7   2.0000     -10.294149      -280.1180
   8   2.0000     -10.292970      -280.0860
   9   2.0000     -10.291902      -280.0569
  10   2.0000     -10.290844      -280.0281
  11   2.0000     -10.289408      -279.9890
  12   2.0000     -10.285374      -279.8793
  13   2.0000     -10.278927      -279.7038
  14   2.0000     -10.275588      -279.6130
  15   2.0000     -10.267384      -279.3897
  16   2.0000      -8.083600      -219.9659
  17   2.0000      -8.076081      -219.7613
  18   2.0000      -6.042136      -164.4149
  19   2.0000      -6.037982      -164.3019
  20   2.0000      -6.034791      -164.2150
  21   2.0000      -6.034496      -164.2070
  22   2.0000      -6.030483      -164.0978
  23   2.0000      -6.026709      -163.9951
  24   2.0000      -1.011624       -27.5277
  25   2.0000      -0.987250       -26.8644
  26   2.0000      -0.917339       -24.9621
  27   2.0000      -0.906915       -24.6784
  28   2.0000      -0.872700       -23.7474
  29   2.0000      -0.853128       -23.2148
  30   2.0000      -0.841708       -22.9040
  31   2.0000      -0.821007       -22.3407
  32   2.0000      -0.783810       -21.3285
  33   2.0000      -0.774540       -21.0763
  34   2.0000      -0.712779       -19.3957
  35   2.0000      -0.700950       -19.0738
  36   2.0000      -0.697151       -18.9704
  37   2.0000      -0.659995       -17.9594
  38   2.0000      -0.643468       -17.5097
  39   2.0000      -0.617558       -16.8046
  40   2.0000      -0.595744       -16.2110
  41   2.0000      -0.579677       -15.7738
  42   2.0000      -0.568070       -15.4580
  43   2.0000      -0.550038       -14.9673
  44   2.0000      -0.542393       -14.7593
  45   2.0000      -0.524788       -14.2802
  46   2.0000      -0.521401       -14.1880
  47   2.0000      -0.516109       -14.0441
  48   2.0000      -0.504729       -13.7344
  49   2.0000      -0.504031       -13.7154
  50   2.0000      -0.488087       -13.2815
  51   2.0000      -0.485435       -13.2093
  52   2.0000      -0.473501       -12.8846
  53   2.0000      -0.462301       -12.5799
  54   2.0000      -0.456072       -12.4103
  55   2.0000      -0.452941       -12.3252
  56   2.0000      -0.445152       -12.1132
  57   2.0000      -0.433621       -11.7994
  58   2.0000      -0.431388       -11.7387
  59   2.0000      -0.425659       -11.5828
  60   2.0000      -0.421809       -11.4780
  61   2.0000      -0.417770       -11.3681
  62   2.0000      -0.408561       -11.1175
  63   2.0000      -0.346156        -9.4194
  64   2.0000      -0.334681        -9.1071
  65   2.0000      -0.324154        -8.8207
  66   2.0000      -0.300316        -8.1720
  67   0.0000       0.032677         0.8892
  68   0.0000       0.070948         1.9306
  69   0.0000       0.112019         3.0482
  70   0.0000       0.123638         3.3644
  71   0.0000       0.131371         3.5748

MULLIKEN ATOMIC CHARGES
-----------------------
   0 S :    0.117518
   1 C :   -0.096743
   2 C :   -0.047994
   3 C :    0.030429
   4 C :   -0.166072
   5 H :    0.013656
   6 C :    0.067776
   7 H :    0.025747
   8 H :    0.009883
   9 C :   -0.107259
  10 H :    0.022793
  11 H :    0.047528
  12 C :   -0.019680
  13 H :    0.025039
  14 H :    0.030632
  15 H :    0.019708
  16 S :    0.095010
  17 C :   -0.109206
  18 C :   -0.010654
  19 C :   -0.033639
  20 C :   -0.142522
  21 H :    0.006077
  22 C :    0.051200
  23 H :    0.019738
  24 H :    0.046310
  25 C :   -0.043911
  26 H :    0.021413
  27 H :    0.011449
  28 C :   -0.039175
  29 H :    0.034888
  30 H :    0.031435
  31 H :    0.008044
  32 H :    0.012422
  33 H :    0.068160
Sum of atomic charges:    0.0000000

LOEWDIN ATOMIC CHARGES
----------------------
   0 S :    0.431316
   1 C :   -0.181837
   2 C :   -0.060487
   3 C :   -0.063361
   4 C :   -0.196224
   5 H :    0.034027
   6 C :   -0.033580
   7 H :    0.033198
   8 H :    0.023776
   9 C :   -0.038234
  10 H :    0.017654
  11 H :    0.031732
  12 C :   -0.061906
  13 H :    0.021310
  14 H :    0.025643
  15 H :    0.025201
  16 S :    0.393538
  17 C :   -0.171159
  18 C :   -0.065516
  19 C :   -0.060949
  20 C :   -0.206749
  21 H :    0.024895
  22 C :   -0.042189
  23 H :    0.022009
  24 H :    0.039974
  25 C :   -0.038565
  26 H :    0.025882
  27 H :    0.016013
  28 C :   -0.063420
  29 H :    0.026005
  30 H :    0.027001
  31 H :    0.016718
  32 H :    0.010129
  33 H :    0.038154

  Mayer bond orders larger than 0.100000
B(  0-S ,  1-C ) :   1.1225 B(  0-S ,  4-C ) :   1.1831 B(  1-C ,  2-C ) :   1.6024
B(  1-C , 32-H ) :   0.9826 B(  2-C ,  3-C ) :   1.2555 B(  2-C ,  6-C ) :   1.0236
B(  3-C ,  4-C ) :   1.5448 B(  3-C ,  5-H ) :   1.0011 B(  4-C , 20-C ) :   0.9941
B(  6-C ,  7-H ) :   0.9288 B(  6-C ,  8-H ) :   0.9488 B(  6-C ,  9-C ) :   1.0642
B(  9-C , 10-H ) :   0.9502 B(  9-C , 11-H ) :   0.9585 B(  9-C , 12-C ) :   1.0833
B( 12-C , 13-H ) :   0.9733 B( 12-C , 14-H ) :   0.9755 B( 12-C , 15-H ) :   0.9712
B( 16-S , 17-C ) :   1.1324 B( 16-S , 20-C ) :   1.1434 B( 17-C , 18-C ) :   1.6410
B( 17-C , 33-H ) :   0.9658 B( 18-C , 19-C ) :   1.1984 B( 18-C , 21-H ) :   0.9979
B( 19-C , 20-C ) :   1.6161 B( 19-C , 22-C ) :   1.0400 B( 22-C , 23-H ) :   0.9254
B( 22-C , 24-H ) :   0.9312 B( 22-C , 25-C ) :   1.0886 B( 25-C , 26-H ) :   0.9505
B( 25-C , 27-H ) :   0.9500 B( 25-C , 28-C ) :   1.0776 B( 28-C , 29-H ) :   0.9759
B( 28-C , 30-H ) :   0.9734 B( 28-C , 31-H ) :   0.9735

Dispersion correction           -0.013884480
FINAL SINGLE POINT ENERGY     -1339.885387462301

DIPOLE MOMENT
-------------
                                X             Y             Z
Electronic contribution:    -12.13540       0.22665      13.17375
Nuclear contribution   :     12.35292      -0.08184     -13.46771
                        -----------------------------------------
Total Dipole Moment    :      0.21751       0.14481      -0.29395
                        -----------------------------------------
Magnitude (a.u.)       :      0.39331
Magnitude (Debye)      :      0.99971

Rotational constants in cm-1:     0.024139     0.006969     0.006192
Rotational constants in MHz :   723.658377   208.926649   185.621090

                             ****ORCA TERMINATED NORMALLY****
TOTAL RUN TIME: 0 days 0 hours 0 minutes 21 seconds 143 msec
