                         Program Version 4.2.1 -  RELEASE  -
|  1> ! wB97X-D3 SP def2-SVP
|  2> %pal
|  3> nprocs 24
|  4> end
|  5>
|  6> * xyz 0 1
|  7> S 	 -101.917 	 -5.5408 	 -110.162
|  8> C 	 -103.358 	 -6.58226 	 -110.306
|  9> C 	 -104.321 	 -6.08686 	 -109.479
| 10> C 	 -104 	 -4.87263 	 -108.816
| 11> C 	 -102.721 	 -4.42403 	 -109.023
| 12> H 	 -104.6 	 -4.38985 	 -108.118
| 13> C 	 -105.715 	 -6.59601 	 -109.372
| 14> H 	 -106.028 	 -7.04028 	 -110.287
| 15> H 	 -106.494 	 -5.77463 	 -109.204
| 16> C 	 -105.944 	 -7.67164 	 -108.253
| 17> H 	 -105.786 	 -7.09252 	 -107.266
| 18> H 	 -107.011 	 -8.05556 	 -108.366
| 19> C 	 -104.998 	 -8.91724 	 -108.328
| 20> H 	 -104.691 	 -9.30817 	 -109.255
| 21> H 	 -104.044 	 -8.74961 	 -107.796
| 22> H 	 -105.358 	 -9.8024 	 -107.781
| 23> S 	 -101.435 	 -2.05118 	 -109.754
| 24> C 	 -100.845 	 -1.007 	 -108.574
| 25> C 	 -101.073 	 -1.48637 	 -107.313
| 26> C 	 -101.828 	 -2.71785 	 -107.269
| 27> C 	 -102.021 	 -3.22029 	 -108.558
| 28> H 	 -100.773 	 -1.011 	 -106.37
| 29> C 	 -101.863 	 -3.6077 	 -106
| 30> H 	 -100.988 	 -4.2198 	 -105.865
| 31> H 	 -102.695 	 -4.33878 	 -106.192
| 32> C 	 -102.232 	 -3.02488 	 -104.681
| 33> H 	 -103.282 	 -2.88838 	 -104.525
| 34> H 	 -101.866 	 -1.98548 	 -104.611
| 35> C 	 -101.651 	 -3.87243 	 -103.479
| 36> H 	 -101.947 	 -4.86932 	 -103.361
| 37> H 	 -101.832 	 -3.43519 	 -102.46
| 38> H 	 -100.524 	 -4.0036 	 -103.565
| 39> H 	 -103.475 	 -7.2564 	 -111.068
| 40> H 	 -100.324 	 -0.124041 	 -108.713
| 41> *
| 42>
| 43>                          ****END OF INPUT****

CARTESIAN COORDINATES (ANGSTROEM)
---------------------------------
  S    -101.917000   -5.540800  -110.162000
  C    -103.358000   -6.582260  -110.306000
  C    -104.321000   -6.086860  -109.479000
  C    -104.000000   -4.872630  -108.816000
  C    -102.721000   -4.424030  -109.023000
  H    -104.600000   -4.389850  -108.118000
  C    -105.715000   -6.596010  -109.372000
  H    -106.028000   -7.040280  -110.287000
  H    -106.494000   -5.774630  -109.204000
  C    -105.944000   -7.671640  -108.253000
  H    -105.786000   -7.092520  -107.266000
  H    -107.011000   -8.055560  -108.366000
  C    -104.998000   -8.917240  -108.328000
  H    -104.691000   -9.308170  -109.255000
  H    -104.044000   -8.749610  -107.796000
  H    -105.358000   -9.802400  -107.781000
  S    -101.435000   -2.051180  -109.754000
  C    -100.845000   -1.007000  -108.574000
  C    -101.073000   -1.486370  -107.313000
  C    -101.828000   -2.717850  -107.269000
  C    -102.021000   -3.220290  -108.558000
  H    -100.773000   -1.011000  -106.370000
  C    -101.863000   -3.607700  -106.000000
  H    -100.988000   -4.219800  -105.865000
  H    -102.695000   -4.338780  -106.192000
  C    -102.232000   -3.024880  -104.681000
  H    -103.282000   -2.888380  -104.525000
  H    -101.866000   -1.985480  -104.611000
  C    -101.651000   -3.872430  -103.479000
  H    -101.947000   -4.869320  -103.361000
  H    -101.832000   -3.435190  -102.460000
  H    -100.524000   -4.003600  -103.565000
  H    -103.475000   -7.256400  -111.068000
  H    -100.324000   -0.124041  -108.713000

 Total Charge           Charge          ....    0
 Multiplicity           Mult            ....    1
 Number of Electrons    NEL             ....  134
 Basis Dimension        Dim             ....  322

ORBITAL ENERGIES
----------------

  NO   OCC          E(Eh)            E(eV)
   0   2.0000     -88.969071     -2420.9715
   1   2.0000     -88.960921     -2420.7497
   2   2.0000     -10.333952      -281.2011
   3   2.0000     -10.332176      -281.1528
   4   2.0000     -10.311509      -280.5904
   5   2.0000     -10.311442      -280.5886
   6   2.0000     -10.308610      -280.5115
   7   2.0000     -10.304370      -280.3962
   8   2.0000     -10.298377      -280.2331
   9   2.0000     -10.294320      -280.1227
  10   2.0000     -10.292818      -280.0818
  11   2.0000     -10.292807      -280.0815
  12   2.0000     -10.289330      -279.9869
  13   2.0000     -10.289188      -279.9830
  14   2.0000     -10.285328      -279.8780
  15   2.0000     -10.275607      -279.6135
  16   2.0000      -8.084642      -219.9943
  17   2.0000      -8.075013      -219.7323
  18   2.0000      -6.043067      -164.4402
  19   2.0000      -6.038892      -164.3266
  20   2.0000      -6.035547      -164.2356
  21   2.0000      -6.033690      -164.1850
  22   2.0000      -6.029489      -164.0707
  23   2.0000      -6.025747      -163.9689
  24   2.0000      -1.007998       -27.4290
  25   2.0000      -0.987218       -26.8636
  26   2.0000      -0.911217       -24.7955
  27   2.0000      -0.905337       -24.6355
  28   2.0000      -0.868439       -23.6314
  29   2.0000      -0.848552       -23.0903
  30   2.0000      -0.841067       -22.8866
  31   2.0000      -0.817320       -22.2404
  32   2.0000      -0.783693       -21.3254
  33   2.0000      -0.776375       -21.1262
  34   2.0000      -0.711342       -19.3566
  35   2.0000      -0.704942       -19.1824
  36   2.0000      -0.695237       -18.9183
  37   2.0000      -0.656890       -17.8749
  38   2.0000      -0.650422       -17.6989
  39   2.0000      -0.624058       -16.9815
  40   2.0000      -0.606395       -16.5009
  41   2.0000      -0.568764       -15.4769
  42   2.0000      -0.562080       -15.2950
  43   2.0000      -0.543165       -14.7803
  44   2.0000      -0.536509       -14.5992
  45   2.0000      -0.521916       -14.2021
  46   2.0000      -0.519657       -14.1406
  47   2.0000      -0.512102       -13.9350
  48   2.0000      -0.510010       -13.8781
  49   2.0000      -0.500175       -13.6104
  50   2.0000      -0.487132       -13.2555
  51   2.0000      -0.482454       -13.1282
  52   2.0000      -0.468652       -12.7527
  53   2.0000      -0.466031       -12.6813
  54   2.0000      -0.458329       -12.4718
  55   2.0000      -0.455035       -12.3821
  56   2.0000      -0.442798       -12.0492
  57   2.0000      -0.436610       -11.8808
  58   2.0000      -0.430336       -11.7100
  59   2.0000      -0.421682       -11.4746
  60   2.0000      -0.420623       -11.4457
  61   2.0000      -0.410413       -11.1679
  62   2.0000      -0.405786       -11.0420
  63   2.0000      -0.345034        -9.3889
  64   2.0000      -0.334051        -9.0900
  65   2.0000      -0.328152        -8.9295
  66   2.0000      -0.301339        -8.1999
  67   0.0000       0.026795         0.7291
  68   0.0000       0.067618         1.8400
  69   0.0000       0.117512         3.1977
  70   0.0000       0.120107         3.2683
  71   0.0000       0.121816         3.3148

MULLIKEN ATOMIC CHARGES
-----------------------
   0 S :    0.076453
   1 C :   -0.085599
   2 C :   -0.057922
   3 C :    0.071544
   4 C :   -0.158956
   5 H :   -0.012630
   6 C :    0.032946
   7 H :    0.011188
   8 H :    0.040802
   9 C :   -0.100272
  10 H :    0.044572
  11 H :    0.049734
  12 C :   -0.051556
  13 H :    0.014777
  14 H :    0.033296
  15 H :    0.029415
  16 S :    0.132945
  17 C :   -0.044995
  18 C :   -0.049833
  19 C :   -0.005262
  20 C :   -0.161916
  21 H :    0.025237
  22 C :    0.035807
  23 H :    0.044800
  24 H :    0.028441
  25 C :   -0.050152
  26 H :    0.025303
  27 H :    0.020720
  28 C :   -0.089260
  29 H :    0.022818
  30 H :    0.038752
  31 H :    0.033554
  32 H :    0.023373
  33 H :    0.031875
Sum of atomic charges:   -0.0000000

LOEWDIN ATOMIC CHARGES
----------------------
   0 S :    0.370284
   1 C :   -0.165058
   2 C :   -0.064021
   3 C :   -0.054001
   4 C :   -0.173130
   5 H :    0.021404
   6 C :   -0.037940
   7 H :    0.021035
   8 H :    0.039333
   9 C :   -0.042505
  10 H :    0.032431
  11 H :    0.031490
  12 C :   -0.080564
  13 H :    0.015101
  14 H :    0.031453
  15 H :    0.029713
  16 S :    0.436990
  17 C :   -0.193278
  18 C :   -0.074172
  19 C :   -0.054878
  20 C :   -0.197348
  21 H :    0.030981
  22 C :   -0.035655
  23 H :    0.034187
  24 H :    0.038704
  25 C :   -0.041443
  26 H :    0.021779
  27 H :    0.022191
  28 C :   -0.073133
  29 H :    0.015178
  30 H :    0.031669
  31 H :    0.030355
  32 H :    0.012381
  33 H :    0.020467

  Mayer bond orders larger than 0.100000
B(  0-S ,  1-C ) :   1.1214 B(  0-S ,  4-C ) :   1.1427 B(  1-C ,  2-C ) :   1.6099
B(  1-C , 32-H ) :   0.9837 B(  2-C ,  3-C ) :   1.2274 B(  2-C ,  6-C ) :   1.0263
B(  3-C ,  4-C ) :   1.5903 B(  3-C ,  5-H ) :   1.0060 B(  4-C , 20-C ) :   1.0201
B(  6-C ,  7-H ) :   0.9420 B(  6-C ,  8-H ) :   0.9503 B(  6-C ,  9-C ) :   1.0616
B(  9-C , 10-H ) :   0.9588 B(  9-C , 11-H ) :   0.9609 B(  9-C , 12-C ) :   1.0594
B( 12-C , 13-H ) :   0.9789 B( 12-C , 14-H ) :   0.9721 B( 12-C , 15-H ) :   0.9758
B( 16-S , 17-C ) :   1.1689 B( 16-S , 20-C ) :   1.1561 B( 17-C , 18-C ) :   1.5949
B( 17-C , 33-H ) :   0.9750 B( 18-C , 19-C ) :   1.2517 B( 18-C , 21-H ) :   0.9813
B( 19-C , 20-C ) :   1.5784 B( 19-C , 22-C ) :   1.0371 B( 22-C , 23-H ) :   0.9554
B( 22-C , 24-H ) :   0.9296 B( 22-C , 25-C ) :   1.0491 B( 25-C , 26-H ) :   0.9537
B( 25-C , 27-H ) :   0.9604 B( 25-C , 28-C ) :   1.0666 B( 28-C , 29-H ) :   0.9789
B( 28-C , 30-H ) :   0.9760 B( 28-C , 31-H ) :   0.9762

Dispersion correction           -0.013842507
FINAL SINGLE POINT ENERGY     -1339.862542710846

DIPOLE MOMENT
-------------
                                X             Y             Z
Electronic contribution:     11.74473      13.75243     -22.76706
Nuclear contribution   :    -12.03990     -13.81283      23.20290
                        -----------------------------------------
Total Dipole Moment    :     -0.29517      -0.06040       0.43583
                        -----------------------------------------
Magnitude (a.u.)       :      0.52984
Magnitude (Debye)      :      1.34673

Rotational constants in cm-1:     0.017301     0.008669     0.006377
Rotational constants in MHz :   518.673168   259.885343   191.191875

                             ****ORCA TERMINATED NORMALLY****
TOTAL RUN TIME: 0 days 0 hours 0 minutes 21 seconds 168 msec
