                         Program Version 4.2.1 -  RELEASE  -
|  1> ! wB97X-D3 SP def2-SVP
|  2> %pal
|  3> nprocs 24
|  4> end
|  5>
|  6> * xyz 0 1
|  7> S 	 -48.76 	 -0.790059 	 -17.6174
|  8> C 	 -49.11 	 -2.28983 	 -18.548
|  9> C 	 -48.8677 	 -3.40504 	 -17.7824
| 10> C 	 -48.5632 	 -3.06978 	 -16.4109
| 11> C 	 -48.4356 	 -1.70261 	 -16.1001
| 12> H 	 -48.4269 	 -3.70066 	 -15.5401
| 13> C 	 -48.9134 	 -4.84234 	 -18.1967
| 14> H 	 -49.8172 	 -5.2104 	 -17.7321
| 15> H 	 -48.0049 	 -5.33647 	 -17.6617
| 16> C 	 -48.8075 	 -5.26317 	 -19.678
| 17> H 	 -49.7381 	 -4.9286 	 -20.0536
| 18> H 	 -47.9822 	 -4.64238 	 -20.1368
| 19> C 	 -48.7937 	 -6.80496 	 -19.8607
| 20> H 	 -48.8794 	 -6.9683 	 -20.945
| 21> H 	 -47.8826 	 -7.28093 	 -19.4063
| 22> H 	 -49.6062 	 -7.33754 	 -19.3108
| 23> S 	 -46.6471 	 0.0880784 	 -15.0973
| 24> C 	 -46.6081 	 0.438587 	 -13.3585
| 25> C 	 -47.4087 	 -0.447653 	 -12.6908
| 26> C 	 -48.1989 	 -1.32361 	 -13.5015
| 27> C 	 -47.9065 	 -1.13589 	 -14.8749
| 28> H 	 -47.5912 	 -0.362802 	 -11.6213
| 29> C 	 -49.1773 	 -2.30089 	 -12.8816
| 30> H 	 -49.2299 	 -2.18136 	 -11.8106
| 31> H 	 -48.7816 	 -3.29145 	 -13.023
| 32> C 	 -50.656 	 -2.16844 	 -13.2054
| 33> H 	 -50.7901 	 -2.5874 	 -14.1923
| 34> H 	 -51.0013 	 -1.16635 	 -13.1322
| 35> C 	 -51.5629 	 -3.02209 	 -12.2841
| 36> H 	 -51.4349 	 -4.05301 	 -12.3671
| 37> H 	 -52.626 	 -2.82842 	 -12.4975
| 38> H 	 -51.4006 	 -2.88131 	 -11.1946
| 39> H 	 -49.3024 	 -2.23906 	 -19.653
| 40> H 	 -46.0227 	 1.21488 	 -12.8524
| 41> *
| 42>
| 43>                          ****END OF INPUT****

CARTESIAN COORDINATES (ANGSTROEM)
---------------------------------
  S    -48.760000   -0.790059  -17.617400
  C    -49.110000   -2.289830  -18.548000
  C    -48.867700   -3.405040  -17.782400
  C    -48.563200   -3.069780  -16.410900
  C    -48.435600   -1.702610  -16.100100
  H    -48.426900   -3.700660  -15.540100
  C    -48.913400   -4.842340  -18.196700
  H    -49.817200   -5.210400  -17.732100
  H    -48.004900   -5.336470  -17.661700
  C    -48.807500   -5.263170  -19.678000
  H    -49.738100   -4.928600  -20.053600
  H    -47.982200   -4.642380  -20.136800
  C    -48.793700   -6.804960  -19.860700
  H    -48.879400   -6.968300  -20.945000
  H    -47.882600   -7.280930  -19.406300
  H    -49.606200   -7.337540  -19.310800
  S    -46.647100    0.088078  -15.097300
  C    -46.608100    0.438587  -13.358500
  C    -47.408700   -0.447653  -12.690800
  C    -48.198900   -1.323610  -13.501500
  C    -47.906500   -1.135890  -14.874900
  H    -47.591200   -0.362802  -11.621300
  C    -49.177300   -2.300890  -12.881600
  H    -49.229900   -2.181360  -11.810600
  H    -48.781600   -3.291450  -13.023000
  C    -50.656000   -2.168440  -13.205400
  H    -50.790100   -2.587400  -14.192300
  H    -51.001300   -1.166350  -13.132200
  C    -51.562900   -3.022090  -12.284100
  H    -51.434900   -4.053010  -12.367100
  H    -52.626000   -2.828420  -12.497500
  H    -51.400600   -2.881310  -11.194600
  H    -49.302400   -2.239060  -19.653000
  H    -46.022700    1.214880  -12.852400

 Total Charge           Charge          ....    0
 Multiplicity           Mult            ....    1
 Number of Electrons    NEL             ....  134
 Basis Dimension        Dim             ....  322

ORBITAL ENERGIES
----------------

  NO   OCC          E(Eh)            E(eV)
   0   2.0000     -88.966977     -2420.9145
   1   2.0000     -88.963212     -2420.8121
   2   2.0000     -10.335953      -281.2556
   3   2.0000     -10.333815      -281.1974
   4   2.0000     -10.322462      -280.8885
   5   2.0000     -10.320010      -280.8217
   6   2.0000     -10.308862      -280.5184
   7   2.0000     -10.307148      -280.4718
   8   2.0000     -10.298015      -280.2232
   9   2.0000     -10.297592      -280.2117
  10   2.0000     -10.293754      -280.1073
  11   2.0000     -10.293659      -280.1047
  12   2.0000     -10.292375      -280.0698
  13   2.0000     -10.290011      -280.0054
  14   2.0000     -10.281715      -279.7797
  15   2.0000     -10.275775      -279.6180
  16   2.0000      -8.080940      -219.8936
  17   2.0000      -8.076464      -219.7718
  18   2.0000      -6.039560      -164.3448
  19   2.0000      -6.035506      -164.2345
  20   2.0000      -6.035246      -164.2274
  21   2.0000      -6.031652      -164.1296
  22   2.0000      -6.031184      -164.1169
  23   2.0000      -6.027003      -164.0031
  24   2.0000      -0.998815       -27.1791
  25   2.0000      -0.975952       -26.5570
  26   2.0000      -0.912052       -24.8182
  27   2.0000      -0.909927       -24.7604
  28   2.0000      -0.869456       -23.6591
  29   2.0000      -0.850181       -23.1346
  30   2.0000      -0.843288       -22.9470
  31   2.0000      -0.811691       -22.0872
  32   2.0000      -0.781208       -21.2578
  33   2.0000      -0.770435       -20.9646
  34   2.0000      -0.713865       -19.4253
  35   2.0000      -0.705948       -19.2098
  36   2.0000      -0.690276       -18.7834
  37   2.0000      -0.662421       -18.0254
  38   2.0000      -0.636649       -17.3241
  39   2.0000      -0.606334       -16.4992
  40   2.0000      -0.594272       -16.1710
  41   2.0000      -0.573623       -15.6091
  42   2.0000      -0.572193       -15.5702
  43   2.0000      -0.562845       -15.3158
  44   2.0000      -0.527091       -14.3429
  45   2.0000      -0.522606       -14.2208
  46   2.0000      -0.516707       -14.0603
  47   2.0000      -0.512785       -13.9536
  48   2.0000      -0.504184       -13.7195
  49   2.0000      -0.499022       -13.5791
  50   2.0000      -0.489177       -13.3112
  51   2.0000      -0.483255       -13.1500
  52   2.0000      -0.480489       -13.0748
  53   2.0000      -0.461591       -12.5605
  54   2.0000      -0.454079       -12.3561
  55   2.0000      -0.445873       -12.1328
  56   2.0000      -0.442426       -12.0390
  57   2.0000      -0.438502       -11.9323
  58   2.0000      -0.431577       -11.7438
  59   2.0000      -0.425035       -11.5658
  60   2.0000      -0.422416       -11.4945
  61   2.0000      -0.413622       -11.2552
  62   2.0000      -0.407778       -11.0962
  63   2.0000      -0.350035        -9.5249
  64   2.0000      -0.332465        -9.0468
  65   2.0000      -0.325226        -8.8498
  66   2.0000      -0.288956        -7.8629
  67   0.0000       0.020731         0.5641
  68   0.0000       0.071413         1.9432
  69   0.0000       0.107645         2.9292
  70   0.0000       0.122636         3.3371
  71   0.0000       0.127446         3.4680

MULLIKEN ATOMIC CHARGES
-----------------------
   0 S :    0.085217
   1 C :   -0.160383
   2 C :   -0.039090
   3 C :    0.020956
   4 C :   -0.140979
   5 H :    0.007057
   6 C :   -0.013121
   7 H :    0.041433
   8 H :    0.044562
   9 C :   -0.064610
  10 H :    0.019501
  11 H :    0.050799
  12 C :   -0.060418
  13 H :    0.049289
  14 H :    0.039955
  15 H :    0.037175
  16 S :    0.102829
  17 C :   -0.095123
  18 C :   -0.031077
  19 C :   -0.025029
  20 C :   -0.165901
  21 H :    0.022814
  22 C :    0.055585
  23 H :   -0.001553
  24 H :    0.034799
  25 C :   -0.034002
  26 H :    0.031347
  27 H :    0.032556
  28 C :   -0.060165
  29 H :    0.011903
  30 H :    0.039412
  31 H :    0.023490
  32 H :    0.075209
  33 H :    0.065564
Sum of atomic charges:    0.0000000

LOEWDIN ATOMIC CHARGES
----------------------
   0 S :    0.358109
   1 C :   -0.193879
   2 C :   -0.066824
   3 C :   -0.060420
   4 C :   -0.181285
   5 H :    0.029301
   6 C :   -0.042102
   7 H :    0.032957
   8 H :    0.039907
   9 C :   -0.045790
  10 H :    0.017658
  11 H :    0.034485
  12 C :   -0.067867
  13 H :    0.031845
  14 H :    0.029351
  15 H :    0.031692
  16 S :    0.394749
  17 C :   -0.182782
  18 C :   -0.073238
  19 C :   -0.052635
  20 C :   -0.188639
  21 H :    0.032314
  22 C :   -0.034616
  23 H :    0.027613
  24 H :    0.029970
  25 C :   -0.028543
  26 H :    0.024559
  27 H :    0.024859
  28 C :   -0.067496
  29 H :    0.013855
  30 H :    0.031521
  31 H :    0.023835
  32 H :    0.040377
  33 H :    0.037157

  Mayer bond orders larger than 0.100000
B(  0-S ,  1-C ) :   1.1120 B(  0-S ,  4-C ) :   1.1258 B(  1-C ,  2-C ) :   1.6218
B(  1-C , 32-H ) :   0.9614 B(  2-C ,  3-C ) :   1.2214 B(  2-C ,  6-C ) :   1.0054
B(  3-C ,  4-C ) :   1.5811 B(  3-C ,  5-H ) :   0.9917 B(  4-C , 20-C ) :   1.0832
B(  6-C ,  7-H ) :   0.9361 B(  6-C ,  8-H ) :   0.9483 B(  6-C ,  9-C ) :   1.0657
B(  9-C , 10-H ) :   0.9452 B(  9-C , 11-H ) :   0.9591 B(  9-C , 12-C ) :   1.0773
B( 12-C , 13-H ) :   0.9749 B( 12-C , 14-H ) :   0.9761 B( 12-C , 15-H ) :   0.9724
B( 16-S , 17-C ) :   1.1382 B( 16-S , 20-C ) :   1.1413 B( 17-C , 18-C ) :   1.6133
B( 17-C , 33-H ) :   0.9653 B( 18-C , 19-C ) :   1.2689 B( 18-C , 21-H ) :   0.9790
B( 19-C , 20-C ) :   1.5599 B( 19-C , 22-C ) :   1.0415 B( 22-C , 23-H ) :   0.9335
B( 22-C , 24-H ) :   0.9293 B( 22-C , 25-C ) :   1.0644 B( 25-C , 26-H ) :   0.9492
B( 25-C , 27-H ) :   0.9590 B( 25-C , 28-C ) :   1.0876 B( 28-C , 29-H ) :   0.9746
B( 28-C , 30-H ) :   0.9755 B( 28-C , 31-H ) :   0.9719

Dispersion correction           -0.013563810
FINAL SINGLE POINT ENERGY     -1339.871133270608

DIPOLE MOMENT
-------------
                                X             Y             Z
Electronic contribution:     13.50657      24.94318      -1.81630
Nuclear contribution   :    -13.74927     -25.58685       2.06482
                        -----------------------------------------
Total Dipole Moment    :     -0.24270      -0.64367       0.24853
                        -----------------------------------------
Magnitude (a.u.)       :      0.73142
Magnitude (Debye)      :      1.85912

Rotational constants in cm-1:     0.018381     0.007669     0.006119
Rotational constants in MHz :   551.050030   229.905195   183.433612

                             ****ORCA TERMINATED NORMALLY****
TOTAL RUN TIME: 0 days 0 hours 0 minutes 20 seconds 930 msec
