                         Program Version 4.2.1 -  RELEASE  -
|  1> ! wB97X-D3 SP def2-SVP
|  2> %pal
|  3> nprocs 24
|  4> end
|  5>
|  6> * xyz 0 1
|  7> S 	 -85.0704 	 -38.0352 	 -73.0373
|  8> C 	 -86.0076 	 -37.448 	 -74.4886
|  9> C 	 -86.249 	 -38.4379 	 -75.4415
| 10> C 	 -85.4916 	 -39.6482 	 -75.1087
| 11> C 	 -84.9235 	 -39.6236 	 -73.8299
| 12> H 	 -85.36 	 -40.4895 	 -75.7158
| 13> C 	 -87.1116 	 -38.2924 	 -76.7088
| 14> H 	 -88.1291 	 -38.5233 	 -76.3541
| 15> H 	 -87.0129 	 -39.1745 	 -77.3398
| 16> C 	 -86.8071 	 -37.02 	 -77.4119
| 17> H 	 -87.457 	 -36.9378 	 -78.3012
| 18> H 	 -87.1633 	 -36.1147 	 -76.9358
| 19> C 	 -85.337 	 -36.7803 	 -77.768
| 20> H 	 -85.2015 	 -36.1033 	 -78.6018
| 21> H 	 -84.5481 	 -36.5267 	 -77.0556
| 22> H 	 -84.9927 	 -37.7372 	 -78.1771
| 23> S 	 -82.4931 	 -40.3472 	 -72.5465
| 24> C 	 -82.3232 	 -42.0457 	 -72.1501
| 25> C 	 -83.4054 	 -42.8294 	 -72.4365
| 26> C 	 -84.346 	 -42.138 	 -73.1878
| 27> C 	 -84.0286 	 -40.7081 	 -73.3431
| 28> H 	 -83.4249 	 -43.8682 	 -72.1106
| 29> C 	 -85.6471 	 -42.7826 	 -73.6046
| 30> H 	 -86.3492 	 -41.9857 	 -73.9176
| 31> H 	 -86.1451 	 -43.192 	 -72.7125
| 32> C 	 -85.5589 	 -43.7868 	 -74.7578
| 33> H 	 -86.6005 	 -44.0677 	 -74.9701
| 34> H 	 -85.0514 	 -44.6737 	 -74.3868
| 35> C 	 -84.8349 	 -43.4167 	 -76.0984
| 36> H 	 -85.4766 	 -42.7625 	 -76.8438
| 37> H 	 -84.5834 	 -44.3104 	 -76.6839
| 38> H 	 -83.9422 	 -42.8513 	 -75.8358
| 39> H 	 -86.6127 	 -36.5747 	 -74.4474
| 40> H 	 -81.3977 	 -42.4554 	 -71.706
| 41> *
| 42>
| 43>                          ****END OF INPUT****

CARTESIAN COORDINATES (ANGSTROEM)
---------------------------------
  S    -85.070400  -38.035200  -73.037300
  C    -86.007600  -37.448000  -74.488600
  C    -86.249000  -38.437900  -75.441500
  C    -85.491600  -39.648200  -75.108700
  C    -84.923500  -39.623600  -73.829900
  H    -85.360000  -40.489500  -75.715800
  C    -87.111600  -38.292400  -76.708800
  H    -88.129100  -38.523300  -76.354100
  H    -87.012900  -39.174500  -77.339800
  C    -86.807100  -37.020000  -77.411900
  H    -87.457000  -36.937800  -78.301200
  H    -87.163300  -36.114700  -76.935800
  C    -85.337000  -36.780300  -77.768000
  H    -85.201500  -36.103300  -78.601800
  H    -84.548100  -36.526700  -77.055600
  H    -84.992700  -37.737200  -78.177100
  S    -82.493100  -40.347200  -72.546500
  C    -82.323200  -42.045700  -72.150100
  C    -83.405400  -42.829400  -72.436500
  C    -84.346000  -42.138000  -73.187800
  C    -84.028600  -40.708100  -73.343100
  H    -83.424900  -43.868200  -72.110600
  C    -85.647100  -42.782600  -73.604600
  H    -86.349200  -41.985700  -73.917600
  H    -86.145100  -43.192000  -72.712500
  C    -85.558900  -43.786800  -74.757800
  H    -86.600500  -44.067700  -74.970100
  H    -85.051400  -44.673700  -74.386800
  C    -84.834900  -43.416700  -76.098400
  H    -85.476600  -42.762500  -76.843800
  H    -84.583400  -44.310400  -76.683900
  H    -83.942200  -42.851300  -75.835800
  H    -86.612700  -36.574700  -74.447400
  H    -81.397700  -42.455400  -71.706000

 Total Charge           Charge          ....    0
 Multiplicity           Mult            ....    1
 Number of Electrons    NEL             ....  134
 Basis Dimension        Dim             ....  322

ORBITAL ENERGIES
----------------

  NO   OCC          E(Eh)            E(eV)
   0   2.0000     -88.971747     -2421.0443
   1   2.0000     -88.968642     -2420.9598
   2   2.0000     -10.335285      -281.2374
   3   2.0000     -10.335179      -281.2345
   4   2.0000     -10.317864      -280.7633
   5   2.0000     -10.314481      -280.6713
   6   2.0000     -10.308087      -280.4973
   7   2.0000     -10.307108      -280.4707
   8   2.0000     -10.298309      -280.2312
   9   2.0000     -10.292543      -280.0743
  10   2.0000     -10.291724      -280.0520
  11   2.0000     -10.290462      -280.0177
  12   2.0000     -10.289808      -279.9999
  13   2.0000     -10.289404      -279.9889
  14   2.0000     -10.289336      -279.9871
  15   2.0000     -10.274203      -279.5753
  16   2.0000      -8.085751      -220.0245
  17   2.0000      -8.081536      -219.9098
  18   2.0000      -6.044077      -164.4677
  19   2.0000      -6.040410      -164.3679
  20   2.0000      -6.040297      -164.3648
  21   2.0000      -6.036725      -164.2676
  22   2.0000      -6.036491      -164.2613
  23   2.0000      -6.031960      -164.1380
  24   2.0000      -0.996205       -27.1081
  25   2.0000      -0.972804       -26.4714
  26   2.0000      -0.915642       -24.9159
  27   2.0000      -0.904641       -24.6165
  28   2.0000      -0.862042       -23.4573
  29   2.0000      -0.845652       -23.0113
  30   2.0000      -0.840697       -22.8765
  31   2.0000      -0.808949       -22.0126
  32   2.0000      -0.786889       -21.4123
  33   2.0000      -0.770563       -20.9681
  34   2.0000      -0.711795       -19.3689
  35   2.0000      -0.702319       -19.1111
  36   2.0000      -0.686305       -18.6753
  37   2.0000      -0.652264       -17.7490
  38   2.0000      -0.635526       -17.2935
  39   2.0000      -0.611868       -16.6498
  40   2.0000      -0.592064       -16.1109
  41   2.0000      -0.572784       -15.5862
  42   2.0000      -0.564085       -15.3495
  43   2.0000      -0.549592       -14.9552
  44   2.0000      -0.541716       -14.7408
  45   2.0000      -0.530550       -14.4370
  46   2.0000      -0.512322       -13.9410
  47   2.0000      -0.503304       -13.6956
  48   2.0000      -0.494040       -13.4435
  49   2.0000      -0.488305       -13.2874
  50   2.0000      -0.486668       -13.2429
  51   2.0000      -0.469760       -12.7828
  52   2.0000      -0.467154       -12.7119
  53   2.0000      -0.463257       -12.6059
  54   2.0000      -0.460469       -12.5300
  55   2.0000      -0.452343       -12.3089
  56   2.0000      -0.447674       -12.1818
  57   2.0000      -0.445201       -12.1145
  58   2.0000      -0.437018       -11.8919
  59   2.0000      -0.420194       -11.4341
  60   2.0000      -0.415265       -11.2999
  61   2.0000      -0.407608       -11.0916
  62   2.0000      -0.405801       -11.0424
  63   2.0000      -0.348373        -9.4797
  64   2.0000      -0.335187        -9.1209
  65   2.0000      -0.328905        -8.9500
  66   2.0000      -0.280921        -7.6442
  67   0.0000       0.022544         0.6135
  68   0.0000       0.066458         1.8084
  69   0.0000       0.097985         2.6663
  70   0.0000       0.120554         3.2804
  71   0.0000       0.126639         3.4460

MULLIKEN ATOMIC CHARGES
-----------------------
   0 S :    0.091729
   1 C :   -0.115790
   2 C :   -0.115849
   3 C :    0.037754
   4 C :   -0.126037
   5 H :   -0.023439
   6 C :    0.105683
   7 H :    0.041928
   8 H :    0.013315
   9 C :   -0.060959
  10 H :    0.024437
  11 H :    0.022350
  12 C :   -0.040324
  13 H :    0.026473
  14 H :    0.051013
  15 H :    0.010081
  16 S :    0.118827
  17 C :   -0.115214
  18 C :   -0.019099
  19 C :   -0.063048
  20 C :   -0.150798
  21 H :    0.027485
  22 C :    0.052582
  23 H :    0.023626
  24 H :    0.039190
  25 C :   -0.068836
  26 H :    0.031580
  27 H :    0.024141
  28 C :   -0.094655
  29 H :    0.045206
  30 H :    0.044752
  31 H :    0.054229
  32 H :    0.043889
  33 H :    0.063776
Sum of atomic charges:   -0.0000000

LOEWDIN ATOMIC CHARGES
----------------------
   0 S :    0.359143
   1 C :   -0.179742
   2 C :   -0.044991
   3 C :   -0.058194
   4 C :   -0.176946
   5 H :    0.018237
   6 C :   -0.035408
   7 H :    0.043067
   8 H :    0.030981
   9 C :   -0.049590
  10 H :    0.031334
  11 H :    0.023063
  12 C :   -0.069851
  13 H :    0.026192
  14 H :    0.031832
  15 H :    0.024936
  16 S :    0.407957
  17 C :   -0.185260
  18 C :   -0.075000
  19 C :   -0.052930
  20 C :   -0.202109
  21 H :    0.039239
  22 C :   -0.041597
  23 H :    0.030883
  24 H :    0.038231
  25 C :   -0.042169
  26 H :    0.026511
  27 H :    0.020273
  28 C :   -0.076338
  29 H :    0.030547
  30 H :    0.030069
  31 H :    0.026436
  32 H :    0.019223
  33 H :    0.031969

  Mayer bond orders larger than 0.100000
B(  0-S ,  1-C ) :   1.1039 B(  0-S ,  4-C ) :   1.1310 B(  1-C ,  2-C ) :   1.6579
B(  1-C , 32-H ) :   0.9621 B(  2-C ,  3-C ) :   1.2029 B(  2-C ,  6-C ) :   1.0050
B(  3-C ,  4-C ) :   1.5841 B(  3-C ,  5-H ) :   0.9924 B(  4-C , 20-C ) :   1.0625
B(  6-C ,  7-H ) :   0.9294 B(  6-C ,  8-H ) :   0.9390 B(  6-C ,  9-C ) :   1.0800
B(  9-C , 10-H ) :   0.9492 B(  9-C , 11-H ) :   0.9493 B(  9-C , 12-C ) :   1.0684
B( 12-C , 13-H ) :   0.9730 B( 12-C , 14-H ) :   0.9728 B( 12-C , 15-H ) :   0.9745
B( 16-S , 17-C ) :   1.1697 B( 16-S , 20-C ) :   1.1515 B( 17-C , 18-C ) :   1.5789
B( 17-C , 20-C ) :   0.1050 B( 17-C , 33-H ) :   0.9599 B( 18-C , 19-C ) :   1.2878
B( 18-C , 21-H ) :   0.9917 B( 19-C , 20-C ) :   1.5080 B( 19-C , 22-C ) :   1.0468
B( 22-C , 23-H ) :   0.9269 B( 22-C , 24-H ) :   0.9396 B( 22-C , 25-C ) :   1.0665
B( 25-C , 26-H ) :   0.9557 B( 25-C , 27-H ) :   0.9591 B( 25-C , 28-C ) :   1.0717
B( 28-C , 29-H ) :   0.9686 B( 28-C , 30-H ) :   0.9726 B( 28-C , 31-H ) :   0.9699

Dispersion correction           -0.015238411
FINAL SINGLE POINT ENERGY     -1339.861608539907

DIPOLE MOMENT
-------------
                                X             Y             Z
Electronic contribution:     11.48590       6.35444      22.73879
Nuclear contribution   :    -11.87219      -6.79715     -23.12924
                        -----------------------------------------
Total Dipole Moment    :     -0.38629      -0.44271      -0.39045
                        -----------------------------------------
Magnitude (a.u.)       :      0.70546
Magnitude (Debye)      :      1.79313

Rotational constants in cm-1:     0.019903     0.008788     0.006931
Rotational constants in MHz :   596.670738   263.456714   207.791054

                             ****ORCA TERMINATED NORMALLY****
TOTAL RUN TIME: 0 days 0 hours 0 minutes 22 seconds 178 msec
