                         Program Version 4.2.1 -  RELEASE  -
|  1> ! wB97X-D3 SP def2-SVP
|  2> %pal
|  3> nprocs 24
|  4> end
|  5>
|  6> * xyz 0 1
|  7> S 	 31.422 	 -33.8025 	 -135.257
|  8> C 	 33.0219 	 -33.217 	 -135.511
|  9> C 	 33.8058 	 -33.6592 	 -134.483
| 10> C 	 33.0405 	 -34.1129 	 -133.353
| 11> C 	 31.7021 	 -34.2598 	 -133.657
| 12> H 	 33.4492 	 -34.1816 	 -132.371
| 13> C 	 35.275 	 -33.4102 	 -134.414
| 14> H 	 35.4457 	 -32.4323 	 -134.075
| 15> H 	 35.6965 	 -33.4867 	 -135.399
| 16> C 	 36.0794 	 -34.3545 	 -133.42
| 17> H 	 37.1064 	 -34.0088 	 -133.489
| 18> H 	 35.7769 	 -34.4546 	 -132.337
| 19> C 	 36.0779 	 -35.7953 	 -133.969
| 20> H 	 36.6075 	 -36.4696 	 -133.25
| 21> H 	 35.0169 	 -36.102 	 -134.135
| 22> H 	 36.61 	 -35.9456 	 -134.937
| 23> S 	 30.4108 	 -36.4135 	 -132.282
| 24> C 	 29.1902 	 -36.0356 	 -131.046
| 25> C 	 29.1474 	 -34.672 	 -130.852
| 26> C 	 29.9856 	 -33.9538 	 -131.752
| 27> C 	 30.6403 	 -34.7129 	 -132.743
| 28> H 	 28.4913 	 -34.2973 	 -130.045
| 29> C 	 30.1226 	 -32.4986 	 -131.535
| 30> H 	 29.2351 	 -32.0386 	 -131.146
| 31> H 	 30.2715 	 -32.0078 	 -132.505
| 32> C 	 31.2675 	 -32.0298 	 -130.624
| 33> H 	 32.1888 	 -32.3661 	 -131.03
| 34> H 	 31.1891 	 -32.5228 	 -129.673
| 35> C 	 31.2665 	 -30.6041 	 -130.293
| 36> H 	 30.4707 	 -30.3707 	 -129.553
| 37> H 	 31.1545 	 -29.9069 	 -131.095
| 38> H 	 32.1996 	 -30.4705 	 -129.738
| 39> H 	 33.3599 	 -32.6932 	 -136.365
| 40> H 	 28.7469 	 -36.6686 	 -130.428
| 41> *
| 42>
| 43>                          ****END OF INPUT****

CARTESIAN COORDINATES (ANGSTROEM)
---------------------------------
  S     31.422000  -33.802500  -135.257000
  C     33.021900  -33.217000  -135.511000
  C     33.805800  -33.659200  -134.483000
  C     33.040500  -34.112900  -133.353000
  C     31.702100  -34.259800  -133.657000
  H     33.449200  -34.181600  -132.371000
  C     35.275000  -33.410200  -134.414000
  H     35.445700  -32.432300  -134.075000
  H     35.696500  -33.486700  -135.399000
  C     36.079400  -34.354500  -133.420000
  H     37.106400  -34.008800  -133.489000
  H     35.776900  -34.454600  -132.337000
  C     36.077900  -35.795300  -133.969000
  H     36.607500  -36.469600  -133.250000
  H     35.016900  -36.102000  -134.135000
  H     36.610000  -35.945600  -134.937000
  S     30.410800  -36.413500  -132.282000
  C     29.190200  -36.035600  -131.046000
  C     29.147400  -34.672000  -130.852000
  C     29.985600  -33.953800  -131.752000
  C     30.640300  -34.712900  -132.743000
  H     28.491300  -34.297300  -130.045000
  C     30.122600  -32.498600  -131.535000
  H     29.235100  -32.038600  -131.146000
  H     30.271500  -32.007800  -132.505000
  C     31.267500  -32.029800  -130.624000
  H     32.188800  -32.366100  -131.030000
  H     31.189100  -32.522800  -129.673000
  C     31.266500  -30.604100  -130.293000
  H     30.470700  -30.370700  -129.553000
  H     31.154500  -29.906900  -131.095000
  H     32.199600  -30.470500  -129.738000
  H     33.359900  -32.693200  -136.365000
  H     28.746900  -36.668600  -130.428000

 Total Charge           Charge          ....    0
 Multiplicity           Mult            ....    1
 Number of Electrons    NEL             ....  134
 Basis Dimension        Dim             ....  322

ORBITAL ENERGIES
----------------

  NO   OCC          E(Eh)            E(eV)
   0   2.0000     -88.964001     -2420.8335
   1   2.0000     -88.963826     -2420.8288
   2   2.0000     -10.330211      -281.0993
   3   2.0000     -10.327049      -281.0133
   4   2.0000     -10.312061      -280.6054
   5   2.0000     -10.308224      -280.5010
   6   2.0000     -10.302780      -280.3529
   7   2.0000     -10.297705      -280.2148
   8   2.0000     -10.294703      -280.1331
   9   2.0000     -10.294186      -280.1190
  10   2.0000     -10.292307      -280.0679
  11   2.0000     -10.288701      -279.9698
  12   2.0000     -10.280019      -279.7335
  13   2.0000     -10.279411      -279.7170
  14   2.0000     -10.273104      -279.5454
  15   2.0000     -10.272560      -279.5306
  16   2.0000      -8.080161      -219.8724
  17   2.0000      -8.077720      -219.8059
  18   2.0000      -6.038493      -164.3158
  19   2.0000      -6.036293      -164.2559
  20   2.0000      -6.034263      -164.2006
  21   2.0000      -6.032388      -164.1496
  22   2.0000      -6.031166      -164.1164
  23   2.0000      -6.028419      -164.0416
  24   2.0000      -1.013083       -27.5674
  25   2.0000      -0.985862       -26.8267
  26   2.0000      -0.914971       -24.8976
  27   2.0000      -0.911544       -24.8044
  28   2.0000      -0.871559       -23.7163
  29   2.0000      -0.853576       -23.2270
  30   2.0000      -0.844444       -22.9785
  31   2.0000      -0.820778       -22.3345
  32   2.0000      -0.782015       -21.2797
  33   2.0000      -0.769630       -20.9427
  34   2.0000      -0.712311       -19.3830
  35   2.0000      -0.696197       -18.9445
  36   2.0000      -0.690904       -18.8004
  37   2.0000      -0.660692       -17.9783
  38   2.0000      -0.644417       -17.5355
  39   2.0000      -0.625645       -17.0247
  40   2.0000      -0.599823       -16.3220
  41   2.0000      -0.577025       -15.7016
  42   2.0000      -0.568533       -15.4706
  43   2.0000      -0.555115       -15.1055
  44   2.0000      -0.536724       -14.6050
  45   2.0000      -0.530409       -14.4332
  46   2.0000      -0.522325       -14.2132
  47   2.0000      -0.519581       -14.1385
  48   2.0000      -0.513382       -13.9698
  49   2.0000      -0.504380       -13.7249
  50   2.0000      -0.489859       -13.3297
  51   2.0000      -0.478720       -13.0266
  52   2.0000      -0.473387       -12.8815
  53   2.0000      -0.461966       -12.5707
  54   2.0000      -0.460298       -12.5253
  55   2.0000      -0.446206       -12.1419
  56   2.0000      -0.441453       -12.0125
  57   2.0000      -0.435210       -11.8427
  58   2.0000      -0.430909       -11.7256
  59   2.0000      -0.423662       -11.5284
  60   2.0000      -0.416000       -11.3199
  61   2.0000      -0.411163       -11.1883
  62   2.0000      -0.409509       -11.1433
  63   2.0000      -0.333147        -9.0654
  64   2.0000      -0.327044        -8.8993
  65   2.0000      -0.319802        -8.7022
  66   2.0000      -0.312170        -8.4946
  67   0.0000       0.042106         1.1458
  68   0.0000       0.051854         1.4110
  69   0.0000       0.108521         2.9530
  70   0.0000       0.123934         3.3724
  71   0.0000       0.134996         3.6734

MULLIKEN ATOMIC CHARGES
-----------------------
   0 S :    0.129585
   1 C :   -0.115638
   2 C :   -0.105016
   3 C :    0.047119
   4 C :   -0.177949
   5 H :    0.010055
   6 C :    0.095692
   7 H :    0.032048
   8 H :    0.019179
   9 C :   -0.103782
  10 H :    0.030586
  11 H :    0.052265
  12 C :   -0.098060
  13 H :    0.039547
  14 H :    0.051036
  15 H :    0.033043
  16 S :    0.091125
  17 C :   -0.026929
  18 C :   -0.044460
  19 C :   -0.031486
  20 C :   -0.121776
  21 H :    0.034223
  22 C :    0.071891
  23 H :    0.002417
  24 H :    0.019323
  25 C :   -0.044971
  26 H :    0.006472
  27 H :    0.008147
  28 C :   -0.024029
  29 H :    0.025842
  30 H :    0.027372
  31 H :    0.031231
  32 H :    0.034663
  33 H :    0.001234
Sum of atomic charges:   -0.0000000

LOEWDIN ATOMIC CHARGES
----------------------
   0 S :    0.449747
   1 C :   -0.198385
   2 C :   -0.065900
   3 C :   -0.057826
   4 C :   -0.218156
   5 H :    0.026333
   6 C :   -0.025852
   7 H :    0.027897
   8 H :    0.030690
   9 C :   -0.045127
  10 H :    0.024429
  11 H :    0.032157
  12 C :   -0.078045
  13 H :    0.027212
  14 H :    0.028894
  15 H :    0.024611
  16 S :    0.387813
  17 C :   -0.148289
  18 C :   -0.072240
  19 C :   -0.047938
  20 C :   -0.203528
  21 H :    0.039680
  22 C :   -0.035966
  23 H :    0.023706
  24 H :    0.030859
  25 C :   -0.037487
  26 H :    0.015192
  27 H :    0.022507
  28 C :   -0.061074
  29 H :    0.027576
  30 H :    0.018785
  31 H :    0.033255
  32 H :    0.023127
  33 H :    0.001343

  Mayer bond orders larger than 0.100000
B(  0-S ,  1-C ) :   1.1538 B(  0-S ,  4-C ) :   1.1827 B(  1-C ,  2-C ) :   1.5887
B(  1-C , 32-H ) :   0.9837 B(  2-C ,  3-C ) :   1.2431 B(  2-C ,  6-C ) :   1.0262
B(  3-C ,  4-C ) :   1.5553 B(  3-C ,  5-H ) :   0.9992 B(  4-C , 20-C ) :   1.0050
B(  6-C ,  7-H ) :   0.9363 B(  6-C ,  8-H ) :   0.9383 B(  6-C ,  9-C ) :   1.0719
B(  9-C , 10-H ) :   0.9558 B(  9-C , 11-H ) :   0.9561 B(  9-C , 12-C ) :   1.0687
B( 12-C , 13-H ) :   0.9759 B( 12-C , 14-H ) :   0.9755 B( 12-C , 15-H ) :   0.9753
B( 16-S , 17-C ) :   1.1636 B( 16-S , 20-C ) :   1.1211 B( 17-C , 18-C ) :   1.5995
B( 17-C , 20-C ) :   0.1006 B( 17-C , 33-H ) :   0.9798 B( 18-C , 19-C ) :   1.2524
B( 18-C , 21-H ) :   0.9874 B( 19-C , 20-C ) :   1.5752 B( 19-C , 22-C ) :   1.0700
B( 22-C , 23-H ) :   0.9358 B( 22-C , 24-H ) :   0.9181 B( 22-C , 25-C ) :   1.0700
B( 25-C , 26-H ) :   0.9492 B( 25-C , 27-H ) :   0.9462 B( 25-C , 28-C ) :   1.0988
B( 28-C , 29-H ) :   0.9705 B( 28-C , 30-H ) :   0.9734 B( 28-C , 31-H ) :   0.9684

Dispersion correction           -0.014943402
FINAL SINGLE POINT ENERGY     -1339.861870711437

DIPOLE MOMENT
-------------
                                X             Y             Z
Electronic contribution:    -16.97234     -12.26421     -10.21885
Nuclear contribution   :     17.42686      12.74836      10.66939
                        -----------------------------------------
Total Dipole Moment    :      0.45452       0.48415       0.45055
                        -----------------------------------------
Magnitude (a.u.)       :      0.80248
Magnitude (Debye)      :      2.03975

Rotational constants in cm-1:     0.017090     0.009158     0.007976
Rotational constants in MHz :   512.348055   274.564610   239.129347

                             ****ORCA TERMINATED NORMALLY****
TOTAL RUN TIME: 0 days 0 hours 0 minutes 22 seconds 233 msec
