                         Program Version 4.2.1 -  RELEASE  -
|  1> ! wB97X-D3 SP def2-SVP
|  2> %pal
|  3> nprocs 24
|  4> end
|  5>
|  6> * xyz 0 1
|  7> S 	 -31.6156 	 -50.7383 	 -76.2223
|  8> C 	 -29.8435 	 -50.8869 	 -76.2228
|  9> C 	 -29.1957 	 -49.8025 	 -75.8064
| 10> C 	 -30.069 	 -48.6988 	 -75.4834
| 11> C 	 -31.4114 	 -49.0493 	 -75.6394
| 12> H 	 -29.8412 	 -47.8271 	 -74.9753
| 13> C 	 -27.6844 	 -49.593 	 -75.7671
| 14> H 	 -27.1429 	 -50.3297 	 -75.2065
| 15> H 	 -27.5646 	 -48.5693 	 -75.345
| 16> C 	 -26.9272 	 -49.4948 	 -77.0687
| 17> H 	 -25.961 	 -48.9831 	 -76.7967
| 18> H 	 -26.8939 	 -50.4768 	 -77.5589
| 19> C 	 -27.5786 	 -48.6527 	 -78.1317
| 20> H 	 -28.6892 	 -48.9076 	 -78.1494
| 21> H 	 -27.5422 	 -47.5635 	 -77.883
| 22> H 	 -27.1311 	 -48.734 	 -79.1049
| 23> S 	 -33.6501 	 -49.177 	 -74.019
| 24> C 	 -34.5917 	 -47.803 	 -73.6253
| 25> C 	 -34.0902 	 -46.7383 	 -74.2806
| 26> C 	 -32.8871 	 -46.954 	 -75.0354
| 27> C 	 -32.6037 	 -48.3401 	 -75.1476
| 28> H 	 -34.6321 	 -45.8351 	 -74.1548
| 29> C 	 -32.0741 	 -45.8814 	 -75.6607
| 30> H 	 -31.6158 	 -46.3221 	 -76.5131
| 31> H 	 -31.2853 	 -45.5513 	 -75.0328
| 32> C 	 -32.7719 	 -44.6198 	 -76.2292
| 33> H 	 -33.2075 	 -44.0638 	 -75.3644
| 34> H 	 -33.6401 	 -44.7943 	 -76.8595
| 35> C 	 -31.6694 	 -43.7822 	 -76.9118
| 36> H 	 -32.0339 	 -42.9449 	 -77.5408
| 37> H 	 -31.0146 	 -44.3372 	 -77.645
| 38> H 	 -30.991 	 -43.3409 	 -76.2519
| 39> H 	 -29.2857 	 -51.725 	 -76.6323
| 40> H 	 -35.4864 	 -47.7587 	 -72.9176
| 41> *
| 42>
| 43>                          ****END OF INPUT****

CARTESIAN COORDINATES (ANGSTROEM)
---------------------------------
  S    -31.615600  -50.738300  -76.222300
  C    -29.843500  -50.886900  -76.222800
  C    -29.195700  -49.802500  -75.806400
  C    -30.069000  -48.698800  -75.483400
  C    -31.411400  -49.049300  -75.639400
  H    -29.841200  -47.827100  -74.975300
  C    -27.684400  -49.593000  -75.767100
  H    -27.142900  -50.329700  -75.206500
  H    -27.564600  -48.569300  -75.345000
  C    -26.927200  -49.494800  -77.068700
  H    -25.961000  -48.983100  -76.796700
  H    -26.893900  -50.476800  -77.558900
  C    -27.578600  -48.652700  -78.131700
  H    -28.689200  -48.907600  -78.149400
  H    -27.542200  -47.563500  -77.883000
  H    -27.131100  -48.734000  -79.104900
  S    -33.650100  -49.177000  -74.019000
  C    -34.591700  -47.803000  -73.625300
  C    -34.090200  -46.738300  -74.280600
  C    -32.887100  -46.954000  -75.035400
  C    -32.603700  -48.340100  -75.147600
  H    -34.632100  -45.835100  -74.154800
  C    -32.074100  -45.881400  -75.660700
  H    -31.615800  -46.322100  -76.513100
  H    -31.285300  -45.551300  -75.032800
  C    -32.771900  -44.619800  -76.229200
  H    -33.207500  -44.063800  -75.364400
  H    -33.640100  -44.794300  -76.859500
  C    -31.669400  -43.782200  -76.911800
  H    -32.033900  -42.944900  -77.540800
  H    -31.014600  -44.337200  -77.645000
  H    -30.991000  -43.340900  -76.251900
  H    -29.285700  -51.725000  -76.632300
  H    -35.486400  -47.758700  -72.917600

 Total Charge           Charge          ....    0
 Multiplicity           Mult            ....    1
 Number of Electrons    NEL             ....  134
 Basis Dimension        Dim             ....  322

ORBITAL ENERGIES
----------------

  NO   OCC          E(Eh)            E(eV)
   0   2.0000     -88.969025     -2420.9702
   1   2.0000     -88.961637     -2420.7692
   2   2.0000     -10.338788      -281.3327
   3   2.0000     -10.329007      -281.0666
   4   2.0000     -10.316642      -280.7301
   5   2.0000     -10.312350      -280.6133
   6   2.0000     -10.306016      -280.4410
   7   2.0000     -10.299387      -280.2606
   8   2.0000     -10.295627      -280.1583
   9   2.0000     -10.293184      -280.0918
  10   2.0000     -10.291560      -280.0476
  11   2.0000     -10.287308      -279.9319
  12   2.0000     -10.286730      -279.9162
  13   2.0000     -10.284801      -279.8637
  14   2.0000     -10.280895      -279.7574
  15   2.0000     -10.274967      -279.5961
  16   2.0000      -8.082650      -219.9401
  17   2.0000      -8.077053      -219.7878
  18   2.0000      -6.041308      -164.3923
  19   2.0000      -6.037496      -164.2886
  20   2.0000      -6.035618      -164.2375
  21   2.0000      -6.033134      -164.1699
  22   2.0000      -6.031249      -164.1186
  23   2.0000      -6.027894      -164.0273
  24   2.0000      -1.007037       -27.4029
  25   2.0000      -0.985489       -26.8165
  26   2.0000      -0.917107       -24.9558
  27   2.0000      -0.912558       -24.8320
  28   2.0000      -0.872043       -23.7295
  29   2.0000      -0.851315       -23.1655
  30   2.0000      -0.843259       -22.9462
  31   2.0000      -0.817139       -22.2355
  32   2.0000      -0.785086       -21.3633
  33   2.0000      -0.773385       -21.0449
  34   2.0000      -0.712697       -19.3935
  35   2.0000      -0.703095       -19.1322
  36   2.0000      -0.690156       -18.7801
  37   2.0000      -0.652000       -17.7418
  38   2.0000      -0.637101       -17.3364
  39   2.0000      -0.616610       -16.7788
  40   2.0000      -0.599603       -16.3160
  41   2.0000      -0.582530       -15.8515
  42   2.0000      -0.569704       -15.5024
  43   2.0000      -0.560125       -15.2418
  44   2.0000      -0.545888       -14.8544
  45   2.0000      -0.523621       -14.2484
  46   2.0000      -0.514638       -14.0040
  47   2.0000      -0.512271       -13.9396
  48   2.0000      -0.503080       -13.6895
  49   2.0000      -0.497598       -13.5403
  50   2.0000      -0.488139       -13.2829
  51   2.0000      -0.476197       -12.9580
  52   2.0000      -0.472334       -12.8529
  53   2.0000      -0.467360       -12.7175
  54   2.0000      -0.456340       -12.4176
  55   2.0000      -0.450197       -12.2505
  56   2.0000      -0.442247       -12.0342
  57   2.0000      -0.439714       -11.9652
  58   2.0000      -0.437929       -11.9166
  59   2.0000      -0.421544       -11.4708
  60   2.0000      -0.414073       -11.2675
  61   2.0000      -0.412810       -11.2331
  62   2.0000      -0.409832       -11.1521
  63   2.0000      -0.356637        -9.7046
  64   2.0000      -0.334781        -9.1099
  65   2.0000      -0.325192        -8.8489
  66   2.0000      -0.292527        -7.9601
  67   0.0000       0.025017         0.6807
  68   0.0000       0.072509         1.9731
  69   0.0000       0.104961         2.8561
  70   0.0000       0.124096         3.3768
  71   0.0000       0.129300         3.5184

MULLIKEN ATOMIC CHARGES
-----------------------
   0 S :    0.098652
   1 C :   -0.112238
   2 C :   -0.094962
   3 C :    0.044781
   4 C :   -0.153774
   5 H :   -0.006443
   6 C :    0.094715
   7 H :    0.036761
   8 H :    0.015872
   9 C :   -0.085654
  10 H :    0.043813
  11 H :    0.030710
  12 C :   -0.089377
  13 H :    0.054692
  14 H :    0.020408
  15 H :    0.036932
  16 S :    0.095471
  17 C :   -0.109033
  18 C :   -0.033176
  19 C :   -0.034903
  20 C :   -0.112068
  21 H :    0.001712
  22 C :    0.044341
  23 H :    0.022231
  24 H :    0.034189
  25 C :   -0.069304
  26 H :    0.032802
  27 H :    0.037677
  28 C :   -0.054413
  29 H :    0.033450
  30 H :    0.031076
  31 H :    0.018060
  32 H :    0.042503
  33 H :    0.084495
Sum of atomic charges:   -0.0000000

LOEWDIN ATOMIC CHARGES
----------------------
   0 S :    0.372815
   1 C :   -0.183141
   2 C :   -0.067952
   3 C :   -0.050398
   4 C :   -0.164332
   5 H :    0.020722
   6 C :   -0.030810
   7 H :    0.031609
   8 H :    0.033352
   9 C :   -0.047359
  10 H :    0.035064
  11 H :    0.023649
  12 C :   -0.077939
  13 H :    0.035367
  14 H :    0.021500
  15 H :    0.022286
  16 S :    0.419483
  17 C :   -0.207015
  18 C :   -0.081346
  19 C :   -0.052167
  20 C :   -0.206666
  21 H :    0.024836
  22 C :   -0.035239
  23 H :    0.030346
  24 H :    0.029814
  25 C :   -0.036429
  26 H :    0.025692
  27 H :    0.025285
  28 C :   -0.069724
  29 H :    0.029575
  30 H :    0.030659
  31 H :    0.016257
  32 H :    0.030170
  33 H :    0.052033

  Mayer bond orders larger than 0.100000
B(  0-S ,  1-C ) :   1.1052 B(  0-S ,  4-C ) :   1.1361 B(  1-C ,  2-C ) :   1.6851
B(  1-C , 32-H ) :   0.9624 B(  2-C ,  3-C ) :   1.1966 B(  2-C ,  6-C ) :   1.0116
B(  3-C ,  4-C ) :   1.6012 B(  3-C ,  5-H ) :   0.9955 B(  4-C , 20-C ) :   1.0321
B(  6-C ,  7-H ) :   0.9404 B(  6-C ,  8-H ) :   0.9384 B(  6-C ,  9-C ) :   1.0784
B(  9-C , 10-H ) :   0.9554 B(  9-C , 11-H ) :   0.9539 B(  9-C , 12-C ) :   1.0855
B( 12-C , 13-H ) :   0.9658 B( 12-C , 14-H ) :   0.9742 B( 12-C , 15-H ) :   0.9748
B( 16-S , 17-C ) :   1.1652 B( 16-S , 20-C ) :   1.1458 B( 17-C , 18-C ) :   1.6017
B( 17-C , 33-H ) :   0.9549 B( 18-C , 19-C ) :   1.2420 B( 18-C , 21-H ) :   1.0000
B( 19-C , 20-C ) :   1.5634 B( 19-C , 22-C ) :   1.0482 B( 22-C , 23-H ) :   0.9370
B( 22-C , 24-H ) :   0.9252 B( 22-C , 25-C ) :   1.0653 B( 25-C , 26-H ) :   0.9466
B( 25-C , 27-H ) :   0.9635 B( 25-C , 28-C ) :   1.0747 B( 28-C , 29-H ) :   0.9736
B( 28-C , 30-H ) :   0.9755 B( 28-C , 31-H ) :   0.9748

Dispersion correction           -0.014122878
FINAL SINGLE POINT ENERGY     -1339.865888773715

DIPOLE MOMENT
-------------
                                X             Y             Z
Electronic contribution:    -18.44730     -20.46636      11.48090
Nuclear contribution   :     18.86695      21.04526     -11.41694
                        -----------------------------------------
Total Dipole Moment    :      0.41965       0.57890       0.06396
                        -----------------------------------------
Magnitude (a.u.)       :      0.71786
Magnitude (Debye)      :      1.82464

Rotational constants in cm-1:     0.017229     0.009257     0.006500
Rotational constants in MHz :   516.521824   277.505782   194.870662

                             ****ORCA TERMINATED NORMALLY****
TOTAL RUN TIME: 0 days 0 hours 0 minutes 21 seconds 577 msec
