                         Program Version 4.2.1 -  RELEASE  -
|  1> ! wB97X-D3 SP def2-SVP
|  2> %pal
|  3> nprocs 24
|  4> end
|  5>
|  6> * xyz 0 1
|  7> S 	 -76.7336 	 -0.557595 	 -63.0014
|  8> C 	 -76.1849 	 1.04118 	 -63.4276
|  9> C 	 -77.0808 	 2.04165 	 -62.9611
| 10> C 	 -78.0657 	 1.55659 	 -62.0202
| 11> C 	 -78.0858 	 0.125576 	 -62.017
| 12> H 	 -78.8089 	 2.05344 	 -61.4782
| 13> C 	 -76.9657 	 3.55792 	 -63.1452
| 14> H 	 -76.1542 	 3.73035 	 -63.7682
| 15> H 	 -76.574 	 4.01169 	 -62.2561
| 16> C 	 -78.2331 	 4.41985 	 -63.4526
| 17> H 	 -78.4882 	 4.14196 	 -64.4718
| 18> H 	 -78.9424 	 4.06108 	 -62.7393
| 19> C 	 -77.9487 	 5.89773 	 -63.3905
| 20> H 	 -77.1828 	 6.13619 	 -64.0336
| 21> H 	 -78.7337 	 6.40939 	 -63.8521
| 22> H 	 -77.6246 	 6.20491 	 -62.4112
| 23> S 	 -78.1174 	 -1.70807 	 -60.0289
| 24> C 	 -79.6617 	 -1.96822 	 -59.2189
| 25> C 	 -80.7127 	 -1.38352 	 -59.908
| 26> C 	 -80.3203 	 -0.664157 	 -61.0897
| 27> C 	 -78.9555 	 -0.747951 	 -61.2645
| 28> H 	 -81.6922 	 -1.52435 	 -59.4292
| 29> C 	 -81.4048 	 0.125713 	 -61.8323
| 30> H 	 -80.9763 	 0.617638 	 -62.6929
| 31> H 	 -81.8152 	 0.921838 	 -61.1974
| 32> C 	 -82.6317 	 -0.653874 	 -62.2562
| 33> H 	 -83.3049 	 0.170449 	 -62.5686
| 34> H 	 -83.1966 	 -1.183 	 -61.4198
| 35> C 	 -82.397 	 -1.58094 	 -63.3803
| 36> H 	 -81.6958 	 -2.41858 	 -63.1958
| 37> H 	 -81.975 	 -1.00691 	 -64.2193
| 38> H 	 -83.2112 	 -2.25549 	 -63.7321
| 39> H 	 -75.4486 	 1.31371 	 -64.1095
| 40> H 	 -79.745 	 -2.60437 	 -58.289
| 41> *
| 42>
| 43>                          ****END OF INPUT****

CARTESIAN COORDINATES (ANGSTROEM)
---------------------------------
  S    -76.733600   -0.557595  -63.001400
  C    -76.184900    1.041180  -63.427600
  C    -77.080800    2.041650  -62.961100
  C    -78.065700    1.556590  -62.020200
  C    -78.085800    0.125576  -62.017000
  H    -78.808900    2.053440  -61.478200
  C    -76.965700    3.557920  -63.145200
  H    -76.154200    3.730350  -63.768200
  H    -76.574000    4.011690  -62.256100
  C    -78.233100    4.419850  -63.452600
  H    -78.488200    4.141960  -64.471800
  H    -78.942400    4.061080  -62.739300
  C    -77.948700    5.897730  -63.390500
  H    -77.182800    6.136190  -64.033600
  H    -78.733700    6.409390  -63.852100
  H    -77.624600    6.204910  -62.411200
  S    -78.117400   -1.708070  -60.028900
  C    -79.661700   -1.968220  -59.218900
  C    -80.712700   -1.383520  -59.908000
  C    -80.320300   -0.664157  -61.089700
  C    -78.955500   -0.747951  -61.264500
  H    -81.692200   -1.524350  -59.429200
  C    -81.404800    0.125713  -61.832300
  H    -80.976300    0.617638  -62.692900
  H    -81.815200    0.921838  -61.197400
  C    -82.631700   -0.653874  -62.256200
  H    -83.304900    0.170449  -62.568600
  H    -83.196600   -1.183000  -61.419800
  C    -82.397000   -1.580940  -63.380300
  H    -81.695800   -2.418580  -63.195800
  H    -81.975000   -1.006910  -64.219300
  H    -83.211200   -2.255490  -63.732100
  H    -75.448600    1.313710  -64.109500
  H    -79.745000   -2.604370  -58.289000

 Total Charge           Charge          ....    0
 Multiplicity           Mult            ....    1
 Number of Electrons    NEL             ....  134
 Basis Dimension        Dim             ....  322

ORBITAL ENERGIES
----------------

  NO   OCC          E(Eh)            E(eV)
   0   2.0000     -88.967994     -2420.9422
   1   2.0000     -88.964216     -2420.8394
   2   2.0000     -10.334150      -281.2065
   3   2.0000     -10.326060      -280.9864
   4   2.0000     -10.323541      -280.9178
   5   2.0000     -10.312672      -280.6221
   6   2.0000     -10.309114      -280.5252
   7   2.0000     -10.306766      -280.4614
   8   2.0000     -10.296763      -280.1892
   9   2.0000     -10.296638      -280.1858
  10   2.0000     -10.295967      -280.1675
  11   2.0000     -10.291446      -280.0445
  12   2.0000     -10.284785      -279.8632
  13   2.0000     -10.281110      -279.7632
  14   2.0000     -10.274889      -279.5939
  15   2.0000     -10.267685      -279.3979
  16   2.0000      -8.081543      -219.9100
  17   2.0000      -8.078744      -219.8338
  18   2.0000      -6.040061      -164.3584
  19   2.0000      -6.037292      -164.2831
  20   2.0000      -6.036201      -164.2534
  21   2.0000      -6.033345      -164.1757
  22   2.0000      -6.032403      -164.1500
  23   2.0000      -6.029382      -164.0678
  24   2.0000      -0.999641       -27.2016
  25   2.0000      -0.972708       -26.4687
  26   2.0000      -0.916516       -24.9397
  27   2.0000      -0.911518       -24.8037
  28   2.0000      -0.868199       -23.6249
  29   2.0000      -0.852895       -23.2085
  30   2.0000      -0.846601       -23.0372
  31   2.0000      -0.810384       -22.0517
  32   2.0000      -0.786622       -21.4051
  33   2.0000      -0.773618       -21.0512
  34   2.0000      -0.712857       -19.3978
  35   2.0000      -0.698961       -19.0197
  36   2.0000      -0.689926       -18.7738
  37   2.0000      -0.655744       -17.8437
  38   2.0000      -0.643522       -17.5111
  39   2.0000      -0.617601       -16.8058
  40   2.0000      -0.599724       -16.3193
  41   2.0000      -0.577800       -15.7227
  42   2.0000      -0.560861       -15.2618
  43   2.0000      -0.556762       -15.1503
  44   2.0000      -0.534281       -14.5385
  45   2.0000      -0.525073       -14.2880
  46   2.0000      -0.520690       -14.1687
  47   2.0000      -0.509968       -13.8769
  48   2.0000      -0.506239       -13.7755
  49   2.0000      -0.501368       -13.6429
  50   2.0000      -0.488356       -13.2888
  51   2.0000      -0.478886       -13.0311
  52   2.0000      -0.470976       -12.8159
  53   2.0000      -0.462134       -12.5753
  54   2.0000      -0.459938       -12.5156
  55   2.0000      -0.446380       -12.1466
  56   2.0000      -0.441844       -12.0232
  57   2.0000      -0.436580       -11.8800
  58   2.0000      -0.430256       -11.7079
  59   2.0000      -0.426224       -11.5981
  60   2.0000      -0.423873       -11.5342
  61   2.0000      -0.419130       -11.4051
  62   2.0000      -0.405406       -11.0317
  63   2.0000      -0.343162        -9.3379
  64   2.0000      -0.330509        -8.9936
  65   2.0000      -0.325709        -8.8630
  66   2.0000      -0.289071        -7.8660
  67   0.0000       0.028221         0.7679
  68   0.0000       0.063665         1.7324
  69   0.0000       0.108606         2.9553
  70   0.0000       0.115456         3.1417
  71   0.0000       0.124500         3.3878

MULLIKEN ATOMIC CHARGES
-----------------------
   0 S :    0.106699
   1 C :   -0.073425
   2 C :   -0.095509
   3 C :    0.054957
   4 C :   -0.181216
   5 H :    0.004496
   6 C :    0.060876
   7 H :   -0.019791
   8 H :    0.015143
   9 C :   -0.067079
  10 H :    0.028057
  11 H :    0.023508
  12 C :    0.032014
  13 H :   -0.000759
  14 H :    0.020166
  15 H :    0.029316
  16 S :    0.103636
  17 C :   -0.126041
  18 C :   -0.057548
  19 C :   -0.006075
  20 C :   -0.148187
  21 H :    0.031599
  22 C :    0.078035
  23 H :    0.021140
  24 H :    0.038614
  25 C :   -0.088484
  26 H :    0.032757
  27 H :    0.039527
  28 C :   -0.056651
  29 H :    0.032508
  30 H :    0.029817
  31 H :    0.032952
  32 H :    0.025430
  33 H :    0.079516
Sum of atomic charges:   -0.0000000

LOEWDIN ATOMIC CHARGES
----------------------
   0 S :    0.388756
   1 C :   -0.200515
   2 C :   -0.051636
   3 C :   -0.050851
   4 C :   -0.174627
   5 H :    0.022517
   6 C :   -0.037195
   7 H :    0.013622
   8 H :    0.028596
   9 C :   -0.027790
  10 H :    0.025044
  11 H :    0.018044
  12 C :   -0.052038
  13 H :    0.018779
  14 H :    0.025721
  15 H :    0.026239
  16 S :    0.389953
  17 C :   -0.184824
  18 C :   -0.076442
  19 C :   -0.049652
  20 C :   -0.200692
  21 H :    0.036021
  22 C :   -0.027206
  23 H :    0.028649
  24 H :    0.037599
  25 C :   -0.050559
  26 H :    0.030935
  27 H :    0.029223
  28 C :   -0.081761
  29 H :    0.030526
  30 H :    0.027790
  31 H :    0.031076
  32 H :    0.016302
  33 H :    0.040397

  Mayer bond orders larger than 0.100000
B(  0-S ,  1-C ) :   1.1314 B(  0-S ,  4-C ) :   1.1469 B(  1-C ,  2-C ) :   1.6116
B(  1-C ,  4-C ) :   0.1015 B(  1-C , 32-H ) :   0.9686 B(  2-C ,  3-C ) :   1.2154
B(  2-C ,  6-C ) :   1.0324 B(  3-C ,  4-C ) :   1.5718 B(  3-C ,  5-H ) :   0.9926
B(  4-C , 20-C ) :   1.0302 B(  6-C ,  7-H ) :   0.9340 B(  6-C ,  8-H ) :   0.9390
B(  6-C ,  9-C ) :   1.0450 B(  9-C , 10-H ) :   0.9551 B(  9-C , 11-H ) :   0.9575
B(  9-C , 12-C ) :   1.0972 B( 12-C , 13-H ) :   0.9653 B( 12-C , 14-H ) :   0.9668
B( 12-C , 15-H ) :   0.9722 B( 16-S , 17-C ) :   1.1460 B( 16-S , 20-C ) :   1.1312
B( 17-C , 18-C ) :   1.6418 B( 17-C , 33-H ) :   0.9590 B( 18-C , 19-C ) :   1.1900
B( 18-C , 21-H ) :   0.9881 B( 19-C , 20-C ) :   1.6201 B( 19-C , 22-C ) :   1.0370
B( 22-C , 23-H ) :   0.9317 B( 22-C , 24-H ) :   0.9351 B( 22-C , 25-C ) :   1.0776
B( 25-C , 26-H ) :   0.9501 B( 25-C , 27-H ) :   0.9498 B( 25-C , 28-C ) :   1.0820
B( 28-C , 29-H ) :   0.9702 B( 28-C , 30-H ) :   0.9698 B( 28-C , 31-H ) :   0.9705

Dispersion correction           -0.013774342
FINAL SINGLE POINT ENERGY     -1339.852794685851

DIPOLE MOMENT
-------------
                                X             Y             Z
Electronic contribution:     16.02119     -19.93349       9.62900
Nuclear contribution   :    -16.54961      20.49948      -9.60232
                        -----------------------------------------
Total Dipole Moment    :     -0.52842       0.56599       0.02667
                        -----------------------------------------
Magnitude (a.u.)       :      0.77478
Magnitude (Debye)      :      1.96933

Rotational constants in cm-1:     0.017391     0.008295     0.006768
Rotational constants in MHz :   521.364936   248.691404   202.907239

                             ****ORCA TERMINATED NORMALLY****
TOTAL RUN TIME: 0 days 0 hours 0 minutes 21 seconds 310 msec
