                         Program Version 4.2.1 -  RELEASE  -
|  1> ! wB97X-D3 SP def2-SVP
|  2> %pal
|  3> nprocs 24
|  4> end
|  5>
|  6> * xyz 0 1
|  7> S 	 -107.358 	 43.1846 	 -9.91694
|  8> C 	 -108.35 	 44.071 	 -11.0577
|  9> C 	 -108.323 	 43.5383 	 -12.3245
| 10> C 	 -107.182 	 42.697 	 -12.514
| 11> C 	 -106.577 	 42.3932 	 -11.3134
| 12> H 	 -106.913 	 42.2413 	 -13.4563
| 13> C 	 -109.058 	 44.0744 	 -13.486
| 14> H 	 -108.269 	 44.3945 	 -14.2596
| 15> H 	 -109.419 	 45.027 	 -13.1935
| 16> C 	 -110.239 	 43.1728 	 -14.0414
| 17> H 	 -110.449 	 43.3415 	 -15.1129
| 18> H 	 -109.839 	 42.1357 	 -14.029
| 19> C 	 -111.528 	 43.3661 	 -13.3451
| 20> H 	 -112.302 	 42.6874 	 -13.5321
| 21> H 	 -111.303 	 43.4115 	 -12.2451
| 22> H 	 -112.057 	 44.2821 	 -13.6251
| 23> S 	 -103.964 	 41.9409 	 -11.9439
| 24> C 	 -103.188 	 40.548 	 -11.2599
| 25> C 	 -104.088 	 39.6986 	 -10.6501
| 26> C 	 -105.34 	 40.3102 	 -10.4413
| 27> C 	 -105.466 	 41.4998 	 -11.1617
| 28> H 	 -103.694 	 38.8445 	 -10.0798
| 29> C 	 -106.445 	 39.7076 	 -9.5817
| 30> H 	 -107.211 	 40.4115 	 -9.29035
| 31> H 	 -105.963 	 39.3883 	 -8.64909
| 32> C 	 -107.201 	 38.5463 	 -10.1839
| 33> H 	 -106.449 	 37.8298 	 -10.5638
| 34> H 	 -107.689 	 38.9706 	 -11.0964
| 35> C 	 -108.365 	 37.9913 	 -9.34375
| 36> H 	 -108.866 	 38.7668 	 -8.74158
| 37> H 	 -107.903 	 37.3751 	 -8.54553
| 38> H 	 -108.92 	 37.2412 	 -9.81509
| 39> H 	 -109.012 	 44.8007 	 -10.6606
| 40> H 	 -102.14 	 40.2899 	 -11.4013
| 41> *
| 42>
| 43>                          ****END OF INPUT****

CARTESIAN COORDINATES (ANGSTROEM)
---------------------------------
  S    -107.358000   43.184600   -9.916940
  C    -108.350000   44.071000  -11.057700
  C    -108.323000   43.538300  -12.324500
  C    -107.182000   42.697000  -12.514000
  C    -106.577000   42.393200  -11.313400
  H    -106.913000   42.241300  -13.456300
  C    -109.058000   44.074400  -13.486000
  H    -108.269000   44.394500  -14.259600
  H    -109.419000   45.027000  -13.193500
  C    -110.239000   43.172800  -14.041400
  H    -110.449000   43.341500  -15.112900
  H    -109.839000   42.135700  -14.029000
  C    -111.528000   43.366100  -13.345100
  H    -112.302000   42.687400  -13.532100
  H    -111.303000   43.411500  -12.245100
  H    -112.057000   44.282100  -13.625100
  S    -103.964000   41.940900  -11.943900
  C    -103.188000   40.548000  -11.259900
  C    -104.088000   39.698600  -10.650100
  C    -105.340000   40.310200  -10.441300
  C    -105.466000   41.499800  -11.161700
  H    -103.694000   38.844500  -10.079800
  C    -106.445000   39.707600   -9.581700
  H    -107.211000   40.411500   -9.290350
  H    -105.963000   39.388300   -8.649090
  C    -107.201000   38.546300  -10.183900
  H    -106.449000   37.829800  -10.563800
  H    -107.689000   38.970600  -11.096400
  C    -108.365000   37.991300   -9.343750
  H    -108.866000   38.766800   -8.741580
  H    -107.903000   37.375100   -8.545530
  H    -108.920000   37.241200   -9.815090
  H    -109.012000   44.800700  -10.660600
  H    -102.140000   40.289900  -11.401300

 Total Charge           Charge          ....    0
 Multiplicity           Mult            ....    1
 Number of Electrons    NEL             ....  134
 Basis Dimension        Dim             ....  322

ORBITAL ENERGIES
----------------

  NO   OCC          E(Eh)            E(eV)
   0   2.0000     -88.966597     -2420.9042
   1   2.0000     -88.966586     -2420.9039
   2   2.0000     -10.328280      -281.0468
   3   2.0000     -10.320880      -280.8454
   4   2.0000     -10.315555      -280.7005
   5   2.0000     -10.312351      -280.6133
   6   2.0000     -10.301245      -280.3111
   7   2.0000     -10.298200      -280.2283
   8   2.0000     -10.293334      -280.0959
   9   2.0000     -10.292982      -280.0863
  10   2.0000     -10.292367      -280.0695
  11   2.0000     -10.291240      -280.0389
  12   2.0000     -10.286315      -279.9049
  13   2.0000     -10.284348      -279.8513
  14   2.0000     -10.276585      -279.6401
  15   2.0000     -10.273556      -279.5577
  16   2.0000      -8.081506      -219.9090
  17   2.0000      -8.080784      -219.8893
  18   2.0000      -6.039939      -164.3551
  19   2.0000      -6.039220      -164.3355
  20   2.0000      -6.035942      -164.2463
  21   2.0000      -6.035612      -164.2374
  22   2.0000      -6.032387      -164.1496
  23   2.0000      -6.031408      -164.1230
  24   2.0000      -1.008007       -27.4293
  25   2.0000      -0.985602       -26.8196
  26   2.0000      -0.911349       -24.7991
  27   2.0000      -0.908581       -24.7238
  28   2.0000      -0.872072       -23.7303
  29   2.0000      -0.856078       -23.2951
  30   2.0000      -0.848965       -23.1015
  31   2.0000      -0.813970       -22.1492
  32   2.0000      -0.784344       -21.3431
  33   2.0000      -0.769204       -20.9311
  34   2.0000      -0.708409       -19.2768
  35   2.0000      -0.698564       -19.0089
  36   2.0000      -0.689380       -18.7590
  37   2.0000      -0.662702       -18.0330
  38   2.0000      -0.643007       -17.4971
  39   2.0000      -0.619551       -16.8588
  40   2.0000      -0.600578       -16.3426
  41   2.0000      -0.568503       -15.4698
  42   2.0000      -0.558682       -15.2025
  43   2.0000      -0.551345       -15.0029
  44   2.0000      -0.534779       -14.5521
  45   2.0000      -0.529368       -14.4048
  46   2.0000      -0.516502       -14.0547
  47   2.0000      -0.510647       -13.8954
  48   2.0000      -0.505166       -13.7463
  49   2.0000      -0.497697       -13.5430
  50   2.0000      -0.491387       -13.3713
  51   2.0000      -0.479591       -13.0503
  52   2.0000      -0.472102       -12.8465
  53   2.0000      -0.461022       -12.5451
  54   2.0000      -0.456790       -12.4299
  55   2.0000      -0.453445       -12.3389
  56   2.0000      -0.449670       -12.2361
  57   2.0000      -0.437079       -11.8935
  58   2.0000      -0.430584       -11.7168
  59   2.0000      -0.426752       -11.6125
  60   2.0000      -0.420096       -11.4314
  61   2.0000      -0.410690       -11.1754
  62   2.0000      -0.399436       -10.8692
  63   2.0000      -0.343206        -9.3391
  64   2.0000      -0.335828        -9.1384
  65   2.0000      -0.328869        -8.9490
  66   2.0000      -0.289570        -7.8796
  67   0.0000       0.036597         0.9958
  68   0.0000       0.058707         1.5975
  69   0.0000       0.101482         2.7615
  70   0.0000       0.110302         3.0015
  71   0.0000       0.128723         3.5027

MULLIKEN ATOMIC CHARGES
-----------------------
   0 S :    0.107395
   1 C :   -0.119452
   2 C :   -0.052238
   3 C :    0.014194
   4 C :   -0.133623
   5 H :    0.018780
   6 C :    0.019983
   7 H :    0.045598
   8 H :    0.001819
   9 C :   -0.051761
  10 H :    0.028261
  11 H :    0.032925
  12 C :   -0.035745
  13 H :    0.023222
  14 H :    0.032539
  15 H :    0.024321
  16 S :    0.123435
  17 C :   -0.105480
  18 C :   -0.035358
  19 C :   -0.035948
  20 C :   -0.171439
  21 H :    0.031021
  22 C :    0.079703
  23 H :    0.003953
  24 H :    0.020213
  25 C :   -0.103543
  26 H :    0.028375
  27 H :    0.029557
  28 C :   -0.003928
  29 H :    0.040157
  30 H :    0.010260
  31 H :    0.029741
  32 H :    0.042174
  33 H :    0.060885
Sum of atomic charges:   -0.0000000

LOEWDIN ATOMIC CHARGES
----------------------
   0 S :    0.390498
   1 C :   -0.181994
   2 C :   -0.067243
   3 C :   -0.054175
   4 C :   -0.178540
   5 H :    0.033568
   6 C :   -0.036506
   7 H :    0.044635
   8 H :    0.021338
   9 C :   -0.043694
  10 H :    0.026498
  11 H :    0.026927
  12 C :   -0.070142
  13 H :    0.020541
  14 H :    0.030236
  15 H :    0.027626
  16 S :    0.419666
  17 C :   -0.189104
  18 C :   -0.077654
  19 C :   -0.054603
  20 C :   -0.202677
  21 H :    0.036774
  22 C :   -0.034543
  23 H :    0.017319
  24 H :    0.027891
  25 C :   -0.045950
  26 H :    0.023287
  27 H :    0.026870
  28 C :   -0.067582
  29 H :    0.033292
  30 H :    0.027312
  31 H :    0.022142
  32 H :    0.017660
  33 H :    0.030328

  Mayer bond orders larger than 0.100000
B(  0-S ,  1-C ) :   1.1325 B(  0-S ,  4-C ) :   1.1274 B(  1-C ,  2-C ) :   1.6134
B(  1-C , 32-H ) :   0.9716 B(  2-C ,  3-C ) :   1.2035 B(  2-C ,  6-C ) :   1.0357
B(  3-C ,  4-C ) :   1.5961 B(  3-C ,  5-H ) :   0.9944 B(  4-C , 20-C ) :   1.0513
B(  6-C ,  7-H ) :   0.9471 B(  6-C ,  8-H ) :   0.9468 B(  6-C ,  9-C ) :   1.0325
B(  9-C , 10-H ) :   0.9554 B(  9-C , 11-H ) :   0.9609 B(  9-C , 12-C ) :   1.0851
B( 12-C , 13-H ) :   0.9702 B( 12-C , 14-H ) :   0.9741 B( 12-C , 15-H ) :   0.9694
B( 16-S , 17-C ) :   1.1649 B( 16-S , 20-C ) :   1.1480 B( 17-C , 18-C ) :   1.6113
B( 17-C , 20-C ) :   0.1030 B( 17-C , 33-H ) :   0.9642 B( 18-C , 19-C ) :   1.2574
B( 18-C , 21-H ) :   0.9757 B( 19-C , 20-C ) :   1.5794 B( 19-C , 22-C ) :   1.0491
B( 22-C , 23-H ) :   0.9263 B( 22-C , 24-H ) :   0.9281 B( 22-C , 25-C ) :   1.0676
B( 25-C , 26-H ) :   0.9568 B( 25-C , 27-H ) :   0.9541 B( 25-C , 28-C ) :   1.0767
B( 28-C , 29-H ) :   0.9705 B( 28-C , 30-H ) :   0.9678 B( 28-C , 31-H ) :   0.9728

Dispersion correction           -0.014236814
FINAL SINGLE POINT ENERGY     -1339.868562492599

DIPOLE MOMENT
-------------
                                X             Y             Z
Electronic contribution:     22.34403       9.78067       3.72147
Nuclear contribution   :    -22.63938      -9.97734      -3.85504
                        -----------------------------------------
Total Dipole Moment    :     -0.29535      -0.19667      -0.13357
                        -----------------------------------------
Magnitude (a.u.)       :      0.37915
Magnitude (Debye)      :      0.96372

Rotational constants in cm-1:     0.018011     0.008612     0.007019
Rotational constants in MHz :   539.946276   258.191268   210.427412

                             ****ORCA TERMINATED NORMALLY****
TOTAL RUN TIME: 0 days 0 hours 0 minutes 20 seconds 322 msec
