                         Program Version 4.2.1 -  RELEASE  -
|  1> ! wB97X-D3 SP def2-SVP
|  2> %pal
|  3> nprocs 24
|  4> end
|  5>
|  6> * xyz 0 1
|  7> S 	 -115.278 	 59.1718 	 -30.3655
|  8> C 	 -113.745 	 59.8204 	 -29.9042
|  9> C 	 -113.763 	 61.0488 	 -29.2616
| 10> C 	 -115.115 	 61.4884 	 -29.1421
| 11> C 	 -116.068 	 60.6676 	 -29.708
| 12> H 	 -115.414 	 62.3896 	 -28.6245
| 13> C 	 -112.58 	 61.735 	 -28.6376
| 14> H 	 -111.827 	 61.9167 	 -29.4317
| 15> H 	 -112.11 	 60.9556 	 -28.0512
| 16> C 	 -112.707 	 63.0034 	 -27.7645
| 17> H 	 -112.988 	 63.8435 	 -28.4123
| 18> H 	 -113.587 	 62.7646 	 -27.065
| 19> C 	 -111.377 	 63.3015 	 -27.0916
| 20> H 	 -110.601 	 63.4711 	 -27.7998
| 21> H 	 -111.364 	 64.2717 	 -26.5122
| 22> H 	 -111.063 	 62.5275 	 -26.4235
| 23> S 	 -118.033 	 62.3527 	 -30.6838
| 24> C 	 -119.713 	 62.0667 	 -30.411
| 25> C 	 -119.808 	 60.8955 	 -29.7083
| 26> C 	 -118.596 	 60.2388 	 -29.2669
| 27> C 	 -117.476 	 60.9216 	 -29.7647
| 28> H 	 -120.822 	 60.5062 	 -29.5293
| 29> C 	 -118.536 	 59.0264 	 -28.309
| 30> H 	 -117.549 	 59.1036 	 -27.935
| 31> H 	 -118.541 	 58.1792 	 -28.9641
| 32> C 	 -119.572 	 58.8854 	 -27.1948
| 33> H 	 -119.275 	 58.1259 	 -26.489
| 34> H 	 -120.471 	 58.478 	 -27.6973
| 35> C 	 -119.833 	 60.1681 	 -26.3623
| 36> H 	 -120.422 	 59.9635 	 -25.4938
| 37> H 	 -120.399 	 60.9277 	 -26.956
| 38> H 	 -118.874 	 60.5891 	 -26.15
| 39> H 	 -112.861 	 59.3193 	 -29.9797
| 40> H 	 -120.552 	 62.6764 	 -30.7763
| 41> *
| 42>
| 43>                          ****END OF INPUT****

CARTESIAN COORDINATES (ANGSTROEM)
---------------------------------
  S    -115.278000   59.171800  -30.365500
  C    -113.745000   59.820400  -29.904200
  C    -113.763000   61.048800  -29.261600
  C    -115.115000   61.488400  -29.142100
  C    -116.068000   60.667600  -29.708000
  H    -115.414000   62.389600  -28.624500
  C    -112.580000   61.735000  -28.637600
  H    -111.827000   61.916700  -29.431700
  H    -112.110000   60.955600  -28.051200
  C    -112.707000   63.003400  -27.764500
  H    -112.988000   63.843500  -28.412300
  H    -113.587000   62.764600  -27.065000
  C    -111.377000   63.301500  -27.091600
  H    -110.601000   63.471100  -27.799800
  H    -111.364000   64.271700  -26.512200
  H    -111.063000   62.527500  -26.423500
  S    -118.033000   62.352700  -30.683800
  C    -119.713000   62.066700  -30.411000
  C    -119.808000   60.895500  -29.708300
  C    -118.596000   60.238800  -29.266900
  C    -117.476000   60.921600  -29.764700
  H    -120.822000   60.506200  -29.529300
  C    -118.536000   59.026400  -28.309000
  H    -117.549000   59.103600  -27.935000
  H    -118.541000   58.179200  -28.964100
  C    -119.572000   58.885400  -27.194800
  H    -119.275000   58.125900  -26.489000
  H    -120.471000   58.478000  -27.697300
  C    -119.833000   60.168100  -26.362300
  H    -120.422000   59.963500  -25.493800
  H    -120.399000   60.927700  -26.956000
  H    -118.874000   60.589100  -26.150000
  H    -112.861000   59.319300  -29.979700
  H    -120.552000   62.676400  -30.776300

 Total Charge           Charge          ....    0
 Multiplicity           Mult            ....    1
 Number of Electrons    NEL             ....  134
 Basis Dimension        Dim             ....  322

ORBITAL ENERGIES
----------------

  NO   OCC          E(Eh)            E(eV)
   0   2.0000     -88.969681     -2420.9881
   1   2.0000     -88.958670     -2420.6885
   2   2.0000     -10.328913      -281.0640
   3   2.0000     -10.325926      -280.9827
   4   2.0000     -10.315986      -280.7123
   5   2.0000     -10.307274      -280.4752
   6   2.0000     -10.306179      -280.4454
   7   2.0000     -10.300577      -280.2930
   8   2.0000     -10.299132      -280.2536
   9   2.0000     -10.293933      -280.1122
  10   2.0000     -10.293597      -280.1030
  11   2.0000     -10.291828      -280.0549
  12   2.0000     -10.286943      -279.9220
  13   2.0000     -10.286600      -279.9126
  14   2.0000     -10.281937      -279.7857
  15   2.0000     -10.273779      -279.5637
  16   2.0000      -8.083471      -219.9624
  17   2.0000      -8.073369      -219.6875
  18   2.0000      -6.041997      -164.4111
  19   2.0000      -6.038190      -164.3075
  20   2.0000      -6.034207      -164.1991
  21   2.0000      -6.031922      -164.1369
  22   2.0000      -6.027745      -164.0233
  23   2.0000      -6.024189      -163.9265
  24   2.0000      -1.000922       -27.2365
  25   2.0000      -0.980547       -26.6820
  26   2.0000      -0.912916       -24.8417
  27   2.0000      -0.905646       -24.6439
  28   2.0000      -0.873562       -23.7708
  29   2.0000      -0.851766       -23.1777
  30   2.0000      -0.840441       -22.8696
  31   2.0000      -0.812516       -22.1097
  32   2.0000      -0.785212       -21.3667
  33   2.0000      -0.773007       -21.0346
  34   2.0000      -0.716141       -19.4872
  35   2.0000      -0.700396       -19.0587
  36   2.0000      -0.692207       -18.8359
  37   2.0000      -0.654789       -17.8177
  38   2.0000      -0.635406       -17.2903
  39   2.0000      -0.618299       -16.8248
  40   2.0000      -0.590389       -16.0653
  41   2.0000      -0.573907       -15.6168
  42   2.0000      -0.564768       -15.3681
  43   2.0000      -0.558402       -15.1949
  44   2.0000      -0.540786       -14.7155
  45   2.0000      -0.520890       -14.1741
  46   2.0000      -0.518511       -14.1094
  47   2.0000      -0.506838       -13.7918
  48   2.0000      -0.503796       -13.7090
  49   2.0000      -0.497919       -13.5491
  50   2.0000      -0.486286       -13.2325
  51   2.0000      -0.483099       -13.1458
  52   2.0000      -0.474651       -12.9159
  53   2.0000      -0.468017       -12.7354
  54   2.0000      -0.457211       -12.4413
  55   2.0000      -0.452571       -12.3151
  56   2.0000      -0.442352       -12.0370
  57   2.0000      -0.434332       -11.8188
  58   2.0000      -0.433173       -11.7872
  59   2.0000      -0.430026       -11.7016
  60   2.0000      -0.419507       -11.4154
  61   2.0000      -0.417142       -11.3510
  62   2.0000      -0.407635       -11.0923
  63   2.0000      -0.342793        -9.3279
  64   2.0000      -0.328267        -8.9326
  65   2.0000      -0.322892        -8.7863
  66   2.0000      -0.294214        -8.0060
  67   0.0000       0.030550         0.8313
  68   0.0000       0.064974         1.7680
  69   0.0000       0.109548         2.9810
  70   0.0000       0.120246         3.2720
  71   0.0000       0.137654         3.7458

MULLIKEN ATOMIC CHARGES
-----------------------
   0 S :    0.124777
   1 C :   -0.082835
   2 C :   -0.051831
   3 C :    0.009633
   4 C :   -0.162808
   5 H :    0.014809
   6 C :    0.012905
   7 H :    0.034427
   8 H :    0.026377
   9 C :   -0.078093
  10 H :    0.042333
  11 H :    0.048515
  12 C :   -0.035374
  13 H :    0.023159
  14 H :    0.040299
  15 H :    0.031711
  16 S :    0.099876
  17 C :   -0.100208
  18 C :   -0.058537
  19 C :   -0.055996
  20 C :   -0.190167
  21 H :    0.022515
  22 C :    0.120534
  23 H :    0.016557
  24 H :    0.032812
  25 C :   -0.080658
  26 H :    0.030829
  27 H :    0.027718
  28 C :   -0.035737
  29 H :    0.034402
  30 H :    0.034830
  31 H :    0.030553
  32 H :    0.000711
  33 H :    0.071962
Sum of atomic charges:   -0.0000000

LOEWDIN ATOMIC CHARGES
----------------------
   0 S :    0.395299
   1 C :   -0.183975
   2 C :   -0.061855
   3 C :   -0.052665
   4 C :   -0.188261
   5 H :    0.030980
   6 C :   -0.043756
   7 H :    0.035852
   8 H :    0.032315
   9 C :   -0.044215
  10 H :    0.027795
  11 H :    0.033222
  12 C :   -0.064083
  13 H :    0.023036
  14 H :    0.035635
  15 H :    0.023260
  16 S :    0.398696
  17 C :   -0.199879
  18 C :   -0.084017
  19 C :   -0.050815
  20 C :   -0.195259
  21 H :    0.029170
  22 C :   -0.027509
  23 H :    0.024366
  24 H :    0.034181
  25 C :   -0.041927
  26 H :    0.026991
  27 H :    0.023778
  28 C :   -0.060941
  29 H :    0.023021
  30 H :    0.029633
  31 H :    0.024427
  32 H :    0.006021
  33 H :    0.041479

  Mayer bond orders larger than 0.100000
B(  0-S ,  1-C ) :   1.1525 B(  0-S ,  4-C ) :   1.1099 B(  1-C ,  2-C ) :   1.6153
B(  1-C , 32-H ) :   0.9745 B(  2-C ,  3-C ) :   1.2515 B(  2-C ,  6-C ) :   0.9973
B(  3-C ,  4-C ) :   1.5754 B(  3-C ,  5-H ) :   0.9891 B(  4-C , 20-C ) :   1.0717
B(  6-C ,  7-H ) :   0.9300 B(  6-C ,  8-H ) :   0.9428 B(  6-C ,  9-C ) :   1.0722
B(  9-C , 10-H ) :   0.9508 B(  9-C , 11-H ) :   0.9505 B(  9-C , 12-C ) :   1.0833
B( 12-C , 13-H ) :   0.9716 B( 12-C , 14-H ) :   0.9715 B( 12-C , 15-H ) :   0.9761
B( 16-S , 17-C ) :   1.1511 B( 16-S , 20-C ) :   1.1393 B( 17-C , 18-C ) :   1.6044
B( 17-C , 33-H ) :   0.9665 B( 18-C , 19-C ) :   1.2390 B( 18-C , 21-H ) :   0.9807
B( 19-C , 20-C ) :   1.5735 B( 19-C , 22-C ) :   1.0164 B( 22-C , 23-H ) :   0.9271
B( 22-C , 24-H ) :   0.9293 B( 22-C , 25-C ) :   1.0805 B( 25-C , 26-H ) :   0.9549
B( 25-C , 27-H ) :   0.9509 B( 25-C , 28-C ) :   1.0783 B( 28-C , 29-H ) :   0.9757
B( 28-C , 30-H ) :   0.9702 B( 28-C , 31-H ) :   0.9760

Dispersion correction           -0.014133606
FINAL SINGLE POINT ENERGY     -1339.881540229619

DIPOLE MOMENT
-------------
                                X             Y             Z
Electronic contribution:     -5.99012      -3.38263     -20.49500
Nuclear contribution   :      6.18228       3.37834      21.01018
                        -----------------------------------------
Total Dipole Moment    :      0.19216      -0.00429       0.51518
                        -----------------------------------------
Magnitude (a.u.)       :      0.54987
Magnitude (Debye)      :      1.39766

Rotational constants in cm-1:     0.019332     0.007083     0.006968
Rotational constants in MHz :   579.545916   212.357281   208.887655

                             ****ORCA TERMINATED NORMALLY****
TOTAL RUN TIME: 0 days 0 hours 0 minutes 19 seconds 899 msec
