                         Program Version 4.2.1 -  RELEASE  -
|  1> ! wB97X-D3 SP def2-SVP
|  2> %pal
|  3> nprocs 24
|  4> end
|  5>
|  6> * xyz 0 1
|  7> S 	 -43.155 	 19.8198 	 -94.1846
|  8> C 	 -42.0466 	 20.5993 	 -93.1223
|  9> C 	 -41.3057 	 19.6502 	 -92.3494
| 10> C 	 -41.7367 	 18.2905 	 -92.6246
| 11> C 	 -42.7045 	 18.2026 	 -93.5832
| 12> H 	 -41.1605 	 17.4248 	 -92.3437
| 13> C 	 -40.3106 	 20.0602 	 -91.2651
| 14> H 	 -40.0236 	 19.131 	 -90.6217
| 15> H 	 -40.8622 	 20.635 	 -90.5369
| 16> C 	 -39.063 	 20.7614 	 -91.7112
| 17> H 	 -39.3681 	 21.7546 	 -91.9891
| 18> H 	 -38.4321 	 20.9584 	 -90.8458
| 19> C 	 -38.1669 	 20.0799 	 -92.797
| 20> H 	 -38.0068 	 19.1189 	 -92.4142
| 21> H 	 -38.6481 	 20.039 	 -93.7118
| 22> H 	 -37.2089 	 20.6066 	 -92.8416
| 23> S 	 -44.863 	 16.4648 	 -94.0694
| 24> C 	 -44.6232 	 15.0541 	 -95.1277
| 25> C 	 -43.3179 	 14.8644 	 -95.3299
| 26> C 	 -42.4847 	 15.9316 	 -94.8733
| 27> C 	 -43.1826 	 16.9638 	 -94.2167
| 28> H 	 -43.0129 	 14.0243 	 -95.8717
| 29> C 	 -41.0533 	 16.0012 	 -95.1387
| 30> H 	 -40.6808 	 14.9563 	 -95.2124
| 31> H 	 -40.4947 	 16.4349 	 -94.284
| 32> C 	 -40.4042 	 16.6641 	 -96.4155
| 33> H 	 -40.8918 	 16.3712 	 -97.3354
| 34> H 	 -39.3984 	 16.2938 	 -96.5132
| 35> C 	 -40.2487 	 18.2343 	 -96.3842
| 36> H 	 -39.846 	 18.6023 	 -97.277
| 37> H 	 -39.6869 	 18.5453 	 -95.467
| 38> H 	 -41.1954 	 18.7752 	 -96.2746
| 39> H 	 -41.8635 	 21.6596 	 -93.0792
| 40> H 	 -45.3642 	 14.4559 	 -95.5404
| 41> *
| 42>
| 43>                          ****END OF INPUT****

CARTESIAN COORDINATES (ANGSTROEM)
---------------------------------
  S    -43.155000   19.819800  -94.184600
  C    -42.046600   20.599300  -93.122300
  C    -41.305700   19.650200  -92.349400
  C    -41.736700   18.290500  -92.624600
  C    -42.704500   18.202600  -93.583200
  H    -41.160500   17.424800  -92.343700
  C    -40.310600   20.060200  -91.265100
  H    -40.023600   19.131000  -90.621700
  H    -40.862200   20.635000  -90.536900
  C    -39.063000   20.761400  -91.711200
  H    -39.368100   21.754600  -91.989100
  H    -38.432100   20.958400  -90.845800
  C    -38.166900   20.079900  -92.797000
  H    -38.006800   19.118900  -92.414200
  H    -38.648100   20.039000  -93.711800
  H    -37.208900   20.606600  -92.841600
  S    -44.863000   16.464800  -94.069400
  C    -44.623200   15.054100  -95.127700
  C    -43.317900   14.864400  -95.329900
  C    -42.484700   15.931600  -94.873300
  C    -43.182600   16.963800  -94.216700
  H    -43.012900   14.024300  -95.871700
  C    -41.053300   16.001200  -95.138700
  H    -40.680800   14.956300  -95.212400
  H    -40.494700   16.434900  -94.284000
  C    -40.404200   16.664100  -96.415500
  H    -40.891800   16.371200  -97.335400
  H    -39.398400   16.293800  -96.513200
  C    -40.248700   18.234300  -96.384200
  H    -39.846000   18.602300  -97.277000
  H    -39.686900   18.545300  -95.467000
  H    -41.195400   18.775200  -96.274600
  H    -41.863500   21.659600  -93.079200
  H    -45.364200   14.455900  -95.540400

 Total Charge           Charge          ....    0
 Multiplicity           Mult            ....    1
 Number of Electrons    NEL             ....  134
 Basis Dimension        Dim             ....  322

ORBITAL ENERGIES
----------------

  NO   OCC          E(Eh)            E(eV)
   0   2.0000     -88.971589     -2421.0400
   1   2.0000     -88.960772     -2420.7457
   2   2.0000     -10.332745      -281.1683
   3   2.0000     -10.328757      -281.0598
   4   2.0000     -10.320191      -280.8267
   5   2.0000     -10.311604      -280.5930
   6   2.0000     -10.309684      -280.5408
   7   2.0000     -10.302154      -280.3359
   8   2.0000     -10.298232      -280.2291
   9   2.0000     -10.298203      -280.2283
  10   2.0000     -10.290746      -280.0254
  11   2.0000     -10.286692      -279.9151
  12   2.0000     -10.286624      -279.9133
  13   2.0000     -10.284451      -279.8541
  14   2.0000     -10.271191      -279.4933
  15   2.0000     -10.270165      -279.4654
  16   2.0000      -8.085559      -220.0192
  17   2.0000      -8.075196      -219.7372
  18   2.0000      -6.044043      -164.4668
  19   2.0000      -6.040038      -164.3578
  20   2.0000      -6.036498      -164.2615
  21   2.0000      -6.033804      -164.1882
  22   2.0000      -6.029701      -164.0765
  23   2.0000      -6.025904      -163.9732
  24   2.0000      -1.003576       -27.3087
  25   2.0000      -0.983205       -26.7544
  26   2.0000      -0.911813       -24.8117
  27   2.0000      -0.899399       -24.4739
  28   2.0000      -0.872240       -23.7349
  29   2.0000      -0.849713       -23.1219
  30   2.0000      -0.842124       -22.9154
  31   2.0000      -0.821621       -22.3574
  32   2.0000      -0.785189       -21.3661
  33   2.0000      -0.768928       -20.9236
  34   2.0000      -0.707700       -19.2575
  35   2.0000      -0.704197       -19.1622
  36   2.0000      -0.695026       -18.9126
  37   2.0000      -0.660735       -17.9795
  38   2.0000      -0.643314       -17.5055
  39   2.0000      -0.615658       -16.7529
  40   2.0000      -0.596736       -16.2380
  41   2.0000      -0.577238       -15.7075
  42   2.0000      -0.554995       -15.1022
  43   2.0000      -0.552676       -15.0391
  44   2.0000      -0.541459       -14.7338
  45   2.0000      -0.531638       -14.4666
  46   2.0000      -0.522306       -14.2127
  47   2.0000      -0.506558       -13.7841
  48   2.0000      -0.503158       -13.6916
  49   2.0000      -0.499216       -13.5844
  50   2.0000      -0.493601       -13.4316
  51   2.0000      -0.476689       -12.9714
  52   2.0000      -0.474830       -12.9208
  53   2.0000      -0.466363       -12.6904
  54   2.0000      -0.463019       -12.5994
  55   2.0000      -0.446640       -12.1537
  56   2.0000      -0.443875       -12.0785
  57   2.0000      -0.434128       -11.8132
  58   2.0000      -0.431315       -11.7367
  59   2.0000      -0.425066       -11.5666
  60   2.0000      -0.417038       -11.3482
  61   2.0000      -0.410127       -11.1601
  62   2.0000      -0.408188       -11.1074
  63   2.0000      -0.345016        -9.3884
  64   2.0000      -0.333244        -9.0680
  65   2.0000      -0.323208        -8.7949
  66   2.0000      -0.297491        -8.0951
  67   0.0000       0.029169         0.7937
  68   0.0000       0.060876         1.6565
  69   0.0000       0.111384         3.0309
  70   0.0000       0.114398         3.1129
  71   0.0000       0.121206         3.2982

MULLIKEN ATOMIC CHARGES
-----------------------
   0 S :    0.126937
   1 C :   -0.110693
   2 C :   -0.122437
   3 C :    0.061253
   4 C :   -0.162210
   5 H :    0.025165
   6 C :    0.024217
   7 H :    0.028626
   8 H :    0.039880
   9 C :   -0.078925
  10 H :    0.010543
  11 H :    0.023092
  12 C :   -0.003725
  13 H :    0.012330
  14 H :    0.042197
  15 H :    0.038144
  16 S :    0.090061
  17 C :   -0.061489
  18 C :   -0.000267
  19 C :   -0.001231
  20 C :   -0.152248
  21 H :   -0.003500
  22 C :    0.025846
  23 H :    0.020356
  24 H :    0.015311
  25 C :   -0.041120
  26 H :    0.019057
  27 H :    0.022466
  28 C :   -0.050496
  29 H :    0.022972
  30 H :    0.030906
  31 H :    0.024050
  32 H :    0.053078
  33 H :    0.031853
Sum of atomic charges:   -0.0000000

LOEWDIN ATOMIC CHARGES
----------------------
   0 S :    0.421694
   1 C :   -0.203283
   2 C :   -0.061877
   3 C :   -0.054643
   4 C :   -0.190127
   5 H :    0.033040
   6 C :   -0.042700
   7 H :    0.035289
   8 H :    0.034644
   9 C :   -0.043042
  10 H :    0.014953
  11 H :    0.025362
  12 C :   -0.047580
  13 H :    0.018421
  14 H :    0.015575
  15 H :    0.032800
  16 S :    0.384035
  17 C :   -0.155591
  18 C :   -0.063159
  19 C :   -0.059239
  20 C :   -0.196537
  21 H :    0.025363
  22 C :   -0.043831
  23 H :    0.036259
  24 H :    0.031225
  25 C :   -0.029336
  26 H :    0.019305
  27 H :    0.022516
  28 C :   -0.069778
  29 H :    0.016575
  30 H :    0.027346
  31 H :    0.018836
  32 H :    0.027447
  33 H :    0.020038

  Mayer bond orders larger than 0.100000
B(  0-S ,  1-C ) :   1.1606 B(  0-S ,  4-C ) :   1.1484 B(  1-C ,  2-C ) :   1.5780
B(  1-C , 32-H ) :   0.9719 B(  2-C ,  3-C ) :   1.2568 B(  2-C ,  6-C ) :   1.0086
B(  3-C ,  4-C ) :   1.5848 B(  3-C ,  5-H ) :   0.9853 B(  4-C , 20-C ) :   1.0254
B(  6-C ,  7-H ) :   0.9447 B(  6-C ,  8-H ) :   0.9423 B(  6-C ,  9-C ) :   1.0837
B(  9-C , 10-H ) :   0.9525 B(  9-C , 11-H ) :   0.9528 B(  9-C , 12-C ) :   1.0694
B( 12-C , 13-H ) :   0.9764 B( 12-C , 14-H ) :   0.9739 B( 12-C , 15-H ) :   0.9717
B( 16-S , 17-C ) :   1.1412 B( 16-S , 20-C ) :   1.1363 B( 17-C , 18-C ) :   1.6247
B( 17-C , 33-H ) :   0.9743 B( 18-C , 19-C ) :   1.2276 B( 18-C , 21-H ) :   1.0000
B( 19-C , 20-C ) :   1.5745 B( 19-C , 22-C ) :   1.0740 B( 22-C , 23-H ) :   0.9251
B( 22-C , 24-H ) :   0.9278 B( 22-C , 25-C ) :   1.0694 B( 25-C , 26-H ) :   0.9561
B( 25-C , 27-H ) :   0.9540 B( 25-C , 28-C ) :   1.0781 B( 28-C , 29-H ) :   0.9733
B( 28-C , 30-H ) :   0.9735 B( 28-C , 31-H ) :   0.9720

Dispersion correction           -0.016383374
FINAL SINGLE POINT ENERGY     -1339.872114019946

DIPOLE MOMENT
-------------
                                X             Y             Z
Electronic contribution:    -28.14523      -5.01109       0.43024
Nuclear contribution   :     28.82631       4.93440      -0.44099
                        -----------------------------------------
Total Dipole Moment    :      0.68108      -0.07669      -0.01074
                        -----------------------------------------
Magnitude (a.u.)       :      0.68547
Magnitude (Debye)      :      1.74233

Rotational constants in cm-1:     0.021860     0.009074     0.007592
Rotational constants in MHz :   655.346591   272.045159   227.599448

                             ****ORCA TERMINATED NORMALLY****
TOTAL RUN TIME: 0 days 0 hours 0 minutes 23 seconds 5 msec
