                         Program Version 4.2.1 -  RELEASE  -
|  1> ! wB97X-D3 SP def2-SVP
|  2> %pal
|  3> nprocs 24
|  4> end
|  5>
|  6> * xyz 0 1
|  7> S 	 -31.8631 	 -7.2917 	 2.71674
|  8> C 	 -32.1957 	 -6.41211 	 4.19013
|  9> C 	 -33.5355 	 -6.07727 	 4.25149
| 10> C 	 -34.2517 	 -6.61617 	 3.16484
| 11> C 	 -33.4726 	 -7.07474 	 2.16161
| 12> H 	 -35.2707 	 -6.51166 	 2.95954
| 13> C 	 -34.2007 	 -5.446 	 5.47416
| 14> H 	 -33.8996 	 -5.97495 	 6.45076
| 15> H 	 -35.2911 	 -5.63397 	 5.4634
| 16> C 	 -34.1861 	 -3.90541 	 5.56674
| 17> H 	 -34.6734 	 -3.5463 	 4.6486
| 18> H 	 -34.8006 	 -3.61242 	 6.41194
| 19> C 	 -32.8322 	 -3.33839 	 5.52182
| 20> H 	 -32.1967 	 -3.41918 	 4.62022
| 21> H 	 -32.8965 	 -2.23218 	 5.69733
| 22> H 	 -32.3057 	 -3.66167 	 6.3037
| 23> S 	 -33.714 	 -8.94431 	 0.157458
| 24> C 	 -34.5447 	 -8.58847 	 -1.33715
| 25> C 	 -34.8899 	 -7.27924 	 -1.30603
| 26> C 	 -34.5522 	 -6.57774 	 -0.147893
| 27> C 	 -33.8746 	 -7.32354 	 0.792128
| 28> H 	 -35.3931 	 -6.79054 	 -2.1639
| 29> C 	 -34.9101 	 -5.14699 	 0.0114694
| 30> H 	 -34.4274 	 -4.54571 	 -0.809496
| 31> H 	 -34.4955 	 -4.89669 	 0.90959
| 32> C 	 -36.4464 	 -4.89617 	 0.120415
| 33> H 	 -36.8977 	 -5.54104 	 0.893794
| 34> H 	 -36.961 	 -5.28632 	 -0.78052
| 35> C 	 -36.7865 	 -3.46048 	 0.265372
| 36> H 	 -36.3995 	 -2.9993 	 -0.617112
| 37> H 	 -36.3024 	 -3.1194 	 1.12354
| 38> H 	 -37.8018 	 -3.19096 	 0.376246
| 39> H 	 -31.4452 	 -6.24437 	 5.00797
| 40> H 	 -34.8165 	 -9.27126 	 -2.0976
| 41> *
| 42>
| 43>                          ****END OF INPUT****

CARTESIAN COORDINATES (ANGSTROEM)
---------------------------------
  S    -31.863100   -7.291700    2.716740
  C    -32.195700   -6.412110    4.190130
  C    -33.535500   -6.077270    4.251490
  C    -34.251700   -6.616170    3.164840
  C    -33.472600   -7.074740    2.161610
  H    -35.270700   -6.511660    2.959540
  C    -34.200700   -5.446000    5.474160
  H    -33.899600   -5.974950    6.450760
  H    -35.291100   -5.633970    5.463400
  C    -34.186100   -3.905410    5.566740
  H    -34.673400   -3.546300    4.648600
  H    -34.800600   -3.612420    6.411940
  C    -32.832200   -3.338390    5.521820
  H    -32.196700   -3.419180    4.620220
  H    -32.896500   -2.232180    5.697330
  H    -32.305700   -3.661670    6.303700
  S    -33.714000   -8.944310    0.157458
  C    -34.544700   -8.588470   -1.337150
  C    -34.889900   -7.279240   -1.306030
  C    -34.552200   -6.577740   -0.147893
  C    -33.874600   -7.323540    0.792128
  H    -35.393100   -6.790540   -2.163900
  C    -34.910100   -5.146990    0.011469
  H    -34.427400   -4.545710   -0.809496
  H    -34.495500   -4.896690    0.909590
  C    -36.446400   -4.896170    0.120415
  H    -36.897700   -5.541040    0.893794
  H    -36.961000   -5.286320   -0.780520
  C    -36.786500   -3.460480    0.265372
  H    -36.399500   -2.999300   -0.617112
  H    -36.302400   -3.119400    1.123540
  H    -37.801800   -3.190960    0.376246
  H    -31.445200   -6.244370    5.007970
  H    -34.816500   -9.271260   -2.097600

 Total Charge           Charge          ....    0
 Multiplicity           Mult            ....    1
 Number of Electrons    NEL             ....  134
 Basis Dimension        Dim             ....  322

ORBITAL ENERGIES
----------------

  NO   OCC          E(Eh)            E(eV)
   0   2.0000     -88.965345     -2420.8701
   1   2.0000     -88.960347     -2420.7341
   2   2.0000     -10.324328      -280.9392
   3   2.0000     -10.323559      -280.9183
   4   2.0000     -10.318777      -280.7882
   5   2.0000     -10.314230      -280.6645
   6   2.0000     -10.301878      -280.3284
   7   2.0000     -10.297920      -280.2206
   8   2.0000     -10.295328      -280.1501
   9   2.0000     -10.287927      -279.9487
  10   2.0000     -10.286483      -279.9094
  11   2.0000     -10.285977      -279.8957
  12   2.0000     -10.285029      -279.8699
  13   2.0000     -10.284441      -279.8539
  14   2.0000     -10.264969      -279.3240
  15   2.0000     -10.264436      -279.3095
  16   2.0000      -8.080961      -219.8941
  17   2.0000      -8.075579      -219.7477
  18   2.0000      -6.039387      -164.3401
  19   2.0000      -6.035300      -164.2288
  20   2.0000      -6.034114      -164.1966
  21   2.0000      -6.031794      -164.1334
  22   2.0000      -6.029867      -164.0810
  23   2.0000      -6.026422      -163.9873
  24   2.0000      -1.016787       -27.6682
  25   2.0000      -0.994065       -27.0499
  26   2.0000      -0.916158       -24.9299
  27   2.0000      -0.915340       -24.9077
  28   2.0000      -0.875765       -23.8308
  29   2.0000      -0.859484       -23.3878
  30   2.0000      -0.851924       -23.1820
  31   2.0000      -0.819233       -22.2925
  32   2.0000      -0.785996       -21.3880
  33   2.0000      -0.775343       -21.0982
  34   2.0000      -0.708077       -19.2678
  35   2.0000      -0.702865       -19.1259
  36   2.0000      -0.695101       -18.9147
  37   2.0000      -0.661497       -18.0002
  38   2.0000      -0.646509       -17.5924
  39   2.0000      -0.620224       -16.8772
  40   2.0000      -0.601398       -16.3649
  41   2.0000      -0.576112       -15.6768
  42   2.0000      -0.570446       -15.5226
  43   2.0000      -0.551619       -15.0103
  44   2.0000      -0.541720       -14.7409
  45   2.0000      -0.535556       -14.5732
  46   2.0000      -0.523256       -14.2385
  47   2.0000      -0.518228       -14.1017
  48   2.0000      -0.513866       -13.9830
  49   2.0000      -0.504145       -13.7185
  50   2.0000      -0.493441       -13.4272
  51   2.0000      -0.480790       -13.0830
  52   2.0000      -0.473482       -12.8841
  53   2.0000      -0.469965       -12.7884
  54   2.0000      -0.462686       -12.5903
  55   2.0000      -0.451890       -12.2966
  56   2.0000      -0.449237       -12.2244
  57   2.0000      -0.433348       -11.7920
  58   2.0000      -0.425725       -11.5846
  59   2.0000      -0.422962       -11.5094
  60   2.0000      -0.415940       -11.3183
  61   2.0000      -0.415537       -11.3073
  62   2.0000      -0.408224       -11.1083
  63   2.0000      -0.344977        -9.3873
  64   2.0000      -0.335025        -9.1165
  65   2.0000      -0.327628        -8.9152
  66   2.0000      -0.299387        -8.1467
  67   0.0000       0.033616         0.9147
  68   0.0000       0.066520         1.8101
  69   0.0000       0.112068         3.0495
  70   0.0000       0.123449         3.3592
  71   0.0000       0.134776         3.6674

MULLIKEN ATOMIC CHARGES
-----------------------
   0 S :    0.121849
   1 C :   -0.133149
   2 C :   -0.078694
   3 C :    0.071970
   4 C :   -0.171254
   5 H :   -0.013703
   6 C :   -0.002154
   7 H :    0.047605
   8 H :    0.020349
   9 C :   -0.046792
  10 H :    0.021809
  11 H :    0.035105
  12 C :   -0.020889
  13 H :    0.049114
  14 H :    0.024462
  15 H :   -0.011043
  16 S :    0.089471
  17 C :   -0.067605
  18 C :   -0.044105
  19 C :   -0.049330
  20 C :   -0.144142
  21 H :    0.025936
  22 C :    0.108757
  23 H :    0.040595
  24 H :   -0.008280
  25 C :   -0.118350
  26 H :    0.024517
  27 H :    0.018985
  28 C :    0.040472
  29 H :    0.018310
  30 H :    0.009216
  31 H :    0.024245
  32 H :    0.070123
  33 H :    0.046601
Sum of atomic charges:   -0.0000000

LOEWDIN ATOMIC CHARGES
----------------------
   0 S :    0.422702
   1 C :   -0.197992
   2 C :   -0.069033
   3 C :   -0.054927
   4 C :   -0.205428
   5 H :    0.022919
   6 C :   -0.041130
   7 H :    0.035965
   8 H :    0.031316
   9 C :   -0.039716
  10 H :    0.026224
  11 H :    0.027969
  12 C :   -0.068220
  13 H :    0.033935
  14 H :    0.033021
  15 H :    0.002389
  16 S :    0.404734
  17 C :   -0.174568
  18 C :   -0.077921
  19 C :   -0.060038
  20 C :   -0.200380
  21 H :    0.035852
  22 C :   -0.022177
  23 H :    0.039672
  24 H :    0.014387
  25 C :   -0.040593
  26 H :    0.021815
  27 H :    0.019864
  28 C :   -0.054389
  29 H :    0.025573
  30 H :    0.017951
  31 H :    0.022756
  32 H :    0.039962
  33 H :    0.027505

  Mayer bond orders larger than 0.100000
B(  0-S ,  1-C ) :   1.1462 B(  0-S ,  4-C ) :   1.1627 B(  1-C ,  2-C ) :   1.5924
B(  1-C , 32-H ) :   0.9651 B(  2-C ,  3-C ) :   1.2543 B(  2-C ,  6-C ) :   1.0090
B(  3-C ,  4-C ) :   1.5730 B(  3-C ,  5-H ) :   1.0052 B(  4-C , 20-C ) :   1.0049
B(  6-C ,  7-H ) :   0.9506 B(  6-C ,  8-H ) :   0.9452 B(  6-C ,  9-C ) :   1.0723
B(  9-C , 10-H ) :   0.9500 B(  9-C , 11-H ) :   0.9530 B(  9-C , 12-C ) :   1.0974
B( 12-C , 13-H ) :   0.9671 B( 12-C , 14-H ) :   0.9653 B( 12-C , 15-H ) :   0.9693
B( 16-S , 17-C ) :   1.1590 B( 16-S , 20-C ) :   1.1420 B( 17-C , 18-C ) :   1.5848
B( 17-C , 20-C ) :   0.1022 B( 17-C , 33-H ) :   0.9755 B( 18-C , 19-C ) :   1.2620
B( 18-C , 21-H ) :   0.9849 B( 19-C , 20-C ) :   1.5930 B( 19-C , 22-C ) :   1.0536
B( 22-C , 23-H ) :   0.9324 B( 22-C , 24-H ) :   0.9185 B( 22-C , 25-C ) :   1.0544
B( 25-C , 26-H ) :   0.9512 B( 25-C , 27-H ) :   0.9561 B( 25-C , 28-C ) :   1.0871
B( 28-C , 29-H ) :   0.9695 B( 28-C , 30-H ) :   0.9705 B( 28-C , 31-H ) :   0.9709

Dispersion correction           -0.014663720
FINAL SINGLE POINT ENERGY     -1339.864518868325

DIPOLE MOMENT
-------------
                                X             Y             Z
Electronic contribution:     13.43911     -25.93839      -9.05741
Nuclear contribution   :    -13.93862      26.48383       9.17961
                        -----------------------------------------
Total Dipole Moment    :     -0.49951       0.54544       0.12220
                        -----------------------------------------
Magnitude (a.u.)       :      0.74963
Magnitude (Debye)      :      1.90541

Rotational constants in cm-1:     0.018321     0.009608     0.006812
Rotational constants in MHz :   549.246514   288.034659   204.208377

                             ****ORCA TERMINATED NORMALLY****
TOTAL RUN TIME: 0 days 0 hours 0 minutes 22 seconds 311 msec
