                         Program Version 4.2.1 -  RELEASE  -
|  1> ! wB97X-D3 SP def2-SVP
|  2> %pal
|  3> nprocs 24
|  4> end
|  5>
|  6> * xyz 0 1
|  7> S 	 -49.1118 	 14.6745 	 -105.535
|  8> C 	 -50.4559 	 13.5488 	 -105.272
|  9> C 	 -50.4054 	 12.904 	 -104.055
| 10> C 	 -49.1731 	 13.2944 	 -103.353
| 11> C 	 -48.39 	 14.2323 	 -103.998
| 12> H 	 -48.9954 	 13.0469 	 -102.282
| 13> C 	 -51.4793 	 11.9374 	 -103.483
| 14> H 	 -52.4276 	 12.3037 	 -103.99
| 15> H 	 -51.55 	 12.1095 	 -102.388
| 16> C 	 -51.3305 	 10.4738 	 -103.72
| 17> H 	 -50.7964 	 10.1454 	 -102.895
| 18> H 	 -52.3406 	 9.98231 	 -103.708
| 19> C 	 -50.6355 	 10.0772 	 -105.058
| 20> H 	 -50.9316 	 9.13738 	 -105.553
| 21> H 	 -50.7097 	 10.85 	 -105.83
| 22> H 	 -49.6085 	 9.99271 	 -104.99
| 23> S 	 -45.8393 	 14.3359 	 -105.01
| 24> C 	 -44.4452 	 14.6781 	 -103.994
| 25> C 	 -44.9018 	 14.8067 	 -102.704
| 26> C 	 -46.343 	 14.8297 	 -102.527
| 27> C 	 -46.9909 	 14.5937 	 -103.717
| 28> H 	 -44.1953 	 15.024 	 -101.921
| 29> C 	 -46.912 	 14.9379 	 -101.121
| 30> H 	 -46.2122 	 14.3971 	 -100.52
| 31> H 	 -47.8134 	 14.349 	 -101.081
| 32> C 	 -47.0727 	 16.3236 	 -100.514
| 33> H 	 -47.9126 	 16.8527 	 -100.917
| 34> H 	 -46.1559 	 16.7869 	 -100.79
| 35> C 	 -47.1888 	 16.3273 	 -98.9503
| 36> H 	 -46.7388 	 15.5362 	 -98.4098
| 37> H 	 -48.2106 	 16.2892 	 -98.6671
| 38> H 	 -46.9483 	 17.3002 	 -98.5692
| 39> H 	 -51.215 	 13.3714 	 -106.065
| 40> H 	 -43.4126 	 14.5821 	 -104.324
| 41> *
| 42>
| 43>                          ****END OF INPUT****

CARTESIAN COORDINATES (ANGSTROEM)
---------------------------------
  S    -49.111800   14.674500  -105.535000
  C    -50.455900   13.548800  -105.272000
  C    -50.405400   12.904000  -104.055000
  C    -49.173100   13.294400  -103.353000
  C    -48.390000   14.232300  -103.998000
  H    -48.995400   13.046900  -102.282000
  C    -51.479300   11.937400  -103.483000
  H    -52.427600   12.303700  -103.990000
  H    -51.550000   12.109500  -102.388000
  C    -51.330500   10.473800  -103.720000
  H    -50.796400   10.145400  -102.895000
  H    -52.340600    9.982310  -103.708000
  C    -50.635500   10.077200  -105.058000
  H    -50.931600    9.137380  -105.553000
  H    -50.709700   10.850000  -105.830000
  H    -49.608500    9.992710  -104.990000
  S    -45.839300   14.335900  -105.010000
  C    -44.445200   14.678100  -103.994000
  C    -44.901800   14.806700  -102.704000
  C    -46.343000   14.829700  -102.527000
  C    -46.990900   14.593700  -103.717000
  H    -44.195300   15.024000  -101.921000
  C    -46.912000   14.937900  -101.121000
  H    -46.212200   14.397100  -100.520000
  H    -47.813400   14.349000  -101.081000
  C    -47.072700   16.323600  -100.514000
  H    -47.912600   16.852700  -100.917000
  H    -46.155900   16.786900  -100.790000
  C    -47.188800   16.327300  -98.950300
  H    -46.738800   15.536200  -98.409800
  H    -48.210600   16.289200  -98.667100
  H    -46.948300   17.300200  -98.569200
  H    -51.215000   13.371400  -106.065000
  H    -43.412600   14.582100  -104.324000

 Total Charge           Charge          ....    0
 Multiplicity           Mult            ....    1
 Number of Electrons    NEL             ....  134
 Basis Dimension        Dim             ....  322

ORBITAL ENERGIES
----------------

  NO   OCC          E(Eh)            E(eV)
   0   2.0000     -88.966236     -2420.8944
   1   2.0000     -88.962092     -2420.7816
   2   2.0000     -10.332998      -281.1752
   3   2.0000     -10.329000      -281.0664
   4   2.0000     -10.320220      -280.8275
   5   2.0000     -10.319260      -280.8013
   6   2.0000     -10.308997      -280.5221
   7   2.0000     -10.303158      -280.3632
   8   2.0000     -10.301850      -280.3276
   9   2.0000     -10.301720      -280.3240
  10   2.0000     -10.294052      -280.1154
  11   2.0000     -10.287705      -279.9427
  12   2.0000     -10.285283      -279.8768
  13   2.0000     -10.283323      -279.8234
  14   2.0000     -10.271680      -279.5066
  15   2.0000     -10.269848      -279.4568
  16   2.0000      -8.080730      -219.8879
  17   2.0000      -8.076927      -219.7843
  18   2.0000      -6.039332      -164.3386
  19   2.0000      -6.035590      -164.2367
  20   2.0000      -6.035236      -164.2271
  21   2.0000      -6.031437      -164.1238
  22   2.0000      -6.031324      -164.1207
  23   2.0000      -6.027567      -164.0184
  24   2.0000      -1.005000       -27.3474
  25   2.0000      -0.980484       -26.6803
  26   2.0000      -0.913301       -24.8522
  27   2.0000      -0.909871       -24.7588
  28   2.0000      -0.867755       -23.6128
  29   2.0000      -0.849952       -23.1284
  30   2.0000      -0.838191       -22.8083
  31   2.0000      -0.812050       -22.0970
  32   2.0000      -0.787677       -21.4338
  33   2.0000      -0.781041       -21.2532
  34   2.0000      -0.712261       -19.3816
  35   2.0000      -0.702587       -19.1184
  36   2.0000      -0.692824       -18.8527
  37   2.0000      -0.663570       -18.0567
  38   2.0000      -0.634898       -17.2765
  39   2.0000      -0.616084       -16.7645
  40   2.0000      -0.594954       -16.1895
  41   2.0000      -0.569563       -15.4986
  42   2.0000      -0.564167       -15.3518
  43   2.0000      -0.558104       -15.1868
  44   2.0000      -0.540565       -14.7095
  45   2.0000      -0.526206       -14.3188
  46   2.0000      -0.518683       -14.1141
  47   2.0000      -0.513113       -13.9625
  48   2.0000      -0.498974       -13.5778
  49   2.0000      -0.494473       -13.4553
  50   2.0000      -0.491943       -13.3865
  51   2.0000      -0.483094       -13.1457
  52   2.0000      -0.464763       -12.6468
  53   2.0000      -0.462592       -12.5878
  54   2.0000      -0.460504       -12.5309
  55   2.0000      -0.446072       -12.1382
  56   2.0000      -0.444344       -12.0912
  57   2.0000      -0.441622       -12.0171
  58   2.0000      -0.438759       -11.9392
  59   2.0000      -0.422646       -11.5008
  60   2.0000      -0.418377       -11.3846
  61   2.0000      -0.414239       -11.2720
  62   2.0000      -0.410670       -11.1749
  63   2.0000      -0.352081        -9.5806
  64   2.0000      -0.330566        -8.9952
  65   2.0000      -0.327493        -8.9115
  66   2.0000      -0.295350        -8.0369
  67   0.0000       0.028713         0.7813
  68   0.0000       0.072293         1.9672
  69   0.0000       0.104852         2.8532
  70   0.0000       0.112152         3.0518
  71   0.0000       0.133404         3.6301

MULLIKEN ATOMIC CHARGES
-----------------------
   0 S :    0.099096
   1 C :   -0.143714
   2 C :   -0.109194
   3 C :    0.020530
   4 C :   -0.158943
   5 H :    0.031076
   6 C :    0.040364
   7 H :    0.035683
   8 H :    0.037474
   9 C :   -0.035430
  10 H :    0.015282
  11 H :    0.042848
  12 C :   -0.027885
  13 H :    0.032948
  14 H :    0.011786
  15 H :    0.014077
  16 S :    0.089408
  17 C :   -0.093596
  18 C :   -0.036764
  19 C :   -0.067511
  20 C :   -0.112062
  21 H :    0.018701
  22 C :    0.090785
  23 H :    0.009145
  24 H :    0.000273
  25 C :   -0.033664
  26 H :    0.035306
  27 H :    0.017936
  28 C :   -0.021701
  29 H :    0.025042
  30 H :    0.012633
  31 H :    0.024559
  32 H :    0.067216
  33 H :    0.068296
Sum of atomic charges:    0.0000000

LOEWDIN ATOMIC CHARGES
----------------------
   0 S :    0.391421
   1 C :   -0.192270
   2 C :   -0.063231
   3 C :   -0.067150
   4 C :   -0.192782
   5 H :    0.033151
   6 C :   -0.032399
   7 H :    0.037561
   8 H :    0.036160
   9 C :   -0.039909
  10 H :    0.015544
  11 H :    0.035989
  12 C :   -0.070374
  13 H :    0.029001
  14 H :    0.025707
  15 H :    0.019058
  16 S :    0.398859
  17 C :   -0.183936
  18 C :   -0.070488
  19 C :   -0.059877
  20 C :   -0.194854
  21 H :    0.026756
  22 C :   -0.027936
  23 H :    0.028580
  24 H :    0.021445
  25 C :   -0.026147
  26 H :    0.026368
  27 H :    0.019740
  28 C :   -0.061921
  29 H :    0.019617
  30 H :    0.022617
  31 H :    0.027152
  32 H :    0.032938
  33 H :    0.035612

  Mayer bond orders larger than 0.100000
B(  0-S ,  1-C ) :   1.1345 B(  0-S ,  4-C ) :   1.1409 B(  1-C ,  2-C ) :   1.6392
B(  1-C , 32-H ) :   0.9543 B(  2-C ,  3-C ) :   1.2272 B(  2-C ,  6-C ) :   1.0157
B(  3-C ,  4-C ) :   1.6051 B(  3-C ,  5-H ) :   0.9717 B(  4-C , 20-C ) :   1.0198
B(  6-C ,  7-H ) :   0.9397 B(  6-C ,  8-H ) :   0.9480 B(  6-C ,  9-C ) :   1.0726
B(  9-C , 10-H ) :   0.9577 B(  9-C , 11-H ) :   0.9582 B(  9-C , 12-C ) :   1.0737
B( 12-C , 13-H ) :   0.9766 B( 12-C , 14-H ) :   0.9740 B( 12-C , 15-H ) :   0.9668
B( 16-S , 17-C ) :   1.1411 B( 16-S , 20-C ) :   1.1418 B( 17-C , 18-C ) :   1.6164
B( 17-C , 33-H ) :   0.9699 B( 18-C , 19-C ) :   1.2370 B( 18-C , 21-H ) :   0.9853
B( 19-C , 20-C ) :   1.6149 B( 19-C , 22-C ) :   1.0389 B( 22-C , 23-H ) :   0.9311
B( 22-C , 24-H ) :   0.9270 B( 22-C , 25-C ) :   1.0686 B( 25-C , 26-H ) :   0.9562
B( 25-C , 27-H ) :   0.9592 B( 25-C , 28-C ) :   1.0756 B( 28-C , 29-H ) :   0.9783
B( 28-C , 30-H ) :   0.9737 B( 28-C , 31-H ) :   0.9738

Dispersion correction           -0.013779725
FINAL SINGLE POINT ENERGY     -1339.867221534577

DIPOLE MOMENT
-------------
                                X             Y             Z
Electronic contribution:      9.77036       8.09990     -19.34203
Nuclear contribution   :     -9.88133      -8.41131      19.96229
                        -----------------------------------------
Total Dipole Moment    :     -0.11097      -0.31141       0.62025
                        -----------------------------------------
Magnitude (a.u.)       :      0.70285
Magnitude (Debye)      :      1.78651

Rotational constants in cm-1:     0.018020     0.008196     0.006666
Rotational constants in MHz :   540.229559   245.700880   199.831842

                             ****ORCA TERMINATED NORMALLY****
TOTAL RUN TIME: 0 days 0 hours 0 minutes 21 seconds 178 msec
