                         Program Version 4.2.1 -  RELEASE  -
|  1> ! wB97X-D3 SP def2-SVP
|  2> %pal
|  3> nprocs 24
|  4> end
|  5>
|  6> * xyz 0 1
|  7> S 	 37.7372 	 -31.3468 	 -125.566
|  8> C 	 38.6297 	 -32.5102 	 -124.674
|  9> C 	 37.8448 	 -33.5258 	 -124.099
| 10> C 	 36.4353 	 -33.2562 	 -124.33
| 11> C 	 36.2183 	 -32.1185 	 -125.139
| 12> H 	 35.5734 	 -33.7998 	 -123.987
| 13> C 	 38.3507 	 -34.828 	 -123.433
| 14> H 	 39.4117 	 -34.8587 	 -123.57
| 15> H 	 37.9364 	 -35.6141 	 -124.065
| 16> C 	 37.7568 	 -35.0308 	 -122.041
| 17> H 	 36.7586 	 -35.4918 	 -121.986
| 18> H 	 38.1714 	 -35.9872 	 -121.801
| 19> C 	 38.0045 	 -33.9194 	 -121.012
| 20> H 	 37.5592 	 -32.967 	 -121.31
| 21> H 	 37.4943 	 -34.1498 	 -120.163
| 22> H 	 39.0322 	 -33.7294 	 -120.747
| 23> S 	 34.9108 	 -30.5434 	 -127.095
| 24> C 	 33.2169 	 -30.2552 	 -126.895
| 25> C 	 32.643 	 -30.8322 	 -125.784
| 26> C 	 33.67 	 -31.4133 	 -124.988
| 27> C 	 34.9126 	 -31.4978 	 -125.57
| 28> H 	 31.5758 	 -30.8887 	 -125.556
| 29> C 	 33.4043 	 -31.8541 	 -123.528
| 30> H 	 34.3352 	 -31.5758 	 -123.074
| 31> H 	 33.3799 	 -32.9963 	 -123.537
| 32> C 	 32.1331 	 -31.2867 	 -122.851
| 33> H 	 31.3618 	 -31.8816 	 -123.126
| 34> H 	 31.9999 	 -30.2021 	 -123.145
| 35> C 	 32.1152 	 -31.4434 	 -121.294
| 36> H 	 32.8518 	 -30.7937 	 -120.888
| 37> H 	 32.3383 	 -32.4518 	 -120.981
| 38> H 	 31.1569 	 -31.2055 	 -120.787
| 39> H 	 39.6814 	 -32.5269 	 -124.719
| 40> H 	 32.5714 	 -29.7463 	 -127.572
| 41> *
| 42>
| 43>                          ****END OF INPUT****

CARTESIAN COORDINATES (ANGSTROEM)
---------------------------------
  S     37.737200  -31.346800  -125.566000
  C     38.629700  -32.510200  -124.674000
  C     37.844800  -33.525800  -124.099000
  C     36.435300  -33.256200  -124.330000
  C     36.218300  -32.118500  -125.139000
  H     35.573400  -33.799800  -123.987000
  C     38.350700  -34.828000  -123.433000
  H     39.411700  -34.858700  -123.570000
  H     37.936400  -35.614100  -124.065000
  C     37.756800  -35.030800  -122.041000
  H     36.758600  -35.491800  -121.986000
  H     38.171400  -35.987200  -121.801000
  C     38.004500  -33.919400  -121.012000
  H     37.559200  -32.967000  -121.310000
  H     37.494300  -34.149800  -120.163000
  H     39.032200  -33.729400  -120.747000
  S     34.910800  -30.543400  -127.095000
  C     33.216900  -30.255200  -126.895000
  C     32.643000  -30.832200  -125.784000
  C     33.670000  -31.413300  -124.988000
  C     34.912600  -31.497800  -125.570000
  H     31.575800  -30.888700  -125.556000
  C     33.404300  -31.854100  -123.528000
  H     34.335200  -31.575800  -123.074000
  H     33.379900  -32.996300  -123.537000
  C     32.133100  -31.286700  -122.851000
  H     31.361800  -31.881600  -123.126000
  H     31.999900  -30.202100  -123.145000
  C     32.115200  -31.443400  -121.294000
  H     32.851800  -30.793700  -120.888000
  H     32.338300  -32.451800  -120.981000
  H     31.156900  -31.205500  -120.787000
  H     39.681400  -32.526900  -124.719000
  H     32.571400  -29.746300  -127.572000

 Total Charge           Charge          ....    0
 Multiplicity           Mult            ....    1
 Number of Electrons    NEL             ....  134
 Basis Dimension        Dim             ....  322

ORBITAL ENERGIES
----------------

  NO   OCC          E(Eh)            E(eV)
   0   2.0000     -88.965980     -2420.8874
   1   2.0000     -88.965366     -2420.8707
   2   2.0000     -10.335406      -281.2407
   3   2.0000     -10.328674      -281.0575
   4   2.0000     -10.314205      -280.6638
   5   2.0000     -10.309116      -280.5253
   6   2.0000     -10.305563      -280.4286
   7   2.0000     -10.301341      -280.3137
   8   2.0000     -10.297460      -280.2081
   9   2.0000     -10.295882      -280.1652
  10   2.0000     -10.295265      -280.1484
  11   2.0000     -10.292525      -280.0738
  12   2.0000     -10.288540      -279.9654
  13   2.0000     -10.287749      -279.9439
  14   2.0000     -10.278338      -279.6878
  15   2.0000     -10.269002      -279.4338
  16   2.0000      -8.080508      -219.8818
  17   2.0000      -8.080298      -219.8761
  18   2.0000      -6.038952      -164.3282
  19   2.0000      -6.038871      -164.3260
  20   2.0000      -6.035000      -164.2207
  21   2.0000      -6.034957      -164.2195
  22   2.0000      -6.031345      -164.1213
  23   2.0000      -6.030890      -164.1089
  24   2.0000      -1.000589       -27.2274
  25   2.0000      -0.981100       -26.6971
  26   2.0000      -0.911018       -24.7901
  27   2.0000      -0.904228       -24.6053
  28   2.0000      -0.862714       -23.4756
  29   2.0000      -0.851512       -23.1708
  30   2.0000      -0.842624       -22.9290
  31   2.0000      -0.813695       -22.1418
  32   2.0000      -0.787589       -21.4314
  33   2.0000      -0.772924       -21.0323
  34   2.0000      -0.715158       -19.4604
  35   2.0000      -0.705674       -19.2024
  36   2.0000      -0.691702       -18.8222
  37   2.0000      -0.653388       -17.7796
  38   2.0000      -0.642436       -17.4816
  39   2.0000      -0.615605       -16.7515
  40   2.0000      -0.588633       -16.0175
  41   2.0000      -0.574323       -15.6281
  42   2.0000      -0.561966       -15.2919
  43   2.0000      -0.557130       -15.1603
  44   2.0000      -0.534035       -14.5318
  45   2.0000      -0.523589       -14.2476
  46   2.0000      -0.516441       -14.0531
  47   2.0000      -0.508570       -13.8389
  48   2.0000      -0.498296       -13.5593
  49   2.0000      -0.496786       -13.5182
  50   2.0000      -0.489509       -13.3202
  51   2.0000      -0.480125       -13.0649
  52   2.0000      -0.467958       -12.7338
  53   2.0000      -0.464154       -12.6303
  54   2.0000      -0.459642       -12.5075
  55   2.0000      -0.457641       -12.4531
  56   2.0000      -0.450024       -12.2458
  57   2.0000      -0.443657       -12.0725
  58   2.0000      -0.434470       -11.8225
  59   2.0000      -0.432775       -11.7764
  60   2.0000      -0.422456       -11.4956
  61   2.0000      -0.412308       -11.2195
  62   2.0000      -0.399632       -10.8745
  63   2.0000      -0.351184        -9.5562
  64   2.0000      -0.331568        -9.0224
  65   2.0000      -0.326454        -8.8833
  66   2.0000      -0.282713        -7.6930
  67   0.0000       0.027087         0.7371
  68   0.0000       0.079514         2.1637
  69   0.0000       0.103047         2.8041
  70   0.0000       0.118485         3.2241
  71   0.0000       0.133308         3.6275

MULLIKEN ATOMIC CHARGES
-----------------------
   0 S :    0.107241
   1 C :   -0.109151
   2 C :   -0.108437
   3 C :    0.011850
   4 C :   -0.140189
   5 H :    0.002123
   6 C :    0.103401
   7 H :    0.015757
   8 H :    0.035026
   9 C :   -0.078568
  10 H :    0.020272
  11 H :    0.003165
  12 C :    0.023540
  13 H :    0.037366
  14 H :    0.003184
  15 H :    0.030259
  16 S :    0.097251
  17 C :   -0.052600
  18 C :   -0.049036
  19 C :   -0.088868
  20 C :   -0.132921
  21 H :    0.033996
  22 C :    0.025316
  23 H :    0.034569
  24 H :    0.049633
  25 C :   -0.054083
  26 H :    0.012537
  27 H :    0.052690
  28 C :   -0.042660
  29 H :    0.027102
  30 H :    0.022056
  31 H :    0.036805
  32 H :    0.030867
  33 H :    0.040507
Sum of atomic charges:    0.0000000

LOEWDIN ATOMIC CHARGES
----------------------
   0 S :    0.412568
   1 C :   -0.208327
   2 C :   -0.057046
   3 C :   -0.065207
   4 C :   -0.187403
   5 H :    0.026985
   6 C :   -0.023189
   7 H :    0.026308
   8 H :    0.039415
   9 C :   -0.054693
  10 H :    0.032628
  11 H :    0.025186
  12 C :   -0.054257
  13 H :    0.031652
  14 H :    0.014726
  15 H :    0.026765
  16 S :    0.387543
  17 C :   -0.178012
  18 C :   -0.077064
  19 C :   -0.057361
  20 C :   -0.190093
  21 H :    0.038466
  22 C :   -0.033396
  23 H :    0.028194
  24 H :    0.036668
  25 C :   -0.036137
  26 H :    0.010120
  27 H :    0.035001
  28 C :   -0.060411
  29 H :    0.019597
  30 H :    0.021784
  31 H :    0.030034
  32 H :    0.015449
  33 H :    0.023510

  Mayer bond orders larger than 0.100000
B(  0-S ,  1-C ) :   1.1492 B(  0-S ,  4-C ) :   1.1595 B(  1-C ,  2-C ) :   1.6018
B(  1-C , 32-H ) :   0.9701 B(  2-C ,  3-C ) :   1.2254 B(  2-C ,  6-C ) :   1.0198
B(  3-C ,  4-C ) :   1.5711 B(  3-C ,  5-H ) :   0.9951 B(  4-C , 20-C ) :   1.0396
B(  6-C ,  7-H ) :   0.9450 B(  6-C ,  8-H ) :   0.9334 B(  6-C ,  9-C ) :   1.0777
B(  9-C , 10-H ) :   0.9445 B(  9-C , 11-H ) :   0.9408 B(  9-C , 12-C ) :   1.0685
B( 12-C , 13-H ) :   0.9703 B( 12-C , 14-H ) :   0.9681 B( 12-C , 15-H ) :   0.9759
B( 16-S , 17-C ) :   1.1626 B( 16-S , 20-C ) :   1.1054 B( 17-C , 18-C ) :   1.6132
B( 17-C , 33-H ) :   0.9610 B( 18-C , 19-C ) :   1.2442 B( 18-C , 21-H ) :   0.9828
B( 19-C , 20-C ) :   1.6421 B( 19-C , 22-C ) :   1.0082 B( 22-C , 23-H ) :   0.9455
B( 22-C , 24-H ) :   0.9267 B( 22-C , 25-C ) :   1.0718 B( 25-C , 26-H ) :   0.9432
B( 25-C , 27-H ) :   0.9584 B( 25-C , 28-C ) :   1.0817 B( 28-C , 29-H ) :   0.9790
B( 28-C , 30-H ) :   0.9737 B( 28-C , 31-H ) :   0.9761

Dispersion correction           -0.013996391
FINAL SINGLE POINT ENERGY     -1339.858437079916

DIPOLE MOMENT
-------------
                                X             Y             Z
Electronic contribution:      7.01004      12.38035     -27.56864
Nuclear contribution   :     -7.31221     -12.88831      28.15217
                        -----------------------------------------
Total Dipole Moment    :     -0.30217      -0.50796       0.58353
                        -----------------------------------------
Magnitude (a.u.)       :      0.83056
Magnitude (Debye)      :      2.11113

Rotational constants in cm-1:     0.016372     0.009529     0.006449
Rotational constants in MHz :   490.822740   285.685440   193.330221

                             ****ORCA TERMINATED NORMALLY****
TOTAL RUN TIME: 0 days 0 hours 0 minutes 21 seconds 351 msec
