                         Program Version 4.2.1 -  RELEASE  -
|  1> ! wB97X-D3 SP def2-SVP
|  2> %pal
|  3> nprocs 24
|  4> end
|  5>
|  6> * xyz 0 1
|  7> S 	 -120.662 	 15.042 	 -10.9657
|  8> C 	 -121.921 	 15.0218 	 -9.78896
|  9> C 	 -122.023 	 13.7752 	 -9.16897
| 10> C 	 -121.026 	 12.8624 	 -9.68656
| 11> C 	 -120.44 	 13.2959 	 -10.8416
| 12> H 	 -120.815 	 11.8429 	 -9.41998
| 13> C 	 -122.972 	 13.3949 	 -8.06374
| 14> H 	 -122.862 	 14.2095 	 -7.35944
| 15> H 	 -122.616 	 12.4694 	 -7.71764
| 16> C 	 -124.483 	 13.1691 	 -8.47873
| 17> H 	 -124.819 	 14.0881 	 -8.83689
| 18> H 	 -124.612 	 12.397 	 -9.27941
| 19> C 	 -125.428 	 12.849 	 -7.25735
| 20> H 	 -126.429 	 13.2487 	 -7.50854
| 21> H 	 -125.631 	 11.7911 	 -7.09585
| 22> H 	 -125.203 	 13.35 	 -6.31473
| 23> S 	 -117.86 	 13.1186 	 -11.8709
| 24> C 	 -117.392 	 11.5206 	 -12.4953
| 25> C 	 -118.48 	 10.757 	 -12.8401
| 26> C 	 -119.672 	 11.399 	 -12.3459
| 27> C 	 -119.492 	 12.6493 	 -11.7207
| 28> H 	 -118.388 	 9.74443 	 -13.2026
| 29> C 	 -121.011 	 10.6001 	 -12.5719
| 30> H 	 -121.59 	 10.9976 	 -11.8281
| 31> H 	 -120.949 	 9.56218 	 -12.2095
| 32> C 	 -121.77 	 10.9524 	 -13.8271
| 33> H 	 -122.583 	 10.2523 	 -13.9031
| 34> H 	 -121.122 	 10.6957 	 -14.669
| 35> C 	 -122.446 	 12.3111 	 -13.821
| 36> H 	 -122.777 	 12.5599 	 -12.7931
| 37> H 	 -123.322 	 12.3946 	 -14.5032
| 38> H 	 -121.689 	 13.0894 	 -14.1266
| 39> H 	 -122.503 	 15.8891 	 -9.46667
| 40> H 	 -116.391 	 11.1349 	 -12.6638
| 41> *
| 42>
| 43>                          ****END OF INPUT****

CARTESIAN COORDINATES (ANGSTROEM)
---------------------------------
  S    -120.662000   15.042000  -10.965700
  C    -121.921000   15.021800   -9.788960
  C    -122.023000   13.775200   -9.168970
  C    -121.026000   12.862400   -9.686560
  C    -120.440000   13.295900  -10.841600
  H    -120.815000   11.842900   -9.419980
  C    -122.972000   13.394900   -8.063740
  H    -122.862000   14.209500   -7.359440
  H    -122.616000   12.469400   -7.717640
  C    -124.483000   13.169100   -8.478730
  H    -124.819000   14.088100   -8.836890
  H    -124.612000   12.397000   -9.279410
  C    -125.428000   12.849000   -7.257350
  H    -126.429000   13.248700   -7.508540
  H    -125.631000   11.791100   -7.095850
  H    -125.203000   13.350000   -6.314730
  S    -117.860000   13.118600  -11.870900
  C    -117.392000   11.520600  -12.495300
  C    -118.480000   10.757000  -12.840100
  C    -119.672000   11.399000  -12.345900
  C    -119.492000   12.649300  -11.720700
  H    -118.388000    9.744430  -13.202600
  C    -121.011000   10.600100  -12.571900
  H    -121.590000   10.997600  -11.828100
  H    -120.949000    9.562180  -12.209500
  C    -121.770000   10.952400  -13.827100
  H    -122.583000   10.252300  -13.903100
  H    -121.122000   10.695700  -14.669000
  C    -122.446000   12.311100  -13.821000
  H    -122.777000   12.559900  -12.793100
  H    -123.322000   12.394600  -14.503200
  H    -121.689000   13.089400  -14.126600
  H    -122.503000   15.889100   -9.466670
  H    -116.391000   11.134900  -12.663800

 Total Charge           Charge          ....    0
 Multiplicity           Mult            ....    1
 Number of Electrons    NEL             ....  134
 Basis Dimension        Dim             ....  322

ORBITAL ENERGIES
----------------

  NO   OCC          E(Eh)            E(eV)
   0   2.0000     -88.968137     -2420.9461
   1   2.0000     -88.961289     -2420.7597
   2   2.0000     -10.327602      -281.0283
   3   2.0000     -10.325074      -280.9595
   4   2.0000     -10.320261      -280.8286
   5   2.0000     -10.313467      -280.6437
   6   2.0000     -10.306403      -280.4515
   7   2.0000     -10.302452      -280.3440
   8   2.0000     -10.293911      -280.1116
   9   2.0000     -10.293516      -280.1008
  10   2.0000     -10.293434      -280.0986
  11   2.0000     -10.289992      -280.0049
  12   2.0000     -10.282667      -279.8056
  13   2.0000     -10.280760      -279.7537
  14   2.0000     -10.279087      -279.7082
  15   2.0000     -10.278135      -279.6823
  16   2.0000      -8.083151      -219.9537
  17   2.0000      -8.076612      -219.7758
  18   2.0000      -6.041728      -164.4038
  19   2.0000      -6.037685      -164.2937
  20   2.0000      -6.035056      -164.2222
  21   2.0000      -6.033731      -164.1862
  22   2.0000      -6.031099      -164.1146
  23   2.0000      -6.027363      -164.0129
  24   2.0000      -1.008924       -27.4542
  25   2.0000      -0.984970       -26.8024
  26   2.0000      -0.908533       -24.7224
  27   2.0000      -0.905913       -24.6511
  28   2.0000      -0.871252       -23.7080
  29   2.0000      -0.848602       -23.0916
  30   2.0000      -0.842859       -22.9354
  31   2.0000      -0.816159       -22.2088
  32   2.0000      -0.781113       -21.2552
  33   2.0000      -0.767642       -20.8886
  34   2.0000      -0.707424       -19.2500
  35   2.0000      -0.702506       -19.1162
  36   2.0000      -0.692600       -18.8466
  37   2.0000      -0.659781       -17.9536
  38   2.0000      -0.643727       -17.5167
  39   2.0000      -0.615291       -16.7429
  40   2.0000      -0.591784       -16.1033
  41   2.0000      -0.571447       -15.5499
  42   2.0000      -0.562518       -15.3069
  43   2.0000      -0.551377       -15.0037
  44   2.0000      -0.538671       -14.6580
  45   2.0000      -0.520446       -14.1621
  46   2.0000      -0.513135       -13.9631
  47   2.0000      -0.508410       -13.8345
  48   2.0000      -0.506718       -13.7885
  49   2.0000      -0.497375       -13.5343
  50   2.0000      -0.493533       -13.4297
  51   2.0000      -0.477271       -12.9872
  52   2.0000      -0.470359       -12.7991
  53   2.0000      -0.468823       -12.7573
  54   2.0000      -0.457186       -12.4407
  55   2.0000      -0.447808       -12.1855
  56   2.0000      -0.443454       -12.0670
  57   2.0000      -0.440153       -11.9772
  58   2.0000      -0.431825       -11.7506
  59   2.0000      -0.421618       -11.4728
  60   2.0000      -0.417081       -11.3494
  61   2.0000      -0.414982       -11.2922
  62   2.0000      -0.398941       -10.8557
  63   2.0000      -0.349861        -9.5202
  64   2.0000      -0.331539        -9.0216
  65   2.0000      -0.322320        -8.7708
  66   2.0000      -0.291279        -7.9261
  67   0.0000       0.032025         0.8714
  68   0.0000       0.060320         1.6414
  69   0.0000       0.103963         2.8290
  70   0.0000       0.118428         3.2226
  71   0.0000       0.131348         3.5742

MULLIKEN ATOMIC CHARGES
-----------------------
   0 S :    0.095842
   1 C :   -0.106107
   2 C :   -0.136084
   3 C :    0.072220
   4 C :   -0.204064
   5 H :    0.010414
   6 C :    0.106874
   7 H :    0.033131
   8 H :    0.007242
   9 C :   -0.055108
  10 H :    0.011480
  11 H :    0.043210
  12 C :   -0.067114
  13 H :    0.025502
  14 H :    0.037859
  15 H :    0.033513
  16 S :    0.118996
  17 C :   -0.097506
  18 C :   -0.008666
  19 C :   -0.122832
  20 C :   -0.102150
  21 H :    0.027995
  22 C :    0.106907
  23 H :   -0.035943
  24 H :    0.031496
  25 C :   -0.026984
  26 H :    0.015899
  27 H :    0.023469
  28 C :   -0.075786
  29 H :    0.040047
  30 H :    0.043143
  31 H :    0.047193
  32 H :    0.050596
  33 H :    0.055315
Sum of atomic charges:   -0.0000000

LOEWDIN ATOMIC CHARGES
----------------------
   0 S :    0.400257
   1 C :   -0.207788
   2 C :   -0.064599
   3 C :   -0.057814
   4 C :   -0.182454
   5 H :    0.030093
   6 C :   -0.024937
   7 H :    0.033398
   8 H :    0.022330
   9 C :   -0.028524
  10 H :    0.012161
  11 H :    0.032516
  12 C :   -0.073698
  13 H :    0.029518
  14 H :    0.024443
  15 H :    0.025574
  16 S :    0.414809
  17 C :   -0.170943
  18 C :   -0.071340
  19 C :   -0.044387
  20 C :   -0.232912
  21 H :    0.035362
  22 C :   -0.036579
  23 H :    0.011893
  24 H :    0.034620
  25 C :   -0.041447
  26 H :    0.023034
  27 H :    0.021921
  28 C :   -0.068095
  29 H :    0.029840
  30 H :    0.029760
  31 H :    0.032610
  32 H :    0.030752
  33 H :    0.030626

  Mayer bond orders larger than 0.100000
B(  0-S ,  1-C ) :   1.1440 B(  0-S ,  4-C ) :   1.1396 B(  1-C ,  2-C ) :   1.6063
B(  1-C , 32-H ) :   0.9693 B(  2-C ,  3-C ) :   1.2222 B(  2-C ,  6-C ) :   1.0239
B(  3-C ,  4-C ) :   1.6061 B(  3-C ,  5-H ) :   0.9868 B(  4-C , 20-C ) :   1.0261
B(  6-C ,  7-H ) :   0.9374 B(  6-C ,  8-H ) :   0.9392 B(  6-C ,  9-C ) :   1.0642
B(  9-C , 10-H ) :   0.9616 B(  9-C , 11-H ) :   0.9589 B(  9-C , 12-C ) :   1.0693
B( 12-C , 13-H ) :   0.9769 B( 12-C , 14-H ) :   0.9802 B( 12-C , 15-H ) :   0.9766
B( 16-S , 17-C ) :   1.1571 B( 16-S , 20-C ) :   1.1284 B( 17-C , 18-C ) :   1.6115
B( 17-C , 33-H ) :   0.9646 B( 18-C , 19-C ) :   1.2433 B( 18-C , 21-H ) :   0.9910
B( 19-C , 20-C ) :   1.5918 B( 19-C , 22-C ) :   1.0221 B( 22-C , 23-H ) :   0.9128
B( 22-C , 24-H ) :   0.9392 B( 22-C , 25-C ) :   1.0726 B( 25-C , 26-H ) :   0.9477
B( 25-C , 27-H ) :   0.9561 B( 25-C , 28-C ) :   1.0728 B( 28-C , 29-H ) :   0.9713
B( 28-C , 30-H ) :   0.9770 B( 28-C , 31-H ) :   0.9739

Dispersion correction           -0.015031249
FINAL SINGLE POINT ENERGY     -1339.850757609055

DIPOLE MOMENT
-------------
                                X             Y             Z
Electronic contribution:     26.37557      10.57423      -5.11168
Nuclear contribution   :    -26.81003     -11.14300       5.38604
                        -----------------------------------------
Total Dipole Moment    :     -0.43446      -0.56878       0.27436
                        -----------------------------------------
Magnitude (a.u.)       :      0.76650
Magnitude (Debye)      :      1.94830

Rotational constants in cm-1:     0.020867     0.008184     0.007026
Rotational constants in MHz :   625.578074   245.342454   210.627227

                             ****ORCA TERMINATED NORMALLY****
TOTAL RUN TIME: 0 days 0 hours 0 minutes 22 seconds 78 msec
