                         Program Version 4.2.1 -  RELEASE  -
|  1> ! wB97X-D3 SP def2-SVP
|  2> %pal
|  3> nprocs 24
|  4> end
|  5>
|  6> * xyz 0 1
|  7> S 	 -56.1543 	 22.6182 	 25.9783
|  8> C 	 -55.2513 	 21.1606 	 26.4415
|  9> C 	 -55.9872 	 20.0064 	 26.1256
| 10> C 	 -57.274 	 20.3544 	 25.5358
| 11> C 	 -57.5108 	 21.6827 	 25.4294
| 12> H 	 -57.996 	 19.6181 	 25.2772
| 13> C 	 -55.4723 	 18.6003 	 26.2902
| 14> H 	 -56.0311 	 18.0441 	 26.9997
| 15> H 	 -54.5362 	 18.6136 	 26.7323
| 16> C 	 -55.1287 	 17.8631 	 25.0127
| 17> H 	 -56.0225 	 17.7142 	 24.3806
| 18> H 	 -54.3765 	 18.4723 	 24.4429
| 19> C 	 -54.5901 	 16.4902 	 25.265
| 20> H 	 -53.5435 	 16.4556 	 25.7145
| 21> H 	 -55.2277 	 15.7997 	 25.8948
| 22> H 	 -54.5021 	 15.9709 	 24.2417
| 23> S 	 -59.8049 	 23.209 	 25.4883
| 24> C 	 -60.5533 	 23.6691 	 23.9557
| 25> C 	 -60.031 	 22.9811 	 22.9073
| 26> C 	 -58.9165 	 22.1726 	 23.3004
| 27> C 	 -58.5744 	 22.2977 	 24.6194
| 28> H 	 -60.4898 	 23.0386 	 21.9341
| 29> C 	 -58.1112 	 21.2416 	 22.3113
| 30> H 	 -58.083 	 20.3005 	 22.8397
| 31> H 	 -57.0966 	 21.5655 	 22.2784
| 32> C 	 -58.5653 	 21.0793 	 20.9038
| 33> H 	 -59.6031 	 20.8568 	 20.784
| 34> H 	 -57.8538 	 20.2539 	 20.6344
| 35> C 	 -58.1503 	 22.3012 	 19.9614
| 36> H 	 -58.5497 	 22.0276 	 18.9958
| 37> H 	 -57.073 	 22.3513 	 20.036
| 38> H 	 -58.5773 	 23.2504 	 20.3341
| 39> H 	 -54.2585 	 21.0315 	 26.8379
| 40> H 	 -61.5063 	 24.2391 	 23.9721
| 41> *
| 42>
| 43>                          ****END OF INPUT****

CARTESIAN COORDINATES (ANGSTROEM)
---------------------------------
  S    -56.154300   22.618200   25.978300
  C    -55.251300   21.160600   26.441500
  C    -55.987200   20.006400   26.125600
  C    -57.274000   20.354400   25.535800
  C    -57.510800   21.682700   25.429400
  H    -57.996000   19.618100   25.277200
  C    -55.472300   18.600300   26.290200
  H    -56.031100   18.044100   26.999700
  H    -54.536200   18.613600   26.732300
  C    -55.128700   17.863100   25.012700
  H    -56.022500   17.714200   24.380600
  H    -54.376500   18.472300   24.442900
  C    -54.590100   16.490200   25.265000
  H    -53.543500   16.455600   25.714500
  H    -55.227700   15.799700   25.894800
  H    -54.502100   15.970900   24.241700
  S    -59.804900   23.209000   25.488300
  C    -60.553300   23.669100   23.955700
  C    -60.031000   22.981100   22.907300
  C    -58.916500   22.172600   23.300400
  C    -58.574400   22.297700   24.619400
  H    -60.489800   23.038600   21.934100
  C    -58.111200   21.241600   22.311300
  H    -58.083000   20.300500   22.839700
  H    -57.096600   21.565500   22.278400
  C    -58.565300   21.079300   20.903800
  H    -59.603100   20.856800   20.784000
  H    -57.853800   20.253900   20.634400
  C    -58.150300   22.301200   19.961400
  H    -58.549700   22.027600   18.995800
  H    -57.073000   22.351300   20.036000
  H    -58.577300   23.250400   20.334100
  H    -54.258500   21.031500   26.837900
  H    -61.506300   24.239100   23.972100

 Total Charge           Charge          ....    0
 Multiplicity           Mult            ....    1
 Number of Electrons    NEL             ....  134
 Basis Dimension        Dim             ....  322

ORBITAL ENERGIES
----------------

  NO   OCC          E(Eh)            E(eV)
   0   2.0000     -88.967179     -2420.9200
   1   2.0000     -88.959371     -2420.7076
   2   2.0000     -10.325740      -280.9777
   3   2.0000     -10.321999      -280.8759
   4   2.0000     -10.318221      -280.7731
   5   2.0000     -10.317824      -280.7623
   6   2.0000     -10.304095      -280.3887
   7   2.0000     -10.303630      -280.3760
   8   2.0000     -10.293419      -280.0982
   9   2.0000     -10.293309      -280.0952
  10   2.0000     -10.292176      -280.0643
  11   2.0000     -10.291855      -280.0556
  12   2.0000     -10.288346      -279.9601
  13   2.0000     -10.286023      -279.8969
  14   2.0000     -10.282884      -279.8115
  15   2.0000     -10.281393      -279.7709
  16   2.0000      -8.081492      -219.9086
  17   2.0000      -8.074205      -219.7103
  18   2.0000      -6.040151      -164.3609
  19   2.0000      -6.036010      -164.2482
  20   2.0000      -6.032664      -164.1571
  21   2.0000      -6.032144      -164.1430
  22   2.0000      -6.028794      -164.0518
  23   2.0000      -6.024932      -163.9467
  24   2.0000      -1.004770       -27.3412
  25   2.0000      -0.981779       -26.7156
  26   2.0000      -0.920853       -25.0577
  27   2.0000      -0.908605       -24.7244
  28   2.0000      -0.869937       -23.6722
  29   2.0000      -0.847266       -23.0553
  30   2.0000      -0.840138       -22.8613
  31   2.0000      -0.817666       -22.2498
  32   2.0000      -0.785057       -21.3625
  33   2.0000      -0.773697       -21.0534
  34   2.0000      -0.703282       -19.1373
  35   2.0000      -0.692853       -18.8535
  36   2.0000      -0.691020       -18.8036
  37   2.0000      -0.653535       -17.7836
  38   2.0000      -0.644976       -17.5507
  39   2.0000      -0.623748       -16.9731
  40   2.0000      -0.604488       -16.4489
  41   2.0000      -0.573890       -15.6164
  42   2.0000      -0.568092       -15.4586
  43   2.0000      -0.553497       -15.0614
  44   2.0000      -0.534611       -14.5475
  45   2.0000      -0.525485       -14.2992
  46   2.0000      -0.518067       -14.0973
  47   2.0000      -0.517117       -14.0715
  48   2.0000      -0.500396       -13.6165
  49   2.0000      -0.499772       -13.5995
  50   2.0000      -0.494022       -13.4430
  51   2.0000      -0.478970       -13.0334
  52   2.0000      -0.471695       -12.8355
  53   2.0000      -0.466412       -12.6917
  54   2.0000      -0.455672       -12.3995
  55   2.0000      -0.448117       -12.1939
  56   2.0000      -0.443974       -12.0811
  57   2.0000      -0.441137       -12.0040
  58   2.0000      -0.435997       -11.8641
  59   2.0000      -0.423956       -11.5364
  60   2.0000      -0.421391       -11.4666
  61   2.0000      -0.412583       -11.2269
  62   2.0000      -0.401634       -10.9290
  63   2.0000      -0.337026        -9.1709
  64   2.0000      -0.330400        -8.9906
  65   2.0000      -0.327554        -8.9132
  66   2.0000      -0.304786        -8.2937
  67   0.0000       0.039786         1.0826
  68   0.0000       0.061613         1.6766
  69   0.0000       0.113744         3.0951
  70   0.0000       0.122656         3.3376
  71   0.0000       0.127082         3.4581

MULLIKEN ATOMIC CHARGES
-----------------------
   0 S :    0.118059
   1 C :   -0.101800
   2 C :   -0.118852
   3 C :    0.038754
   4 C :   -0.123428
   5 H :    0.008088
   6 C :    0.124089
   7 H :    0.021353
   8 H :   -0.021102
   9 C :   -0.080740
  10 H :    0.030499
  11 H :    0.041045
  12 C :   -0.108134
  13 H :    0.043036
  14 H :    0.042246
  15 H :    0.045049
  16 S :    0.090272
  17 C :   -0.096143
  18 C :   -0.043872
  19 C :   -0.032560
  20 C :   -0.190898
  21 H :    0.021269
  22 C :    0.099098
  23 H :    0.021255
  24 H :    0.022777
  25 C :   -0.095282
  26 H :    0.031187
  27 H :    0.039553
  28 C :   -0.049042
  29 H :    0.042062
  30 H :    0.030879
  31 H :    0.039787
  32 H :    0.040981
  33 H :    0.070516
Sum of atomic charges:    0.0000000

LOEWDIN ATOMIC CHARGES
----------------------
   0 S :    0.407347
   1 C :   -0.192489
   2 C :   -0.055451
   3 C :   -0.056218
   4 C :   -0.202922
   5 H :    0.027042
   6 C :   -0.034297
   7 H :    0.027748
   8 H :    0.022019
   9 C :   -0.044664
  10 H :    0.022680
  11 H :    0.034052
  12 C :   -0.081994
  13 H :    0.028295
  14 H :    0.028937
  15 H :    0.036166
  16 S :    0.386962
  17 C :   -0.176064
  18 C :   -0.079240
  19 C :   -0.049023
  20 C :   -0.203158
  21 H :    0.032898
  22 C :   -0.031246
  23 H :    0.029018
  24 H :    0.030935
  25 C :   -0.042430
  26 H :    0.016792
  27 H :    0.039521
  28 C :   -0.058828
  29 H :    0.025350
  30 H :    0.023647
  31 H :    0.024768
  32 H :    0.029123
  33 H :    0.034726

  Mayer bond orders larger than 0.100000
B(  0-S ,  1-C ) :   1.1304 B(  0-S ,  4-C ) :   1.1466 B(  1-C ,  2-C ) :   1.6291
B(  1-C , 32-H ) :   0.9639 B(  2-C ,  3-C ) :   1.2204 B(  2-C ,  6-C ) :   1.0419
B(  3-C ,  4-C ) :   1.6014 B(  3-C ,  5-H ) :   1.0008 B(  4-C , 20-C ) :   0.9926
B(  6-C ,  7-H ) :   0.9342 B(  6-C ,  8-H ) :   0.9258 B(  6-C ,  9-C ) :   1.0559
B(  9-C , 10-H ) :   0.9545 B(  9-C , 11-H ) :   0.9512 B(  9-C , 12-C ) :   1.0890
B( 12-C , 13-H ) :   0.9714 B( 12-C , 14-H ) :   0.9717 B( 12-C , 15-H ) :   0.9723
B( 16-S , 17-C ) :   1.1563 B( 16-S , 20-C ) :   1.1373 B( 17-C , 18-C ) :   1.6143
B( 17-C , 33-H ) :   0.9598 B( 18-C , 19-C ) :   1.2307 B( 18-C , 21-H ) :   0.9906
B( 19-C , 20-C ) :   1.6440 B( 19-C , 22-C ) :   1.0024 B( 22-C , 23-H ) :   0.9322
B( 22-C , 24-H ) :   0.9288 B( 22-C , 25-C ) :   1.0823 B( 25-C , 26-H ) :   0.9564
B( 25-C , 27-H ) :   0.9522 B( 25-C , 28-C ) :   1.0669 B( 28-C , 29-H ) :   0.9774
B( 28-C , 30-H ) :   0.9748 B( 28-C , 31-H ) :   0.9803

Dispersion correction           -0.014151263
FINAL SINGLE POINT ENERGY     -1339.870024943274

DIPOLE MOMENT
-------------
                                X             Y             Z
Electronic contribution:     -9.67513      21.95866      17.17740
Nuclear contribution   :      9.80118     -22.67471     -17.64878
                        -----------------------------------------
Total Dipole Moment    :      0.12604      -0.71605      -0.47138
                        -----------------------------------------
Magnitude (a.u.)       :      0.86649
Magnitude (Debye)      :      2.20245

Rotational constants in cm-1:     0.017885     0.008402     0.006511
Rotational constants in MHz :   536.165913   251.884473   195.193818

                             ****ORCA TERMINATED NORMALLY****
TOTAL RUN TIME: 0 days 0 hours 0 minutes 21 seconds 422 msec
