                         Program Version 4.2.1 -  RELEASE  -
|  1> ! wB97X-D3 SP def2-SVP
|  2> %pal
|  3> nprocs 24
|  4> end
|  5>
|  6> * xyz 0 1
|  7> S 	 -64.7093 	 18.8134 	 -71.7883
|  8> C 	 -63.5878 	 17.5726 	 -72.376
|  9> C 	 -63.9032 	 16.3329 	 -71.8104
| 10> C 	 -64.9438 	 16.4366 	 -70.8298
| 11> C 	 -65.4854 	 17.6629 	 -70.7162
| 12> H 	 -65.4789 	 15.6216 	 -70.304
| 13> C 	 -63.1607 	 15.0285 	 -72.0596
| 14> H 	 -63.9259 	 14.2917 	 -71.7231
| 15> H 	 -62.3944 	 14.9172 	 -71.3233
| 16> C 	 -62.6048 	 14.7559 	 -73.5436
| 17> H 	 -63.422 	 14.8869 	 -74.3221
| 18> H 	 -61.9562 	 15.6018 	 -73.7518
| 19> C 	 -61.9228 	 13.3929 	 -73.6393
| 20> H 	 -61.2169 	 13.559 	 -74.391
| 21> H 	 -61.536 	 13.0363 	 -72.6869
| 22> H 	 -62.6159 	 12.5996 	 -73.8847
| 23> S 	 -66.2006 	 18.2912 	 -68.0853
| 24> C 	 -67.9248 	 18.4018 	 -67.6613
| 25> C 	 -68.6926 	 18.3853 	 -68.7814
| 26> C 	 -67.9153 	 18.3452 	 -70.0067
| 27> C 	 -66.554 	 18.1187 	 -69.7791
| 28> H 	 -69.7297 	 18.4837 	 -68.7034
| 29> C 	 -68.6008 	 18.3397 	 -71.383
| 30> H 	 -68.1262 	 17.5967 	 -72.0461
| 31> H 	 -68.4103 	 19.3583 	 -71.77
| 32> C 	 -70.0657 	 18.0545 	 -71.3993
| 33> H 	 -70.4696 	 18.2287 	 -72.4367
| 34> H 	 -70.6061 	 18.6677 	 -70.6466
| 35> C 	 -70.351 	 16.5979 	 -71.2119
| 36> H 	 -69.8352 	 15.9977 	 -71.9064
| 37> H 	 -71.3399 	 16.3138 	 -71.3618
| 38> H 	 -69.9803 	 16.3628 	 -70.2206
| 39> H 	 -62.726 	 17.656 	 -72.9781
| 40> H 	 -68.3568 	 18.3485 	 -66.6194
| 41> *
| 42>
| 43>                          ****END OF INPUT****

CARTESIAN COORDINATES (ANGSTROEM)
---------------------------------
  S    -64.709300   18.813400  -71.788300
  C    -63.587800   17.572600  -72.376000
  C    -63.903200   16.332900  -71.810400
  C    -64.943800   16.436600  -70.829800
  C    -65.485400   17.662900  -70.716200
  H    -65.478900   15.621600  -70.304000
  C    -63.160700   15.028500  -72.059600
  H    -63.925900   14.291700  -71.723100
  H    -62.394400   14.917200  -71.323300
  C    -62.604800   14.755900  -73.543600
  H    -63.422000   14.886900  -74.322100
  H    -61.956200   15.601800  -73.751800
  C    -61.922800   13.392900  -73.639300
  H    -61.216900   13.559000  -74.391000
  H    -61.536000   13.036300  -72.686900
  H    -62.615900   12.599600  -73.884700
  S    -66.200600   18.291200  -68.085300
  C    -67.924800   18.401800  -67.661300
  C    -68.692600   18.385300  -68.781400
  C    -67.915300   18.345200  -70.006700
  C    -66.554000   18.118700  -69.779100
  H    -69.729700   18.483700  -68.703400
  C    -68.600800   18.339700  -71.383000
  H    -68.126200   17.596700  -72.046100
  H    -68.410300   19.358300  -71.770000
  C    -70.065700   18.054500  -71.399300
  H    -70.469600   18.228700  -72.436700
  H    -70.606100   18.667700  -70.646600
  C    -70.351000   16.597900  -71.211900
  H    -69.835200   15.997700  -71.906400
  H    -71.339900   16.313800  -71.361800
  H    -69.980300   16.362800  -70.220600
  H    -62.726000   17.656000  -72.978100
  H    -68.356800   18.348500  -66.619400

 Total Charge           Charge          ....    0
 Multiplicity           Mult            ....    1
 Number of Electrons    NEL             ....  134
 Basis Dimension        Dim             ....  322

ORBITAL ENERGIES
----------------

  NO   OCC          E(Eh)            E(eV)
   0   2.0000     -88.964750     -2420.8539
   1   2.0000     -88.964273     -2420.8410
   2   2.0000     -10.328253      -281.0460
   3   2.0000     -10.327506      -281.0257
   4   2.0000     -10.322019      -280.8764
   5   2.0000     -10.312559      -280.6190
   6   2.0000     -10.307183      -280.4727
   7   2.0000     -10.302241      -280.3382
   8   2.0000     -10.298420      -280.2343
   9   2.0000     -10.295474      -280.1541
  10   2.0000     -10.292879      -280.0835
  11   2.0000     -10.291150      -280.0364
  12   2.0000     -10.290152      -280.0093
  13   2.0000     -10.285345      -279.8785
  14   2.0000     -10.276086      -279.6265
  15   2.0000     -10.261620      -279.2329
  16   2.0000      -8.078880      -219.8375
  17   2.0000      -8.078718      -219.8331
  18   2.0000      -6.037449      -164.2873
  19   2.0000      -6.037349      -164.2846
  20   2.0000      -6.033443      -164.1783
  21   2.0000      -6.033220      -164.1723
  22   2.0000      -6.029637      -164.0748
  23   2.0000      -6.029391      -164.0681
  24   2.0000      -1.003019       -27.2935
  25   2.0000      -0.981897       -26.7188
  26   2.0000      -0.917426       -24.9644
  27   2.0000      -0.903942       -24.5975
  28   2.0000      -0.867782       -23.6135
  29   2.0000      -0.850261       -23.1368
  30   2.0000      -0.844531       -22.9808
  31   2.0000      -0.820851       -22.3365
  32   2.0000      -0.782818       -21.3016
  33   2.0000      -0.770019       -20.9533
  34   2.0000      -0.713194       -19.4070
  35   2.0000      -0.697986       -18.9932
  36   2.0000      -0.689300       -18.7568
  37   2.0000      -0.654316       -17.8048
  38   2.0000      -0.639537       -17.4027
  39   2.0000      -0.611156       -16.6304
  40   2.0000      -0.599956       -16.3256
  41   2.0000      -0.569258       -15.4903
  42   2.0000      -0.563347       -15.3294
  43   2.0000      -0.558057       -15.1855
  44   2.0000      -0.542224       -14.7547
  45   2.0000      -0.530619       -14.4389
  46   2.0000      -0.518918       -14.1205
  47   2.0000      -0.513455       -13.9718
  48   2.0000      -0.505179       -13.7466
  49   2.0000      -0.499707       -13.5977
  50   2.0000      -0.490754       -13.3541
  51   2.0000      -0.479230       -13.0405
  52   2.0000      -0.475664       -12.9435
  53   2.0000      -0.460427       -12.5288
  54   2.0000      -0.458403       -12.4738
  55   2.0000      -0.451482       -12.2854
  56   2.0000      -0.448871       -12.2144
  57   2.0000      -0.432293       -11.7633
  58   2.0000      -0.430152       -11.7050
  59   2.0000      -0.426671       -11.6103
  60   2.0000      -0.419049       -11.4029
  61   2.0000      -0.414553       -11.2806
  62   2.0000      -0.402928       -10.9642
  63   2.0000      -0.336463        -9.1556
  64   2.0000      -0.334635        -9.1059
  65   2.0000      -0.321220        -8.7408
  66   2.0000      -0.304817        -8.2945
  67   0.0000       0.040960         1.1146
  68   0.0000       0.059607         1.6220
  69   0.0000       0.116882         3.1805
  70   0.0000       0.122148         3.3238
  71   0.0000       0.128317         3.4917

MULLIKEN ATOMIC CHARGES
-----------------------
   0 S :    0.110608
   1 C :   -0.103445
   2 C :   -0.106533
   3 C :    0.033396
   4 C :   -0.174883
   5 H :    0.029567
   6 C :    0.045767
   7 H :    0.023366
   8 H :    0.039102
   9 C :   -0.117163
  10 H :    0.044586
  11 H :    0.028245
  12 C :    0.004740
  13 H :    0.030623
  14 H :    0.026962
  15 H :    0.033471
  16 S :    0.112590
  17 C :   -0.107958
  18 C :   -0.019112
  19 C :   -0.045231
  20 C :   -0.173164
  21 H :    0.000962
  22 C :    0.083848
  23 H :    0.037143
  24 H :    0.045812
  25 C :   -0.110588
  26 H :    0.032095
  27 H :    0.035424
  28 C :    0.009311
  29 H :    0.006274
  30 H :    0.018039
  31 H :    0.019180
  32 H :    0.029304
  33 H :    0.077661
Sum of atomic charges:   -0.0000000

LOEWDIN ATOMIC CHARGES
----------------------
   0 S :    0.394898
   1 C :   -0.191374
   2 C :   -0.062085
   3 C :   -0.068988
   4 C :   -0.191307
   5 H :    0.041865
   6 C :   -0.036385
   7 H :    0.032414
   8 H :    0.029133
   9 C :   -0.038946
  10 H :    0.033318
  11 H :    0.017673
  12 C :   -0.058710
  13 H :    0.023747
  14 H :    0.027049
  15 H :    0.029062
  16 S :    0.400562
  17 C :   -0.182828
  18 C :   -0.074619
  19 C :   -0.049575
  20 C :   -0.213165
  21 H :    0.022324
  22 C :   -0.035176
  23 H :    0.035457
  24 H :    0.039966
  25 C :   -0.049209
  26 H :    0.032694
  27 H :    0.023337
  28 C :   -0.055726
  29 H :    0.019106
  30 H :    0.017160
  31 H :    0.022900
  32 H :    0.019961
  33 H :    0.045468

  Mayer bond orders larger than 0.100000
B(  0-S ,  1-C ) :   1.1282 B(  0-S ,  4-C ) :   1.1405 B(  1-C ,  2-C ) :   1.6264
B(  1-C , 32-H ) :   0.9748 B(  2-C ,  3-C ) :   1.2224 B(  2-C ,  6-C ) :   1.0103
B(  3-C ,  4-C ) :   1.6437 B(  3-C ,  5-H ) :   0.9823 B(  4-C , 20-C ) :   0.9855
B(  6-C ,  7-H ) :   0.9453 B(  6-C ,  8-H ) :   0.9355 B(  6-C ,  9-C ) :   1.0520
B(  9-C , 10-H ) :   0.9601 B(  9-C , 11-H ) :   0.9607 B(  9-C , 12-C ) :   1.0684
B( 12-C , 13-H ) :   0.9746 B( 12-C , 14-H ) :   0.9758 B( 12-C , 15-H ) :   0.9747
B( 16-S , 17-C ) :   1.1465 B( 16-S , 20-C ) :   1.1466 B( 17-C , 18-C ) :   1.6318
B( 17-C , 33-H ) :   0.9545 B( 18-C , 19-C ) :   1.2328 B( 18-C , 21-H ) :   0.9905
B( 19-C , 20-C ) :   1.6050 B( 19-C , 22-C ) :   1.0198 B( 22-C , 23-H ) :   0.9359
B( 22-C , 24-H ) :   0.9235 B( 22-C , 25-C ) :   1.0972 B( 25-C , 26-H ) :   0.9486
B( 25-C , 27-H ) :   0.9441 B( 25-C , 28-C ) :   1.0863 B( 28-C , 29-H ) :   0.9659
B( 28-C , 30-H ) :   0.9721 B( 28-C , 31-H ) :   0.9723

Dispersion correction           -0.013915744
FINAL SINGLE POINT ENERGY     -1339.866131477094

DIPOLE MOMENT
-------------
                                X             Y             Z
Electronic contribution:      4.37905      18.34629      14.81857
Nuclear contribution   :     -4.58946     -18.91210     -15.05816
                        -----------------------------------------
Total Dipole Moment    :     -0.21041      -0.56581      -0.23959
                        -----------------------------------------
Magnitude (a.u.)       :      0.64947
Magnitude (Debye)      :      1.65083

Rotational constants in cm-1:     0.021401     0.006901     0.006224
Rotational constants in MHz :   641.573145   206.885149   186.584438

                             ****ORCA TERMINATED NORMALLY****
TOTAL RUN TIME: 0 days 0 hours 0 minutes 21 seconds 141 msec
