                         Program Version 4.2.1 -  RELEASE  -
|  1> ! wB97X-D3 SP def2-SVP
|  2> %pal
|  3> nprocs 24
|  4> end
|  5>
|  6> * xyz 0 1
|  7> S 	 -106.496 	 55.345 	 -84.052
|  8> C 	 -108.145 	 54.7303 	 -83.9612
|  9> C 	 -108.844 	 55.1784 	 -85.0812
| 10> C 	 -108.062 	 56.042 	 -85.9466
| 11> C 	 -106.807 	 56.3101 	 -85.5058
| 12> H 	 -108.353 	 56.3861 	 -86.8896
| 13> C 	 -110.282 	 54.9028 	 -85.3868
| 14> H 	 -110.688 	 54.281 	 -84.609
| 15> H 	 -110.226 	 54.2887 	 -86.268
| 16> C 	 -111.099 	 56.1695 	 -85.4385
| 17> H 	 -110.752 	 56.8293 	 -86.2136
| 18> H 	 -112.072 	 55.755 	 -85.6393
| 19> C 	 -111.088 	 56.7939 	 -84.1003
| 20> H 	 -111.678 	 56.1964 	 -83.3612
| 21> H 	 -110.055 	 57.1377 	 -83.7558
| 22> H 	 -111.545 	 57.7196 	 -84.1135
| 23> S 	 -104.114 	 56.7335 	 -86.009
| 24> C 	 -103.711 	 57.8126 	 -87.2658
| 25> C 	 -104.78 	 58.642 	 -87.6648
| 26> C 	 -105.972 	 58.3067 	 -86.9462
| 27> C 	 -105.826 	 57.1554 	 -86.2042
| 28> H 	 -104.449 	 59.3643 	 -88.3615
| 29> C 	 -107.255 	 59.1366 	 -87.1641
| 30> H 	 -108.051 	 58.5128 	 -87.564
| 31> H 	 -107.009 	 59.9702 	 -87.8809
| 32> C 	 -107.798 	 59.8749 	 -85.9011
| 33> H 	 -106.902 	 60.3633 	 -85.5912
| 34> H 	 -108.033 	 59.1072 	 -85.1158
| 35> C 	 -108.901 	 60.8908 	 -86.1887
| 36> H 	 -108.62 	 61.7545 	 -86.7936
| 37> H 	 -109.092 	 61.2485 	 -85.1715
| 38> H 	 -109.745 	 60.3565 	 -86.4881
| 39> H 	 -108.486 	 53.9348 	 -83.3244
| 40> H 	 -102.651 	 57.959 	 -87.6333
| 41> *
| 42>
| 43>                          ****END OF INPUT****

CARTESIAN COORDINATES (ANGSTROEM)
---------------------------------
  S    -106.496000   55.345000  -84.052000
  C    -108.145000   54.730300  -83.961200
  C    -108.844000   55.178400  -85.081200
  C    -108.062000   56.042000  -85.946600
  C    -106.807000   56.310100  -85.505800
  H    -108.353000   56.386100  -86.889600
  C    -110.282000   54.902800  -85.386800
  H    -110.688000   54.281000  -84.609000
  H    -110.226000   54.288700  -86.268000
  C    -111.099000   56.169500  -85.438500
  H    -110.752000   56.829300  -86.213600
  H    -112.072000   55.755000  -85.639300
  C    -111.088000   56.793900  -84.100300
  H    -111.678000   56.196400  -83.361200
  H    -110.055000   57.137700  -83.755800
  H    -111.545000   57.719600  -84.113500
  S    -104.114000   56.733500  -86.009000
  C    -103.711000   57.812600  -87.265800
  C    -104.780000   58.642000  -87.664800
  C    -105.972000   58.306700  -86.946200
  C    -105.826000   57.155400  -86.204200
  H    -104.449000   59.364300  -88.361500
  C    -107.255000   59.136600  -87.164100
  H    -108.051000   58.512800  -87.564000
  H    -107.009000   59.970200  -87.880900
  C    -107.798000   59.874900  -85.901100
  H    -106.902000   60.363300  -85.591200
  H    -108.033000   59.107200  -85.115800
  C    -108.901000   60.890800  -86.188700
  H    -108.620000   61.754500  -86.793600
  H    -109.092000   61.248500  -85.171500
  H    -109.745000   60.356500  -86.488100
  H    -108.486000   53.934800  -83.324400
  H    -102.651000   57.959000  -87.633300

 Total Charge           Charge          ....    0
 Multiplicity           Mult            ....    1
 Number of Electrons    NEL             ....  134
 Basis Dimension        Dim             ....  322

ORBITAL ENERGIES
----------------

  NO   OCC          E(Eh)            E(eV)
   0   2.0000     -88.967301     -2420.9233
   1   2.0000     -88.961686     -2420.7706
   2   2.0000     -10.331036      -281.1218
   3   2.0000     -10.330334      -281.1027
   4   2.0000     -10.320869      -280.8451
   5   2.0000     -10.312484      -280.6169
   6   2.0000     -10.310870      -280.5730
   7   2.0000     -10.298761      -280.2435
   8   2.0000     -10.295782      -280.1625
   9   2.0000     -10.295503      -280.1549
  10   2.0000     -10.286072      -279.8983
  11   2.0000     -10.283613      -279.8313
  12   2.0000     -10.282232      -279.7938
  13   2.0000     -10.280531      -279.7475
  14   2.0000     -10.276092      -279.6267
  15   2.0000     -10.272697      -279.5343
  16   2.0000      -8.082679      -219.9409
  17   2.0000      -8.075881      -219.7559
  18   2.0000      -6.041040      -164.3851
  19   2.0000      -6.037223      -164.2812
  20   2.0000      -6.034613      -164.2102
  21   2.0000      -6.033441      -164.1783
  22   2.0000      -6.030509      -164.0985
  23   2.0000      -6.026400      -163.9867
  24   2.0000      -1.006273       -27.3821
  25   2.0000      -0.983401       -26.7597
  26   2.0000      -0.925013       -25.1709
  27   2.0000      -0.906870       -24.6772
  28   2.0000      -0.868869       -23.6431
  29   2.0000      -0.856488       -23.3062
  30   2.0000      -0.842456       -22.9244
  31   2.0000      -0.815638       -22.1946
  32   2.0000      -0.784863       -21.3572
  33   2.0000      -0.774065       -21.0634
  34   2.0000      -0.708679       -19.2841
  35   2.0000      -0.696700       -18.9582
  36   2.0000      -0.686613       -18.6837
  37   2.0000      -0.660899       -17.9840
  38   2.0000      -0.638055       -17.3624
  39   2.0000      -0.628594       -17.1049
  40   2.0000      -0.592652       -16.1269
  41   2.0000      -0.574253       -15.6262
  42   2.0000      -0.569635       -15.5006
  43   2.0000      -0.564946       -15.3730
  44   2.0000      -0.543525       -14.7901
  45   2.0000      -0.521638       -14.1945
  46   2.0000      -0.517587       -14.0843
  47   2.0000      -0.512402       -13.9432
  48   2.0000      -0.504077       -13.7166
  49   2.0000      -0.497941       -13.5497
  50   2.0000      -0.489769       -13.3273
  51   2.0000      -0.486812       -13.2468
  52   2.0000      -0.470316       -12.7980
  53   2.0000      -0.465987       -12.6801
  54   2.0000      -0.459814       -12.5122
  55   2.0000      -0.451201       -12.2778
  56   2.0000      -0.444140       -12.0857
  57   2.0000      -0.437080       -11.8935
  58   2.0000      -0.430420       -11.7123
  59   2.0000      -0.422876       -11.5070
  60   2.0000      -0.419882       -11.4256
  61   2.0000      -0.415305       -11.3010
  62   2.0000      -0.402525       -10.9533
  63   2.0000      -0.355957        -9.6861
  64   2.0000      -0.333886        -9.0855
  65   2.0000      -0.322702        -8.7812
  66   2.0000      -0.285164        -7.7597
  67   0.0000       0.021980         0.5981
  68   0.0000       0.077839         2.1181
  69   0.0000       0.102697         2.7945
  70   0.0000       0.116288         3.1644
  71   0.0000       0.125555         3.4165

MULLIKEN ATOMIC CHARGES
-----------------------
   0 S :    0.081738
   1 C :   -0.106051
   2 C :   -0.134530
   3 C :   -0.000889
   4 C :   -0.087752
   5 H :   -0.012042
   6 C :    0.095694
   7 H :   -0.001899
   8 H :    0.033287
   9 C :   -0.036682
  10 H :    0.028466
  11 H :    0.024737
  12 C :   -0.048690
  13 H :    0.035628
  14 H :    0.055759
  15 H :    0.004593
  16 S :    0.117155
  17 C :   -0.126209
  18 C :   -0.036587
  19 C :   -0.018667
  20 C :   -0.148110
  21 H :    0.009804
  22 C :    0.042711
  23 H :    0.026637
  24 H :    0.023386
  25 C :   -0.120520
  26 H :    0.019558
  27 H :    0.050459
  28 C :    0.005828
  29 H :    0.042293
  30 H :    0.031741
  31 H :    0.020771
  32 H :    0.050835
  33 H :    0.077550
Sum of atomic charges:   -0.0000000

LOEWDIN ATOMIC CHARGES
----------------------
   0 S :    0.374813
   1 C :   -0.200501
   2 C :   -0.054925
   3 C :   -0.068022
   4 C :   -0.176315
   5 H :    0.019406
   6 C :   -0.031964
   7 H :    0.024553
   8 H :    0.030894
   9 C :   -0.035731
  10 H :    0.020923
  11 H :    0.027441
  12 C :   -0.067362
  13 H :    0.032558
  14 H :    0.039295
  15 H :    0.013909
  16 S :    0.415210
  17 C :   -0.202118
  18 C :   -0.074483
  19 C :   -0.051461
  20 C :   -0.186958
  21 H :    0.029931
  22 C :   -0.033755
  23 H :    0.020895
  24 H :    0.033447
  25 C :   -0.042809
  26 H :    0.018722
  27 H :    0.030356
  28 C :   -0.057576
  29 H :    0.029642
  30 H :    0.034890
  31 H :    0.017238
  32 H :    0.030066
  33 H :    0.039791

  Mayer bond orders larger than 0.100000
B(  0-S ,  1-C ) :   1.1142 B(  0-S ,  4-C ) :   1.1291 B(  1-C ,  2-C ) :   1.6237
B(  1-C , 32-H ) :   0.9685 B(  2-C ,  3-C ) :   1.2114 B(  2-C ,  6-C ) :   1.0276
B(  3-C ,  4-C ) :   1.5896 B(  3-C ,  5-H ) :   1.0058 B(  4-C , 20-C ) :   1.0712
B(  6-C ,  7-H ) :   0.9358 B(  6-C ,  8-H ) :   0.9321 B(  6-C ,  9-C ) :   1.0694
B(  9-C , 10-H ) :   0.9529 B(  9-C , 11-H ) :   0.9509 B(  9-C , 12-C ) :   1.0955
B( 12-C , 13-H ) :   0.9696 B( 12-C , 14-H ) :   0.9639 B( 12-C , 15-H ) :   0.9644
B( 16-S , 17-C ) :   1.1806 B( 16-S , 20-C ) :   1.1300 B( 17-C , 18-C ) :   1.6041
B( 17-C , 33-H ) :   0.9574 B( 18-C , 19-C ) :   1.2152 B( 18-C , 21-H ) :   1.0046
B( 19-C , 20-C ) :   1.5849 B( 19-C , 22-C ) :   1.0379 B( 22-C , 23-H ) :   0.9363
B( 22-C , 24-H ) :   0.9409 B( 22-C , 25-C ) :   1.0520 B( 25-C , 26-H ) :   0.9545
B( 25-C , 27-H ) :   0.9550 B( 25-C , 28-C ) :   1.0842 B( 28-C , 29-H ) :   0.9720
B( 28-C , 30-H ) :   0.9709 B( 28-C , 31-H ) :   0.9735

Dispersion correction           -0.015410125
FINAL SINGLE POINT ENERGY     -1339.860678709988

DIPOLE MOMENT
-------------
                                X             Y             Z
Electronic contribution:     26.56209     -13.86533       2.08182
Nuclear contribution   :    -27.07827      14.21051      -2.43083
                        -----------------------------------------
Total Dipole Moment    :     -0.51618       0.34518      -0.34901
                        -----------------------------------------
Magnitude (a.u.)       :      0.71232
Magnitude (Debye)      :      1.81057

Rotational constants in cm-1:     0.017837     0.010573     0.007358
Rotational constants in MHz :   534.747661   316.956742   220.593048

                             ****ORCA TERMINATED NORMALLY****
TOTAL RUN TIME: 0 days 0 hours 0 minutes 21 seconds 825 msec
