                         Program Version 4.2.1 -  RELEASE  -
|  1> ! wB97X-D3 SP def2-SVP
|  2> %pal
|  3> nprocs 24
|  4> end
|  5>
|  6> * xyz 0 1
|  7> S 	 -128.443 	 0.695535 	 3.43373
|  8> C 	 -127.031 	 -0.276223 	 3.43008
|  9> C 	 -126.048 	 0.172425 	 4.3209
| 10> C 	 -126.607 	 1.2308 	 5.19714
| 11> C 	 -127.781 	 1.73655 	 4.6662
| 12> H 	 -126.076 	 1.73962 	 5.91371
| 13> C 	 -124.767 	 -0.475118 	 4.53529
| 14> H 	 -124.768 	 -1.44618 	 3.9781
| 15> H 	 -124.801 	 -0.769501 	 5.56374
| 16> C 	 -123.561 	 0.378667 	 4.19065
| 17> H 	 -123.656 	 0.821909 	 3.2229
| 18> H 	 -123.409 	 1.16909 	 4.86763
| 19> C 	 -122.277 	 -0.428435 	 4.04423
| 20> H 	 -121.463 	 0.281471 	 3.80841
| 21> H 	 -122.148 	 -1.02025 	 4.98711
| 22> H 	 -122.406 	 -1.1321 	 3.1664
| 23> S 	 -128.43 	 4.30003 	 3.8266
| 24> C 	 -129.531 	 5.27827 	 4.80481
| 25> C 	 -129.784 	 4.73559 	 6.00705
| 26> C 	 -129.244 	 3.40217 	 6.17996
| 27> C 	 -128.513 	 2.95145 	 5.00058
| 28> H 	 -130.35 	 5.27725 	 6.75763
| 29> C 	 -129.432 	 2.63349 	 7.4411
| 30> H 	 -129.241 	 3.323 	 8.27515
| 31> H 	 -128.479 	 2.04486 	 7.42485
| 32> C 	 -130.73 	 1.75117 	 7.68669
| 33> H 	 -130.773 	 1.30497 	 8.62563
| 34> H 	 -130.786 	 0.927063 	 6.91267
| 35> C 	 -131.986 	 2.66244 	 7.53896
| 36> H 	 -132.82 	 2.08234 	 7.82708
| 37> H 	 -132.202 	 2.96728 	 6.54371
| 38> H 	 -131.846 	 3.65747 	 8.03421
| 39> H 	 -126.819 	 -1.09906 	 2.72118
| 40> H 	 -129.786 	 6.35723 	 4.59677
| 41> *
| 42>
| 43>                          ****END OF INPUT****

CARTESIAN COORDINATES (ANGSTROEM)
---------------------------------
  S    -128.443000    0.695535    3.433730
  C    -127.031000   -0.276223    3.430080
  C    -126.048000    0.172425    4.320900
  C    -126.607000    1.230800    5.197140
  C    -127.781000    1.736550    4.666200
  H    -126.076000    1.739620    5.913710
  C    -124.767000   -0.475118    4.535290
  H    -124.768000   -1.446180    3.978100
  H    -124.801000   -0.769501    5.563740
  C    -123.561000    0.378667    4.190650
  H    -123.656000    0.821909    3.222900
  H    -123.409000    1.169090    4.867630
  C    -122.277000   -0.428435    4.044230
  H    -121.463000    0.281471    3.808410
  H    -122.148000   -1.020250    4.987110
  H    -122.406000   -1.132100    3.166400
  S    -128.430000    4.300030    3.826600
  C    -129.531000    5.278270    4.804810
  C    -129.784000    4.735590    6.007050
  C    -129.244000    3.402170    6.179960
  C    -128.513000    2.951450    5.000580
  H    -130.350000    5.277250    6.757630
  C    -129.432000    2.633490    7.441100
  H    -129.241000    3.323000    8.275150
  H    -128.479000    2.044860    7.424850
  C    -130.730000    1.751170    7.686690
  H    -130.773000    1.304970    8.625630
  H    -130.786000    0.927063    6.912670
  C    -131.986000    2.662440    7.538960
  H    -132.820000    2.082340    7.827080
  H    -132.202000    2.967280    6.543710
  H    -131.846000    3.657470    8.034210
  H    -126.819000   -1.099060    2.721180
  H    -129.786000    6.357230    4.596770

 Total Charge           Charge          ....    0
 Multiplicity           Mult            ....    1
 Number of Electrons    NEL             ....  134
 Basis Dimension        Dim             ....  322

ORBITAL ENERGIES
----------------

  NO   OCC          E(Eh)            E(eV)
   0   2.0000     -88.964635     -2420.8508
   1   2.0000     -88.964185     -2420.8386
   2   2.0000     -10.334184      -281.2075
   3   2.0000     -10.329760      -281.0871
   4   2.0000     -10.318259      -280.7741
   5   2.0000     -10.312267      -280.6111
   6   2.0000     -10.311517      -280.5906
   7   2.0000     -10.301380      -280.3148
   8   2.0000     -10.294588      -280.1300
   9   2.0000     -10.293333      -280.0958
  10   2.0000     -10.291511      -280.0462
  11   2.0000     -10.291264      -280.0395
  12   2.0000     -10.287551      -279.9385
  13   2.0000     -10.285705      -279.8883
  14   2.0000     -10.277395      -279.6621
  15   2.0000     -10.271643      -279.5056
  16   2.0000      -8.079738      -219.8609
  17   2.0000      -8.078454      -219.8259
  18   2.0000      -6.038197      -164.3077
  19   2.0000      -6.037072      -164.2771
  20   2.0000      -6.034090      -164.1959
  21   2.0000      -6.033064      -164.1680
  22   2.0000      -6.030537      -164.0992
  23   2.0000      -6.029171      -164.0621
  24   2.0000      -1.001746       -27.2589
  25   2.0000      -0.977811       -26.6076
  26   2.0000      -0.920699       -25.0535
  27   2.0000      -0.899711       -24.4824
  28   2.0000      -0.869947       -23.6724
  29   2.0000      -0.851944       -23.1826
  30   2.0000      -0.843502       -22.9529
  31   2.0000      -0.818375       -22.2691
  32   2.0000      -0.780216       -21.2308
  33   2.0000      -0.761503       -20.7215
  34   2.0000      -0.712539       -19.3892
  35   2.0000      -0.698685       -19.0122
  36   2.0000      -0.686567       -18.6824
  37   2.0000      -0.653794       -17.7906
  38   2.0000      -0.643764       -17.5177
  39   2.0000      -0.619628       -16.8609
  40   2.0000      -0.582336       -15.8462
  41   2.0000      -0.576139       -15.6775
  42   2.0000      -0.562383       -15.3032
  43   2.0000      -0.550902       -14.9908
  44   2.0000      -0.544906       -14.8277
  45   2.0000      -0.533668       -14.5219
  46   2.0000      -0.516892       -14.0653
  47   2.0000      -0.511159       -13.9093
  48   2.0000      -0.503299       -13.6955
  49   2.0000      -0.493534       -13.4298
  50   2.0000      -0.483085       -13.1454
  51   2.0000      -0.477024       -12.9805
  52   2.0000      -0.469228       -12.7683
  53   2.0000      -0.460470       -12.5300
  54   2.0000      -0.456102       -12.4112
  55   2.0000      -0.445889       -12.1333
  56   2.0000      -0.441574       -12.0158
  57   2.0000      -0.438021       -11.9192
  58   2.0000      -0.433248       -11.7893
  59   2.0000      -0.429933       -11.6991
  60   2.0000      -0.419866       -11.4251
  61   2.0000      -0.414508       -11.2793
  62   2.0000      -0.410983       -11.1834
  63   2.0000      -0.340946        -9.2776
  64   2.0000      -0.326972        -8.8974
  65   2.0000      -0.320140        -8.7114
  66   2.0000      -0.297577        -8.0975
  67   0.0000       0.035673         0.9707
  68   0.0000       0.058007         1.5784
  69   0.0000       0.109531         2.9805
  70   0.0000       0.111301         3.0287
  71   0.0000       0.134010         3.6466

MULLIKEN ATOMIC CHARGES
-----------------------
   0 S :    0.127762
   1 C :   -0.117625
   2 C :   -0.133367
   3 C :    0.103627
   4 C :   -0.187496
   5 H :   -0.013451
   6 C :    0.068700
   7 H :    0.014341
   8 H :    0.027785
   9 C :   -0.048195
  10 H :    0.021818
  11 H :    0.020199
  12 C :   -0.077183
  13 H :    0.045135
  14 H :    0.038124
  15 H :    0.038615
  16 S :    0.103202
  17 C :   -0.101410
  18 C :   -0.034576
  19 C :   -0.035417
  20 C :   -0.169644
  21 H :    0.020440
  22 C :    0.025140
  23 H :    0.030177
  24 H :    0.023441
  25 C :   -0.019088
  26 H :    0.025541
  27 H :    0.043213
  28 C :   -0.059052
  29 H :    0.027626
  30 H :    0.029880
  31 H :    0.029687
  32 H :    0.057609
  33 H :    0.074442
Sum of atomic charges:    0.0000000

LOEWDIN ATOMIC CHARGES
----------------------
   0 S :    0.425067
   1 C :   -0.218689
   2 C :   -0.057271
   3 C :   -0.044627
   4 C :   -0.200374
   5 H :    0.015849
   6 C :   -0.039128
   7 H :    0.034563
   8 H :    0.034072
   9 C :   -0.039049
  10 H :    0.024303
  11 H :    0.017030
  12 C :   -0.066678
  13 H :    0.029741
  14 H :    0.026409
  15 H :    0.028349
  16 S :    0.385878
  17 C :   -0.188359
  18 C :   -0.078003
  19 C :   -0.047311
  20 C :   -0.199611
  21 H :    0.032602
  22 C :   -0.048324
  23 H :    0.032776
  24 H :    0.036158
  25 C :   -0.024345
  26 H :    0.016077
  27 H :    0.034277
  28 C :   -0.066958
  29 H :    0.021156
  30 H :    0.021531
  31 H :    0.026655
  32 H :    0.033188
  33 H :    0.043048

  Mayer bond orders larger than 0.100000
B(  0-S ,  1-C ) :   1.1372 B(  0-S ,  4-C ) :   1.1595 B(  1-C ,  2-C ) :   1.6261
B(  1-C , 32-H ) :   0.9589 B(  2-C ,  3-C ) :   1.2053 B(  2-C ,  6-C ) :   1.0535
B(  3-C ,  4-C ) :   1.5986 B(  3-C ,  5-H ) :   0.9954 B(  4-C , 20-C ) :   1.0279
B(  6-C ,  7-H ) :   0.9421 B(  6-C ,  8-H ) :   0.9228 B(  6-C ,  9-C ) :   1.0546
B(  9-C , 10-H ) :   0.9571 B(  9-C , 11-H ) :   0.9525 B(  9-C , 12-C ) :   1.0876
B( 12-C , 13-H ) :   0.9745 B( 12-C , 14-H ) :   0.9732 B( 12-C , 15-H ) :   0.9774
B( 16-S , 17-C ) :   1.1410 B( 16-S , 20-C ) :   1.1440 B( 17-C , 18-C ) :   1.6395
B( 17-C , 33-H ) :   0.9534 B( 18-C , 19-C ) :   1.2311 B( 18-C , 21-H ) :   0.9849
B( 19-C , 20-C ) :   1.5680 B( 19-C , 22-C ) :   1.0422 B( 22-C , 23-H ) :   0.9386
B( 22-C , 24-H ) :   0.9302 B( 22-C , 25-C ) :   1.0587 B( 25-C , 26-H ) :   0.9601
B( 25-C , 27-H ) :   0.9558 B( 25-C , 28-C ) :   1.0738 B( 28-C , 29-H ) :   0.9735
B( 28-C , 30-H ) :   0.9722 B( 28-C , 31-H ) :   0.9747

Dispersion correction           -0.014135321
FINAL SINGLE POINT ENERGY     -1339.861526708639

DIPOLE MOMENT
-------------
                                X             Y             Z
Electronic contribution:     -8.43247       8.59274     -12.98266
Nuclear contribution   :      8.70000      -8.64119      13.42408
                        -----------------------------------------
Total Dipole Moment    :      0.26753      -0.04844       0.44142
                        -----------------------------------------
Magnitude (a.u.)       :      0.51843
Magnitude (Debye)      :      1.31775

Rotational constants in cm-1:     0.022881     0.007002     0.006465
Rotational constants in MHz :   685.947057   209.925620   193.820505

                             ****ORCA TERMINATED NORMALLY****
TOTAL RUN TIME: 0 days 0 hours 0 minutes 21 seconds 104 msec
