                         Program Version 4.2.1 -  RELEASE  -
|  1> ! wB97X-D3 SP def2-SVP
|  2> %pal
|  3> nprocs 24
|  4> end
|  5>
|  6> * xyz 0 1
|  7> S 	 -96.1564 	 49.9503 	 -101.104
|  8> C 	 -95.6395 	 49.0452 	 -99.6816
|  9> C 	 -95.2994 	 49.9778 	 -98.672
| 10> C 	 -95.4154 	 51.3657 	 -99.1286
| 11> C 	 -96.1026 	 51.5673 	 -100.356
| 12> H 	 -95.1855 	 52.2909 	 -98.5525
| 13> C 	 -94.6448 	 49.6201 	 -97.3392
| 14> H 	 -93.8772 	 50.2953 	 -97.4374
| 15> H 	 -94.4048 	 48.5727 	 -97.5503
| 16> C 	 -95.5427 	 49.8235 	 -96.1486
| 17> H 	 -96.0579 	 50.8185 	 -96.3332
| 18> H 	 -96.3842 	 49.088 	 -96.2667
| 19> C 	 -94.8854 	 49.6937 	 -94.761
| 20> H 	 -95.5842 	 49.9479 	 -93.9104
| 21> H 	 -94.4789 	 48.6492 	 -94.7319
| 22> H 	 -93.989 	 50.3241 	 -94.7137
| 23> S 	 -95.9844 	 52.7611 	 -102.843
| 24> C 	 -96.58 	 54.3265 	 -102.972
| 25> C 	 -97.0804 	 54.8531 	 -101.811
| 26> C 	 -96.8983 	 53.972 	 -100.703
| 27> C 	 -96.4108 	 52.7448 	 -101.136
| 28> H 	 -97.4995 	 55.8409 	 -101.808
| 29> C 	 -97.3437 	 54.2387 	 -99.3411
| 30> H 	 -97.6007 	 53.3728 	 -98.7221
| 31> H 	 -98.3511 	 54.7905 	 -99.406
| 32> C 	 -96.5248 	 55.1315 	 -98.3579
| 33> H 	 -96.3865 	 56.1211 	 -98.7417
| 34> H 	 -95.5482 	 54.7594 	 -98.267
| 35> C 	 -97.1314 	 55.2214 	 -96.9536
| 36> H 	 -96.6968 	 56.0795 	 -96.4668
| 37> H 	 -96.7833 	 54.3789 	 -96.2688
| 38> H 	 -98.1451 	 55.5232 	 -96.8642
| 39> H 	 -95.5053 	 47.9392 	 -99.5689
| 40> H 	 -96.6987 	 54.8231 	 -103.921
| 41> *
| 42>
| 43>                          ****END OF INPUT****

CARTESIAN COORDINATES (ANGSTROEM)
---------------------------------
  S    -96.156400   49.950300  -101.104000
  C    -95.639500   49.045200  -99.681600
  C    -95.299400   49.977800  -98.672000
  C    -95.415400   51.365700  -99.128600
  C    -96.102600   51.567300  -100.356000
  H    -95.185500   52.290900  -98.552500
  C    -94.644800   49.620100  -97.339200
  H    -93.877200   50.295300  -97.437400
  H    -94.404800   48.572700  -97.550300
  C    -95.542700   49.823500  -96.148600
  H    -96.057900   50.818500  -96.333200
  H    -96.384200   49.088000  -96.266700
  C    -94.885400   49.693700  -94.761000
  H    -95.584200   49.947900  -93.910400
  H    -94.478900   48.649200  -94.731900
  H    -93.989000   50.324100  -94.713700
  S    -95.984400   52.761100  -102.843000
  C    -96.580000   54.326500  -102.972000
  C    -97.080400   54.853100  -101.811000
  C    -96.898300   53.972000  -100.703000
  C    -96.410800   52.744800  -101.136000
  H    -97.499500   55.840900  -101.808000
  C    -97.343700   54.238700  -99.341100
  H    -97.600700   53.372800  -98.722100
  H    -98.351100   54.790500  -99.406000
  C    -96.524800   55.131500  -98.357900
  H    -96.386500   56.121100  -98.741700
  H    -95.548200   54.759400  -98.267000
  C    -97.131400   55.221400  -96.953600
  H    -96.696800   56.079500  -96.466800
  H    -96.783300   54.378900  -96.268800
  H    -98.145100   55.523200  -96.864200
  H    -95.505300   47.939200  -99.568900
  H    -96.698700   54.823100  -103.921000

 Total Charge           Charge          ....    0
 Multiplicity           Mult            ....    1
 Number of Electrons    NEL             ....  134
 Basis Dimension        Dim             ....  322

ORBITAL ENERGIES
----------------

  NO   OCC          E(Eh)            E(eV)
   0   2.0000     -88.969495     -2420.9830
   1   2.0000     -88.962215     -2420.7849
   2   2.0000     -10.336445      -281.2690
   3   2.0000     -10.327933      -281.0373
   4   2.0000     -10.322876      -280.8997
   5   2.0000     -10.312204      -280.6093
   6   2.0000     -10.308220      -280.5009
   7   2.0000     -10.305158      -280.4176
   8   2.0000     -10.303891      -280.3831
   9   2.0000     -10.293921      -280.1118
  10   2.0000     -10.292944      -280.0852
  11   2.0000     -10.292658      -280.0775
  12   2.0000     -10.289142      -279.9818
  13   2.0000     -10.286103      -279.8991
  14   2.0000     -10.284586      -279.8578
  15   2.0000     -10.281000      -279.7602
  16   2.0000      -8.085483      -220.0172
  17   2.0000      -8.076119      -219.7624
  18   2.0000      -6.043797      -164.4601
  19   2.0000      -6.039920      -164.3546
  20   2.0000      -6.036245      -164.2546
  21   2.0000      -6.034855      -164.2168
  22   2.0000      -6.030606      -164.1011
  23   2.0000      -6.026801      -163.9976
  24   2.0000      -1.011832       -27.5334
  25   2.0000      -0.979493       -26.6534
  26   2.0000      -0.915010       -24.8987
  27   2.0000      -0.913534       -24.8585
  28   2.0000      -0.870189       -23.6790
  29   2.0000      -0.862170       -23.4608
  30   2.0000      -0.838684       -22.8217
  31   2.0000      -0.813560       -22.1381
  32   2.0000      -0.785830       -21.3835
  33   2.0000      -0.769972       -20.9520
  34   2.0000      -0.712304       -19.3828
  35   2.0000      -0.700126       -19.0514
  36   2.0000      -0.695400       -18.9228
  37   2.0000      -0.663444       -18.0532
  38   2.0000      -0.634182       -17.2570
  39   2.0000      -0.618964       -16.8429
  40   2.0000      -0.604902       -16.4602
  41   2.0000      -0.569354       -15.4929
  42   2.0000      -0.563568       -15.3355
  43   2.0000      -0.557448       -15.1689
  44   2.0000      -0.528011       -14.3679
  45   2.0000      -0.522609       -14.2209
  46   2.0000      -0.517714       -14.0877
  47   2.0000      -0.514544       -14.0014
  48   2.0000      -0.506949       -13.7948
  49   2.0000      -0.502554       -13.6752
  50   2.0000      -0.494116       -13.4456
  51   2.0000      -0.482753       -13.1364
  52   2.0000      -0.468023       -12.7355
  53   2.0000      -0.462696       -12.5906
  54   2.0000      -0.460845       -12.5402
  55   2.0000      -0.458571       -12.4784
  56   2.0000      -0.444462       -12.0944
  57   2.0000      -0.438440       -11.9306
  58   2.0000      -0.432222       -11.7614
  59   2.0000      -0.431378       -11.7384
  60   2.0000      -0.416129       -11.3234
  61   2.0000      -0.413170       -11.2429
  62   2.0000      -0.402603       -10.9554
  63   2.0000      -0.353287        -9.6134
  64   2.0000      -0.334156        -9.0929
  65   2.0000      -0.321963        -8.7611
  66   2.0000      -0.286712        -7.8018
  67   0.0000       0.020656         0.5621
  68   0.0000       0.075334         2.0499
  69   0.0000       0.111065         3.0222
  70   0.0000       0.116519         3.1706
  71   0.0000       0.122892         3.3440

MULLIKEN ATOMIC CHARGES
-----------------------
   0 S :    0.077049
   1 C :   -0.120766
   2 C :   -0.162417
   3 C :    0.020191
   4 C :   -0.152052
   5 H :    0.021206
   6 C :    0.124150
   7 H :    0.017230
   8 H :    0.016960
   9 C :   -0.111731
  10 H :    0.031873
  11 H :    0.031754
  12 C :   -0.039733
  13 H :    0.058636
  14 H :    0.036159
  15 H :    0.029616
  16 S :    0.133436
  17 C :   -0.080252
  18 C :   -0.028965
  19 C :    0.033772
  20 C :   -0.146382
  21 H :    0.012234
  22 C :   -0.027853
  23 H :    0.033627
  24 H :    0.031088
  25 C :   -0.028471
  26 H :    0.015538
  27 H :    0.010390
  28 C :   -0.056642
  29 H :    0.016484
  30 H :    0.049161
  31 H :    0.028134
  32 H :    0.072846
  33 H :    0.053731
Sum of atomic charges:    0.0000000

LOEWDIN ATOMIC CHARGES
----------------------
   0 S :    0.381779
   1 C :   -0.212173
   2 C :   -0.058959
   3 C :   -0.077370
   4 C :   -0.179634
   5 H :    0.031981
   6 C :   -0.027007
   7 H :    0.023408
   8 H :    0.031392
   9 C :   -0.053693
  10 H :    0.026631
  11 H :    0.029214
  12 C :   -0.073285
  13 H :    0.036847
  14 H :    0.032098
  15 H :    0.024143
  16 S :    0.436702
  17 C :   -0.198973
  18 C :   -0.067857
  19 C :   -0.052031
  20 C :   -0.199662
  21 H :    0.031307
  22 C :   -0.045901
  23 H :    0.032984
  24 H :    0.040548
  25 C :   -0.032652
  26 H :    0.018873
  27 H :    0.014251
  28 C :   -0.073305
  29 H :    0.029049
  30 H :    0.036733
  31 H :    0.022547
  32 H :    0.043820
  33 H :    0.028197

  Mayer bond orders larger than 0.100000
B(  0-S ,  1-C ) :   1.1355 B(  0-S ,  4-C ) :   1.1406 B(  1-C ,  2-C ) :   1.5955
B(  1-C ,  4-C ) :   0.1045 B(  1-C , 32-H ) :   0.9611 B(  2-C ,  3-C ) :   1.2456
B(  2-C ,  6-C ) :   0.9983 B(  3-C ,  4-C ) :   1.5505 B(  3-C ,  5-H ) :   0.9748
B(  4-C , 20-C ) :   1.0838 B(  6-C ,  7-H ) :   0.9340 B(  6-C ,  8-H ) :   0.9374
B(  6-C ,  9-C ) :   1.0679 B(  9-C , 10-H ) :   0.9569 B(  9-C , 11-H ) :   0.9511
B(  9-C , 12-C ) :   1.0710 B( 12-C , 13-H ) :   0.9738 B( 12-C , 14-H ) :   0.9706
B( 12-C , 15-H ) :   0.9756 B( 16-S , 17-C ) :   1.1735 B( 16-S , 20-C ) :   1.1385
B( 17-C , 18-C ) :   1.6041 B( 17-C , 33-H ) :   0.9640 B( 18-C , 19-C ) :   1.2328
B( 18-C , 21-H ) :   0.9968 B( 19-C , 20-C ) :   1.5673 B( 19-C , 22-C ) :   1.0663
B( 22-C , 23-H ) :   0.9380 B( 22-C , 24-H ) :   0.9305 B( 22-C , 25-C ) :   1.0545
B( 25-C , 26-H ) :   0.9536 B( 25-C , 27-H ) :   0.9483 B( 25-C , 28-C ) :   1.0930
B( 28-C , 29-H ) :   0.9671 B( 28-C , 30-H ) :   0.9728 B( 28-C , 31-H ) :   0.9722

Dispersion correction           -0.013852899
FINAL SINGLE POINT ENERGY     -1339.858256449232

DIPOLE MOMENT
-------------
                                X             Y             Z
Electronic contribution:     -0.41800      -6.10231     -33.10605
Nuclear contribution   :      0.49318       6.55142      33.64268
                        -----------------------------------------
Total Dipole Moment    :      0.07518       0.44911       0.53663
                        -----------------------------------------
Magnitude (a.u.)       :      0.70379
Magnitude (Debye)      :      1.78889

Rotational constants in cm-1:     0.017307     0.009246     0.006255
Rotational constants in MHz :   518.843797   277.201961   187.510145

                             ****ORCA TERMINATED NORMALLY****
TOTAL RUN TIME: 0 days 0 hours 0 minutes 20 seconds 374 msec
