                         Program Version 4.2.1 -  RELEASE  -
|  1> ! wB97X-D3 SP def2-SVP
|  2> %pal
|  3> nprocs 24
|  4> end
|  5>
|  6> * xyz 0 1
|  7> S 	 -108.939 	 51.8477 	 -91.6687
|  8> C 	 -108.392 	 50.3628 	 -90.7968
|  9> C 	 -108.687 	 50.3268 	 -89.4349
| 10> C 	 -109.382 	 51.5292 	 -89.0475
| 11> C 	 -109.517 	 52.4937 	 -90.0661
| 12> H 	 -109.86 	 51.7051 	 -88.0773
| 13> C 	 -108.552 	 49.0252 	 -88.6407
| 14> H 	 -108.608 	 48.2238 	 -89.3766
| 15> H 	 -109.319 	 48.7497 	 -87.9786
| 16> C 	 -107.181 	 48.8145 	 -88.0222
| 17> H 	 -106.951 	 49.4744 	 -87.204
| 18> H 	 -107.239 	 47.8081 	 -87.5313
| 19> C 	 -106.041 	 48.7111 	 -89.0471
| 20> H 	 -105.067 	 48.5327 	 -88.5515
| 21> H 	 -106.166 	 47.9515 	 -89.9224
| 22> H 	 -105.97 	 49.6847 	 -89.4585
| 23> S 	 -109.229 	 55.2611 	 -90.0686
| 24> C 	 -110.628 	 56.231 	 -89.7104
| 25> C 	 -111.688 	 55.4187 	 -89.2544
| 26> C 	 -111.425 	 54.0195 	 -89.442
| 27> C 	 -110.175 	 53.7751 	 -89.9882
| 28> H 	 -112.631 	 55.7032 	 -88.8451
| 29> C 	 -112.429 	 53.0192 	 -89.0022
| 30> H 	 -113.099 	 53.4556 	 -88.2454
| 31> H 	 -112.03 	 52.1214 	 -88.5872
| 32> C 	 -113.377 	 52.6137 	 -90.1561
| 33> H 	 -112.858 	 51.8755 	 -90.8638
| 34> H 	 -113.777 	 53.4368 	 -90.8177
| 35> C 	 -114.621 	 51.8148 	 -89.6922
| 36> H 	 -115.31 	 52.3503 	 -89.0586
| 37> H 	 -114.295 	 50.9479 	 -89.0615
| 38> H 	 -115.129 	 51.3143 	 -90.5097
| 39> H 	 -107.956 	 49.5549 	 -91.3614
| 40> H 	 -110.684 	 57.258 	 -89.4367
| 41> *
| 42>
| 43>                          ****END OF INPUT****

CARTESIAN COORDINATES (ANGSTROEM)
---------------------------------
  S    -108.939000   51.847700  -91.668700
  C    -108.392000   50.362800  -90.796800
  C    -108.687000   50.326800  -89.434900
  C    -109.382000   51.529200  -89.047500
  C    -109.517000   52.493700  -90.066100
  H    -109.860000   51.705100  -88.077300
  C    -108.552000   49.025200  -88.640700
  H    -108.608000   48.223800  -89.376600
  H    -109.319000   48.749700  -87.978600
  C    -107.181000   48.814500  -88.022200
  H    -106.951000   49.474400  -87.204000
  H    -107.239000   47.808100  -87.531300
  C    -106.041000   48.711100  -89.047100
  H    -105.067000   48.532700  -88.551500
  H    -106.166000   47.951500  -89.922400
  H    -105.970000   49.684700  -89.458500
  S    -109.229000   55.261100  -90.068600
  C    -110.628000   56.231000  -89.710400
  C    -111.688000   55.418700  -89.254400
  C    -111.425000   54.019500  -89.442000
  C    -110.175000   53.775100  -89.988200
  H    -112.631000   55.703200  -88.845100
  C    -112.429000   53.019200  -89.002200
  H    -113.099000   53.455600  -88.245400
  H    -112.030000   52.121400  -88.587200
  C    -113.377000   52.613700  -90.156100
  H    -112.858000   51.875500  -90.863800
  H    -113.777000   53.436800  -90.817700
  C    -114.621000   51.814800  -89.692200
  H    -115.310000   52.350300  -89.058600
  H    -114.295000   50.947900  -89.061500
  H    -115.129000   51.314300  -90.509700
  H    -107.956000   49.554900  -91.361400
  H    -110.684000   57.258000  -89.436700

 Total Charge           Charge          ....    0
 Multiplicity           Mult            ....    1
 Number of Electrons    NEL             ....  134
 Basis Dimension        Dim             ....  322

ORBITAL ENERGIES
----------------

  NO   OCC          E(Eh)            E(eV)
   0   2.0000     -88.969413     -2420.9808
   1   2.0000     -88.968165     -2420.9468
   2   2.0000     -10.335388      -281.2402
   3   2.0000     -10.323214      -280.9089
   4   2.0000     -10.321106      -280.8516
   5   2.0000     -10.319198      -280.7996
   6   2.0000     -10.308895      -280.5193
   7   2.0000     -10.304833      -280.4088
   8   2.0000     -10.300752      -280.2977
   9   2.0000     -10.295021      -280.1418
  10   2.0000     -10.294273      -280.1214
  11   2.0000     -10.292153      -280.0637
  12   2.0000     -10.291814      -280.0545
  13   2.0000     -10.287374      -279.9337
  14   2.0000     -10.281542      -279.7750
  15   2.0000     -10.277255      -279.6583
  16   2.0000      -8.083760      -219.9703
  17   2.0000      -8.081001      -219.8952
  18   2.0000      -6.042341      -164.4205
  19   2.0000      -6.039449      -164.3418
  20   2.0000      -6.038408      -164.3134
  21   2.0000      -6.036014      -164.2483
  22   2.0000      -6.034361      -164.2033
  23   2.0000      -6.031698      -164.1308
  24   2.0000      -1.000862       -27.2349
  25   2.0000      -0.973514       -26.4907
  26   2.0000      -0.913245       -24.8507
  27   2.0000      -0.908805       -24.7298
  28   2.0000      -0.865380       -23.5482
  29   2.0000      -0.849903       -23.1270
  30   2.0000      -0.841392       -22.8954
  31   2.0000      -0.808549       -22.0017
  32   2.0000      -0.785800       -21.3827
  33   2.0000      -0.772808       -21.0292
  34   2.0000      -0.706884       -19.2353
  35   2.0000      -0.691784       -18.8244
  36   2.0000      -0.688787       -18.7429
  37   2.0000      -0.666865       -18.1463
  38   2.0000      -0.643443       -17.5090
  39   2.0000      -0.617241       -16.7960
  40   2.0000      -0.599420       -16.3110
  41   2.0000      -0.571835       -15.5604
  42   2.0000      -0.560842       -15.2613
  43   2.0000      -0.551199       -14.9989
  44   2.0000      -0.538657       -14.6576
  45   2.0000      -0.520993       -14.1769
  46   2.0000      -0.518128       -14.0990
  47   2.0000      -0.507690       -13.8150
  48   2.0000      -0.500612       -13.6224
  49   2.0000      -0.490646       -13.3512
  50   2.0000      -0.488834       -13.3018
  51   2.0000      -0.481217       -13.0946
  52   2.0000      -0.473261       -12.8781
  53   2.0000      -0.461101       -12.5472
  54   2.0000      -0.455466       -12.3939
  55   2.0000      -0.445788       -12.1305
  56   2.0000      -0.440694       -11.9919
  57   2.0000      -0.436052       -11.8656
  58   2.0000      -0.434621       -11.8267
  59   2.0000      -0.429381       -11.6840
  60   2.0000      -0.422897       -11.5076
  61   2.0000      -0.413042       -11.2394
  62   2.0000      -0.409657       -11.1473
  63   2.0000      -0.338182        -9.2024
  64   2.0000      -0.331597        -9.0232
  65   2.0000      -0.327944        -8.9238
  66   2.0000      -0.295629        -8.0445
  67   0.0000       0.027515         0.7487
  68   0.0000       0.052699         1.4340
  69   0.0000       0.096965         2.6386
  70   0.0000       0.105459         2.8697
  71   0.0000       0.126985         3.4554

MULLIKEN ATOMIC CHARGES
-----------------------
   0 S :    0.097924
   1 C :   -0.119426
   2 C :   -0.070868
   3 C :    0.033029
   4 C :   -0.185379
   5 H :    0.027967
   6 C :    0.085953
   7 H :    0.014459
   8 H :    0.019233
   9 C :   -0.078392
  10 H :    0.032445
  11 H :    0.025475
  12 C :   -0.079583
  13 H :    0.039238
  14 H :    0.042293
  15 H :    0.035325
  16 S :    0.121915
  17 C :   -0.060268
  18 C :   -0.040524
  19 C :   -0.034266
  20 C :   -0.142642
  21 H :    0.007988
  22 C :    0.101138
  23 H :    0.018481
  24 H :    0.009422
  25 C :   -0.129562
  26 H :    0.046052
  27 H :    0.045444
  28 C :   -0.052502
  29 H :    0.029065
  30 H :    0.017406
  31 H :    0.036277
  32 H :    0.050413
  33 H :    0.056471
Sum of atomic charges:   -0.0000000

LOEWDIN ATOMIC CHARGES
----------------------
   0 S :    0.356550
   1 C :   -0.166237
   2 C :   -0.063304
   3 C :   -0.053306
   4 C :   -0.175768
   5 H :    0.034110
   6 C :   -0.027520
   7 H :    0.033915
   8 H :    0.025742
   9 C :   -0.041196
  10 H :    0.021615
  11 H :    0.025883
  12 C :   -0.074150
  13 H :    0.030045
  14 H :    0.033096
  15 H :    0.018744
  16 S :    0.419261
  17 C :   -0.190779
  18 C :   -0.060631
  19 C :   -0.047695
  20 C :   -0.212894
  21 H :    0.024793
  22 C :   -0.030319
  23 H :    0.032418
  24 H :    0.025074
  25 C :   -0.044706
  26 H :    0.033478
  27 H :    0.029176
  28 C :   -0.074576
  29 H :    0.017139
  30 H :    0.025159
  31 H :    0.027076
  32 H :    0.021209
  33 H :    0.028600

  Mayer bond orders larger than 0.100000
B(  0-S ,  1-C ) :   1.1366 B(  0-S ,  4-C ) :   1.1229 B(  1-C ,  2-C ) :   1.6257
B(  1-C ,  4-C ) :   0.1045 B(  1-C , 32-H ) :   0.9635 B(  2-C ,  3-C ) :   1.2298
B(  2-C ,  6-C ) :   1.0012 B(  3-C ,  4-C ) :   1.6003 B(  3-C ,  5-H ) :   0.9846
B(  4-C , 20-C ) :   1.0454 B(  6-C ,  7-H ) :   0.9437 B(  6-C ,  8-H ) :   0.9498
B(  6-C ,  9-C ) :   1.0723 B(  9-C , 10-H ) :   0.9568 B(  9-C , 11-H ) :   0.9541
B(  9-C , 12-C ) :   1.0758 B( 12-C , 13-H ) :   0.9718 B( 12-C , 14-H ) :   0.9727
B( 12-C , 15-H ) :   0.9713 B( 16-S , 17-C ) :   1.1667 B( 16-S , 20-C ) :   1.1388
B( 17-C , 18-C ) :   1.5731 B( 17-C , 33-H ) :   0.9658 B( 18-C , 19-C ) :   1.2800
B( 18-C , 21-H ) :   0.9858 B( 19-C , 20-C ) :   1.5690 B( 19-C , 22-C ) :   1.0623
B( 22-C , 23-H ) :   0.9383 B( 22-C , 24-H ) :   0.9204 B( 22-C , 25-C ) :   1.0502
B( 25-C , 26-H ) :   0.9552 B( 25-C , 27-H ) :   0.9612 B( 25-C , 28-C ) :   1.0798
B( 28-C , 29-H ) :   0.9763 B( 28-C , 30-H ) :   0.9703 B( 28-C , 31-H ) :   0.9744

Dispersion correction           -0.014381858
FINAL SINGLE POINT ENERGY     -1339.865529943048

DIPOLE MOMENT
-------------
                                X             Y             Z
Electronic contribution:      7.97497      20.27085     -10.15256
Nuclear contribution   :     -8.35780     -20.71173      10.73330
                        -----------------------------------------
Total Dipole Moment    :     -0.38284      -0.44088       0.58074
                        -----------------------------------------
Magnitude (a.u.)       :      0.82353
Magnitude (Debye)      :      2.09325

Rotational constants in cm-1:     0.019045     0.008167     0.006733
Rotational constants in MHz :   570.940987   244.843381   201.839850

                             ****ORCA TERMINATED NORMALLY****
TOTAL RUN TIME: 0 days 0 hours 0 minutes 21 seconds 610 msec
