                         Program Version 4.2.1 -  RELEASE  -
|  1> ! wB97X-D3 SP def2-SVP
|  2> %pal
|  3> nprocs 24
|  4> end
|  5>
|  6> * xyz 0 1
|  7> S 	 -49.0104 	 11.3053 	 24.3388
|  8> C 	 -49.0072 	 9.74161 	 23.4938
|  9> C 	 -50.2874 	 9.33896 	 23.2071
| 10> C 	 -51.2568 	 10.3696 	 23.4634
| 11> C 	 -50.7159 	 11.5146 	 24.041
| 12> H 	 -52.3385 	 10.3382 	 23.3044
| 13> C 	 -50.5642 	 8.0191 	 22.5462
| 14> H 	 -51.1633 	 7.38813 	 23.1979
| 15> H 	 -49.5878 	 7.54864 	 22.4872
| 16> C 	 -51.1468 	 8.18664 	 21.105
| 17> H 	 -52.1772 	 8.5702 	 21.1897
| 18> H 	 -50.5391 	 8.90332 	 20.5054
| 19> C 	 -51.1449 	 6.85595 	 20.3532
| 20> H 	 -51.7223 	 6.81816 	 19.4797
| 21> H 	 -50.1797 	 6.65311 	 19.8722
| 22> H 	 -51.4294 	 6.04719 	 20.9637
| 23> S 	 -51.1635 	 14.0202 	 23.038
| 24> C 	 -52.3082 	 15.0473 	 23.8344
| 25> C 	 -52.7447 	 14.5276 	 25.0185
| 26> C 	 -52.2188 	 13.2148 	 25.2867
| 27> C 	 -51.3583 	 12.8228 	 24.2401
| 28> H 	 -53.5067 	 15.0838 	 25.5397
| 29> C 	 -52.6053 	 12.345 	 26.4648
| 30> H 	 -52.1347 	 11.3938 	 26.3527
| 31> H 	 -53.6359 	 12.2042 	 26.2154
| 32> C 	 -52.3078 	 12.9453 	 27.8814
| 33> H 	 -52.9817 	 13.8193 	 27.95
| 34> H 	 -51.2817 	 13.3408 	 27.8808
| 35> C 	 -52.5418 	 11.9761 	 28.9903
| 36> H 	 -51.8098 	 11.1765 	 28.8867
| 37> H 	 -53.5999 	 11.5921 	 28.8674
| 38> H 	 -52.5675 	 12.5658 	 29.9251
| 39> H 	 -48.1891 	 9.08946 	 23.5918
| 40> H 	 -52.5045 	 16.0411 	 23.521
| 41> *
| 42>
| 43>                          ****END OF INPUT****

CARTESIAN COORDINATES (ANGSTROEM)
---------------------------------
  S    -49.010400   11.305300   24.338800
  C    -49.007200    9.741610   23.493800
  C    -50.287400    9.338960   23.207100
  C    -51.256800   10.369600   23.463400
  C    -50.715900   11.514600   24.041000
  H    -52.338500   10.338200   23.304400
  C    -50.564200    8.019100   22.546200
  H    -51.163300    7.388130   23.197900
  H    -49.587800    7.548640   22.487200
  C    -51.146800    8.186640   21.105000
  H    -52.177200    8.570200   21.189700
  H    -50.539100    8.903320   20.505400
  C    -51.144900    6.855950   20.353200
  H    -51.722300    6.818160   19.479700
  H    -50.179700    6.653110   19.872200
  H    -51.429400    6.047190   20.963700
  S    -51.163500   14.020200   23.038000
  C    -52.308200   15.047300   23.834400
  C    -52.744700   14.527600   25.018500
  C    -52.218800   13.214800   25.286700
  C    -51.358300   12.822800   24.240100
  H    -53.506700   15.083800   25.539700
  C    -52.605300   12.345000   26.464800
  H    -52.134700   11.393800   26.352700
  H    -53.635900   12.204200   26.215400
  C    -52.307800   12.945300   27.881400
  H    -52.981700   13.819300   27.950000
  H    -51.281700   13.340800   27.880800
  C    -52.541800   11.976100   28.990300
  H    -51.809800   11.176500   28.886700
  H    -53.599900   11.592100   28.867400
  H    -52.567500   12.565800   29.925100
  H    -48.189100    9.089460   23.591800
  H    -52.504500   16.041100   23.521000

 Total Charge           Charge          ....    0
 Multiplicity           Mult            ....    1
 Number of Electrons    NEL             ....  134
 Basis Dimension        Dim             ....  322

ORBITAL ENERGIES
----------------

  NO   OCC          E(Eh)            E(eV)
   0   2.0000     -88.963125     -2420.8097
   1   2.0000     -88.960146     -2420.7286
   2   2.0000     -10.327664      -281.0300
   3   2.0000     -10.320403      -280.8324
   4   2.0000     -10.309532      -280.5366
   5   2.0000     -10.308350      -280.5045
   6   2.0000     -10.304000      -280.3861
   7   2.0000     -10.299985      -280.2769
   8   2.0000     -10.295496      -280.1547
   9   2.0000     -10.292215      -280.0654
  10   2.0000     -10.292127      -280.0630
  11   2.0000     -10.290843      -280.0281
  12   2.0000     -10.286294      -279.9043
  13   2.0000     -10.284465      -279.8545
  14   2.0000     -10.281827      -279.7827
  15   2.0000     -10.268695      -279.4254
  16   2.0000      -8.079022      -219.8414
  17   2.0000      -8.074921      -219.7298
  18   2.0000      -6.037363      -164.2850
  19   2.0000      -6.033342      -164.1756
  20   2.0000      -6.033293      -164.1742
  21   2.0000      -6.029969      -164.0838
  22   2.0000      -6.029452      -164.0697
  23   2.0000      -6.025738      -163.9687
  24   2.0000      -1.006069       -27.3765
  25   2.0000      -0.983256       -26.7558
  26   2.0000      -0.909762       -24.7559
  27   2.0000      -0.909422       -24.7466
  28   2.0000      -0.868681       -23.6380
  29   2.0000      -0.854235       -23.2449
  30   2.0000      -0.844092       -22.9689
  31   2.0000      -0.817515       -22.2457
  32   2.0000      -0.782687       -21.2980
  33   2.0000      -0.768151       -20.9025
  34   2.0000      -0.707663       -19.2565
  35   2.0000      -0.695299       -18.9200
  36   2.0000      -0.692175       -18.8350
  37   2.0000      -0.654042       -17.7974
  38   2.0000      -0.644721       -17.5437
  39   2.0000      -0.615535       -16.7496
  40   2.0000      -0.594559       -16.1788
  41   2.0000      -0.572721       -15.5845
  42   2.0000      -0.569185       -15.4883
  43   2.0000      -0.555934       -15.1277
  44   2.0000      -0.529940       -14.4204
  45   2.0000      -0.525411       -14.2972
  46   2.0000      -0.519800       -14.1445
  47   2.0000      -0.511770       -13.9260
  48   2.0000      -0.505172       -13.7464
  49   2.0000      -0.500351       -13.6152
  50   2.0000      -0.493330       -13.4242
  51   2.0000      -0.477380       -12.9902
  52   2.0000      -0.467078       -12.7098
  53   2.0000      -0.462298       -12.5798
  54   2.0000      -0.455528       -12.3956
  55   2.0000      -0.449830       -12.2405
  56   2.0000      -0.443350       -12.0642
  57   2.0000      -0.438620       -11.9355
  58   2.0000      -0.430251       -11.7077
  59   2.0000      -0.425083       -11.5671
  60   2.0000      -0.424346       -11.5470
  61   2.0000      -0.414345       -11.2749
  62   2.0000      -0.413336       -11.2474
  63   2.0000      -0.337338        -9.1794
  64   2.0000      -0.325245        -8.8504
  65   2.0000      -0.320265        -8.7148
  66   2.0000      -0.307766        -8.3747
  67   0.0000       0.046767         1.2726
  68   0.0000       0.058908         1.6030
  69   0.0000       0.117689         3.2025
  70   0.0000       0.128826         3.5055
  71   0.0000       0.132511         3.6058

MULLIKEN ATOMIC CHARGES
-----------------------
   0 S :    0.095266
   1 C :   -0.106152
   2 C :   -0.105204
   3 C :    0.050416
   4 C :   -0.196839
   5 H :    0.017995
   6 C :    0.085600
   7 H :    0.034994
   8 H :    0.008050
   9 C :   -0.097126
  10 H :    0.039047
  11 H :    0.044445
  12 C :   -0.010591
  13 H :    0.013065
  14 H :    0.023558
  15 H :    0.020947
  16 S :    0.132883
  17 C :   -0.088879
  18 C :   -0.035588
  19 C :   -0.040274
  20 C :   -0.179823
  21 H :    0.016405
  22 C :    0.100700
  23 H :    0.011592
  24 H :    0.027849
  25 C :   -0.104918
  26 H :    0.025373
  27 H :    0.039801
  28 C :   -0.027090
  29 H :    0.046163
  30 H :    0.030723
  31 H :    0.043192
  32 H :    0.041330
  33 H :    0.043090
Sum of atomic charges:    0.0000000

LOEWDIN ATOMIC CHARGES
----------------------
   0 S :    0.390936
   1 C :   -0.186192
   2 C :   -0.060431
   3 C :   -0.063150
   4 C :   -0.195825
   5 H :    0.034044
   6 C :   -0.028670
   7 H :    0.030742
   8 H :    0.028396
   9 C :   -0.035959
  10 H :    0.024584
  11 H :    0.032725
  12 C :   -0.065922
  13 H :    0.020106
  14 H :    0.029240
  15 H :    0.018358
  16 S :    0.435348
  17 C :   -0.185097
  18 C :   -0.074251
  19 C :   -0.046541
  20 C :   -0.229646
  21 H :    0.030680
  22 C :   -0.030650
  23 H :    0.023522
  24 H :    0.032027
  25 C :   -0.042474
  26 H :    0.021933
  27 H :    0.027226
  28 C :   -0.066944
  29 H :    0.028510
  30 H :    0.031757
  31 H :    0.032953
  32 H :    0.017151
  33 H :    0.021519

  Mayer bond orders larger than 0.100000
B(  0-S ,  1-C ) :   1.1283 B(  0-S ,  4-C ) :   1.1670 B(  1-C ,  2-C ) :   1.6309
B(  1-C , 32-H ) :   0.9652 B(  2-C ,  3-C ) :   1.2129 B(  2-C ,  6-C ) :   1.0375
B(  3-C ,  4-C ) :   1.5967 B(  3-C ,  5-H ) :   0.9940 B(  4-C , 20-C ) :   0.9918
B(  6-C ,  7-H ) :   0.9292 B(  6-C ,  8-H ) :   0.9406 B(  6-C ,  9-C ) :   1.0561
B(  9-C , 10-H ) :   0.9560 B(  9-C , 11-H ) :   0.9598 B(  9-C , 12-C ) :   1.0866
B( 12-C , 13-H ) :   0.9701 B( 12-C , 14-H ) :   0.9725 B( 12-C , 15-H ) :   0.9740
B( 16-S , 17-C ) :   1.1644 B( 16-S , 20-C ) :   1.1676 B( 17-C , 18-C ) :   1.6173
B( 17-C , 33-H ) :   0.9689 B( 18-C , 19-C ) :   1.2330 B( 18-C , 21-H ) :   0.9930
B( 19-C , 20-C ) :   1.5842 B( 19-C , 22-C ) :   1.0365 B( 22-C , 23-H ) :   0.9270
B( 22-C , 24-H ) :   0.9276 B( 22-C , 25-C ) :   1.0510 B( 25-C , 26-H ) :   0.9525
B( 25-C , 27-H ) :   0.9580 B( 25-C , 28-C ) :   1.0934 B( 28-C , 29-H ) :   0.9740
B( 28-C , 30-H ) :   0.9696 B( 28-C , 31-H ) :   0.9714

Dispersion correction           -0.013683226
FINAL SINGLE POINT ENERGY     -1339.885616614156

DIPOLE MOMENT
-------------
                                X             Y             Z
Electronic contribution:     10.11916      17.48383      -4.80787
Nuclear contribution   :    -10.59545     -17.81141       4.92096
                        -----------------------------------------
Total Dipole Moment    :     -0.47628      -0.32758       0.11309
                        -----------------------------------------
Magnitude (a.u.)       :      0.58902
Magnitude (Debye)      :      1.49718

Rotational constants in cm-1:     0.019163     0.007406     0.006487
Rotational constants in MHz :   574.496615   222.030512   194.489019

                             ****ORCA TERMINATED NORMALLY****
TOTAL RUN TIME: 0 days 0 hours 0 minutes 20 seconds 940 msec
