                         Program Version 4.2.1 -  RELEASE  -
|  1> ! wB97X-D3 SP def2-SVP
|  2> %pal
|  3> nprocs 24
|  4> end
|  5>
|  6> * xyz 0 1
|  7> S 	 -41.4135 	 -48.7848 	 -72.0251
|  8> C 	 -42.1692 	 -50.0185 	 -72.9993
|  9> C 	 -41.5424 	 -51.2415 	 -72.857
| 10> C 	 -40.3968 	 -51.1418 	 -71.9961
| 11> C 	 -40.1088 	 -49.8497 	 -71.5567
| 12> H 	 -39.6746 	 -51.9947 	 -71.7825
| 13> C 	 -41.9508 	 -52.4681 	 -73.647
| 14> H 	 -41.1006 	 -53.0991 	 -73.9096
| 15> H 	 -42.1196 	 -52.0904 	 -74.6233
| 16> C 	 -43.1672 	 -53.2204 	 -73.0517
| 17> H 	 -43.9778 	 -52.5216 	 -72.8248
| 18> H 	 -43.5559 	 -53.8892 	 -73.8687
| 19> C 	 -42.7699 	 -54.0474 	 -71.7472
| 20> H 	 -42.125 	 -53.4022 	 -71.1186
| 21> H 	 -43.7054 	 -54.2639 	 -71.2199
| 22> H 	 -42.201 	 -54.9752 	 -71.9232
| 23> S 	 -39.3551 	 -48.7092 	 -69.2525
| 24> C 	 -37.6205 	 -48.6307 	 -68.7841
| 25> C 	 -36.8215 	 -49.1425 	 -69.8418
| 26> C 	 -37.593 	 -49.6956 	 -70.9664
| 27> C 	 -38.9736 	 -49.5865 	 -70.6727
| 28> H 	 -35.7468 	 -49.0965 	 -69.8299
| 29> C 	 -36.9555 	 -50.2019 	 -72.2776
| 30> H 	 -37.7832 	 -50.235 	 -73.0273
| 31> H 	 -36.615 	 -51.2076 	 -72.0782
| 32> C 	 -35.7134 	 -49.5085 	 -72.8169
| 33> H 	 -34.866 	 -49.6825 	 -72.1769
| 34> H 	 -35.7426 	 -48.4239 	 -72.9875
| 35> C 	 -35.2821 	 -50.0972 	 -74.1337
| 36> H 	 -34.4566 	 -49.5601 	 -74.4568
| 37> H 	 -36.0272 	 -49.9853 	 -74.943
| 38> H 	 -35.0092 	 -51.1076 	 -73.9382
| 39> H 	 -43.0139 	 -49.8689 	 -73.6449
| 40> H 	 -37.1771 	 -48.1036 	 -67.8849
| 41> *
| 42>
| 43>                          ****END OF INPUT****

CARTESIAN COORDINATES (ANGSTROEM)
---------------------------------
  S    -41.413500  -48.784800  -72.025100
  C    -42.169200  -50.018500  -72.999300
  C    -41.542400  -51.241500  -72.857000
  C    -40.396800  -51.141800  -71.996100
  C    -40.108800  -49.849700  -71.556700
  H    -39.674600  -51.994700  -71.782500
  C    -41.950800  -52.468100  -73.647000
  H    -41.100600  -53.099100  -73.909600
  H    -42.119600  -52.090400  -74.623300
  C    -43.167200  -53.220400  -73.051700
  H    -43.977800  -52.521600  -72.824800
  H    -43.555900  -53.889200  -73.868700
  C    -42.769900  -54.047400  -71.747200
  H    -42.125000  -53.402200  -71.118600
  H    -43.705400  -54.263900  -71.219900
  H    -42.201000  -54.975200  -71.923200
  S    -39.355100  -48.709200  -69.252500
  C    -37.620500  -48.630700  -68.784100
  C    -36.821500  -49.142500  -69.841800
  C    -37.593000  -49.695600  -70.966400
  C    -38.973600  -49.586500  -70.672700
  H    -35.746800  -49.096500  -69.829900
  C    -36.955500  -50.201900  -72.277600
  H    -37.783200  -50.235000  -73.027300
  H    -36.615000  -51.207600  -72.078200
  C    -35.713400  -49.508500  -72.816900
  H    -34.866000  -49.682500  -72.176900
  H    -35.742600  -48.423900  -72.987500
  C    -35.282100  -50.097200  -74.133700
  H    -34.456600  -49.560100  -74.456800
  H    -36.027200  -49.985300  -74.943000
  H    -35.009200  -51.107600  -73.938200
  H    -43.013900  -49.868900  -73.644900
  H    -37.177100  -48.103600  -67.884900

 Total Charge           Charge          ....    0
 Multiplicity           Mult            ....    1
 Number of Electrons    NEL             ....  134
 Basis Dimension        Dim             ....  322

ORBITAL ENERGIES
----------------

  NO   OCC          E(Eh)            E(eV)
   0   2.0000     -88.969436     -2420.9814
   1   2.0000     -88.967928     -2420.9404
   2   2.0000     -10.328073      -281.0412
   3   2.0000     -10.327807      -281.0339
   4   2.0000     -10.326910      -281.0095
   5   2.0000     -10.312489      -280.6171
   6   2.0000     -10.310941      -280.5750
   7   2.0000     -10.302001      -280.3317
   8   2.0000     -10.300025      -280.2779
   9   2.0000     -10.297348      -280.2051
  10   2.0000     -10.296858      -280.1917
  11   2.0000     -10.295975      -280.1677
  12   2.0000     -10.288935      -279.9761
  13   2.0000     -10.283741      -279.8348
  14   2.0000     -10.282855      -279.8107
  15   2.0000     -10.269602      -279.4501
  16   2.0000      -8.083896      -219.9740
  17   2.0000      -8.082282      -219.9301
  18   2.0000      -6.042463      -164.4238
  19   2.0000      -6.040865      -164.3803
  20   2.0000      -6.038381      -164.3127
  21   2.0000      -6.036852      -164.2711
  22   2.0000      -6.034668      -164.2117
  23   2.0000      -6.032980      -164.1657
  24   2.0000      -1.003508       -27.3068
  25   2.0000      -0.977266       -26.5928
  26   2.0000      -0.914798       -24.8929
  27   2.0000      -0.905133       -24.6299
  28   2.0000      -0.862711       -23.4756
  29   2.0000      -0.852691       -23.2029
  30   2.0000      -0.839128       -22.8338
  31   2.0000      -0.810172       -22.0459
  32   2.0000      -0.781186       -21.2572
  33   2.0000      -0.769538       -20.9402
  34   2.0000      -0.701749       -19.0956
  35   2.0000      -0.700945       -19.0737
  36   2.0000      -0.691579       -18.8188
  37   2.0000      -0.655690       -17.8422
  38   2.0000      -0.636549       -17.3214
  39   2.0000      -0.610877       -16.6228
  40   2.0000      -0.592347       -16.1186
  41   2.0000      -0.577211       -15.7067
  42   2.0000      -0.568444       -15.4681
  43   2.0000      -0.544085       -14.8053
  44   2.0000      -0.531695       -14.4682
  45   2.0000      -0.527278       -14.3480
  46   2.0000      -0.518602       -14.1119
  47   2.0000      -0.510416       -13.8891
  48   2.0000      -0.498089       -13.5537
  49   2.0000      -0.497047       -13.5253
  50   2.0000      -0.483188       -13.1482
  51   2.0000      -0.474953       -12.9241
  52   2.0000      -0.466658       -12.6984
  53   2.0000      -0.462778       -12.5928
  54   2.0000      -0.461590       -12.5605
  55   2.0000      -0.448816       -12.2129
  56   2.0000      -0.442096       -12.0300
  57   2.0000      -0.439855       -11.9691
  58   2.0000      -0.432406       -11.7664
  59   2.0000      -0.424767       -11.5585
  60   2.0000      -0.422657       -11.5011
  61   2.0000      -0.417888       -11.3713
  62   2.0000      -0.414250       -11.2723
  63   2.0000      -0.343737        -9.3536
  64   2.0000      -0.330240        -8.9863
  65   2.0000      -0.327375        -8.9083
  66   2.0000      -0.290329        -7.9003
  67   0.0000       0.031352         0.8531
  68   0.0000       0.065506         1.7825
  69   0.0000       0.106142         2.8883
  70   0.0000       0.122524         3.3341
  71   0.0000       0.127191         3.4610

MULLIKEN ATOMIC CHARGES
-----------------------
   0 S :    0.125182
   1 C :   -0.116525
   2 C :   -0.092279
   3 C :   -0.006605
   4 C :   -0.158852
   5 H :    0.041422
   6 C :    0.069894
   7 H :    0.019578
   8 H :    0.010667
   9 C :   -0.070681
  10 H :    0.032899
  11 H :    0.037539
  12 C :   -0.069091
  13 H :    0.040537
  14 H :    0.041590
  15 H :    0.040561
  16 S :    0.108702
  17 C :   -0.124033
  18 C :   -0.029742
  19 C :   -0.035067
  20 C :   -0.169671
  21 H :    0.016786
  22 C :    0.078321
  23 H :    0.042360
  24 H :    0.027288
  25 C :   -0.095630
  26 H :    0.020523
  27 H :    0.034299
  28 C :   -0.011593
  29 H :    0.013161
  30 H :    0.034386
  31 H :    0.018790
  32 H :    0.042244
  33 H :    0.083041
Sum of atomic charges:   -0.0000000

LOEWDIN ATOMIC CHARGES
----------------------
   0 S :    0.411189
   1 C :   -0.196221
   2 C :   -0.065809
   3 C :   -0.072128
   4 C :   -0.208324
   5 H :    0.041482
   6 C :   -0.038836
   7 H :    0.031290
   8 H :    0.027631
   9 C :   -0.036324
  10 H :    0.024284
  11 H :    0.027448
  12 C :   -0.069334
  13 H :    0.028739
  14 H :    0.027907
  15 H :    0.026752
  16 S :    0.409054
  17 C :   -0.196153
  18 C :   -0.063583
  19 C :   -0.052716
  20 C :   -0.209735
  21 H :    0.026367
  22 C :   -0.031986
  23 H :    0.037063
  24 H :    0.033438
  25 C :   -0.042713
  26 H :    0.021206
  27 H :    0.025392
  28 C :   -0.051463
  29 H :    0.018009
  30 H :    0.027523
  31 H :    0.019547
  32 H :    0.026336
  33 H :    0.044667

  Mayer bond orders larger than 0.100000
B(  0-S ,  1-C ) :   1.1419 B(  0-S ,  4-C ) :   1.1497 B(  1-C ,  2-C ) :   1.6043
B(  1-C , 32-H ) :   0.9672 B(  2-C ,  3-C ) :   1.2552 B(  2-C ,  6-C ) :   1.0101
B(  3-C ,  4-C ) :   1.5484 B(  3-C ,  5-H ) :   0.9835 B(  4-C , 20-C ) :   1.0463
B(  6-C ,  7-H ) :   0.9463 B(  6-C ,  8-H ) :   0.9376 B(  6-C ,  9-C ) :   1.0607
B(  9-C , 10-H ) :   0.9622 B(  9-C , 11-H ) :   0.9573 B(  9-C , 12-C ) :   1.0585
B( 12-C , 13-H ) :   0.9784 B( 12-C , 14-H ) :   0.9774 B( 12-C , 15-H ) :   0.9781
B( 16-S , 17-C ) :   1.1360 B( 16-S , 20-C ) :   1.1550 B( 17-C , 18-C ) :   1.6096
B( 17-C , 33-H ) :   0.9612 B( 18-C , 19-C ) :   1.2446 B( 18-C , 21-H ) :   0.9843
B( 19-C , 20-C ) :   1.5814 B( 19-C , 22-C ) :   1.0325 B( 22-C , 23-H ) :   0.9380
B( 22-C , 24-H ) :   0.9238 B( 22-C , 25-C ) :   1.0741 B( 25-C , 26-H ) :   0.9438
B( 25-C , 27-H ) :   0.9583 B( 25-C , 28-C ) :   1.1007 B( 28-C , 29-H ) :   0.9703
B( 28-C , 30-H ) :   0.9742 B( 28-C , 31-H ) :   0.9730

Dispersion correction           -0.013841069
FINAL SINGLE POINT ENERGY     -1339.874700587809

DIPOLE MOMENT
-------------
                                X             Y             Z
Electronic contribution:     -7.24037      18.45083      14.89897
Nuclear contribution   :      7.61145     -18.78956     -15.38226
                        -----------------------------------------
Total Dipole Moment    :      0.37108      -0.33873      -0.48329
                        -----------------------------------------
Magnitude (a.u.)       :      0.69714
Magnitude (Debye)      :      1.77200

Rotational constants in cm-1:     0.017524     0.008160     0.006726
Rotational constants in MHz :   525.351326   244.626341   201.636409

                             ****ORCA TERMINATED NORMALLY****
TOTAL RUN TIME: 0 days 0 hours 0 minutes 20 seconds 916 msec
