                         Program Version 4.2.1 -  RELEASE  -
|  1> ! wB97X-D3 SP def2-SVP
|  2> %pal
|  3> nprocs 24
|  4> end
|  5>
|  6> * xyz 0 1
|  7> S 	 -23.255 	 -33.8362 	 -92.1268
|  8> C 	 -21.7825 	 -34.69 	 -91.7001
|  9> C 	 -20.6751 	 -34.1078 	 -92.2855
| 10> C 	 -21.0118 	 -32.9091 	 -93.0565
| 11> C 	 -22.4169 	 -32.6177 	 -93.0085
| 12> H 	 -20.354 	 -32.2841 	 -93.5438
| 13> C 	 -19.282 	 -34.6378 	 -92.2143
| 14> H 	 -19.2418 	 -35.4446 	 -91.4658
| 15> H 	 -18.6939 	 -33.713 	 -91.9369
| 16> C 	 -18.9606 	 -35.2782 	 -93.5462
| 17> H 	 -19.5228 	 -36.1431 	 -93.6773
| 18> H 	 -19.1924 	 -34.5961 	 -94.3426
| 19> C 	 -17.4693 	 -35.6906 	 -93.5725
| 20> H 	 -17.1979 	 -36.0834 	 -94.5998
| 21> H 	 -16.7686 	 -34.838 	 -93.3337
| 22> H 	 -17.3816 	 -36.5191 	 -92.9075
| 23> S 	 -24.4838 	 -31.9394 	 -94.5828
| 24> C 	 -24.7502 	 -30.2793 	 -95.0793
| 25> C 	 -23.7583 	 -29.5277 	 -94.5185
| 26> C 	 -22.7531 	 -30.206 	 -93.7548
| 27> C 	 -23.0511 	 -31.5341 	 -93.7282
| 28> H 	 -23.807 	 -28.4722 	 -94.6957
| 29> C 	 -21.6248 	 -29.4101 	 -93.0499
| 30> H 	 -20.7733 	 -30.09 	 -92.8641
| 31> H 	 -21.9524 	 -29.1018 	 -92.1252
| 32> C 	 -21.0919 	 -28.2039 	 -93.837
| 33> H 	 -20.3464 	 -27.6721 	 -93.2688
| 34> H 	 -21.9047 	 -27.4643 	 -94.0347
| 35> C 	 -20.311 	 -28.5333 	 -95.1354
| 36> H 	 -20.8803 	 -29.1024 	 -95.9071
| 37> H 	 -19.4855 	 -29.1919 	 -94.8741
| 38> H 	 -19.8013 	 -27.7402 	 -95.7052
| 39> H 	 -21.8017 	 -35.6166 	 -91.164
| 40> H 	 -25.5361 	 -29.9451 	 -95.7624
| 41> *
| 42>
| 43>                          ****END OF INPUT****

CARTESIAN COORDINATES (ANGSTROEM)
---------------------------------
  S    -23.255000  -33.836200  -92.126800
  C    -21.782500  -34.690000  -91.700100
  C    -20.675100  -34.107800  -92.285500
  C    -21.011800  -32.909100  -93.056500
  C    -22.416900  -32.617700  -93.008500
  H    -20.354000  -32.284100  -93.543800
  C    -19.282000  -34.637800  -92.214300
  H    -19.241800  -35.444600  -91.465800
  H    -18.693900  -33.713000  -91.936900
  C    -18.960600  -35.278200  -93.546200
  H    -19.522800  -36.143100  -93.677300
  H    -19.192400  -34.596100  -94.342600
  C    -17.469300  -35.690600  -93.572500
  H    -17.197900  -36.083400  -94.599800
  H    -16.768600  -34.838000  -93.333700
  H    -17.381600  -36.519100  -92.907500
  S    -24.483800  -31.939400  -94.582800
  C    -24.750200  -30.279300  -95.079300
  C    -23.758300  -29.527700  -94.518500
  C    -22.753100  -30.206000  -93.754800
  C    -23.051100  -31.534100  -93.728200
  H    -23.807000  -28.472200  -94.695700
  C    -21.624800  -29.410100  -93.049900
  H    -20.773300  -30.090000  -92.864100
  H    -21.952400  -29.101800  -92.125200
  C    -21.091900  -28.203900  -93.837000
  H    -20.346400  -27.672100  -93.268800
  H    -21.904700  -27.464300  -94.034700
  C    -20.311000  -28.533300  -95.135400
  H    -20.880300  -29.102400  -95.907100
  H    -19.485500  -29.191900  -94.874100
  H    -19.801300  -27.740200  -95.705200
  H    -21.801700  -35.616600  -91.164000
  H    -25.536100  -29.945100  -95.762400

 Total Charge           Charge          ....    0
 Multiplicity           Mult            ....    1
 Number of Electrons    NEL             ....  134
 Basis Dimension        Dim             ....  322

ORBITAL ENERGIES
----------------

  NO   OCC          E(Eh)            E(eV)
   0   2.0000     -88.965968     -2420.8871
   1   2.0000     -88.961862     -2420.7753
   2   2.0000     -10.330822      -281.1160
   3   2.0000     -10.322871      -280.8996
   4   2.0000     -10.316137      -280.7164
   5   2.0000     -10.309877      -280.5460
   6   2.0000     -10.303278      -280.3665
   7   2.0000     -10.301375      -280.3147
   8   2.0000     -10.294890      -280.1382
   9   2.0000     -10.294069      -280.1159
  10   2.0000     -10.293673      -280.1051
  11   2.0000     -10.293623      -280.1037
  12   2.0000     -10.289720      -279.9975
  13   2.0000     -10.282675      -279.8058
  14   2.0000     -10.280407      -279.7441
  15   2.0000     -10.278658      -279.6965
  16   2.0000      -8.080841      -219.8909
  17   2.0000      -8.077543      -219.8011
  18   2.0000      -6.039371      -164.3396
  19   2.0000      -6.036044      -164.2491
  20   2.0000      -6.035167      -164.2252
  21   2.0000      -6.031865      -164.1354
  22   2.0000      -6.031752      -164.1323
  23   2.0000      -6.028292      -164.0382
  24   2.0000      -1.011038       -27.5118
  25   2.0000      -0.983575       -26.7644
  26   2.0000      -0.919939       -25.0328
  27   2.0000      -0.908398       -24.7188
  28   2.0000      -0.871315       -23.7097
  29   2.0000      -0.849251       -23.1093
  30   2.0000      -0.841672       -22.9031
  31   2.0000      -0.812164       -22.1001
  32   2.0000      -0.785547       -21.3758
  33   2.0000      -0.771850       -21.0031
  34   2.0000      -0.708613       -19.2823
  35   2.0000      -0.699860       -19.0442
  36   2.0000      -0.697165       -18.9708
  37   2.0000      -0.661357       -17.9964
  38   2.0000      -0.642990       -17.4966
  39   2.0000      -0.620207       -16.8767
  40   2.0000      -0.601007       -16.3542
  41   2.0000      -0.572876       -15.5888
  42   2.0000      -0.562121       -15.2961
  43   2.0000      -0.558746       -15.2042
  44   2.0000      -0.537830       -14.6351
  45   2.0000      -0.523119       -14.2348
  46   2.0000      -0.516964       -14.0673
  47   2.0000      -0.513847       -13.9825
  48   2.0000      -0.510854       -13.9010
  49   2.0000      -0.499285       -13.5862
  50   2.0000      -0.491700       -13.3798
  51   2.0000      -0.480985       -13.0883
  52   2.0000      -0.466082       -12.6827
  53   2.0000      -0.462804       -12.5935
  54   2.0000      -0.455747       -12.4015
  55   2.0000      -0.452614       -12.3163
  56   2.0000      -0.444300       -12.0900
  57   2.0000      -0.442221       -12.0334
  58   2.0000      -0.435398       -11.8478
  59   2.0000      -0.429684       -11.6923
  60   2.0000      -0.423022       -11.5110
  61   2.0000      -0.415055       -11.2942
  62   2.0000      -0.408747       -11.1226
  63   2.0000      -0.350817        -9.5462
  64   2.0000      -0.331426        -9.0186
  65   2.0000      -0.325407        -8.8548
  66   2.0000      -0.290503        -7.9050
  67   0.0000       0.031365         0.8535
  68   0.0000       0.079240         2.1562
  69   0.0000       0.116247         3.1632
  70   0.0000       0.120570         3.2809
  71   0.0000       0.135564         3.6889

MULLIKEN ATOMIC CHARGES
-----------------------
   0 S :    0.113939
   1 C :   -0.127790
   2 C :   -0.088443
   3 C :    0.045467
   4 C :   -0.148684
   5 H :   -0.017531
   6 C :    0.053593
   7 H :    0.018650
   8 H :    0.047887
   9 C :   -0.051339
  10 H :    0.015270
  11 H :    0.026185
  12 C :   -0.049309
  13 H :    0.037189
  14 H :    0.042945
  15 H :    0.024024
  16 S :    0.100419
  17 C :   -0.100444
  18 C :   -0.038875
  19 C :   -0.032832
  20 C :   -0.166654
  21 H :    0.007305
  22 C :    0.149924
  23 H :    0.012480
  24 H :    0.023785
  25 C :   -0.088470
  26 H :    0.028803
  27 H :    0.038126
  28 C :   -0.077749
  29 H :    0.040696
  30 H :    0.015781
  31 H :    0.038178
  32 H :    0.041767
  33 H :    0.065707
Sum of atomic charges:    0.0000000

LOEWDIN ATOMIC CHARGES
----------------------
   0 S :    0.416414
   1 C :   -0.206920
   2 C :   -0.055415
   3 C :   -0.058229
   4 C :   -0.198230
   5 H :    0.011429
   6 C :   -0.032987
   7 H :    0.030301
   8 H :    0.040851
   9 C :   -0.030805
  10 H :    0.019858
  11 H :    0.020521
  12 C :   -0.066940
  13 H :    0.029628
  14 H :    0.029824
  15 H :    0.018337
  16 S :    0.412486
  17 C :   -0.188330
  18 C :   -0.068587
  19 C :   -0.058779
  20 C :   -0.204157
  21 H :    0.025040
  22 C :   -0.014097
  23 H :    0.032195
  24 H :    0.025806
  25 C :   -0.041411
  26 H :    0.026791
  27 H :    0.024293
  28 C :   -0.077728
  29 H :    0.027367
  30 H :    0.021492
  31 H :    0.029177
  32 H :    0.024154
  33 H :    0.036647

  Mayer bond orders larger than 0.100000
B(  0-S ,  1-C ) :   1.1253 B(  0-S ,  4-C ) :   1.1770 B(  1-C ,  2-C ) :   1.6050
B(  1-C , 32-H ) :   0.9722 B(  2-C ,  3-C ) :   1.2412 B(  2-C ,  6-C ) :   1.0288
B(  3-C ,  4-C ) :   1.5310 B(  3-C ,  5-H ) :   0.9981 B(  4-C , 20-C ) :   1.0474
B(  6-C ,  7-H ) :   0.9383 B(  6-C ,  8-H ) :   0.9381 B(  6-C ,  9-C ) :   1.0681
B(  9-C , 10-H ) :   0.9501 B(  9-C , 11-H ) :   0.9605 B(  9-C , 12-C ) :   1.0809
B( 12-C , 13-H ) :   0.9743 B( 12-C , 14-H ) :   0.9767 B( 12-C , 15-H ) :   0.9740
B( 16-S , 17-C ) :   1.1343 B( 16-S , 20-C ) :   1.1584 B( 17-C , 18-C ) :   1.6222
B( 17-C , 33-H ) :   0.9701 B( 18-C , 19-C ) :   1.2283 B( 18-C , 21-H ) :   0.9894
B( 19-C , 20-C ) :   1.6088 B( 19-C , 22-C ) :   1.0194 B( 22-C , 23-H ) :   0.9328
B( 22-C , 24-H ) :   0.9255 B( 22-C , 25-C ) :   1.0816 B( 25-C , 26-H ) :   0.9534
B( 25-C , 27-H ) :   0.9519 B( 25-C , 28-C ) :   1.0637 B( 28-C , 29-H ) :   0.9771
B( 28-C , 30-H ) :   0.9723 B( 28-C , 31-H ) :   0.9772

Dispersion correction           -0.013977791
FINAL SINGLE POINT ENERGY     -1339.882511388861

DIPOLE MOMENT
-------------
                                X             Y             Z
Electronic contribution:    -27.60658      -5.05099       3.79016
Nuclear contribution   :     28.14480       5.30007      -3.84139
                        -----------------------------------------
Total Dipole Moment    :      0.53822       0.24908      -0.05124
                        -----------------------------------------
Magnitude (a.u.)       :      0.59527
Magnitude (Debye)      :      1.51306

Rotational constants in cm-1:     0.018338     0.008490     0.006564
Rotational constants in MHz :   549.756803   254.520635   196.771727

                             ****ORCA TERMINATED NORMALLY****
TOTAL RUN TIME: 0 days 0 hours 0 minutes 21 seconds 454 msec
