                         Program Version 4.2.1 -  RELEASE  -
|  1> ! wB97X-D3 SP def2-SVP
|  2> %pal
|  3> nprocs 24
|  4> end
|  5>
|  6> * xyz 0 1
|  7> S 	 -142.861 	 13.6336 	 -5.72899
|  8> C 	 -143.456 	 14.3036 	 -7.21571
|  9> C 	 -144.157 	 13.2939 	 -7.90258
| 10> C 	 -144.217 	 12.0388 	 -7.16528
| 11> C 	 -143.489 	 12.0142 	 -5.98181
| 12> H 	 -144.732 	 11.1698 	 -7.50631
| 13> C 	 -144.86 	 13.5016 	 -9.16991
| 14> H 	 -144.717 	 14.4812 	 -9.52365
| 15> H 	 -145.914 	 13.3947 	 -8.9242
| 16> C 	 -144.473 	 12.4898 	 -10.2216
| 17> H 	 -143.417 	 12.4319 	 -10.3832
| 18> H 	 -144.765 	 11.509 	 -9.90897
| 19> C 	 -144.988 	 12.9068 	 -11.5994
| 20> H 	 -145.993 	 12.6058 	 -11.7488
| 21> H 	 -144.786 	 14.0051 	 -11.6224
| 22> H 	 -144.348 	 12.5103 	 -12.4167
| 23> S 	 -141.646 	 10.7427 	 -4.49683
| 24> C 	 -142.011 	 9.21318 	 -3.66332
| 25> C 	 -143.303 	 8.83691 	 -3.96408
| 26> C 	 -143.984 	 9.72416 	 -4.88688
| 27> C 	 -143.24 	 10.8488 	 -5.17158
| 28> H 	 -143.689 	 7.95422 	 -3.53928
| 29> C 	 -145.329 	 9.30276 	 -5.38699
| 30> H 	 -145.844 	 10.1462 	 -5.76301
| 31> H 	 -145.945 	 8.96419 	 -4.59853
| 32> C 	 -145.238 	 8.16458 	 -6.48603
| 33> H 	 -144.631 	 7.32521 	 -6.11254
| 34> H 	 -144.783 	 8.43558 	 -7.44391
| 35> C 	 -146.545 	 7.41917 	 -6.81601
| 36> H 	 -147.194 	 8.01527 	 -7.5138
| 37> H 	 -147.125 	 7.36195 	 -5.83543
| 38> H 	 -146.504 	 6.3736 	 -7.10474
| 39> H 	 -143.243 	 15.3167 	 -7.60805
| 40> H 	 -141.354 	 8.59317 	 -3.01562
| 41> *
| 42>
| 43>                          ****END OF INPUT****

CARTESIAN COORDINATES (ANGSTROEM)
---------------------------------
  S    -142.861000   13.633600   -5.728990
  C    -143.456000   14.303600   -7.215710
  C    -144.157000   13.293900   -7.902580
  C    -144.217000   12.038800   -7.165280
  C    -143.489000   12.014200   -5.981810
  H    -144.732000   11.169800   -7.506310
  C    -144.860000   13.501600   -9.169910
  H    -144.717000   14.481200   -9.523650
  H    -145.914000   13.394700   -8.924200
  C    -144.473000   12.489800  -10.221600
  H    -143.417000   12.431900  -10.383200
  H    -144.765000   11.509000   -9.908970
  C    -144.988000   12.906800  -11.599400
  H    -145.993000   12.605800  -11.748800
  H    -144.786000   14.005100  -11.622400
  H    -144.348000   12.510300  -12.416700
  S    -141.646000   10.742700   -4.496830
  C    -142.011000    9.213180   -3.663320
  C    -143.303000    8.836910   -3.964080
  C    -143.984000    9.724160   -4.886880
  C    -143.240000   10.848800   -5.171580
  H    -143.689000    7.954220   -3.539280
  C    -145.329000    9.302760   -5.386990
  H    -145.844000   10.146200   -5.763010
  H    -145.945000    8.964190   -4.598530
  C    -145.238000    8.164580   -6.486030
  H    -144.631000    7.325210   -6.112540
  H    -144.783000    8.435580   -7.443910
  C    -146.545000    7.419170   -6.816010
  H    -147.194000    8.015270   -7.513800
  H    -147.125000    7.361950   -5.835430
  H    -146.504000    6.373600   -7.104740
  H    -143.243000   15.316700   -7.608050
  H    -141.354000    8.593170   -3.015620

 Total Charge           Charge          ....    0
 Multiplicity           Mult            ....    1
 Number of Electrons    NEL             ....  134
 Basis Dimension        Dim             ....  322

ORBITAL ENERGIES
----------------

  NO   OCC          E(Eh)            E(eV)
   0   2.0000     -88.965519     -2420.8749
   1   2.0000     -88.965308     -2420.8691
   2   2.0000     -10.332361      -281.1578
   3   2.0000     -10.329544      -281.0812
   4   2.0000     -10.322030      -280.8767
   5   2.0000     -10.318091      -280.7695
   6   2.0000     -10.305231      -280.4196
   7   2.0000     -10.301836      -280.3272
   8   2.0000     -10.293890      -280.1110
   9   2.0000     -10.293538      -280.1014
  10   2.0000     -10.292579      -280.0753
  11   2.0000     -10.292551      -280.0746
  12   2.0000     -10.287071      -279.9254
  13   2.0000     -10.282137      -279.7912
  14   2.0000     -10.278688      -279.6973
  15   2.0000     -10.277906      -279.6760
  16   2.0000      -8.080031      -219.8688
  17   2.0000      -8.079896      -219.8651
  18   2.0000      -6.038738      -164.3224
  19   2.0000      -6.038590      -164.3184
  20   2.0000      -6.034392      -164.2042
  21   2.0000      -6.034313      -164.2020
  22   2.0000      -6.030830      -164.1072
  23   2.0000      -6.030480      -164.0977
  24   2.0000      -1.008025       -27.4298
  25   2.0000      -0.983335       -26.7579
  26   2.0000      -0.922615       -25.1056
  27   2.0000      -0.907219       -24.6867
  28   2.0000      -0.874766       -23.8036
  29   2.0000      -0.852122       -23.1874
  30   2.0000      -0.845751       -23.0141
  31   2.0000      -0.818661       -22.2769
  32   2.0000      -0.780198       -21.2303
  33   2.0000      -0.769975       -20.9521
  34   2.0000      -0.711953       -19.3732
  35   2.0000      -0.700264       -19.0551
  36   2.0000      -0.694089       -18.8871
  37   2.0000      -0.668127       -18.1807
  38   2.0000      -0.640305       -17.4236
  39   2.0000      -0.625362       -17.0170
  40   2.0000      -0.596476       -16.2309
  41   2.0000      -0.577265       -15.7082
  42   2.0000      -0.569445       -15.4954
  43   2.0000      -0.561457       -15.2780
  44   2.0000      -0.529241       -14.4014
  45   2.0000      -0.525264       -14.2932
  46   2.0000      -0.522297       -14.2124
  47   2.0000      -0.515782       -14.0352
  48   2.0000      -0.512358       -13.9420
  49   2.0000      -0.509164       -13.8551
  50   2.0000      -0.502943       -13.6858
  51   2.0000      -0.473554       -12.8861
  52   2.0000      -0.468237       -12.7414
  53   2.0000      -0.465770       -12.6742
  54   2.0000      -0.457897       -12.4600
  55   2.0000      -0.452584       -12.3154
  56   2.0000      -0.445105       -12.1119
  57   2.0000      -0.434759       -11.8304
  58   2.0000      -0.429664       -11.6918
  59   2.0000      -0.427585       -11.6352
  60   2.0000      -0.423016       -11.5109
  61   2.0000      -0.417007       -11.3474
  62   2.0000      -0.408076       -11.1043
  63   2.0000      -0.358590        -9.7577
  64   2.0000      -0.329539        -8.9672
  65   2.0000      -0.322787        -8.7835
  66   2.0000      -0.288556        -7.8520
  67   0.0000       0.024602         0.6695
  68   0.0000       0.081789         2.2256
  69   0.0000       0.112485         3.0609
  70   0.0000       0.117902         3.2083
  71   0.0000       0.126889         3.4528

MULLIKEN ATOMIC CHARGES
-----------------------
   0 S :    0.108717
   1 C :   -0.131595
   2 C :   -0.103147
   3 C :    0.012039
   4 C :   -0.118327
   5 H :   -0.003479
   6 C :    0.113686
   7 H :   -0.010936
   8 H :    0.037543
   9 C :   -0.086882
  10 H :    0.023720
  11 H :    0.019733
  12 C :   -0.038722
  13 H :    0.033979
  14 H :    0.028130
  15 H :    0.034166
  16 S :    0.099921
  17 C :   -0.098314
  18 C :   -0.020456
  19 C :   -0.052266
  20 C :   -0.132523
  21 H :    0.002331
  22 C :    0.124229
  23 H :    0.009886
  24 H :    0.010861
  25 C :   -0.085745
  26 H :    0.028230
  27 H :    0.037896
  28 C :   -0.085815
  29 H :    0.038886
  30 H :    0.021946
  31 H :    0.045796
  32 H :    0.066685
  33 H :    0.069826
Sum of atomic charges:    0.0000000

LOEWDIN ATOMIC CHARGES
----------------------
   0 S :    0.408997
   1 C :   -0.215233
   2 C :   -0.056268
   3 C :   -0.064547
   4 C :   -0.192676
   5 H :    0.022180
   6 C :   -0.030983
   7 H :    0.019322
   8 H :    0.038608
   9 C :   -0.038409
  10 H :    0.024486
  11 H :    0.016763
  12 C :   -0.061161
  13 H :    0.018321
  14 H :    0.030240
  15 H :    0.029174
  16 S :    0.401146
  17 C :   -0.183840
  18 C :   -0.060769
  19 C :   -0.055830
  20 C :   -0.193406
  21 H :    0.023443
  22 C :   -0.022367
  23 H :    0.023341
  24 H :    0.027964
  25 C :   -0.042917
  26 H :    0.027856
  27 H :    0.023759
  28 C :   -0.078559
  29 H :    0.025287
  30 H :    0.028060
  31 H :    0.026892
  32 H :    0.040120
  33 H :    0.041008

  Mayer bond orders larger than 0.100000
B(  0-S ,  1-C ) :   1.1324 B(  0-S ,  4-C ) :   1.1516 B(  1-C ,  2-C ) :   1.5803
B(  1-C , 32-H ) :   0.9664 B(  2-C ,  3-C ) :   1.2469 B(  2-C ,  6-C ) :   1.0527
B(  3-C ,  4-C ) :   1.5437 B(  3-C ,  5-H ) :   0.9947 B(  4-C , 20-C ) :   1.0708
B(  6-C ,  7-H ) :   0.9338 B(  6-C ,  8-H ) :   0.9276 B(  6-C ,  9-C ) :   1.0630
B(  9-C , 10-H ) :   0.9596 B(  9-C , 11-H ) :   0.9529 B(  9-C , 12-C ) :   1.0836
B( 12-C , 13-H ) :   0.9768 B( 12-C , 14-H ) :   0.9734 B( 12-C , 15-H ) :   0.9781
B( 16-S , 17-C ) :   1.1295 B( 16-S , 20-C ) :   1.1350 B( 17-C , 18-C ) :   1.6339
B( 17-C , 33-H ) :   0.9638 B( 18-C , 19-C ) :   1.2143 B( 18-C , 21-H ) :   0.9950
B( 19-C , 20-C ) :   1.6004 B( 19-C , 22-C ) :   1.0697 B( 22-C , 23-H ) :   0.9251
B( 22-C , 24-H ) :   0.9245 B( 22-C , 25-C ) :   1.0481 B( 25-C , 26-H ) :   0.9587
B( 25-C , 27-H ) :   0.9591 B( 25-C , 28-C ) :   1.0696 B( 28-C , 29-H ) :   0.9768
B( 28-C , 30-H ) :   0.9720 B( 28-C , 31-H ) :   0.9778

Dispersion correction           -0.013686652
FINAL SINGLE POINT ENERGY     -1339.874833087516

DIPOLE MOMENT
-------------
                                X             Y             Z
Electronic contribution:     19.31315      11.24705      22.42296
Nuclear contribution   :    -19.75486     -11.68229     -22.83463
                        -----------------------------------------
Total Dipole Moment    :     -0.44170      -0.43524      -0.41166
                        -----------------------------------------
Magnitude (a.u.)       :      0.74431
Magnitude (Debye)      :      1.89189

Rotational constants in cm-1:     0.016248     0.009357     0.006432
Rotational constants in MHz :   487.110786   280.514714   192.816306

                             ****ORCA TERMINATED NORMALLY****
TOTAL RUN TIME: 0 days 0 hours 0 minutes 20 seconds 223 msec
