                         Program Version 4.2.1 -  RELEASE  -
|  1> ! wB97X-D3 SP def2-SVP
|  2> %pal
|  3> nprocs 24
|  4> end
|  5>
|  6> * xyz 0 1
|  7> S 	 -108.506 	 49.8891 	 -90.8654
|  8> C 	 -108.077 	 48.6069 	 -89.8016
|  9> C 	 -108.429 	 48.8785 	 -88.5135
| 10> C 	 -109.157 	 50.1143 	 -88.3869
| 11> C 	 -109.446 	 50.6455 	 -89.592
| 12> H 	 -109.557 	 50.4894 	 -87.4407
| 13> C 	 -108.114 	 48.0395 	 -87.288
| 14> H 	 -107.98 	 47.0003 	 -87.5419
| 15> H 	 -108.95 	 48.1708 	 -86.7466
| 16> C 	 -106.881 	 48.478 	 -86.4222
| 17> H 	 -107.02 	 49.5789 	 -86.2058
| 18> H 	 -106.886 	 48.0202 	 -85.5007
| 19> C 	 -105.501 	 48.3288 	 -87.0614
| 20> H 	 -104.718 	 48.5192 	 -86.3619
| 21> H 	 -105.329 	 47.3088 	 -87.4243
| 22> H 	 -105.421 	 48.8086 	 -88.0141
| 23> S 	 -109.595 	 53.2668 	 -90.5266
| 24> C 	 -111.097 	 54.1211 	 -90.3495
| 25> C 	 -112.047 	 53.3417 	 -89.8254
| 26> C 	 -111.663 	 51.9754 	 -89.4823
| 27> C 	 -110.322 	 51.8404 	 -89.7311
| 28> H 	 -113.018 	 53.7692 	 -89.7356
| 29> C 	 -112.741 	 50.932 	 -89.208
| 30> H 	 -113.515 	 51.3954 	 -88.5765
| 31> H 	 -112.282 	 50.1889 	 -88.5475
| 32> C 	 -113.259 	 50.1953 	 -90.4525
| 33> H 	 -112.608 	 49.9766 	 -91.2066
| 34> H 	 -113.758 	 51.0492 	 -90.9984
| 35> C 	 -114.24 	 49.0731 	 -90.2515
| 36> H 	 -114.374 	 48.4255 	 -91.1287
| 37> H 	 -115.19 	 49.4181 	 -89.8984
| 38> H 	 -113.944 	 48.2559 	 -89.6332
| 39> H 	 -107.263 	 47.9285 	 -89.9815
| 40> H 	 -111.32 	 55.1285 	 -90.4842
| 41> *
| 42>
| 43>                          ****END OF INPUT****

CARTESIAN COORDINATES (ANGSTROEM)
---------------------------------
  S    -108.506000   49.889100  -90.865400
  C    -108.077000   48.606900  -89.801600
  C    -108.429000   48.878500  -88.513500
  C    -109.157000   50.114300  -88.386900
  C    -109.446000   50.645500  -89.592000
  H    -109.557000   50.489400  -87.440700
  C    -108.114000   48.039500  -87.288000
  H    -107.980000   47.000300  -87.541900
  H    -108.950000   48.170800  -86.746600
  C    -106.881000   48.478000  -86.422200
  H    -107.020000   49.578900  -86.205800
  H    -106.886000   48.020200  -85.500700
  C    -105.501000   48.328800  -87.061400
  H    -104.718000   48.519200  -86.361900
  H    -105.329000   47.308800  -87.424300
  H    -105.421000   48.808600  -88.014100
  S    -109.595000   53.266800  -90.526600
  C    -111.097000   54.121100  -90.349500
  C    -112.047000   53.341700  -89.825400
  C    -111.663000   51.975400  -89.482300
  C    -110.322000   51.840400  -89.731100
  H    -113.018000   53.769200  -89.735600
  C    -112.741000   50.932000  -89.208000
  H    -113.515000   51.395400  -88.576500
  H    -112.282000   50.188900  -88.547500
  C    -113.259000   50.195300  -90.452500
  H    -112.608000   49.976600  -91.206600
  H    -113.758000   51.049200  -90.998400
  C    -114.240000   49.073100  -90.251500
  H    -114.374000   48.425500  -91.128700
  H    -115.190000   49.418100  -89.898400
  H    -113.944000   48.255900  -89.633200
  H    -107.263000   47.928500  -89.981500
  H    -111.320000   55.128500  -90.484200

 Total Charge           Charge          ....    0
 Multiplicity           Mult            ....    1
 Number of Electrons    NEL             ....  134
 Basis Dimension        Dim             ....  322

ORBITAL ENERGIES
----------------

  NO   OCC          E(Eh)            E(eV)
   0   2.0000     -88.965119     -2420.8640
   1   2.0000     -88.963791     -2420.8278
   2   2.0000     -10.330265      -281.1008
   3   2.0000     -10.326844      -281.0077
   4   2.0000     -10.306319      -280.4492
   5   2.0000     -10.306099      -280.4432
   6   2.0000     -10.305739      -280.4334
   7   2.0000     -10.296928      -280.1937
   8   2.0000     -10.296914      -280.1933
   9   2.0000     -10.290563      -280.0204
  10   2.0000     -10.285652      -279.8868
  11   2.0000     -10.285257      -279.8761
  12   2.0000     -10.283581      -279.8305
  13   2.0000     -10.281079      -279.7624
  14   2.0000     -10.272366      -279.5253
  15   2.0000     -10.272082      -279.5176
  16   2.0000      -8.080415      -219.8793
  17   2.0000      -8.078444      -219.8256
  18   2.0000      -6.039000      -164.3295
  19   2.0000      -6.037090      -164.2776
  20   2.0000      -6.035007      -164.2209
  21   2.0000      -6.033145      -164.1702
  22   2.0000      -6.030891      -164.1089
  23   2.0000      -6.028880      -164.0542
  24   2.0000      -1.009070       -27.4582
  25   2.0000      -0.988012       -26.8852
  26   2.0000      -0.909551       -24.7502
  27   2.0000      -0.909086       -24.7375
  28   2.0000      -0.871275       -23.7086
  29   2.0000      -0.853273       -23.2187
  30   2.0000      -0.848795       -23.0969
  31   2.0000      -0.819962       -22.3123
  32   2.0000      -0.787291       -21.4233
  33   2.0000      -0.779517       -21.2117
  34   2.0000      -0.713571       -19.4172
  35   2.0000      -0.705006       -19.1842
  36   2.0000      -0.698350       -19.0031
  37   2.0000      -0.659011       -17.9326
  38   2.0000      -0.639505       -17.4018
  39   2.0000      -0.621381       -16.9086
  40   2.0000      -0.596000       -16.2180
  41   2.0000      -0.569417       -15.4946
  42   2.0000      -0.560747       -15.2587
  43   2.0000      -0.552864       -15.0442
  44   2.0000      -0.544433       -14.8148
  45   2.0000      -0.525437       -14.2979
  46   2.0000      -0.522490       -14.2177
  47   2.0000      -0.512550       -13.9472
  48   2.0000      -0.505642       -13.7592
  49   2.0000      -0.498074       -13.5533
  50   2.0000      -0.487113       -13.2550
  51   2.0000      -0.485686       -13.2162
  52   2.0000      -0.471802       -12.8384
  53   2.0000      -0.470665       -12.8074
  54   2.0000      -0.454883       -12.3780
  55   2.0000      -0.452755       -12.3201
  56   2.0000      -0.444959       -12.1080
  57   2.0000      -0.443547       -12.0695
  58   2.0000      -0.437282       -11.8990
  59   2.0000      -0.426532       -11.6065
  60   2.0000      -0.422764       -11.5040
  61   2.0000      -0.410840       -11.1795
  62   2.0000      -0.398596       -10.8464
  63   2.0000      -0.346460        -9.4277
  64   2.0000      -0.330254        -8.9867
  65   2.0000      -0.327446        -8.9103
  66   2.0000      -0.302292        -8.2258
  67   0.0000       0.037073         1.0088
  68   0.0000       0.068597         1.8666
  69   0.0000       0.109511         2.9800
  70   0.0000       0.125578         3.4171
  71   0.0000       0.133129         3.6226

MULLIKEN ATOMIC CHARGES
-----------------------
   0 S :    0.109286
   1 C :   -0.095855
   2 C :   -0.137155
   3 C :    0.033733
   4 C :   -0.142187
   5 H :    0.022187
   6 C :    0.128543
   7 H :    0.020075
   8 H :   -0.006349
   9 C :   -0.061867
  10 H :    0.027823
  11 H :    0.015930
  12 C :   -0.032473
  13 H :    0.038449
  14 H :    0.005690
  15 H :    0.027252
  16 S :    0.097799
  17 C :   -0.041356
  18 C :   -0.046176
  19 C :   -0.033938
  20 C :   -0.186427
  21 H :    0.003354
  22 C :    0.091881
  23 H :    0.029101
  24 H :    0.013761
  25 C :   -0.025605
  26 H :    0.007047
  27 H :    0.013426
  28 C :   -0.018663
  29 H :    0.024503
  30 H :    0.027957
  31 H :    0.016472
  32 H :    0.046180
  33 H :    0.027603
Sum of atomic charges:   -0.0000000

LOEWDIN ATOMIC CHARGES
----------------------
   0 S :    0.405932
   1 C :   -0.211811
   2 C :   -0.059219
   3 C :   -0.059883
   4 C :   -0.190573
   5 H :    0.035143
   6 C :   -0.017447
   7 H :    0.028515
   8 H :    0.015910
   9 C :   -0.030947
  10 H :    0.028860
  11 H :    0.012555
  12 C :   -0.066896
  13 H :    0.026594
  14 H :    0.021896
  15 H :    0.023561
  16 S :    0.383596
  17 C :   -0.179097
  18 C :   -0.069405
  19 C :   -0.051898
  20 C :   -0.174966
  21 H :    0.024826
  22 C :   -0.027955
  23 H :    0.033517
  24 H :    0.026815
  25 C :   -0.040246
  26 H :    0.017353
  27 H :    0.032948
  28 C :   -0.067738
  29 H :    0.034975
  30 H :    0.022374
  31 H :    0.023303
  32 H :    0.027053
  33 H :    0.022351

  Mayer bond orders larger than 0.100000
B(  0-S ,  1-C ) :   1.1225 B(  0-S ,  4-C ) :   1.1436 B(  1-C ,  2-C ) :   1.6484
B(  1-C , 32-H ) :   0.9597 B(  2-C ,  3-C ) :   1.2258 B(  2-C ,  6-C ) :   1.0199
B(  3-C ,  4-C ) :   1.6025 B(  3-C ,  5-H ) :   0.9899 B(  4-C , 20-C ) :   1.0079
B(  6-C ,  7-H ) :   0.9454 B(  6-C ,  8-H ) :   0.9255 B(  6-C ,  9-C ) :   1.0768
B(  9-C , 10-H ) :   0.9539 B(  9-C , 11-H ) :   0.9570 B(  9-C , 12-C ) :   1.0791
B( 12-C , 13-H ) :   0.9735 B( 12-C , 14-H ) :   0.9699 B( 12-C , 15-H ) :   0.9734
B( 16-S , 17-C ) :   1.1157 B( 16-S , 20-C ) :   1.1299 B( 17-C , 18-C ) :   1.6935
B( 17-C , 33-H ) :   0.9660 B( 18-C , 19-C ) :   1.1835 B( 18-C , 21-H ) :   0.9870
B( 19-C , 20-C ) :   1.6562 B( 19-C , 22-C ) :   1.0532 B( 22-C , 23-H ) :   0.9338
B( 22-C , 24-H ) :   0.9244 B( 22-C , 25-C ) :   1.0496 B( 25-C , 26-H ) :   0.9571
B( 25-C , 27-H ) :   0.9458 B( 25-C , 28-C ) :   1.0874 B( 28-C , 29-H ) :   0.9680
B( 28-C , 30-H ) :   0.9762 B( 28-C , 31-H ) :   0.9703

Dispersion correction           -0.014383352
FINAL SINGLE POINT ENERGY     -1339.851468482542

DIPOLE MOMENT
-------------
                                X             Y             Z
Electronic contribution:      5.77830      16.06019     -12.96123
Nuclear contribution   :     -6.08739     -16.29731      13.42361
                        -----------------------------------------
Total Dipole Moment    :     -0.30909      -0.23712       0.46238
                        -----------------------------------------
Magnitude (a.u.)       :      0.60462
Magnitude (Debye)      :      1.53682

Rotational constants in cm-1:     0.019293     0.008150     0.006848
Rotational constants in MHz :   578.378409   244.335117   205.289190

                             ****ORCA TERMINATED NORMALLY****
TOTAL RUN TIME: 0 days 0 hours 0 minutes 21 seconds 421 msec
