                         Program Version 4.2.1 -  RELEASE  -
|  1> ! wB97X-D3 SP def2-SVP
|  2> %pal
|  3> nprocs 24
|  4> end
|  5>
|  6> * xyz 0 1
|  7> S 	 -120.635 	 49.1857 	 -31.6327
|  8> C 	 -120.818 	 48.1263 	 -30.202
|  9> C 	 -120.536 	 46.8088 	 -30.525
| 10> C 	 -120.256 	 46.6964 	 -31.9573
| 11> C 	 -120.33 	 47.8839 	 -32.6664
| 12> H 	 -120.015 	 45.7885 	 -32.5452
| 13> C 	 -120.564 	 45.5623 	 -29.6275
| 14> H 	 -121.428 	 44.9484 	 -29.9425
| 15> H 	 -120.669 	 45.7855 	 -28.5645
| 16> C 	 -119.291 	 44.7004 	 -29.7581
| 17> H 	 -119.078 	 44.3917 	 -30.7402
| 18> H 	 -118.401 	 45.2582 	 -29.403
| 19> C 	 -119.468 	 43.4114 	 -28.9513
| 20> H 	 -118.598 	 42.6563 	 -29.1753
| 21> H 	 -119.533 	 43.548 	 -27.7691
| 22> H 	 -120.379 	 42.8446 	 -29.3058
| 23> S 	 -120.226 	 46.7147 	 -35.2104
| 24> C 	 -119.224 	 47.4419 	 -36.5234
| 25> C 	 -118.684 	 48.5858 	 -36.0547
| 26> C 	 -119.1 	 49.0031 	 -34.7082
| 27> C 	 -119.813 	 48.0468 	 -34.0113
| 28> H 	 -117.936 	 49.0765 	 -36.6831
| 29> C 	 -118.433 	 50.1895 	 -33.9742
| 30> H 	 -119.216 	 50.7373 	 -33.3541
| 31> H 	 -118.238 	 50.7654 	 -34.8889
| 32> C 	 -117.064 	 49.8762 	 -33.2264
| 33> H 	 -116.359 	 49.309 	 -33.8657
| 34> H 	 -117.382 	 49.2776 	 -32.3849
| 35> C 	 -116.34 	 51.0887 	 -32.6563
| 36> H 	 -115.968 	 51.7761 	 -33.4346
| 37> H 	 -115.493 	 50.5994 	 -32.1441
| 38> H 	 -117.014 	 51.645 	 -32.0076
| 39> H 	 -121.212 	 48.454 	 -29.2524
| 40> H 	 -118.844 	 46.9569 	 -37.4508
| 41> *
| 42>
| 43>                          ****END OF INPUT****

CARTESIAN COORDINATES (ANGSTROEM)
---------------------------------
  S    -120.635000   49.185700  -31.632700
  C    -120.818000   48.126300  -30.202000
  C    -120.536000   46.808800  -30.525000
  C    -120.256000   46.696400  -31.957300
  C    -120.330000   47.883900  -32.666400
  H    -120.015000   45.788500  -32.545200
  C    -120.564000   45.562300  -29.627500
  H    -121.428000   44.948400  -29.942500
  H    -120.669000   45.785500  -28.564500
  C    -119.291000   44.700400  -29.758100
  H    -119.078000   44.391700  -30.740200
  H    -118.401000   45.258200  -29.403000
  C    -119.468000   43.411400  -28.951300
  H    -118.598000   42.656300  -29.175300
  H    -119.533000   43.548000  -27.769100
  H    -120.379000   42.844600  -29.305800
  S    -120.226000   46.714700  -35.210400
  C    -119.224000   47.441900  -36.523400
  C    -118.684000   48.585800  -36.054700
  C    -119.100000   49.003100  -34.708200
  C    -119.813000   48.046800  -34.011300
  H    -117.936000   49.076500  -36.683100
  C    -118.433000   50.189500  -33.974200
  H    -119.216000   50.737300  -33.354100
  H    -118.238000   50.765400  -34.888900
  C    -117.064000   49.876200  -33.226400
  H    -116.359000   49.309000  -33.865700
  H    -117.382000   49.277600  -32.384900
  C    -116.340000   51.088700  -32.656300
  H    -115.968000   51.776100  -33.434600
  H    -115.493000   50.599400  -32.144100
  H    -117.014000   51.645000  -32.007600
  H    -121.212000   48.454000  -29.252400
  H    -118.844000   46.956900  -37.450800

 Total Charge           Charge          ....    0
 Multiplicity           Mult            ....    1
 Number of Electrons    NEL             ....  134
 Basis Dimension        Dim             ....  322

ORBITAL ENERGIES
----------------

  NO   OCC          E(Eh)            E(eV)
   0   2.0000     -88.970898     -2421.0212
   1   2.0000     -88.958971     -2420.6967
   2   2.0000     -10.336109      -281.2598
   3   2.0000     -10.331444      -281.1329
   4   2.0000     -10.322534      -280.8904
   5   2.0000     -10.321354      -280.8583
   6   2.0000     -10.313870      -280.6547
   7   2.0000     -10.307706      -280.4870
   8   2.0000     -10.301777      -280.3256
   9   2.0000     -10.301275      -280.3119
  10   2.0000     -10.301078      -280.3066
  11   2.0000     -10.297943      -280.2213
  12   2.0000     -10.297408      -280.2067
  13   2.0000     -10.288982      -279.9774
  14   2.0000     -10.288315      -279.9593
  15   2.0000     -10.278402      -279.6895
  16   2.0000      -8.085702      -220.0231
  17   2.0000      -8.071815      -219.6452
  18   2.0000      -6.044317      -164.4742
  19   2.0000      -6.040160      -164.3611
  20   2.0000      -6.036371      -164.2580
  21   2.0000      -6.030795      -164.1063
  22   2.0000      -6.026651      -163.9935
  23   2.0000      -6.022110      -163.8700
  24   2.0000      -1.007338       -27.4111
  25   2.0000      -0.975345       -26.5405
  26   2.0000      -0.915138       -24.9022
  27   2.0000      -0.896744       -24.4016
  28   2.0000      -0.874104       -23.7856
  29   2.0000      -0.848511       -23.0891
  30   2.0000      -0.842197       -22.9173
  31   2.0000      -0.812402       -22.1066
  32   2.0000      -0.778077       -21.1726
  33   2.0000      -0.765267       -20.8240
  34   2.0000      -0.708624       -19.2826
  35   2.0000      -0.695033       -18.9128
  36   2.0000      -0.685987       -18.6667
  37   2.0000      -0.666477       -18.1358
  38   2.0000      -0.635441       -17.2912
  39   2.0000      -0.617400       -16.8003
  40   2.0000      -0.583360       -15.8740
  41   2.0000      -0.569840       -15.5061
  42   2.0000      -0.569279       -15.4909
  43   2.0000      -0.558007       -15.1841
  44   2.0000      -0.529163       -14.3993
  45   2.0000      -0.520000       -14.1499
  46   2.0000      -0.518630       -14.1126
  47   2.0000      -0.514263       -13.9938
  48   2.0000      -0.505983       -13.7685
  49   2.0000      -0.499382       -13.5889
  50   2.0000      -0.482190       -13.1211
  51   2.0000      -0.476352       -12.9622
  52   2.0000      -0.470967       -12.8157
  53   2.0000      -0.464288       -12.6339
  54   2.0000      -0.454961       -12.3801
  55   2.0000      -0.449291       -12.2258
  56   2.0000      -0.438654       -11.9364
  57   2.0000      -0.435419       -11.8484
  58   2.0000      -0.431946       -11.7539
  59   2.0000      -0.428502       -11.6601
  60   2.0000      -0.419601       -11.4179
  61   2.0000      -0.415469       -11.3055
  62   2.0000      -0.395784       -10.7698
  63   2.0000      -0.360614        -9.8128
  64   2.0000      -0.333087        -9.0638
  65   2.0000      -0.324784        -8.8378
  66   2.0000      -0.291545        -7.9333
  67   0.0000       0.019564         0.5324
  68   0.0000       0.081590         2.2202
  69   0.0000       0.102972         2.8020
  70   0.0000       0.116473         3.1694
  71   0.0000       0.120693         3.2842

MULLIKEN ATOMIC CHARGES
-----------------------
   0 S :    0.089470
   1 C :   -0.125919
   2 C :   -0.047149
   3 C :   -0.031160
   4 C :   -0.087012
   5 H :    0.035180
   6 C :    0.064691
   7 H :    0.045366
   8 H :    0.023181
   9 C :   -0.060421
  10 H :    0.025886
  11 H :    0.041885
  12 C :   -0.137345
  13 H :    0.050100
  14 H :    0.054188
  15 H :    0.040280
  16 S :    0.045170
  17 C :   -0.089644
  18 C :   -0.049862
  19 C :   -0.061225
  20 C :   -0.116224
  21 H :    0.028110
  22 C :   -0.015615
  23 H :    0.053223
  24 H :    0.022611
  25 C :   -0.057635
  26 H :    0.033537
  27 H :    0.032258
  28 C :   -0.043495
  29 H :    0.034803
  30 H :    0.043784
  31 H :    0.034793
  32 H :    0.047826
  33 H :    0.076362
Sum of atomic charges:   -0.0000000

LOEWDIN ATOMIC CHARGES
----------------------
   0 S :    0.425387
   1 C :   -0.185266
   2 C :   -0.054846
   3 C :   -0.065647
   4 C :   -0.214753
   5 H :    0.030805
   6 C :   -0.028142
   7 H :    0.038060
   8 H :    0.030227
   9 C :   -0.042059
  10 H :    0.017922
  11 H :    0.031331
  12 C :   -0.087385
  13 H :    0.035393
  14 H :    0.034986
  15 H :    0.027099
  16 S :    0.331390
  17 C :   -0.176933
  18 C :   -0.073693
  19 C :   -0.071041
  20 C :   -0.150045
  21 H :    0.034317
  22 C :   -0.049363
  23 H :    0.028161
  24 H :    0.027588
  25 C :   -0.037332
  26 H :    0.027529
  27 H :    0.023583
  28 C :   -0.064864
  29 H :    0.024577
  30 H :    0.034151
  31 H :    0.024794
  32 H :    0.028227
  33 H :    0.045843

  Mayer bond orders larger than 0.100000
B(  0-S ,  1-C ) :   1.1243 B(  0-S ,  4-C ) :   1.1510 B(  1-C ,  2-C ) :   1.6192
B(  1-C , 32-H ) :   0.9729 B(  2-C ,  3-C ) :   1.2271 B(  2-C ,  6-C ) :   1.0207
B(  3-C ,  4-C ) :   1.5601 B(  3-C ,  5-H ) :   0.9804 B(  4-C , 20-C ) :   1.0507
B(  6-C ,  7-H ) :   0.9399 B(  6-C ,  8-H ) :   0.9480 B(  6-C ,  9-C ) :   1.0604
B(  9-C , 10-H ) :   0.9525 B(  9-C , 11-H ) :   0.9545 B(  9-C , 12-C ) :   1.0801
B( 12-C , 13-H ) :   0.9732 B( 12-C , 14-H ) :   0.9719 B( 12-C , 15-H ) :   0.9713
B( 16-S , 17-C ) :   1.1058 B( 16-S , 20-C ) :   1.0957 B( 17-C , 18-C ) :   1.6966
B( 17-C , 33-H ) :   0.9556 B( 18-C , 19-C ) :   1.1828 B( 18-C , 21-H ) :   0.9801
B( 19-C , 20-C ) :   1.6330 B( 19-C , 22-C ) :   1.0411 B( 22-C , 23-H ) :   0.9387
B( 22-C , 24-H ) :   0.9340 B( 22-C , 25-C ) :   1.0438 B( 25-C , 26-H ) :   0.9577
B( 25-C , 27-H ) :   0.9553 B( 25-C , 28-C ) :   1.0813 B( 28-C , 29-H ) :   0.9767
B( 28-C , 30-H ) :   0.9735 B( 28-C , 31-H ) :   0.9748

Dispersion correction           -0.013971244
FINAL SINGLE POINT ENERGY     -1339.865904439569

DIPOLE MOMENT
-------------
                                X             Y             Z
Electronic contribution:    -14.33011       4.78251     -14.08943
Nuclear contribution   :     14.84100      -4.94918      14.41899
                        -----------------------------------------
Total Dipole Moment    :      0.51090      -0.16668       0.32956
                        -----------------------------------------
Magnitude (a.u.)       :      0.63040
Magnitude (Debye)      :      1.60236

Rotational constants in cm-1:     0.017414     0.008394     0.006990
Rotational constants in MHz :   522.065788   251.639350   209.565518

                             ****ORCA TERMINATED NORMALLY****
TOTAL RUN TIME: 0 days 0 hours 0 minutes 20 seconds 18 msec
