                         Program Version 4.2.1 -  RELEASE  -
|  1> ! wB97X-D3 SP def2-SVP
|  2> %pal
|  3> nprocs 24
|  4> end
|  5>
|  6> * xyz 0 1
|  7> S 	 -87.691 	 -1.01628 	 -63.4234
|  8> C 	 -88.2919 	 0.694729 	 -63.5718
|  9> C 	 -87.9405 	 1.35791 	 -62.421
| 10> C 	 -87.2504 	 0.539587 	 -61.4793
| 11> C 	 -87.1746 	 -0.792293 	 -61.7514
| 12> H 	 -86.8986 	 0.947354 	 -60.5637
| 13> C 	 -88.0775 	 2.7993 	 -62.1348
| 14> H 	 -88.7501 	 2.92661 	 -61.2676
| 15> H 	 -88.6671 	 3.24083 	 -62.9075
| 16> C 	 -86.7807 	 3.63831 	 -62.0103
| 17> H 	 -87.0124 	 4.6327 	 -61.6708
| 18> H 	 -86.056 	 3.16231 	 -61.3327
| 19> C 	 -86.0399 	 3.8814 	 -63.3507
| 20> H 	 -86.6321 	 4.37913 	 -64.1363
| 21> H 	 -85.2168 	 4.60238 	 -63.2205
| 22> H 	 -85.5573 	 2.93031 	 -63.7295
| 23> S 	 -85.2096 	 -2.65049 	 -62.0364
| 24> C 	 -84.6244 	 -3.43722 	 -60.6268
| 25> C 	 -85.5306 	 -3.34709 	 -59.5719
| 26> C 	 -86.4903 	 -2.33202 	 -59.747
| 27> C 	 -86.3847 	 -1.81719 	 -61.0365
| 28> H 	 -85.35 	 -3.99406 	 -58.6932
| 29> C 	 -87.5306 	 -2.01091 	 -58.6586
| 30> H 	 -87.6427 	 -2.93838 	 -58.0405
| 31> H 	 -88.5105 	 -1.65303 	 -58.9987
| 32> C 	 -87.0702 	 -0.942826 	 -57.6396
| 33> H 	 -87.939 	 -0.597874 	 -57.0374
| 34> H 	 -86.8207 	 -0.0323598 	 -58.0691
| 35> C 	 -85.9535 	 -1.4646 	 -56.6902
| 36> H 	 -86.2034 	 -2.41758 	 -56.2295
| 37> H 	 -85.7073 	 -0.851972 	 -55.8863
| 38> H 	 -85.0624 	 -1.75314 	 -57.2351
| 39> H 	 -88.5922 	 1.20403 	 -64.5191
| 40> H 	 -83.797 	 -4.04007 	 -60.6223
| 41> *
| 42>
| 43>                          ****END OF INPUT****

CARTESIAN COORDINATES (ANGSTROEM)
---------------------------------
  S    -87.691000   -1.016280  -63.423400
  C    -88.291900    0.694729  -63.571800
  C    -87.940500    1.357910  -62.421000
  C    -87.250400    0.539587  -61.479300
  C    -87.174600   -0.792293  -61.751400
  H    -86.898600    0.947354  -60.563700
  C    -88.077500    2.799300  -62.134800
  H    -88.750100    2.926610  -61.267600
  H    -88.667100    3.240830  -62.907500
  C    -86.780700    3.638310  -62.010300
  H    -87.012400    4.632700  -61.670800
  H    -86.056000    3.162310  -61.332700
  C    -86.039900    3.881400  -63.350700
  H    -86.632100    4.379130  -64.136300
  H    -85.216800    4.602380  -63.220500
  H    -85.557300    2.930310  -63.729500
  S    -85.209600   -2.650490  -62.036400
  C    -84.624400   -3.437220  -60.626800
  C    -85.530600   -3.347090  -59.571900
  C    -86.490300   -2.332020  -59.747000
  C    -86.384700   -1.817190  -61.036500
  H    -85.350000   -3.994060  -58.693200
  C    -87.530600   -2.010910  -58.658600
  H    -87.642700   -2.938380  -58.040500
  H    -88.510500   -1.653030  -58.998700
  C    -87.070200   -0.942826  -57.639600
  H    -87.939000   -0.597874  -57.037400
  H    -86.820700   -0.032360  -58.069100
  C    -85.953500   -1.464600  -56.690200
  H    -86.203400   -2.417580  -56.229500
  H    -85.707300   -0.851972  -55.886300
  H    -85.062400   -1.753140  -57.235100
  H    -88.592200    1.204030  -64.519100
  H    -83.797000   -4.040070  -60.622300

 Total Charge           Charge          ....    0
 Multiplicity           Mult            ....    1
 Number of Electrons    NEL             ....  134
 Basis Dimension        Dim             ....  322

ORBITAL ENERGIES
----------------

  NO   OCC          E(Eh)            E(eV)
   0   2.0000     -88.969056     -2420.9711
   1   2.0000     -88.961377     -2420.7621
   2   2.0000     -10.330228      -281.0998
   3   2.0000     -10.330113      -281.0967
   4   2.0000     -10.320704      -280.8406
   5   2.0000     -10.310950      -280.5752
   6   2.0000     -10.308900      -280.5194
   7   2.0000     -10.301393      -280.3152
   8   2.0000     -10.297387      -280.2062
   9   2.0000     -10.297096      -280.1982
  10   2.0000     -10.291868      -280.0560
  11   2.0000     -10.289045      -279.9792
  12   2.0000     -10.285860      -279.8925
  13   2.0000     -10.285638      -279.8864
  14   2.0000     -10.282660      -279.8054
  15   2.0000     -10.271151      -279.4922
  16   2.0000      -8.084377      -219.9871
  17   2.0000      -8.075100      -219.7346
  18   2.0000      -6.042648      -164.4288
  19   2.0000      -6.038980      -164.3290
  20   2.0000      -6.035162      -164.2251
  21   2.0000      -6.033905      -164.1909
  22   2.0000      -6.029837      -164.0802
  23   2.0000      -6.025503      -163.9623
  24   2.0000      -1.009090       -27.4587
  25   2.0000      -0.984425       -26.7876
  26   2.0000      -0.911466       -24.8022
  27   2.0000      -0.908307       -24.7163
  28   2.0000      -0.865936       -23.5633
  29   2.0000      -0.852436       -23.1960
  30   2.0000      -0.839060       -22.8320
  31   2.0000      -0.814232       -22.1564
  32   2.0000      -0.786631       -21.4053
  33   2.0000      -0.774506       -21.0754
  34   2.0000      -0.714052       -19.4303
  35   2.0000      -0.701817       -19.0974
  36   2.0000      -0.694148       -18.8887
  37   2.0000      -0.663672       -18.0594
  38   2.0000      -0.637933       -17.3590
  39   2.0000      -0.623521       -16.9669
  40   2.0000      -0.599900       -16.3241
  41   2.0000      -0.567644       -15.4464
  42   2.0000      -0.554576       -15.0908
  43   2.0000      -0.545790       -14.8517
  44   2.0000      -0.541410       -14.7325
  45   2.0000      -0.536547       -14.6002
  46   2.0000      -0.516344       -14.0504
  47   2.0000      -0.509006       -13.8507
  48   2.0000      -0.503794       -13.7089
  49   2.0000      -0.496747       -13.5172
  50   2.0000      -0.488186       -13.2842
  51   2.0000      -0.478568       -13.0225
  52   2.0000      -0.471425       -12.8281
  53   2.0000      -0.466033       -12.6814
  54   2.0000      -0.457063       -12.4373
  55   2.0000      -0.450371       -12.2552
  56   2.0000      -0.443958       -12.0807
  57   2.0000      -0.438973       -11.9451
  58   2.0000      -0.434817       -11.8320
  59   2.0000      -0.429907       -11.6984
  60   2.0000      -0.422598       -11.4995
  61   2.0000      -0.414752       -11.2860
  62   2.0000      -0.410025       -11.1573
  63   2.0000      -0.346405        -9.4261
  64   2.0000      -0.335519        -9.1299
  65   2.0000      -0.325543        -8.8585
  66   2.0000      -0.291780        -7.9397
  67   0.0000       0.027877         0.7586
  68   0.0000       0.060493         1.6461
  69   0.0000       0.102618         2.7924
  70   0.0000       0.123350         3.3565
  71   0.0000       0.131734         3.5847

MULLIKEN ATOMIC CHARGES
-----------------------
   0 S :    0.061987
   1 C :   -0.133950
   2 C :   -0.083945
   3 C :    0.023138
   4 C :   -0.102467
   5 H :   -0.005432
   6 C :    0.079920
   7 H :    0.038812
   8 H :   -0.003925
   9 C :   -0.056325
  10 H :    0.027974
  11 H :    0.038851
  12 C :   -0.097951
  13 H :    0.030727
  14 H :    0.032026
  15 H :    0.053323
  16 S :    0.124853
  17 C :   -0.064191
  18 C :   -0.059128
  19 C :    0.005263
  20 C :   -0.176643
  21 H :    0.032030
  22 C :    0.058255
  23 H :    0.033951
  24 H :    0.038485
  25 C :   -0.047191
  26 H :    0.025246
  27 H :    0.007893
  28 C :   -0.035525
  29 H :    0.007782
  30 H :    0.024342
  31 H :    0.030866
  32 H :    0.069921
  33 H :    0.021028
Sum of atomic charges:   -0.0000000

LOEWDIN ATOMIC CHARGES
----------------------
   0 S :    0.357606
   1 C :   -0.184974
   2 C :   -0.066905
   3 C :   -0.064854
   4 C :   -0.180852
   5 H :    0.021356
   6 C :   -0.036906
   7 H :    0.037633
   8 H :    0.024351
   9 C :   -0.034509
  10 H :    0.024134
  11 H :    0.026266
  12 C :   -0.076040
  13 H :    0.023279
  14 H :    0.027079
  15 H :    0.032722
  16 S :    0.426035
  17 C :   -0.179569
  18 C :   -0.070228
  19 C :   -0.053629
  20 C :   -0.191443
  21 H :    0.036273
  22 C :   -0.023642
  23 H :    0.037816
  24 H :    0.034742
  25 C :   -0.034708
  26 H :    0.028092
  27 H :    0.010352
  28 C :   -0.065144
  29 H :    0.021915
  30 H :    0.017597
  31 H :    0.025432
  32 H :    0.042197
  33 H :    0.008525

  Mayer bond orders larger than 0.100000
B(  0-S ,  1-C ) :   1.1064 B(  0-S ,  4-C ) :   1.1286 B(  1-C ,  2-C ) :   1.6264
B(  1-C , 32-H ) :   0.9595 B(  2-C ,  3-C ) :   1.2323 B(  2-C ,  6-C ) :   1.0389
B(  3-C ,  4-C ) :   1.5931 B(  3-C ,  5-H ) :   0.9967 B(  4-C , 20-C ) :   1.0297
B(  6-C ,  7-H ) :   0.9340 B(  6-C ,  8-H ) :   0.9334 B(  6-C ,  9-C ) :   1.0648
B(  9-C , 10-H ) :   0.9547 B(  9-C , 11-H ) :   0.9584 B(  9-C , 12-C ) :   1.0751
B( 12-C , 13-H ) :   0.9748 B( 12-C , 14-H ) :   0.9744 B( 12-C , 15-H ) :   0.9768
B( 16-S , 17-C ) :   1.1696 B( 16-S , 20-C ) :   1.1577 B( 17-C , 18-C ) :   1.5924
B( 17-C , 20-C ) :   0.1043 B( 17-C , 33-H ) :   0.9808 B( 18-C , 19-C ) :   1.2510
B( 18-C , 21-H ) :   0.9819 B( 19-C , 20-C ) :   1.5863 B( 19-C , 22-C ) :   1.0329
B( 22-C , 23-H ) :   0.9437 B( 22-C , 24-H ) :   0.9373 B( 22-C , 25-C ) :   1.0735
B( 25-C , 26-H ) :   0.9539 B( 25-C , 27-H ) :   0.9538 B( 25-C , 28-C ) :   1.0709
B( 28-C , 29-H ) :   0.9723 B( 28-C , 30-H ) :   0.9747 B( 28-C , 31-H ) :   0.9732

Dispersion correction           -0.014499944
FINAL SINGLE POINT ENERGY     -1339.867778957431

DIPOLE MOMENT
-------------
                                X             Y             Z
Electronic contribution:     -0.03361     -18.67971     -16.40091
Nuclear contribution   :      0.15153      19.10039      16.92967
                        -----------------------------------------
Total Dipole Moment    :      0.11792       0.42068       0.52876
                        -----------------------------------------
Magnitude (a.u.)       :      0.68590
Magnitude (Debye)      :      1.74342

Rotational constants in cm-1:     0.018820     0.008707     0.007061
Rotational constants in MHz :   564.219102   261.015237   211.687333

                             ****ORCA TERMINATED NORMALLY****
TOTAL RUN TIME: 0 days 0 hours 0 minutes 21 seconds 728 msec
