                         Program Version 4.2.1 -  RELEASE  -
|  1> ! wB97X-D3 SP def2-SVP
|  2> %pal
|  3> nprocs 24
|  4> end
|  5>
|  6> * xyz 0 1
|  7> S 	 -31.4065 	 10.5757 	 10.249
|  8> C 	 -31.702 	 12.3967 	 10.2503
|  9> C 	 -31.2876 	 12.9635 	 11.4536
| 10> C 	 -30.8703 	 11.9812 	 12.3386
| 11> C 	 -30.8079 	 10.696 	 11.8509
| 12> H 	 -30.3262 	 12.1155 	 13.2664
| 13> C 	 -31.3049 	 14.3995 	 11.9196
| 14> H 	 -31.3618 	 15.1054 	 11.0784
| 15> H 	 -30.3367 	 14.6006 	 12.3879
| 16> C 	 -32.3629 	 14.8548 	 12.975
| 17> H 	 -33.3756 	 14.9399 	 12.5957
| 18> H 	 -32.4667 	 13.9382 	 13.6612
| 19> C 	 -31.9528 	 16.0935 	 13.7477
| 20> H 	 -32.7004 	 16.4404 	 14.481
| 21> H 	 -31.0275 	 15.9118 	 14.3697
| 22> H 	 -31.786 	 16.8608 	 12.9849
| 23> S 	 -28.6034 	 9.0201 	 11.9083
| 24> C 	 -28.2796 	 8.09406 	 13.268
| 25> C 	 -29.3212 	 8.11775 	 14.1551
| 26> C 	 -30.42 	 8.91456 	 13.724
| 27> C 	 -30.1755 	 9.51716 	 12.5049
| 28> H 	 -29.2808 	 7.5746 	 15.1214
| 29> C 	 -31.5684 	 9.1963 	 14.6996
| 30> H 	 -31.8067 	 8.33051 	 15.338
| 31> H 	 -32.3856 	 9.35144 	 13.9968
| 32> C 	 -31.5539 	 10.4211 	 15.6467
| 33> H 	 -31.2394 	 11.3312 	 15.0823
| 34> H 	 -30.7557 	 10.253 	 16.3229
| 35> C 	 -32.9211 	 10.7156 	 16.2502
| 36> H 	 -33.6662 	 10.9834 	 15.4447
| 37> H 	 -32.8937 	 11.2948 	 17.1915
| 38> H 	 -33.298 	 9.74291 	 16.5383
| 39> H 	 -32.0758 	 12.8772 	 9.37004
| 40> H 	 -27.3467 	 7.51358 	 13.45
| 41> *
| 42>
| 43>                          ****END OF INPUT****

CARTESIAN COORDINATES (ANGSTROEM)
---------------------------------
  S    -31.406500   10.575700   10.249000
  C    -31.702000   12.396700   10.250300
  C    -31.287600   12.963500   11.453600
  C    -30.870300   11.981200   12.338600
  C    -30.807900   10.696000   11.850900
  H    -30.326200   12.115500   13.266400
  C    -31.304900   14.399500   11.919600
  H    -31.361800   15.105400   11.078400
  H    -30.336700   14.600600   12.387900
  C    -32.362900   14.854800   12.975000
  H    -33.375600   14.939900   12.595700
  H    -32.466700   13.938200   13.661200
  C    -31.952800   16.093500   13.747700
  H    -32.700400   16.440400   14.481000
  H    -31.027500   15.911800   14.369700
  H    -31.786000   16.860800   12.984900
  S    -28.603400    9.020100   11.908300
  C    -28.279600    8.094060   13.268000
  C    -29.321200    8.117750   14.155100
  C    -30.420000    8.914560   13.724000
  C    -30.175500    9.517160   12.504900
  H    -29.280800    7.574600   15.121400
  C    -31.568400    9.196300   14.699600
  H    -31.806700    8.330510   15.338000
  H    -32.385600    9.351440   13.996800
  C    -31.553900   10.421100   15.646700
  H    -31.239400   11.331200   15.082300
  H    -30.755700   10.253000   16.322900
  C    -32.921100   10.715600   16.250200
  H    -33.666200   10.983400   15.444700
  H    -32.893700   11.294800   17.191500
  H    -33.298000    9.742910   16.538300
  H    -32.075800   12.877200    9.370040
  H    -27.346700    7.513580   13.450000

 Total Charge           Charge          ....    0
 Multiplicity           Mult            ....    1
 Number of Electrons    NEL             ....  134
 Basis Dimension        Dim             ....  322

ORBITAL ENERGIES
----------------

  NO   OCC          E(Eh)            E(eV)
   0   2.0000     -88.967179     -2420.9200
   1   2.0000     -88.965188     -2420.8658
   2   2.0000     -10.328312      -281.0477
   3   2.0000     -10.326110      -280.9877
   4   2.0000     -10.322651      -280.8936
   5   2.0000     -10.314622      -280.6751
   6   2.0000     -10.305329      -280.4223
   7   2.0000     -10.303733      -280.3788
   8   2.0000     -10.297713      -280.2150
   9   2.0000     -10.292987      -280.0864
  10   2.0000     -10.291680      -280.0508
  11   2.0000     -10.290663      -280.0232
  12   2.0000     -10.287164      -279.9280
  13   2.0000     -10.286965      -279.9225
  14   2.0000     -10.284426      -279.8535
  15   2.0000     -10.283189      -279.8198
  16   2.0000      -8.081351      -219.9047
  17   2.0000      -8.081319      -219.9039
  18   2.0000      -6.039718      -164.3491
  19   2.0000      -6.039685      -164.3482
  20   2.0000      -6.035968      -164.2470
  21   2.0000      -6.035513      -164.2347
  22   2.0000      -6.032317      -164.1477
  23   2.0000      -6.032190      -164.1442
  24   2.0000      -1.011434       -27.5225
  25   2.0000      -0.988247       -26.8916
  26   2.0000      -0.911489       -24.8029
  27   2.0000      -0.908485       -24.7211
  28   2.0000      -0.868675       -23.6378
  29   2.0000      -0.854658       -23.2564
  30   2.0000      -0.846093       -23.0234
  31   2.0000      -0.810683       -22.0598
  32   2.0000      -0.782898       -21.3037
  33   2.0000      -0.772734       -21.0272
  34   2.0000      -0.703668       -19.1478
  35   2.0000      -0.698325       -19.0024
  36   2.0000      -0.692021       -18.8309
  37   2.0000      -0.658082       -17.9073
  38   2.0000      -0.648165       -17.6375
  39   2.0000      -0.620613       -16.8877
  40   2.0000      -0.597268       -16.2525
  41   2.0000      -0.568547       -15.4709
  42   2.0000      -0.565101       -15.3772
  43   2.0000      -0.556935       -15.1550
  44   2.0000      -0.527241       -14.3470
  45   2.0000      -0.523401       -14.2425
  46   2.0000      -0.517793       -14.0899
  47   2.0000      -0.513294       -13.9674
  48   2.0000      -0.504456       -13.7270
  49   2.0000      -0.498476       -13.5642
  50   2.0000      -0.486042       -13.2259
  51   2.0000      -0.479680       -13.0528
  52   2.0000      -0.468572       -12.7505
  53   2.0000      -0.465943       -12.6790
  54   2.0000      -0.459691       -12.5088
  55   2.0000      -0.453385       -12.3372
  56   2.0000      -0.444089       -12.0843
  57   2.0000      -0.435572       -11.8525
  58   2.0000      -0.432376       -11.7655
  59   2.0000      -0.426977       -11.6186
  60   2.0000      -0.421681       -11.4745
  61   2.0000      -0.411125       -11.1873
  62   2.0000      -0.410251       -11.1635
  63   2.0000      -0.338223        -9.2035
  64   2.0000      -0.336286        -9.1508
  65   2.0000      -0.329349        -8.9620
  66   2.0000      -0.301762        -8.2114
  67   0.0000       0.036438         0.9915
  68   0.0000       0.061983         1.6866
  69   0.0000       0.106244         2.8910
  70   0.0000       0.121953         3.3185
  71   0.0000       0.127664         3.4739

MULLIKEN ATOMIC CHARGES
-----------------------
   0 S :    0.098809
   1 C :   -0.139144
   2 C :   -0.031144
   3 C :    0.024425
   4 C :   -0.176159
   5 H :    0.026675
   6 C :    0.063519
   7 H :    0.021235
   8 H :    0.025120
   9 C :   -0.091837
  10 H :    0.031290
  11 H :    0.030922
  12 C :   -0.066694
  13 H :    0.044673
  14 H :    0.042335
  15 H :    0.038524
  16 S :    0.125957
  17 C :   -0.098759
  18 C :   -0.058429
  19 C :   -0.021568
  20 C :   -0.165430
  21 H :    0.027474
  22 C :    0.028924
  23 H :    0.027222
  24 H :    0.024694
  25 C :   -0.038384
  26 H :    0.014889
  27 H :    0.013596
  28 C :   -0.044691
  29 H :    0.048618
  30 H :    0.049661
  31 H :    0.008391
  32 H :    0.043255
  33 H :    0.072030
Sum of atomic charges:   -0.0000000

LOEWDIN ATOMIC CHARGES
----------------------
   0 S :    0.388627
   1 C :   -0.162560
   2 C :   -0.060333
   3 C :   -0.069558
   4 C :   -0.201960
   5 H :    0.032137
   6 C :   -0.031183
   7 H :    0.027914
   8 H :    0.034367
   9 C :   -0.047654
  10 H :    0.022458
  11 H :    0.027100
  12 C :   -0.071068
  13 H :    0.031317
  14 H :    0.031688
  15 H :    0.026847
  16 S :    0.441413
  17 C :   -0.212796
  18 C :   -0.085329
  19 C :   -0.054481
  20 C :   -0.210163
  21 H :    0.035680
  22 C :   -0.033549
  23 H :    0.030763
  24 H :    0.030617
  25 C :   -0.041291
  26 H :    0.021897
  27 H :    0.015691
  28 C :   -0.071287
  29 H :    0.038446
  30 H :    0.034070
  31 H :    0.019777
  32 H :    0.021122
  33 H :    0.041279

  Mayer bond orders larger than 0.100000
B(  0-S ,  1-C ) :   1.1280 B(  0-S ,  4-C ) :   1.1667 B(  1-C ,  2-C ) :   1.5948
B(  1-C ,  4-C ) :   0.1053 B(  1-C , 32-H ) :   0.9778 B(  2-C ,  3-C ) :   1.2391
B(  2-C ,  6-C ) :   1.0331 B(  3-C ,  4-C ) :   1.5984 B(  3-C ,  5-H ) :   0.9770
B(  4-C , 20-C ) :   0.9806 B(  6-C ,  7-H ) :   0.9368 B(  6-C ,  8-H ) :   0.9393
B(  6-C ,  9-C ) :   1.0453 B(  9-C , 10-H ) :   0.9553 B(  9-C , 11-H ) :   0.9579
B(  9-C , 12-C ) :   1.0766 B( 12-C , 13-H ) :   0.9725 B( 12-C , 14-H ) :   0.9730
B( 12-C , 15-H ) :   0.9751 B( 16-S , 17-C ) :   1.1853 B( 16-S , 20-C ) :   1.1560
B( 17-C , 18-C ) :   1.5827 B( 17-C , 33-H ) :   0.9602 B( 18-C , 19-C ) :   1.2656
B( 18-C , 21-H ) :   0.9881 B( 19-C , 20-C ) :   1.5924 B( 19-C , 22-C ) :   1.0443
B( 22-C , 23-H ) :   0.9368 B( 22-C , 24-H ) :   0.9320 B( 22-C , 25-C ) :   1.0619
B( 25-C , 26-H ) :   0.9483 B( 25-C , 27-H ) :   0.9518 B( 25-C , 28-C ) :   1.0781
B( 28-C , 29-H ) :   0.9699 B( 28-C , 30-H ) :   0.9705 B( 28-C , 31-H ) :   0.9716

Dispersion correction           -0.014481440
FINAL SINGLE POINT ENERGY     -1339.877324214555

DIPOLE MOMENT
-------------
                                X             Y             Z
Electronic contribution:     12.73601     -19.76423     -21.82490
Nuclear contribution   :    -12.73623      20.15182      22.40397
                        -----------------------------------------
Total Dipole Moment    :     -0.00022       0.38760       0.57907
                        -----------------------------------------
Magnitude (a.u.)       :      0.69681
Magnitude (Debye)      :      1.77116

Rotational constants in cm-1:     0.016720     0.009480     0.007053
Rotational constants in MHz :   501.256435   284.193653   211.444197

                             ****ORCA TERMINATED NORMALLY****
TOTAL RUN TIME: 0 days 0 hours 0 minutes 21 seconds 904 msec
