                         Program Version 4.2.1 -  RELEASE  -
|  1> ! wB97X-D3 SP def2-SVP
|  2> %pal
|  3> nprocs 24
|  4> end
|  5>
|  6> * xyz 0 1
|  7> S 	 -33.055 	 -28.8208 	 -95.7625
|  8> C 	 -32.5907 	 -27.9011 	 -97.1645
|  9> C 	 -33.1877 	 -28.5064 	 -98.2975
| 10> C 	 -33.8048 	 -29.781 	 -98.0327
| 11> C 	 -33.8565 	 -30.0623 	 -96.6822
| 12> H 	 -34.2628 	 -30.4866 	 -98.666
| 13> C 	 -33.0511 	 -27.8121 	 -99.6533
| 14> H 	 -32.0208 	 -27.4395 	 -99.6386
| 15> H 	 -33.721 	 -26.9221 	 -99.5905
| 16> C 	 -33.4266 	 -28.5719 	 -100.862
| 17> H 	 -32.871 	 -29.5423 	 -100.819
| 18> H 	 -34.5127 	 -28.8503 	 -100.941
| 19> C 	 -32.9984 	 -27.9508 	 -102.198
| 20> H 	 -32.0903 	 -27.372 	 -102.053
| 21> H 	 -32.7945 	 -28.7608 	 -102.867
| 22> H 	 -33.7013 	 -27.2327 	 -102.661
| 23> S 	 -36.1171 	 -31.5004 	 -96.7242
| 24> C 	 -36.204 	 -33.0489 	 -95.7924
| 25> C 	 -35.1281 	 -33.1593 	 -94.9336
| 26> C 	 -34.1181 	 -32.145 	 -95.0682
| 27> C 	 -34.5162 	 -31.2 	 -96.0499
| 28> H 	 -35.1783 	 -33.9579 	 -94.2063
| 29> C 	 -32.9225 	 -32.0028 	 -94.1032
| 30> H 	 -33.0424 	 -32.8001 	 -93.3273
| 31> H 	 -32.9104 	 -31.1163 	 -93.5071
| 32> C 	 -31.501 	 -32.2216 	 -94.7969
| 33> H 	 -31.1872 	 -31.3542 	 -95.3113
| 34> H 	 -31.5394 	 -32.9427 	 -95.6032
| 35> C 	 -30.3959 	 -32.6064 	 -93.7723
| 36> H 	 -30.7279 	 -33.5072 	 -93.2821
| 37> H 	 -30.2873 	 -31.9071 	 -92.9462
| 38> H 	 -29.4106 	 -32.6854 	 -94.1369
| 39> H 	 -32.0017 	 -26.9857 	 -97.166
| 40> H 	 -37.0074 	 -33.6823 	 -95.7693
| 41> *
| 42>
| 43>                          ****END OF INPUT****

CARTESIAN COORDINATES (ANGSTROEM)
---------------------------------
  S    -33.055000  -28.820800  -95.762500
  C    -32.590700  -27.901100  -97.164500
  C    -33.187700  -28.506400  -98.297500
  C    -33.804800  -29.781000  -98.032700
  C    -33.856500  -30.062300  -96.682200
  H    -34.262800  -30.486600  -98.666000
  C    -33.051100  -27.812100  -99.653300
  H    -32.020800  -27.439500  -99.638600
  H    -33.721000  -26.922100  -99.590500
  C    -33.426600  -28.571900  -100.862000
  H    -32.871000  -29.542300  -100.819000
  H    -34.512700  -28.850300  -100.941000
  C    -32.998400  -27.950800  -102.198000
  H    -32.090300  -27.372000  -102.053000
  H    -32.794500  -28.760800  -102.867000
  H    -33.701300  -27.232700  -102.661000
  S    -36.117100  -31.500400  -96.724200
  C    -36.204000  -33.048900  -95.792400
  C    -35.128100  -33.159300  -94.933600
  C    -34.118100  -32.145000  -95.068200
  C    -34.516200  -31.200000  -96.049900
  H    -35.178300  -33.957900  -94.206300
  C    -32.922500  -32.002800  -94.103200
  H    -33.042400  -32.800100  -93.327300
  H    -32.910400  -31.116300  -93.507100
  C    -31.501000  -32.221600  -94.796900
  H    -31.187200  -31.354200  -95.311300
  H    -31.539400  -32.942700  -95.603200
  C    -30.395900  -32.606400  -93.772300
  H    -30.727900  -33.507200  -93.282100
  H    -30.287300  -31.907100  -92.946200
  H    -29.410600  -32.685400  -94.136900
  H    -32.001700  -26.985700  -97.166000
  H    -37.007400  -33.682300  -95.769300

 Total Charge           Charge          ....    0
 Multiplicity           Mult            ....    1
 Number of Electrons    NEL             ....  134
 Basis Dimension        Dim             ....  322

ORBITAL ENERGIES
----------------

  NO   OCC          E(Eh)            E(eV)
   0   2.0000     -88.969248     -2420.9763
   1   2.0000     -88.965805     -2420.8826
   2   2.0000     -10.332907      -281.1727
   3   2.0000     -10.327867      -281.0356
   4   2.0000     -10.315467      -280.6981
   5   2.0000     -10.314805      -280.6801
   6   2.0000     -10.312631      -280.6209
   7   2.0000     -10.307041      -280.4688
   8   2.0000     -10.300088      -280.2796
   9   2.0000     -10.298521      -280.2370
  10   2.0000     -10.292853      -280.0828
  11   2.0000     -10.291072      -280.0343
  12   2.0000     -10.287899      -279.9480
  13   2.0000     -10.281904      -279.7848
  14   2.0000     -10.276367      -279.6342
  15   2.0000     -10.270203      -279.4664
  16   2.0000      -8.082637      -219.9397
  17   2.0000      -8.080186      -219.8730
  18   2.0000      -6.041185      -164.3890
  19   2.0000      -6.038654      -164.3201
  20   2.0000      -6.037386      -164.2856
  21   2.0000      -6.034525      -164.2078
  22   2.0000      -6.033374      -164.1765
  23   2.0000      -6.031247      -164.1186
  24   2.0000      -1.003314       -27.3016
  25   2.0000      -0.977156       -26.5898
  26   2.0000      -0.914148       -24.8752
  27   2.0000      -0.895813       -24.3763
  28   2.0000      -0.872152       -23.7325
  29   2.0000      -0.849093       -23.1050
  30   2.0000      -0.841705       -22.9040
  31   2.0000      -0.817374       -22.2419
  32   2.0000      -0.781291       -21.2600
  33   2.0000      -0.768034       -20.8993
  34   2.0000      -0.713940       -19.4273
  35   2.0000      -0.701359       -19.0850
  36   2.0000      -0.683187       -18.5905
  37   2.0000      -0.668660       -18.1952
  38   2.0000      -0.639807       -17.4100
  39   2.0000      -0.613683       -16.6992
  40   2.0000      -0.595336       -16.1999
  41   2.0000      -0.571974       -15.5642
  42   2.0000      -0.564616       -15.3640
  43   2.0000      -0.555975       -15.1289
  44   2.0000      -0.531064       -14.4510
  45   2.0000      -0.520017       -14.1504
  46   2.0000      -0.516176       -14.0459
  47   2.0000      -0.510552       -13.8928
  48   2.0000      -0.506789       -13.7904
  49   2.0000      -0.498393       -13.5620
  50   2.0000      -0.487470       -13.2647
  51   2.0000      -0.480955       -13.0875
  52   2.0000      -0.473603       -12.8874
  53   2.0000      -0.464377       -12.6363
  54   2.0000      -0.457180       -12.4405
  55   2.0000      -0.449428       -12.2296
  56   2.0000      -0.445049       -12.1104
  57   2.0000      -0.433258       -11.7896
  58   2.0000      -0.432578       -11.7710
  59   2.0000      -0.428250       -11.6533
  60   2.0000      -0.417271       -11.3545
  61   2.0000      -0.411988       -11.2108
  62   2.0000      -0.410405       -11.1677
  63   2.0000      -0.345168        -9.3925
  64   2.0000      -0.335960        -9.1419
  65   2.0000      -0.324650        -8.8342
  66   2.0000      -0.287878        -7.8336
  67   0.0000       0.021871         0.5951
  68   0.0000       0.072481         1.9723
  69   0.0000       0.099714         2.7134
  70   0.0000       0.124743         3.3944
  71   0.0000       0.130467         3.5502

MULLIKEN ATOMIC CHARGES
-----------------------
   0 S :    0.112474
   1 C :   -0.131324
   2 C :   -0.101292
   3 C :    0.031267
   4 C :   -0.135804
   5 H :   -0.001464
   6 C :    0.069464
   7 H :    0.030513
   8 H :    0.043856
   9 C :   -0.123854
  10 H :    0.031092
  11 H :    0.045145
  12 C :   -0.024956
  13 H :    0.018543
  14 H :    0.032286
  15 H :    0.038578
  16 S :    0.098600
  17 C :   -0.065998
  18 C :   -0.033306
  19 C :   -0.001505
  20 C :   -0.158740
  21 H :    0.020736
  22 C :    0.034053
  23 H :    0.018085
  24 H :    0.041192
  25 C :   -0.048432
  26 H :    0.022523
  27 H :    0.028231
  28 C :   -0.036070
  29 H :    0.020390
  30 H :    0.018113
  31 H :    0.028381
  32 H :    0.056855
  33 H :    0.022368
Sum of atomic charges:    0.0000000

LOEWDIN ATOMIC CHARGES
----------------------
   0 S :    0.422907
   1 C :   -0.213865
   2 C :   -0.053442
   3 C :   -0.070637
   4 C :   -0.200030
   5 H :    0.022157
   6 C :   -0.042800
   7 H :    0.033954
   8 H :    0.038906
   9 C :   -0.055843
  10 H :    0.028143
  11 H :    0.032388
  12 C :   -0.062815
  13 H :    0.023074
  14 H :    0.026115
  15 H :    0.026939
  16 S :    0.391616
  17 C :   -0.159966
  18 C :   -0.061194
  19 C :   -0.055447
  20 C :   -0.183887
  21 H :    0.032300
  22 C :   -0.028588
  23 H :    0.032485
  24 H :    0.027353
  25 C :   -0.031962
  26 H :    0.013689
  27 H :    0.023999
  28 C :   -0.063725
  29 H :    0.021023
  30 H :    0.023654
  31 H :    0.020813
  32 H :    0.032570
  33 H :    0.010114

  Mayer bond orders larger than 0.100000
B(  0-S ,  1-C ) :   1.1442 B(  0-S ,  4-C ) :   1.1663 B(  1-C ,  2-C ) :   1.5786
B(  1-C ,  4-C ) :   0.1023 B(  1-C , 32-H ) :   0.9753 B(  2-C ,  3-C ) :   1.2447
B(  2-C ,  6-C ) :   1.0078 B(  3-C ,  4-C ) :   1.5448 B(  3-C ,  5-H ) :   1.0007
B(  4-C , 20-C ) :   1.0338 B(  6-C ,  7-H ) :   0.9388 B(  6-C ,  8-H ) :   0.9291
B(  6-C ,  9-C ) :   1.1030 B(  9-C , 10-H ) :   0.9546 B(  9-C , 11-H ) :   0.9438
B(  9-C , 12-C ) :   1.0792 B( 12-C , 13-H ) :   0.9743 B( 12-C , 14-H ) :   0.9769
B( 12-C , 15-H ) :   0.9746 B( 16-S , 17-C ) :   1.1277 B( 16-S , 20-C ) :   1.1533
B( 17-C , 18-C ) :   1.6328 B( 17-C , 20-C ) :   0.1015 B( 17-C , 33-H ) :   0.9775
B( 18-C , 19-C ) :   1.2387 B( 18-C , 21-H ) :   0.9822 B( 19-C , 20-C ) :   1.5611
B( 19-C , 22-C ) :   1.0295 B( 22-C , 23-H ) :   0.9449 B( 22-C , 24-H ) :   0.9466
B( 22-C , 25-C ) :   1.0348 B( 25-C , 26-H ) :   0.9552 B( 25-C , 27-H ) :   0.9632
B( 25-C , 28-C ) :   1.0801 B( 28-C , 29-H ) :   0.9774 B( 28-C , 30-H ) :   0.9738
B( 28-C , 31-H ) :   0.9757

Dispersion correction           -0.013862125
FINAL SINGLE POINT ENERGY     -1339.872451518348

DIPOLE MOMENT
-------------
                                X             Y             Z
Electronic contribution:    -15.46407       0.20423       9.31785
Nuclear contribution   :     15.64846      -0.24041      -9.43393
                        -----------------------------------------
Total Dipole Moment    :      0.18439      -0.03618      -0.11609
                        -----------------------------------------
Magnitude (a.u.)       :      0.22087
Magnitude (Debye)      :      0.56141

Rotational constants in cm-1:     0.018750     0.008027     0.006474
Rotational constants in MHz :   562.101701   240.651423   194.082161

                             ****ORCA TERMINATED NORMALLY****
TOTAL RUN TIME: 0 days 0 hours 0 minutes 19 seconds 719 msec
