                         Program Version 4.2.1 -  RELEASE  -
|  1> ! wB97X-D3 SP def2-SVP
|  2> %pal
|  3> nprocs 24
|  4> end
|  5>
|  6> * xyz 0 1
|  7> S 	 17.2718 	 -11.8463 	 -118.658
|  8> C 	 16.4431 	 -12.2507 	 -120.13
|  9> C 	 15.2309 	 -12.9099 	 -119.838
| 10> C 	 15.2069 	 -13.232 	 -118.453
| 11> C 	 16.2553 	 -12.7987 	 -117.698
| 12> H 	 14.4933 	 -13.9294 	 -117.999
| 13> C 	 14.081 	 -13.2873 	 -120.811
| 14> H 	 13.4616 	 -12.3697 	 -120.912
| 15> H 	 13.3443 	 -13.807 	 -120.105
| 16> C 	 14.4056 	 -14.0807 	 -122.06
| 17> H 	 15.1345 	 -13.5377 	 -122.729
| 18> H 	 15.0836 	 -14.9343 	 -121.853
| 19> C 	 13.1003 	 -14.5829 	 -122.658
| 20> H 	 12.5644 	 -13.7498 	 -123.154
| 21> H 	 13.3257 	 -15.3935 	 -123.386
| 22> H 	 12.4031 	 -14.9428 	 -121.922
| 23> S 	 17.5164 	 -11.6625 	 -115.464
| 24> C 	 17.7305 	 -12.6775 	 -114.067
| 25> C 	 17.0965 	 -13.8923 	 -114.223
| 26> C 	 16.4273 	 -14.0623 	 -115.485
| 27> C 	 16.5458 	 -12.9339 	 -116.259
| 28> H 	 17.1756 	 -14.6299 	 -113.477
| 29> C 	 15.7418 	 -15.3546 	 -115.787
| 30> H 	 14.7665 	 -15.3703 	 -116.17
| 31> H 	 15.7707 	 -15.8526 	 -114.792
| 32> C 	 16.4857 	 -16.271 	 -116.742
| 33> H 	 17.5317 	 -16.1975 	 -116.782
| 34> H 	 16.3286 	 -16.0236 	 -117.843
| 35> C 	 15.9644 	 -17.7151 	 -116.781
| 36> H 	 16.0622 	 -18.156 	 -115.759
| 37> H 	 16.5652 	 -18.3966 	 -117.468
| 38> H 	 14.8983 	 -17.7605 	 -117.148
| 39> H 	 16.7409 	 -11.9977 	 -121.145
| 40> H 	 18.3583 	 -12.3084 	 -113.239
| 41> *
| 42>
| 43>                          ****END OF INPUT****

CARTESIAN COORDINATES (ANGSTROEM)
---------------------------------
  S     17.271800  -11.846300  -118.658000
  C     16.443100  -12.250700  -120.130000
  C     15.230900  -12.909900  -119.838000
  C     15.206900  -13.232000  -118.453000
  C     16.255300  -12.798700  -117.698000
  H     14.493300  -13.929400  -117.999000
  C     14.081000  -13.287300  -120.811000
  H     13.461600  -12.369700  -120.912000
  H     13.344300  -13.807000  -120.105000
  C     14.405600  -14.080700  -122.060000
  H     15.134500  -13.537700  -122.729000
  H     15.083600  -14.934300  -121.853000
  C     13.100300  -14.582900  -122.658000
  H     12.564400  -13.749800  -123.154000
  H     13.325700  -15.393500  -123.386000
  H     12.403100  -14.942800  -121.922000
  S     17.516400  -11.662500  -115.464000
  C     17.730500  -12.677500  -114.067000
  C     17.096500  -13.892300  -114.223000
  C     16.427300  -14.062300  -115.485000
  C     16.545800  -12.933900  -116.259000
  H     17.175600  -14.629900  -113.477000
  C     15.741800  -15.354600  -115.787000
  H     14.766500  -15.370300  -116.170000
  H     15.770700  -15.852600  -114.792000
  C     16.485700  -16.271000  -116.742000
  H     17.531700  -16.197500  -116.782000
  H     16.328600  -16.023600  -117.843000
  C     15.964400  -17.715100  -116.781000
  H     16.062200  -18.156000  -115.759000
  H     16.565200  -18.396600  -117.468000
  H     14.898300  -17.760500  -117.148000
  H     16.740900  -11.997700  -121.145000
  H     18.358300  -12.308400  -113.239000

 Total Charge           Charge          ....    0
 Multiplicity           Mult            ....    1
 Number of Electrons    NEL             ....  134
 Basis Dimension        Dim             ....  322

ORBITAL ENERGIES
----------------

  NO   OCC          E(Eh)            E(eV)
   0   2.0000     -88.966838     -2420.9107
   1   2.0000     -88.963382     -2420.8167
   2   2.0000     -10.330133      -281.0972
   3   2.0000     -10.322664      -280.8940
   4   2.0000     -10.321004      -280.8488
   5   2.0000     -10.312407      -280.6149
   6   2.0000     -10.304105      -280.3890
   7   2.0000     -10.303664      -280.3770
   8   2.0000     -10.302934      -280.3571
   9   2.0000     -10.296528      -280.1828
  10   2.0000     -10.293871      -280.1105
  11   2.0000     -10.293474      -280.0997
  12   2.0000     -10.289282      -279.9856
  13   2.0000     -10.288299      -279.9588
  14   2.0000     -10.283927      -279.8399
  15   2.0000     -10.281562      -279.7755
  16   2.0000      -8.081444      -219.9073
  17   2.0000      -8.079339      -219.8500
  18   2.0000      -6.040004      -164.3569
  19   2.0000      -6.037767      -164.2960
  20   2.0000      -6.035992      -164.2477
  21   2.0000      -6.033566      -164.1817
  22   2.0000      -6.032155      -164.1433
  23   2.0000      -6.030222      -164.0907
  24   2.0000      -1.011938       -27.5362
  25   2.0000      -0.986809       -26.8524
  26   2.0000      -0.914857       -24.8945
  27   2.0000      -0.911979       -24.8162
  28   2.0000      -0.868423       -23.6310
  29   2.0000      -0.855103       -23.2685
  30   2.0000      -0.845157       -22.9979
  31   2.0000      -0.811680       -22.0869
  32   2.0000      -0.782927       -21.3045
  33   2.0000      -0.771806       -21.0019
  34   2.0000      -0.711326       -19.3562
  35   2.0000      -0.702086       -19.1047
  36   2.0000      -0.687478       -18.7072
  37   2.0000      -0.668642       -18.1947
  38   2.0000      -0.638753       -17.3814
  39   2.0000      -0.622095       -16.9281
  40   2.0000      -0.606844       -16.5131
  41   2.0000      -0.566858       -15.4250
  42   2.0000      -0.558876       -15.2078
  43   2.0000      -0.551035       -14.9944
  44   2.0000      -0.534596       -14.5471
  45   2.0000      -0.523546       -14.2464
  46   2.0000      -0.520254       -14.1568
  47   2.0000      -0.516502       -14.0547
  48   2.0000      -0.499831       -13.6011
  49   2.0000      -0.496048       -13.4982
  50   2.0000      -0.490754       -13.3541
  51   2.0000      -0.483660       -13.1611
  52   2.0000      -0.472928       -12.8690
  53   2.0000      -0.465242       -12.6599
  54   2.0000      -0.462593       -12.5878
  55   2.0000      -0.453092       -12.3293
  56   2.0000      -0.448547       -12.2056
  57   2.0000      -0.439585       -11.9617
  58   2.0000      -0.437787       -11.9128
  59   2.0000      -0.427801       -11.6411
  60   2.0000      -0.416138       -11.3237
  61   2.0000      -0.405286       -11.0284
  62   2.0000      -0.397057       -10.8045
  63   2.0000      -0.354347        -9.6423
  64   2.0000      -0.335039        -9.1169
  65   2.0000      -0.328105        -8.9282
  66   2.0000      -0.285175        -7.7600
  67   0.0000       0.027116         0.7379
  68   0.0000       0.074445         2.0258
  69   0.0000       0.105309         2.8656
  70   0.0000       0.121087         3.2950
  71   0.0000       0.131732         3.5846

MULLIKEN ATOMIC CHARGES
-----------------------
   0 S :    0.105623
   1 C :   -0.128589
   2 C :   -0.092251
   3 C :   -0.001203
   4 C :   -0.125558
   5 H :    0.003230
   6 C :    0.030854
   7 H :    0.046719
   8 H :    0.015484
   9 C :   -0.069392
  10 H :    0.037542
  11 H :    0.033208
  12 C :   -0.041669
  13 H :    0.036224
  14 H :    0.043250
  15 H :    0.030046
  16 S :    0.091648
  17 C :   -0.109352
  18 C :   -0.001591
  19 C :   -0.039307
  20 C :   -0.116069
  21 H :    0.002508
  22 C :    0.099530
  23 H :    0.022310
  24 H :    0.020157
  25 C :   -0.088478
  26 H :    0.017534
  27 H :    0.031375
  28 C :   -0.092721
  29 H :    0.032388
  30 H :    0.045449
  31 H :    0.042152
  32 H :    0.045365
  33 H :    0.073581
Sum of atomic charges:    0.0000000

LOEWDIN ATOMIC CHARGES
----------------------
   0 S :    0.434998
   1 C :   -0.210555
   2 C :   -0.060986
   3 C :   -0.080692
   4 C :   -0.206875
   5 H :    0.028236
   6 C :   -0.042985
   7 H :    0.039443
   8 H :    0.034494
   9 C :   -0.053026
  10 H :    0.031001
  11 H :    0.030001
  12 C :   -0.064448
  13 H :    0.030007
  14 H :    0.031631
  15 H :    0.024126
  16 S :    0.388245
  17 C :   -0.184901
  18 C :   -0.065121
  19 C :   -0.053494
  20 C :   -0.179198
  21 H :    0.023184
  22 C :   -0.025926
  23 H :    0.024943
  24 H :    0.037940
  25 C :   -0.052153
  26 H :    0.017047
  27 H :    0.033338
  28 C :   -0.074546
  29 H :    0.020517
  30 H :    0.034139
  31 H :    0.028600
  32 H :    0.027211
  33 H :    0.035806

  Mayer bond orders larger than 0.100000
B(  0-S ,  1-C ) :   1.1572 B(  0-S ,  4-C ) :   1.1660 B(  1-C ,  2-C ) :   1.5737
B(  1-C , 32-H ) :   0.9751 B(  2-C ,  3-C ) :   1.2829 B(  2-C ,  6-C ) :   1.0030
B(  3-C ,  4-C ) :   1.5611 B(  3-C ,  5-H ) :   0.9861 B(  4-C , 20-C ) :   1.0388
B(  6-C ,  7-H ) :   0.9330 B(  6-C ,  8-H ) :   0.9459 B(  6-C ,  9-C ) :   1.0476
B(  9-C , 10-H ) :   0.9513 B(  9-C , 11-H ) :   0.9576 B(  9-C , 12-C ) :   1.0745
B( 12-C , 13-H ) :   0.9744 B( 12-C , 14-H ) :   0.9749 B( 12-C , 15-H ) :   0.9752
B( 16-S , 17-C ) :   1.1540 B( 16-S , 20-C ) :   1.1267 B( 17-C , 18-C ) :   1.6034
B( 17-C , 33-H ) :   0.9657 B( 18-C , 19-C ) :   1.2418 B( 18-C , 21-H ) :   0.9954
B( 19-C , 20-C ) :   1.6129 B( 19-C , 22-C ) :   1.0390 B( 22-C , 23-H ) :   0.9344
B( 22-C , 24-H ) :   0.9332 B( 22-C , 25-C ) :   1.0473 B( 25-C , 26-H ) :   0.9582
B( 25-C , 27-H ) :   0.9471 B( 25-C , 28-C ) :   1.0763 B( 28-C , 29-H ) :   0.9754
B( 28-C , 30-H ) :   0.9735 B( 28-C , 31-H ) :   0.9735

Dispersion correction           -0.013964700
FINAL SINGLE POINT ENERGY     -1339.867186697203

DIPOLE MOMENT
-------------
                                X             Y             Z
Electronic contribution:     15.36281      24.29890      15.07943
Nuclear contribution   :    -15.61525     -24.87560     -15.25770
                        -----------------------------------------
Total Dipole Moment    :     -0.25243      -0.57670      -0.17827
                        -----------------------------------------
Magnitude (a.u.)       :      0.65428
Magnitude (Debye)      :      1.66305

Rotational constants in cm-1:     0.019578     0.008440     0.006302
Rotational constants in MHz :   586.919262   253.020852   188.921252

                             ****ORCA TERMINATED NORMALLY****
TOTAL RUN TIME: 0 days 0 hours 0 minutes 20 seconds 294 msec
