                         Program Version 4.2.1 -  RELEASE  -
|  1> ! wB97X-D3 SP def2-SVP
|  2> %pal
|  3> nprocs 24
|  4> end
|  5>
|  6> * xyz 0 1
|  7> S 	 -82.2296 	 -9.87725 	 -60.1811
|  8> C 	 -82.6109 	 -8.16815 	 -60.6107
|  9> C 	 -83.2095 	 -7.52645 	 -59.5288
| 10> C 	 -83.481 	 -8.45037 	 -58.4556
| 11> C 	 -82.9953 	 -9.72727 	 -58.5752
| 12> H 	 -83.9817 	 -8.24473 	 -57.5669
| 13> C 	 -83.4735 	 -6.03789 	 -59.2717
| 14> H 	 -82.5276 	 -5.54094 	 -58.9107
| 15> H 	 -84.258 	 -5.89639 	 -58.5066
| 16> C 	 -84.0227 	 -5.24486 	 -60.5874
| 17> H 	 -83.2417 	 -5.19102 	 -61.3668
| 18> H 	 -84.8947 	 -5.66126 	 -60.9983
| 19> C 	 -84.2278 	 -3.77532 	 -60.3426
| 20> H 	 -84.7853 	 -3.62294 	 -59.3709
| 21> H 	 -83.3169 	 -3.25317 	 -60.0702
| 22> H 	 -84.7107 	 -3.21272 	 -61.1561
| 23> S 	 -81.5365 	 -11.8461 	 -57.6373
| 24> C 	 -81.9149 	 -12.4943 	 -56.1316
| 25> C 	 -82.929 	 -11.8578 	 -55.5254
| 26> C 	 -83.5518 	 -10.9349 	 -56.3773
| 27> C 	 -82.8623 	 -10.7492 	 -57.5588
| 28> H 	 -83.1667 	 -12.1248 	 -54.5095
| 29> C 	 -84.8409 	 -10.2506 	 -55.9241
| 30> H 	 -85.2961 	 -9.69973 	 -56.7768
| 31> H 	 -84.5121 	 -9.43232 	 -55.2827
| 32> C 	 -85.8763 	 -11.1062 	 -55.2448
| 33> H 	 -86.7206 	 -10.5123 	 -54.8719
| 34> H 	 -85.395 	 -11.7802 	 -54.5224
| 35> C 	 -86.5236 	 -12.0048 	 -56.3196
| 36> H 	 -86.9814 	 -11.3337 	 -57.0697
| 37> H 	 -87.3849 	 -12.5068 	 -55.7565
| 38> H 	 -85.8514 	 -12.7667 	 -56.8131
| 39> H 	 -82.2658 	 -7.598 	 -61.3921
| 40> H 	 -81.3846 	 -13.3404 	 -55.6574
| 41> *
| 42>
| 43>                          ****END OF INPUT****

CARTESIAN COORDINATES (ANGSTROEM)
---------------------------------
  S    -82.229600   -9.877250  -60.181100
  C    -82.610900   -8.168150  -60.610700
  C    -83.209500   -7.526450  -59.528800
  C    -83.481000   -8.450370  -58.455600
  C    -82.995300   -9.727270  -58.575200
  H    -83.981700   -8.244730  -57.566900
  C    -83.473500   -6.037890  -59.271700
  H    -82.527600   -5.540940  -58.910700
  H    -84.258000   -5.896390  -58.506600
  C    -84.022700   -5.244860  -60.587400
  H    -83.241700   -5.191020  -61.366800
  H    -84.894700   -5.661260  -60.998300
  C    -84.227800   -3.775320  -60.342600
  H    -84.785300   -3.622940  -59.370900
  H    -83.316900   -3.253170  -60.070200
  H    -84.710700   -3.212720  -61.156100
  S    -81.536500  -11.846100  -57.637300
  C    -81.914900  -12.494300  -56.131600
  C    -82.929000  -11.857800  -55.525400
  C    -83.551800  -10.934900  -56.377300
  C    -82.862300  -10.749200  -57.558800
  H    -83.166700  -12.124800  -54.509500
  C    -84.840900  -10.250600  -55.924100
  H    -85.296100   -9.699730  -56.776800
  H    -84.512100   -9.432320  -55.282700
  C    -85.876300  -11.106200  -55.244800
  H    -86.720600  -10.512300  -54.871900
  H    -85.395000  -11.780200  -54.522400
  C    -86.523600  -12.004800  -56.319600
  H    -86.981400  -11.333700  -57.069700
  H    -87.384900  -12.506800  -55.756500
  H    -85.851400  -12.766700  -56.813100
  H    -82.265800   -7.598000  -61.392100
  H    -81.384600  -13.340400  -55.657400

 Total Charge           Charge          ....    0
 Multiplicity           Mult            ....    1
 Number of Electrons    NEL             ....  134
 Basis Dimension        Dim             ....  322

ORBITAL ENERGIES
----------------

  NO   OCC          E(Eh)            E(eV)
   0   2.0000     -88.966186     -2420.8930
   1   2.0000     -88.965362     -2420.8706
   2   2.0000     -10.332219      -281.1540
   3   2.0000     -10.325116      -280.9607
   4   2.0000     -10.314012      -280.6585
   5   2.0000     -10.311472      -280.5894
   6   2.0000     -10.310171      -280.5540
   7   2.0000     -10.306610      -280.4571
   8   2.0000     -10.302318      -280.3403
   9   2.0000     -10.292371      -280.0697
  10   2.0000     -10.289991      -280.0049
  11   2.0000     -10.289421      -279.9894
  12   2.0000     -10.286754      -279.9168
  13   2.0000     -10.286749      -279.9167
  14   2.0000     -10.283689      -279.8334
  15   2.0000     -10.280364      -279.7429
  16   2.0000      -8.082886      -219.9465
  17   2.0000      -8.078613      -219.8302
  18   2.0000      -6.041212      -164.3897
  19   2.0000      -6.037488      -164.2884
  20   2.0000      -6.037090      -164.2776
  21   2.0000      -6.033746      -164.1866
  22   2.0000      -6.033368      -164.1763
  23   2.0000      -6.029027      -164.0582
  24   2.0000      -1.019758       -27.7490
  25   2.0000      -0.982278       -26.7292
  26   2.0000      -0.916898       -24.9501
  27   2.0000      -0.904490       -24.6124
  28   2.0000      -0.874981       -23.8094
  29   2.0000      -0.855044       -23.2669
  30   2.0000      -0.844547       -22.9813
  31   2.0000      -0.817023       -22.2323
  32   2.0000      -0.780092       -21.2274
  33   2.0000      -0.770497       -20.9663
  34   2.0000      -0.711560       -19.3625
  35   2.0000      -0.701558       -19.0904
  36   2.0000      -0.692359       -18.8400
  37   2.0000      -0.659495       -17.9458
  38   2.0000      -0.641148       -17.4465
  39   2.0000      -0.621227       -16.9045
  40   2.0000      -0.603698       -16.4275
  41   2.0000      -0.569861       -15.5067
  42   2.0000      -0.564562       -15.3625
  43   2.0000      -0.555800       -15.1241
  44   2.0000      -0.545344       -14.8396
  45   2.0000      -0.524700       -14.2778
  46   2.0000      -0.522415       -14.2156
  47   2.0000      -0.511578       -13.9208
  48   2.0000      -0.504967       -13.7409
  49   2.0000      -0.498951       -13.5772
  50   2.0000      -0.495124       -13.4730
  51   2.0000      -0.483340       -13.1523
  52   2.0000      -0.475101       -12.9282
  53   2.0000      -0.461569       -12.5599
  54   2.0000      -0.455917       -12.4061
  55   2.0000      -0.451562       -12.2876
  56   2.0000      -0.447763       -12.1843
  57   2.0000      -0.431731       -11.7480
  58   2.0000      -0.427845       -11.6422
  59   2.0000      -0.423943       -11.5361
  60   2.0000      -0.419950       -11.4274
  61   2.0000      -0.415476       -11.3057
  62   2.0000      -0.410580       -11.1725
  63   2.0000      -0.362175        -9.8553
  64   2.0000      -0.335188        -9.1209
  65   2.0000      -0.326962        -8.8971
  66   2.0000      -0.284861        -7.7515
  67   0.0000       0.021611         0.5881
  68   0.0000       0.084371         2.2958
  69   0.0000       0.105192         2.8624
  70   0.0000       0.120709         3.2847
  71   0.0000       0.137242         3.7345

MULLIKEN ATOMIC CHARGES
-----------------------
   0 S :    0.079850
   1 C :   -0.068413
   2 C :   -0.064420
   3 C :    0.019744
   4 C :   -0.120118
   5 H :   -0.030486
   6 C :    0.015274
   7 H :    0.060946
   8 H :    0.038409
   9 C :   -0.074072
  10 H :    0.031818
  11 H :    0.033078
  12 C :   -0.064305
  13 H :    0.016574
  14 H :    0.019389
  15 H :    0.048220
  16 S :    0.119771
  17 C :   -0.088815
  18 C :   -0.051150
  19 C :   -0.070902
  20 C :   -0.113071
  21 H :    0.017322
  22 C :    0.045366
  23 H :    0.026093
  24 H :    0.039307
  25 C :   -0.046297
  26 H :    0.038523
  27 H :    0.036098
  28 C :   -0.105931
  29 H :    0.033301
  30 H :    0.039340
  31 H :    0.062844
  32 H :    0.013948
  33 H :    0.062763
Sum of atomic charges:   -0.0000000

LOEWDIN ATOMIC CHARGES
----------------------
   0 S :    0.361729
   1 C :   -0.172173
   2 C :   -0.056375
   3 C :   -0.064862
   4 C :   -0.168382
   5 H :    0.015431
   6 C :   -0.026837
   7 H :    0.043233
   8 H :    0.031418
   9 C :   -0.039156
  10 H :    0.025600
  11 H :    0.018997
  12 C :   -0.075846
  13 H :    0.023795
  14 H :    0.021297
  15 H :    0.030401
  16 S :    0.444023
  17 C :   -0.201630
  18 C :   -0.078493
  19 C :   -0.054189
  20 C :   -0.208830
  21 H :    0.032314
  22 C :   -0.040955
  23 H :    0.029616
  24 H :    0.030970
  25 C :   -0.042681
  26 H :    0.032593
  27 H :    0.024556
  28 C :   -0.072559
  29 H :    0.023869
  30 H :    0.029976
  31 H :    0.032920
  32 H :    0.012819
  33 H :    0.037411

  Mayer bond orders larger than 0.100000
B(  0-S ,  1-C ) :   1.1087 B(  0-S ,  4-C ) :   1.1163 B(  1-C ,  2-C ) :   1.6409
B(  1-C , 32-H ) :   0.9748 B(  2-C ,  3-C ) :   1.2197 B(  2-C ,  6-C ) :   1.0145
B(  3-C ,  4-C ) :   1.6027 B(  3-C ,  5-H ) :   0.9921 B(  4-C , 20-C ) :   1.0768
B(  6-C ,  7-H ) :   0.9407 B(  6-C ,  8-H ) :   0.9502 B(  6-C ,  9-C ) :   1.0519
B(  9-C , 10-H ) :   0.9553 B(  9-C , 11-H ) :   0.9651 B(  9-C , 12-C ) :   1.0834
B( 12-C , 13-H ) :   0.9700 B( 12-C , 14-H ) :   0.9728 B( 12-C , 15-H ) :   0.9733
B( 16-S , 17-C ) :   1.1780 B( 16-S , 20-C ) :   1.1417 B( 17-C , 18-C ) :   1.6036
B( 17-C , 33-H ) :   0.9608 B( 18-C , 19-C ) :   1.2529 B( 18-C , 21-H ) :   0.9954
B( 19-C , 20-C ) :   1.5786 B( 19-C , 22-C ) :   1.0290 B( 22-C , 23-H ) :   0.9323
B( 22-C , 24-H ) :   0.9249 B( 22-C , 25-C ) :   1.0785 B( 25-C , 26-H ) :   0.9507
B( 25-C , 27-H ) :   0.9508 B( 25-C , 28-C ) :   1.0722 B( 28-C , 29-H ) :   0.9737
B( 28-C , 30-H ) :   0.9769 B( 28-C , 31-H ) :   0.9747

Dispersion correction           -0.013576035
FINAL SINGLE POINT ENERGY     -1339.866710103567

DIPOLE MOMENT
-------------
                                X             Y             Z
Electronic contribution:     19.34530     -18.52377      -5.10645
Nuclear contribution   :    -19.60550      18.95900       5.68298
                        -----------------------------------------
Total Dipole Moment    :     -0.26020       0.43523       0.57653
                        -----------------------------------------
Magnitude (a.u.)       :      0.76780
Magnitude (Debye)      :      1.95159

Rotational constants in cm-1:     0.021106     0.007407     0.006004
Rotational constants in MHz :   632.741177   222.065422   180.006660

                             ****ORCA TERMINATED NORMALLY****
TOTAL RUN TIME: 0 days 0 hours 0 minutes 21 seconds 310 msec
