                         Program Version 4.2.1 -  RELEASE  -
|  1> ! wB97X-D3 SP def2-SVP
|  2> %pal
|  3> nprocs 24
|  4> end
|  5>
|  6> * xyz 0 1
|  7> S 	 -96.7019 	 9.36691 	 -4.46753
|  8> C 	 -95.6656 	 10.0658 	 -5.69202
|  9> C 	 -94.7653 	 9.15502 	 -6.11611
| 10> C 	 -94.9475 	 7.89647 	 -5.53517
| 11> C 	 -95.8174 	 7.84453 	 -4.53075
| 12> H 	 -94.4175 	 7.07503 	 -5.90443
| 13> C 	 -93.7778 	 9.49214 	 -7.21667
| 14> H 	 -94.0998 	 10.3266 	 -7.79293
| 15> H 	 -93.7333 	 8.57287 	 -7.84579
| 16> C 	 -92.3157 	 9.69464 	 -6.66114
| 17> H 	 -92.3051 	 10.5625 	 -5.95352
| 18> H 	 -91.9523 	 8.87657 	 -6.0693
| 19> C 	 -91.2516 	 10.0631 	 -7.68299
| 20> H 	 -91.082 	 9.20392 	 -8.38542
| 21> H 	 -91.4459 	 10.9698 	 -8.28246
| 22> H 	 -90.2225 	 10.1097 	 -7.292
| 23> S 	 -98.0439 	 6.54559 	 -3.68451
| 24> C 	 -97.8555 	 4.98362 	 -2.98025
| 25> C 	 -96.5507 	 4.7549 	 -2.48917
| 26> C 	 -95.63 	 5.74521 	 -2.97977
| 27> C 	 -96.3165 	 6.70545 	 -3.78081
| 28> H 	 -96.3679 	 3.85758 	 -1.95624
| 29> C 	 -94.159 	 5.58276 	 -2.77578
| 30> H 	 -93.6526 	 6.13602 	 -3.55932
| 31> H 	 -94.0073 	 4.48656 	 -2.82258
| 32> C 	 -93.6326 	 6.31276 	 -1.54403
| 33> H 	 -94.325 	 6.20915 	 -0.711656
| 34> H 	 -93.6534 	 7.33848 	 -1.77405
| 35> C 	 -92.2455 	 5.8557 	 -1.08898
| 36> H 	 -91.6969 	 6.72567 	 -0.770771
| 37> H 	 -91.6363 	 5.37708 	 -1.90424
| 38> H 	 -92.3353 	 5.14858 	 -0.287286
| 39> H 	 -95.4562 	 11.1024 	 -5.92666
| 40> H 	 -98.7196 	 4.41189 	 -2.57812
| 41> *
| 42>
| 43>                          ****END OF INPUT****

CARTESIAN COORDINATES (ANGSTROEM)
---------------------------------
  S    -96.701900    9.366910   -4.467530
  C    -95.665600   10.065800   -5.692020
  C    -94.765300    9.155020   -6.116110
  C    -94.947500    7.896470   -5.535170
  C    -95.817400    7.844530   -4.530750
  H    -94.417500    7.075030   -5.904430
  C    -93.777800    9.492140   -7.216670
  H    -94.099800   10.326600   -7.792930
  H    -93.733300    8.572870   -7.845790
  C    -92.315700    9.694640   -6.661140
  H    -92.305100   10.562500   -5.953520
  H    -91.952300    8.876570   -6.069300
  C    -91.251600   10.063100   -7.682990
  H    -91.082000    9.203920   -8.385420
  H    -91.445900   10.969800   -8.282460
  H    -90.222500   10.109700   -7.292000
  S    -98.043900    6.545590   -3.684510
  C    -97.855500    4.983620   -2.980250
  C    -96.550700    4.754900   -2.489170
  C    -95.630000    5.745210   -2.979770
  C    -96.316500    6.705450   -3.780810
  H    -96.367900    3.857580   -1.956240
  C    -94.159000    5.582760   -2.775780
  H    -93.652600    6.136020   -3.559320
  H    -94.007300    4.486560   -2.822580
  C    -93.632600    6.312760   -1.544030
  H    -94.325000    6.209150   -0.711656
  H    -93.653400    7.338480   -1.774050
  C    -92.245500    5.855700   -1.088980
  H    -91.696900    6.725670   -0.770771
  H    -91.636300    5.377080   -1.904240
  H    -92.335300    5.148580   -0.287286
  H    -95.456200   11.102400   -5.926660
  H    -98.719600    4.411890   -2.578120

 Total Charge           Charge          ....    0
 Multiplicity           Mult            ....    1
 Number of Electrons    NEL             ....  134
 Basis Dimension        Dim             ....  322

ORBITAL ENERGIES
----------------

  NO   OCC          E(Eh)            E(eV)
   0   2.0000     -88.968496     -2420.9558
   1   2.0000     -88.962365     -2420.7890
   2   2.0000     -10.327622      -281.0289
   3   2.0000     -10.326177      -280.9896
   4   2.0000     -10.317848      -280.7629
   5   2.0000     -10.307827      -280.4902
   6   2.0000     -10.305876      -280.4372
   7   2.0000     -10.297461      -280.2082
   8   2.0000     -10.295820      -280.1635
   9   2.0000     -10.291268      -280.0396
  10   2.0000     -10.290817      -280.0274
  11   2.0000     -10.290036      -280.0061
  12   2.0000     -10.283362      -279.8245
  13   2.0000     -10.282088      -279.7898
  14   2.0000     -10.278294      -279.6866
  15   2.0000     -10.276840      -279.6470
  16   2.0000      -8.083756      -219.9702
  17   2.0000      -8.077298      -219.7945
  18   2.0000      -6.042099      -164.4139
  19   2.0000      -6.038348      -164.3118
  20   2.0000      -6.035950      -164.2465
  21   2.0000      -6.034502      -164.2071
  22   2.0000      -6.031874      -164.1356
  23   2.0000      -6.027784      -164.0244
  24   2.0000      -1.013763       -27.5859
  25   2.0000      -0.988087       -26.8872
  26   2.0000      -0.915133       -24.9020
  27   2.0000      -0.908723       -24.7276
  28   2.0000      -0.870718       -23.6934
  29   2.0000      -0.855734       -23.2857
  30   2.0000      -0.847516       -23.0621
  31   2.0000      -0.819075       -22.2882
  32   2.0000      -0.784183       -21.3387
  33   2.0000      -0.768947       -20.9241
  34   2.0000      -0.709641       -19.3103
  35   2.0000      -0.698260       -19.0006
  36   2.0000      -0.693001       -18.8575
  37   2.0000      -0.663525       -18.0554
  38   2.0000      -0.639492       -17.4015
  39   2.0000      -0.631060       -17.1720
  40   2.0000      -0.596415       -16.2293
  41   2.0000      -0.570255       -15.5174
  42   2.0000      -0.564131       -15.3508
  43   2.0000      -0.559392       -15.2218
  44   2.0000      -0.529374       -14.4050
  45   2.0000      -0.524265       -14.2660
  46   2.0000      -0.517874       -14.0921
  47   2.0000      -0.512803       -13.9541
  48   2.0000      -0.501598       -13.6492
  49   2.0000      -0.499910       -13.6032
  50   2.0000      -0.490872       -13.3573
  51   2.0000      -0.487806       -13.2739
  52   2.0000      -0.472152       -12.8479
  53   2.0000      -0.466583       -12.6964
  54   2.0000      -0.457274       -12.4430
  55   2.0000      -0.453242       -12.3334
  56   2.0000      -0.448974       -12.2172
  57   2.0000      -0.441508       -12.0140
  58   2.0000      -0.438631       -11.9358
  59   2.0000      -0.423613       -11.5271
  60   2.0000      -0.418799       -11.3961
  61   2.0000      -0.414512       -11.2794
  62   2.0000      -0.408640       -11.1197
  63   2.0000      -0.352880        -9.6023
  64   2.0000      -0.332572        -9.0498
  65   2.0000      -0.327967        -8.9244
  66   2.0000      -0.287398        -7.8205
  67   0.0000       0.027963         0.7609
  68   0.0000       0.065483         1.7819
  69   0.0000       0.104812         2.8521
  70   0.0000       0.116875         3.1803
  71   0.0000       0.133175         3.6239

MULLIKEN ATOMIC CHARGES
-----------------------
   0 S :    0.083002
   1 C :   -0.102065
   2 C :   -0.110180
   3 C :    0.047648
   4 C :   -0.118564
   5 H :   -0.013013
   6 C :    0.082631
   7 H :    0.019701
   8 H :    0.031214
   9 C :   -0.081472
  10 H :    0.027480
  11 H :    0.025285
  12 C :   -0.063777
  13 H :    0.021142
  14 H :    0.040467
  15 H :    0.033228
  16 S :    0.121931
  17 C :   -0.104319
  18 C :   -0.046199
  19 C :   -0.037618
  20 C :   -0.160027
  21 H :    0.013093
  22 C :    0.084705
  23 H :    0.013969
  24 H :    0.037717
  25 C :   -0.071990
  26 H :    0.023291
  27 H :    0.022495
  28 C :   -0.034099
  29 H :    0.032077
  30 H :    0.033235
  31 H :    0.034448
  32 H :    0.045259
  33 H :    0.069307
Sum of atomic charges:   -0.0000000

LOEWDIN ATOMIC CHARGES
----------------------
   0 S :    0.385471
   1 C :   -0.198474
   2 C :   -0.066272
   3 C :   -0.063186
   4 C :   -0.178773
   5 H :    0.023011
   6 C :   -0.020767
   7 H :    0.025767
   8 H :    0.036130
   9 C :   -0.045453
  10 H :    0.025842
  11 H :    0.022081
  12 C :   -0.078974
  13 H :    0.024773
  14 H :    0.026196
  15 H :    0.029785
  16 S :    0.427878
  17 C :   -0.203424
  18 C :   -0.065337
  19 C :   -0.047348
  20 C :   -0.206271
  21 H :    0.026310
  22 C :   -0.034089
  23 H :    0.031988
  24 H :    0.034616
  25 C :   -0.035975
  26 H :    0.021551
  27 H :    0.020803
  28 C :   -0.063745
  29 H :    0.026683
  30 H :    0.029275
  31 H :    0.023955
  32 H :    0.032658
  33 H :    0.033313

  Mayer bond orders larger than 0.100000
B(  0-S ,  1-C ) :   1.1180 B(  0-S ,  4-C ) :   1.1304 B(  1-C ,  2-C ) :   1.6524
B(  1-C , 32-H ) :   0.9566 B(  2-C ,  3-C ) :   1.2412 B(  2-C ,  6-C ) :   1.0270
B(  3-C ,  4-C ) :   1.5974 B(  3-C ,  5-H ) :   1.0015 B(  4-C , 20-C ) :   1.0400
B(  6-C ,  7-H ) :   0.9461 B(  6-C ,  8-H ) :   0.9377 B(  6-C ,  9-C ) :   1.0477
B(  9-C , 10-H ) :   0.9567 B(  9-C , 11-H ) :   0.9574 B(  9-C , 12-C ) :   1.0893
B( 12-C , 13-H ) :   0.9711 B( 12-C , 14-H ) :   0.9750 B( 12-C , 15-H ) :   0.9717
B( 16-S , 17-C ) :   1.1695 B( 16-S , 20-C ) :   1.1576 B( 17-C , 18-C ) :   1.5949
B( 17-C , 20-C ) :   0.1050 B( 17-C , 33-H ) :   0.9593 B( 18-C , 19-C ) :   1.2475
B( 18-C , 21-H ) :   0.9947 B( 19-C , 20-C ) :   1.5486 B( 19-C , 22-C ) :   1.0490
B( 22-C , 23-H ) :   0.9209 B( 22-C , 24-H ) :   0.9441 B( 22-C , 25-C ) :   1.0557
B( 25-C , 26-H ) :   0.9630 B( 25-C , 27-H ) :   0.9598 B( 25-C , 28-C ) :   1.0685
B( 28-C , 29-H ) :   0.9759 B( 28-C , 30-H ) :   0.9752 B( 28-C , 31-H ) :   0.9799

Dispersion correction           -0.013557460
FINAL SINGLE POINT ENERGY     -1339.866815160216

DIPOLE MOMENT
-------------
                                X             Y             Z
Electronic contribution:    -30.76370      -0.19275       2.38304
Nuclear contribution   :     31.41849      -0.01076      -2.37658
                        -----------------------------------------
Total Dipole Moment    :      0.65479      -0.20351       0.00646
                        -----------------------------------------
Magnitude (a.u.)       :      0.68571
Magnitude (Debye)      :      1.74295

Rotational constants in cm-1:     0.017351     0.008672     0.006395
Rotational constants in MHz :   520.157504   259.983322   191.729460

                             ****ORCA TERMINATED NORMALLY****
TOTAL RUN TIME: 0 days 0 hours 0 minutes 21 seconds 141 msec
