                         Program Version 4.2.1 -  RELEASE  -
|  1> ! wB97X-D3 SP def2-SVP
|  2> %pal
|  3> nprocs 24
|  4> end
|  5>
|  6> * xyz 0 1
|  7> S 	 -120.876 	 53.7685 	 -30.0344
|  8> C 	 -121.994 	 52.4441 	 -29.9285
|  9> C 	 -122.075 	 51.6498 	 -31.0093
| 10> C 	 -121.234 	 52.1469 	 -32.054
| 11> C 	 -120.548 	 53.3031 	 -31.7232
| 12> H 	 -121.167 	 51.679 	 -33.0311
| 13> C 	 -122.775 	 50.2859 	 -31.0643
| 14> H 	 -123.054 	 49.9878 	 -30.0119
| 15> H 	 -121.961 	 49.5833 	 -31.4093
| 16> C 	 -124.101 	 50.2077 	 -31.8226
| 17> H 	 -123.984 	 50.3822 	 -32.8884
| 18> H 	 -124.529 	 49.1966 	 -31.8658
| 19> C 	 -125.197 	 51.1458 	 -31.3204
| 20> H 	 -126.154 	 50.9786 	 -31.8526
| 21> H 	 -125.425 	 51.1476 	 -30.2663
| 22> H 	 -124.949 	 52.201 	 -31.6296
| 23> S 	 -117.899 	 53.2076 	 -32.6462
| 24> C 	 -117.312 	 54.3192 	 -33.846
| 25> C 	 -118.333 	 55.1942 	 -34.2212
| 26> C 	 -119.548 	 54.9735 	 -33.4754
| 27> C 	 -119.476 	 53.9606 	 -32.4996
| 28> H 	 -118.061 	 56.0204 	 -34.871
| 29> C 	 -120.73 	 55.8168 	 -33.8479
| 30> H 	 -121.589 	 55.1235 	 -33.7312
| 31> H 	 -120.62 	 56.0399 	 -34.821
| 32> C 	 -121.003 	 57.1178 	 -33.0965
| 33> H 	 -120.985 	 57.1148 	 -32.0693
| 34> H 	 -122.064 	 57.2605 	 -33.3353
| 35> C 	 -120.26 	 58.3025 	 -33.7252
| 36> H 	 -119.184 	 58.1968 	 -33.6778
| 37> H 	 -120.681 	 59.2466 	 -33.3203
| 38> H 	 -120.65 	 58.31 	 -34.718
| 39> H 	 -122.475 	 52.2619 	 -28.9886
| 40> H 	 -116.231 	 54.4001 	 -34.2111
| 41> *
| 42>
| 43>                          ****END OF INPUT****

CARTESIAN COORDINATES (ANGSTROEM)
---------------------------------
  S    -120.876000   53.768500  -30.034400
  C    -121.994000   52.444100  -29.928500
  C    -122.075000   51.649800  -31.009300
  C    -121.234000   52.146900  -32.054000
  C    -120.548000   53.303100  -31.723200
  H    -121.167000   51.679000  -33.031100
  C    -122.775000   50.285900  -31.064300
  H    -123.054000   49.987800  -30.011900
  H    -121.961000   49.583300  -31.409300
  C    -124.101000   50.207700  -31.822600
  H    -123.984000   50.382200  -32.888400
  H    -124.529000   49.196600  -31.865800
  C    -125.197000   51.145800  -31.320400
  H    -126.154000   50.978600  -31.852600
  H    -125.425000   51.147600  -30.266300
  H    -124.949000   52.201000  -31.629600
  S    -117.899000   53.207600  -32.646200
  C    -117.312000   54.319200  -33.846000
  C    -118.333000   55.194200  -34.221200
  C    -119.548000   54.973500  -33.475400
  C    -119.476000   53.960600  -32.499600
  H    -118.061000   56.020400  -34.871000
  C    -120.730000   55.816800  -33.847900
  H    -121.589000   55.123500  -33.731200
  H    -120.620000   56.039900  -34.821000
  C    -121.003000   57.117800  -33.096500
  H    -120.985000   57.114800  -32.069300
  H    -122.064000   57.260500  -33.335300
  C    -120.260000   58.302500  -33.725200
  H    -119.184000   58.196800  -33.677800
  H    -120.681000   59.246600  -33.320300
  H    -120.650000   58.310000  -34.718000
  H    -122.475000   52.261900  -28.988600
  H    -116.231000   54.400100  -34.211100

 Total Charge           Charge          ....    0
 Multiplicity           Mult            ....    1
 Number of Electrons    NEL             ....  134
 Basis Dimension        Dim             ....  322

ORBITAL ENERGIES
----------------

  NO   OCC          E(Eh)            E(eV)
   0   2.0000     -88.965348     -2420.8702
   1   2.0000     -88.962898     -2420.8035
   2   2.0000     -10.332777      -281.1692
   3   2.0000     -10.326002      -280.9848
   4   2.0000     -10.323409      -280.9143
   5   2.0000     -10.309433      -280.5339
   6   2.0000     -10.304830      -280.4087
   7   2.0000     -10.302416      -280.3430
   8   2.0000     -10.298312      -280.2313
   9   2.0000     -10.297942      -280.2213
  10   2.0000     -10.293027      -280.0875
  11   2.0000     -10.289137      -279.9817
  12   2.0000     -10.280549      -279.7480
  13   2.0000     -10.276626      -279.6412
  14   2.0000     -10.274429      -279.5814
  15   2.0000     -10.274115      -279.5729
  16   2.0000      -8.080135      -219.8716
  17   2.0000      -8.077614      -219.8030
  18   2.0000      -6.038491      -164.3157
  19   2.0000      -6.036159      -164.2522
  20   2.0000      -6.034778      -164.2147
  21   2.0000      -6.031890      -164.1361
  22   2.0000      -6.030912      -164.1095
  23   2.0000      -6.028553      -164.0453
  24   2.0000      -1.003007       -27.2932
  25   2.0000      -0.983508       -26.7626
  26   2.0000      -0.912561       -24.8320
  27   2.0000      -0.908553       -24.7230
  28   2.0000      -0.866327       -23.5739
  29   2.0000      -0.848748       -23.0956
  30   2.0000      -0.847265       -23.0553
  31   2.0000      -0.812082       -22.0979
  32   2.0000      -0.782469       -21.2921
  33   2.0000      -0.770717       -20.9723
  34   2.0000      -0.710306       -19.3284
  35   2.0000      -0.698872       -19.0173
  36   2.0000      -0.688650       -18.7391
  37   2.0000      -0.655505       -17.8372
  38   2.0000      -0.643918       -17.5219
  39   2.0000      -0.619465       -16.8565
  40   2.0000      -0.592774       -16.1302
  41   2.0000      -0.566824       -15.4241
  42   2.0000      -0.554564       -15.0904
  43   2.0000      -0.549429       -14.9507
  44   2.0000      -0.543061       -14.7774
  45   2.0000      -0.539651       -14.6847
  46   2.0000      -0.519151       -14.1268
  47   2.0000      -0.510693       -13.8967
  48   2.0000      -0.500069       -13.6076
  49   2.0000      -0.489481       -13.3194
  50   2.0000      -0.486122       -13.2280
  51   2.0000      -0.478462       -13.0196
  52   2.0000      -0.472369       -12.8538
  53   2.0000      -0.466486       -12.6937
  54   2.0000      -0.459572       -12.5056
  55   2.0000      -0.445990       -12.1360
  56   2.0000      -0.441878       -12.0241
  57   2.0000      -0.439313       -11.9543
  58   2.0000      -0.433244       -11.7892
  59   2.0000      -0.425349       -11.5743
  60   2.0000      -0.419360       -11.4114
  61   2.0000      -0.410979       -11.1833
  62   2.0000      -0.404119       -10.9966
  63   2.0000      -0.337153        -9.1744
  64   2.0000      -0.326788        -8.8924
  65   2.0000      -0.321914        -8.7597
  66   2.0000      -0.311000        -8.4627
  67   0.0000       0.047377         1.2892
  68   0.0000       0.049782         1.3546
  69   0.0000       0.110036         2.9942
  70   0.0000       0.116051         3.1579
  71   0.0000       0.136527         3.7151

MULLIKEN ATOMIC CHARGES
-----------------------
   0 S :    0.108590
   1 C :   -0.121457
   2 C :   -0.064861
   3 C :    0.036210
   4 C :   -0.184539
   5 H :    0.019214
   6 C :    0.041409
   7 H :    0.027698
   8 H :    0.053597
   9 C :   -0.052829
  10 H :    0.020229
  11 H :    0.029720
  12 C :   -0.081382
  13 H :    0.033552
  14 H :    0.032090
  15 H :    0.042753
  16 S :    0.108942
  17 C :   -0.131366
  18 C :   -0.041480
  19 C :   -0.062506
  20 C :   -0.136689
  21 H :    0.027154
  22 C :    0.107759
  23 H :    0.031073
  24 H :   -0.021632
  25 C :   -0.027820
  26 H :    0.010647
  27 H :    0.017550
  28 C :   -0.040698
  29 H :    0.047239
  30 H :    0.033521
  31 H :    0.012597
  32 H :    0.037736
  33 H :    0.087979
Sum of atomic charges:    0.0000000

LOEWDIN ATOMIC CHARGES
----------------------
   0 S :    0.396349
   1 C :   -0.183697
   2 C :   -0.074299
   3 C :   -0.048469
   4 C :   -0.190774
   5 H :    0.034445
   6 C :   -0.031507
   7 H :    0.034509
   8 H :    0.042606
   9 C :   -0.050504
  10 H :    0.022658
  11 H :    0.026792
  12 C :   -0.072427
  13 H :    0.030552
  14 H :    0.019989
  15 H :    0.032053
  16 S :    0.414866
  17 C :   -0.200902
  18 C :   -0.086551
  19 C :   -0.047749
  20 C :   -0.219215
  21 H :    0.032329
  22 C :   -0.024908
  23 H :    0.037427
  24 H :    0.012763
  25 C :   -0.027941
  26 H :    0.009629
  27 H :    0.029417
  28 C :   -0.062370
  29 H :    0.023284
  30 H :    0.031298
  31 H :    0.020756
  32 H :    0.020653
  33 H :    0.048937

  Mayer bond orders larger than 0.100000
B(  0-S ,  1-C ) :   1.1476 B(  0-S ,  4-C ) :   1.1405 B(  1-C ,  2-C ) :   1.6413
B(  1-C , 32-H ) :   0.9637 B(  2-C ,  3-C ) :   1.2215 B(  2-C ,  6-C ) :   1.0037
B(  3-C ,  4-C ) :   1.6070 B(  3-C ,  5-H ) :   0.9980 B(  4-C , 20-C ) :   1.0063
B(  6-C ,  7-H ) :   0.9466 B(  6-C ,  8-H ) :   0.9458 B(  6-C ,  9-C ) :   1.0648
B(  9-C , 10-H ) :   0.9535 B(  9-C , 11-H ) :   0.9571 B(  9-C , 12-C ) :   1.0759
B( 12-C , 13-H ) :   0.9722 B( 12-C , 14-H ) :   0.9782 B( 12-C , 15-H ) :   0.9727
B( 16-S , 17-C ) :   1.1845 B( 16-S , 20-C ) :   1.1350 B( 17-C , 18-C ) :   1.5811
B( 17-C , 33-H ) :   0.9549 B( 18-C , 19-C ) :   1.2618 B( 18-C , 21-H ) :   0.9876
B( 19-C , 20-C ) :   1.5751 B( 19-C , 22-C ) :   1.0539 B( 22-C , 23-H ) :   0.9250
B( 22-C , 24-H ) :   0.9222 B( 22-C , 25-C ) :   1.0715 B( 25-C , 26-H ) :   0.9603
B( 25-C , 27-H ) :   0.9526 B( 25-C , 28-C ) :   1.0752 B( 28-C , 29-H ) :   0.9785
B( 28-C , 30-H ) :   0.9705 B( 28-C , 31-H ) :   0.9748

Dispersion correction           -0.014356476
FINAL SINGLE POINT ENERGY     -1339.871611992798

DIPOLE MOMENT
-------------
                                X             Y             Z
Electronic contribution:     19.89897      -3.96068       7.32919
Nuclear contribution   :    -20.28953       3.88071      -7.64556
                        -----------------------------------------
Total Dipole Moment    :     -0.39056      -0.07997      -0.31637
                        -----------------------------------------
Magnitude (a.u.)       :      0.50894
Magnitude (Debye)      :      1.29362

Rotational constants in cm-1:     0.020568     0.007651     0.006690
Rotational constants in MHz :   616.625376   229.370632   200.566847

                             ****ORCA TERMINATED NORMALLY****
TOTAL RUN TIME: 0 days 0 hours 0 minutes 21 seconds 121 msec
