                         Program Version 4.2.1 -  RELEASE  -
|  1> ! wB97X-D3 SP def2-SVP
|  2> %pal
|  3> nprocs 24
|  4> end
|  5>
|  6> * xyz 0 1
|  7> S 	 -43.3109 	 12.218 	 35.8836
|  8> C 	 -41.549 	 12.3755 	 36.0987
|  9> C 	 -40.9575 	 12.615 	 34.8693
| 10> C 	 -41.9669 	 13.0356 	 33.9437
| 11> C 	 -43.2873 	 12.9495 	 34.3492
| 12> H 	 -41.8077 	 13.4207 	 32.9607
| 13> C 	 -39.4924 	 12.7573 	 34.7055
| 14> H 	 -39.4564 	 12.6006 	 33.595
| 15> H 	 -38.9538 	 11.9116 	 35.2395
| 16> C 	 -38.9134 	 14.1851 	 34.8961
| 17> H 	 -37.8734 	 14.2065 	 34.3891
| 18> H 	 -39.424 	 15.0176 	 34.4198
| 19> C 	 -38.6409 	 14.5709 	 36.3874
| 20> H 	 -39.5975 	 14.5501 	 36.9246
| 21> H 	 -37.8301 	 14.0491 	 36.8915
| 22> H 	 -38.3525 	 15.6622 	 36.408
| 23> S 	 -45.5946 	 11.9776 	 33.2217
| 24> C 	 -46.4353 	 12.9341 	 32.0912
| 25> C 	 -45.9598 	 14.2013 	 32.0344
| 26> C 	 -44.7312 	 14.381 	 32.7425
| 27> C 	 -44.4863 	 13.2667 	 33.529
| 28> H 	 -46.3477 	 14.8625 	 31.2583
| 29> C 	 -43.8906 	 15.5947 	 32.6569
| 30> H 	 -43.0049 	 15.5215 	 33.331
| 31> H 	 -44.3697 	 16.406 	 33.1899
| 32> C 	 -43.5444 	 16.1261 	 31.2653
| 33> H 	 -43.2108 	 17.1439 	 31.3723
| 34> H 	 -44.4503 	 16.2167 	 30.6786
| 35> C 	 -42.6967 	 15.1665 	 30.3525
| 36> H 	 -43.0807 	 14.1828 	 30.0411
| 37> H 	 -41.82 	 14.999 	 30.8927
| 38> H 	 -42.2564 	 15.6856 	 29.5346
| 39> H 	 -40.9112 	 12.0361 	 36.9254
| 40> H 	 -47.4 	 12.6204 	 31.6374
| 41> *
| 42>
| 43>                          ****END OF INPUT****

CARTESIAN COORDINATES (ANGSTROEM)
---------------------------------
  S    -43.310900   12.218000   35.883600
  C    -41.549000   12.375500   36.098700
  C    -40.957500   12.615000   34.869300
  C    -41.966900   13.035600   33.943700
  C    -43.287300   12.949500   34.349200
  H    -41.807700   13.420700   32.960700
  C    -39.492400   12.757300   34.705500
  H    -39.456400   12.600600   33.595000
  H    -38.953800   11.911600   35.239500
  C    -38.913400   14.185100   34.896100
  H    -37.873400   14.206500   34.389100
  H    -39.424000   15.017600   34.419800
  C    -38.640900   14.570900   36.387400
  H    -39.597500   14.550100   36.924600
  H    -37.830100   14.049100   36.891500
  H    -38.352500   15.662200   36.408000
  S    -45.594600   11.977600   33.221700
  C    -46.435300   12.934100   32.091200
  C    -45.959800   14.201300   32.034400
  C    -44.731200   14.381000   32.742500
  C    -44.486300   13.266700   33.529000
  H    -46.347700   14.862500   31.258300
  C    -43.890600   15.594700   32.656900
  H    -43.004900   15.521500   33.331000
  H    -44.369700   16.406000   33.189900
  C    -43.544400   16.126100   31.265300
  H    -43.210800   17.143900   31.372300
  H    -44.450300   16.216700   30.678600
  C    -42.696700   15.166500   30.352500
  H    -43.080700   14.182800   30.041100
  H    -41.820000   14.999000   30.892700
  H    -42.256400   15.685600   29.534600
  H    -40.911200   12.036100   36.925400
  H    -47.400000   12.620400   31.637400

 Total Charge           Charge          ....    0
 Multiplicity           Mult            ....    1
 Number of Electrons    NEL             ....  134
 Basis Dimension        Dim             ....  322

ORBITAL ENERGIES
----------------

  NO   OCC          E(Eh)            E(eV)
   0   2.0000     -88.965099     -2420.8634
   1   2.0000     -88.963356     -2420.8160
   2   2.0000     -10.326079      -280.9869
   3   2.0000     -10.325790      -280.9790
   4   2.0000     -10.314288      -280.6660
   5   2.0000     -10.313059      -280.6326
   6   2.0000     -10.302758      -280.3523
   7   2.0000     -10.301686      -280.3231
   8   2.0000     -10.299550      -280.2650
   9   2.0000     -10.298475      -280.2357
  10   2.0000     -10.290811      -280.0272
  11   2.0000     -10.290648      -280.0228
  12   2.0000     -10.290239      -280.0116
  13   2.0000     -10.288232      -279.9570
  14   2.0000     -10.282094      -279.7900
  15   2.0000     -10.273641      -279.5600
  16   2.0000      -8.081399      -219.9060
  17   2.0000      -8.078392      -219.8242
  18   2.0000      -6.039732      -164.3495
  19   2.0000      -6.036933      -164.2733
  20   2.0000      -6.035697      -164.2397
  21   2.0000      -6.032856      -164.1624
  22   2.0000      -6.032238      -164.1455
  23   2.0000      -6.029083      -164.0597
  24   2.0000      -1.013971       -27.5916
  25   2.0000      -0.991073       -26.9685
  26   2.0000      -0.913024       -24.8446
  27   2.0000      -0.911141       -24.7934
  28   2.0000      -0.865892       -23.5621
  29   2.0000      -0.852488       -23.1974
  30   2.0000      -0.842384       -22.9224
  31   2.0000      -0.814203       -22.1556
  32   2.0000      -0.789065       -21.4716
  33   2.0000      -0.777390       -21.1538
  34   2.0000      -0.713636       -19.4190
  35   2.0000      -0.699721       -19.0404
  36   2.0000      -0.692654       -18.8481
  37   2.0000      -0.654694       -17.8151
  38   2.0000      -0.635365       -17.2892
  39   2.0000      -0.619796       -16.8655
  40   2.0000      -0.603430       -16.4202
  41   2.0000      -0.568761       -15.4768
  42   2.0000      -0.552661       -15.0387
  43   2.0000      -0.542652       -14.7663
  44   2.0000      -0.536213       -14.5911
  45   2.0000      -0.534516       -14.5449
  46   2.0000      -0.521432       -14.1889
  47   2.0000      -0.515397       -14.0247
  48   2.0000      -0.501662       -13.6509
  49   2.0000      -0.499383       -13.5889
  50   2.0000      -0.492085       -13.3903
  51   2.0000      -0.476552       -12.9677
  52   2.0000      -0.469165       -12.7666
  53   2.0000      -0.466850       -12.7036
  54   2.0000      -0.461374       -12.5546
  55   2.0000      -0.455006       -12.3813
  56   2.0000      -0.443051       -12.0560
  57   2.0000      -0.440881       -11.9970
  58   2.0000      -0.435201       -11.8424
  59   2.0000      -0.430335       -11.7100
  60   2.0000      -0.424481       -11.5507
  61   2.0000      -0.406711       -11.0672
  62   2.0000      -0.399349       -10.8668
  63   2.0000      -0.347028        -9.4431
  64   2.0000      -0.331191        -9.0122
  65   2.0000      -0.326225        -8.8770
  66   2.0000      -0.294786        -8.0215
  67   0.0000       0.036553         0.9946
  68   0.0000       0.069473         1.8905
  69   0.0000       0.108067         2.9406
  70   0.0000       0.119806         3.2601
  71   0.0000       0.130398         3.5483

MULLIKEN ATOMIC CHARGES
-----------------------
   0 S :    0.104767
   1 C :   -0.117678
   2 C :   -0.088403
   3 C :    0.027256
   4 C :   -0.151656
   5 H :   -0.018421
   6 C :    0.036937
   7 H :    0.034852
   8 H :    0.051047
   9 C :   -0.081542
  10 H :    0.037862
  11 H :    0.035654
  12 C :   -0.079642
  13 H :    0.041614
  14 H :    0.041271
  15 H :    0.032728
  16 S :    0.118704
  17 C :   -0.108156
  18 C :   -0.029636
  19 C :   -0.043741
  20 C :   -0.137891
  21 H :    0.027027
  22 C :    0.052772
  23 H :    0.025026
  24 H :    0.028557
  25 C :   -0.068364
  26 H :    0.027167
  27 H :    0.022275
  28 C :   -0.021414
  29 H :    0.055175
  30 H :    0.003093
  31 H :    0.018437
  32 H :    0.053570
  33 H :    0.070753
Sum of atomic charges:    0.0000000

LOEWDIN ATOMIC CHARGES
----------------------
   0 S :    0.410201
   1 C :   -0.196695
   2 C :   -0.069867
   3 C :   -0.068374
   4 C :   -0.210332
   5 H :    0.020208
   6 C :   -0.043555
   7 H :    0.041792
   8 H :    0.043099
   9 C :   -0.042304
  10 H :    0.031917
  11 H :    0.027039
  12 C :   -0.077038
  13 H :    0.025629
  14 H :    0.023129
  15 H :    0.031771
  16 S :    0.432509
  17 C :   -0.201139
  18 C :   -0.075793
  19 C :   -0.053993
  20 C :   -0.203285
  21 H :    0.033585
  22 C :   -0.043128
  23 H :    0.035465
  24 H :    0.038003
  25 C :   -0.034422
  26 H :    0.027502
  27 H :    0.020794
  28 C :   -0.068337
  29 H :    0.034950
  30 H :    0.014137
  31 H :    0.026218
  32 H :    0.032778
  33 H :    0.037542

  Mayer bond orders larger than 0.100000
B(  0-S ,  1-C ) :   1.1378 B(  0-S ,  4-C ) :   1.1568 B(  1-C ,  2-C ) :   1.5937
B(  1-C , 32-H ) :   0.9616 B(  2-C ,  3-C ) :   1.2336 B(  2-C ,  6-C ) :   1.0419
B(  3-C ,  4-C ) :   1.5723 B(  3-C ,  5-H ) :   0.9988 B(  4-C , 20-C ) :   1.0017
B(  6-C ,  7-H ) :   0.9317 B(  6-C ,  8-H ) :   0.9402 B(  6-C ,  9-C ) :   1.0578
B(  9-C , 10-H ) :   0.9562 B(  9-C , 11-H ) :   0.9584 B(  9-C , 12-C ) :   1.0759
B( 12-C , 13-H ) :   0.9731 B( 12-C , 14-H ) :   0.9787 B( 12-C , 15-H ) :   0.9731
B( 16-S , 17-C ) :   1.1684 B( 16-S , 20-C ) :   1.1587 B( 17-C , 18-C ) :   1.6269
B( 17-C , 33-H ) :   0.9573 B( 18-C , 19-C ) :   1.2321 B( 18-C , 21-H ) :   0.9815
B( 19-C , 20-C ) :   1.5986 B( 19-C , 22-C ) :   1.0584 B( 22-C , 23-H ) :   0.9297
B( 22-C , 24-H ) :   0.9202 B( 22-C , 25-C ) :   1.0789 B( 25-C , 26-H ) :   0.9527
B( 25-C , 27-H ) :   0.9560 B( 25-C , 28-C ) :   1.0620 B( 28-C , 29-H ) :   0.9762
B( 28-C , 30-H ) :   0.9688 B( 28-C , 31-H ) :   0.9672

Dispersion correction           -0.015018580
FINAL SINGLE POINT ENERGY     -1339.862231664113

DIPOLE MOMENT
-------------
                                X             Y             Z
Electronic contribution:    -22.27773     -17.23579       7.76206
Nuclear contribution   :     22.70879      17.70761      -8.22256
                        -----------------------------------------
Total Dipole Moment    :      0.43105       0.47182      -0.46050
                        -----------------------------------------
Magnitude (a.u.)       :      0.78771
Magnitude (Debye)      :      2.00219

Rotational constants in cm-1:     0.019750     0.009155     0.006857
Rotational constants in MHz :   592.092269   274.467344   205.553792

                             ****ORCA TERMINATED NORMALLY****
TOTAL RUN TIME: 0 days 0 hours 0 minutes 22 seconds 171 msec
