                         Program Version 4.2.1 -  RELEASE  -
|  1> ! wB97X-D3 SP def2-SVP
|  2> %pal
|  3> nprocs 24
|  4> end
|  5>
|  6> * xyz 0 1
|  7> S 	 -75.307 	 8.95876 	 -111.605
|  8> C 	 -76.8002 	 8.79582 	 -110.652
|  9> C 	 -76.5677 	 9.08026 	 -109.338
| 10> C 	 -75.1928 	 9.16571 	 -109.075
| 11> C 	 -74.3779 	 9.28536 	 -110.189
| 12> H 	 -74.7911 	 9.26335 	 -108.071
| 13> C 	 -77.6274 	 9.15303 	 -108.284
| 14> H 	 -77.4201 	 8.44574 	 -107.468
| 15> H 	 -78.5811 	 8.90393 	 -108.73
| 16> C 	 -77.7762 	 10.5105 	 -107.614
| 17> H 	 -78.7591 	 10.4867 	 -107.05
| 18> H 	 -76.9386 	 10.5021 	 -106.986
| 19> C 	 -77.7094 	 11.6456 	 -108.514
| 20> H 	 -78.2788 	 11.3636 	 -109.43
| 21> H 	 -78.215 	 12.5976 	 -108.059
| 22> H 	 -76.6838 	 11.8699 	 -108.767
| 23> S 	 -72.015 	 9.10351 	 -111.621
| 24> C 	 -70.715 	 10.2038 	 -111.329
| 25> C 	 -70.8701 	 10.6902 	 -110.07
| 26> C 	 -72.1523 	 10.4378 	 -109.458
| 27> C 	 -72.9873 	 9.74253 	 -110.306
| 28> H 	 -70.1 	 11.2436 	 -109.649
| 29> C 	 -72.5074 	 10.9709 	 -108.046
| 30> H 	 -71.6283 	 11.3229 	 -107.569
| 31> H 	 -72.9836 	 10.1383 	 -107.523
| 32> C 	 -73.5981 	 12.1216 	 -108.013
| 33> H 	 -73.9188 	 12.2666 	 -106.955
| 34> H 	 -74.4959 	 11.9033 	 -108.584
| 35> C 	 -72.9513 	 13.4212 	 -108.645
| 36> H 	 -72.1821 	 13.8754 	 -108.026
| 37> H 	 -73.5822 	 14.3397 	 -108.732
| 38> H 	 -72.4246 	 13.2414 	 -109.482
| 39> H 	 -77.7817 	 8.50994 	 -111.041
| 40> H 	 -69.769 	 10.2516 	 -111.962
| 41> *
| 42>
| 43>                          ****END OF INPUT****

CARTESIAN COORDINATES (ANGSTROEM)
---------------------------------
  S    -75.307000    8.958760  -111.605000
  C    -76.800200    8.795820  -110.652000
  C    -76.567700    9.080260  -109.338000
  C    -75.192800    9.165710  -109.075000
  C    -74.377900    9.285360  -110.189000
  H    -74.791100    9.263350  -108.071000
  C    -77.627400    9.153030  -108.284000
  H    -77.420100    8.445740  -107.468000
  H    -78.581100    8.903930  -108.730000
  C    -77.776200   10.510500  -107.614000
  H    -78.759100   10.486700  -107.050000
  H    -76.938600   10.502100  -106.986000
  C    -77.709400   11.645600  -108.514000
  H    -78.278800   11.363600  -109.430000
  H    -78.215000   12.597600  -108.059000
  H    -76.683800   11.869900  -108.767000
  S    -72.015000    9.103510  -111.621000
  C    -70.715000   10.203800  -111.329000
  C    -70.870100   10.690200  -110.070000
  C    -72.152300   10.437800  -109.458000
  C    -72.987300    9.742530  -110.306000
  H    -70.100000   11.243600  -109.649000
  C    -72.507400   10.970900  -108.046000
  H    -71.628300   11.322900  -107.569000
  H    -72.983600   10.138300  -107.523000
  C    -73.598100   12.121600  -108.013000
  H    -73.918800   12.266600  -106.955000
  H    -74.495900   11.903300  -108.584000
  C    -72.951300   13.421200  -108.645000
  H    -72.182100   13.875400  -108.026000
  H    -73.582200   14.339700  -108.732000
  H    -72.424600   13.241400  -109.482000
  H    -77.781700    8.509940  -111.041000
  H    -69.769000   10.251600  -111.962000

 Total Charge           Charge          ....    0
 Multiplicity           Mult            ....    1
 Number of Electrons    NEL             ....  134
 Basis Dimension        Dim             ....  322

ORBITAL ENERGIES
----------------

  NO   OCC          E(Eh)            E(eV)
   0   2.0000     -88.966855     -2420.9112
   1   2.0000     -88.961254     -2420.7588
   2   2.0000     -10.332571      -281.1636
   3   2.0000     -10.330221      -281.0996
   4   2.0000     -10.321112      -280.8517
   5   2.0000     -10.315896      -280.7098
   6   2.0000     -10.308273      -280.5024
   7   2.0000     -10.299466      -280.2627
   8   2.0000     -10.297843      -280.2185
   9   2.0000     -10.297395      -280.2064
  10   2.0000     -10.293225      -280.0929
  11   2.0000     -10.290618      -280.0219
  12   2.0000     -10.289184      -279.9829
  13   2.0000     -10.278878      -279.7025
  14   2.0000     -10.277950      -279.6772
  15   2.0000     -10.269904      -279.4583
  16   2.0000      -8.081536      -219.9098
  17   2.0000      -8.076806      -219.7811
  18   2.0000      -6.040080      -164.3589
  19   2.0000      -6.036032      -164.2488
  20   2.0000      -6.035403      -164.2317
  21   2.0000      -6.032254      -164.1460
  22   2.0000      -6.031308      -164.1202
  23   2.0000      -6.027294      -164.0110
  24   2.0000      -1.013293       -27.5731
  25   2.0000      -0.992167       -26.9982
  26   2.0000      -0.927047       -25.2262
  27   2.0000      -0.902519       -24.5588
  28   2.0000      -0.874663       -23.8008
  29   2.0000      -0.848959       -23.1013
  30   2.0000      -0.840182       -22.8625
  31   2.0000      -0.817859       -22.2551
  32   2.0000      -0.787154       -21.4196
  33   2.0000      -0.779023       -21.1983
  34   2.0000      -0.715100       -19.4589
  35   2.0000      -0.698660       -19.0115
  36   2.0000      -0.688444       -18.7335
  37   2.0000      -0.662818       -18.0362
  38   2.0000      -0.636619       -17.3233
  39   2.0000      -0.628653       -17.1065
  40   2.0000      -0.593817       -16.1586
  41   2.0000      -0.575262       -15.6537
  42   2.0000      -0.563244       -15.3266
  43   2.0000      -0.554847       -15.0982
  44   2.0000      -0.546647       -14.8750
  45   2.0000      -0.545177       -14.8350
  46   2.0000      -0.516538       -14.0557
  47   2.0000      -0.508891       -13.8476
  48   2.0000      -0.504315       -13.7231
  49   2.0000      -0.501422       -13.6444
  50   2.0000      -0.490554       -13.3487
  51   2.0000      -0.480901       -13.0860
  52   2.0000      -0.473301       -12.8792
  53   2.0000      -0.470919       -12.8143
  54   2.0000      -0.461443       -12.5565
  55   2.0000      -0.449490       -12.2312
  56   2.0000      -0.440142       -11.9769
  57   2.0000      -0.434800       -11.8315
  58   2.0000      -0.433057       -11.7841
  59   2.0000      -0.427843       -11.6422
  60   2.0000      -0.419428       -11.4132
  61   2.0000      -0.413842       -11.2612
  62   2.0000      -0.409212       -11.1352
  63   2.0000      -0.356161        -9.6916
  64   2.0000      -0.333266        -9.0686
  65   2.0000      -0.326272        -8.8783
  66   2.0000      -0.289335        -7.8732
  67   0.0000       0.016129         0.4389
  68   0.0000       0.085124         2.3163
  69   0.0000       0.099911         2.7187
  70   0.0000       0.117269         3.1910
  71   0.0000       0.124899         3.3987

MULLIKEN ATOMIC CHARGES
-----------------------
   0 S :    0.108460
   1 C :   -0.118248
   2 C :   -0.117775
   3 C :   -0.000629
   4 C :   -0.111743
   5 H :   -0.001262
   6 C :    0.089338
   7 H :    0.036020
   8 H :    0.006045
   9 C :   -0.074067
  10 H :    0.042443
  11 H :    0.006426
  12 C :   -0.046101
  13 H :    0.026836
  14 H :    0.047976
  15 H :    0.034997
  16 S :    0.087883
  17 C :   -0.103643
  18 C :   -0.018117
  19 C :   -0.060576
  20 C :   -0.123001
  21 H :   -0.009117
  22 C :    0.080554
  23 H :    0.017238
  24 H :    0.034990
  25 C :   -0.086587
  26 H :    0.038400
  27 H :    0.059120
  28 C :   -0.034062
  29 H :    0.004899
  30 H :    0.035546
  31 H :    0.011453
  32 H :    0.048936
  33 H :    0.087367
Sum of atomic charges:    0.0000000

LOEWDIN ATOMIC CHARGES
----------------------
   0 S :    0.409335
   1 C :   -0.186672
   2 C :   -0.067566
   3 C :   -0.069923
   4 C :   -0.194245
   5 H :    0.025924
   6 C :   -0.027093
   7 H :    0.035903
   8 H :    0.022951
   9 C :   -0.048135
  10 H :    0.034353
  11 H :    0.012388
  12 C :   -0.070545
  13 H :    0.028112
  14 H :    0.038503
  15 H :    0.023197
  16 S :    0.400306
  17 C :   -0.195729
  18 C :   -0.070983
  19 C :   -0.055636
  20 C :   -0.190596
  21 H :    0.018559
  22 C :   -0.019709
  23 H :    0.025688
  24 H :    0.028951
  25 C :   -0.031312
  26 H :    0.027515
  27 H :    0.021462
  28 C :   -0.068473
  29 H :    0.022966
  30 H :    0.031923
  31 H :    0.008063
  32 H :    0.031248
  33 H :    0.049269

  Mayer bond orders larger than 0.100000
B(  0-S ,  1-C ) :   1.1287 B(  0-S ,  4-C ) :   1.1644 B(  1-C ,  2-C ) :   1.6070
B(  1-C ,  4-C ) :   0.1004 B(  1-C , 32-H ) :   0.9639 B(  2-C ,  3-C ) :   1.2569
B(  2-C ,  6-C ) :   1.0354 B(  3-C ,  4-C ) :   1.5412 B(  3-C ,  5-H ) :   0.9939
B(  4-C , 20-C ) :   1.0553 B(  6-C ,  7-H ) :   0.9430 B(  6-C ,  8-H ) :   0.9331
B(  6-C ,  9-C ) :   1.0645 B(  9-C , 10-H ) :   0.9539 B(  9-C , 11-H ) :   0.9533
B(  9-C , 12-C ) :   1.1028 B( 12-C , 13-H ) :   0.9703 B( 12-C , 14-H ) :   0.9674
B( 12-C , 15-H ) :   0.9586 B( 16-S , 17-C ) :   1.1456 B( 16-S , 20-C ) :   1.1467
B( 17-C , 18-C ) :   1.6028 B( 17-C , 33-H ) :   0.9607 B( 18-C , 19-C ) :   1.2310
B( 18-C , 21-H ) :   1.0022 B( 19-C , 20-C ) :   1.5890 B( 19-C , 22-C ) :   1.0368
B( 22-C , 23-H ) :   0.9387 B( 22-C , 24-H ) :   0.9346 B( 22-C , 25-C ) :   1.0662
B( 25-C , 26-H ) :   0.9591 B( 25-C , 27-H ) :   0.9498 B( 25-C , 28-C ) :   1.0553
B( 28-C , 29-H ) :   0.9711 B( 28-C , 30-H ) :   0.9753 B( 28-C , 31-H ) :   0.9813

Dispersion correction           -0.016392506
FINAL SINGLE POINT ENERGY     -1339.859484204436

DIPOLE MOMENT
-------------
                                X             Y             Z
Electronic contribution:     11.13921     -17.59680     -20.50561
Nuclear contribution   :    -11.16356      17.88029      21.15332
                        -----------------------------------------
Total Dipole Moment    :     -0.02435       0.28349       0.64771
                        -----------------------------------------
Magnitude (a.u.)       :      0.70746
Magnitude (Debye)      :      1.79821

Rotational constants in cm-1:     0.019805     0.010645     0.007649
Rotational constants in MHz :   593.727302   319.139522   229.312864

                             ****ORCA TERMINATED NORMALLY****
TOTAL RUN TIME: 0 days 0 hours 0 minutes 23 seconds 747 msec
