                         Program Version 4.2.1 -  RELEASE  -
|  1> ! wB97X-D3 SP def2-SVP
|  2> %pal
|  3> nprocs 24
|  4> end
|  5>
|  6> * xyz 0 1
|  7> S 	 -49.1795 	 17.4205 	 26.7943
|  8> C 	 -49.7125 	 15.8083 	 26.4068
|  9> C 	 -49.9265 	 15.0354 	 27.5469
| 10> C 	 -49.6687 	 15.7401 	 28.7631
| 11> C 	 -49.4814 	 17.1064 	 28.493
| 12> H 	 -49.7085 	 15.2507 	 29.7804
| 13> C 	 -50.1811 	 13.5296 	 27.5764
| 14> H 	 -50.6013 	 13.2073 	 26.6403
| 15> H 	 -50.9182 	 13.3589 	 28.289
| 16> C 	 -48.8624 	 12.7559 	 27.8136
| 17> H 	 -48.0827 	 13.0402 	 27.1499
| 18> H 	 -48.53 	 12.8939 	 28.7778
| 19> C 	 -49.1054 	 11.2389 	 27.7387
| 20> H 	 -49.9173 	 10.8248 	 28.3867
| 21> H 	 -49.308 	 10.978 	 26.7261
| 22> H 	 -48.197 	 10.7642 	 28.0632
| 23> S 	 -47.4116 	 18.222 	 29.9614
| 24> C 	 -47.7096 	 19.4335 	 31.2144
| 25> C 	 -49.1016 	 19.5291 	 31.3623
| 26> C 	 -49.8642 	 18.753 	 30.3973
| 27> C 	 -49.0987 	 18.0061 	 29.5451
| 28> H 	 -49.5665 	 20.0715 	 32.1656
| 29> C 	 -51.3726 	 18.7656 	 30.41
| 30> H 	 -51.7635 	 18.155 	 29.6135
| 31> H 	 -51.6405 	 19.7093 	 29.9437
| 32> C 	 -52.0836 	 18.6009 	 31.7405
| 33> H 	 -51.8699 	 19.4208 	 32.4224
| 34> H 	 -51.6675 	 17.6058 	 32.1108
| 35> C 	 -53.5523 	 18.2848 	 31.4988
| 36> H 	 -54.164 	 19.1456 	 31.2246
| 37> H 	 -53.9578 	 17.8 	 32.3067
| 38> H 	 -53.7466 	 17.5094 	 30.7473
| 39> H 	 -49.8319 	 15.3348 	 25.451
| 40> H 	 -46.9307 	 19.7227 	 31.9699
| 41> *
| 42>
| 43>                          ****END OF INPUT****

CARTESIAN COORDINATES (ANGSTROEM)
---------------------------------
  S    -49.179500   17.420500   26.794300
  C    -49.712500   15.808300   26.406800
  C    -49.926500   15.035400   27.546900
  C    -49.668700   15.740100   28.763100
  C    -49.481400   17.106400   28.493000
  H    -49.708500   15.250700   29.780400
  C    -50.181100   13.529600   27.576400
  H    -50.601300   13.207300   26.640300
  H    -50.918200   13.358900   28.289000
  C    -48.862400   12.755900   27.813600
  H    -48.082700   13.040200   27.149900
  H    -48.530000   12.893900   28.777800
  C    -49.105400   11.238900   27.738700
  H    -49.917300   10.824800   28.386700
  H    -49.308000   10.978000   26.726100
  H    -48.197000   10.764200   28.063200
  S    -47.411600   18.222000   29.961400
  C    -47.709600   19.433500   31.214400
  C    -49.101600   19.529100   31.362300
  C    -49.864200   18.753000   30.397300
  C    -49.098700   18.006100   29.545100
  H    -49.566500   20.071500   32.165600
  C    -51.372600   18.765600   30.410000
  H    -51.763500   18.155000   29.613500
  H    -51.640500   19.709300   29.943700
  C    -52.083600   18.600900   31.740500
  H    -51.869900   19.420800   32.422400
  H    -51.667500   17.605800   32.110800
  C    -53.552300   18.284800   31.498800
  H    -54.164000   19.145600   31.224600
  H    -53.957800   17.800000   32.306700
  H    -53.746600   17.509400   30.747300
  H    -49.831900   15.334800   25.451000
  H    -46.930700   19.722700   31.969900

 Total Charge           Charge          ....    0
 Multiplicity           Mult            ....    1
 Number of Electrons    NEL             ....  134
 Basis Dimension        Dim             ....  322

ORBITAL ENERGIES
----------------

  NO   OCC          E(Eh)            E(eV)
   0   2.0000     -88.972133     -2421.0548
   1   2.0000     -88.956857     -2420.6391
   2   2.0000     -10.328111      -281.0422
   3   2.0000     -10.323752      -280.9236
   4   2.0000     -10.317926      -280.7650
   5   2.0000     -10.313066      -280.6328
   6   2.0000     -10.301841      -280.3273
   7   2.0000     -10.298377      -280.2331
   8   2.0000     -10.297326      -280.2045
   9   2.0000     -10.295375      -280.1514
  10   2.0000     -10.291584      -280.0482
  11   2.0000     -10.286576      -279.9120
  12   2.0000     -10.279879      -279.7297
  13   2.0000     -10.278846      -279.7016
  14   2.0000     -10.275730      -279.6168
  15   2.0000     -10.270882      -279.4849
  16   2.0000      -8.086439      -220.0432
  17   2.0000      -8.071606      -219.6396
  18   2.0000      -6.044935      -164.4910
  19   2.0000      -6.041113      -164.3870
  20   2.0000      -6.037128      -164.2786
  21   2.0000      -6.030186      -164.0897
  22   2.0000      -6.026025      -163.9765
  23   2.0000      -6.022346      -163.8764
  24   2.0000      -1.004418       -27.3316
  25   2.0000      -0.979510       -26.6538
  26   2.0000      -0.913710       -24.8633
  27   2.0000      -0.910153       -24.7665
  28   2.0000      -0.869129       -23.6502
  29   2.0000      -0.851916       -23.1818
  30   2.0000      -0.845759       -23.0143
  31   2.0000      -0.809132       -22.0176
  32   2.0000      -0.780771       -21.2459
  33   2.0000      -0.770828       -20.9753
  34   2.0000      -0.708682       -19.2842
  35   2.0000      -0.704936       -19.1823
  36   2.0000      -0.698860       -19.0170
  37   2.0000      -0.654876       -17.8201
  38   2.0000      -0.636585       -17.3224
  39   2.0000      -0.616510       -16.7761
  40   2.0000      -0.595061       -16.1924
  41   2.0000      -0.573788       -15.6136
  42   2.0000      -0.567540       -15.4435
  43   2.0000      -0.561140       -15.2694
  44   2.0000      -0.527959       -14.3665
  45   2.0000      -0.526833       -14.3359
  46   2.0000      -0.515531       -14.0283
  47   2.0000      -0.509260       -13.8577
  48   2.0000      -0.505478       -13.7547
  49   2.0000      -0.500774       -13.6267
  50   2.0000      -0.489376       -13.3166
  51   2.0000      -0.476452       -12.9649
  52   2.0000      -0.473634       -12.8882
  53   2.0000      -0.465181       -12.6582
  54   2.0000      -0.459547       -12.5049
  55   2.0000      -0.450952       -12.2710
  56   2.0000      -0.444246       -12.0885
  57   2.0000      -0.437858       -11.9147
  58   2.0000      -0.434629       -11.8269
  59   2.0000      -0.428286       -11.6543
  60   2.0000      -0.418198       -11.3797
  61   2.0000      -0.415974       -11.3192
  62   2.0000      -0.406736       -11.0678
  63   2.0000      -0.336507        -9.1568
  64   2.0000      -0.321472        -8.7477
  65   2.0000      -0.319392        -8.6911
  66   2.0000      -0.306653        -8.3444
  67   0.0000       0.040092         1.0910
  68   0.0000       0.052547         1.4299
  69   0.0000       0.114824         3.1245
  70   0.0000       0.123076         3.3491
  71   0.0000       0.130700         3.5565

MULLIKEN ATOMIC CHARGES
-----------------------
   0 S :    0.135166
   1 C :   -0.097221
   2 C :   -0.114185
   3 C :    0.004807
   4 C :   -0.174870
   5 H :    0.048804
   6 C :    0.108741
   7 H :    0.002540
   8 H :    0.008990
   9 C :   -0.037553
  10 H :    0.028748
  11 H :    0.006951
  12 C :   -0.044463
  13 H :    0.034394
  14 H :    0.023376
  15 H :    0.027779
  16 S :    0.090778
  17 C :   -0.114912
  18 C :   -0.029610
  19 C :   -0.034016
  20 C :   -0.165656
  21 H :    0.014520
  22 C :    0.080280
  23 H :    0.008483
  24 H :    0.017702
  25 C :   -0.084989
  26 H :    0.044481
  27 H :    0.035464
  28 C :   -0.010540
  29 H :    0.033789
  30 H :    0.007478
  31 H :    0.021287
  32 H :    0.034891
  33 H :    0.088568
Sum of atomic charges:   -0.0000000

LOEWDIN ATOMIC CHARGES
----------------------
   0 S :    0.421617
   1 C :   -0.204314
   2 C :   -0.062892
   3 C :   -0.050588
   4 C :   -0.204452
   5 H :    0.045865
   6 C :   -0.020488
   7 H :    0.023694
   8 H :    0.020782
   9 C :   -0.023245
  10 H :    0.025231
  11 H :    0.012609
  12 C :   -0.061030
  13 H :    0.029179
  14 H :    0.017139
  15 H :    0.023793
  16 S :    0.389877
  17 C :   -0.192765
  18 C :   -0.070669
  19 C :   -0.056453
  20 C :   -0.208736
  21 H :    0.025234
  22 C :   -0.042548
  23 H :    0.028636
  24 H :    0.032289
  25 C :   -0.037814
  26 H :    0.025163
  27 H :    0.034619
  28 C :   -0.061886
  29 H :    0.025585
  30 H :    0.014725
  31 H :    0.030863
  32 H :    0.026329
  33 H :    0.044651

  Mayer bond orders larger than 0.100000
B(  0-S ,  1-C ) :   1.1394 B(  0-S ,  4-C ) :   1.1562 B(  1-C ,  2-C ) :   1.6071
B(  1-C , 32-H ) :   0.9653 B(  2-C ,  3-C ) :   1.2559 B(  2-C ,  6-C ) :   1.0351
B(  3-C ,  4-C ) :   1.5528 B(  3-C ,  5-H ) :   0.9835 B(  4-C , 20-C ) :   1.0329
B(  6-C ,  7-H ) :   0.9399 B(  6-C ,  8-H ) :   0.9340 B(  6-C ,  9-C ) :   1.0633
B(  9-C , 10-H ) :   0.9566 B(  9-C , 11-H ) :   0.9546 B(  9-C , 12-C ) :   1.0872
B( 12-C , 13-H ) :   0.9745 B( 12-C , 14-H ) :   0.9777 B( 12-C , 15-H ) :   0.9743
B( 16-S , 17-C ) :   1.1548 B( 16-S , 20-C ) :   1.1314 B( 17-C , 18-C ) :   1.5928
B( 17-C , 33-H ) :   0.9602 B( 18-C , 19-C ) :   1.2429 B( 18-C , 21-H ) :   0.9892
B( 19-C , 20-C ) :   1.6175 B( 19-C , 22-C ) :   1.0488 B( 22-C , 23-H ) :   0.9298
B( 22-C , 24-H ) :   0.9162 B( 22-C , 25-C ) :   1.0535 B( 25-C , 26-H ) :   0.9511
B( 25-C , 27-H ) :   0.9591 B( 25-C , 28-C ) :   1.0898 B( 28-C , 29-H ) :   0.9738
B( 28-C , 30-H ) :   0.9707 B( 28-C , 31-H ) :   0.9695

Dispersion correction           -0.013771577
FINAL SINGLE POINT ENERGY     -1339.862918504813

DIPOLE MOMENT
-------------
                                X             Y             Z
Electronic contribution:     16.33035      17.13805      -7.27119
Nuclear contribution   :    -16.72315     -17.67697       7.58220
                        -----------------------------------------
Total Dipole Moment    :     -0.39280      -0.53892       0.31101
                        -----------------------------------------
Magnitude (a.u.)       :      0.73583
Magnitude (Debye)      :      1.87034

Rotational constants in cm-1:     0.017743     0.007835     0.006771
Rotational constants in MHz :   531.916126   234.878271   203.001965

                             ****ORCA TERMINATED NORMALLY****
TOTAL RUN TIME: 0 days 0 hours 0 minutes 21 seconds 33 msec
