                         Program Version 4.2.1 -  RELEASE  -
|  1> ! wB97X-D3 SP def2-SVP
|  2> %pal
|  3> nprocs 24
|  4> end
|  5>
|  6> * xyz 0 1
|  7> S 	 -31.4954 	 -4.97453 	 -7.33797
|  8> C 	 -30.0796 	 -5.80906 	 -6.84264
|  9> C 	 -29.6973 	 -5.44852 	 -5.54521
| 10> C 	 -30.6759 	 -4.69283 	 -4.92589
| 11> C 	 -31.674 	 -4.25387 	 -5.75415
| 12> H 	 -30.6845 	 -4.43719 	 -3.82329
| 13> C 	 -28.5809 	 -6.00813 	 -4.67185
| 14> H 	 -29.0226 	 -6.82282 	 -4.05649
| 15> H 	 -28.1086 	 -5.15919 	 -4.05234
| 16> C 	 -27.4208 	 -6.55528 	 -5.46878
| 17> H 	 -27.6986 	 -7.38921 	 -6.11533
| 18> H 	 -27.0974 	 -5.78662 	 -6.17032
| 19> C 	 -26.2378 	 -7.02843 	 -4.52393
| 20> H 	 -25.4412 	 -7.56231 	 -5.10081
| 21> H 	 -25.8745 	 -6.12481 	 -4.07784
| 22> H 	 -26.6206 	 -7.74885 	 -3.82401
| 23> S 	 -34.0921 	 -3.90368 	 -4.43025
| 24> C 	 -34.8949 	 -2.3821 	 -4.49814
| 25> C 	 -34.192 	 -1.4908 	 -5.33464
| 26> C 	 -32.8747 	 -1.94993 	 -5.72245
| 27> C 	 -32.8066 	 -3.32012 	 -5.46571
| 28> H 	 -34.6142 	 -0.494578 	 -5.38515
| 29> C 	 -31.8385 	 -1.05699 	 -6.43633
| 30> H 	 -32.3512 	 -0.109718 	 -6.79248
| 31> H 	 -31.5039 	 -1.43257 	 -7.42598
| 32> C 	 -30.5104 	 -0.772647 	 -5.60152
| 33> H 	 -30.1021 	 -1.76453 	 -5.32898
| 34> H 	 -30.7734 	 -0.309531 	 -4.71224
| 35> C 	 -29.4456 	 -0.051023 	 -6.48948
| 36> H 	 -28.5679 	 0.141404 	 -5.91791
| 37> H 	 -29.7797 	 0.893471 	 -6.94848
| 38> H 	 -29.2049 	 -0.752332 	 -7.31539
| 39> H 	 -29.5389 	 -6.40838 	 -7.54557
| 40> H 	 -35.8228 	 -2.14531 	 -3.99809
| 41> *
| 42>
| 43>                          ****END OF INPUT****

CARTESIAN COORDINATES (ANGSTROEM)
---------------------------------
  S    -31.495400   -4.974530   -7.337970
  C    -30.079600   -5.809060   -6.842640
  C    -29.697300   -5.448520   -5.545210
  C    -30.675900   -4.692830   -4.925890
  C    -31.674000   -4.253870   -5.754150
  H    -30.684500   -4.437190   -3.823290
  C    -28.580900   -6.008130   -4.671850
  H    -29.022600   -6.822820   -4.056490
  H    -28.108600   -5.159190   -4.052340
  C    -27.420800   -6.555280   -5.468780
  H    -27.698600   -7.389210   -6.115330
  H    -27.097400   -5.786620   -6.170320
  C    -26.237800   -7.028430   -4.523930
  H    -25.441200   -7.562310   -5.100810
  H    -25.874500   -6.124810   -4.077840
  H    -26.620600   -7.748850   -3.824010
  S    -34.092100   -3.903680   -4.430250
  C    -34.894900   -2.382100   -4.498140
  C    -34.192000   -1.490800   -5.334640
  C    -32.874700   -1.949930   -5.722450
  C    -32.806600   -3.320120   -5.465710
  H    -34.614200   -0.494578   -5.385150
  C    -31.838500   -1.056990   -6.436330
  H    -32.351200   -0.109718   -6.792480
  H    -31.503900   -1.432570   -7.425980
  C    -30.510400   -0.772647   -5.601520
  H    -30.102100   -1.764530   -5.328980
  H    -30.773400   -0.309531   -4.712240
  C    -29.445600   -0.051023   -6.489480
  H    -28.567900    0.141404   -5.917910
  H    -29.779700    0.893471   -6.948480
  H    -29.204900   -0.752332   -7.315390
  H    -29.538900   -6.408380   -7.545570
  H    -35.822800   -2.145310   -3.998090

 Total Charge           Charge          ....    0
 Multiplicity           Mult            ....    1
 Number of Electrons    NEL             ....  134
 Basis Dimension        Dim             ....  322

ORBITAL ENERGIES
----------------

  NO   OCC          E(Eh)            E(eV)
   0   2.0000     -88.966818     -2420.9102
   1   2.0000     -88.966043     -2420.8891
   2   2.0000     -10.326657      -281.0026
   3   2.0000     -10.325495      -280.9710
   4   2.0000     -10.316363      -280.7225
   5   2.0000     -10.313617      -280.6478
   6   2.0000     -10.310173      -280.5541
   7   2.0000     -10.301265      -280.3117
   8   2.0000     -10.300363      -280.2871
   9   2.0000     -10.297812      -280.2177
  10   2.0000     -10.295762      -280.1619
  11   2.0000     -10.291206      -280.0380
  12   2.0000     -10.285404      -279.8801
  13   2.0000     -10.285165      -279.8736
  14   2.0000     -10.281737      -279.7803
  15   2.0000     -10.279596      -279.7220
  16   2.0000      -8.081804      -219.9171
  17   2.0000      -8.081304      -219.9035
  18   2.0000      -6.040146      -164.3607
  19   2.0000      -6.039582      -164.3454
  20   2.0000      -6.036242      -164.2545
  21   2.0000      -6.035627      -164.2377
  22   2.0000      -6.032771      -164.1601
  23   2.0000      -6.032394      -164.1498
  24   2.0000      -1.007634       -27.4191
  25   2.0000      -0.986167       -26.8350
  26   2.0000      -0.910651       -24.7801
  27   2.0000      -0.895960       -24.3803
  28   2.0000      -0.859904       -23.3992
  29   2.0000      -0.853316       -23.2199
  30   2.0000      -0.846846       -23.0438
  31   2.0000      -0.807142       -21.9635
  32   2.0000      -0.778350       -21.1800
  33   2.0000      -0.766748       -20.8643
  34   2.0000      -0.707700       -19.2575
  35   2.0000      -0.700681       -19.0665
  36   2.0000      -0.683154       -18.5896
  37   2.0000      -0.656568       -17.8661
  38   2.0000      -0.643015       -17.4973
  39   2.0000      -0.613539       -16.6952
  40   2.0000      -0.593117       -16.1395
  41   2.0000      -0.576850       -15.6969
  42   2.0000      -0.563916       -15.3449
  43   2.0000      -0.554300       -15.0833
  44   2.0000      -0.517934       -14.0937
  45   2.0000      -0.515964       -14.0401
  46   2.0000      -0.513511       -13.9733
  47   2.0000      -0.509348       -13.8601
  48   2.0000      -0.507584       -13.8121
  49   2.0000      -0.497880       -13.5480
  50   2.0000      -0.488357       -13.2889
  51   2.0000      -0.479468       -13.0470
  52   2.0000      -0.465827       -12.6758
  53   2.0000      -0.464972       -12.6525
  54   2.0000      -0.456389       -12.4190
  55   2.0000      -0.443171       -12.0593
  56   2.0000      -0.441578       -12.0160
  57   2.0000      -0.436574       -11.8798
  58   2.0000      -0.430506       -11.7147
  59   2.0000      -0.427813       -11.6414
  60   2.0000      -0.425091       -11.5673
  61   2.0000      -0.417899       -11.3716
  62   2.0000      -0.416389       -11.3305
  63   2.0000      -0.337724        -9.1899
  64   2.0000      -0.329463        -8.9652
  65   2.0000      -0.321986        -8.7617
  66   2.0000      -0.305250        -8.3063
  67   0.0000       0.043285         1.1778
  68   0.0000       0.058099         1.5810
  69   0.0000       0.114864         3.1256
  70   0.0000       0.119801         3.2600
  71   0.0000       0.128546         3.4979

MULLIKEN ATOMIC CHARGES
-----------------------
   0 S :    0.124458
   1 C :   -0.131115
   2 C :   -0.072078
   3 C :    0.023947
   4 C :   -0.176688
   5 H :    0.036543
   6 C :    0.016688
   7 H :    0.056136
   8 H :    0.044249
   9 C :   -0.118187
  10 H :    0.024983
  11 H :    0.028546
  12 C :   -0.028743
  13 H :    0.040862
  14 H :    0.032550
  15 H :    0.031004
  16 S :    0.128122
  17 C :   -0.110335
  18 C :   -0.031280
  19 C :   -0.000409
  20 C :   -0.181157
  21 H :    0.020178
  22 C :    0.026240
  23 H :    0.025271
  24 H :    0.026542
  25 C :   -0.062356
  26 H :    0.041120
  27 H :    0.019036
  28 C :   -0.046141
  29 H :    0.033107
  30 H :    0.033799
  31 H :    0.037923
  32 H :    0.047178
  33 H :    0.060005
Sum of atomic charges:   -0.0000000

LOEWDIN ATOMIC CHARGES
----------------------
   0 S :    0.430507
   1 C :   -0.204021
   2 C :   -0.074612
   3 C :   -0.068730
   4 C :   -0.202853
   5 H :    0.044223
   6 C :   -0.036316
   7 H :    0.040188
   8 H :    0.041113
   9 C :   -0.049166
  10 H :    0.017779
  11 H :    0.021949
  12 C :   -0.059384
  13 H :    0.031509
  14 H :    0.021324
  15 H :    0.022333
  16 S :    0.424324
  17 C :   -0.199299
  18 C :   -0.072842
  19 C :   -0.051531
  20 C :   -0.208138
  21 H :    0.029000
  22 C :   -0.037960
  23 H :    0.033321
  24 H :    0.030155
  25 C :   -0.028214
  26 H :    0.030115
  27 H :    0.010840
  28 C :   -0.063893
  29 H :    0.022118
  30 H :    0.024780
  31 H :    0.031192
  32 H :    0.020898
  33 H :    0.029289

  Mayer bond orders larger than 0.100000
B(  0-S ,  1-C ) :   1.1670 B(  0-S ,  4-C ) :   1.1745 B(  1-C ,  2-C ) :   1.5601
B(  1-C ,  4-C ) :   0.1043 B(  1-C , 32-H ) :   0.9742 B(  2-C ,  3-C ) :   1.2810
B(  2-C ,  6-C ) :   1.0183 B(  3-C ,  4-C ) :   1.5674 B(  3-C ,  5-H ) :   0.9872
B(  4-C , 20-C ) :   0.9869 B(  6-C ,  7-H ) :   0.9379 B(  6-C ,  8-H ) :   0.9449
B(  6-C ,  9-C ) :   1.0741 B(  9-C , 10-H ) :   0.9469 B(  9-C , 11-H ) :   0.9617
B(  9-C , 12-C ) :   1.0753 B( 12-C , 13-H ) :   0.9753 B( 12-C , 14-H ) :   0.9779
B( 12-C , 15-H ) :   0.9761 B( 16-S , 17-C ) :   1.1658 B( 16-S , 20-C ) :   1.1634
B( 17-C , 18-C ) :   1.6055 B( 17-C , 20-C ) :   0.1012 B( 17-C , 33-H ) :   0.9679
B( 18-C , 19-C ) :   1.2433 B( 18-C , 21-H ) :   0.9828 B( 19-C , 20-C ) :   1.5845
B( 19-C , 22-C ) :   1.0379 B( 22-C , 23-H ) :   0.9408 B( 22-C , 24-H ) :   0.9428
B( 22-C , 25-C ) :   1.0384 B( 25-C , 26-H ) :   0.9572 B( 25-C , 27-H ) :   0.9613
B( 25-C , 28-C ) :   1.0752 B( 28-C , 29-H ) :   0.9753 B( 28-C , 30-H ) :   0.9773
B( 28-C , 31-H ) :   0.9749

Dispersion correction           -0.014292159
FINAL SINGLE POINT ENERGY     -1339.881615053468

DIPOLE MOMENT
-------------
                                X             Y             Z
Electronic contribution:    -26.86347      -5.03778      -2.06929
Nuclear contribution   :     27.28337       5.21046       2.26030
                        -----------------------------------------
Total Dipole Moment    :      0.41990       0.17268       0.19101
                        -----------------------------------------
Magnitude (a.u.)       :      0.49256
Magnitude (Debye)      :      1.25199

Rotational constants in cm-1:     0.019484     0.007886     0.006657
Rotational constants in MHz :   584.121051   236.422342   199.565392

                             ****ORCA TERMINATED NORMALLY****
TOTAL RUN TIME: 0 days 0 hours 0 minutes 21 seconds 201 msec
