                         Program Version 4.2.1 -  RELEASE  -
|  1> ! wB97X-D3 SP def2-SVP
|  2> %pal
|  3> nprocs 24
|  4> end
|  5>
|  6> * xyz 0 1
|  7> S 	 -74.8296 	 -46.1511 	 -93.9298
|  8> C 	 -73.4807 	 -45.0318 	 -94.2695
|  9> C 	 -73.8743 	 -43.9585 	 -95.0379
| 10> C 	 -75.2203 	 -44.1117 	 -95.5165
| 11> C 	 -75.8735 	 -45.2237 	 -95.001
| 12> H 	 -75.8405 	 -43.4755 	 -96.1417
| 13> C 	 -73.0357 	 -42.8068 	 -95.5147
| 14> H 	 -72.0599 	 -42.8866 	 -95.1216
| 15> H 	 -73.4234 	 -41.7823 	 -95.0451
| 16> C 	 -72.8705 	 -42.7833 	 -97.0271
| 17> H 	 -72.3221 	 -43.5805 	 -97.3928
| 18> H 	 -73.8178 	 -42.6858 	 -97.6051
| 19> C 	 -71.8969 	 -41.5885 	 -97.4198
| 20> H 	 -70.8653 	 -41.8126 	 -97.1269
| 21> H 	 -71.8258 	 -41.2392 	 -98.4777
| 22> H 	 -72.1405 	 -40.708 	 -96.8072
| 23> S 	 -77.1778 	 -47.3864 	 -96.137
| 24> C 	 -78.9329 	 -47.2798 	 -96.2204
| 25> C 	 -79.3837 	 -46.0178 	 -96.1393
| 26> C 	 -78.3521 	 -45.0709 	 -95.7028
| 27> C 	 -77.1358 	 -45.7285 	 -95.5601
| 28> H 	 -80.44 	 -45.7498 	 -96.2855
| 29> C 	 -78.6068 	 -43.6651 	 -95.2223
| 30> H 	 -79.3289 	 -43.2989 	 -95.9185
| 31> H 	 -77.8099 	 -43.0031 	 -95.4247
| 32> C 	 -79.0164 	 -43.5789 	 -93.7451
| 33> H 	 -79.2284 	 -42.5441 	 -93.4895
| 34> H 	 -78.138 	 -43.828 	 -93.1712
| 35> C 	 -80.2082 	 -44.4312 	 -93.3649
| 36> H 	 -80.4269 	 -44.3721 	 -92.223
| 37> H 	 -80.025 	 -45.4929 	 -93.6104
| 38> H 	 -81.105 	 -44.0884 	 -93.8428
| 39> H 	 -72.4743 	 -45.2543 	 -93.7908
| 40> H 	 -79.5733 	 -48.1278 	 -96.3613
| 41> *
| 42>
| 43>                          ****END OF INPUT****

CARTESIAN COORDINATES (ANGSTROEM)
---------------------------------
  S    -74.829600  -46.151100  -93.929800
  C    -73.480700  -45.031800  -94.269500
  C    -73.874300  -43.958500  -95.037900
  C    -75.220300  -44.111700  -95.516500
  C    -75.873500  -45.223700  -95.001000
  H    -75.840500  -43.475500  -96.141700
  C    -73.035700  -42.806800  -95.514700
  H    -72.059900  -42.886600  -95.121600
  H    -73.423400  -41.782300  -95.045100
  C    -72.870500  -42.783300  -97.027100
  H    -72.322100  -43.580500  -97.392800
  H    -73.817800  -42.685800  -97.605100
  C    -71.896900  -41.588500  -97.419800
  H    -70.865300  -41.812600  -97.126900
  H    -71.825800  -41.239200  -98.477700
  H    -72.140500  -40.708000  -96.807200
  S    -77.177800  -47.386400  -96.137000
  C    -78.932900  -47.279800  -96.220400
  C    -79.383700  -46.017800  -96.139300
  C    -78.352100  -45.070900  -95.702800
  C    -77.135800  -45.728500  -95.560100
  H    -80.440000  -45.749800  -96.285500
  C    -78.606800  -43.665100  -95.222300
  H    -79.328900  -43.298900  -95.918500
  H    -77.809900  -43.003100  -95.424700
  C    -79.016400  -43.578900  -93.745100
  H    -79.228400  -42.544100  -93.489500
  H    -78.138000  -43.828000  -93.171200
  C    -80.208200  -44.431200  -93.364900
  H    -80.426900  -44.372100  -92.223000
  H    -80.025000  -45.492900  -93.610400
  H    -81.105000  -44.088400  -93.842800
  H    -72.474300  -45.254300  -93.790800
  H    -79.573300  -48.127800  -96.361300

 Total Charge           Charge          ....    0
 Multiplicity           Mult            ....    1
 Number of Electrons    NEL             ....  134
 Basis Dimension        Dim             ....  322

ORBITAL ENERGIES
----------------

  NO   OCC          E(Eh)            E(eV)
   0   2.0000     -88.966451     -2420.9002
   1   2.0000     -88.962040     -2420.7802
   2   2.0000     -10.328212      -281.0449
   3   2.0000     -10.324552      -280.9453
   4   2.0000     -10.324142      -280.9342
   5   2.0000     -10.311845      -280.5996
   6   2.0000     -10.305905      -280.4379
   7   2.0000     -10.302204      -280.3372
   8   2.0000     -10.300719      -280.2968
   9   2.0000     -10.295403      -280.1522
  10   2.0000     -10.295057      -280.1427
  11   2.0000     -10.289113      -279.9810
  12   2.0000     -10.284843      -279.8648
  13   2.0000     -10.283075      -279.8167
  14   2.0000     -10.281415      -279.7715
  15   2.0000     -10.278161      -279.6830
  16   2.0000      -8.080599      -219.8843
  17   2.0000      -8.076909      -219.7839
  18   2.0000      -6.039200      -164.3350
  19   2.0000      -6.035474      -164.2336
  20   2.0000      -6.035185      -164.2257
  21   2.0000      -6.031657      -164.1297
  22   2.0000      -6.031293      -164.1198
  23   2.0000      -6.027335      -164.0121
  24   2.0000      -1.003261       -27.3001
  25   2.0000      -0.980888       -26.6913
  26   2.0000      -0.912599       -24.8331
  27   2.0000      -0.910688       -24.7811
  28   2.0000      -0.867584       -23.6082
  29   2.0000      -0.847324       -23.0569
  30   2.0000      -0.840166       -22.8621
  31   2.0000      -0.813603       -22.1393
  32   2.0000      -0.782082       -21.2815
  33   2.0000      -0.769496       -20.9390
  34   2.0000      -0.709561       -19.3081
  35   2.0000      -0.701092       -19.0777
  36   2.0000      -0.687492       -18.7076
  37   2.0000      -0.659065       -17.9341
  38   2.0000      -0.642128       -17.4732
  39   2.0000      -0.619005       -16.8440
  40   2.0000      -0.595516       -16.2048
  41   2.0000      -0.566496       -15.4151
  42   2.0000      -0.558493       -15.1974
  43   2.0000      -0.553851       -15.0711
  44   2.0000      -0.543249       -14.7826
  45   2.0000      -0.521290       -14.1850
  46   2.0000      -0.510007       -13.8780
  47   2.0000      -0.509585       -13.8665
  48   2.0000      -0.505298       -13.7498
  49   2.0000      -0.495834       -13.4923
  50   2.0000      -0.482082       -13.1181
  51   2.0000      -0.477279       -12.9874
  52   2.0000      -0.470252       -12.7962
  53   2.0000      -0.461013       -12.5448
  54   2.0000      -0.454330       -12.3630
  55   2.0000      -0.448675       -12.2091
  56   2.0000      -0.441400       -12.0111
  57   2.0000      -0.436493       -11.8776
  58   2.0000      -0.433056       -11.7840
  59   2.0000      -0.428831       -11.6691
  60   2.0000      -0.425455       -11.5772
  61   2.0000      -0.417298       -11.3553
  62   2.0000      -0.412970       -11.2375
  63   2.0000      -0.344869        -9.3844
  64   2.0000      -0.332789        -9.0556
  65   2.0000      -0.326761        -8.8916
  66   2.0000      -0.292192        -7.9509
  67   0.0000       0.026765         0.7283
  68   0.0000       0.076808         2.0901
  69   0.0000       0.105226         2.8633
  70   0.0000       0.111106         3.0233
  71   0.0000       0.136161         3.7051

MULLIKEN ATOMIC CHARGES
-----------------------
   0 S :    0.101675
   1 C :   -0.170778
   2 C :   -0.030995
   3 C :    0.016925
   4 C :   -0.153046
   5 H :    0.022157
   6 C :    0.049329
   7 H :    0.000140
   8 H :    0.057749
   9 C :   -0.051097
  10 H :    0.026467
  11 H :    0.047445
  12 C :   -0.088048
  13 H :    0.026174
  14 H :    0.046231
  15 H :    0.020664
  16 S :    0.107596
  17 C :   -0.089307
  18 C :   -0.026451
  19 C :   -0.090806
  20 C :   -0.163438
  21 H :    0.026766
  22 C :    0.123192
  23 H :    0.007375
  24 H :   -0.003948
  25 C :   -0.031172
  26 H :    0.023015
  27 H :    0.031452
  28 C :   -0.085495
  29 H :    0.043296
  30 H :    0.056822
  31 H :    0.022911
  32 H :    0.077518
  33 H :    0.049679
Sum of atomic charges:    0.0000000

LOEWDIN ATOMIC CHARGES
----------------------
   0 S :    0.382419
   1 C :   -0.191441
   2 C :   -0.066520
   3 C :   -0.053950
   4 C :   -0.192950
   5 H :    0.030991
   6 C :   -0.034947
   7 H :    0.022205
   8 H :    0.046978
   9 C :   -0.030777
  10 H :    0.020041
  11 H :    0.028634
  12 C :   -0.075422
  13 H :    0.022093
  14 H :    0.029926
  15 H :    0.020503
  16 S :    0.386667
  17 C :   -0.176844
  18 C :   -0.068730
  19 C :   -0.057931
  20 C :   -0.190975
  21 H :    0.035380
  22 C :   -0.030973
  23 H :    0.027278
  24 H :    0.022791
  25 C :   -0.034206
  26 H :    0.023558
  27 H :    0.026173
  28 C :   -0.071797
  29 H :    0.036858
  30 H :    0.029731
  31 H :    0.017854
  32 H :    0.041158
  33 H :    0.026226

  Mayer bond orders larger than 0.100000
B(  0-S ,  1-C ) :   1.1281 B(  0-S ,  4-C ) :   1.1395 B(  1-C ,  2-C ) :   1.6163
B(  1-C , 32-H ) :   0.9605 B(  2-C ,  3-C ) :   1.2059 B(  2-C ,  6-C ) :   1.0374
B(  3-C ,  4-C ) :   1.5976 B(  3-C ,  5-H ) :   0.9836 B(  4-C , 20-C ) :   1.0435
B(  6-C ,  7-H ) :   0.9381 B(  6-C ,  8-H ) :   0.9337 B(  6-C ,  9-C ) :   1.0607
B(  9-C , 10-H ) :   0.9577 B(  9-C , 11-H ) :   0.9595 B(  9-C , 12-C ) :   1.0626
B( 12-C , 13-H ) :   0.9777 B( 12-C , 14-H ) :   0.9772 B( 12-C , 15-H ) :   0.9761
B( 16-S , 17-C ) :   1.1237 B( 16-S , 20-C ) :   1.1351 B( 17-C , 18-C ) :   1.6572
B( 17-C , 33-H ) :   0.9689 B( 18-C , 19-C ) :   1.2023 B( 18-C , 21-H ) :   0.9845
B( 19-C , 20-C ) :   1.6236 B( 19-C , 22-C ) :   1.0492 B( 22-C , 23-H ) :   0.9204
B( 22-C , 24-H ) :   0.9230 B( 22-C , 25-C ) :   1.0694 B( 25-C , 26-H ) :   0.9521
B( 25-C , 27-H ) :   0.9536 B( 25-C , 28-C ) :   1.0858 B( 28-C , 29-H ) :   0.9712
B( 28-C , 30-H ) :   0.9677 B( 28-C , 31-H ) :   0.9745

Dispersion correction           -0.014656810
FINAL SINGLE POINT ENERGY     -1339.873648427275

DIPOLE MOMENT
-------------
                                X             Y             Z
Electronic contribution:     -0.69093     -22.82558       1.94361
Nuclear contribution   :      0.67799      23.37498      -2.04025
                        -----------------------------------------
Total Dipole Moment    :     -0.01294       0.54940      -0.09664
                        -----------------------------------------
Magnitude (a.u.)       :      0.55798
Magnitude (Debye)      :      1.41828

Rotational constants in cm-1:     0.020593     0.007805     0.007131
Rotational constants in MHz :   617.351382   233.977202   213.788598

                             ****ORCA TERMINATED NORMALLY****
TOTAL RUN TIME: 0 days 0 hours 0 minutes 21 seconds 956 msec
