                         Program Version 4.2.1 -  RELEASE  -
|  1> ! wB97X-D3 SP def2-SVP
|  2> %pal
|  3> nprocs 24
|  4> end
|  5>
|  6> * xyz 0 1
|  7> S 	 -105.536 	 51.6804 	 -81.4522
|  8> C 	 -105.287 	 51.9879 	 -83.1738
|  9> C 	 -106.527 	 51.9051 	 -83.8504
| 10> C 	 -107.621 	 51.5295 	 -82.9773
| 11> C 	 -107.293 	 51.3941 	 -81.6502
| 12> H 	 -108.646 	 51.4606 	 -83.2357
| 13> C 	 -106.809 	 52.1637 	 -85.3223
| 14> H 	 -106.486 	 51.263 	 -85.871
| 15> H 	 -106.141 	 53.0091 	 -85.5657
| 16> C 	 -108.233 	 52.5574 	 -85.7519
| 17> H 	 -108.938 	 51.7234 	 -85.5328
| 18> H 	 -108.575 	 53.3571 	 -85.0844
| 19> C 	 -108.368 	 52.8454 	 -87.238
| 20> H 	 -109.36 	 52.9474 	 -87.479
| 21> H 	 -107.853 	 53.7512 	 -87.5013
| 22> H 	 -108.035 	 51.9454 	 -87.7086
| 23> S 	 -109.837 	 51.4673 	 -80.643
| 24> C 	 -110.183 	 50.6015 	 -79.1139
| 25> C 	 -109.165 	 49.7569 	 -78.7703
| 26> C 	 -107.997 	 50.0099 	 -79.5514
| 27> C 	 -108.135 	 51.0228 	 -80.5294
| 28> H 	 -109.325 	 49.0623 	 -77.9681
| 29> C 	 -106.772 	 49.355 	 -79.2445
| 30> H 	 -106.734 	 48.9032 	 -78.2217
| 31> H 	 -105.955 	 50.0996 	 -79.2399
| 32> C 	 -106.174 	 48.3575 	 -80.2627
| 33> H 	 -105.294 	 47.8693 	 -79.9212
| 34> H 	 -105.843 	 48.8894 	 -81.1292
| 35> C 	 -107.156 	 47.3239 	 -80.8034
| 36> H 	 -108.049 	 47.8243 	 -81.1515
| 37> H 	 -107.373 	 46.6833 	 -79.9921
| 38> H 	 -106.653 	 46.7654 	 -81.5791
| 39> H 	 -104.326 	 52.309 	 -83.5258
| 40> H 	 -111.224 	 50.6062 	 -78.7935
| 41> *
| 42>
| 43>                          ****END OF INPUT****

CARTESIAN COORDINATES (ANGSTROEM)
---------------------------------
  S    -105.536000   51.680400  -81.452200
  C    -105.287000   51.987900  -83.173800
  C    -106.527000   51.905100  -83.850400
  C    -107.621000   51.529500  -82.977300
  C    -107.293000   51.394100  -81.650200
  H    -108.646000   51.460600  -83.235700
  C    -106.809000   52.163700  -85.322300
  H    -106.486000   51.263000  -85.871000
  H    -106.141000   53.009100  -85.565700
  C    -108.233000   52.557400  -85.751900
  H    -108.938000   51.723400  -85.532800
  H    -108.575000   53.357100  -85.084400
  C    -108.368000   52.845400  -87.238000
  H    -109.360000   52.947400  -87.479000
  H    -107.853000   53.751200  -87.501300
  H    -108.035000   51.945400  -87.708600
  S    -109.837000   51.467300  -80.643000
  C    -110.183000   50.601500  -79.113900
  C    -109.165000   49.756900  -78.770300
  C    -107.997000   50.009900  -79.551400
  C    -108.135000   51.022800  -80.529400
  H    -109.325000   49.062300  -77.968100
  C    -106.772000   49.355000  -79.244500
  H    -106.734000   48.903200  -78.221700
  H    -105.955000   50.099600  -79.239900
  C    -106.174000   48.357500  -80.262700
  H    -105.294000   47.869300  -79.921200
  H    -105.843000   48.889400  -81.129200
  C    -107.156000   47.323900  -80.803400
  H    -108.049000   47.824300  -81.151500
  H    -107.373000   46.683300  -79.992100
  H    -106.653000   46.765400  -81.579100
  H    -104.326000   52.309000  -83.525800
  H    -111.224000   50.606200  -78.793500

 Total Charge           Charge          ....    0
 Multiplicity           Mult            ....    1
 Number of Electrons    NEL             ....  134
 Basis Dimension        Dim             ....  322

ORBITAL ENERGIES
----------------

  NO   OCC          E(Eh)            E(eV)
   0   2.0000     -88.965257     -2420.8677
   1   2.0000     -88.965043     -2420.8619
   2   2.0000     -10.334180      -281.2073
   3   2.0000     -10.330580      -281.1094
   4   2.0000     -10.322453      -280.8882
   5   2.0000     -10.319962      -280.8204
   6   2.0000     -10.310238      -280.5558
   7   2.0000     -10.305140      -280.4171
   8   2.0000     -10.297935      -280.2211
   9   2.0000     -10.294728      -280.1338
  10   2.0000     -10.292149      -280.0636
  11   2.0000     -10.288985      -279.9775
  12   2.0000     -10.283956      -279.8407
  13   2.0000     -10.270435      -279.4727
  14   2.0000     -10.269176      -279.4385
  15   2.0000     -10.260124      -279.1922
  16   2.0000      -8.079183      -219.8457
  17   2.0000      -8.078544      -219.8284
  18   2.0000      -6.037715      -164.2946
  19   2.0000      -6.037235      -164.2815
  20   2.0000      -6.033952      -164.1922
  21   2.0000      -6.033177      -164.1711
  22   2.0000      -6.029809      -164.0794
  23   2.0000      -6.029285      -164.0652
  24   2.0000      -1.003959       -27.3191
  25   2.0000      -0.978579       -26.6285
  26   2.0000      -0.912549       -24.8317
  27   2.0000      -0.910943       -24.7880
  28   2.0000      -0.875269       -23.8173
  29   2.0000      -0.852102       -23.1869
  30   2.0000      -0.845808       -23.0156
  31   2.0000      -0.818439       -22.2709
  32   2.0000      -0.782309       -21.2877
  33   2.0000      -0.769565       -20.9409
  34   2.0000      -0.714237       -19.4354
  35   2.0000      -0.695723       -18.9316
  36   2.0000      -0.683140       -18.5892
  37   2.0000      -0.672097       -18.2887
  38   2.0000      -0.638756       -17.3814
  39   2.0000      -0.618787       -16.8380
  40   2.0000      -0.593390       -16.1470
  41   2.0000      -0.576911       -15.6985
  42   2.0000      -0.567121       -15.4321
  43   2.0000      -0.556782       -15.1508
  44   2.0000      -0.548629       -14.9290
  45   2.0000      -0.528206       -14.3732
  46   2.0000      -0.520987       -14.1768
  47   2.0000      -0.514317       -13.9953
  48   2.0000      -0.510339       -13.8870
  49   2.0000      -0.496271       -13.5042
  50   2.0000      -0.490935       -13.3590
  51   2.0000      -0.474560       -12.9134
  52   2.0000      -0.472297       -12.8519
  53   2.0000      -0.468825       -12.7574
  54   2.0000      -0.462313       -12.5802
  55   2.0000      -0.448228       -12.1969
  56   2.0000      -0.442235       -12.0338
  57   2.0000      -0.431282       -11.7358
  58   2.0000      -0.427778       -11.6404
  59   2.0000      -0.423359       -11.5202
  60   2.0000      -0.421015       -11.4564
  61   2.0000      -0.414221       -11.2715
  62   2.0000      -0.401014       -10.9121
  63   2.0000      -0.357344        -9.7238
  64   2.0000      -0.329388        -8.9631
  65   2.0000      -0.326478        -8.8839
  66   2.0000      -0.283223        -7.7069
  67   0.0000       0.016506         0.4492
  68   0.0000       0.069012         1.8779
  69   0.0000       0.101488         2.7616
  70   0.0000       0.115473         3.1422
  71   0.0000       0.126963         3.4548

MULLIKEN ATOMIC CHARGES
-----------------------
   0 S :    0.076238
   1 C :   -0.123380
   2 C :   -0.077591
   3 C :    0.013849
   4 C :   -0.136995
   5 H :    0.002780
   6 C :    0.054153
   7 H :    0.046573
   8 H :    0.030593
   9 C :   -0.148406
  10 H :    0.034670
  11 H :    0.033399
  12 C :    0.045469
  13 H :    0.011618
  14 H :    0.032752
  15 H :    0.021730
  16 S :    0.064799
  17 C :   -0.094696
  18 C :   -0.004601
  19 C :   -0.035762
  20 C :   -0.093988
  21 H :    0.022912
  22 C :    0.016301
  23 H :    0.029959
  24 H :    0.037534
  25 C :   -0.065562
  26 H :    0.014084
  27 H :    0.020462
  28 C :   -0.028267
  29 H :    0.042842
  30 H :    0.012464
  31 H :    0.029483
  32 H :    0.048974
  33 H :    0.065609
Sum of atomic charges:    0.0000000

LOEWDIN ATOMIC CHARGES
----------------------
   0 S :    0.391840
   1 C :   -0.193694
   2 C :   -0.054396
   3 C :   -0.070500
   4 C :   -0.172195
   5 H :    0.020340
   6 C :   -0.038964
   7 H :    0.036279
   8 H :    0.034281
   9 C :   -0.047048
  10 H :    0.024327
  11 H :    0.023179
  12 C :   -0.046311
  13 H :    0.017733
  14 H :    0.025606
  15 H :    0.026908
  16 S :    0.382904
  17 C :   -0.160721
  18 C :   -0.061751
  19 C :   -0.054221
  20 C :   -0.191484
  21 H :    0.036035
  22 C :   -0.049449
  23 H :    0.034590
  24 H :    0.033913
  25 C :   -0.036587
  26 H :    0.018824
  27 H :    0.010832
  28 C :   -0.057977
  29 H :    0.025109
  30 H :    0.014323
  31 H :    0.025362
  32 H :    0.025011
  33 H :    0.027901

  Mayer bond orders larger than 0.100000
B(  0-S ,  1-C ) :   1.1282 B(  0-S ,  4-C ) :   1.1373 B(  1-C ,  2-C ) :   1.5980
B(  1-C , 32-H ) :   0.9794 B(  2-C ,  3-C ) :   1.2367 B(  2-C ,  6-C ) :   1.0071
B(  3-C ,  4-C ) :   1.5934 B(  3-C ,  5-H ) :   0.9839 B(  4-C , 20-C ) :   1.0527
B(  6-C ,  7-H ) :   0.9315 B(  6-C ,  8-H ) :   0.9440 B(  6-C ,  9-C ) :   1.0827
B(  9-C , 10-H ) :   0.9438 B(  9-C , 11-H ) :   0.9567 B(  9-C , 12-C ) :   1.0847
B( 12-C , 13-H ) :   0.9690 B( 12-C , 14-H ) :   0.9745 B( 12-C , 15-H ) :   0.9704
B( 16-S , 17-C ) :   1.1549 B( 16-S , 20-C ) :   1.1273 B( 17-C , 18-C ) :   1.5944
B( 17-C , 33-H ) :   0.9671 B( 18-C , 19-C ) :   1.2335 B( 18-C , 21-H ) :   1.0005
B( 19-C , 20-C ) :   1.5333 B( 19-C , 22-C ) :   1.0697 B( 22-C , 23-H ) :   0.9391
B( 22-C , 24-H ) :   0.9308 B( 22-C , 25-C ) :   1.0562 B( 25-C , 26-H ) :   0.9533
B( 25-C , 27-H ) :   0.9513 B( 25-C , 28-C ) :   1.0873 B( 28-C , 29-H ) :   0.9713
B( 28-C , 30-H ) :   0.9781 B( 28-C , 31-H ) :   0.9747

Dispersion correction           -0.014869543
FINAL SINGLE POINT ENERGY     -1339.870541283294

DIPOLE MOMENT
-------------
                                X             Y             Z
Electronic contribution:     -1.66808       7.98264      15.43190
Nuclear contribution   :      1.56102      -8.22750     -15.71725
                        -----------------------------------------
Total Dipole Moment    :     -0.10705      -0.24487      -0.28535
                        -----------------------------------------
Magnitude (a.u.)       :      0.39095
Magnitude (Debye)      :      0.99373

Rotational constants in cm-1:     0.020314     0.008554     0.007183
Rotational constants in MHz :   609.013042   256.428564   215.338404

                             ****ORCA TERMINATED NORMALLY****
TOTAL RUN TIME: 0 days 0 hours 0 minutes 21 seconds 120 msec
