                         Program Version 4.2.1 -  RELEASE  -
|  1> ! wB97X-D3 SP def2-SVP
|  2> %pal
|  3> nprocs 24
|  4> end
|  5>
|  6> * xyz 0 1
|  7> S 	 -112.317 	 20.7329 	 -116.368
|  8> C 	 -112.886 	 19.2556 	 -115.63
|  9> C 	 -112.284 	 19.0711 	 -114.38
| 10> C 	 -111.444 	 20.1475 	 -114.038
| 11> C 	 -111.317 	 21.1295 	 -115.001
| 12> H 	 -110.887 	 20.2209 	 -113.159
| 13> C 	 -112.513 	 17.9329 	 -113.472
| 14> H 	 -111.824 	 17.1042 	 -113.69
| 15> H 	 -113.421 	 17.5296 	 -113.69
| 16> C 	 -112.441 	 18.3496 	 -111.972
| 17> H 	 -112.723 	 17.3721 	 -111.448
| 18> H 	 -111.443 	 18.5697 	 -111.624
| 19> C 	 -113.559 	 19.345 	 -111.595
| 20> H 	 -114.467 	 18.8301 	 -111.861
| 21> H 	 -113.587 	 19.4739 	 -110.504
| 22> H 	 -113.531 	 20.2748 	 -112.055
| 23> S 	 -111.639 	 23.9149 	 -115.027
| 24> C 	 -110.186 	 24.9249 	 -115.049
| 25> C 	 -109.051 	 24.1669 	 -114.992
| 26> C 	 -109.319 	 22.781 	 -114.728
| 27> C 	 -110.649 	 22.4167 	 -114.897
| 28> H 	 -108.105 	 24.6808 	 -114.813
| 29> C 	 -108.256 	 21.7511 	 -114.349
| 30> H 	 -108.773 	 20.789 	 -114.394
| 31> H 	 -107.989 	 22.033 	 -113.27
| 32> C 	 -106.98 	 21.7193 	 -115.311
| 33> H 	 -106.53 	 22.7474 	 -115.285
| 34> H 	 -107.287 	 21.3673 	 -116.309
| 35> C 	 -105.84 	 20.7198 	 -114.84
| 36> H 	 -105.681 	 21.0466 	 -113.812
| 37> H 	 -104.928 	 20.8484 	 -115.365
| 38> H 	 -106.226 	 19.6622 	 -114.671
| 39> H 	 -113.703 	 18.6372 	 -116.117
| 40> H 	 -110.206 	 25.9872 	 -115.151
| 41> *
| 42>
| 43>                          ****END OF INPUT****

CARTESIAN COORDINATES (ANGSTROEM)
---------------------------------
  S    -112.317000   20.732900  -116.368000
  C    -112.886000   19.255600  -115.630000
  C    -112.284000   19.071100  -114.380000
  C    -111.444000   20.147500  -114.038000
  C    -111.317000   21.129500  -115.001000
  H    -110.887000   20.220900  -113.159000
  C    -112.513000   17.932900  -113.472000
  H    -111.824000   17.104200  -113.690000
  H    -113.421000   17.529600  -113.690000
  C    -112.441000   18.349600  -111.972000
  H    -112.723000   17.372100  -111.448000
  H    -111.443000   18.569700  -111.624000
  C    -113.559000   19.345000  -111.595000
  H    -114.467000   18.830100  -111.861000
  H    -113.587000   19.473900  -110.504000
  H    -113.531000   20.274800  -112.055000
  S    -111.639000   23.914900  -115.027000
  C    -110.186000   24.924900  -115.049000
  C    -109.051000   24.166900  -114.992000
  C    -109.319000   22.781000  -114.728000
  C    -110.649000   22.416700  -114.897000
  H    -108.105000   24.680800  -114.813000
  C    -108.256000   21.751100  -114.349000
  H    -108.773000   20.789000  -114.394000
  H    -107.989000   22.033000  -113.270000
  C    -106.980000   21.719300  -115.311000
  H    -106.530000   22.747400  -115.285000
  H    -107.287000   21.367300  -116.309000
  C    -105.840000   20.719800  -114.840000
  H    -105.681000   21.046600  -113.812000
  H    -104.928000   20.848400  -115.365000
  H    -106.226000   19.662200  -114.671000
  H    -113.703000   18.637200  -116.117000
  H    -110.206000   25.987200  -115.151000

 Total Charge           Charge          ....    0
 Multiplicity           Mult            ....    1
 Number of Electrons    NEL             ....  134
 Basis Dimension        Dim             ....  322

ORBITAL ENERGIES
----------------

  NO   OCC          E(Eh)            E(eV)
   0   2.0000     -88.965182     -2420.8657
   1   2.0000     -88.961754     -2420.7724
   2   2.0000     -10.327797      -281.0336
   3   2.0000     -10.327287      -281.0198
   4   2.0000     -10.319409      -280.8054
   5   2.0000     -10.318995      -280.7941
   6   2.0000     -10.305835      -280.4360
   7   2.0000     -10.300994      -280.3043
   8   2.0000     -10.298324      -280.2317
   9   2.0000     -10.297409      -280.2067
  10   2.0000     -10.294098      -280.1167
  11   2.0000     -10.293934      -280.1122
  12   2.0000     -10.286707      -279.9155
  13   2.0000     -10.283932      -279.8400
  14   2.0000     -10.281689      -279.7790
  15   2.0000     -10.271785      -279.5095
  16   2.0000      -8.080095      -219.8706
  17   2.0000      -8.075695      -219.7508
  18   2.0000      -6.038468      -164.3151
  19   2.0000      -6.034437      -164.2054
  20   2.0000      -6.034335      -164.2026
  21   2.0000      -6.031117      -164.1150
  22   2.0000      -6.030356      -164.0943
  23   2.0000      -6.026308      -163.9842
  24   2.0000      -1.005087       -27.3498
  25   2.0000      -0.981760       -26.7151
  26   2.0000      -0.916262       -24.9327
  27   2.0000      -0.894500       -24.3406
  28   2.0000      -0.868506       -23.6332
  29   2.0000      -0.846996       -23.0479
  30   2.0000      -0.840900       -22.8821
  31   2.0000      -0.818359       -22.2687
  32   2.0000      -0.784065       -21.3355
  33   2.0000      -0.766502       -20.8576
  34   2.0000      -0.712112       -19.3776
  35   2.0000      -0.694787       -18.9061
  36   2.0000      -0.691128       -18.8065
  37   2.0000      -0.652928       -17.7671
  38   2.0000      -0.643717       -17.5164
  39   2.0000      -0.629108       -17.1189
  40   2.0000      -0.589742       -16.0477
  41   2.0000      -0.565731       -15.3943
  42   2.0000      -0.560560       -15.2536
  43   2.0000      -0.556241       -15.1361
  44   2.0000      -0.536733       -14.6052
  45   2.0000      -0.529046       -14.3961
  46   2.0000      -0.519099       -14.1254
  47   2.0000      -0.512410       -13.9434
  48   2.0000      -0.502918       -13.6851
  49   2.0000      -0.498948       -13.5771
  50   2.0000      -0.486940       -13.2503
  51   2.0000      -0.473621       -12.8879
  52   2.0000      -0.470847       -12.8124
  53   2.0000      -0.467937       -12.7332
  54   2.0000      -0.453204       -12.3323
  55   2.0000      -0.448344       -12.2001
  56   2.0000      -0.444270       -12.0892
  57   2.0000      -0.437265       -11.8986
  58   2.0000      -0.434045       -11.8110
  59   2.0000      -0.425423       -11.5764
  60   2.0000      -0.422105       -11.4861
  61   2.0000      -0.411782       -11.2051
  62   2.0000      -0.409385       -11.1399
  63   2.0000      -0.342827        -9.3288
  64   2.0000      -0.328870        -8.9490
  65   2.0000      -0.326568        -8.8864
  66   2.0000      -0.294906        -8.0248
  67   0.0000       0.031645         0.8611
  68   0.0000       0.064010         1.7418
  69   0.0000       0.113214         3.0807
  70   0.0000       0.124614         3.3909
  71   0.0000       0.131406         3.5758

MULLIKEN ATOMIC CHARGES
-----------------------
   0 S :    0.119619
   1 C :   -0.165151
   2 C :   -0.102663
   3 C :    0.060285
   4 C :   -0.172647
   5 H :   -0.013207
   6 C :    0.147168
   7 H :    0.042066
   8 H :   -0.020582
   9 C :   -0.135908
  10 H :    0.033742
  11 H :    0.037305
  12 C :   -0.012991
  13 H :    0.019812
  14 H :    0.035140
  15 H :    0.038669
  16 S :    0.090346
  17 C :   -0.086897
  18 C :   -0.019320
  19 C :   -0.043079
  20 C :   -0.158413
  21 H :    0.030368
  22 C :    0.030044
  23 H :    0.032249
  24 H :    0.051573
  25 C :   -0.112647
  26 H :    0.042757
  27 H :    0.048191
  28 C :   -0.044522
  29 H :    0.011661
  30 H :    0.044100
  31 H :    0.042932
  32 H :    0.075421
  33 H :    0.054579
Sum of atomic charges:   -0.0000000

LOEWDIN ATOMIC CHARGES
----------------------
   0 S :    0.420575
   1 C :   -0.210734
   2 C :   -0.066564
   3 C :   -0.056276
   4 C :   -0.202280
   5 H :    0.021014
   6 C :   -0.027489
   7 H :    0.039452
   8 H :    0.015086
   9 C :   -0.040527
  10 H :    0.033540
  11 H :    0.016742
  12 C :   -0.055710
  13 H :    0.026519
  14 H :    0.030123
  15 H :    0.016415
  16 S :    0.370289
  17 C :   -0.162183
  18 C :   -0.080531
  19 C :   -0.051675
  20 C :   -0.191663
  21 H :    0.035020
  22 C :   -0.037027
  23 H :    0.029347
  24 H :    0.040727
  25 C :   -0.038733
  26 H :    0.026722
  27 H :    0.026976
  28 C :   -0.072913
  29 H :    0.021567
  30 H :    0.022415
  31 H :    0.033758
  32 H :    0.041900
  33 H :    0.026119

  Mayer bond orders larger than 0.100000
B(  0-S ,  1-C ) :   1.1560 B(  0-S ,  4-C ) :   1.1706 B(  1-C ,  2-C ) :   1.5646
B(  1-C ,  4-C ) :   0.1016 B(  1-C , 32-H ) :   0.9630 B(  2-C ,  3-C ) :   1.2765
B(  2-C ,  6-C ) :   1.0257 B(  3-C ,  4-C ) :   1.5324 B(  3-C ,  5-H ) :   1.0014
B(  4-C , 20-C ) :   1.0412 B(  6-C ,  7-H ) :   0.9231 B(  6-C ,  8-H ) :   0.9245
B(  6-C ,  9-C ) :   1.0825 B(  9-C , 10-H ) :   0.9563 B(  9-C , 11-H ) :   0.9530
B(  9-C , 12-C ) :   1.0649 B( 12-C , 13-H ) :   0.9733 B( 12-C , 14-H ) :   0.9745
B( 12-C , 15-H ) :   0.9776 B( 16-S , 17-C ) :   1.1490 B( 16-S , 20-C ) :   1.1161
B( 17-C , 18-C ) :   1.6379 B( 17-C , 33-H ) :   0.9668 B( 18-C , 19-C ) :   1.2237
B( 18-C , 21-H ) :   0.9791 B( 19-C , 20-C ) :   1.6138 B( 19-C , 22-C ) :   1.0420
B( 22-C , 23-H ) :   0.9323 B( 22-C , 24-H ) :   0.9320 B( 22-C , 25-C ) :   1.0588
B( 25-C , 26-H ) :   0.9567 B( 25-C , 27-H ) :   0.9606 B( 25-C , 28-C ) :   1.0718
B( 28-C , 29-H ) :   0.9740 B( 28-C , 30-H ) :   0.9761 B( 28-C , 31-H ) :   0.9754

Dispersion correction           -0.014139978
FINAL SINGLE POINT ENERGY     -1339.870989994089

DIPOLE MOMENT
-------------
                                X             Y             Z
Electronic contribution:    -12.63451      14.66729     -14.55086
Nuclear contribution   :     12.92531     -14.97117      15.00932
                        -----------------------------------------
Total Dipole Moment    :      0.29080      -0.30388       0.45846
                        -----------------------------------------
Magnitude (a.u.)       :      0.62217
Magnitude (Debye)      :      1.58143

Rotational constants in cm-1:     0.016731     0.008858     0.007296
Rotational constants in MHz :   501.590262   265.545980   218.723975

                             ****ORCA TERMINATED NORMALLY****
TOTAL RUN TIME: 0 days 0 hours 0 minutes 21 seconds 550 msec
