                         Program Version 4.2.1 -  RELEASE  -
|  1> ! wB97X-D3 SP def2-SVP
|  2> %pal
|  3> nprocs 24
|  4> end
|  5>
|  6> * xyz 0 1
|  7> S 	 -53.1957 	 21.6586 	 -93.7255
|  8> C 	 -51.7246 	 22.6242 	 -93.8245
|  9> C 	 -51.0836 	 22.268 	 -94.9718
| 10> C 	 -51.8469 	 21.4475 	 -95.8618
| 11> C 	 -53.0945 	 21.0047 	 -95.415
| 12> H 	 -51.533 	 20.9205 	 -96.7238
| 13> C 	 -49.6997 	 22.8139 	 -95.3165
| 14> H 	 -49.4303 	 23.5907 	 -94.6145
| 15> H 	 -49.6138 	 23.2145 	 -96.2754
| 16> C 	 -48.6634 	 21.6666 	 -95.3954
| 17> H 	 -49.0336 	 20.8395 	 -96.021
| 18> H 	 -47.8288 	 22.1733 	 -95.9268
| 19> C 	 -48.1715 	 21.1297 	 -94.0488
| 20> H 	 -47.386 	 20.3439 	 -94.1749
| 21> H 	 -47.8761 	 21.9752 	 -93.4724
| 22> H 	 -48.9853 	 20.5607 	 -93.5964
| 23> S 	 -55.5369 	 20.5115 	 -96.5553
| 24> C 	 -55.9852 	 18.8214 	 -97.029
| 25> C 	 -54.9349 	 17.9455 	 -96.6827
| 26> C 	 -53.8344 	 18.5887 	 -96.051
| 27> C 	 -53.9946 	 19.9845 	 -95.9701
| 28> H 	 -55.0831 	 16.8886 	 -96.9512
| 29> C 	 -52.6354 	 17.8421 	 -95.5418
| 30> H 	 -52.1599 	 18.2967 	 -94.6341
| 31> H 	 -51.8996 	 17.9358 	 -96.3817
| 32> C 	 -52.8252 	 16.3518 	 -95.2599
| 33> H 	 -53.0418 	 15.8664 	 -96.2473
| 34> H 	 -53.6137 	 16.1549 	 -94.6137
| 35> C 	 -51.6311 	 15.7689 	 -94.4211
| 36> H 	 -50.6259 	 15.9501 	 -94.7885
| 37> H 	 -51.8527 	 14.7 	 -94.3169
| 38> H 	 -51.5439 	 16.1765 	 -93.4152
| 39> H 	 -51.1946 	 23.3063 	 -93.177
| 40> H 	 -56.9207 	 18.6392 	 -97.6173
| 41> *
| 42>
| 43>                          ****END OF INPUT****

CARTESIAN COORDINATES (ANGSTROEM)
---------------------------------
  S    -53.195700   21.658600  -93.725500
  C    -51.724600   22.624200  -93.824500
  C    -51.083600   22.268000  -94.971800
  C    -51.846900   21.447500  -95.861800
  C    -53.094500   21.004700  -95.415000
  H    -51.533000   20.920500  -96.723800
  C    -49.699700   22.813900  -95.316500
  H    -49.430300   23.590700  -94.614500
  H    -49.613800   23.214500  -96.275400
  C    -48.663400   21.666600  -95.395400
  H    -49.033600   20.839500  -96.021000
  H    -47.828800   22.173300  -95.926800
  C    -48.171500   21.129700  -94.048800
  H    -47.386000   20.343900  -94.174900
  H    -47.876100   21.975200  -93.472400
  H    -48.985300   20.560700  -93.596400
  S    -55.536900   20.511500  -96.555300
  C    -55.985200   18.821400  -97.029000
  C    -54.934900   17.945500  -96.682700
  C    -53.834400   18.588700  -96.051000
  C    -53.994600   19.984500  -95.970100
  H    -55.083100   16.888600  -96.951200
  C    -52.635400   17.842100  -95.541800
  H    -52.159900   18.296700  -94.634100
  H    -51.899600   17.935800  -96.381700
  C    -52.825200   16.351800  -95.259900
  H    -53.041800   15.866400  -96.247300
  H    -53.613700   16.154900  -94.613700
  C    -51.631100   15.768900  -94.421100
  H    -50.625900   15.950100  -94.788500
  H    -51.852700   14.700000  -94.316900
  H    -51.543900   16.176500  -93.415200
  H    -51.194600   23.306300  -93.177000
  H    -56.920700   18.639200  -97.617300

 Total Charge           Charge          ....    0
 Multiplicity           Mult            ....    1
 Number of Electrons    NEL             ....  134
 Basis Dimension        Dim             ....  322

ORBITAL ENERGIES
----------------

  NO   OCC          E(Eh)            E(eV)
   0   2.0000     -88.967768     -2420.9360
   1   2.0000     -88.961100     -2420.7546
   2   2.0000     -10.336025      -281.2575
   3   2.0000     -10.332445      -281.1601
   4   2.0000     -10.330520      -281.1078
   5   2.0000     -10.314099      -280.6609
   6   2.0000     -10.311331      -280.5856
   7   2.0000     -10.305323      -280.4221
   8   2.0000     -10.297415      -280.2069
   9   2.0000     -10.296691      -280.1872
  10   2.0000     -10.293626      -280.1038
  11   2.0000     -10.289838      -280.0007
  12   2.0000     -10.288133      -279.9543
  13   2.0000     -10.286925      -279.9214
  14   2.0000     -10.282540      -279.8021
  15   2.0000     -10.276247      -279.6309
  16   2.0000      -8.081852      -219.9184
  17   2.0000      -8.074483      -219.7179
  18   2.0000      -6.040262      -164.3639
  19   2.0000      -6.036311      -164.2564
  20   2.0000      -6.033196      -164.1716
  21   2.0000      -6.032874      -164.1628
  22   2.0000      -6.029149      -164.0615
  23   2.0000      -6.025060      -163.9502
  24   2.0000      -1.000109       -27.2144
  25   2.0000      -0.980062       -26.6689
  26   2.0000      -0.911116       -24.7927
  27   2.0000      -0.908784       -24.7293
  28   2.0000      -0.869419       -23.6581
  29   2.0000      -0.849558       -23.1177
  30   2.0000      -0.836605       -22.7652
  31   2.0000      -0.818184       -22.2639
  32   2.0000      -0.782527       -21.2936
  33   2.0000      -0.772360       -21.0170
  34   2.0000      -0.711794       -19.3689
  35   2.0000      -0.703041       -19.1307
  36   2.0000      -0.685254       -18.6467
  37   2.0000      -0.654794       -17.8178
  38   2.0000      -0.642483       -17.4829
  39   2.0000      -0.616164       -16.7667
  40   2.0000      -0.598517       -16.2865
  41   2.0000      -0.575973       -15.6730
  42   2.0000      -0.569283       -15.4910
  43   2.0000      -0.552153       -15.0248
  44   2.0000      -0.538483       -14.6529
  45   2.0000      -0.528773       -14.3887
  46   2.0000      -0.517226       -14.0744
  47   2.0000      -0.515817       -14.0361
  48   2.0000      -0.506613       -13.7857
  49   2.0000      -0.496456       -13.5093
  50   2.0000      -0.487809       -13.2740
  51   2.0000      -0.478038       -13.0081
  52   2.0000      -0.473774       -12.8921
  53   2.0000      -0.465170       -12.6579
  54   2.0000      -0.457377       -12.4459
  55   2.0000      -0.448619       -12.2076
  56   2.0000      -0.441069       -12.0021
  57   2.0000      -0.436682       -11.8827
  58   2.0000      -0.431515       -11.7421
  59   2.0000      -0.429139       -11.6775
  60   2.0000      -0.423227       -11.5166
  61   2.0000      -0.412747       -11.2314
  62   2.0000      -0.399128       -10.8608
  63   2.0000      -0.338762        -9.2182
  64   2.0000      -0.326709        -8.8902
  65   2.0000      -0.322380        -8.7724
  66   2.0000      -0.306360        -8.3365
  67   0.0000       0.032145         0.8747
  68   0.0000       0.050859         1.3840
  69   0.0000       0.114062         3.1038
  70   0.0000       0.120480         3.2784
  71   0.0000       0.123870         3.3707

MULLIKEN ATOMIC CHARGES
-----------------------
   0 S :    0.088188
   1 C :   -0.085753
   2 C :   -0.115938
   3 C :    0.065886
   4 C :   -0.157034
   5 H :   -0.001349
   6 C :    0.111953
   7 H :    0.009148
   8 H :    0.015670
   9 C :   -0.129082
  10 H :    0.035225
  11 H :    0.028755
  12 C :   -0.031289
  13 H :    0.038977
  14 H :    0.027595
  15 H :    0.033467
  16 S :    0.111333
  17 C :   -0.129420
  18 C :   -0.052127
  19 C :    0.005598
  20 C :   -0.193143
  21 H :    0.037432
  22 C :    0.039096
  23 H :    0.043943
  24 H :    0.045111
  25 C :   -0.080981
  26 H :    0.041744
  27 H :    0.025566
  28 C :   -0.054948
  29 H :    0.027466
  30 H :    0.039820
  31 H :    0.033616
  32 H :    0.040542
  33 H :    0.084933
Sum of atomic charges:   -0.0000000

LOEWDIN ATOMIC CHARGES
----------------------
   0 S :    0.369717
   1 C :   -0.191692
   2 C :   -0.071196
   3 C :   -0.058101
   4 C :   -0.178023
   5 H :    0.023562
   6 C :   -0.022025
   7 H :    0.025007
   8 H :    0.024476
   9 C :   -0.041303
  10 H :    0.023833
  11 H :    0.023264
  12 C :   -0.066440
  13 H :    0.031297
  14 H :    0.019875
  15 H :    0.026524
  16 S :    0.404888
  17 C :   -0.173361
  18 C :   -0.076309
  19 C :   -0.050039
  20 C :   -0.218670
  21 H :    0.038926
  22 C :   -0.040456
  23 H :    0.037307
  24 H :    0.041209
  25 C :   -0.038317
  26 H :    0.028140
  27 H :    0.017768
  28 C :   -0.065102
  29 H :    0.021143
  30 H :    0.030350
  31 H :    0.027555
  32 H :    0.035899
  33 H :    0.040294

  Mayer bond orders larger than 0.100000
B(  0-S ,  1-C ) :   1.1281 B(  0-S ,  4-C ) :   1.1215 B(  1-C ,  2-C ) :   1.6233
B(  1-C , 32-H ) :   0.9653 B(  2-C ,  3-C ) :   1.2228 B(  2-C ,  6-C ) :   1.0338
B(  3-C ,  4-C ) :   1.6014 B(  3-C ,  5-H ) :   0.9958 B(  4-C , 20-C ) :   1.0337
B(  6-C ,  7-H ) :   0.9433 B(  6-C ,  8-H ) :   0.9418 B(  6-C ,  9-C ) :   1.0590
B(  9-C , 10-H ) :   0.9593 B(  9-C , 11-H ) :   0.9595 B(  9-C , 12-C ) :   1.0750
B( 12-C , 13-H ) :   0.9732 B( 12-C , 14-H ) :   0.9755 B( 12-C , 15-H ) :   0.9750
B( 16-S , 17-C ) :   1.1669 B( 16-S , 20-C ) :   1.1598 B( 17-C , 18-C ) :   1.5747
B( 17-C , 20-C ) :   0.1101 B( 17-C , 33-H ) :   0.9627 B( 18-C , 19-C ) :   1.2543
B( 18-C , 21-H ) :   0.9840 B( 19-C , 20-C ) :   1.5631 B( 19-C , 22-C ) :   1.0348
B( 22-C , 23-H ) :   0.9398 B( 22-C , 24-H ) :   0.9227 B( 22-C , 25-C ) :   1.0788
B( 25-C , 26-H ) :   0.9449 B( 25-C , 27-H ) :   0.9607 B( 25-C , 28-C ) :   1.0740
B( 28-C , 29-H ) :   0.9772 B( 28-C , 30-H ) :   0.9753 B( 28-C , 31-H ) :   0.9736

Dispersion correction           -0.014312686
FINAL SINGLE POINT ENERGY     -1339.861208970565

DIPOLE MOMENT
-------------
                                X             Y             Z
Electronic contribution:    -25.75317      13.67665      -2.95011
Nuclear contribution   :     26.30435     -14.18382       2.72019
                        -----------------------------------------
Total Dipole Moment    :      0.55119      -0.50717      -0.22992
                        -----------------------------------------
Magnitude (a.u.)       :      0.78351
Magnitude (Debye)      :      1.99153

Rotational constants in cm-1:     0.017040     0.009110     0.006821
Rotational constants in MHz :   510.841205   273.122832   204.490935

                             ****ORCA TERMINATED NORMALLY****
TOTAL RUN TIME: 0 days 0 hours 0 minutes 21 seconds 500 msec
