                         Program Version 4.2.1 -  RELEASE  -
|  1> ! wB97X-D3 SP def2-SVP
|  2> %pal
|  3> nprocs 24
|  4> end
|  5>
|  6> * xyz 0 1
|  7> S 	 -52.6496 	 12.6681 	 25.4352
|  8> C 	 -54.0773 	 12.7921 	 24.3644
|  9> C 	 -54.8405 	 13.8512 	 24.7128
| 10> C 	 -54.2339 	 14.687 	 25.6885
| 11> C 	 -53.0443 	 14.2209 	 26.1776
| 12> H 	 -54.5678 	 15.5979 	 26.1094
| 13> C 	 -56.0709 	 14.2167 	 23.9791
| 14> H 	 -56.1975 	 13.3501 	 23.2591
| 15> H 	 -56.0036 	 15.1693 	 23.4164
| 16> C 	 -57.3505 	 14.4054 	 24.7966
| 17> H 	 -57.3993 	 13.6646 	 25.5193
| 18> H 	 -57.3674 	 15.368 	 25.4057
| 19> C 	 -58.5646 	 14.2652 	 23.9137
| 20> H 	 -59.5544 	 14.3995 	 24.4171
| 21> H 	 -58.4701 	 15.0666 	 23.1688
| 22> H 	 -58.6765 	 13.2721 	 23.4144
| 23> S 	 -51.1528 	 13.8662 	 28.0308
| 24> C 	 -50.7189 	 15.2011 	 29.1258
| 25> C 	 -51.1699 	 16.3697 	 28.6184
| 26> C 	 -52.0053 	 16.2586 	 27.506
| 27> C 	 -52.2714 	 14.9151 	 27.1918
| 28> H 	 -50.8369 	 17.2517 	 29.0552
| 29> C 	 -52.391 	 17.504 	 26.7842
| 30> H 	 -52.5327 	 17.1775 	 25.7383
| 31> H 	 -51.5045 	 18.1424 	 26.6192
| 32> C 	 -53.6458 	 18.275 	 27.2644
| 33> H 	 -54.4633 	 17.5745 	 27.3346
| 34> H 	 -53.9763 	 18.9523 	 26.4169
| 35> C 	 -53.5122 	 18.9339 	 28.6121
| 36> H 	 -52.8266 	 19.7492 	 28.697
| 37> H 	 -53.3013 	 18.1964 	 29.3719
| 38> H 	 -54.4078 	 19.4203 	 28.9263
| 39> H 	 -54.2773 	 12.0267 	 23.6267
| 40> H 	 -50.0106 	 15.2046 	 29.953
| 41> *
| 42>
| 43>                          ****END OF INPUT****

CARTESIAN COORDINATES (ANGSTROEM)
---------------------------------
  S    -52.649600   12.668100   25.435200
  C    -54.077300   12.792100   24.364400
  C    -54.840500   13.851200   24.712800
  C    -54.233900   14.687000   25.688500
  C    -53.044300   14.220900   26.177600
  H    -54.567800   15.597900   26.109400
  C    -56.070900   14.216700   23.979100
  H    -56.197500   13.350100   23.259100
  H    -56.003600   15.169300   23.416400
  C    -57.350500   14.405400   24.796600
  H    -57.399300   13.664600   25.519300
  H    -57.367400   15.368000   25.405700
  C    -58.564600   14.265200   23.913700
  H    -59.554400   14.399500   24.417100
  H    -58.470100   15.066600   23.168800
  H    -58.676500   13.272100   23.414400
  S    -51.152800   13.866200   28.030800
  C    -50.718900   15.201100   29.125800
  C    -51.169900   16.369700   28.618400
  C    -52.005300   16.258600   27.506000
  C    -52.271400   14.915100   27.191800
  H    -50.836900   17.251700   29.055200
  C    -52.391000   17.504000   26.784200
  H    -52.532700   17.177500   25.738300
  H    -51.504500   18.142400   26.619200
  C    -53.645800   18.275000   27.264400
  H    -54.463300   17.574500   27.334600
  H    -53.976300   18.952300   26.416900
  C    -53.512200   18.933900   28.612100
  H    -52.826600   19.749200   28.697000
  H    -53.301300   18.196400   29.371900
  H    -54.407800   19.420300   28.926300
  H    -54.277300   12.026700   23.626700
  H    -50.010600   15.204600   29.953000

 Total Charge           Charge          ....    0
 Multiplicity           Mult            ....    1
 Number of Electrons    NEL             ....  134
 Basis Dimension        Dim             ....  322

ORBITAL ENERGIES
----------------

  NO   OCC          E(Eh)            E(eV)
   0   2.0000     -88.964999     -2420.8607
   1   2.0000     -88.964687     -2420.8522
   2   2.0000     -10.330978      -281.1202
   3   2.0000     -10.329857      -281.0897
   4   2.0000     -10.315980      -280.7121
   5   2.0000     -10.314854      -280.6815
   6   2.0000     -10.301942      -280.3301
   7   2.0000     -10.297974      -280.2221
   8   2.0000     -10.294595      -280.1302
   9   2.0000     -10.293888      -280.1109
  10   2.0000     -10.293317      -280.0954
  11   2.0000     -10.287063      -279.9252
  12   2.0000     -10.283435      -279.8265
  13   2.0000     -10.283186      -279.8197
  14   2.0000     -10.282079      -279.7896
  15   2.0000     -10.272054      -279.5168
  16   2.0000      -8.079293      -219.8487
  17   2.0000      -8.079124      -219.8441
  18   2.0000      -6.037864      -164.2986
  19   2.0000      -6.037823      -164.2975
  20   2.0000      -6.034057      -164.1950
  21   2.0000      -6.033845      -164.1893
  22   2.0000      -6.029793      -164.0790
  23   2.0000      -6.029566      -164.0728
  24   2.0000      -1.010370       -27.4936
  25   2.0000      -0.987614       -26.8743
  26   2.0000      -0.917927       -24.9781
  27   2.0000      -0.910677       -24.7808
  28   2.0000      -0.877728       -23.8842
  29   2.0000      -0.854922       -23.2636
  30   2.0000      -0.846894       -23.0451
  31   2.0000      -0.822824       -22.3902
  32   2.0000      -0.783472       -21.3194
  33   2.0000      -0.771022       -20.9806
  34   2.0000      -0.716460       -19.4959
  35   2.0000      -0.700792       -19.0695
  36   2.0000      -0.693277       -18.8650
  37   2.0000      -0.667525       -18.1643
  38   2.0000      -0.645440       -17.5633
  39   2.0000      -0.620728       -16.8909
  40   2.0000      -0.597832       -16.2678
  41   2.0000      -0.582876       -15.8609
  42   2.0000      -0.558716       -15.2034
  43   2.0000      -0.549478       -14.9521
  44   2.0000      -0.545365       -14.8401
  45   2.0000      -0.525337       -14.2951
  46   2.0000      -0.521016       -14.1776
  47   2.0000      -0.511863       -13.9285
  48   2.0000      -0.505863       -13.7652
  49   2.0000      -0.500934       -13.6311
  50   2.0000      -0.498165       -13.5558
  51   2.0000      -0.483389       -13.1537
  52   2.0000      -0.476848       -12.9757
  53   2.0000      -0.466508       -12.6943
  54   2.0000      -0.459402       -12.5010
  55   2.0000      -0.447245       -12.1701
  56   2.0000      -0.438320       -11.9273
  57   2.0000      -0.435395       -11.8477
  58   2.0000      -0.430809       -11.7229
  59   2.0000      -0.423959       -11.5365
  60   2.0000      -0.420713       -11.4482
  61   2.0000      -0.419558       -11.4168
  62   2.0000      -0.414887       -11.2897
  63   2.0000      -0.361953        -9.8492
  64   2.0000      -0.335646        -9.1334
  65   2.0000      -0.326783        -8.8922
  66   2.0000      -0.283832        -7.7235
  67   0.0000       0.018438         0.5017
  68   0.0000       0.076243         2.0747
  69   0.0000       0.095512         2.5990
  70   0.0000       0.123582         3.3628
  71   0.0000       0.127311         3.4643

MULLIKEN ATOMIC CHARGES
-----------------------
   0 S :    0.087760
   1 C :   -0.139709
   2 C :   -0.009212
   3 C :    0.012709
   4 C :   -0.089163
   5 H :   -0.030869
   6 C :    0.025788
   7 H :    0.020419
   8 H :    0.043973
   9 C :   -0.052873
  10 H :    0.007401
  11 H :    0.039965
  12 C :   -0.073396
  13 H :    0.038172
  14 H :    0.025684
  15 H :    0.040493
  16 S :    0.081824
  17 C :   -0.069899
  18 C :   -0.015294
  19 C :   -0.036951
  20 C :   -0.147653
  21 H :   -0.008674
  22 C :    0.026297
  23 H :    0.020978
  24 H :    0.035878
  25 C :   -0.054612
  26 H :    0.026050
  27 H :    0.038013
  28 C :   -0.020088
  29 H :    0.018900
  30 H :    0.035336
  31 H :    0.018313
  32 H :    0.052701
  33 H :    0.051738
Sum of atomic charges:    0.0000000

LOEWDIN ATOMIC CHARGES
----------------------
   0 S :    0.367162
   1 C :   -0.174514
   2 C :   -0.066860
   3 C :   -0.061849
   4 C :   -0.179732
   5 H :    0.022428
   6 C :   -0.033549
   7 H :    0.035614
   8 H :    0.035820
   9 C :   -0.045077
  10 H :    0.011198
  11 H :    0.031681
  12 C :   -0.069873
  13 H :    0.029412
  14 H :    0.023228
  15 H :    0.029397
  16 S :    0.390889
  17 C :   -0.173853
  18 C :   -0.063695
  19 C :   -0.062679
  20 C :   -0.180037
  21 H :    0.022307
  22 C :   -0.041934
  23 H :    0.034123
  24 H :    0.036929
  25 C :   -0.039154
  26 H :    0.020716
  27 H :    0.031995
  28 C :   -0.066415
  29 H :    0.020757
  30 H :    0.028350
  31 H :    0.025617
  32 H :    0.029235
  33 H :    0.032365

  Mayer bond orders larger than 0.100000
B(  0-S ,  1-C ) :   1.1066 B(  0-S ,  4-C ) :   1.1199 B(  1-C ,  2-C ) :   1.6313
B(  1-C , 32-H ) :   0.9685 B(  2-C ,  3-C ) :   1.1828 B(  2-C ,  6-C ) :   1.0449
B(  3-C ,  4-C ) :   1.5999 B(  3-C ,  5-H ) :   1.0127 B(  4-C , 20-C ) :   1.0892
B(  6-C ,  7-H ) :   0.9437 B(  6-C ,  8-H ) :   0.9359 B(  6-C ,  9-C ) :   1.0493
B(  9-C , 10-H ) :   0.9553 B(  9-C , 11-H ) :   0.9488 B(  9-C , 12-C ) :   1.0888
B( 12-C , 13-H ) :   0.9735 B( 12-C , 14-H ) :   0.9734 B( 12-C , 15-H ) :   0.9743
B( 16-S , 17-C ) :   1.1347 B( 16-S , 20-C ) :   1.1393 B( 17-C , 18-C ) :   1.6225
B( 17-C , 20-C ) :   0.1019 B( 17-C , 33-H ) :   0.9652 B( 18-C , 19-C ) :   1.2486
B( 18-C , 21-H ) :   0.9979 B( 19-C , 20-C ) :   1.5498 B( 19-C , 22-C ) :   1.0399
B( 22-C , 23-H ) :   0.9253 B( 22-C , 24-H ) :   0.9412 B( 22-C , 25-C ) :   1.0674
B( 25-C , 26-H ) :   0.9480 B( 25-C , 27-H ) :   0.9534 B( 25-C , 28-C ) :   1.0886
B( 28-C , 29-H ) :   0.9738 B( 28-C , 30-H ) :   0.9680 B( 28-C , 31-H ) :   0.9673

Dispersion correction           -0.014057245
FINAL SINGLE POINT ENERGY     -1339.870258612335

DIPOLE MOMENT
-------------
                                X             Y             Z
Electronic contribution:     23.03248     -19.21514       4.79858
Nuclear contribution   :    -23.37507      19.85464      -4.89150
                        -----------------------------------------
Total Dipole Moment    :     -0.34259       0.63950      -0.09292
                        -----------------------------------------
Magnitude (a.u.)       :      0.73141
Magnitude (Debye)      :      1.85910

Rotational constants in cm-1:     0.018146     0.008841     0.006316
Rotational constants in MHz :   544.016811   265.061144   189.341654

                             ****ORCA TERMINATED NORMALLY****
TOTAL RUN TIME: 0 days 0 hours 0 minutes 21 seconds 745 msec
