                         Program Version 4.2.1 -  RELEASE  -
|  1> ! wB97X-D3 SP def2-SVP
|  2> %pal
|  3> nprocs 24
|  4> end
|  5>
|  6> * xyz 0 1
|  7> S 	 -31.1608 	 -48.7032 	 -75.27
|  8> C 	 -29.3912 	 -48.9511 	 -75.3067
|  9> C 	 -28.71 	 -47.7565 	 -75.0349
| 10> C 	 -29.6702 	 -46.6491 	 -74.9195
| 11> C 	 -31.0211 	 -46.9659 	 -75.0781
| 12> H 	 -29.3502 	 -45.5853 	 -74.6457
| 13> C 	 -27.1928 	 -47.601 	 -74.8454
| 14> H 	 -26.9414 	 -48.0569 	 -73.8546
| 15> H 	 -26.7888 	 -46.5536 	 -74.7229
| 16> C 	 -26.3689 	 -48.3378 	 -75.8767
| 17> H 	 -25.3425 	 -48.5621 	 -75.576
| 18> H 	 -26.8976 	 -49.2882 	 -75.9994
| 19> C 	 -26.4319 	 -47.6384 	 -77.3008
| 20> H 	 -27.5186 	 -47.556 	 -77.5203
| 21> H 	 -26.0132 	 -46.6141 	 -77.1721
| 22> H 	 -25.89 	 -48.1513 	 -78.0343
| 23> S 	 -33.5205 	 -46.678 	 -74.0183
| 24> C 	 -34.2783 	 -45.1167 	 -73.9393
| 25> C 	 -33.4597 	 -44.1626 	 -74.5436
| 26> C 	 -32.1963 	 -44.6503 	 -74.9763
| 27> C 	 -32.1045 	 -46.024 	 -74.7975
| 28> H 	 -33.8447 	 -43.1663 	 -74.5889
| 29> C 	 -31.3623 	 -43.7478 	 -75.8194
| 30> H 	 -30.4251 	 -44.0864 	 -76.1306
| 31> H 	 -31.0915 	 -42.9931 	 -75.0842
| 32> C 	 -32.1128 	 -43.1754 	 -77.1071
| 33> H 	 -33.1135 	 -42.8493 	 -76.8785
| 34> H 	 -32.3628 	 -44.0915 	 -77.7373
| 35> C 	 -31.3034 	 -42.2982 	 -77.9728
| 36> H 	 -31.7893 	 -41.8312 	 -78.8141
| 37> H 	 -30.4675 	 -42.8058 	 -78.4839
| 38> H 	 -30.9212 	 -41.4242 	 -77.4168
| 39> H 	 -28.8782 	 -49.8834 	 -75.1925
| 40> H 	 -35.1866 	 -44.9996 	 -73.4065
| 41> *
| 42>
| 43>                          ****END OF INPUT****

CARTESIAN COORDINATES (ANGSTROEM)
---------------------------------
  S    -31.160800  -48.703200  -75.270000
  C    -29.391200  -48.951100  -75.306700
  C    -28.710000  -47.756500  -75.034900
  C    -29.670200  -46.649100  -74.919500
  C    -31.021100  -46.965900  -75.078100
  H    -29.350200  -45.585300  -74.645700
  C    -27.192800  -47.601000  -74.845400
  H    -26.941400  -48.056900  -73.854600
  H    -26.788800  -46.553600  -74.722900
  C    -26.368900  -48.337800  -75.876700
  H    -25.342500  -48.562100  -75.576000
  H    -26.897600  -49.288200  -75.999400
  C    -26.431900  -47.638400  -77.300800
  H    -27.518600  -47.556000  -77.520300
  H    -26.013200  -46.614100  -77.172100
  H    -25.890000  -48.151300  -78.034300
  S    -33.520500  -46.678000  -74.018300
  C    -34.278300  -45.116700  -73.939300
  C    -33.459700  -44.162600  -74.543600
  C    -32.196300  -44.650300  -74.976300
  C    -32.104500  -46.024000  -74.797500
  H    -33.844700  -43.166300  -74.588900
  C    -31.362300  -43.747800  -75.819400
  H    -30.425100  -44.086400  -76.130600
  H    -31.091500  -42.993100  -75.084200
  C    -32.112800  -43.175400  -77.107100
  H    -33.113500  -42.849300  -76.878500
  H    -32.362800  -44.091500  -77.737300
  C    -31.303400  -42.298200  -77.972800
  H    -31.789300  -41.831200  -78.814100
  H    -30.467500  -42.805800  -78.483900
  H    -30.921200  -41.424200  -77.416800
  H    -28.878200  -49.883400  -75.192500
  H    -35.186600  -44.999600  -73.406500

 Total Charge           Charge          ....    0
 Multiplicity           Mult            ....    1
 Number of Electrons    NEL             ....  134
 Basis Dimension        Dim             ....  322

ORBITAL ENERGIES
----------------

  NO   OCC          E(Eh)            E(eV)
   0   2.0000     -88.970892     -2421.0211
   1   2.0000     -88.964652     -2420.8512
   2   2.0000     -10.335072      -281.2316
   3   2.0000     -10.330804      -281.1155
   4   2.0000     -10.319022      -280.7949
   5   2.0000     -10.317091      -280.7423
   6   2.0000     -10.313241      -280.6376
   7   2.0000     -10.304618      -280.4029
   8   2.0000     -10.302965      -280.3579
   9   2.0000     -10.302558      -280.3469
  10   2.0000     -10.295077      -280.1433
  11   2.0000     -10.291491      -280.0457
  12   2.0000     -10.290443      -280.0172
  13   2.0000     -10.288396      -279.9615
  14   2.0000     -10.277402      -279.6623
  15   2.0000     -10.276811      -279.6463
  16   2.0000      -8.084476      -219.9898
  17   2.0000      -8.080122      -219.8713
  18   2.0000      -6.043290      -164.4463
  19   2.0000      -6.039167      -164.3341
  20   2.0000      -6.038515      -164.3163
  21   2.0000      -6.034945      -164.2192
  22   2.0000      -6.034492      -164.2069
  23   2.0000      -6.030996      -164.1118
  24   2.0000      -1.006990       -27.4016
  25   2.0000      -0.980368       -26.6772
  26   2.0000      -0.912483       -24.8299
  27   2.0000      -0.909946       -24.7609
  28   2.0000      -0.866820       -23.5874
  29   2.0000      -0.859335       -23.3837
  30   2.0000      -0.836658       -22.7666
  31   2.0000      -0.810297       -22.0493
  32   2.0000      -0.783223       -21.3126
  33   2.0000      -0.775803       -21.1107
  34   2.0000      -0.708437       -19.2775
  35   2.0000      -0.705721       -19.2036
  36   2.0000      -0.692026       -18.8310
  37   2.0000      -0.666424       -18.1343
  38   2.0000      -0.631384       -17.1808
  39   2.0000      -0.616216       -16.7681
  40   2.0000      -0.599755       -16.3202
  41   2.0000      -0.579150       -15.7595
  42   2.0000      -0.556360       -15.1393
  43   2.0000      -0.554126       -15.0785
  44   2.0000      -0.537472       -14.6253
  45   2.0000      -0.526759       -14.3338
  46   2.0000      -0.521135       -14.1808
  47   2.0000      -0.509633       -13.8678
  48   2.0000      -0.504400       -13.7254
  49   2.0000      -0.498015       -13.5517
  50   2.0000      -0.486428       -13.2364
  51   2.0000      -0.477586       -12.9958
  52   2.0000      -0.472846       -12.8668
  53   2.0000      -0.464585       -12.6420
  54   2.0000      -0.462423       -12.5832
  55   2.0000      -0.457544       -12.4504
  56   2.0000      -0.443585       -12.0706
  57   2.0000      -0.437000       -11.8914
  58   2.0000      -0.430186       -11.7060
  59   2.0000      -0.423846       -11.5334
  60   2.0000      -0.417341       -11.3564
  61   2.0000      -0.413668       -11.2565
  62   2.0000      -0.407234       -11.0814
  63   2.0000      -0.357200        -9.7199
  64   2.0000      -0.332279        -9.0418
  65   2.0000      -0.327205        -8.9037
  66   2.0000      -0.285571        -7.7708
  67   0.0000       0.020566         0.5596
  68   0.0000       0.075107         2.0438
  69   0.0000       0.104824         2.8524
  70   0.0000       0.115194         3.1346
  71   0.0000       0.135862         3.6970

MULLIKEN ATOMIC CHARGES
-----------------------
   0 S :    0.103361
   1 C :   -0.118484
   2 C :   -0.105839
   3 C :   -0.026880
   4 C :   -0.100750
   5 H :    0.040421
   6 C :    0.040669
   7 H :    0.047232
   8 H :    0.032427
   9 C :   -0.091835
  10 H :    0.032800
  11 H :    0.018256
  12 C :   -0.050106
  13 H :    0.049858
  14 H :    0.027887
  15 H :    0.033139
  16 S :    0.096474
  17 C :   -0.090603
  18 C :   -0.043713
  19 C :   -0.034474
  20 C :   -0.142920
  21 H :    0.019038
  22 C :    0.098634
  23 H :   -0.003938
  24 H :    0.024103
  25 C :   -0.078953
  26 H :    0.022843
  27 H :    0.038334
  28 C :   -0.035602
  29 H :    0.026351
  30 H :    0.035508
  31 H :    0.026151
  32 H :    0.058232
  33 H :    0.052378
Sum of atomic charges:    0.0000000

LOEWDIN ATOMIC CHARGES
----------------------
   0 S :    0.392240
   1 C :   -0.197732
   2 C :   -0.055213
   3 C :   -0.075602
   4 C :   -0.194077
   5 H :    0.039006
   6 C :   -0.040502
   7 H :    0.041380
   8 H :    0.032910
   9 C :   -0.042596
  10 H :    0.021960
  11 H :    0.020651
  12 C :   -0.061070
  13 H :    0.033432
  14 H :    0.024780
  15 H :    0.015521
  16 S :    0.410652
  17 C :   -0.181053
  18 C :   -0.063766
  19 C :   -0.060441
  20 C :   -0.190402
  21 H :    0.029198
  22 C :   -0.025977
  23 H :    0.017416
  24 H :    0.034401
  25 C :   -0.041460
  26 H :    0.019190
  27 H :    0.037200
  28 C :   -0.074495
  29 H :    0.028161
  30 H :    0.030928
  31 H :    0.025902
  32 H :    0.026913
  33 H :    0.022544

  Mayer bond orders larger than 0.100000
B(  0-S ,  1-C ) :   1.1228 B(  0-S ,  4-C ) :   1.1379 B(  1-C ,  2-C ) :   1.6145
B(  1-C , 32-H ) :   0.9594 B(  2-C ,  3-C ) :   1.2500 B(  2-C ,  6-C ) :   1.0102
B(  3-C ,  4-C ) :   1.5652 B(  3-C ,  5-H ) :   0.9755 B(  4-C , 20-C ) :   1.0709
B(  6-C ,  7-H ) :   0.9334 B(  6-C ,  8-H ) :   0.9527 B(  6-C ,  9-C ) :   1.0734
B(  9-C , 10-H ) :   0.9570 B(  9-C , 11-H ) :   0.9548 B(  9-C , 12-C ) :   1.0653
B( 12-C , 13-H ) :   0.9757 B( 12-C , 14-H ) :   0.9769 B( 12-C , 15-H ) :   0.9781
B( 16-S , 17-C ) :   1.1631 B( 16-S , 20-C ) :   1.1474 B( 17-C , 18-C ) :   1.5810
B( 17-C , 33-H ) :   0.9780 B( 18-C , 19-C ) :   1.2407 B( 18-C , 21-H ) :   0.9964
B( 19-C , 20-C ) :   1.5709 B( 19-C , 22-C ) :   1.0513 B( 22-C , 23-H ) :   0.9401
B( 22-C , 24-H ) :   0.9197 B( 22-C , 25-C ) :   1.0428 B( 25-C , 26-H ) :   0.9564
B( 25-C , 27-H ) :   0.9515 B( 25-C , 28-C ) :   1.0927 B( 28-C , 29-H ) :   0.9689
B( 28-C , 30-H ) :   0.9705 B( 28-C , 31-H ) :   0.9724

Dispersion correction           -0.013724036
FINAL SINGLE POINT ENERGY     -1339.869716946224

DIPOLE MOMENT
-------------
                                X             Y             Z
Electronic contribution:    -20.61042     -14.40364      14.02469
Nuclear contribution   :     20.99218      14.90675     -13.98965
                        -----------------------------------------
Total Dipole Moment    :      0.38177       0.50311       0.03504
                        -----------------------------------------
Magnitude (a.u.)       :      0.63253
Magnitude (Debye)      :      1.60776

Rotational constants in cm-1:     0.018056     0.008536     0.006293
Rotational constants in MHz :   541.302110   255.889420   188.652892

                             ****ORCA TERMINATED NORMALLY****
TOTAL RUN TIME: 0 days 0 hours 0 minutes 21 seconds 208 msec
