                         Program Version 4.2.1 -  RELEASE  -
|  1> ! wB97X-D3 SP def2-SVP
|  2> %pal
|  3> nprocs 24
|  4> end
|  5>
|  6> * xyz 0 1
|  7> S 	 -29.8163 	 12.0084 	 2.15922
|  8> C 	 -31.2833 	 12.571 	 1.34542
|  9> C 	 -32.2934 	 12.7625 	 2.29249
| 10> C 	 -31.8152 	 12.426 	 3.61125
| 11> C 	 -30.5248 	 12.0073 	 3.78354
| 12> H 	 -32.327 	 12.4808 	 4.47785
| 13> C 	 -33.7478 	 13.2215 	 1.99031
| 14> H 	 -33.9333 	 13.2278 	 0.882461
| 15> H 	 -33.7111 	 14.2663 	 2.2825
| 16> C 	 -34.9038 	 12.4624 	 2.73116
| 17> H 	 -34.8022 	 12.4785 	 3.80316
| 18> H 	 -35.8117 	 13.0174 	 2.55844
| 19> C 	 -34.9304 	 10.9552 	 2.40118
| 20> H 	 -34.0645 	 10.5105 	 2.86635
| 21> H 	 -35.8783 	 10.5435 	 2.70716
| 22> H 	 -34.8872 	 10.8051 	 1.32834
| 23> S 	 -27.9737 	 11.4413 	 4.81588
| 24> C 	 -27.8619 	 10.8121 	 6.43065
| 25> C 	 -28.8863 	 11.4002 	 7.17128
| 26> C 	 -30.0244 	 11.7466 	 6.36537
| 27> C 	 -29.7513 	 11.7086 	 4.99541
| 28> H 	 -28.8093 	 11.5371 	 8.28383
| 29> C 	 -31.3152 	 12.351 	 6.97818
| 30> H 	 -31.6452 	 13.328 	 6.48162
| 31> H 	 -30.9917 	 12.7168 	 7.98033
| 32> C 	 -32.4903 	 11.3575 	 7.00484
| 33> H 	 -32.3512 	 10.4682 	 7.62952
| 34> H 	 -32.5135 	 10.8859 	 5.97155
| 35> C 	 -33.8959 	 11.9539 	 7.38806
| 36> H 	 -34.084 	 12.9105 	 6.83943
| 37> H 	 -34.041 	 12.1185 	 8.48269
| 38> H 	 -34.6888 	 11.2537 	 7.3681
| 39> H 	 -31.3768 	 12.9311 	 0.342919
| 40> H 	 -26.9435 	 10.5127 	 6.94581
| 41> *
| 42>
| 43>                          ****END OF INPUT****

CARTESIAN COORDINATES (ANGSTROEM)
---------------------------------
  S    -29.816300   12.008400    2.159220
  C    -31.283300   12.571000    1.345420
  C    -32.293400   12.762500    2.292490
  C    -31.815200   12.426000    3.611250
  C    -30.524800   12.007300    3.783540
  H    -32.327000   12.480800    4.477850
  C    -33.747800   13.221500    1.990310
  H    -33.933300   13.227800    0.882461
  H    -33.711100   14.266300    2.282500
  C    -34.903800   12.462400    2.731160
  H    -34.802200   12.478500    3.803160
  H    -35.811700   13.017400    2.558440
  C    -34.930400   10.955200    2.401180
  H    -34.064500   10.510500    2.866350
  H    -35.878300   10.543500    2.707160
  H    -34.887200   10.805100    1.328340
  S    -27.973700   11.441300    4.815880
  C    -27.861900   10.812100    6.430650
  C    -28.886300   11.400200    7.171280
  C    -30.024400   11.746600    6.365370
  C    -29.751300   11.708600    4.995410
  H    -28.809300   11.537100    8.283830
  C    -31.315200   12.351000    6.978180
  H    -31.645200   13.328000    6.481620
  H    -30.991700   12.716800    7.980330
  C    -32.490300   11.357500    7.004840
  H    -32.351200   10.468200    7.629520
  H    -32.513500   10.885900    5.971550
  C    -33.895900   11.953900    7.388060
  H    -34.084000   12.910500    6.839430
  H    -34.041000   12.118500    8.482690
  H    -34.688800   11.253700    7.368100
  H    -31.376800   12.931100    0.342919
  H    -26.943500   10.512700    6.945810

 Total Charge           Charge          ....    0
 Multiplicity           Mult            ....    1
 Number of Electrons    NEL             ....  134
 Basis Dimension        Dim             ....  322

ORBITAL ENERGIES
----------------

  NO   OCC          E(Eh)            E(eV)
   0   2.0000     -88.966863     -2420.9114
   1   2.0000     -88.963143     -2420.8102
   2   2.0000     -10.340523      -281.3799
   3   2.0000     -10.335919      -281.2547
   4   2.0000     -10.321445      -280.8608
   5   2.0000     -10.317638      -280.7572
   6   2.0000     -10.312852      -280.6270
   7   2.0000     -10.309129      -280.5257
   8   2.0000     -10.308565      -280.5103
   9   2.0000     -10.305458      -280.4258
  10   2.0000     -10.302747      -280.3520
  11   2.0000     -10.299089      -280.2525
  12   2.0000     -10.288343      -279.9600
  13   2.0000     -10.286884      -279.9204
  14   2.0000     -10.286474      -279.9092
  15   2.0000     -10.273094      -279.5451
  16   2.0000      -8.081091      -219.8977
  17   2.0000      -8.077172      -219.7910
  18   2.0000      -6.039771      -164.3505
  19   2.0000      -6.036105      -164.2508
  20   2.0000      -6.035996      -164.2478
  21   2.0000      -6.031665      -164.1299
  22   2.0000      -6.031219      -164.1178
  23   2.0000      -6.027717      -164.0225
  24   2.0000      -1.004618       -27.3371
  25   2.0000      -0.982749       -26.7419
  26   2.0000      -0.905231       -24.6326
  27   2.0000      -0.903448       -24.5841
  28   2.0000      -0.869964       -23.6729
  29   2.0000      -0.848356       -23.0849
  30   2.0000      -0.838412       -22.8143
  31   2.0000      -0.818002       -22.2590
  32   2.0000      -0.783466       -21.3192
  33   2.0000      -0.774878       -21.0855
  34   2.0000      -0.712017       -19.3750
  35   2.0000      -0.700993       -19.0750
  36   2.0000      -0.693629       -18.8746
  37   2.0000      -0.661270       -17.9941
  38   2.0000      -0.645115       -17.5545
  39   2.0000      -0.622567       -16.9409
  40   2.0000      -0.594149       -16.1676
  41   2.0000      -0.565559       -15.3897
  42   2.0000      -0.555333       -15.1114
  43   2.0000      -0.551916       -15.0184
  44   2.0000      -0.539118       -14.6701
  45   2.0000      -0.523490       -14.2449
  46   2.0000      -0.519599       -14.1390
  47   2.0000      -0.512102       -13.9350
  48   2.0000      -0.508787       -13.8448
  49   2.0000      -0.499994       -13.6055
  50   2.0000      -0.489961       -13.3325
  51   2.0000      -0.479190       -13.0394
  52   2.0000      -0.468817       -12.7572
  53   2.0000      -0.467622       -12.7246
  54   2.0000      -0.460753       -12.5377
  55   2.0000      -0.451493       -12.2857
  56   2.0000      -0.444150       -12.0859
  57   2.0000      -0.434799       -11.8315
  58   2.0000      -0.434449       -11.8220
  59   2.0000      -0.425980       -11.5915
  60   2.0000      -0.422400       -11.4941
  61   2.0000      -0.409907       -11.1541
  62   2.0000      -0.404755       -11.0139
  63   2.0000      -0.362791        -9.8720
  64   2.0000      -0.328408        -8.9364
  65   2.0000      -0.324389        -8.8271
  66   2.0000      -0.283730        -7.7207
  67   0.0000       0.007392         0.2011
  68   0.0000       0.073152         1.9906
  69   0.0000       0.090720         2.4686
  70   0.0000       0.118241         3.2175
  71   0.0000       0.125956         3.4274

MULLIKEN ATOMIC CHARGES
-----------------------
   0 S :    0.084308
   1 C :   -0.105991
   2 C :   -0.095276
   3 C :    0.048091
   4 C :   -0.093811
   5 H :   -0.087323
   6 C :    0.054160
   7 H :    0.032024
   8 H :    0.041724
   9 C :   -0.076311
  10 H :    0.026577
  11 H :    0.026552
  12 C :   -0.030923
  13 H :    0.048669
  14 H :    0.031830
  15 H :    0.023121
  16 S :    0.093364
  17 C :   -0.085042
  18 C :   -0.061799
  19 C :   -0.068261
  20 C :   -0.092747
  21 H :    0.046604
  22 C :    0.014085
  23 H :    0.050551
  24 H :    0.024230
  25 C :   -0.087926
  26 H :    0.031435
  27 H :    0.041451
  28 C :   -0.045218
  29 H :    0.045202
  30 H :    0.026713
  31 H :    0.022854
  32 H :    0.047554
  33 H :    0.069533
Sum of atomic charges:    0.0000000

LOEWDIN ATOMIC CHARGES
----------------------
   0 S :    0.381941
   1 C :   -0.189029
   2 C :   -0.059008
   3 C :   -0.065753
   4 C :   -0.175049
   5 H :    0.003842
   6 C :   -0.031250
   7 H :    0.033923
   8 H :    0.034225
   9 C :   -0.040441
  10 H :    0.021467
  11 H :    0.022910
  12 C :   -0.056908
  13 H :    0.029008
  14 H :    0.025257
  15 H :    0.021971
  16 S :    0.387139
  17 C :   -0.193007
  18 C :   -0.070260
  19 C :   -0.061088
  20 C :   -0.166670
  21 H :    0.040467
  22 C :   -0.038559
  23 H :    0.036793
  24 H :    0.031073
  25 C :   -0.050694
  26 H :    0.027915
  27 H :    0.030455
  28 C :   -0.078207
  29 H :    0.027941
  30 H :    0.032225
  31 H :    0.023421
  32 H :    0.029324
  33 H :    0.034627

  Mayer bond orders larger than 0.100000
B(  0-S ,  1-C ) :   1.1354 B(  0-S ,  4-C ) :   1.1220 B(  1-C ,  2-C ) :   1.6101
B(  1-C , 32-H ) :   0.9670 B(  2-C ,  3-C ) :   1.2281 B(  2-C ,  6-C ) :   1.0039
B(  3-C ,  4-C ) :   1.5846 B(  3-C ,  5-H ) :   1.0067 B(  4-C , 20-C ) :   1.0958
B(  6-C ,  7-H ) :   0.9493 B(  6-C ,  8-H ) :   0.9363 B(  6-C ,  9-C ) :   1.0730
B(  9-C , 10-H ) :   0.9549 B(  9-C , 11-H ) :   0.9558 B(  9-C , 12-C ) :   1.0671
B( 12-C , 13-H ) :   0.9742 B( 12-C , 14-H ) :   0.9744 B( 12-C , 15-H ) :   0.9791
B( 16-S , 17-C ) :   1.1480 B( 16-S , 20-C ) :   1.1304 B( 17-C , 18-C ) :   1.5977
B( 17-C , 20-C ) :   0.1061 B( 17-C , 33-H ) :   0.9635 B( 18-C , 19-C ) :   1.2621
B( 18-C , 21-H ) :   0.9738 B( 19-C , 20-C ) :   1.5653 B( 19-C , 22-C ) :   1.0274
B( 22-C , 23-H ) :   0.9467 B( 22-C , 24-H ) :   0.9386 B( 22-C , 25-C ) :   1.0367
B( 25-C , 26-H ) :   0.9518 B( 25-C , 27-H ) :   0.9587 B( 25-C , 28-C ) :   1.0757
B( 28-C , 29-H ) :   0.9741 B( 28-C , 30-H ) :   0.9698 B( 28-C , 31-H ) :   0.9705

Dispersion correction           -0.015018264
FINAL SINGLE POINT ENERGY     -1339.845280746775

DIPOLE MOMENT
-------------
                                X             Y             Z
Electronic contribution:     31.04301      -1.07265      -8.10808
Nuclear contribution   :    -31.68709       1.40824       8.64401
                        -----------------------------------------
Total Dipole Moment    :     -0.64408       0.33560       0.53593
                        -----------------------------------------
Magnitude (a.u.)       :      0.90260
Magnitude (Debye)      :      2.29422

Rotational constants in cm-1:     0.017583     0.010275     0.006893
Rotational constants in MHz :   527.138569   308.034543   206.647553

                             ****ORCA TERMINATED NORMALLY****
TOTAL RUN TIME: 0 days 0 hours 0 minutes 23 seconds 552 msec
