                         Program Version 4.2.1 -  RELEASE  -
|  1> ! wB97X-D3 SP def2-SVP
|  2> %pal
|  3> nprocs 24
|  4> end
|  5>
|  6> * xyz 0 1
|  7> S 	 -67.6426 	 7.40634 	 19.4105
|  8> C 	 -66.4081 	 8.47579 	 19.9399
|  9> C 	 -65.1527 	 7.89655 	 19.9101
| 10> C 	 -65.227 	 6.50118 	 19.8441
| 11> C 	 -66.4998 	 6.0862 	 19.5088
| 12> H 	 -64.444 	 5.78261 	 19.8166
| 13> C 	 -63.9144 	 8.56048 	 20.3497
| 14> H 	 -63.5219 	 7.91614 	 21.1748
| 15> H 	 -64.1408 	 9.5218 	 20.7522
| 16> C 	 -62.8201 	 8.71985 	 19.2678
| 17> H 	 -62.3478 	 7.8112 	 18.9176
| 18> H 	 -63.3015 	 9.13911 	 18.3149
| 19> C 	 -61.7343 	 9.62101 	 19.7882
| 20> H 	 -60.9894 	 10.0152 	 19.1387
| 21> H 	 -62.0056 	 10.5891 	 20.2111
| 22> H 	 -61.0485 	 9.14682 	 20.4837
| 23> S 	 -68.6381 	 4.25903 	 19.5335
| 24> C 	 -68.3323 	 2.76523 	 18.7171
| 25> C 	 -67.1869 	 2.66383 	 17.922
| 26> C 	 -66.3459 	 3.80031 	 18.1524
| 27> C 	 -66.926 	 4.72525 	 19.079
| 28> H 	 -67.0141 	 1.86961 	 17.2766
| 29> C 	 -65.0174 	 3.92376 	 17.4766
| 30> H 	 -64.845 	 4.91949 	 17.0986
| 31> H 	 -65.101 	 3.33158 	 16.5263
| 32> C 	 -63.9101 	 3.4074 	 18.283
| 33> H 	 -64.0982 	 2.32811 	 18.2762
| 34> H 	 -63.9205 	 3.74272 	 19.2874
| 35> C 	 -62.5507 	 3.75858 	 17.6218
| 36> H 	 -62.4036 	 3.36319 	 16.6351
| 37> H 	 -61.81 	 3.35238 	 18.2505
| 38> H 	 -62.6092 	 4.82208 	 17.5224
| 39> H 	 -66.5999 	 9.46927 	 20.299
| 40> H 	 -68.9795 	 1.96964 	 18.602
| 41> *
| 42>
| 43>                          ****END OF INPUT****

CARTESIAN COORDINATES (ANGSTROEM)
---------------------------------
  S    -67.642600    7.406340   19.410500
  C    -66.408100    8.475790   19.939900
  C    -65.152700    7.896550   19.910100
  C    -65.227000    6.501180   19.844100
  C    -66.499800    6.086200   19.508800
  H    -64.444000    5.782610   19.816600
  C    -63.914400    8.560480   20.349700
  H    -63.521900    7.916140   21.174800
  H    -64.140800    9.521800   20.752200
  C    -62.820100    8.719850   19.267800
  H    -62.347800    7.811200   18.917600
  H    -63.301500    9.139110   18.314900
  C    -61.734300    9.621010   19.788200
  H    -60.989400   10.015200   19.138700
  H    -62.005600   10.589100   20.211100
  H    -61.048500    9.146820   20.483700
  S    -68.638100    4.259030   19.533500
  C    -68.332300    2.765230   18.717100
  C    -67.186900    2.663830   17.922000
  C    -66.345900    3.800310   18.152400
  C    -66.926000    4.725250   19.079000
  H    -67.014100    1.869610   17.276600
  C    -65.017400    3.923760   17.476600
  H    -64.845000    4.919490   17.098600
  H    -65.101000    3.331580   16.526300
  C    -63.910100    3.407400   18.283000
  H    -64.098200    2.328110   18.276200
  H    -63.920500    3.742720   19.287400
  C    -62.550700    3.758580   17.621800
  H    -62.403600    3.363190   16.635100
  H    -61.810000    3.352380   18.250500
  H    -62.609200    4.822080   17.522400
  H    -66.599900    9.469270   20.299000
  H    -68.979500    1.969640   18.602000

 Total Charge           Charge          ....    0
 Multiplicity           Mult            ....    1
 Number of Electrons    NEL             ....  134
 Basis Dimension        Dim             ....  322

ORBITAL ENERGIES
----------------

  NO   OCC          E(Eh)            E(eV)
   0   2.0000     -88.972084     -2421.0535
   1   2.0000     -88.964547     -2420.8484
   2   2.0000     -10.333844      -281.1982
   3   2.0000     -10.327081      -281.0142
   4   2.0000     -10.312826      -280.6263
   5   2.0000     -10.309236      -280.5286
   6   2.0000     -10.306350      -280.4501
   7   2.0000     -10.292965      -280.0858
   8   2.0000     -10.292304      -280.0678
   9   2.0000     -10.291763      -280.0531
  10   2.0000     -10.287773      -279.9445
  11   2.0000     -10.287170      -279.9281
  12   2.0000     -10.285908      -279.8938
  13   2.0000     -10.280910      -279.7578
  14   2.0000     -10.273887      -279.5667
  15   2.0000     -10.271844      -279.5111
  16   2.0000      -8.085604      -220.0205
  17   2.0000      -8.080040      -219.8691
  18   2.0000      -6.043995      -164.4655
  19   2.0000      -6.040569      -164.3722
  20   2.0000      -6.038413      -164.3136
  21   2.0000      -6.036289      -164.2558
  22   2.0000      -6.034589      -164.2095
  23   2.0000      -6.030767      -164.1055
  24   2.0000      -1.005939       -27.3730
  25   2.0000      -0.981311       -26.7028
  26   2.0000      -0.924000       -25.1433
  27   2.0000      -0.913947       -24.8698
  28   2.0000      -0.864952       -23.5365
  29   2.0000      -0.856750       -23.3134
  30   2.0000      -0.852819       -23.2064
  31   2.0000      -0.815271       -22.1846
  32   2.0000      -0.786226       -21.3943
  33   2.0000      -0.768642       -20.9158
  34   2.0000      -0.710921       -19.3451
  35   2.0000      -0.704323       -19.1656
  36   2.0000      -0.692648       -18.8479
  37   2.0000      -0.665630       -18.1127
  38   2.0000      -0.645812       -17.5734
  39   2.0000      -0.624124       -16.9833
  40   2.0000      -0.600413       -16.3381
  41   2.0000      -0.577707       -15.7202
  42   2.0000      -0.567900       -15.4534
  43   2.0000      -0.558026       -15.1847
  44   2.0000      -0.536373       -14.5955
  45   2.0000      -0.522037       -14.2053
  46   2.0000      -0.514968       -14.0130
  47   2.0000      -0.514043       -13.9878
  48   2.0000      -0.507370       -13.8062
  49   2.0000      -0.499827       -13.6010
  50   2.0000      -0.488117       -13.2823
  51   2.0000      -0.478634       -13.0243
  52   2.0000      -0.471254       -12.8235
  53   2.0000      -0.464213       -12.6319
  54   2.0000      -0.461608       -12.5610
  55   2.0000      -0.456789       -12.4299
  56   2.0000      -0.450133       -12.2487
  57   2.0000      -0.439763       -11.9666
  58   2.0000      -0.438215       -11.9244
  59   2.0000      -0.422922       -11.5083
  60   2.0000      -0.422164       -11.4877
  61   2.0000      -0.414938       -11.2910
  62   2.0000      -0.413782       -11.2596
  63   2.0000      -0.342923        -9.3314
  64   2.0000      -0.335700        -9.1349
  65   2.0000      -0.331206        -9.0126
  66   2.0000      -0.281537        -7.6610
  67   0.0000       0.023221         0.6319
  68   0.0000       0.068070         1.8523
  69   0.0000       0.098085         2.6690
  70   0.0000       0.121483         3.3057
  71   0.0000       0.123404         3.3580

MULLIKEN ATOMIC CHARGES
-----------------------
   0 S :    0.114162
   1 C :   -0.121616
   2 C :   -0.053959
   3 C :    0.027511
   4 C :   -0.116483
   5 H :   -0.021033
   6 C :    0.056141
   7 H :    0.039193
   8 H :    0.004507
   9 C :   -0.063273
  10 H :    0.028735
  11 H :    0.038558
  12 C :   -0.040743
  13 H :    0.009783
  14 H :    0.019683
  15 H :    0.020817
  16 S :    0.108746
  17 C :   -0.027635
  18 C :   -0.030823
  19 C :   -0.027803
  20 C :   -0.175079
  21 H :   -0.004189
  22 C :    0.050048
  23 H :    0.019792
  24 H :    0.020707
  25 C :   -0.080186
  26 H :    0.020957
  27 H :    0.033523
  28 C :    0.012812
  29 H :    0.021868
  30 H :    0.031480
  31 H :    0.022639
  32 H :    0.042179
  33 H :    0.018978
Sum of atomic charges:    0.0000000

LOEWDIN ATOMIC CHARGES
----------------------
   0 S :    0.412412
   1 C :   -0.205750
   2 C :   -0.065393
   3 C :   -0.064461
   4 C :   -0.184117
   5 H :    0.024428
   6 C :   -0.028514
   7 H :    0.039254
   8 H :    0.024238
   9 C :   -0.041167
  10 H :    0.023228
  11 H :    0.032713
  12 C :   -0.079627
  13 H :    0.023667
  14 H :    0.025120
  15 H :    0.026410
  16 S :    0.386686
  17 C :   -0.170966
  18 C :   -0.061492
  19 C :   -0.035477
  20 C :   -0.183422
  21 H :    0.021751
  22 C :   -0.039169
  23 H :    0.024028
  24 H :    0.036298
  25 C :   -0.035713
  26 H :    0.026755
  27 H :    0.016521
  28 C :   -0.050188
  29 H :    0.023329
  30 H :    0.022285
  31 H :    0.022433
  32 H :    0.022870
  33 H :    0.011030

  Mayer bond orders larger than 0.100000
B(  0-S ,  1-C ) :   1.1406 B(  0-S ,  4-C ) :   1.1578 B(  1-C ,  2-C ) :   1.5846
B(  1-C , 32-H ) :   0.9694 B(  2-C ,  3-C ) :   1.2363 B(  2-C ,  6-C ) :   1.0475
B(  3-C ,  4-C ) :   1.5740 B(  3-C ,  5-H ) :   1.0008 B(  4-C , 20-C ) :   1.0516
B(  6-C ,  7-H ) :   0.9404 B(  6-C ,  8-H ) :   0.9456 B(  6-C ,  9-C ) :   1.0458
B(  9-C , 10-H ) :   0.9533 B(  9-C , 11-H ) :   0.9574 B(  9-C , 12-C ) :   1.0808
B( 12-C , 13-H ) :   0.9680 B( 12-C , 14-H ) :   0.9731 B( 12-C , 15-H ) :   0.9708
B( 16-S , 17-C ) :   1.1625 B( 16-S , 20-C ) :   1.1174 B( 17-C , 18-C ) :   1.6153
B( 17-C , 33-H ) :   0.9655 B( 18-C , 19-C ) :   1.2458 B( 18-C , 21-H ) :   0.9968
B( 19-C , 20-C ) :   1.5663 B( 19-C , 22-C ) :   1.0448 B( 22-C , 23-H ) :   0.9284
B( 22-C , 24-H ) :   0.9304 B( 22-C , 25-C ) :   1.0675 B( 25-C , 26-H ) :   0.9439
B( 25-C , 27-H ) :   0.9563 B( 25-C , 28-C ) :   1.0762 B( 28-C , 29-H ) :   0.9724
B( 28-C , 30-H ) :   0.9738 B( 28-C , 31-H ) :   0.9750

Dispersion correction           -0.014369444
FINAL SINGLE POINT ENERGY     -1339.852401456740

DIPOLE MOMENT
-------------
                                X             Y             Z
Electronic contribution:    -32.84191      -4.33282       4.64343
Nuclear contribution   :     33.47126       4.17743      -4.92232
                        -----------------------------------------
Total Dipole Moment    :      0.62934      -0.15539      -0.27888
                        -----------------------------------------
Magnitude (a.u.)       :      0.70569
Magnitude (Debye)      :      1.79372

Rotational constants in cm-1:     0.018650     0.009319     0.006464
Rotational constants in MHz :   559.117013   279.374363   193.790413

                             ****ORCA TERMINATED NORMALLY****
TOTAL RUN TIME: 0 days 0 hours 0 minutes 22 seconds 312 msec
