                         Program Version 4.2.1 -  RELEASE  -
|  1> ! wB97X-D3 SP def2-SVP
|  2> %pal
|  3> nprocs 24
|  4> end
|  5>
|  6> * xyz 0 1
|  7> S 	 -39.8329 	 -47.9131 	 -76.3771
|  8> C 	 -38.4108 	 -48.4437 	 -77.289
|  9> C 	 -37.8478 	 -47.4395 	 -78.0413
| 10> C 	 -38.4638 	 -46.1478 	 -77.7503
| 11> C 	 -39.5112 	 -46.2343 	 -76.7793
| 12> H 	 -38.2175 	 -45.1786 	 -78.1974
| 13> C 	 -36.6458 	 -47.5774 	 -78.912
| 14> H 	 -36.9244 	 -47.1318 	 -79.9209
| 15> H 	 -36.3809 	 -48.6217 	 -79.1229
| 16> C 	 -35.3941 	 -46.7898 	 -78.4734
| 17> H 	 -34.5553 	 -46.7446 	 -79.1814
| 18> H 	 -35.7806 	 -45.7209 	 -78.3484
| 19> C 	 -34.7644 	 -47.2216 	 -77.1491
| 20> H 	 -35.4581 	 -47.406 	 -76.37
| 21> H 	 -34.2161 	 -48.1939 	 -77.3009
| 22> H 	 -34.0708 	 -46.481 	 -76.9332
| 23> S 	 -40.6815 	 -44.7487 	 -74.6628
| 24> C 	 -41.8769 	 -43.5846 	 -75.1106
| 25> C 	 -41.9823 	 -43.4115 	 -76.4875
| 26> C 	 -41.1784 	 -44.3434 	 -77.2323
| 27> C 	 -40.4453 	 -45.1877 	 -76.4068
| 28> H 	 -42.7402 	 -42.7259 	 -76.8084
| 29> C 	 -41.3052 	 -44.5018 	 -78.74
| 30> H 	 -40.2809 	 -44.1863 	 -79.0786
| 31> H 	 -42.0665 	 -43.7611 	 -79.0117
| 32> C 	 -41.5346 	 -45.9384 	 -79.3723
| 33> H 	 -42.5188 	 -46.2524 	 -79.0672
| 34> H 	 -40.7643 	 -46.6374 	 -79.0089
| 35> C 	 -41.2742 	 -45.8778 	 -80.9045
| 36> H 	 -41.2427 	 -46.9008 	 -81.3039
| 37> H 	 -40.3721 	 -45.3658 	 -81.2747
| 38> H 	 -42.0783 	 -45.3519 	 -81.35
| 39> H 	 -38.1548 	 -49.4671 	 -77.4355
| 40> H 	 -42.4547 	 -42.9034 	 -74.3691
| 41> *
| 42>
| 43>                          ****END OF INPUT****

CARTESIAN COORDINATES (ANGSTROEM)
---------------------------------
  S    -39.832900  -47.913100  -76.377100
  C    -38.410800  -48.443700  -77.289000
  C    -37.847800  -47.439500  -78.041300
  C    -38.463800  -46.147800  -77.750300
  C    -39.511200  -46.234300  -76.779300
  H    -38.217500  -45.178600  -78.197400
  C    -36.645800  -47.577400  -78.912000
  H    -36.924400  -47.131800  -79.920900
  H    -36.380900  -48.621700  -79.122900
  C    -35.394100  -46.789800  -78.473400
  H    -34.555300  -46.744600  -79.181400
  H    -35.780600  -45.720900  -78.348400
  C    -34.764400  -47.221600  -77.149100
  H    -35.458100  -47.406000  -76.370000
  H    -34.216100  -48.193900  -77.300900
  H    -34.070800  -46.481000  -76.933200
  S    -40.681500  -44.748700  -74.662800
  C    -41.876900  -43.584600  -75.110600
  C    -41.982300  -43.411500  -76.487500
  C    -41.178400  -44.343400  -77.232300
  C    -40.445300  -45.187700  -76.406800
  H    -42.740200  -42.725900  -76.808400
  C    -41.305200  -44.501800  -78.740000
  H    -40.280900  -44.186300  -79.078600
  H    -42.066500  -43.761100  -79.011700
  C    -41.534600  -45.938400  -79.372300
  H    -42.518800  -46.252400  -79.067200
  H    -40.764300  -46.637400  -79.008900
  C    -41.274200  -45.877800  -80.904500
  H    -41.242700  -46.900800  -81.303900
  H    -40.372100  -45.365800  -81.274700
  H    -42.078300  -45.351900  -81.350000
  H    -38.154800  -49.467100  -77.435500
  H    -42.454700  -42.903400  -74.369100

 Total Charge           Charge          ....    0
 Multiplicity           Mult            ....    1
 Number of Electrons    NEL             ....  134
 Basis Dimension        Dim             ....  322

ORBITAL ENERGIES
----------------

  NO   OCC          E(Eh)            E(eV)
   0   2.0000     -88.968798     -2420.9641
   1   2.0000     -88.965990     -2420.8877
   2   2.0000     -10.335111      -281.2327
   3   2.0000     -10.326666      -281.0029
   4   2.0000     -10.324920      -280.9554
   5   2.0000     -10.315710      -280.7047
   6   2.0000     -10.307553      -280.4828
   7   2.0000     -10.307006      -280.4679
   8   2.0000     -10.305574      -280.4289
   9   2.0000     -10.299203      -280.2555
  10   2.0000     -10.297422      -280.2071
  11   2.0000     -10.294106      -280.1169
  12   2.0000     -10.292910      -280.0843
  13   2.0000     -10.288266      -279.9579
  14   2.0000     -10.275803      -279.6188
  15   2.0000     -10.268075      -279.4085
  16   2.0000      -8.082809      -219.9444
  17   2.0000      -8.080188      -219.8731
  18   2.0000      -6.041333      -164.3930
  19   2.0000      -6.038603      -164.3188
  20   2.0000      -6.037424      -164.2867
  21   2.0000      -6.034858      -164.2168
  22   2.0000      -6.033577      -164.1820
  23   2.0000      -6.030982      -164.1114
  24   2.0000      -0.999742       -27.2044
  25   2.0000      -0.978498       -26.6263
  26   2.0000      -0.912137       -24.8205
  27   2.0000      -0.899846       -24.4861
  28   2.0000      -0.866496       -23.5785
  29   2.0000      -0.850024       -23.1303
  30   2.0000      -0.843633       -22.9564
  31   2.0000      -0.809112       -22.0170
  32   2.0000      -0.784518       -21.3478
  33   2.0000      -0.770095       -20.9553
  34   2.0000      -0.710950       -19.3459
  35   2.0000      -0.694184       -18.8897
  36   2.0000      -0.686725       -18.6867
  37   2.0000      -0.655398       -17.8343
  38   2.0000      -0.638091       -17.3633
  39   2.0000      -0.617725       -16.8091
  40   2.0000      -0.582992       -15.8640
  41   2.0000      -0.570115       -15.5136
  42   2.0000      -0.560490       -15.2517
  43   2.0000      -0.555833       -15.1250
  44   2.0000      -0.540549       -14.7091
  45   2.0000      -0.520787       -14.1713
  46   2.0000      -0.515846       -14.0369
  47   2.0000      -0.502904       -13.6847
  48   2.0000      -0.498615       -13.5680
  49   2.0000      -0.496241       -13.5034
  50   2.0000      -0.489443       -13.3184
  51   2.0000      -0.484946       -13.1961
  52   2.0000      -0.470895       -12.8137
  53   2.0000      -0.468910       -12.7597
  54   2.0000      -0.456896       -12.4328
  55   2.0000      -0.450154       -12.2493
  56   2.0000      -0.441436       -12.0121
  57   2.0000      -0.437325       -11.9002
  58   2.0000      -0.430201       -11.7064
  59   2.0000      -0.424614       -11.5543
  60   2.0000      -0.420056       -11.4303
  61   2.0000      -0.413358       -11.2480
  62   2.0000      -0.408027       -11.1030
  63   2.0000      -0.337860        -9.1936
  64   2.0000      -0.332616        -9.0509
  65   2.0000      -0.327988        -8.9250
  66   2.0000      -0.294526        -8.0145
  67   0.0000       0.024705         0.6723
  68   0.0000       0.064647         1.7591
  69   0.0000       0.105611         2.8738
  70   0.0000       0.115669         3.1475
  71   0.0000       0.130943         3.5631

MULLIKEN ATOMIC CHARGES
-----------------------
   0 S :    0.108902
   1 C :   -0.101035
   2 C :   -0.083602
   3 C :    0.001073
   4 C :   -0.165675
   5 H :    0.028893
   6 C :    0.065206
   7 H :    0.038401
   8 H :    0.019387
   9 C :   -0.120013
  10 H :    0.036647
  11 H :    0.032342
  12 C :   -0.021349
  13 H :    0.036502
  14 H :    0.025464
  15 H :    0.025703
  16 S :    0.110797
  17 C :   -0.125484
  18 C :   -0.046238
  19 C :   -0.008376
  20 C :   -0.177835
  21 H :    0.015090
  22 C :    0.045553
  23 H :    0.027875
  24 H :    0.024762
  25 C :   -0.050672
  26 H :    0.036190
  27 H :    0.056960
  28 C :   -0.051666
  29 H :    0.037356
  30 H :    0.031083
  31 H :    0.019745
  32 H :    0.039275
  33 H :    0.088738
Sum of atomic charges:   -0.0000000

LOEWDIN ATOMIC CHARGES
----------------------
   0 S :    0.401692
   1 C :   -0.187025
   2 C :   -0.063951
   3 C :   -0.059905
   4 C :   -0.192302
   5 H :    0.031900
   6 C :   -0.039074
   7 H :    0.041431
   8 H :    0.026746
   9 C :   -0.045111
  10 H :    0.026461
  11 H :    0.026870
  12 C :   -0.059304
  13 H :    0.020983
  14 H :    0.028389
  15 H :    0.019293
  16 S :    0.388881
  17 C :   -0.199920
  18 C :   -0.082902
  19 C :   -0.048438
  20 C :   -0.199372
  21 H :    0.029821
  22 C :   -0.034260
  23 H :    0.035422
  24 H :    0.029547
  25 C :   -0.030434
  26 H :    0.023467
  27 H :    0.030503
  28 C :   -0.065907
  29 H :    0.029036
  30 H :    0.027032
  31 H :    0.017238
  32 H :    0.023014
  33 H :    0.050181

  Mayer bond orders larger than 0.100000
B(  0-S ,  1-C ) :   1.1290 B(  0-S ,  4-C ) :   1.1591 B(  1-C ,  2-C ) :   1.6185
B(  1-C , 32-H ) :   0.9684 B(  2-C ,  3-C ) :   1.2107 B(  2-C ,  6-C ) :   1.0442
B(  3-C ,  4-C ) :   1.5668 B(  3-C ,  5-H ) :   0.9919 B(  4-C , 20-C ) :   1.0515
B(  6-C ,  7-H ) :   0.9297 B(  6-C ,  8-H ) :   0.9447 B(  6-C ,  9-C ) :   1.0641
B(  9-C , 10-H ) :   0.9573 B(  9-C , 11-H ) :   0.9546 B(  9-C , 12-C ) :   1.0756
B( 12-C , 13-H ) :   0.9775 B( 12-C , 14-H ) :   0.9731 B( 12-C , 15-H ) :   0.9736
B( 16-S , 17-C ) :   1.1649 B( 16-S , 20-C ) :   1.1188 B( 17-C , 18-C ) :   1.6251
B( 17-C , 33-H ) :   0.9498 B( 18-C , 19-C ) :   1.2267 B( 18-C , 21-H ) :   0.9910
B( 19-C , 20-C ) :   1.5925 B( 19-C , 22-C ) :   1.0316 B( 22-C , 23-H ) :   0.9259
B( 22-C , 24-H ) :   0.9404 B( 22-C , 25-C ) :   1.0570 B( 25-C , 26-H ) :   0.9587
B( 25-C , 27-H ) :   0.9534 B( 25-C , 28-C ) :   1.0735 B( 28-C , 29-H ) :   0.9760
B( 28-C , 30-H ) :   0.9757 B( 28-C , 31-H ) :   0.9773

Dispersion correction           -0.015475756
FINAL SINGLE POINT ENERGY     -1339.876629272610

DIPOLE MOMENT
-------------
                                X             Y             Z
Electronic contribution:    -12.38637       0.65359      21.68202
Nuclear contribution   :     12.47209      -0.50193     -22.31262
                        -----------------------------------------
Total Dipole Moment    :      0.08573       0.15166      -0.63059
                        -----------------------------------------
Magnitude (a.u.)       :      0.65422
Magnitude (Debye)      :      1.66288

Rotational constants in cm-1:     0.018513     0.009232     0.007621
Rotational constants in MHz :   555.000937   276.763140   228.486605

                             ****ORCA TERMINATED NORMALLY****
TOTAL RUN TIME: 0 days 0 hours 0 minutes 22 seconds 397 msec
