                         Program Version 4.2.1 -  RELEASE  -
|  1> ! wB97X-D3 SP def2-SVP
|  2> %pal
|  3> nprocs 24
|  4> end
|  5>
|  6> * xyz 0 1
|  7> S 	 -128.028 	 59.2099 	 -55.0056
|  8> C 	 -128.403 	 57.9942 	 -56.2061
|  9> C 	 -129.65 	 58.1747 	 -56.7558
| 10> C 	 -130.31 	 59.3243 	 -56.3191
| 11> C 	 -129.472 	 60.0781 	 -55.4466
| 12> H 	 -131.316 	 59.6913 	 -56.5619
| 13> C 	 -130.298 	 57.1394 	 -57.6177
| 14> H 	 -129.65 	 56.5547 	 -58.1725
| 15> H 	 -130.833 	 57.6721 	 -58.3578
| 16> C 	 -131.241 	 56.1865 	 -56.875
| 17> H 	 -130.537 	 55.5626 	 -56.2494
| 18> H 	 -131.816 	 56.7374 	 -56.109
| 19> C 	 -132.145 	 55.2061 	 -57.7331
| 20> H 	 -133.054 	 54.9599 	 -57.1312
| 21> H 	 -132.568 	 55.686 	 -58.6379
| 22> H 	 -131.61 	 54.3733 	 -58.1355
| 23> S 	 -130.487 	 62.593 	 -55.6976
| 24> C 	 -130.577 	 63.6791 	 -54.2955
| 25> C 	 -130.114 	 63.0402 	 -53.1779
| 26> C 	 -129.719 	 61.6674 	 -53.3782
| 27> C 	 -129.848 	 61.2611 	 -54.7065
| 28> H 	 -130.24 	 63.4032 	 -52.2138
| 29> C 	 -129.214 	 60.7961 	 -52.2422
| 30> H 	 -129.139 	 59.826 	 -52.7459
| 31> H 	 -130.086 	 60.7844 	 -51.5815
| 32> C 	 -127.92 	 61.1925 	 -51.6444
| 33> H 	 -128.025 	 61.959 	 -50.9574
| 34> H 	 -127.26 	 61.635 	 -52.4331
| 35> C 	 -127.145 	 60.0135 	 -51.005
| 36> H 	 -126.2 	 60.2725 	 -50.5509
| 37> H 	 -126.995 	 59.1797 	 -51.7509
| 38> H 	 -127.816 	 59.6594 	 -50.2582
| 39> H 	 -127.889 	 57.0529 	 -56.2486
| 40> H 	 -130.963 	 64.6369 	 -54.2636
| 41> *
| 42>
| 43>                          ****END OF INPUT****

CARTESIAN COORDINATES (ANGSTROEM)
---------------------------------
  S    -128.028000   59.209900  -55.005600
  C    -128.403000   57.994200  -56.206100
  C    -129.650000   58.174700  -56.755800
  C    -130.310000   59.324300  -56.319100
  C    -129.472000   60.078100  -55.446600
  H    -131.316000   59.691300  -56.561900
  C    -130.298000   57.139400  -57.617700
  H    -129.650000   56.554700  -58.172500
  H    -130.833000   57.672100  -58.357800
  C    -131.241000   56.186500  -56.875000
  H    -130.537000   55.562600  -56.249400
  H    -131.816000   56.737400  -56.109000
  C    -132.145000   55.206100  -57.733100
  H    -133.054000   54.959900  -57.131200
  H    -132.568000   55.686000  -58.637900
  H    -131.610000   54.373300  -58.135500
  S    -130.487000   62.593000  -55.697600
  C    -130.577000   63.679100  -54.295500
  C    -130.114000   63.040200  -53.177900
  C    -129.719000   61.667400  -53.378200
  C    -129.848000   61.261100  -54.706500
  H    -130.240000   63.403200  -52.213800
  C    -129.214000   60.796100  -52.242200
  H    -129.139000   59.826000  -52.745900
  H    -130.086000   60.784400  -51.581500
  C    -127.920000   61.192500  -51.644400
  H    -128.025000   61.959000  -50.957400
  H    -127.260000   61.635000  -52.433100
  C    -127.145000   60.013500  -51.005000
  H    -126.200000   60.272500  -50.550900
  H    -126.995000   59.179700  -51.750900
  H    -127.816000   59.659400  -50.258200
  H    -127.889000   57.052900  -56.248600
  H    -130.963000   64.636900  -54.263600

 Total Charge           Charge          ....    0
 Multiplicity           Mult            ....    1
 Number of Electrons    NEL             ....  134
 Basis Dimension        Dim             ....  322

ORBITAL ENERGIES
----------------

  NO   OCC          E(Eh)            E(eV)
   0   2.0000     -88.972742     -2421.0714
   1   2.0000     -88.962737     -2420.7991
   2   2.0000     -10.333597      -281.1915
   3   2.0000     -10.326872      -281.0085
   4   2.0000     -10.314505      -280.6719
   5   2.0000     -10.310967      -280.5757
   6   2.0000     -10.301539      -280.3191
   7   2.0000     -10.300144      -280.2812
   8   2.0000     -10.299136      -280.2537
   9   2.0000     -10.294694      -280.1329
  10   2.0000     -10.287765      -279.9443
  11   2.0000     -10.286761      -279.9170
  12   2.0000     -10.286558      -279.9115
  13   2.0000     -10.280151      -279.7371
  14   2.0000     -10.279360      -279.7156
  15   2.0000     -10.276612      -279.6408
  16   2.0000      -8.086989      -220.0581
  17   2.0000      -8.076670      -219.7774
  18   2.0000      -6.045303      -164.5010
  19   2.0000      -6.041611      -164.4006
  20   2.0000      -6.037944      -164.3008
  21   2.0000      -6.035398      -164.2315
  22   2.0000      -6.031255      -164.1188
  23   2.0000      -6.027286      -164.0108
  24   2.0000      -1.007453       -27.4142
  25   2.0000      -0.982246       -26.7283
  26   2.0000      -0.914403       -24.8822
  27   2.0000      -0.912498       -24.8303
  28   2.0000      -0.869168       -23.6513
  29   2.0000      -0.852245       -23.1908
  30   2.0000      -0.844911       -22.9912
  31   2.0000      -0.814109       -22.1530
  32   2.0000      -0.785987       -21.3878
  33   2.0000      -0.770821       -20.9751
  34   2.0000      -0.709381       -19.3032
  35   2.0000      -0.703957       -19.1557
  36   2.0000      -0.698443       -19.0056
  37   2.0000      -0.669939       -18.2300
  38   2.0000      -0.641085       -17.4448
  39   2.0000      -0.620295       -16.8791
  40   2.0000      -0.594630       -16.1807
  41   2.0000      -0.573231       -15.5984
  42   2.0000      -0.568409       -15.4672
  43   2.0000      -0.555981       -15.1290
  44   2.0000      -0.531148       -14.4533
  45   2.0000      -0.526714       -14.3326
  46   2.0000      -0.523053       -14.2330
  47   2.0000      -0.514341       -13.9959
  48   2.0000      -0.503530       -13.7017
  49   2.0000      -0.493449       -13.4274
  50   2.0000      -0.489095       -13.3090
  51   2.0000      -0.482670       -13.1341
  52   2.0000      -0.470623       -12.8063
  53   2.0000      -0.466785       -12.7019
  54   2.0000      -0.462833       -12.5943
  55   2.0000      -0.453823       -12.3491
  56   2.0000      -0.449496       -12.2314
  57   2.0000      -0.438298       -11.9267
  58   2.0000      -0.432011       -11.7556
  59   2.0000      -0.426205       -11.5976
  60   2.0000      -0.423220       -11.5164
  61   2.0000      -0.412536       -11.2257
  62   2.0000      -0.404363       -11.0033
  63   2.0000      -0.350228        -9.5302
  64   2.0000      -0.336235        -9.1494
  65   2.0000      -0.327856        -8.9214
  66   2.0000      -0.287882        -7.8337
  67   0.0000       0.021487         0.5847
  68   0.0000       0.074706         2.0329
  69   0.0000       0.101005         2.7485
  70   0.0000       0.118592         3.2271
  71   0.0000       0.134848         3.6694

MULLIKEN ATOMIC CHARGES
-----------------------
   0 S :    0.111143
   1 C :   -0.103629
   2 C :   -0.088744
   3 C :    0.011523
   4 C :   -0.148231
   5 H :    0.029639
   6 C :    0.136029
   7 H :   -0.004117
   8 H :    0.003936
   9 C :   -0.103922
  10 H :    0.023172
  11 H :    0.031050
  12 C :   -0.046934
  13 H :    0.048643
  14 H :    0.026245
  15 H :    0.037728
  16 S :    0.087962
  17 C :   -0.053027
  18 C :    0.006186
  19 C :   -0.101761
  20 C :   -0.153237
  21 H :   -0.005989
  22 C :    0.080604
  23 H :    0.013753
  24 H :    0.036126
  25 C :   -0.046651
  26 H :    0.010419
  27 H :    0.034964
  28 C :   -0.046394
  29 H :    0.036870
  30 H :    0.036319
  31 H :    0.022195
  32 H :    0.046080
  33 H :    0.032047
Sum of atomic charges:   -0.0000000

LOEWDIN ATOMIC CHARGES
----------------------
   0 S :    0.433339
   1 C :   -0.199788
   2 C :   -0.059719
   3 C :   -0.058769
   4 C :   -0.193212
   5 H :    0.037351
   6 C :   -0.027041
   7 H :    0.019463
   8 H :    0.023362
   9 C :   -0.041669
  10 H :    0.026544
  11 H :    0.023753
  12 C :   -0.071098
  13 H :    0.037197
  14 H :    0.026215
  15 H :    0.022781
  16 S :    0.382100
  17 C :   -0.160896
  18 C :   -0.062761
  19 C :   -0.056363
  20 C :   -0.193914
  21 H :    0.019429
  22 C :   -0.038027
  23 H :    0.019138
  24 H :    0.035521
  25 C :   -0.041180
  26 H :    0.013390
  27 H :    0.030141
  28 C :   -0.059606
  29 H :    0.024060
  30 H :    0.028316
  31 H :    0.019793
  32 H :    0.024859
  33 H :    0.017292

  Mayer bond orders larger than 0.100000
B(  0-S ,  1-C ) :   1.1393 B(  0-S ,  4-C ) :   1.1754 B(  1-C ,  2-C ) :   1.5906
B(  1-C , 32-H ) :   0.9652 B(  2-C ,  3-C ) :   1.2772 B(  2-C ,  6-C ) :   1.0379
B(  3-C ,  4-C ) :   1.5052 B(  3-C ,  5-H ) :   0.9914 B(  4-C , 20-C ) :   1.0473
B(  6-C ,  7-H ) :   0.9354 B(  6-C ,  8-H ) :   0.9278 B(  6-C ,  9-C ) :   1.0525
B(  9-C , 10-H ) :   0.9558 B(  9-C , 11-H ) :   0.9648 B(  9-C , 12-C ) :   1.0614
B( 12-C , 13-H ) :   0.9766 B( 12-C , 14-H ) :   0.9775 B( 12-C , 15-H ) :   0.9775
B( 16-S , 17-C ) :   1.1352 B( 16-S , 20-C ) :   1.1236 B( 17-C , 18-C ) :   1.6224
B( 17-C , 33-H ) :   0.9757 B( 18-C , 19-C ) :   1.2315 B( 18-C , 21-H ) :   0.9919
B( 19-C , 20-C ) :   1.6026 B( 19-C , 22-C ) :   1.0391 B( 22-C , 23-H ) :   0.9316
B( 22-C , 24-H ) :   0.9204 B( 22-C , 25-C ) :   1.0541 B( 25-C , 26-H ) :   0.9481
B( 25-C , 27-H ) :   0.9574 B( 25-C , 28-C ) :   1.0857 B( 28-C , 29-H ) :   0.9756
B( 28-C , 30-H ) :   0.9755 B( 28-C , 31-H ) :   0.9743

Dispersion correction           -0.014258191
FINAL SINGLE POINT ENERGY     -1339.872346898281

DIPOLE MOMENT
-------------
                                X             Y             Z
Electronic contribution:      2.67631      17.88654      -5.80189
Nuclear contribution   :     -2.94178     -18.22524       6.09015
                        -----------------------------------------
Total Dipole Moment    :     -0.26547      -0.33871       0.28826
                        -----------------------------------------
Magnitude (a.u.)       :      0.51797
Magnitude (Debye)      :      1.31657

Rotational constants in cm-1:     0.019970     0.007952     0.006383
Rotational constants in MHz :   598.675759   238.402917   191.360039

                             ****ORCA TERMINATED NORMALLY****
TOTAL RUN TIME: 0 days 0 hours 0 minutes 21 seconds 188 msec
