                         Program Version 4.2.1 -  RELEASE  -
|  1> ! wB97X-D3 SP def2-SVP
|  2> %pal
|  3> nprocs 24
|  4> end
|  5>
|  6> * xyz 0 1
|  7> S 	 -141.664 	 7.09879 	 7.10721
|  8> C 	 -141.796 	 7.08787 	 5.36376
|  9> C 	 -142.011 	 8.35217 	 4.89366
| 10> C 	 -141.783 	 9.33077 	 5.87244
| 11> C 	 -141.808 	 8.86224 	 7.14421
| 12> H 	 -141.831 	 10.3351 	 5.57965
| 13> C 	 -142.384 	 8.58415 	 3.48588
| 14> H 	 -142.241 	 7.86935 	 2.76185
| 15> H 	 -141.968 	 9.5107 	 3.05497
| 16> C 	 -143.941 	 8.79752 	 3.34647
| 17> H 	 -144.539 	 7.99759 	 3.80215
| 18> H 	 -144.22 	 9.67045 	 3.929
| 19> C 	 -144.299 	 9.18179 	 1.93771
| 20> H 	 -143.494 	 9.68277 	 1.38161
| 21> H 	 -144.553 	 8.23046 	 1.38289
| 22> H 	 -145.279 	 9.66261 	 1.88431
| 23> S 	 -140.602 	 9.08179 	 9.53143
| 24> C 	 -140.69 	 10.4989 	 10.4618
| 25> C 	 -141.707 	 11.2541 	 10.041
| 26> C 	 -142.302 	 10.8521 	 8.79984
| 27> C 	 -141.811 	 9.6309 	 8.36862
| 28> H 	 -141.978 	 12.1623 	 10.6663
| 29> C 	 -143.419 	 11.56 	 8.12251
| 30> H 	 -144.153 	 11.8325 	 8.84432
| 31> H 	 -143.836 	 10.7684 	 7.46917
| 32> C 	 -143.078 	 12.8665 	 7.30342
| 33> H 	 -142.705 	 12.6805 	 6.30713
| 34> H 	 -142.213 	 13.2271 	 7.77395
| 35> C 	 -144.26 	 13.8358 	 7.27916
| 36> H 	 -143.831 	 14.7373 	 6.84042
| 37> H 	 -144.645 	 14.0012 	 8.33788
| 38> H 	 -145.056 	 13.4239 	 6.66342
| 39> H 	 -141.698 	 6.14125 	 4.75446
| 40> H 	 -140.126 	 10.5275 	 11.4598
| 41> *
| 42>
| 43>                          ****END OF INPUT****

CARTESIAN COORDINATES (ANGSTROEM)
---------------------------------
  S    -141.664000    7.098790    7.107210
  C    -141.796000    7.087870    5.363760
  C    -142.011000    8.352170    4.893660
  C    -141.783000    9.330770    5.872440
  C    -141.808000    8.862240    7.144210
  H    -141.831000   10.335100    5.579650
  C    -142.384000    8.584150    3.485880
  H    -142.241000    7.869350    2.761850
  H    -141.968000    9.510700    3.054970
  C    -143.941000    8.797520    3.346470
  H    -144.539000    7.997590    3.802150
  H    -144.220000    9.670450    3.929000
  C    -144.299000    9.181790    1.937710
  H    -143.494000    9.682770    1.381610
  H    -144.553000    8.230460    1.382890
  H    -145.279000    9.662610    1.884310
  S    -140.602000    9.081790    9.531430
  C    -140.690000   10.498900   10.461800
  C    -141.707000   11.254100   10.041000
  C    -142.302000   10.852100    8.799840
  C    -141.811000    9.630900    8.368620
  H    -141.978000   12.162300   10.666300
  C    -143.419000   11.560000    8.122510
  H    -144.153000   11.832500    8.844320
  H    -143.836000   10.768400    7.469170
  C    -143.078000   12.866500    7.303420
  H    -142.705000   12.680500    6.307130
  H    -142.213000   13.227100    7.773950
  C    -144.260000   13.835800    7.279160
  H    -143.831000   14.737300    6.840420
  H    -144.645000   14.001200    8.337880
  H    -145.056000   13.423900    6.663420
  H    -141.698000    6.141250    4.754460
  H    -140.126000   10.527500   11.459800

 Total Charge           Charge          ....    0
 Multiplicity           Mult            ....    1
 Number of Electrons    NEL             ....  134
 Basis Dimension        Dim             ....  322

ORBITAL ENERGIES
----------------

  NO   OCC          E(Eh)            E(eV)
   0   2.0000     -88.962850     -2420.8022
   1   2.0000     -88.955288     -2420.5965
   2   2.0000     -10.330139      -281.0974
   3   2.0000     -10.325520      -280.9717
   4   2.0000     -10.316446      -280.7248
   5   2.0000     -10.314409      -280.6693
   6   2.0000     -10.304559      -280.4013
   7   2.0000     -10.294888      -280.1381
   8   2.0000     -10.294774      -280.1350
   9   2.0000     -10.287456      -279.9359
  10   2.0000     -10.287228      -279.9297
  11   2.0000     -10.286787      -279.9177
  12   2.0000     -10.285559      -279.8843
  13   2.0000     -10.283816      -279.8369
  14   2.0000     -10.282480      -279.8005
  15   2.0000     -10.282063      -279.7892
  16   2.0000      -8.077628      -219.8034
  17   2.0000      -8.071844      -219.6460
  18   2.0000      -6.036228      -164.2541
  19   2.0000      -6.032234      -164.1454
  20   2.0000      -6.030202      -164.0901
  21   2.0000      -6.028192      -164.0354
  22   2.0000      -6.026088      -163.9782
  23   2.0000      -6.022614      -163.8837
  24   2.0000      -1.014569       -27.6078
  25   2.0000      -0.993233       -27.0272
  26   2.0000      -0.916689       -24.9444
  27   2.0000      -0.910279       -24.7699
  28   2.0000      -0.875371       -23.8200
  29   2.0000      -0.856629       -23.3101
  30   2.0000      -0.847987       -23.0749
  31   2.0000      -0.820007       -22.3135
  32   2.0000      -0.780910       -21.2496
  33   2.0000      -0.768683       -20.9169
  34   2.0000      -0.709435       -19.3047
  35   2.0000      -0.700128       -19.0514
  36   2.0000      -0.695025       -18.9126
  37   2.0000      -0.661871       -18.0104
  38   2.0000      -0.640410       -17.4264
  39   2.0000      -0.632593       -17.2137
  40   2.0000      -0.598613       -16.2891
  41   2.0000      -0.572963       -15.5911
  42   2.0000      -0.564278       -15.3548
  43   2.0000      -0.556042       -15.1307
  44   2.0000      -0.530102       -14.4248
  45   2.0000      -0.524989       -14.2857
  46   2.0000      -0.522148       -14.2084
  47   2.0000      -0.521180       -14.1820
  48   2.0000      -0.503567       -13.7028
  49   2.0000      -0.501983       -13.6596
  50   2.0000      -0.497839       -13.5469
  51   2.0000      -0.481053       -13.0901
  52   2.0000      -0.469212       -12.7679
  53   2.0000      -0.464469       -12.6388
  54   2.0000      -0.461734       -12.5644
  55   2.0000      -0.452356       -12.3092
  56   2.0000      -0.448226       -12.1968
  57   2.0000      -0.440951       -11.9989
  58   2.0000      -0.436089       -11.8666
  59   2.0000      -0.422735       -11.5032
  60   2.0000      -0.416680       -11.3384
  61   2.0000      -0.411859       -11.2073
  62   2.0000      -0.405072       -11.0226
  63   2.0000      -0.354089        -9.6352
  64   2.0000      -0.330661        -8.9978
  65   2.0000      -0.325227        -8.8499
  66   2.0000      -0.289949        -7.8899
  67   0.0000       0.027185         0.7397
  68   0.0000       0.079178         2.1545
  69   0.0000       0.109370         2.9761
  70   0.0000       0.121624         3.3095
  71   0.0000       0.129713         3.5297

MULLIKEN ATOMIC CHARGES
-----------------------
   0 S :    0.099097
   1 C :   -0.143297
   2 C :   -0.076106
   3 C :    0.069217
   4 C :   -0.111856
   5 H :   -0.024188
   6 C :    0.081258
   7 H :    0.000416
   8 H :    0.017117
   9 C :   -0.100160
  10 H :    0.035297
  11 H :    0.016310
  12 C :   -0.056827
  13 H :    0.042638
  14 H :    0.028300
  15 H :    0.036650
  16 S :    0.077049
  17 C :   -0.113543
  18 C :   -0.045384
  19 C :   -0.063146
  20 C :   -0.125421
  21 H :    0.038736
  22 C :    0.051886
  23 H :    0.015521
  24 H :    0.034724
  25 C :   -0.048274
  26 H :    0.020671
  27 H :    0.010247
  28 C :   -0.059051
  29 H :    0.040404
  30 H :    0.043795
  31 H :    0.043255
  32 H :    0.074502
  33 H :    0.090162
Sum of atomic charges:   -0.0000000

LOEWDIN ATOMIC CHARGES
----------------------
   0 S :    0.388285
   1 C :   -0.199352
   2 C :   -0.065935
   3 C :   -0.053387
   4 C :   -0.183203
   5 H :    0.022063
   6 C :   -0.023637
   7 H :    0.017344
   8 H :    0.030348
   9 C :   -0.041542
  10 H :    0.025827
  11 H :    0.016748
  12 C :   -0.075841
  13 H :    0.028151
  14 H :    0.030014
  15 H :    0.029503
  16 S :    0.409410
  17 C :   -0.205199
  18 C :   -0.089892
  19 C :   -0.058021
  20 C :   -0.187662
  21 H :    0.042273
  22 C :   -0.031794
  23 H :    0.026996
  24 H :    0.035422
  25 C :   -0.037683
  26 H :    0.019859
  27 H :    0.015052
  28 C :   -0.062996
  29 H :    0.029422
  30 H :    0.031551
  31 H :    0.026940
  32 H :    0.042438
  33 H :    0.048495

  Mayer bond orders larger than 0.100000
B(  0-S ,  1-C ) :   1.1258 B(  0-S ,  4-C ) :   1.1408 B(  1-C ,  2-C ) :   1.6048
B(  1-C , 32-H ) :   0.9630 B(  2-C ,  3-C ) :   1.2545 B(  2-C ,  6-C ) :   1.0486
B(  3-C ,  4-C ) :   1.5577 B(  3-C ,  5-H ) :   0.9992 B(  4-C , 20-C ) :   1.0369
B(  6-C ,  7-H ) :   0.9501 B(  6-C ,  8-H ) :   0.9358 B(  6-C ,  9-C ) :   1.0403
B(  9-C , 10-H ) :   0.9572 B(  9-C , 11-H ) :   0.9607 B(  9-C , 12-C ) :   1.0786
B( 12-C , 13-H ) :   0.9706 B( 12-C , 14-H ) :   0.9716 B( 12-C , 15-H ) :   0.9723
B( 16-S , 17-C ) :   1.1748 B( 16-S , 20-C ) :   1.1340 B( 17-C , 18-C ) :   1.6105
B( 17-C , 33-H ) :   0.9536 B( 18-C , 19-C ) :   1.2208 B( 18-C , 21-H ) :   0.9823
B( 19-C , 20-C ) :   1.6024 B( 19-C , 22-C ) :   1.0570 B( 22-C , 23-H ) :   0.9403
B( 22-C , 24-H ) :   0.9324 B( 22-C , 25-C ) :   1.0405 B( 25-C , 26-H ) :   0.9461
B( 25-C , 27-H ) :   0.9614 B( 25-C , 28-C ) :   1.0794 B( 28-C , 29-H ) :   0.9729
B( 28-C , 30-H ) :   0.9764 B( 28-C , 31-H ) :   0.9764

Dispersion correction           -0.013870107
FINAL SINGLE POINT ENERGY     -1339.859657387702

DIPOLE MOMENT
-------------
                                X             Y             Z
Electronic contribution:     17.03322     -18.09927      21.01151
Nuclear contribution   :    -17.37072      18.62544     -21.37067
                        -----------------------------------------
Total Dipole Moment    :     -0.33750       0.52617      -0.35916
                        -----------------------------------------
Magnitude (a.u.)       :      0.72095
Magnitude (Debye)      :      1.83250

Rotational constants in cm-1:     0.016791     0.009612     0.006369
Rotational constants in MHz :   503.390592   288.159871   190.933389

                             ****ORCA TERMINATED NORMALLY****
TOTAL RUN TIME: 0 days 0 hours 0 minutes 21 seconds 633 msec
