                         Program Version 4.2.1 -  RELEASE  -
|  1> ! wB97X-D3 SP def2-SVP
|  2> %pal
|  3> nprocs 24
|  4> end
|  5>
|  6> * xyz 0 1
|  7> S 	 -33.7534 	 6.42928 	 16.9911
|  8> C 	 -33.3073 	 7.94693 	 16.2602
|  9> C 	 -34.2434 	 8.25116 	 15.2924
| 10> C 	 -35.1987 	 7.22549 	 15.0408
| 11> C 	 -35.0046 	 6.09711 	 15.821
| 12> H 	 -36.0617 	 7.33411 	 14.4749
| 13> C 	 -34.3223 	 9.48591 	 14.416
| 14> H 	 -33.9617 	 10.3692 	 15.0007
| 15> H 	 -35.3756 	 9.68221 	 14.1416
| 16> C 	 -33.4203 	 9.41677 	 13.1668
| 17> H 	 -33.2295 	 10.384 	 12.6017
| 18> H 	 -32.3911 	 9.10054 	 13.4704
| 19> C 	 -33.9231 	 8.33351 	 12.1431
| 20> H 	 -34.8789 	 8.47684 	 11.703
| 21> H 	 -33.2807 	 8.39701 	 11.2212
| 22> H 	 -33.8668 	 7.36815 	 12.6037
| 23> S 	 -36.3626 	 4.56971 	 17.6021
| 24> C 	 -37.2756 	 3.19899 	 17.1049
| 25> C 	 -37.1093 	 3.02104 	 15.7911
| 26> C 	 -36.3652 	 3.99912 	 15.1204
| 27> C 	 -35.8979 	 4.97312 	 16.0067
| 28> H 	 -37.618 	 2.23557 	 15.3661
| 29> C 	 -36.0936 	 4.06317 	 13.6071
| 30> H 	 -35.9127 	 3.07604 	 13.0983
| 31> H 	 -35.1783 	 4.60233 	 13.565
| 32> C 	 -37.1931 	 4.83541 	 12.8385
| 33> H 	 -37.3366 	 5.7745 	 13.3855
| 34> H 	 -38.135 	 4.2971 	 12.7871
| 35> C 	 -36.6868 	 5.0969 	 11.383
| 36> H 	 -35.8185 	 5.65335 	 11.3812
| 37> H 	 -37.3894 	 5.4951 	 10.6998
| 38> H 	 -36.3792 	 4.19464 	 10.8187
| 39> H 	 -32.6552 	 8.63386 	 16.6971
| 40> H 	 -37.9598 	 2.59526 	 17.7876
| 41> *
| 42>
| 43>                          ****END OF INPUT****

CARTESIAN COORDINATES (ANGSTROEM)
---------------------------------
  S    -33.753400    6.429280   16.991100
  C    -33.307300    7.946930   16.260200
  C    -34.243400    8.251160   15.292400
  C    -35.198700    7.225490   15.040800
  C    -35.004600    6.097110   15.821000
  H    -36.061700    7.334110   14.474900
  C    -34.322300    9.485910   14.416000
  H    -33.961700   10.369200   15.000700
  H    -35.375600    9.682210   14.141600
  C    -33.420300    9.416770   13.166800
  H    -33.229500   10.384000   12.601700
  H    -32.391100    9.100540   13.470400
  C    -33.923100    8.333510   12.143100
  H    -34.878900    8.476840   11.703000
  H    -33.280700    8.397010   11.221200
  H    -33.866800    7.368150   12.603700
  S    -36.362600    4.569710   17.602100
  C    -37.275600    3.198990   17.104900
  C    -37.109300    3.021040   15.791100
  C    -36.365200    3.999120   15.120400
  C    -35.897900    4.973120   16.006700
  H    -37.618000    2.235570   15.366100
  C    -36.093600    4.063170   13.607100
  H    -35.912700    3.076040   13.098300
  H    -35.178300    4.602330   13.565000
  C    -37.193100    4.835410   12.838500
  H    -37.336600    5.774500   13.385500
  H    -38.135000    4.297100   12.787100
  C    -36.686800    5.096900   11.383000
  H    -35.818500    5.653350   11.381200
  H    -37.389400    5.495100   10.699800
  H    -36.379200    4.194640   10.818700
  H    -32.655200    8.633860   16.697100
  H    -37.959800    2.595260   17.787600

 Total Charge           Charge          ....    0
 Multiplicity           Mult            ....    1
 Number of Electrons    NEL             ....  134
 Basis Dimension        Dim             ....  322

ORBITAL ENERGIES
----------------

  NO   OCC          E(Eh)            E(eV)
   0   2.0000     -88.966605     -2420.9044
   1   2.0000     -88.962647     -2420.7967
   2   2.0000     -10.331220      -281.1268
   3   2.0000     -10.323787      -280.9245
   4   2.0000     -10.315123      -280.6888
   5   2.0000     -10.313172      -280.6357
   6   2.0000     -10.302342      -280.3410
   7   2.0000     -10.301489      -280.3178
   8   2.0000     -10.297194      -280.2009
   9   2.0000     -10.296880      -280.1924
  10   2.0000     -10.292552      -280.0746
  11   2.0000     -10.290809      -280.0271
  12   2.0000     -10.290386      -280.0156
  13   2.0000     -10.280402      -279.7440
  14   2.0000     -10.274736      -279.5898
  15   2.0000     -10.270446      -279.4731
  16   2.0000      -8.081625      -219.9122
  17   2.0000      -8.078890      -219.8378
  18   2.0000      -6.040119      -164.3600
  19   2.0000      -6.037231      -164.2814
  20   2.0000      -6.036027      -164.2486
  21   2.0000      -6.033066      -164.1681
  22   2.0000      -6.032423      -164.1506
  23   2.0000      -6.029830      -164.0800
  24   2.0000      -1.018126       -27.7046
  25   2.0000      -0.993520       -27.0350
  26   2.0000      -0.908918       -24.7329
  27   2.0000      -0.906863       -24.6770
  28   2.0000      -0.874990       -23.8097
  29   2.0000      -0.851239       -23.1634
  30   2.0000      -0.842864       -22.9355
  31   2.0000      -0.820747       -22.3337
  32   2.0000      -0.782132       -21.2829
  33   2.0000      -0.772923       -21.0323
  34   2.0000      -0.710369       -19.3301
  35   2.0000      -0.702249       -19.1092
  36   2.0000      -0.697278       -18.9739
  37   2.0000      -0.664713       -18.0878
  38   2.0000      -0.648538       -17.6476
  39   2.0000      -0.620194       -16.8763
  40   2.0000      -0.596892       -16.2423
  41   2.0000      -0.574112       -15.6224
  42   2.0000      -0.566363       -15.4115
  43   2.0000      -0.548955       -14.9378
  44   2.0000      -0.538875       -14.6635
  45   2.0000      -0.527678       -14.3588
  46   2.0000      -0.516833       -14.0637
  47   2.0000      -0.515265       -14.0211
  48   2.0000      -0.506778       -13.7901
  49   2.0000      -0.501860       -13.6563
  50   2.0000      -0.488445       -13.2913
  51   2.0000      -0.485331       -13.2065
  52   2.0000      -0.471844       -12.8395
  53   2.0000      -0.468390       -12.7455
  54   2.0000      -0.460779       -12.5384
  55   2.0000      -0.447676       -12.1819
  56   2.0000      -0.443039       -12.0557
  57   2.0000      -0.440303       -11.9813
  58   2.0000      -0.431680       -11.7466
  59   2.0000      -0.425317       -11.5735
  60   2.0000      -0.420154       -11.4330
  61   2.0000      -0.415468       -11.3054
  62   2.0000      -0.410405       -11.1677
  63   2.0000      -0.355253        -9.6669
  64   2.0000      -0.332302        -9.0424
  65   2.0000      -0.329960        -8.9787
  66   2.0000      -0.294150        -8.0042
  67   0.0000       0.027107         0.7376
  68   0.0000       0.070712         1.9242
  69   0.0000       0.111615         3.0372
  70   0.0000       0.128412         3.4943
  71   0.0000       0.132545         3.6067

MULLIKEN ATOMIC CHARGES
-----------------------
   0 S :    0.100978
   1 C :   -0.087063
   2 C :   -0.097069
   3 C :    0.037563
   4 C :   -0.124457
   5 H :   -0.010247
   6 C :    0.058692
   7 H :    0.028430
   8 H :    0.033574
   9 C :   -0.083317
  10 H :    0.041597
  11 H :    0.031271
  12 C :   -0.081978
  13 H :    0.022538
  14 H :    0.032392
  15 H :    0.054442
  16 S :    0.105091
  17 C :   -0.114823
  18 C :   -0.000808
  19 C :   -0.022936
  20 C :   -0.167790
  21 H :   -0.021500
  22 C :    0.055499
  23 H :    0.033914
  24 H :    0.020496
  25 C :   -0.054977
  26 H :    0.027279
  27 H :    0.032975
  28 C :   -0.015237
  29 H :    0.009010
  30 H :    0.024486
  31 H :    0.016115
  32 H :    0.034187
  33 H :    0.081675
Sum of atomic charges:   -0.0000000

LOEWDIN ATOMIC CHARGES
----------------------
   0 S :    0.416132
   1 C :   -0.191361
   2 C :   -0.059717
   3 C :   -0.057075
   4 C :   -0.190364
   5 H :    0.018958
   6 C :   -0.036758
   7 H :    0.032907
   8 H :    0.031732
   9 C :   -0.043414
  10 H :    0.028687
  11 H :    0.027607
  12 C :   -0.072580
  13 H :    0.015857
  14 H :    0.031959
  15 H :    0.021903
  16 S :    0.431401
  17 C :   -0.200556
  18 C :   -0.071338
  19 C :   -0.054496
  20 C :   -0.213895
  21 H :    0.019002
  22 C :   -0.028408
  23 H :    0.034783
  24 H :    0.025264
  25 C :   -0.029713
  26 H :    0.021740
  27 H :    0.023827
  28 C :   -0.064752
  29 H :    0.014464
  30 H :    0.020558
  31 H :    0.029268
  32 H :    0.020004
  33 H :    0.048376

  Mayer bond orders larger than 0.100000
B(  0-S ,  1-C ) :   1.1398 B(  0-S ,  4-C ) :   1.1639 B(  1-C ,  2-C ) :   1.5914
B(  1-C , 32-H ) :   0.9773 B(  2-C ,  3-C ) :   1.2631 B(  2-C ,  6-C ) :   1.0285
B(  3-C ,  4-C ) :   1.5342 B(  3-C ,  5-H ) :   1.0020 B(  4-C , 20-C ) :   1.0491
B(  6-C ,  7-H ) :   0.9373 B(  6-C ,  8-H ) :   0.9479 B(  6-C ,  9-C ) :   1.0606
B(  9-C , 10-H ) :   0.9606 B(  9-C , 11-H ) :   0.9547 B(  9-C , 12-C ) :   1.0727
B( 12-C , 13-H ) :   0.9765 B( 12-C , 14-H ) :   0.9723 B( 12-C , 15-H ) :   0.9731
B( 16-S , 17-C ) :   1.1598 B( 16-S , 20-C ) :   1.1659 B( 17-C , 18-C ) :   1.5879
B( 17-C , 33-H ) :   0.9593 B( 18-C , 19-C ) :   1.2678 B( 18-C , 21-H ) :   1.0121
B( 19-C , 20-C ) :   1.5508 B( 19-C , 22-C ) :   1.0360 B( 22-C , 23-H ) :   0.9415
B( 22-C , 24-H ) :   0.9298 B( 22-C , 25-C ) :   1.0620 B( 25-C , 26-H ) :   0.9540
B( 25-C , 27-H ) :   0.9573 B( 25-C , 28-C ) :   1.0748 B( 28-C , 29-H ) :   0.9757
B( 28-C , 30-H ) :   0.9743 B( 28-C , 31-H ) :   0.9683

Dispersion correction           -0.015616787
FINAL SINGLE POINT ENERGY     -1339.876769415358

DIPOLE MOMENT
-------------
                                X             Y             Z
Electronic contribution:      1.07325      -8.87596      30.11840
Nuclear contribution   :     -1.33647       9.03297     -30.59331
                        -----------------------------------------
Total Dipole Moment    :     -0.26322       0.15701      -0.47491
                        -----------------------------------------
Magnitude (a.u.)       :      0.56522
Magnitude (Debye)      :      1.43667

Rotational constants in cm-1:     0.017975     0.010782     0.007163
Rotational constants in MHz :   538.888628   323.226630   214.743634

                             ****ORCA TERMINATED NORMALLY****
TOTAL RUN TIME: 0 days 0 hours 0 minutes 22 seconds 860 msec
