                         Program Version 4.2.1 -  RELEASE  -
|  1> ! wB97X-D3 SP def2-SVP
|  2> %pal
|  3> nprocs 24
|  4> end
|  5>
|  6> * xyz 0 1
|  7> S 	 -141.195 	 7.32346 	 2.67145
|  8> C 	 -140.698 	 6.17577 	 1.47228
|  9> C 	 -139.663 	 5.38546 	 1.88261
| 10> C 	 -139.14 	 5.87747 	 3.17984
| 11> C 	 -139.834 	 6.93223 	 3.725
| 12> H 	 -138.225 	 5.54154 	 3.70239
| 13> C 	 -138.903 	 4.34065 	 1.08395
| 14> H 	 -138.818 	 4.72208 	 0.0870776
| 15> H 	 -139.364 	 3.40048 	 0.947627
| 16> C 	 -137.44 	 4.16393 	 1.52044
| 17> H 	 -136.983 	 5.18337 	 1.63739
| 18> H 	 -137.314 	 3.72509 	 2.5241
| 19> C 	 -136.582 	 3.24062 	 0.691385
| 20> H 	 -136.071 	 3.70013 	 -0.156013
| 21> H 	 -135.785 	 2.8546 	 1.28069
| 22> H 	 -137.151 	 2.45031 	 0.268132
| 23> S 	 -139.515 	 9.3052 	 5.01908
| 24> C 	 -138.885 	 9.37291 	 6.69439
| 25> C 	 -138.741 	 8.0758 	 7.22799
| 26> C 	 -139.033 	 7.0856 	 6.21374
| 27> C 	 -139.47 	 7.62382 	 4.99181
| 28> H 	 -138.516 	 7.90079 	 8.26283
| 29> C 	 -138.947 	 5.62791 	 6.47766
| 30> H 	 -137.895 	 5.30721 	 6.4506
| 31> H 	 -139.456 	 5.06577 	 5.70758
| 32> C 	 -139.74 	 5.07914 	 7.72792
| 33> H 	 -139.247 	 5.58062 	 8.57615
| 34> H 	 -139.702 	 3.9331 	 7.80414
| 35> C 	 -141.205 	 5.44739 	 7.78507
| 36> H 	 -141.326 	 6.49461 	 7.64585
| 37> H 	 -141.546 	 5.36447 	 8.82756
| 38> H 	 -141.897 	 4.82283 	 7.07896
| 39> H 	 -141.161 	 6.1239 	 0.489175
| 40> H 	 -138.693 	 10.2337 	 7.36701
| 41> *
| 42>
| 43>                          ****END OF INPUT****

CARTESIAN COORDINATES (ANGSTROEM)
---------------------------------
  S    -141.195000    7.323460    2.671450
  C    -140.698000    6.175770    1.472280
  C    -139.663000    5.385460    1.882610
  C    -139.140000    5.877470    3.179840
  C    -139.834000    6.932230    3.725000
  H    -138.225000    5.541540    3.702390
  C    -138.903000    4.340650    1.083950
  H    -138.818000    4.722080    0.087078
  H    -139.364000    3.400480    0.947627
  C    -137.440000    4.163930    1.520440
  H    -136.983000    5.183370    1.637390
  H    -137.314000    3.725090    2.524100
  C    -136.582000    3.240620    0.691385
  H    -136.071000    3.700130   -0.156013
  H    -135.785000    2.854600    1.280690
  H    -137.151000    2.450310    0.268132
  S    -139.515000    9.305200    5.019080
  C    -138.885000    9.372910    6.694390
  C    -138.741000    8.075800    7.227990
  C    -139.033000    7.085600    6.213740
  C    -139.470000    7.623820    4.991810
  H    -138.516000    7.900790    8.262830
  C    -138.947000    5.627910    6.477660
  H    -137.895000    5.307210    6.450600
  H    -139.456000    5.065770    5.707580
  C    -139.740000    5.079140    7.727920
  H    -139.247000    5.580620    8.576150
  H    -139.702000    3.933100    7.804140
  C    -141.205000    5.447390    7.785070
  H    -141.326000    6.494610    7.645850
  H    -141.546000    5.364470    8.827560
  H    -141.897000    4.822830    7.078960
  H    -141.161000    6.123900    0.489175
  H    -138.693000   10.233700    7.367010

 Total Charge           Charge          ....    0
 Multiplicity           Mult            ....    1
 Number of Electrons    NEL             ....  134
 Basis Dimension        Dim             ....  322

ORBITAL ENERGIES
----------------

  NO   OCC          E(Eh)            E(eV)
   0   2.0000     -88.970657     -2421.0147
   1   2.0000     -88.965575     -2420.8764
   2   2.0000     -10.331433      -281.1326
   3   2.0000     -10.327958      -281.0380
   4   2.0000     -10.326193      -280.9900
   5   2.0000     -10.314611      -280.6748
   6   2.0000     -10.306822      -280.4629
   7   2.0000     -10.304108      -280.3890
   8   2.0000     -10.300809      -280.2993
   9   2.0000     -10.296843      -280.1913
  10   2.0000     -10.292668      -280.0777
  11   2.0000     -10.290564      -280.0205
  12   2.0000     -10.288701      -279.9698
  13   2.0000     -10.285063      -279.8708
  14   2.0000     -10.276566      -279.6396
  15   2.0000     -10.271939      -279.5137
  16   2.0000      -8.085551      -220.0190
  17   2.0000      -8.080416      -219.8793
  18   2.0000      -6.044089      -164.4680
  19   2.0000      -6.039920      -164.3546
  20   2.0000      -6.039063      -164.3312
  21   2.0000      -6.036376      -164.2581
  22   2.0000      -6.034956      -164.2195
  23   2.0000      -6.030977      -164.1112
  24   2.0000      -1.006539       -27.3893
  25   2.0000      -0.983838       -26.7716
  26   2.0000      -0.913998       -24.8712
  27   2.0000      -0.905635       -24.6436
  28   2.0000      -0.871384       -23.7116
  29   2.0000      -0.848841       -23.0981
  30   2.0000      -0.845742       -23.0138
  31   2.0000      -0.817137       -22.2354
  32   2.0000      -0.784321       -21.3425
  33   2.0000      -0.769480       -20.9386
  34   2.0000      -0.709082       -19.2951
  35   2.0000      -0.689882       -18.7726
  36   2.0000      -0.687118       -18.6974
  37   2.0000      -0.657691       -17.8967
  38   2.0000      -0.642745       -17.4900
  39   2.0000      -0.618434       -16.8284
  40   2.0000      -0.592137       -16.1129
  41   2.0000      -0.573317       -15.6007
  42   2.0000      -0.566259       -15.4087
  43   2.0000      -0.552745       -15.0410
  44   2.0000      -0.542524       -14.7628
  45   2.0000      -0.530096       -14.4247
  46   2.0000      -0.514556       -14.0018
  47   2.0000      -0.508330       -13.8324
  48   2.0000      -0.502369       -13.6701
  49   2.0000      -0.500442       -13.6177
  50   2.0000      -0.485873       -13.2213
  51   2.0000      -0.480697       -13.0804
  52   2.0000      -0.470416       -12.8007
  53   2.0000      -0.463105       -12.6017
  54   2.0000      -0.460419       -12.5286
  55   2.0000      -0.453896       -12.3511
  56   2.0000      -0.444156       -12.0861
  57   2.0000      -0.440670       -11.9912
  58   2.0000      -0.431306       -11.7364
  59   2.0000      -0.423118       -11.5136
  60   2.0000      -0.419921       -11.4266
  61   2.0000      -0.411448       -11.1961
  62   2.0000      -0.395949       -10.7743
  63   2.0000      -0.353330        -9.6146
  64   2.0000      -0.330367        -8.9897
  65   2.0000      -0.327133        -8.9017
  66   2.0000      -0.292636        -7.9630
  67   0.0000       0.029789         0.8106
  68   0.0000       0.076486         2.0813
  69   0.0000       0.112809         3.0697
  70   0.0000       0.120305         3.2737
  71   0.0000       0.126551         3.4436

MULLIKEN ATOMIC CHARGES
-----------------------
   0 S :    0.108311
   1 C :   -0.135672
   2 C :   -0.068573
   3 C :   -0.018414
   4 C :   -0.118026
   5 H :    0.030417
   6 C :    0.122037
   7 H :    0.019391
   8 H :    0.026512
   9 C :   -0.165931
  10 H :    0.042564
  11 H :    0.033782
  12 C :    0.009467
  13 H :    0.024788
  14 H :    0.022142
  15 H :    0.016949
  16 S :    0.121842
  17 C :   -0.110123
  18 C :   -0.035827
  19 C :   -0.061701
  20 C :   -0.147092
  21 H :    0.024253
  22 C :    0.052045
  23 H :    0.045735
  24 H :    0.024853
  25 C :   -0.110122
  26 H :    0.023278
  27 H :    0.048527
  28 C :   -0.058620
  29 H :    0.029323
  30 H :    0.028667
  31 H :    0.053332
  32 H :    0.053460
  33 H :    0.068428
Sum of atomic charges:    0.0000000

LOEWDIN ATOMIC CHARGES
----------------------
   0 S :    0.396197
   1 C :   -0.196661
   2 C :   -0.060161
   3 C :   -0.064729
   4 C :   -0.193012
   5 H :    0.036013
   6 C :   -0.028938
   7 H :    0.033583
   8 H :    0.026083
   9 C :   -0.050836
  10 H :    0.030844
  11 H :    0.023216
  12 C :   -0.060536
  13 H :    0.025054
  14 H :    0.025365
  15 H :    0.021168
  16 S :    0.431242
  17 C :   -0.188171
  18 C :   -0.064470
  19 C :   -0.061326
  20 C :   -0.218672
  21 H :    0.031174
  22 C :   -0.044926
  23 H :    0.033515
  24 H :    0.028695
  25 C :   -0.044845
  26 H :    0.017503
  27 H :    0.034831
  28 C :   -0.075444
  29 H :    0.020588
  30 H :    0.029694
  31 H :    0.036974
  32 H :    0.031815
  33 H :    0.039172

  Mayer bond orders larger than 0.100000
B(  0-S ,  1-C ) :   1.1362 B(  0-S ,  4-C ) :   1.1299 B(  1-C ,  2-C ) :   1.6419
B(  1-C , 32-H ) :   0.9687 B(  2-C ,  3-C ) :   1.2138 B(  2-C ,  6-C ) :   1.0124
B(  3-C ,  4-C ) :   1.5969 B(  3-C ,  5-H ) :   0.9844 B(  4-C , 20-C ) :   1.0245
B(  6-C ,  7-H ) :   0.9404 B(  6-C ,  8-H ) :   0.9260 B(  6-C ,  9-C ) :   1.0880
B(  9-C , 10-H ) :   0.9531 B(  9-C , 11-H ) :   0.9512 B(  9-C , 12-C ) :   1.0776
B( 12-C , 13-H ) :   0.9714 B( 12-C , 14-H ) :   0.9748 B( 12-C , 15-H ) :   0.9715
B( 16-S , 17-C ) :   1.1558 B( 16-S , 20-C ) :   1.1563 B( 17-C , 18-C ) :   1.5990
B( 17-C , 33-H ) :   0.9628 B( 18-C , 19-C ) :   1.2466 B( 18-C , 21-H ) :   0.9901
B( 19-C , 20-C ) :   1.5684 B( 19-C , 22-C ) :   1.0532 B( 22-C , 23-H ) :   0.9330
B( 22-C , 24-H ) :   0.9327 B( 22-C , 25-C ) :   1.0499 B( 25-C , 26-H ) :   0.9556
B( 25-C , 27-H ) :   0.9591 B( 25-C , 28-C ) :   1.0859 B( 28-C , 29-H ) :   0.9679
B( 28-C , 30-H ) :   0.9699 B( 28-C , 31-H ) :   0.9725

Dispersion correction           -0.014247547
FINAL SINGLE POINT ENERGY     -1339.871376264304

DIPOLE MOMENT
-------------
                                X             Y             Z
Electronic contribution:     -9.86949      23.53596      -2.50742
Nuclear contribution   :     10.23933     -24.02765       2.56174
                        -----------------------------------------
Total Dipole Moment    :      0.36984      -0.49169       0.05432
                        -----------------------------------------
Magnitude (a.u.)       :      0.61765
Magnitude (Debye)      :      1.56993

Rotational constants in cm-1:     0.018288     0.008304     0.007195
Rotational constants in MHz :   548.269832   248.946208   215.709295

                             ****ORCA TERMINATED NORMALLY****
TOTAL RUN TIME: 0 days 0 hours 0 minutes 21 seconds 866 msec
