                         Program Version 4.2.1 -  RELEASE  -
|  1> ! wB97X-D3 SP def2-SVP
|  2> %pal
|  3> nprocs 24
|  4> end
|  5>
|  6> * xyz 0 1
|  7> S 	 34.5444 	 -1.26412 	 -119.287
|  8> C 	 33.096 	 -0.645853 	 -118.553
|  9> C 	 32.0127 	 -1.50413 	 -118.65
| 10> C 	 32.3647 	 -2.72165 	 -119.353
| 11> C 	 33.6694 	 -2.74459 	 -119.737
| 12> H 	 31.821 	 -3.60026 	 -119.558
| 13> C 	 30.7033 	 -1.34913 	 -117.943
| 14> H 	 30.8421 	 -0.63353 	 -117.169
| 15> H 	 30.5947 	 -2.27383 	 -117.356
| 16> C 	 29.3491 	 -0.990792 	 -118.679
| 17> H 	 29.5059 	 -0.395045 	 -119.518
| 18> H 	 28.9429 	 -1.96254 	 -118.999
| 19> C 	 28.3387 	 -0.254759 	 -117.747
| 20> H 	 28.1427 	 -1.01048 	 -116.974
| 21> H 	 28.7084 	 0.666302 	 -117.275
| 22> H 	 27.5066 	 0.0887427 	 -118.331
| 23> S 	 35.6229 	 -3.47206 	 -121.526
| 24> C 	 35.8449 	 -5.17297 	 -121.81
| 25> C 	 35.2064 	 -6.00854 	 -120.88
| 26> C 	 34.5144 	 -5.1888 	 -119.896
| 27> C 	 34.4984 	 -3.85746 	 -120.294
| 28> H 	 35.3034 	 -7.08669 	 -120.939
| 29> C 	 33.848 	 -5.76652 	 -118.684
| 30> H 	 33.8939 	 -6.8164 	 -118.695
| 31> H 	 32.7795 	 -5.57897 	 -118.917
| 32> C 	 34.2756 	 -5.20444 	 -117.337
| 33> H 	 34.097 	 -4.1428 	 -117.173
| 34> H 	 35.3308 	 -5.25086 	 -117.367
| 35> C 	 33.649 	 -5.85244 	 -116.133
| 36> H 	 34.0125 	 -6.89877 	 -116.004
| 37> H 	 32.6217 	 -5.71235 	 -115.979
| 38> H 	 34.0968 	 -5.32766 	 -115.298
| 39> H 	 33.1945 	 0.0394012 	 -117.777
| 40> H 	 36.4122 	 -5.48403 	 -122.609
| 41> *
| 42>
| 43>                          ****END OF INPUT****

CARTESIAN COORDINATES (ANGSTROEM)
---------------------------------
  S     34.544400   -1.264120  -119.287000
  C     33.096000   -0.645853  -118.553000
  C     32.012700   -1.504130  -118.650000
  C     32.364700   -2.721650  -119.353000
  C     33.669400   -2.744590  -119.737000
  H     31.821000   -3.600260  -119.558000
  C     30.703300   -1.349130  -117.943000
  H     30.842100   -0.633530  -117.169000
  H     30.594700   -2.273830  -117.356000
  C     29.349100   -0.990792  -118.679000
  H     29.505900   -0.395045  -119.518000
  H     28.942900   -1.962540  -118.999000
  C     28.338700   -0.254759  -117.747000
  H     28.142700   -1.010480  -116.974000
  H     28.708400    0.666302  -117.275000
  H     27.506600    0.088743  -118.331000
  S     35.622900   -3.472060  -121.526000
  C     35.844900   -5.172970  -121.810000
  C     35.206400   -6.008540  -120.880000
  C     34.514400   -5.188800  -119.896000
  C     34.498400   -3.857460  -120.294000
  H     35.303400   -7.086690  -120.939000
  C     33.848000   -5.766520  -118.684000
  H     33.893900   -6.816400  -118.695000
  H     32.779500   -5.578970  -118.917000
  C     34.275600   -5.204440  -117.337000
  H     34.097000   -4.142800  -117.173000
  H     35.330800   -5.250860  -117.367000
  C     33.649000   -5.852440  -116.133000
  H     34.012500   -6.898770  -116.004000
  H     32.621700   -5.712350  -115.979000
  H     34.096800   -5.327660  -115.298000
  H     33.194500    0.039401  -117.777000
  H     36.412200   -5.484030  -122.609000

 Total Charge           Charge          ....    0
 Multiplicity           Mult            ....    1
 Number of Electrons    NEL             ....  134
 Basis Dimension        Dim             ....  322

ORBITAL ENERGIES
----------------

  NO   OCC          E(Eh)            E(eV)
   0   2.0000     -88.966032     -2420.8888
   1   2.0000     -88.960926     -2420.7499
   2   2.0000     -10.328887      -281.0633
   3   2.0000     -10.322017      -280.8764
   4   2.0000     -10.311699      -280.5956
   5   2.0000     -10.306673      -280.4588
   6   2.0000     -10.305487      -280.4266
   7   2.0000     -10.303894      -280.3832
   8   2.0000     -10.299509      -280.2639
   9   2.0000     -10.290692      -280.0240
  10   2.0000     -10.290242      -280.0117
  11   2.0000     -10.288156      -279.9550
  12   2.0000     -10.285863      -279.8926
  13   2.0000     -10.282051      -279.7888
  14   2.0000     -10.277005      -279.6515
  15   2.0000     -10.272654      -279.5331
  16   2.0000      -8.081879      -219.9191
  17   2.0000      -8.076040      -219.7602
  18   2.0000      -6.040092      -164.3593
  19   2.0000      -6.036487      -164.2612
  20   2.0000      -6.034455      -164.2059
  21   2.0000      -6.032637      -164.1564
  22   2.0000      -6.030635      -164.1019
  23   2.0000      -6.026752      -163.9963
  24   2.0000      -1.006669       -27.3929
  25   2.0000      -0.983226       -26.7549
  26   2.0000      -0.914175       -24.8760
  27   2.0000      -0.905286       -24.6341
  28   2.0000      -0.865011       -23.5381
  29   2.0000      -0.858689       -23.3661
  30   2.0000      -0.848965       -23.1015
  31   2.0000      -0.818536       -22.2735
  32   2.0000      -0.784903       -21.3583
  33   2.0000      -0.769524       -20.9398
  34   2.0000      -0.709081       -19.2951
  35   2.0000      -0.703939       -19.1552
  36   2.0000      -0.688997       -18.7486
  37   2.0000      -0.667841       -18.1729
  38   2.0000      -0.649975       -17.6867
  39   2.0000      -0.617881       -16.8134
  40   2.0000      -0.595950       -16.2166
  41   2.0000      -0.573176       -15.5969
  42   2.0000      -0.568324       -15.4649
  43   2.0000      -0.550675       -14.9846
  44   2.0000      -0.532453       -14.4888
  45   2.0000      -0.526723       -14.3329
  46   2.0000      -0.516496       -14.0546
  47   2.0000      -0.514896       -14.0110
  48   2.0000      -0.507028       -13.7969
  49   2.0000      -0.503670       -13.7056
  50   2.0000      -0.487175       -13.2567
  51   2.0000      -0.483589       -13.1591
  52   2.0000      -0.479722       -13.0539
  53   2.0000      -0.464491       -12.6394
  54   2.0000      -0.456157       -12.4127
  55   2.0000      -0.451539       -12.2870
  56   2.0000      -0.442037       -12.0284
  57   2.0000      -0.435918       -11.8619
  58   2.0000      -0.434953       -11.8357
  59   2.0000      -0.427351       -11.6288
  60   2.0000      -0.423308       -11.5188
  61   2.0000      -0.416048       -11.3212
  62   2.0000      -0.411750       -11.2043
  63   2.0000      -0.347346        -9.4518
  64   2.0000      -0.332125        -9.0376
  65   2.0000      -0.326185        -8.8760
  66   2.0000      -0.285044        -7.7564
  67   0.0000       0.032309         0.8792
  68   0.0000       0.065010         1.7690
  69   0.0000       0.100055         2.7226
  70   0.0000       0.114294         3.1101
  71   0.0000       0.134237         3.6528

MULLIKEN ATOMIC CHARGES
-----------------------
   0 S :    0.077381
   1 C :   -0.078236
   2 C :   -0.096433
   3 C :    0.036290
   4 C :   -0.130075
   5 H :   -0.005484
   6 C :    0.052206
   7 H :   -0.004691
   8 H :    0.027257
   9 C :   -0.037323
  10 H :    0.022654
  11 H :    0.033317
  12 C :   -0.068367
  13 H :    0.039715
  14 H :    0.036081
  15 H :    0.038060
  16 S :    0.119283
  17 C :   -0.069010
  18 C :   -0.026785
  19 C :   -0.072168
  20 C :   -0.156245
  21 H :    0.024342
  22 C :    0.121043
  23 H :   -0.007678
  24 H :    0.016734
  25 C :   -0.067999
  26 H :    0.034683
  27 H :    0.018437
  28 C :   -0.015807
  29 H :    0.031210
  30 H :    0.026911
  31 H :    0.018363
  32 H :    0.036873
  33 H :    0.025463
Sum of atomic charges:   -0.0000000

LOEWDIN ATOMIC CHARGES
----------------------
   0 S :    0.381179
   1 C :   -0.195232
   2 C :   -0.052514
   3 C :   -0.062293
   4 C :   -0.166765
   5 H :    0.026337
   6 C :   -0.037953
   7 H :    0.021835
   8 H :    0.034561
   9 C :   -0.027733
  10 H :    0.014397
  11 H :    0.026261
  12 C :   -0.063951
  13 H :    0.028743
  14 H :    0.025903
  15 H :    0.026101
  16 S :    0.424580
  17 C :   -0.173689
  18 C :   -0.063948
  19 C :   -0.053326
  20 C :   -0.217969
  21 H :    0.033843
  22 C :   -0.033925
  23 H :    0.022043
  24 H :    0.033501
  25 C :   -0.039747
  26 H :    0.029790
  27 H :    0.022579
  28 C :   -0.060801
  29 H :    0.027839
  30 H :    0.018824
  31 H :    0.030070
  32 H :    0.014420
  33 H :    0.007040

  Mayer bond orders larger than 0.100000
B(  0-S ,  1-C ) :   1.1271 B(  0-S ,  4-C ) :   1.1412 B(  1-C ,  2-C ) :   1.6492
B(  1-C , 32-H ) :   0.9644 B(  2-C ,  3-C ) :   1.1786 B(  2-C ,  6-C ) :   1.0381
B(  3-C ,  4-C ) :   1.6452 B(  3-C ,  5-H ) :   1.0056 B(  4-C , 20-C ) :   0.9979
B(  6-C ,  7-H ) :   0.9417 B(  6-C ,  8-H ) :   0.9362 B(  6-C ,  9-C ) :   1.0355
B(  9-C , 10-H ) :   0.9638 B(  9-C , 11-H ) :   0.9582 B(  9-C , 12-C ) :   1.0812
B( 12-C , 13-H ) :   0.9797 B( 12-C , 14-H ) :   0.9760 B( 12-C , 15-H ) :   0.9754
B( 16-S , 17-C ) :   1.1624 B( 16-S , 20-C ) :   1.1517 B( 17-C , 18-C ) :   1.6017
B( 17-C , 33-H ) :   0.9799 B( 18-C , 19-C ) :   1.2232 B( 18-C , 21-H ) :   0.9940
B( 19-C , 20-C ) :   1.5878 B( 19-C , 22-C ) :   1.0461 B( 22-C , 23-H ) :   0.9254
B( 22-C , 24-H ) :   0.9218 B( 22-C , 25-C ) :   1.0560 B( 25-C , 26-H ) :   0.9507
B( 25-C , 27-H ) :   0.9529 B( 25-C , 28-C ) :   1.1019 B( 28-C , 29-H ) :   0.9707
B( 28-C , 30-H ) :   0.9735 B( 28-C , 31-H ) :   0.9689

Dispersion correction           -0.014400151
FINAL SINGLE POINT ENERGY     -1339.857120292595

DIPOLE MOMENT
-------------
                                X             Y             Z
Electronic contribution:     22.28583       4.53174     -19.40548
Nuclear contribution   :    -22.68668      -4.93567      19.87780
                        -----------------------------------------
Total Dipole Moment    :     -0.40085      -0.40393       0.47232
                        -----------------------------------------
Magnitude (a.u.)       :      0.73954
Magnitude (Debye)      :      1.87977

Rotational constants in cm-1:     0.019531     0.008110     0.006746
Rotational constants in MHz :   585.511439   243.134277   202.242690

                             ****ORCA TERMINATED NORMALLY****
TOTAL RUN TIME: 0 days 0 hours 0 minutes 21 seconds 768 msec
