                         Program Version 4.2.1 -  RELEASE  -
|  1> ! wB97X-D3 SP def2-SVP
|  2> %pal
|  3> nprocs 24
|  4> end
|  5>
|  6> * xyz 0 1
|  7> S 	 28.219 	 -9.05541 	 -119.621
|  8> C 	 29.6511 	 -8.53984 	 -120.575
|  9> C 	 30.3428 	 -7.57839 	 -119.899
| 10> C 	 29.8092 	 -7.25324 	 -118.612
| 11> C 	 28.7413 	 -8.046 	 -118.281
| 12> H 	 30.3408 	 -6.55814 	 -117.899
| 13> C 	 31.4641 	 -6.75703 	 -120.518
| 14> H 	 31.2841 	 -5.73136 	 -120.62
| 15> H 	 31.7204 	 -7.12044 	 -121.515
| 16> C 	 32.8434 	 -6.89921 	 -119.774
| 17> H 	 33.5904 	 -6.15102 	 -120.002
| 18> H 	 32.6224 	 -6.6885 	 -118.748
| 19> C 	 33.4638 	 -8.27433 	 -119.881
| 20> H 	 34.2938 	 -8.42919 	 -119.215
| 21> H 	 32.6929 	 -9.05489 	 -119.689
| 22> H 	 33.9371 	 -8.36082 	 -120.84
| 23> S 	 26.2469 	 -7.56645 	 -117.204
| 24> C 	 26.1776 	 -7.15943 	 -115.549
| 25> C 	 27.3765 	 -7.34327 	 -114.92
| 26> C 	 28.4174 	 -7.83832 	 -115.704
| 27> C 	 28.0139 	 -7.95161 	 -117.04
| 28> H 	 27.5146 	 -7.04583 	 -113.902
| 29> C 	 29.8527 	 -8.05229 	 -115.266
| 30> H 	 30.0687 	 -7.13584 	 -114.621
| 31> H 	 30.6282 	 -7.98995 	 -116.046
| 32> C 	 30.1118 	 -9.22723 	 -114.352
| 33> H 	 29.7025 	 -10.1521 	 -114.91
| 34> H 	 29.5103 	 -9.12156 	 -113.407
| 35> C 	 31.6442 	 -9.32136 	 -114.021
| 36> H 	 31.9253 	 -8.49533 	 -113.348
| 37> H 	 32.4114 	 -9.45267 	 -114.756
| 38> H 	 31.7115 	 -10.16 	 -113.39
| 39> H 	 29.9619 	 -8.99045 	 -121.478
| 40> H 	 25.336 	 -6.79656 	 -114.95
| 41> *
| 42>
| 43>                          ****END OF INPUT****

CARTESIAN COORDINATES (ANGSTROEM)
---------------------------------
  S     28.219000   -9.055410  -119.621000
  C     29.651100   -8.539840  -120.575000
  C     30.342800   -7.578390  -119.899000
  C     29.809200   -7.253240  -118.612000
  C     28.741300   -8.046000  -118.281000
  H     30.340800   -6.558140  -117.899000
  C     31.464100   -6.757030  -120.518000
  H     31.284100   -5.731360  -120.620000
  H     31.720400   -7.120440  -121.515000
  C     32.843400   -6.899210  -119.774000
  H     33.590400   -6.151020  -120.002000
  H     32.622400   -6.688500  -118.748000
  C     33.463800   -8.274330  -119.881000
  H     34.293800   -8.429190  -119.215000
  H     32.692900   -9.054890  -119.689000
  H     33.937100   -8.360820  -120.840000
  S     26.246900   -7.566450  -117.204000
  C     26.177600   -7.159430  -115.549000
  C     27.376500   -7.343270  -114.920000
  C     28.417400   -7.838320  -115.704000
  C     28.013900   -7.951610  -117.040000
  H     27.514600   -7.045830  -113.902000
  C     29.852700   -8.052290  -115.266000
  H     30.068700   -7.135840  -114.621000
  H     30.628200   -7.989950  -116.046000
  C     30.111800   -9.227230  -114.352000
  H     29.702500  -10.152100  -114.910000
  H     29.510300   -9.121560  -113.407000
  C     31.644200   -9.321360  -114.021000
  H     31.925300   -8.495330  -113.348000
  H     32.411400   -9.452670  -114.756000
  H     31.711500  -10.160000  -113.390000
  H     29.961900   -8.990450  -121.478000
  H     25.336000   -6.796560  -114.950000

 Total Charge           Charge          ....    0
 Multiplicity           Mult            ....    1
 Number of Electrons    NEL             ....  134
 Basis Dimension        Dim             ....  322

ORBITAL ENERGIES
----------------

  NO   OCC          E(Eh)            E(eV)
   0   2.0000     -88.966991     -2420.9149
   1   2.0000     -88.965962     -2420.8869
   2   2.0000     -10.330548      -281.1085
   3   2.0000     -10.328080      -281.0414
   4   2.0000     -10.314512      -280.6721
   5   2.0000     -10.314076      -280.6603
   6   2.0000     -10.304036      -280.3871
   7   2.0000     -10.301768      -280.3254
   8   2.0000     -10.299093      -280.2526
   9   2.0000     -10.297527      -280.2100
  10   2.0000     -10.295792      -280.1627
  11   2.0000     -10.289804      -279.9998
  12   2.0000     -10.286760      -279.9170
  13   2.0000     -10.280859      -279.7564
  14   2.0000     -10.277168      -279.6559
  15   2.0000     -10.272124      -279.5187
  16   2.0000      -8.081098      -219.8978
  17   2.0000      -8.080596      -219.8842
  18   2.0000      -6.039760      -164.3502
  19   2.0000      -6.039032      -164.3304
  20   2.0000      -6.035813      -164.2428
  21   2.0000      -6.035171      -164.2253
  22   2.0000      -6.031614      -164.1286
  23   2.0000      -6.031375      -164.1221
  24   2.0000      -1.007049       -27.4032
  25   2.0000      -0.984792       -26.7975
  26   2.0000      -0.910806       -24.7843
  27   2.0000      -0.909584       -24.7510
  28   2.0000      -0.870820       -23.6962
  29   2.0000      -0.853871       -23.2350
  30   2.0000      -0.843563       -22.9545
  31   2.0000      -0.812900       -22.1201
  32   2.0000      -0.786600       -21.4045
  33   2.0000      -0.776102       -21.1188
  34   2.0000      -0.711460       -19.3598
  35   2.0000      -0.695554       -18.9270
  36   2.0000      -0.693684       -18.8761
  37   2.0000      -0.657934       -17.9033
  38   2.0000      -0.640472       -17.4281
  39   2.0000      -0.623287       -16.9605
  40   2.0000      -0.600752       -16.3473
  41   2.0000      -0.571423       -15.5492
  42   2.0000      -0.560693       -15.2572
  43   2.0000      -0.550519       -14.9804
  44   2.0000      -0.541298       -14.7295
  45   2.0000      -0.523630       -14.2487
  46   2.0000      -0.513695       -13.9783
  47   2.0000      -0.511504       -13.9187
  48   2.0000      -0.504267       -13.7218
  49   2.0000      -0.501059       -13.6345
  50   2.0000      -0.493231       -13.4215
  51   2.0000      -0.477656       -12.9977
  52   2.0000      -0.470658       -12.8073
  53   2.0000      -0.464213       -12.6319
  54   2.0000      -0.461383       -12.5549
  55   2.0000      -0.449526       -12.2322
  56   2.0000      -0.444254       -12.0888
  57   2.0000      -0.442609       -12.0440
  58   2.0000      -0.437539       -11.9060
  59   2.0000      -0.421893       -11.4803
  60   2.0000      -0.421619       -11.4728
  61   2.0000      -0.410341       -11.1659
  62   2.0000      -0.408284       -11.1100
  63   2.0000      -0.347298        -9.4504
  64   2.0000      -0.334499        -9.1022
  65   2.0000      -0.333083        -9.0636
  66   2.0000      -0.289156        -7.8683
  67   0.0000       0.027842         0.7576
  68   0.0000       0.065939         1.7943
  69   0.0000       0.105774         2.8783
  70   0.0000       0.120999         3.2925
  71   0.0000       0.123131         3.3506

MULLIKEN ATOMIC CHARGES
-----------------------
   0 S :    0.098456
   1 C :   -0.102267
   2 C :   -0.082807
   3 C :    0.013924
   4 C :   -0.142738
   5 H :    0.047299
   6 C :    0.094005
   7 H :    0.029670
   8 H :    0.006721
   9 C :   -0.085262
  10 H :    0.022927
  11 H :    0.003487
  12 C :   -0.046945
  13 H :    0.024603
  14 H :    0.046461
  15 H :    0.021418
  16 S :    0.104700
  17 C :   -0.073151
  18 C :   -0.053034
  19 C :    0.022300
  20 C :   -0.168564
  21 H :    0.003886
  22 C :    0.029576
  23 H :    0.023695
  24 H :    0.029579
  25 C :   -0.115949
  26 H :    0.048923
  27 H :    0.040961
  28 C :   -0.022540
  29 H :    0.027089
  30 H :    0.040470
  31 H :    0.018037
  32 H :    0.035689
  33 H :    0.059379
Sum of atomic charges:    0.0000000

LOEWDIN ATOMIC CHARGES
----------------------
   0 S :    0.379028
   1 C :   -0.171370
   2 C :   -0.062298
   3 C :   -0.066570
   4 C :   -0.187889
   5 H :    0.042838
   6 C :   -0.019857
   7 H :    0.026709
   8 H :    0.026502
   9 C :   -0.043282
  10 H :    0.022071
  11 H :    0.011436
  12 C :   -0.067077
  13 H :    0.023722
  14 H :    0.031404
  15 H :    0.021298
  16 S :    0.399220
  17 C :   -0.199044
  18 C :   -0.076993
  19 C :   -0.052422
  20 C :   -0.176298
  21 H :    0.026515
  22 C :   -0.043053
  23 H :    0.035092
  24 H :    0.029474
  25 C :   -0.042277
  26 H :    0.032774
  27 H :    0.030114
  28 C :   -0.066802
  29 H :    0.029286
  30 H :    0.025077
  31 H :    0.022713
  32 H :    0.022003
  33 H :    0.037958

  Mayer bond orders larger than 0.100000
B(  0-S ,  1-C ) :   1.1063 B(  0-S ,  4-C ) :   1.1441 B(  1-C ,  2-C ) :   1.6414
B(  1-C , 32-H ) :   0.9729 B(  2-C ,  3-C ) :   1.2145 B(  2-C ,  6-C ) :   1.0274
B(  3-C ,  4-C ) :   1.5857 B(  3-C ,  5-H ) :   0.9783 B(  4-C , 20-C ) :   1.0478
B(  6-C ,  7-H ) :   0.9467 B(  6-C ,  8-H ) :   0.9452 B(  6-C ,  9-C ) :   1.0545
B(  9-C , 10-H ) :   0.9561 B(  9-C , 11-H ) :   0.9585 B(  9-C , 12-C ) :   1.0823
B( 12-C , 13-H ) :   0.9717 B( 12-C , 14-H ) :   0.9748 B( 12-C , 15-H ) :   0.9733
B( 16-S , 17-C ) :   1.1585 B( 16-S , 20-C ) :   1.1311 B( 17-C , 18-C ) :   1.6092
B( 17-C , 20-C ) :   0.1001 B( 17-C , 33-H ) :   0.9607 B( 18-C , 19-C ) :   1.2606
B( 18-C , 21-H ) :   0.9887 B( 19-C , 20-C ) :   1.5769 B( 19-C , 22-C ) :   1.0255
B( 22-C , 23-H ) :   0.9314 B( 22-C , 24-H ) :   0.9443 B( 22-C , 25-C ) :   1.0608
B( 25-C , 26-H ) :   0.9554 B( 25-C , 27-H ) :   0.9534 B( 25-C , 28-C ) :   1.0716
B( 28-C , 29-H ) :   0.9719 B( 28-C , 30-H ) :   0.9775 B( 28-C , 31-H ) :   0.9723

Dispersion correction           -0.014133190
FINAL SINGLE POINT ENERGY     -1339.872022923708

DIPOLE MOMENT
-------------
                                X             Y             Z
Electronic contribution:    -29.86307      -0.12594      -8.06253
Nuclear contribution   :     30.52895       0.43054       8.42431
                        -----------------------------------------
Total Dipole Moment    :      0.66588       0.30459       0.36178
                        -----------------------------------------
Magnitude (a.u.)       :      0.81674
Magnitude (Debye)      :      2.07599

Rotational constants in cm-1:     0.016442     0.009716     0.006926
Rotational constants in MHz :   492.904229   291.287807   207.622861

                             ****ORCA TERMINATED NORMALLY****
TOTAL RUN TIME: 0 days 0 hours 0 minutes 20 seconds 725 msec
