                         Program Version 4.2.1 -  RELEASE  -
|  1> ! wB97X-D3 SP def2-SVP
|  2> %pal
|  3> nprocs 24
|  4> end
|  5>
|  6> * xyz 0 1
|  7> S 	 -102.364 	 -4.23836 	 -121.864
|  8> C 	 -103.988 	 -3.91636 	 -122.341
|  9> C 	 -104.671 	 -3.24648 	 -121.323
| 10> C 	 -103.847 	 -3.18015 	 -120.14
| 11> C 	 -102.604 	 -3.7562 	 -120.199
| 12> H 	 -104.136 	 -2.73983 	 -119.206
| 13> C 	 -106.133 	 -2.84361 	 -121.4
| 14> H 	 -106.343 	 -2.36754 	 -120.425
| 15> H 	 -106.773 	 -3.72054 	 -121.464
| 16> C 	 -106.458 	 -1.92624 	 -122.551
| 17> H 	 -105.716 	 -1.12274 	 -122.491
| 18> H 	 -106.308 	 -2.33299 	 -123.53
| 19> C 	 -107.83 	 -1.30783 	 -122.467
| 20> H 	 -107.945 	 -0.643893 	 -123.28
| 21> H 	 -108.593 	 -2.10884 	 -122.43
| 22> H 	 -107.959 	 -0.700576 	 -121.633
| 23> S 	 -100.041 	 -3.06186 	 -119.751
| 24> C 	 -99.4326 	 -3.00581 	 -118.118
| 25> C 	 -100.403 	 -3.3876 	 -117.201
| 26> C 	 -101.566 	 -3.84087 	 -117.826
| 27> C 	 -101.57 	 -3.67555 	 -119.198
| 28> H 	 -100.228 	 -3.42847 	 -116.157
| 29> C 	 -102.745 	 -4.27217 	 -116.994
| 30> H 	 -103.382 	 -4.89612 	 -117.72
| 31> H 	 -103.475 	 -3.57361 	 -116.758
| 32> C 	 -102.406 	 -5.06012 	 -115.707
| 33> H 	 -102.237 	 -4.47896 	 -114.783
| 34> H 	 -101.515 	 -5.65556 	 -115.915
| 35> C 	 -103.507 	 -6.06851 	 -115.376
| 36> H 	 -103.376 	 -6.37227 	 -114.341
| 37> H 	 -103.43 	 -7.02134 	 -115.98
| 38> H 	 -104.52 	 -5.67953 	 -115.277
| 39> H 	 -104.371 	 -4.07196 	 -123.331
| 40> H 	 -98.4136 	 -2.79053 	 -117.875
| 41> *
| 42>
| 43>                          ****END OF INPUT****

CARTESIAN COORDINATES (ANGSTROEM)
---------------------------------
  S    -102.364000   -4.238360  -121.864000
  C    -103.988000   -3.916360  -122.341000
  C    -104.671000   -3.246480  -121.323000
  C    -103.847000   -3.180150  -120.140000
  C    -102.604000   -3.756200  -120.199000
  H    -104.136000   -2.739830  -119.206000
  C    -106.133000   -2.843610  -121.400000
  H    -106.343000   -2.367540  -120.425000
  H    -106.773000   -3.720540  -121.464000
  C    -106.458000   -1.926240  -122.551000
  H    -105.716000   -1.122740  -122.491000
  H    -106.308000   -2.332990  -123.530000
  C    -107.830000   -1.307830  -122.467000
  H    -107.945000   -0.643893  -123.280000
  H    -108.593000   -2.108840  -122.430000
  H    -107.959000   -0.700576  -121.633000
  S    -100.041000   -3.061860  -119.751000
  C    -99.432600   -3.005810  -118.118000
  C    -100.403000   -3.387600  -117.201000
  C    -101.566000   -3.840870  -117.826000
  C    -101.570000   -3.675550  -119.198000
  H    -100.228000   -3.428470  -116.157000
  C    -102.745000   -4.272170  -116.994000
  H    -103.382000   -4.896120  -117.720000
  H    -103.475000   -3.573610  -116.758000
  C    -102.406000   -5.060120  -115.707000
  H    -102.237000   -4.478960  -114.783000
  H    -101.515000   -5.655560  -115.915000
  C    -103.507000   -6.068510  -115.376000
  H    -103.376000   -6.372270  -114.341000
  H    -103.430000   -7.021340  -115.980000
  H    -104.520000   -5.679530  -115.277000
  H    -104.371000   -4.071960  -123.331000
  H    -98.413600   -2.790530  -117.875000

 Total Charge           Charge          ....    0
 Multiplicity           Mult            ....    1
 Number of Electrons    NEL             ....  134
 Basis Dimension        Dim             ....  322

ORBITAL ENERGIES
----------------

  NO   OCC          E(Eh)            E(eV)
   0   2.0000     -88.965185     -2420.8658
   1   2.0000     -88.964135     -2420.8372
   2   2.0000     -10.326692      -281.0036
   3   2.0000     -10.324101      -280.9331
   4   2.0000     -10.315087      -280.6878
   5   2.0000     -10.314195      -280.6635
   6   2.0000     -10.302755      -280.3522
   7   2.0000     -10.297953      -280.2215
   8   2.0000     -10.292657      -280.0774
   9   2.0000     -10.292385      -280.0700
  10   2.0000     -10.289344      -279.9873
  11   2.0000     -10.289003      -279.9780
  12   2.0000     -10.288231      -279.9570
  13   2.0000     -10.280609      -279.7496
  14   2.0000     -10.279046      -279.7071
  15   2.0000     -10.269996      -279.4608
  16   2.0000      -8.080390      -219.8786
  17   2.0000      -8.079346      -219.8502
  18   2.0000      -6.038806      -164.3243
  19   2.0000      -6.037896      -164.2995
  20   2.0000      -6.034781      -164.2147
  21   2.0000      -6.033646      -164.1839
  22   2.0000      -6.031265      -164.1191
  23   2.0000      -6.030175      -164.0894
  24   2.0000      -1.012036       -27.5389
  25   2.0000      -0.988131       -26.8884
  26   2.0000      -0.918389       -24.9906
  27   2.0000      -0.908935       -24.7334
  28   2.0000      -0.874807       -23.8047
  29   2.0000      -0.855222       -23.2718
  30   2.0000      -0.848063       -23.0770
  31   2.0000      -0.816542       -22.2193
  32   2.0000      -0.782680       -21.2978
  33   2.0000      -0.771863       -21.0035
  34   2.0000      -0.707621       -19.2554
  35   2.0000      -0.704053       -19.1583
  36   2.0000      -0.697755       -18.9869
  37   2.0000      -0.662249       -18.0207
  38   2.0000      -0.645156       -17.5556
  39   2.0000      -0.619281       -16.8515
  40   2.0000      -0.605591       -16.4790
  41   2.0000      -0.570921       -15.5355
  42   2.0000      -0.570260       -15.5176
  43   2.0000      -0.566312       -15.4101
  44   2.0000      -0.531720       -14.4688
  45   2.0000      -0.525792       -14.3075
  46   2.0000      -0.517367       -14.0783
  47   2.0000      -0.513869       -13.9831
  48   2.0000      -0.507683       -13.8148
  49   2.0000      -0.499384       -13.5889
  50   2.0000      -0.494692       -13.4613
  51   2.0000      -0.479801       -13.0561
  52   2.0000      -0.475099       -12.9281
  53   2.0000      -0.468225       -12.7411
  54   2.0000      -0.459695       -12.5089
  55   2.0000      -0.447774       -12.1845
  56   2.0000      -0.445378       -12.1193
  57   2.0000      -0.441619       -12.0171
  58   2.0000      -0.430134       -11.7045
  59   2.0000      -0.424615       -11.5544
  60   2.0000      -0.418238       -11.3808
  61   2.0000      -0.415444       -11.3048
  62   2.0000      -0.411357       -11.1936
  63   2.0000      -0.352649        -9.5961
  64   2.0000      -0.332081        -9.0364
  65   2.0000      -0.326270        -8.8783
  66   2.0000      -0.289335        -7.8732
  67   0.0000       0.026913         0.7323
  68   0.0000       0.072395         1.9700
  69   0.0000       0.112991         3.0746
  70   0.0000       0.124884         3.3983
  71   0.0000       0.139499         3.7960

MULLIKEN ATOMIC CHARGES
-----------------------
   0 S :    0.104677
   1 C :   -0.111352
   2 C :   -0.088910
   3 C :    0.019274
   4 C :   -0.145714
   5 H :   -0.000708
   6 C :    0.085926
   7 H :    0.016485
   8 H :    0.037821
   9 C :   -0.103014
  10 H :    0.023476
  11 H :    0.023662
  12 C :    0.008920
  13 H :    0.022549
  14 H :    0.027857
  15 H :    0.010720
  16 S :    0.108909
  17 C :   -0.085265
  18 C :   -0.018362
  19 C :   -0.031371
  20 C :   -0.137518
  21 H :    0.009818
  22 C :    0.046005
  23 H :    0.035106
  24 H :    0.025010
  25 C :   -0.087999
  26 H :    0.041403
  27 H :    0.035204
  28 C :   -0.066526
  29 H :    0.013206
  30 H :    0.052969
  31 H :    0.028677
  32 H :    0.048932
  33 H :    0.050133
Sum of atomic charges:   -0.0000000

LOEWDIN ATOMIC CHARGES
----------------------
   0 S :    0.413939
   1 C :   -0.195609
   2 C :   -0.064316
   3 C :   -0.060295
   4 C :   -0.202974
   5 H :    0.025095
   6 C :   -0.030987
   7 H :    0.032177
   8 H :    0.032050
   9 C :   -0.043336
  10 H :    0.026159
  11 H :    0.019125
  12 C :   -0.053687
  13 H :    0.023958
  14 H :    0.027243
  15 H :    0.015938
  16 S :    0.419251
  17 C :   -0.180677
  18 C :   -0.064175
  19 C :   -0.062568
  20 C :   -0.198049
  21 H :    0.027816
  22 C :   -0.038050
  23 H :    0.042709
  24 H :    0.020301
  25 C :   -0.044204
  26 H :    0.027142
  27 H :    0.028081
  28 C :   -0.073449
  29 H :    0.023044
  30 H :    0.034876
  31 H :    0.023338
  32 H :    0.026447
  33 H :    0.023686

  Mayer bond orders larger than 0.100000
B(  0-S ,  1-C ) :   1.1616 B(  0-S ,  4-C ) :   1.1434 B(  1-C ,  2-C ) :   1.5695
B(  1-C , 32-H ) :   0.9746 B(  2-C ,  3-C ) :   1.2652 B(  2-C ,  6-C ) :   1.0208
B(  3-C ,  4-C ) :   1.5526 B(  3-C ,  5-H ) :   0.9956 B(  4-C , 20-C ) :   1.0548
B(  6-C ,  7-H ) :   0.9429 B(  6-C ,  8-H ) :   0.9352 B(  6-C ,  9-C ) :   1.0614
B(  9-C , 10-H ) :   0.9544 B(  9-C , 11-H ) :   0.9544 B(  9-C , 12-C ) :   1.0997
B( 12-C , 13-H ) :   0.9704 B( 12-C , 14-H ) :   0.9709 B( 12-C , 15-H ) :   0.9721
B( 16-S , 17-C ) :   1.1696 B( 16-S , 20-C ) :   1.1485 B( 17-C , 18-C ) :   1.5669
B( 17-C , 20-C ) :   0.1043 B( 17-C , 33-H ) :   0.9715 B( 18-C , 19-C ) :   1.2728
B( 18-C , 21-H ) :   0.9954 B( 19-C , 20-C ) :   1.5780 B( 19-C , 22-C ) :   1.0453
B( 22-C , 23-H ) :   0.9341 B( 22-C , 24-H ) :   0.9305 B( 22-C , 25-C ) :   1.0459
B( 25-C , 26-H ) :   0.9527 B( 25-C , 27-H ) :   0.9610 B( 25-C , 28-C ) :   1.0931
B( 28-C , 29-H ) :   0.9700 B( 28-C , 30-H ) :   0.9751 B( 28-C , 31-H ) :   0.9723

Dispersion correction           -0.013244224
FINAL SINGLE POINT ENERGY     -1339.877661987366

DIPOLE MOMENT
-------------
                                X             Y             Z
Electronic contribution:     24.67474      -0.25993     -10.88502
Nuclear contribution   :    -25.20184       0.43513      11.28233
                        -----------------------------------------
Total Dipole Moment    :     -0.52709       0.17520       0.39731
                        -----------------------------------------
Magnitude (a.u.)       :      0.68292
Magnitude (Debye)      :      1.73584

Rotational constants in cm-1:     0.018925     0.007435     0.005984
Rotational constants in MHz :   567.349613   222.900547   179.390201

                             ****ORCA TERMINATED NORMALLY****
TOTAL RUN TIME: 0 days 0 hours 0 minutes 20 seconds 896 msec
