                         Program Version 4.2.1 -  RELEASE  -
|  1> ! wB97X-D3 SP def2-SVP
|  2> %pal
|  3> nprocs 24
|  4> end
|  5>
|  6> * xyz 0 1
|  7> S 	 -84.3638 	 -3.64792 	 8.73444
|  8> C 	 -84.7069 	 -3.72836 	 7.07485
|  9> C 	 -83.9345 	 -4.62216 	 6.37597
| 10> C 	 -82.9939 	 -5.20362 	 7.20018
| 11> C 	 -82.9507 	 -4.75437 	 8.49546
| 12> H 	 -82.3172 	 -5.988 	 6.83219
| 13> C 	 -84.1435 	 -5.1441 	 4.95833
| 14> H 	 -84.8545 	 -5.99412 	 4.97186
| 15> H 	 -83.2118 	 -5.39582 	 4.49733
| 16> C 	 -84.7614 	 -4.1186 	 3.9461
| 17> H 	 -85.1161 	 -4.68442 	 3.0932
| 18> H 	 -85.6393 	 -3.68955 	 4.42203
| 19> C 	 -83.8011 	 -3.09976 	 3.30588
| 20> H 	 -83.1553 	 -2.66783 	 4.01047
| 21> H 	 -83.248 	 -3.46538 	 2.40997
| 22> H 	 -84.424 	 -2.23354 	 2.98174
| 23> S 	 -83.0073 	 -5.50221 	 11.0798
| 24> C 	 -81.5653 	 -5.65717 	 11.9644
| 25> C 	 -80.4431 	 -5.37571 	 11.1896
| 26> C 	 -80.7843 	 -5.07336 	 9.87778
| 27> C 	 -82.1571 	 -4.92953 	 9.70241
| 28> H 	 -79.4674 	 -5.46276 	 11.8368
| 29> C 	 -79.6317 	 -4.55674 	 8.941
| 30> H 	 -79.1139 	 -3.85769 	 9.6214
| 31> H 	 -80.1445 	 -4.03998 	 8.11698
| 32> C 	 -78.6527 	 -5.6014 	 8.46569
| 33> H 	 -79.1641 	 -6.44535 	 8.08584
| 34> H 	 -78.1294 	 -5.9679 	 9.32191
| 35> C 	 -77.764 	 -5.17753 	 7.24504
| 36> H 	 -77.1585 	 -4.34059 	 7.52591
| 37> H 	 -78.2172 	 -4.93949 	 6.34547
| 38> H 	 -77.0049 	 -5.9579 	 6.9673
| 39> H 	 -85.4971 	 -3.11687 	 6.68854
| 40> H 	 -81.5088 	 -5.97076 	 12.9996
| 41> *
| 42>
| 43>                          ****END OF INPUT****

CARTESIAN COORDINATES (ANGSTROEM)
---------------------------------
  S    -84.363800   -3.647920    8.734440
  C    -84.706900   -3.728360    7.074850
  C    -83.934500   -4.622160    6.375970
  C    -82.993900   -5.203620    7.200180
  C    -82.950700   -4.754370    8.495460
  H    -82.317200   -5.988000    6.832190
  C    -84.143500   -5.144100    4.958330
  H    -84.854500   -5.994120    4.971860
  H    -83.211800   -5.395820    4.497330
  C    -84.761400   -4.118600    3.946100
  H    -85.116100   -4.684420    3.093200
  H    -85.639300   -3.689550    4.422030
  C    -83.801100   -3.099760    3.305880
  H    -83.155300   -2.667830    4.010470
  H    -83.248000   -3.465380    2.409970
  H    -84.424000   -2.233540    2.981740
  S    -83.007300   -5.502210   11.079800
  C    -81.565300   -5.657170   11.964400
  C    -80.443100   -5.375710   11.189600
  C    -80.784300   -5.073360    9.877780
  C    -82.157100   -4.929530    9.702410
  H    -79.467400   -5.462760   11.836800
  C    -79.631700   -4.556740    8.941000
  H    -79.113900   -3.857690    9.621400
  H    -80.144500   -4.039980    8.116980
  C    -78.652700   -5.601400    8.465690
  H    -79.164100   -6.445350    8.085840
  H    -78.129400   -5.967900    9.321910
  C    -77.764000   -5.177530    7.245040
  H    -77.158500   -4.340590    7.525910
  H    -78.217200   -4.939490    6.345470
  H    -77.004900   -5.957900    6.967300
  H    -85.497100   -3.116870    6.688540
  H    -81.508800   -5.970760   12.999600

 Total Charge           Charge          ....    0
 Multiplicity           Mult            ....    1
 Number of Electrons    NEL             ....  134
 Basis Dimension        Dim             ....  322

ORBITAL ENERGIES
----------------

  NO   OCC          E(Eh)            E(eV)
   0   2.0000     -88.966132     -2420.8915
   1   2.0000     -88.960721     -2420.7443
   2   2.0000     -10.330248      -281.1003
   3   2.0000     -10.323580      -280.9189
   4   2.0000     -10.311381      -280.5869
   5   2.0000     -10.308125      -280.4984
   6   2.0000     -10.303075      -280.3609
   7   2.0000     -10.297345      -280.2050
   8   2.0000     -10.293991      -280.1137
   9   2.0000     -10.293939      -280.1123
  10   2.0000     -10.292678      -280.0780
  11   2.0000     -10.292007      -280.0597
  12   2.0000     -10.285984      -279.8958
  13   2.0000     -10.280749      -279.7534
  14   2.0000     -10.277883      -279.6754
  15   2.0000     -10.274879      -279.5937
  16   2.0000      -8.082393      -219.9331
  17   2.0000      -8.076227      -219.7653
  18   2.0000      -6.040603      -164.3732
  19   2.0000      -6.036652      -164.2656
  20   2.0000      -6.034482      -164.2066
  21   2.0000      -6.033391      -164.1769
  22   2.0000      -6.030675      -164.1030
  23   2.0000      -6.027145      -164.0070
  24   2.0000      -1.015220       -27.6256
  25   2.0000      -0.993150       -27.0250
  26   2.0000      -0.907963       -24.7069
  27   2.0000      -0.905701       -24.6454
  28   2.0000      -0.868610       -23.6361
  29   2.0000      -0.855572       -23.2813
  30   2.0000      -0.850326       -23.1385
  31   2.0000      -0.811654       -22.0862
  32   2.0000      -0.784656       -21.3516
  33   2.0000      -0.773081       -21.0366
  34   2.0000      -0.707277       -19.2460
  35   2.0000      -0.703689       -19.1483
  36   2.0000      -0.694129       -18.8882
  37   2.0000      -0.659165       -17.9368
  38   2.0000      -0.639222       -17.3941
  39   2.0000      -0.619350       -16.8534
  40   2.0000      -0.592166       -16.1137
  41   2.0000      -0.573580       -15.6079
  42   2.0000      -0.565946       -15.4002
  43   2.0000      -0.552918       -15.0457
  44   2.0000      -0.539444       -14.6790
  45   2.0000      -0.521365       -14.1871
  46   2.0000      -0.511670       -13.9232
  47   2.0000      -0.507920       -13.8212
  48   2.0000      -0.503184       -13.6923
  49   2.0000      -0.496615       -13.5136
  50   2.0000      -0.490983       -13.3603
  51   2.0000      -0.485565       -13.2129
  52   2.0000      -0.477608       -12.9964
  53   2.0000      -0.471946       -12.8423
  54   2.0000      -0.458417       -12.4742
  55   2.0000      -0.446054       -12.1377
  56   2.0000      -0.440975       -11.9995
  57   2.0000      -0.436781       -11.8854
  58   2.0000      -0.431156       -11.7323
  59   2.0000      -0.428880       -11.6704
  60   2.0000      -0.419673       -11.4199
  61   2.0000      -0.411877       -11.2077
  62   2.0000      -0.406559       -11.0630
  63   2.0000      -0.350479        -9.5370
  64   2.0000      -0.334268        -9.0959
  65   2.0000      -0.333916        -9.0863
  66   2.0000      -0.286142        -7.7863
  67   0.0000       0.031508         0.8574
  68   0.0000       0.066361         1.8058
  69   0.0000       0.113077         3.0770
  70   0.0000       0.124466         3.3869
  71   0.0000       0.135767         3.6944

MULLIKEN ATOMIC CHARGES
-----------------------
   0 S :    0.089397
   1 C :   -0.128438
   2 C :   -0.065791
   3 C :    0.011117
   4 C :   -0.146531
   5 H :    0.015264
   6 C :    0.061382
   7 H :    0.053708
   8 H :    0.017491
   9 C :   -0.091983
  10 H :    0.023522
  11 H :    0.025192
  12 C :   -0.049948
  13 H :    0.024241
  14 H :    0.045891
  15 H :    0.032260
  16 S :    0.126699
  17 C :   -0.109338
  18 C :   -0.080343
  19 C :   -0.022601
  20 C :   -0.135605
  21 H :    0.058954
  22 C :    0.047374
  23 H :    0.040003
  24 H :    0.029304
  25 C :   -0.039116
  26 H :    0.015244
  27 H :    0.019953
  28 C :   -0.039358
  29 H :    0.019159
  30 H :    0.022884
  31 H :    0.032482
  32 H :    0.043652
  33 H :    0.053878
Sum of atomic charges:   -0.0000000

LOEWDIN ATOMIC CHARGES
----------------------
   0 S :    0.401308
   1 C :   -0.200991
   2 C :   -0.079321
   3 C :   -0.063436
   4 C :   -0.170417
   5 H :    0.036885
   6 C :   -0.024182
   7 H :    0.040639
   8 H :    0.024205
   9 C :   -0.042904
  10 H :    0.025152
  11 H :    0.018774
  12 C :   -0.069698
  13 H :    0.016018
  14 H :    0.031154
  15 H :    0.034461
  16 S :    0.449054
  17 C :   -0.206192
  18 C :   -0.091824
  19 C :   -0.059407
  20 C :   -0.224457
  21 H :    0.054711
  22 C :   -0.022894
  23 H :    0.035464
  24 H :    0.029529
  25 C :   -0.038230
  26 H :    0.019458
  27 H :    0.022202
  28 C :   -0.061296
  29 H :    0.020062
  30 H :    0.015433
  31 H :    0.033445
  32 H :    0.019620
  33 H :    0.027674

  Mayer bond orders larger than 0.100000
B(  0-S ,  1-C ) :   1.1697 B(  0-S ,  4-C ) :   1.1429 B(  1-C ,  2-C ) :   1.5774
B(  1-C ,  4-C ) :   0.1072 B(  1-C , 32-H ) :   0.9698 B(  2-C ,  3-C ) :   1.2764
B(  2-C ,  6-C ) :   1.0111 B(  3-C ,  4-C ) :   1.5717 B(  3-C ,  5-H ) :   1.0010
B(  4-C , 20-C ) :   1.0007 B(  6-C ,  7-H ) :   0.9398 B(  6-C ,  8-H ) :   0.9451
B(  6-C ,  9-C ) :   1.0797 B(  9-C , 10-H ) :   0.9553 B(  9-C , 11-H ) :   0.9577
B(  9-C , 12-C ) :   1.0753 B( 12-C , 13-H ) :   0.9783 B( 12-C , 14-H ) :   0.9763
B( 12-C , 15-H ) :   0.9722 B( 16-S , 17-C ) :   1.1870 B( 16-S , 20-C ) :   1.1669
B( 17-C , 18-C ) :   1.5881 B( 17-C , 20-C ) :   0.1107 B( 17-C , 33-H ) :   0.9665
B( 18-C , 19-C ) :   1.2552 B( 18-C , 21-H ) :   0.9758 B( 19-C , 20-C ) :   1.5780
B( 19-C , 22-C ) :   1.0237 B( 22-C , 23-H ) :   0.9468 B( 22-C , 24-H ) :   0.9450
B( 22-C , 25-C ) :   1.0586 B( 25-C , 26-H ) :   0.9567 B( 25-C , 27-H ) :   0.9546
B( 25-C , 28-C ) :   1.0786 B( 28-C , 29-H ) :   0.9753 B( 28-C , 30-H ) :   0.9778
B( 28-C , 31-H ) :   0.9753

Dispersion correction           -0.013431052
FINAL SINGLE POINT ENERGY     -1339.861320845635

DIPOLE MOMENT
-------------
                                X             Y             Z
Electronic contribution:    -14.79232      -0.97434      25.59423
Nuclear contribution   :     15.10526       0.78982     -25.95550
                        -----------------------------------------
Total Dipole Moment    :      0.31294      -0.18452      -0.36127
                        -----------------------------------------
Magnitude (a.u.)       :      0.51234
Magnitude (Debye)      :      1.30228

Rotational constants in cm-1:     0.018009     0.008500     0.006153
Rotational constants in MHz :   539.892018   254.810075   184.470062

                             ****ORCA TERMINATED NORMALLY****
TOTAL RUN TIME: 0 days 0 hours 0 minutes 21 seconds 175 msec
