                         Program Version 4.2.1 -  RELEASE  -
|  1> ! wB97X-D3 SP def2-SVP
|  2> %pal
|  3> nprocs 24
|  4> end
|  5>
|  6> * xyz 0 1
|  7> S 	 -137.466 	 7.91505 	 -3.87503
|  8> C 	 -138.722 	 9.1237 	 -3.82895
|  9> C 	 -139.999 	 8.63793 	 -4.2056
| 10> C 	 -139.888 	 7.25521 	 -4.60648
| 11> C 	 -138.589 	 6.66626 	 -4.44245
| 12> H 	 -140.72 	 6.64115 	 -4.84679
| 13> C 	 -141.306 	 9.43177 	 -4.14616
| 14> H 	 -142.018 	 8.96716 	 -4.8436
| 15> H 	 -141.089 	 10.4688 	 -4.52212
| 16> C 	 -141.865 	 9.5551 	 -2.69499
| 17> H 	 -142.275 	 8.61328 	 -2.39197
| 18> H 	 -141.113 	 9.79738 	 -1.9812
| 19> C 	 -143.09 	 10.5299 	 -2.5653
| 20> H 	 -143.77 	 10.2485 	 -3.36326
| 21> H 	 -143.638 	 10.6032 	 -1.62246
| 22> H 	 -142.926 	 11.5366 	 -2.9045
| 23> S 	 -137.276 	 4.94689 	 -6.14421
| 24> C 	 -137.512 	 3.2634 	 -5.93499
| 25> C 	 -138.348 	 2.9952 	 -4.83268
| 26> C 	 -138.816 	 4.13654 	 -4.10675
| 27> C 	 -138.243 	 5.26272 	 -4.62563
| 28> H 	 -138.655 	 1.96587 	 -4.68319
| 29> C 	 -139.706 	 4.05319 	 -2.90326
| 30> H 	 -140.593 	 3.33577 	 -3.15831
| 31> H 	 -140.299 	 4.90756 	 -2.78048
| 32> C 	 -139.194 	 3.69965 	 -1.55282
| 33> H 	 -138.493 	 4.4843 	 -1.2991
| 34> H 	 -138.646 	 2.75599 	 -1.65628
| 35> C 	 -140.176 	 3.66783 	 -0.447129
| 36> H 	 -140.651 	 4.69473 	 -0.454839
| 37> H 	 -139.716 	 3.35673 	 0.45644
| 38> H 	 -140.954 	 2.96676 	 -0.797752
| 39> H 	 -138.648 	 10.0408 	 -3.26797
| 40> H 	 -137.135 	 2.55412 	 -6.68857
| 41> *
| 42>
| 43>                          ****END OF INPUT****

CARTESIAN COORDINATES (ANGSTROEM)
---------------------------------
  S    -137.466000    7.915050   -3.875030
  C    -138.722000    9.123700   -3.828950
  C    -139.999000    8.637930   -4.205600
  C    -139.888000    7.255210   -4.606480
  C    -138.589000    6.666260   -4.442450
  H    -140.720000    6.641150   -4.846790
  C    -141.306000    9.431770   -4.146160
  H    -142.018000    8.967160   -4.843600
  H    -141.089000   10.468800   -4.522120
  C    -141.865000    9.555100   -2.694990
  H    -142.275000    8.613280   -2.391970
  H    -141.113000    9.797380   -1.981200
  C    -143.090000   10.529900   -2.565300
  H    -143.770000   10.248500   -3.363260
  H    -143.638000   10.603200   -1.622460
  H    -142.926000   11.536600   -2.904500
  S    -137.276000    4.946890   -6.144210
  C    -137.512000    3.263400   -5.934990
  C    -138.348000    2.995200   -4.832680
  C    -138.816000    4.136540   -4.106750
  C    -138.243000    5.262720   -4.625630
  H    -138.655000    1.965870   -4.683190
  C    -139.706000    4.053190   -2.903260
  H    -140.593000    3.335770   -3.158310
  H    -140.299000    4.907560   -2.780480
  C    -139.194000    3.699650   -1.552820
  H    -138.493000    4.484300   -1.299100
  H    -138.646000    2.755990   -1.656280
  C    -140.176000    3.667830   -0.447129
  H    -140.651000    4.694730   -0.454839
  H    -139.716000    3.356730    0.456440
  H    -140.954000    2.966760   -0.797752
  H    -138.648000   10.040800   -3.267970
  H    -137.135000    2.554120   -6.688570

 Total Charge           Charge          ....    0
 Multiplicity           Mult            ....    1
 Number of Electrons    NEL             ....  134
 Basis Dimension        Dim             ....  322

ORBITAL ENERGIES
----------------

  NO   OCC          E(Eh)            E(eV)
   0   2.0000     -88.970051     -2420.9982
   1   2.0000     -88.963937     -2420.8318
   2   2.0000     -10.333707      -281.1945
   3   2.0000     -10.329698      -281.0854
   4   2.0000     -10.322113      -280.8790
   5   2.0000     -10.315140      -280.6892
   6   2.0000     -10.309421      -280.5336
   7   2.0000     -10.308173      -280.4997
   8   2.0000     -10.305132      -280.4169
   9   2.0000     -10.298818      -280.2451
  10   2.0000     -10.296995      -280.1955
  11   2.0000     -10.292434      -280.0714
  12   2.0000     -10.290626      -280.0222
  13   2.0000     -10.279869      -279.7294
  14   2.0000     -10.278816      -279.7008
  15   2.0000     -10.277226      -279.6575
  16   2.0000      -8.084012      -219.9772
  17   2.0000      -8.078736      -219.8336
  18   2.0000      -6.042476      -164.4241
  19   2.0000      -6.038439      -164.3143
  20   2.0000      -6.037112      -164.2782
  21   2.0000      -6.035076      -164.2228
  22   2.0000      -6.033301      -164.1745
  23   2.0000      -6.029545      -164.0723
  24   2.0000      -0.999985       -27.2110
  25   2.0000      -0.976897       -26.5827
  26   2.0000      -0.922992       -25.1159
  27   2.0000      -0.906285       -24.6613
  28   2.0000      -0.868330       -23.6284
  29   2.0000      -0.856790       -23.3144
  30   2.0000      -0.845378       -23.0039
  31   2.0000      -0.804477       -21.8909
  32   2.0000      -0.788175       -21.4473
  33   2.0000      -0.771301       -20.9882
  34   2.0000      -0.710158       -19.3244
  35   2.0000      -0.700540       -19.0627
  36   2.0000      -0.691291       -18.8110
  37   2.0000      -0.661106       -17.9896
  38   2.0000      -0.639116       -17.3912
  39   2.0000      -0.618801       -16.8384
  40   2.0000      -0.602883       -16.4053
  41   2.0000      -0.572131       -15.5685
  42   2.0000      -0.569597       -15.4995
  43   2.0000      -0.551178       -14.9983
  44   2.0000      -0.538085       -14.6421
  45   2.0000      -0.525978       -14.3126
  46   2.0000      -0.516283       -14.0488
  47   2.0000      -0.515152       -14.0180
  48   2.0000      -0.503051       -13.6887
  49   2.0000      -0.497497       -13.5376
  50   2.0000      -0.490704       -13.3527
  51   2.0000      -0.477255       -12.9868
  52   2.0000      -0.464025       -12.6268
  53   2.0000      -0.463338       -12.6081
  54   2.0000      -0.458150       -12.4669
  55   2.0000      -0.454044       -12.3552
  56   2.0000      -0.441965       -12.0265
  57   2.0000      -0.439298       -11.9539
  58   2.0000      -0.431431       -11.7398
  59   2.0000      -0.428934       -11.6719
  60   2.0000      -0.425286       -11.5726
  61   2.0000      -0.422781       -11.5045
  62   2.0000      -0.405737       -11.0407
  63   2.0000      -0.338270        -9.2048
  64   2.0000      -0.334609        -9.1052
  65   2.0000      -0.326934        -8.8963
  66   2.0000      -0.294093        -8.0027
  67   0.0000       0.031833         0.8662
  68   0.0000       0.051819         1.4101
  69   0.0000       0.106915         2.9093
  70   0.0000       0.118788         3.2324
  71   0.0000       0.122925         3.3450

MULLIKEN ATOMIC CHARGES
-----------------------
   0 S :    0.123353
   1 C :   -0.108624
   2 C :   -0.120444
   3 C :    0.069821
   4 C :   -0.193624
   5 H :    0.002033
   6 C :    0.037096
   7 H :    0.034895
   8 H :    0.042463
   9 C :   -0.041211
  10 H :    0.022098
  11 H :    0.026910
  12 C :   -0.049803
  13 H :    0.013489
  14 H :    0.047624
  15 H :    0.014506
  16 S :    0.099317
  17 C :   -0.103582
  18 C :   -0.045342
  19 C :    0.019849
  20 C :   -0.162383
  21 H :    0.017525
  22 C :    0.045458
  23 H :    0.018925
  24 H :   -0.013687
  25 C :   -0.046619
  26 H :    0.023753
  27 H :    0.021583
  28 C :   -0.023412
  29 H :    0.037310
  30 H :    0.043097
  31 H :    0.022071
  32 H :    0.051408
  33 H :    0.074143
Sum of atomic charges:   -0.0000000

LOEWDIN ATOMIC CHARGES
----------------------
   0 S :    0.412649
   1 C :   -0.206397
   2 C :   -0.060759
   3 C :   -0.054227
   4 C :   -0.203838
   5 H :    0.022996
   6 C :   -0.030924
   7 H :    0.033257
   8 H :    0.037940
   9 C :   -0.030706
  10 H :    0.022648
  11 H :    0.018684
  12 C :   -0.075017
  13 H :    0.025167
  14 H :    0.029659
  15 H :    0.019155
  16 S :    0.393255
  17 C :   -0.194136
  18 C :   -0.073565
  19 C :   -0.045990
  20 C :   -0.177545
  21 H :    0.028995
  22 C :   -0.037818
  23 H :    0.037287
  24 H :    0.018606
  25 C :   -0.045485
  26 H :    0.025159
  27 H :    0.021741
  28 C :   -0.057191
  29 H :    0.034254
  30 H :    0.026493
  31 H :    0.024952
  32 H :    0.025591
  33 H :    0.035106

  Mayer bond orders larger than 0.100000
B(  0-S ,  1-C ) :   1.1619 B(  0-S ,  4-C ) :   1.1604 B(  1-C ,  2-C ) :   1.5813
B(  1-C ,  4-C ) :   0.1063 B(  1-C , 32-H ) :   0.9623 B(  2-C ,  3-C ) :   1.2800
B(  2-C ,  6-C ) :   1.0243 B(  3-C ,  4-C ) :   1.5361 B(  3-C ,  5-H ) :   0.9925
B(  4-C , 20-C ) :   1.0255 B(  6-C ,  7-H ) :   0.9416 B(  6-C ,  8-H ) :   0.9464
B(  6-C ,  9-C ) :   1.0523 B(  9-C , 10-H ) :   0.9556 B(  9-C , 11-H ) :   0.9641
B(  9-C , 12-C ) :   1.0678 B( 12-C , 13-H ) :   0.9697 B( 12-C , 14-H ) :   0.9782
B( 12-C , 15-H ) :   0.9754 B( 16-S , 17-C ) :   1.1703 B( 16-S , 20-C ) :   1.1340
B( 17-C , 18-C ) :   1.5973 B( 17-C , 33-H ) :   0.9653 B( 18-C , 19-C ) :   1.2191
B( 18-C , 21-H ) :   0.9923 B( 19-C , 20-C ) :   1.6139 B( 19-C , 22-C ) :   1.0490
B( 22-C , 23-H ) :   0.9214 B( 22-C , 24-H ) :   0.9179 B( 22-C , 25-C ) :   1.0779
B( 25-C , 26-H ) :   0.9444 B( 25-C , 27-H ) :   0.9479 B( 25-C , 28-C ) :   1.0873
B( 28-C , 29-H ) :   0.9711 B( 28-C , 30-H ) :   0.9697 B( 28-C , 31-H ) :   0.9736

Dispersion correction           -0.013735040
FINAL SINGLE POINT ENERGY     -1339.866426558136

DIPOLE MOMENT
-------------
                                X             Y             Z
Electronic contribution:     24.33533      -3.46512     -18.42993
Nuclear contribution   :    -25.02038       3.31540      18.73490
                        -----------------------------------------
Total Dipole Moment    :     -0.68505      -0.14972       0.30497
                        -----------------------------------------
Magnitude (a.u.)       :      0.76467
Magnitude (Debye)      :      1.94364

Rotational constants in cm-1:     0.017374     0.008244     0.006458
Rotational constants in MHz :   520.844609   247.152214   193.594346

                             ****ORCA TERMINATED NORMALLY****
TOTAL RUN TIME: 0 days 0 hours 0 minutes 21 seconds 14 msec
