                         Program Version 4.2.1 -  RELEASE  -
|  1> ! wB97X-D3 SP def2-SVP
|  2> %pal
|  3> nprocs 24
|  4> end
|  5>
|  6> * xyz 0 1
|  7> S 	 -30.4337 	 -34.0128 	 -91.9188
|  8> C 	 -30.9477 	 -32.6326 	 -92.7787
|  9> C 	 -29.986 	 -32.1664 	 -93.6707
| 10> C 	 -28.8039 	 -32.9951 	 -93.7347
| 11> C 	 -28.8723 	 -34.0161 	 -92.7748
| 12> H 	 -27.9789 	 -32.8368 	 -94.4823
| 13> C 	 -30.2755 	 -31.0597 	 -94.6992
| 14> H 	 -29.8554 	 -30.0004 	 -94.3858
| 15> H 	 -31.3826 	 -30.9875 	 -94.6497
| 16> C 	 -29.8964 	 -31.2441 	 -96.1713
| 17> H 	 -29.9125 	 -32.2831 	 -96.5147
| 18> H 	 -30.7075 	 -30.8446 	 -96.7869
| 19> C 	 -28.6201 	 -30.574 	 -96.7044
| 20> H 	 -27.7873 	 -30.848 	 -96.0735
| 21> H 	 -28.3962 	 -30.9151 	 -97.7473
| 22> H 	 -28.6132 	 -29.5386 	 -96.6703
| 23> S 	 -28.6772 	 -36.6651 	 -92.605
| 24> C 	 -27.1414 	 -37.3793 	 -92.8049
| 25> C 	 -26.1308 	 -36.4693 	 -92.5962
| 26> C 	 -26.5345 	 -35.1003 	 -92.6445
| 27> C 	 -27.9097 	 -35.0345 	 -92.6298
| 28> H 	 -25.138 	 -36.8248 	 -92.5458
| 29> C 	 -25.5849 	 -33.9271 	 -92.6736
| 30> H 	 -26.0862 	 -33.1877 	 -93.3496
| 31> H 	 -24.6323 	 -34.1805 	 -93.1446
| 32> C 	 -25.3654 	 -33.4021 	 -91.2353
| 33> H 	 -24.6608 	 -34.0994 	 -90.6902
| 34> H 	 -26.354 	 -33.3817 	 -90.7856
| 35> C 	 -24.8526 	 -31.9434 	 -91.2513
| 36> H 	 -24.8603 	 -31.447 	 -90.3215
| 37> H 	 -25.5224 	 -31.2629 	 -91.7782
| 38> H 	 -23.8354 	 -31.8989 	 -91.6099
| 39> H 	 -31.9616 	 -32.2189 	 -92.7863
| 40> H 	 -26.9505 	 -38.464 	 -92.9085
| 41> *
| 42>
| 43>                          ****END OF INPUT****

CARTESIAN COORDINATES (ANGSTROEM)
---------------------------------
  S    -30.433700  -34.012800  -91.918800
  C    -30.947700  -32.632600  -92.778700
  C    -29.986000  -32.166400  -93.670700
  C    -28.803900  -32.995100  -93.734700
  C    -28.872300  -34.016100  -92.774800
  H    -27.978900  -32.836800  -94.482300
  C    -30.275500  -31.059700  -94.699200
  H    -29.855400  -30.000400  -94.385800
  H    -31.382600  -30.987500  -94.649700
  C    -29.896400  -31.244100  -96.171300
  H    -29.912500  -32.283100  -96.514700
  H    -30.707500  -30.844600  -96.786900
  C    -28.620100  -30.574000  -96.704400
  H    -27.787300  -30.848000  -96.073500
  H    -28.396200  -30.915100  -97.747300
  H    -28.613200  -29.538600  -96.670300
  S    -28.677200  -36.665100  -92.605000
  C    -27.141400  -37.379300  -92.804900
  C    -26.130800  -36.469300  -92.596200
  C    -26.534500  -35.100300  -92.644500
  C    -27.909700  -35.034500  -92.629800
  H    -25.138000  -36.824800  -92.545800
  C    -25.584900  -33.927100  -92.673600
  H    -26.086200  -33.187700  -93.349600
  H    -24.632300  -34.180500  -93.144600
  C    -25.365400  -33.402100  -91.235300
  H    -24.660800  -34.099400  -90.690200
  H    -26.354000  -33.381700  -90.785600
  C    -24.852600  -31.943400  -91.251300
  H    -24.860300  -31.447000  -90.321500
  H    -25.522400  -31.262900  -91.778200
  H    -23.835400  -31.898900  -91.609900
  H    -31.961600  -32.218900  -92.786300
  H    -26.950500  -38.464000  -92.908500

 Total Charge           Charge          ....    0
 Multiplicity           Mult            ....    1
 Number of Electrons    NEL             ....  134
 Basis Dimension        Dim             ....  322

ORBITAL ENERGIES
----------------

  NO   OCC          E(Eh)            E(eV)
   0   2.0000     -88.970090     -2420.9992
   1   2.0000     -88.961447     -2420.7641
   2   2.0000     -10.330173      -281.0983
   3   2.0000     -10.322399      -280.8867
   4   2.0000     -10.314486      -280.6714
   5   2.0000     -10.311615      -280.5933
   6   2.0000     -10.304237      -280.3925
   7   2.0000     -10.303813      -280.3810
   8   2.0000     -10.302383      -280.3421
   9   2.0000     -10.300560      -280.2925
  10   2.0000     -10.296213      -280.1742
  11   2.0000     -10.291434      -280.0442
  12   2.0000     -10.287973      -279.9500
  13   2.0000     -10.286944      -279.9220
  14   2.0000     -10.276044      -279.6254
  15   2.0000     -10.271413      -279.4993
  16   2.0000      -8.084845      -219.9998
  17   2.0000      -8.076767      -219.7800
  18   2.0000      -6.043399      -164.4493
  19   2.0000      -6.039408      -164.3407
  20   2.0000      -6.035501      -164.2343
  21   2.0000      -6.035267      -164.2280
  22   2.0000      -6.031347      -164.1213
  23   2.0000      -6.027320      -164.0117
  24   2.0000      -1.008831       -27.4517
  25   2.0000      -0.983329       -26.7577
  26   2.0000      -0.909662       -24.7532
  27   2.0000      -0.905906       -24.6510
  28   2.0000      -0.874110       -23.7857
  29   2.0000      -0.853520       -23.2255
  30   2.0000      -0.845748       -23.0140
  31   2.0000      -0.811116       -22.0716
  32   2.0000      -0.784721       -21.3533
  33   2.0000      -0.770229       -20.9590
  34   2.0000      -0.710703       -19.3392
  35   2.0000      -0.696615       -18.9559
  36   2.0000      -0.692539       -18.8449
  37   2.0000      -0.664096       -18.0710
  38   2.0000      -0.632994       -17.2246
  39   2.0000      -0.618768       -16.8375
  40   2.0000      -0.594804       -16.1854
  41   2.0000      -0.569810       -15.5053
  42   2.0000      -0.562503       -15.3065
  43   2.0000      -0.542948       -14.7744
  44   2.0000      -0.530721       -14.4416
  45   2.0000      -0.521590       -14.1932
  46   2.0000      -0.515396       -14.0246
  47   2.0000      -0.508582       -13.8392
  48   2.0000      -0.505924       -13.7669
  49   2.0000      -0.499951       -13.6044
  50   2.0000      -0.495450       -13.4819
  51   2.0000      -0.491036       -13.3618
  52   2.0000      -0.475621       -12.9423
  53   2.0000      -0.461689       -12.5632
  54   2.0000      -0.453921       -12.3518
  55   2.0000      -0.449411       -12.2291
  56   2.0000      -0.442987       -12.0543
  57   2.0000      -0.434739       -11.8299
  58   2.0000      -0.429022       -11.6743
  59   2.0000      -0.427534       -11.6338
  60   2.0000      -0.425018       -11.5653
  61   2.0000      -0.420663       -11.4468
  62   2.0000      -0.406492       -11.0612
  63   2.0000      -0.353473        -9.6185
  64   2.0000      -0.330822        -9.0021
  65   2.0000      -0.328254        -8.9323
  66   2.0000      -0.279987        -7.6188
  67   0.0000       0.025172         0.6850
  68   0.0000       0.067284         1.8309
  69   0.0000       0.110059         2.9949
  70   0.0000       0.116261         3.1636
  71   0.0000       0.131852         3.5879

MULLIKEN ATOMIC CHARGES
-----------------------
   0 S :    0.122774
   1 C :   -0.127539
   2 C :   -0.078168
   3 C :   -0.014623
   4 C :   -0.132075
   5 H :    0.053755
   6 C :    0.026356
   7 H :    0.052663
   8 H :    0.021763
   9 C :   -0.086672
  10 H :    0.030600
  11 H :    0.025909
  12 C :   -0.034706
  13 H :    0.014413
  14 H :    0.041737
  15 H :    0.018399
  16 S :    0.095236
  17 C :   -0.096289
  18 C :   -0.021651
  19 C :   -0.050930
  20 C :   -0.159248
  21 H :   -0.003350
  22 C :    0.080499
  23 H :    0.017514
  24 H :    0.023939
  25 C :   -0.078860
  26 H :    0.044816
  27 H :    0.040905
  28 C :   -0.022705
  29 H :    0.017735
  30 H :    0.026700
  31 H :    0.028101
  32 H :    0.056562
  33 H :    0.066440
Sum of atomic charges:    0.0000000

LOEWDIN ATOMIC CHARGES
----------------------
   0 S :    0.412248
   1 C :   -0.222553
   2 C :   -0.066109
   3 C :   -0.069062
   4 C :   -0.189831
   5 H :    0.041935
   6 C :   -0.042193
   7 H :    0.042861
   8 H :    0.033204
   9 C :   -0.054394
  10 H :    0.027321
  11 H :    0.028853
  12 C :   -0.062214
  13 H :    0.018327
  14 H :    0.035280
  15 H :    0.013186
  16 S :    0.395811
  17 C :   -0.196462
  18 C :   -0.070115
  19 C :   -0.048682
  20 C :   -0.180859
  21 H :    0.021725
  22 C :   -0.030322
  23 H :    0.033619
  24 H :    0.028822
  25 C :   -0.034021
  26 H :    0.032406
  27 H :    0.028259
  28 C :   -0.067675
  29 H :    0.020598
  30 H :    0.027905
  31 H :    0.022837
  32 H :    0.033267
  33 H :    0.036027

  Mayer bond orders larger than 0.100000
B(  0-S ,  1-C ) :   1.1347 B(  0-S ,  4-C ) :   1.1415 B(  1-C ,  2-C ) :   1.6176
B(  1-C , 32-H ) :   0.9579 B(  2-C ,  3-C ) :   1.2570 B(  2-C ,  6-C ) :   1.0228
B(  3-C ,  4-C ) :   1.5510 B(  3-C ,  5-H ) :   0.9723 B(  4-C , 20-C ) :   1.0923
B(  6-C ,  7-H ) :   0.9376 B(  6-C ,  8-H ) :   0.9472 B(  6-C ,  9-C ) :   1.0544
B(  9-C , 10-H ) :   0.9586 B(  9-C , 11-H ) :   0.9552 B(  9-C , 12-C ) :   1.0795
B( 12-C , 13-H ) :   0.9777 B( 12-C , 14-H ) :   0.9726 B( 12-C , 15-H ) :   0.9727
B( 16-S , 17-C ) :   1.1613 B( 16-S , 20-C ) :   1.1151 B( 17-C , 18-C ) :   1.6190
B( 17-C , 33-H ) :   0.9624 B( 18-C , 19-C ) :   1.2181 B( 18-C , 21-H ) :   0.9945
B( 19-C , 20-C ) :   1.6040 B( 19-C , 22-C ) :   1.0451 B( 22-C , 23-H ) :   0.9343
B( 22-C , 24-H ) :   0.9275 B( 22-C , 25-C ) :   1.0554 B( 25-C , 26-H ) :   0.9543
B( 25-C , 27-H ) :   0.9607 B( 25-C , 28-C ) :   1.0864 B( 28-C , 29-H ) :   0.9722
B( 28-C , 30-H ) :   0.9723 B( 28-C , 31-H ) :   0.9737

Dispersion correction           -0.014156802
FINAL SINGLE POINT ENERGY     -1339.868819969266

DIPOLE MOMENT
-------------
                                X             Y             Z
Electronic contribution:    -13.70248     -22.36814      10.84373
Nuclear contribution   :     14.07348      22.65482     -11.21282
                        -----------------------------------------
Total Dipole Moment    :      0.37100       0.28668      -0.36909
                        -----------------------------------------
Magnitude (a.u.)       :      0.59671
Magnitude (Debye)      :      1.51671

Rotational constants in cm-1:     0.016065     0.009401     0.007563
Rotational constants in MHz :   481.625607   281.829638   226.722201

                             ****ORCA TERMINATED NORMALLY****
TOTAL RUN TIME: 0 days 0 hours 0 minutes 21 seconds 727 msec
