                         Program Version 4.2.1 -  RELEASE  -
|  1> ! wB97X-D3 SP def2-SVP
|  2> %pal
|  3> nprocs 24
|  4> end
|  5>
|  6> * xyz 0 1
|  7> S 	 -49.9431 	 5.45806 	 -19.4469
|  8> C 	 -49.8962 	 3.77476 	 -19.9351
|  9> C 	 -49.8624 	 2.9355 	 -18.8568
| 10> C 	 -49.9887 	 3.61781 	 -17.6155
| 11> C 	 -50.1252 	 4.98676 	 -17.7411
| 12> H 	 -50.0343 	 3.23392 	 -16.6207
| 13> C 	 -49.7367 	 1.45069 	 -18.899
| 14> H 	 -50.2494 	 1.00704 	 -19.754
| 15> H 	 -50.2479 	 1.01751 	 -18.0035
| 16> C 	 -48.2884 	 0.789152 	 -18.8788
| 17> H 	 -48.4439 	 -0.253439 	 -18.9973
| 18> H 	 -47.6444 	 1.1209 	 -19.7751
| 19> C 	 -47.5166 	 1.17362 	 -17.6214
| 20> H 	 -46.5992 	 0.49807 	 -17.4764
| 21> H 	 -47.1666 	 2.12468 	 -17.6069
| 22> H 	 -48.159 	 1.03802 	 -16.7144
| 23> S 	 -51.872 	 7.00605 	 -16.637
| 24> C 	 -51.5123 	 7.6204 	 -15.0683
| 25> C 	 -50.3056 	 7.14388 	 -14.6651
| 26> C 	 -49.7505 	 6.10357 	 -15.4455
| 27> C 	 -50.3664 	 5.99457 	 -16.6556
| 28> H 	 -49.8393 	 7.58287 	 -13.7872
| 29> C 	 -48.4114 	 5.59047 	 -15.0548
| 30> H 	 -48.4932 	 4.56305 	 -14.9848
| 31> H 	 -48.2663 	 5.89678 	 -13.9989
| 32> C 	 -47.2762 	 6.04037 	 -15.9586
| 33> H 	 -47.4293 	 5.70952 	 -16.9603
| 34> H 	 -46.4489 	 5.42012 	 -15.66
| 35> C 	 -46.8807 	 7.54348 	 -15.9121
| 36> H 	 -46.5104 	 7.80722 	 -14.8663
| 37> H 	 -47.7214 	 8.10114 	 -16.1352
| 38> H 	 -46.0833 	 7.66526 	 -16.5982
| 39> H 	 -49.6551 	 3.58017 	 -20.9432
| 40> H 	 -51.8816 	 8.43163 	 -14.4169
| 41> *
| 42>
| 43>                          ****END OF INPUT****

CARTESIAN COORDINATES (ANGSTROEM)
---------------------------------
  S    -49.943100    5.458060  -19.446900
  C    -49.896200    3.774760  -19.935100
  C    -49.862400    2.935500  -18.856800
  C    -49.988700    3.617810  -17.615500
  C    -50.125200    4.986760  -17.741100
  H    -50.034300    3.233920  -16.620700
  C    -49.736700    1.450690  -18.899000
  H    -50.249400    1.007040  -19.754000
  H    -50.247900    1.017510  -18.003500
  C    -48.288400    0.789152  -18.878800
  H    -48.443900   -0.253439  -18.997300
  H    -47.644400    1.120900  -19.775100
  C    -47.516600    1.173620  -17.621400
  H    -46.599200    0.498070  -17.476400
  H    -47.166600    2.124680  -17.606900
  H    -48.159000    1.038020  -16.714400
  S    -51.872000    7.006050  -16.637000
  C    -51.512300    7.620400  -15.068300
  C    -50.305600    7.143880  -14.665100
  C    -49.750500    6.103570  -15.445500
  C    -50.366400    5.994570  -16.655600
  H    -49.839300    7.582870  -13.787200
  C    -48.411400    5.590470  -15.054800
  H    -48.493200    4.563050  -14.984800
  H    -48.266300    5.896780  -13.998900
  C    -47.276200    6.040370  -15.958600
  H    -47.429300    5.709520  -16.960300
  H    -46.448900    5.420120  -15.660000
  C    -46.880700    7.543480  -15.912100
  H    -46.510400    7.807220  -14.866300
  H    -47.721400    8.101140  -16.135200
  H    -46.083300    7.665260  -16.598200
  H    -49.655100    3.580170  -20.943200
  H    -51.881600    8.431630  -14.416900

 Total Charge           Charge          ....    0
 Multiplicity           Mult            ....    1
 Number of Electrons    NEL             ....  134
 Basis Dimension        Dim             ....  322

ORBITAL ENERGIES
----------------

  NO   OCC          E(Eh)            E(eV)
   0   2.0000     -88.966379     -2420.8983
   1   2.0000     -88.965351     -2420.8703
   2   2.0000     -10.335257      -281.2366
   3   2.0000     -10.330551      -281.1086
   4   2.0000     -10.313657      -280.6489
   5   2.0000     -10.313201      -280.6365
   6   2.0000     -10.302739      -280.3518
   7   2.0000     -10.296290      -280.1763
   8   2.0000     -10.294846      -280.1370
   9   2.0000     -10.294765      -280.1348
  10   2.0000     -10.294439      -280.1259
  11   2.0000     -10.284105      -279.8447
  12   2.0000     -10.282953      -279.8134
  13   2.0000     -10.278557      -279.6937
  14   2.0000     -10.278186      -279.6837
  15   2.0000     -10.272997      -279.5425
  16   2.0000      -8.080346      -219.8774
  17   2.0000      -8.079818      -219.8630
  18   2.0000      -6.039099      -164.3322
  19   2.0000      -6.038277      -164.3099
  20   2.0000      -6.034889      -164.2177
  21   2.0000      -6.034386      -164.2040
  22   2.0000      -6.030925      -164.1098
  23   2.0000      -6.030630      -164.1018
  24   2.0000      -1.005657       -27.3653
  25   2.0000      -0.988230       -26.8911
  26   2.0000      -0.913068       -24.8459
  27   2.0000      -0.906749       -24.6739
  28   2.0000      -0.867340       -23.6015
  29   2.0000      -0.850542       -23.1444
  30   2.0000      -0.845912       -23.0184
  31   2.0000      -0.817361       -22.2415
  32   2.0000      -0.787502       -21.4290
  33   2.0000      -0.775580       -21.1046
  34   2.0000      -0.713561       -19.4170
  35   2.0000      -0.703816       -19.1518
  36   2.0000      -0.690129       -18.7794
  37   2.0000      -0.658874       -17.9289
  38   2.0000      -0.647893       -17.6301
  39   2.0000      -0.614539       -16.7225
  40   2.0000      -0.591670       -16.1002
  41   2.0000      -0.574087       -15.6217
  42   2.0000      -0.557228       -15.1629
  43   2.0000      -0.547036       -14.8856
  44   2.0000      -0.543678       -14.7942
  45   2.0000      -0.541636       -14.7387
  46   2.0000      -0.517056       -14.0698
  47   2.0000      -0.509806       -13.8725
  48   2.0000      -0.502045       -13.6614
  49   2.0000      -0.496856       -13.5201
  50   2.0000      -0.484508       -13.1841
  51   2.0000      -0.483286       -13.1509
  52   2.0000      -0.479483       -13.0474
  53   2.0000      -0.465420       -12.6647
  54   2.0000      -0.460897       -12.5416
  55   2.0000      -0.446621       -12.1532
  56   2.0000      -0.442431       -12.0391
  57   2.0000      -0.436084       -11.8664
  58   2.0000      -0.432216       -11.7612
  59   2.0000      -0.426336       -11.6012
  60   2.0000      -0.418720       -11.3940
  61   2.0000      -0.416585       -11.3358
  62   2.0000      -0.411142       -11.1878
  63   2.0000      -0.346474        -9.4280
  64   2.0000      -0.332728        -9.0540
  65   2.0000      -0.329340        -8.9618
  66   2.0000      -0.298428        -8.1206
  67   0.0000       0.029313         0.7976
  68   0.0000       0.065320         1.7774
  69   0.0000       0.114469         3.1149
  70   0.0000       0.122447         3.3320
  71   0.0000       0.126799         3.4504

MULLIKEN ATOMIC CHARGES
-----------------------
   0 S :    0.093537
   1 C :   -0.110199
   2 C :   -0.036652
   3 C :    0.042083
   4 C :   -0.179922
   5 H :    0.005729
   6 C :    0.014984
   7 H :    0.030184
   8 H :    0.032299
   9 C :   -0.064002
  10 H :    0.029832
  11 H :    0.036678
  12 C :   -0.053856
  13 H :    0.040817
  14 H :    0.024700
  15 H :    0.024319
  16 S :    0.108791
  17 C :   -0.068723
  18 C :   -0.075414
  19 C :   -0.058990
  20 C :   -0.140416
  21 H :    0.015880
  22 C :    0.116033
  23 H :   -0.003173
  24 H :    0.010008
  25 C :   -0.057995
  26 H :    0.025883
  27 H :    0.013098
  28 C :   -0.011802
  29 H :    0.028820
  30 H :    0.032310
  31 H :    0.032278
  32 H :    0.041125
  33 H :    0.061756
Sum of atomic charges:    0.0000000

LOEWDIN ATOMIC CHARGES
----------------------
   0 S :    0.388877
   1 C :   -0.178502
   2 C :   -0.067708
   3 C :   -0.056235
   4 C :   -0.178762
   5 H :    0.029645
   6 C :   -0.036014
   7 H :    0.031200
   8 H :    0.034223
   9 C :   -0.036195
  10 H :    0.018890
  11 H :    0.030369
  12 C :   -0.067144
  13 H :    0.035878
  14 H :    0.009939
  15 H :    0.024715
  16 S :    0.395062
  17 C :   -0.202769
  18 C :   -0.080994
  19 C :   -0.061121
  20 C :   -0.184839
  21 H :    0.028239
  22 C :   -0.026291
  23 H :    0.020639
  24 H :    0.032197
  25 C :   -0.032692
  26 H :    0.020781
  27 H :    0.021361
  28 C :   -0.049317
  29 H :    0.030513
  30 H :    0.015945
  31 H :    0.024081
  32 H :    0.019485
  33 H :    0.046544

  Mayer bond orders larger than 0.100000
B(  0-S ,  1-C ) :   1.1391 B(  0-S ,  4-C ) :   1.1484 B(  1-C ,  2-C ) :   1.6069
B(  1-C , 32-H ) :   0.9774 B(  2-C ,  3-C ) :   1.2195 B(  2-C ,  6-C ) :   1.0271
B(  3-C ,  4-C ) :   1.5979 B(  3-C ,  5-H ) :   0.9989 B(  4-C , 20-C ) :   1.0086
B(  6-C ,  7-H ) :   0.9443 B(  6-C ,  8-H ) :   0.9445 B(  6-C ,  9-C ) :   1.0683
B(  9-C , 10-H ) :   0.9585 B(  9-C , 11-H ) :   0.9557 B(  9-C , 12-C ) :   1.0739
B( 12-C , 13-H ) :   0.9719 B( 12-C , 14-H ) :   0.9755 B( 12-C , 15-H ) :   0.9739
B( 16-S , 17-C ) :   1.1493 B( 16-S , 20-C ) :   1.1164 B( 17-C , 18-C ) :   1.6405
B( 17-C , 33-H ) :   0.9542 B( 18-C , 19-C ) :   1.2340 B( 18-C , 21-H ) :   0.9819
B( 19-C , 20-C ) :   1.6097 B( 19-C , 22-C ) :   1.0484 B( 22-C , 23-H ) :   0.9087
B( 22-C , 24-H ) :   0.9325 B( 22-C , 25-C ) :   1.0839 B( 25-C , 26-H ) :   0.9513
B( 25-C , 27-H ) :   0.9498 B( 25-C , 28-C ) :   1.0708 B( 28-C , 29-H ) :   0.9749
B( 28-C , 30-H ) :   0.9789 B( 28-C , 31-H ) :   0.9738

Dispersion correction           -0.015735975
FINAL SINGLE POINT ENERGY     -1339.867671274702

DIPOLE MOMENT
-------------
                                X             Y             Z
Electronic contribution:    -20.64972      14.19536      -6.84999
Nuclear contribution   :     21.17731     -14.60785       7.14942
                        -----------------------------------------
Total Dipole Moment    :      0.52759      -0.41249       0.29943
                        -----------------------------------------
Magnitude (a.u.)       :      0.73359
Magnitude (Debye)      :      1.86465

Rotational constants in cm-1:     0.020174     0.009043     0.007605
Rotational constants in MHz :   604.802576   271.092566   227.987417

                             ****ORCA TERMINATED NORMALLY****
TOTAL RUN TIME: 0 days 0 hours 0 minutes 22 seconds 743 msec
