                         Program Version 4.2.1 -  RELEASE  -
|  1> ! wB97X-D3 SP def2-SVP
|  2> %pal
|  3> nprocs 24
|  4> end
|  5>
|  6> * xyz 0 1
|  7> S 	 -62.5483 	 13.7665 	 -73.551
|  8> C 	 -64.1644 	 13.0769 	 -73.3407
|  9> C 	 -64.8726 	 13.0314 	 -74.5022
| 10> C 	 -64.0528 	 13.2379 	 -75.6053
| 11> C 	 -62.7191 	 13.599 	 -75.2508
| 12> H 	 -64.3265 	 13.0957 	 -76.6483
| 13> C 	 -66.3508 	 12.6983 	 -74.4462
| 14> H 	 -66.5401 	 11.9638 	 -73.5637
| 15> H 	 -66.6667 	 12.1765 	 -75.322
| 16> C 	 -67.1294 	 14.0041 	 -74.2131
| 17> H 	 -68.2544 	 13.8487 	 -74.0173
| 18> H 	 -66.8559 	 14.3467 	 -73.1842
| 19> C 	 -67.0261 	 15.0664 	 -75.3689
| 20> H 	 -66.011 	 15.2922 	 -75.5857
| 21> H 	 -67.5391 	 14.6832 	 -76.3183
| 22> H 	 -67.5819 	 15.9252 	 -75.1272
| 23> S 	 -60.0735 	 13.0323 	 -75.7959
| 24> C 	 -59.4315 	 13.5568 	 -77.355
| 25> C 	 -60.3915 	 14.3366 	 -78.0778
| 26> C 	 -61.6055 	 14.4302 	 -77.4055
| 27> C 	 -61.586 	 13.8609 	 -76.1737
| 28> H 	 -60.2267 	 14.81 	 -79.0367
| 29> C 	 -62.8147 	 15.1368 	 -78.1417
| 30> H 	 -62.4428 	 16.146 	 -78.3636
| 31> H 	 -63.544 	 15.3466 	 -77.3168
| 32> C 	 -63.4463 	 14.3902 	 -79.3115
| 33> H 	 -63.8214 	 13.44 	 -78.9171
| 34> H 	 -62.6105 	 14.1121 	 -80.0066
| 35> C 	 -64.4616 	 15.2494 	 -80.0706
| 36> H 	 -64.8993 	 15.8467 	 -79.2762
| 37> H 	 -65.3039 	 14.6595 	 -80.4125
| 38> H 	 -64.0185 	 15.9463 	 -80.8173
| 39> H 	 -64.6585 	 12.911 	 -72.366
| 40> H 	 -58.4007 	 13.395 	 -77.5992
| 41> *
| 42>
| 43>                          ****END OF INPUT****

CARTESIAN COORDINATES (ANGSTROEM)
---------------------------------
  S    -62.548300   13.766500  -73.551000
  C    -64.164400   13.076900  -73.340700
  C    -64.872600   13.031400  -74.502200
  C    -64.052800   13.237900  -75.605300
  C    -62.719100   13.599000  -75.250800
  H    -64.326500   13.095700  -76.648300
  C    -66.350800   12.698300  -74.446200
  H    -66.540100   11.963800  -73.563700
  H    -66.666700   12.176500  -75.322000
  C    -67.129400   14.004100  -74.213100
  H    -68.254400   13.848700  -74.017300
  H    -66.855900   14.346700  -73.184200
  C    -67.026100   15.066400  -75.368900
  H    -66.011000   15.292200  -75.585700
  H    -67.539100   14.683200  -76.318300
  H    -67.581900   15.925200  -75.127200
  S    -60.073500   13.032300  -75.795900
  C    -59.431500   13.556800  -77.355000
  C    -60.391500   14.336600  -78.077800
  C    -61.605500   14.430200  -77.405500
  C    -61.586000   13.860900  -76.173700
  H    -60.226700   14.810000  -79.036700
  C    -62.814700   15.136800  -78.141700
  H    -62.442800   16.146000  -78.363600
  H    -63.544000   15.346600  -77.316800
  C    -63.446300   14.390200  -79.311500
  H    -63.821400   13.440000  -78.917100
  H    -62.610500   14.112100  -80.006600
  C    -64.461600   15.249400  -80.070600
  H    -64.899300   15.846700  -79.276200
  H    -65.303900   14.659500  -80.412500
  H    -64.018500   15.946300  -80.817300
  H    -64.658500   12.911000  -72.366000
  H    -58.400700   13.395000  -77.599200

 Total Charge           Charge          ....    0
 Multiplicity           Mult            ....    1
 Number of Electrons    NEL             ....  134
 Basis Dimension        Dim             ....  322

ORBITAL ENERGIES
----------------

  NO   OCC          E(Eh)            E(eV)
   0   2.0000     -88.969150     -2420.9737
   1   2.0000     -88.969000     -2420.9696
   2   2.0000     -10.330610      -281.1102
   3   2.0000     -10.325380      -280.9679
   4   2.0000     -10.324084      -280.9326
   5   2.0000     -10.309482      -280.5353
   6   2.0000     -10.299692      -280.2689
   7   2.0000     -10.298806      -280.2448
   8   2.0000     -10.298534      -280.2374
   9   2.0000     -10.298363      -280.2327
  10   2.0000     -10.296995      -280.1955
  11   2.0000     -10.295385      -280.1517
  12   2.0000     -10.294845      -280.1370
  13   2.0000     -10.294119      -280.1172
  14   2.0000     -10.283138      -279.8184
  15   2.0000     -10.280428      -279.7447
  16   2.0000      -8.083794      -219.9712
  17   2.0000      -8.083311      -219.9581
  18   2.0000      -6.042072      -164.4131
  19   2.0000      -6.041741      -164.4041
  20   2.0000      -6.038417      -164.3137
  21   2.0000      -6.037908      -164.2998
  22   2.0000      -6.034683      -164.2121
  23   2.0000      -6.034184      -164.1985
  24   2.0000      -1.007414       -27.4131
  25   2.0000      -0.985463       -26.8158
  26   2.0000      -0.911044       -24.7908
  27   2.0000      -0.907743       -24.7009
  28   2.0000      -0.859777       -23.3957
  29   2.0000      -0.855583       -23.2816
  30   2.0000      -0.842653       -22.9298
  31   2.0000      -0.808159       -21.9911
  32   2.0000      -0.784038       -21.3347
  33   2.0000      -0.772878       -21.0311
  34   2.0000      -0.701830       -19.0978
  35   2.0000      -0.698844       -19.0165
  36   2.0000      -0.694191       -18.8899
  37   2.0000      -0.669036       -18.2054
  38   2.0000      -0.634823       -17.2744
  39   2.0000      -0.612227       -16.6595
  40   2.0000      -0.594124       -16.1669
  41   2.0000      -0.571717       -15.5572
  42   2.0000      -0.564664       -15.3653
  43   2.0000      -0.551418       -15.0048
  44   2.0000      -0.533291       -14.5116
  45   2.0000      -0.523166       -14.2361
  46   2.0000      -0.516113       -14.0441
  47   2.0000      -0.512214       -13.9380
  48   2.0000      -0.500236       -13.6121
  49   2.0000      -0.493954       -13.4412
  50   2.0000      -0.483211       -13.1488
  51   2.0000      -0.481000       -13.0887
  52   2.0000      -0.474372       -12.9083
  53   2.0000      -0.464776       -12.6472
  54   2.0000      -0.458843       -12.4858
  55   2.0000      -0.453222       -12.3328
  56   2.0000      -0.446633       -12.1535
  57   2.0000      -0.437258       -11.8984
  58   2.0000      -0.434000       -11.8097
  59   2.0000      -0.427997       -11.6464
  60   2.0000      -0.422587       -11.4992
  61   2.0000      -0.414287       -11.2733
  62   2.0000      -0.409312       -11.1379
  63   2.0000      -0.341952        -9.3050
  64   2.0000      -0.338640        -9.2149
  65   2.0000      -0.335396        -9.1266
  66   2.0000      -0.286349        -7.7920
  67   0.0000       0.025059         0.6819
  68   0.0000       0.069354         1.8872
  69   0.0000       0.105877         2.8811
  70   0.0000       0.117174         3.1885
  71   0.0000       0.125849         3.4245

MULLIKEN ATOMIC CHARGES
-----------------------
   0 S :    0.119706
   1 C :   -0.133284
   2 C :   -0.076593
   3 C :    0.024333
   4 C :   -0.166205
   5 H :   -0.005796
   6 C :    0.063234
   7 H :    0.046433
   8 H :    0.018160
   9 C :   -0.107339
  10 H :    0.033426
  11 H :    0.026754
  12 C :   -0.035261
  13 H :    0.045077
  14 H :    0.033332
  15 H :    0.028743
  16 S :    0.110557
  17 C :   -0.101530
  18 C :   -0.021149
  19 C :   -0.047862
  20 C :   -0.141760
  21 H :    0.017951
  22 C :    0.020237
  23 H :    0.029304
  24 H :    0.030846
  25 C :   -0.068962
  26 H :    0.033621
  27 H :    0.031404
  28 C :   -0.024264
  29 H :    0.019089
  30 H :    0.036176
  31 H :    0.053527
  32 H :    0.049488
  33 H :    0.058606
Sum of atomic charges:   -0.0000000

LOEWDIN ATOMIC CHARGES
----------------------
   0 S :    0.416145
   1 C :   -0.196600
   2 C :   -0.067835
   3 C :   -0.068979
   4 C :   -0.199682
   5 H :    0.028443
   6 C :   -0.030130
   7 H :    0.044223
   8 H :    0.020943
   9 C :   -0.049238
  10 H :    0.027602
  11 H :    0.023816
  12 C :   -0.061145
  13 H :    0.019421
  14 H :    0.033809
  15 H :    0.021319
  16 S :    0.401830
  17 C :   -0.176074
  18 C :   -0.063722
  19 C :   -0.062556
  20 C :   -0.199192
  21 H :    0.031219
  22 C :   -0.035098
  23 H :    0.029870
  24 H :    0.029620
  25 C :   -0.045128
  26 H :    0.024584
  27 H :    0.027458
  28 C :   -0.066859
  29 H :    0.025956
  30 H :    0.029479
  31 H :    0.035043
  32 H :    0.029333
  33 H :    0.022125

  Mayer bond orders larger than 0.100000
B(  0-S ,  1-C ) :   1.1363 B(  0-S ,  4-C ) :   1.1879 B(  1-C ,  2-C ) :   1.6006
B(  1-C ,  4-C ) :   0.1039 B(  1-C , 32-H ) :   0.9593 B(  2-C ,  3-C ) :   1.2730
B(  2-C ,  6-C ) :   1.0098 B(  3-C ,  4-C ) :   1.5182 B(  3-C ,  5-H ) :   0.9985
B(  4-C , 20-C ) :   1.0114 B(  6-C ,  7-H ) :   0.9467 B(  6-C ,  8-H ) :   0.9459
B(  6-C ,  9-C ) :   1.0564 B(  9-C , 10-H ) :   0.9570 B(  9-C , 11-H ) :   0.9569
B(  9-C , 12-C ) :   1.0644 B( 12-C , 13-H ) :   0.9773 B( 12-C , 14-H ) :   0.9734
B( 12-C , 15-H ) :   0.9728 B( 16-S , 17-C ) :   1.1694 B( 16-S , 20-C ) :   1.1408
B( 17-C , 18-C ) :   1.5543 B( 17-C , 20-C ) :   0.1111 B( 17-C , 33-H ) :   0.9734
B( 18-C , 19-C ) :   1.2727 B( 18-C , 21-H ) :   0.9888 B( 19-C , 20-C ) :   1.6264
B( 19-C , 22-C ) :   1.0132 B( 22-C , 23-H ) :   0.9402 B( 22-C , 24-H ) :   0.9285
B( 22-C , 25-C ) :   1.0618 B( 25-C , 26-H ) :   0.9500 B( 25-C , 27-H ) :   0.9548
B( 25-C , 28-C ) :   1.0688 B( 28-C , 29-H ) :   0.9734 B( 28-C , 30-H ) :   0.9731
B( 28-C , 31-H ) :   0.9745

Dispersion correction           -0.015078454
FINAL SINGLE POINT ENERGY     -1339.874274835868

DIPOLE MOMENT
-------------
                                X             Y             Z
Electronic contribution:     26.22751      -7.88513      14.93564
Nuclear contribution   :    -26.73017       8.06018     -15.36622
                        -----------------------------------------
Total Dipole Moment    :     -0.50266       0.17505      -0.43058
                        -----------------------------------------
Magnitude (a.u.)       :      0.68462
Magnitude (Debye)      :      1.74017

Rotational constants in cm-1:     0.016973     0.010448     0.006884
Rotational constants in MHz :   508.824825   313.221994   206.385126

                             ****ORCA TERMINATED NORMALLY****
TOTAL RUN TIME: 0 days 0 hours 0 minutes 22 seconds 449 msec
