                         Program Version 4.2.1 -  RELEASE  -
|  1> ! wB97X-D3 SP def2-SVP
|  2> %pal
|  3> nprocs 24
|  4> end
|  5>
|  6> * xyz 0 1
|  7> S 	 -100.469 	 48.4971 	 -99.6026
|  8> C 	 -101.539 	 49.8154 	 -99.2177
|  9> C 	 -101.079 	 51.0231 	 -99.7166
| 10> C 	 -99.696 	 50.8583 	 -100.233
| 11> C 	 -99.2825 	 49.547 	 -100.207
| 12> H 	 -99.0271 	 51.6559 	 -100.651
| 13> C 	 -101.742 	 52.3562 	 -99.7026
| 14> H 	 -101.225 	 52.9815 	 -99.0304
| 15> H 	 -102.734 	 52.2273 	 -99.3359
| 16> C 	 -101.786 	 53.0971 	 -101.073
| 17> H 	 -100.798 	 53.1263 	 -101.51
| 18> H 	 -102.465 	 52.5939 	 -101.776
| 19> C 	 -102.255 	 54.525 	 -100.856
| 20> H 	 -101.66 	 55.0261 	 -100.063
| 21> H 	 -102.173 	 55.0436 	 -101.762
| 22> H 	 -103.301 	 54.5937 	 -100.555
| 23> S 	 -96.7652 	 48.5044 	 -99.932
| 24> C 	 -95.6202 	 48.7741 	 -101.155
| 25> C 	 -96.22 	 49.168 	 -102.312
| 26> C 	 -97.6505 	 49.3435 	 -102.198
| 27> C 	 -98.0409 	 49.1654 	 -100.881
| 28> H 	 -95.7282 	 49.3646 	 -103.216
| 29> C 	 -98.443 	 49.9998 	 -103.253
| 30> H 	 -97.8204 	 50.0407 	 -104.158
| 31> H 	 -98.5649 	 51.0305 	 -102.978
| 32> C 	 -99.7985 	 49.2127 	 -103.599
| 33> H 	 -100.578 	 49.274 	 -102.781
| 34> H 	 -99.6611 	 48.1545 	 -103.849
| 35> C 	 -100.577 	 49.8726 	 -104.769
| 36> H 	 -100.169 	 49.5733 	 -105.708
| 37> H 	 -100.617 	 50.9605 	 -104.702
| 38> H 	 -101.589 	 49.5856 	 -104.755
| 39> H 	 -102.482 	 49.7046 	 -98.7856
| 40> H 	 -94.5879 	 48.4532 	 -101.167
| 41> *
| 42>
| 43>                          ****END OF INPUT****

CARTESIAN COORDINATES (ANGSTROEM)
---------------------------------
  S    -100.469000   48.497100  -99.602600
  C    -101.539000   49.815400  -99.217700
  C    -101.079000   51.023100  -99.716600
  C    -99.696000   50.858300  -100.233000
  C    -99.282500   49.547000  -100.207000
  H    -99.027100   51.655900  -100.651000
  C    -101.742000   52.356200  -99.702600
  H    -101.225000   52.981500  -99.030400
  H    -102.734000   52.227300  -99.335900
  C    -101.786000   53.097100  -101.073000
  H    -100.798000   53.126300  -101.510000
  H    -102.465000   52.593900  -101.776000
  C    -102.255000   54.525000  -100.856000
  H    -101.660000   55.026100  -100.063000
  H    -102.173000   55.043600  -101.762000
  H    -103.301000   54.593700  -100.555000
  S    -96.765200   48.504400  -99.932000
  C    -95.620200   48.774100  -101.155000
  C    -96.220000   49.168000  -102.312000
  C    -97.650500   49.343500  -102.198000
  C    -98.040900   49.165400  -100.881000
  H    -95.728200   49.364600  -103.216000
  C    -98.443000   49.999800  -103.253000
  H    -97.820400   50.040700  -104.158000
  H    -98.564900   51.030500  -102.978000
  C    -99.798500   49.212700  -103.599000
  H    -100.578000   49.274000  -102.781000
  H    -99.661100   48.154500  -103.849000
  C    -100.577000   49.872600  -104.769000
  H    -100.169000   49.573300  -105.708000
  H    -100.617000   50.960500  -104.702000
  H    -101.589000   49.585600  -104.755000
  H    -102.482000   49.704600  -98.785600
  H    -94.587900   48.453200  -101.167000

 Total Charge           Charge          ....    0
 Multiplicity           Mult            ....    1
 Number of Electrons    NEL             ....  134
 Basis Dimension        Dim             ....  322

ORBITAL ENERGIES
----------------

  NO   OCC          E(Eh)            E(eV)
   0   2.0000     -88.965780     -2420.8820
   1   2.0000     -88.960832     -2420.7473
   2   2.0000     -10.321384      -280.8591
   3   2.0000     -10.318312      -280.7756
   4   2.0000     -10.309517      -280.5362
   5   2.0000     -10.308828      -280.5175
   6   2.0000     -10.303877      -280.3828
   7   2.0000     -10.296260      -280.1755
   8   2.0000     -10.296037      -280.1694
   9   2.0000     -10.292574      -280.0752
  10   2.0000     -10.291254      -280.0393
  11   2.0000     -10.289212      -279.9837
  12   2.0000     -10.286252      -279.9031
  13   2.0000     -10.285169      -279.8737
  14   2.0000     -10.276207      -279.6298
  15   2.0000     -10.267228      -279.3855
  16   2.0000      -8.081400      -219.9061
  17   2.0000      -8.077269      -219.7937
  18   2.0000      -6.039911      -164.3543
  19   2.0000      -6.035795      -164.2423
  20   2.0000      -6.035645      -164.2382
  21   2.0000      -6.032087      -164.1414
  22   2.0000      -6.031459      -164.1243
  23   2.0000      -6.028156      -164.0345
  24   2.0000      -1.012502       -27.5516
  25   2.0000      -0.989236       -26.9185
  26   2.0000      -0.916673       -24.9439
  27   2.0000      -0.902840       -24.5675
  28   2.0000      -0.871492       -23.7145
  29   2.0000      -0.852225       -23.1902
  30   2.0000      -0.848642       -23.0927
  31   2.0000      -0.814022       -22.1507
  32   2.0000      -0.782790       -21.3008
  33   2.0000      -0.771673       -20.9983
  34   2.0000      -0.708080       -19.2678
  35   2.0000      -0.700605       -19.0644
  36   2.0000      -0.688537       -18.7361
  37   2.0000      -0.663677       -18.0596
  38   2.0000      -0.643486       -17.5102
  39   2.0000      -0.616995       -16.7893
  40   2.0000      -0.594880       -16.1875
  41   2.0000      -0.575788       -15.6680
  42   2.0000      -0.566007       -15.4018
  43   2.0000      -0.558345       -15.1933
  44   2.0000      -0.528459       -14.3801
  45   2.0000      -0.523597       -14.2478
  46   2.0000      -0.516485       -14.0543
  47   2.0000      -0.507714       -13.8156
  48   2.0000      -0.506617       -13.7858
  49   2.0000      -0.501447       -13.6451
  50   2.0000      -0.500032       -13.6066
  51   2.0000      -0.489312       -13.3148
  52   2.0000      -0.467459       -12.7202
  53   2.0000      -0.466625       -12.6975
  54   2.0000      -0.457357       -12.4453
  55   2.0000      -0.451905       -12.2970
  56   2.0000      -0.440792       -11.9946
  57   2.0000      -0.439149       -11.9498
  58   2.0000      -0.436148       -11.8682
  59   2.0000      -0.427751       -11.6397
  60   2.0000      -0.423649       -11.5281
  61   2.0000      -0.418441       -11.3864
  62   2.0000      -0.410309       -11.1651
  63   2.0000      -0.335630        -9.1330
  64   2.0000      -0.325841        -8.8666
  65   2.0000      -0.324160        -8.8209
  66   2.0000      -0.304572        -8.2878
  67   0.0000       0.043054         1.1716
  68   0.0000       0.070573         1.9204
  69   0.0000       0.115219         3.1353
  70   0.0000       0.124813         3.3963
  71   0.0000       0.130017         3.5379

MULLIKEN ATOMIC CHARGES
-----------------------
   0 S :    0.125097
   1 C :   -0.099010
   2 C :   -0.089455
   3 C :   -0.008304
   4 C :   -0.130316
   5 H :    0.038553
   6 C :    0.111495
   7 H :    0.020875
   8 H :    0.003860
   9 C :   -0.098751
  10 H :    0.027447
  11 H :    0.035851
  12 C :   -0.029467
  13 H :    0.030702
  14 H :    0.023879
  15 H :    0.028300
  16 S :    0.123435
  17 C :   -0.068881
  18 C :   -0.034402
  19 C :   -0.021731
  20 C :   -0.198738
  21 H :   -0.006309
  22 C :    0.075581
  23 H :    0.013208
  24 H :    0.028914
  25 C :   -0.112403
  26 H :    0.052978
  27 H :    0.039927
  28 C :   -0.018044
  29 H :    0.021341
  30 H :    0.021115
  31 H :    0.016641
  32 H :    0.020985
  33 H :    0.055627
Sum of atomic charges:    0.0000000

LOEWDIN ATOMIC CHARGES
----------------------
   0 S :    0.429728
   1 C :   -0.196889
   2 C :   -0.053116
   3 C :   -0.066618
   4 C :   -0.219562
   5 H :    0.038032
   6 C :   -0.026801
   7 H :    0.027725
   8 H :    0.025389
   9 C :   -0.032687
  10 H :    0.019928
  11 H :    0.027032
  12 C :   -0.061868
  13 H :    0.027722
  14 H :    0.019269
  15 H :    0.025228
  16 S :    0.438771
  17 C :   -0.203596
  18 C :   -0.068087
  19 C :   -0.057065
  20 C :   -0.209056
  21 H :    0.019518
  22 C :   -0.030691
  23 H :    0.030589
  24 H :    0.030563
  25 C :   -0.036645
  26 H :    0.032209
  27 H :    0.027501
  28 C :   -0.063704
  29 H :    0.016817
  30 H :    0.023119
  31 H :    0.019257
  32 H :    0.015614
  33 H :    0.032373

  Mayer bond orders larger than 0.100000
B(  0-S ,  1-C ) :   1.1275 B(  0-S ,  4-C ) :   1.1638 B(  1-C ,  2-C ) :   1.6290
B(  1-C , 32-H ) :   0.9747 B(  2-C ,  3-C ) :   1.1998 B(  2-C ,  6-C ) :   1.0424
B(  3-C ,  4-C ) :   1.5986 B(  3-C ,  5-H ) :   0.9837 B(  4-C , 20-C ) :   1.0034
B(  6-C ,  7-H ) :   0.9349 B(  6-C ,  8-H ) :   0.9341 B(  6-C ,  9-C ) :   1.0617
B(  9-C , 10-H ) :   0.9559 B(  9-C , 11-H ) :   0.9540 B(  9-C , 12-C ) :   1.0929
B( 12-C , 13-H ) :   0.9733 B( 12-C , 14-H ) :   0.9716 B( 12-C , 15-H ) :   0.9730
B( 16-S , 17-C ) :   1.1665 B( 16-S , 20-C ) :   1.1620 B( 17-C , 18-C ) :   1.5957
B( 17-C , 33-H ) :   0.9650 B( 18-C , 19-C ) :   1.2563 B( 18-C , 21-H ) :   0.9968
B( 19-C , 20-C ) :   1.5746 B( 19-C , 22-C ) :   1.0623 B( 22-C , 23-H ) :   0.9314
B( 22-C , 24-H ) :   0.9310 B( 22-C , 25-C ) :   1.0417 B( 25-C , 26-H ) :   0.9609
B( 25-C , 27-H ) :   0.9622 B( 25-C , 28-C ) :   1.0830 B( 28-C , 29-H ) :   0.9766
B( 28-C , 30-H ) :   0.9730 B( 28-C , 31-H ) :   0.9753

Dispersion correction           -0.015187231
FINAL SINGLE POINT ENERGY     -1339.882300054243

DIPOLE MOMENT
-------------
                                X             Y             Z
Electronic contribution:     15.36792     -20.87013      17.09082
Nuclear contribution   :    -15.61003      21.45141     -17.55701
                        -----------------------------------------
Total Dipole Moment    :     -0.24211       0.58128      -0.46619
                        -----------------------------------------
Magnitude (a.u.)       :      0.78348
Magnitude (Debye)      :      1.99144

Rotational constants in cm-1:     0.018056     0.009205     0.007737
Rotational constants in MHz :   541.296285   275.955817   231.938851

                             ****ORCA TERMINATED NORMALLY****
TOTAL RUN TIME: 0 days 0 hours 0 minutes 22 seconds 604 msec
