                         Program Version 4.2.1 -  RELEASE  -
|  1> ! wB97X-D3 SP def2-SVP
|  2> %pal
|  3> nprocs 24
|  4> end
|  5>
|  6> * xyz 0 1
|  7> S 	 -45.0317 	 -4.66474 	 -11.4706
|  8> C 	 -46.153 	 -4.64884 	 -10.1671
|  9> C 	 -46.7318 	 -3.39697 	 -10.0101
| 10> C 	 -46.1645 	 -2.38931 	 -10.8115
| 11> C 	 -45.219 	 -2.87516 	 -11.6728
| 12> H 	 -46.516 	 -1.32645 	 -10.6961
| 13> C 	 -47.8049 	 -2.99134 	 -9.00574
| 14> H 	 -47.7552 	 -1.87814 	 -8.74363
| 15> H 	 -47.4109 	 -3.41166 	 -8.09112
| 16> C 	 -49.171 	 -3.53036 	 -9.29661
| 17> H 	 -49.1207 	 -4.61467 	 -9.36683
| 18> H 	 -49.746 	 -3.26084 	 -8.35959
| 19> C 	 -49.8374 	 -3.09712 	 -10.6054
| 20> H 	 -49.2876 	 -3.44658 	 -11.4836
| 21> H 	 -50.8782 	 -3.42068 	 -10.7531
| 22> H 	 -49.9648 	 -2.02452 	 -10.7985
| 23> S 	 -43.3386 	 -0.839211 	 -11.8299
| 24> C 	 -42.6077 	 -0.401178 	 -13.3075
| 25> C 	 -43.0013 	 -1.25849 	 -14.3301
| 26> C 	 -44.1269 	 -2.06282 	 -13.9284
| 27> C 	 -44.3674 	 -2.08054 	 -12.5561
| 28> H 	 -42.5065 	 -1.25823 	 -15.3122
| 29> C 	 -44.7174 	 -3.07733 	 -14.8573
| 30> H 	 -45.0323 	 -3.93945 	 -14.257
| 31> H 	 -43.9549 	 -3.49219 	 -15.4606
| 32> C 	 -45.9942 	 -2.5903 	 -15.6284
| 33> H 	 -46.7411 	 -2.16628 	 -14.9506
| 34> H 	 -46.4258 	 -3.40463 	 -16.1274
| 35> C 	 -45.7309 	 -1.58804 	 -16.7215
| 36> H 	 -46.5729 	 -1.28161 	 -17.1418
| 37> H 	 -45.1576 	 -2.05915 	 -17.5384
| 38> H 	 -45.2526 	 -0.734265 	 -16.317
| 39> H 	 -46.2874 	 -5.43573 	 -9.44461
| 40> H 	 -41.7347 	 0.224793 	 -13.4342
| 41> *
| 42>
| 43>                          ****END OF INPUT****

CARTESIAN COORDINATES (ANGSTROEM)
---------------------------------
  S    -45.031700   -4.664740  -11.470600
  C    -46.153000   -4.648840  -10.167100
  C    -46.731800   -3.396970  -10.010100
  C    -46.164500   -2.389310  -10.811500
  C    -45.219000   -2.875160  -11.672800
  H    -46.516000   -1.326450  -10.696100
  C    -47.804900   -2.991340   -9.005740
  H    -47.755200   -1.878140   -8.743630
  H    -47.410900   -3.411660   -8.091120
  C    -49.171000   -3.530360   -9.296610
  H    -49.120700   -4.614670   -9.366830
  H    -49.746000   -3.260840   -8.359590
  C    -49.837400   -3.097120  -10.605400
  H    -49.287600   -3.446580  -11.483600
  H    -50.878200   -3.420680  -10.753100
  H    -49.964800   -2.024520  -10.798500
  S    -43.338600   -0.839211  -11.829900
  C    -42.607700   -0.401178  -13.307500
  C    -43.001300   -1.258490  -14.330100
  C    -44.126900   -2.062820  -13.928400
  C    -44.367400   -2.080540  -12.556100
  H    -42.506500   -1.258230  -15.312200
  C    -44.717400   -3.077330  -14.857300
  H    -45.032300   -3.939450  -14.257000
  H    -43.954900   -3.492190  -15.460600
  C    -45.994200   -2.590300  -15.628400
  H    -46.741100   -2.166280  -14.950600
  H    -46.425800   -3.404630  -16.127400
  C    -45.730900   -1.588040  -16.721500
  H    -46.572900   -1.281610  -17.141800
  H    -45.157600   -2.059150  -17.538400
  H    -45.252600   -0.734265  -16.317000
  H    -46.287400   -5.435730   -9.444610
  H    -41.734700    0.224793  -13.434200

 Total Charge           Charge          ....    0
 Multiplicity           Mult            ....    1
 Number of Electrons    NEL             ....  134
 Basis Dimension        Dim             ....  322

ORBITAL ENERGIES
----------------

  NO   OCC          E(Eh)            E(eV)
   0   2.0000     -88.971416     -2421.0353
   1   2.0000     -88.963092     -2420.8088
   2   2.0000     -10.334384      -281.2129
   3   2.0000     -10.326119      -280.9880
   4   2.0000     -10.314971      -280.6846
   5   2.0000     -10.313449      -280.6432
   6   2.0000     -10.299623      -280.2670
   7   2.0000     -10.297052      -280.1970
   8   2.0000     -10.296203      -280.1739
   9   2.0000     -10.294668      -280.1322
  10   2.0000     -10.293906      -280.1114
  11   2.0000     -10.292074      -280.0616
  12   2.0000     -10.281601      -279.7766
  13   2.0000     -10.277194      -279.6567
  14   2.0000     -10.275312      -279.6055
  15   2.0000     -10.255514      -279.0667
  16   2.0000      -8.085208      -220.0097
  17   2.0000      -8.078202      -219.8191
  18   2.0000      -6.043778      -164.4596
  19   2.0000      -6.039831      -164.3521
  20   2.0000      -6.036668      -164.2661
  21   2.0000      -6.035981      -164.2474
  22   2.0000      -6.032493      -164.1525
  23   2.0000      -6.029147      -164.0614
  24   2.0000      -1.005745       -27.3677
  25   2.0000      -0.986446       -26.8426
  26   2.0000      -0.912712       -24.8362
  27   2.0000      -0.906287       -24.6613
  28   2.0000      -0.869412       -23.6579
  29   2.0000      -0.853191       -23.2165
  30   2.0000      -0.847717       -23.0676
  31   2.0000      -0.812972       -22.1221
  32   2.0000      -0.784733       -21.3537
  33   2.0000      -0.772514       -21.0212
  34   2.0000      -0.707961       -19.2646
  35   2.0000      -0.700689       -19.0667
  36   2.0000      -0.690140       -18.7797
  37   2.0000      -0.660162       -17.9639
  38   2.0000      -0.637375       -17.3439
  39   2.0000      -0.615373       -16.7452
  40   2.0000      -0.591106       -16.0848
  41   2.0000      -0.574718       -15.6389
  42   2.0000      -0.552755       -15.0412
  43   2.0000      -0.547191       -14.8898
  44   2.0000      -0.545190       -14.8354
  45   2.0000      -0.542567       -14.7640
  46   2.0000      -0.518052       -14.0969
  47   2.0000      -0.511436       -13.9169
  48   2.0000      -0.502925       -13.6853
  49   2.0000      -0.492966       -13.4143
  50   2.0000      -0.486423       -13.2362
  51   2.0000      -0.479976       -13.0608
  52   2.0000      -0.470503       -12.8030
  53   2.0000      -0.467594       -12.7239
  54   2.0000      -0.465072       -12.6552
  55   2.0000      -0.446719       -12.1558
  56   2.0000      -0.440058       -11.9746
  57   2.0000      -0.438052       -11.9200
  58   2.0000      -0.429631       -11.6909
  59   2.0000      -0.418874       -11.3981
  60   2.0000      -0.415055       -11.2942
  61   2.0000      -0.412393       -11.2218
  62   2.0000      -0.410329       -11.1656
  63   2.0000      -0.345769        -9.4089
  64   2.0000      -0.332710        -9.0535
  65   2.0000      -0.326694        -8.8898
  66   2.0000      -0.292558        -7.9609
  67   0.0000       0.032298         0.8789
  68   0.0000       0.056193         1.5291
  69   0.0000       0.105277         2.8647
  70   0.0000       0.119802         3.2600
  71   0.0000       0.121366         3.3025

MULLIKEN ATOMIC CHARGES
-----------------------
   0 S :    0.120897
   1 C :   -0.117557
   2 C :   -0.108777
   3 C :    0.012472
   4 C :   -0.141599
   5 H :    0.040138
   6 C :    0.047280
   7 H :    0.034910
   8 H :    0.019962
   9 C :   -0.048313
  10 H :    0.029510
  11 H :    0.039942
  12 C :   -0.064651
  13 H :    0.041023
  14 H :    0.032039
  15 H :    0.020440
  16 S :    0.112327
  17 C :   -0.083925
  18 C :   -0.055808
  19 C :   -0.042934
  20 C :   -0.151191
  21 H :    0.035386
  22 C :    0.060687
  23 H :    0.009453
  24 H :    0.012906
  25 C :   -0.053347
  26 H :    0.029959
  27 H :    0.012183
  28 C :    0.017740
  29 H :   -0.006938
  30 H :    0.018434
  31 H :    0.020677
  32 H :    0.047070
  33 H :    0.059604
Sum of atomic charges:    0.0000000

LOEWDIN ATOMIC CHARGES
----------------------
   0 S :    0.405150
   1 C :   -0.206732
   2 C :   -0.067624
   3 C :   -0.061885
   4 C :   -0.179085
   5 H :    0.046372
   6 C :   -0.039957
   7 H :    0.036477
   8 H :    0.031442
   9 C :   -0.044027
  10 H :    0.027018
  11 H :    0.032771
  12 C :   -0.077299
  13 H :    0.029771
  14 H :    0.029809
  15 H :    0.023035
  16 S :    0.421941
  17 C :   -0.203808
  18 C :   -0.074787
  19 C :   -0.059961
  20 C :   -0.196908
  21 H :    0.036034
  22 C :   -0.031374
  23 H :    0.023432
  24 H :    0.023934
  25 C :   -0.027648
  26 H :    0.027040
  27 H :    0.015949
  28 C :   -0.051985
  29 H :    0.005767
  30 H :    0.026578
  31 H :    0.019897
  32 H :    0.028812
  33 H :    0.031853

  Mayer bond orders larger than 0.100000
B(  0-S ,  1-C ) :   1.1467 B(  0-S ,  4-C ) :   1.1352 B(  1-C ,  2-C ) :   1.6024
B(  1-C , 32-H ) :   0.9662 B(  2-C ,  3-C ) :   1.2603 B(  2-C ,  6-C ) :   0.9991
B(  3-C ,  4-C ) :   1.5613 B(  3-C ,  5-H ) :   0.9895 B(  4-C , 20-C ) :   1.0351
B(  6-C ,  7-H ) :   0.9475 B(  6-C ,  8-H ) :   0.9326 B(  6-C ,  9-C ) :   1.0797
B(  9-C , 10-H ) :   0.9539 B(  9-C , 11-H ) :   0.9530 B(  9-C , 12-C ) :   1.0701
B( 12-C , 13-H ) :   0.9716 B( 12-C , 14-H ) :   0.9741 B( 12-C , 15-H ) :   0.9755
B( 16-S , 17-C ) :   1.1763 B( 16-S , 20-C ) :   1.1378 B( 17-C , 18-C ) :   1.5894
B( 17-C , 33-H ) :   0.9636 B( 18-C , 19-C ) :   1.2455 B( 18-C , 21-H ) :   0.9849
B( 19-C , 20-C ) :   1.5828 B( 19-C , 22-C ) :   1.0460 B( 22-C , 23-H ) :   0.9333
B( 22-C , 24-H ) :   0.9438 B( 22-C , 25-C ) :   1.0634 B( 25-C , 26-H ) :   0.9565
B( 25-C , 27-H ) :   0.9545 B( 25-C , 28-C ) :   1.0938 B( 28-C , 29-H ) :   0.9659
B( 28-C , 30-H ) :   0.9723 B( 28-C , 31-H ) :   0.9717

Dispersion correction           -0.014673303
FINAL SINGLE POINT ENERGY     -1339.868211518718

DIPOLE MOMENT
-------------
                                X             Y             Z
Electronic contribution:     20.32004      -0.26905       8.28319
Nuclear contribution   :    -20.58641       0.21756      -8.25898
                        -----------------------------------------
Total Dipole Moment    :     -0.26636      -0.05150       0.02421
                        -----------------------------------------
Magnitude (a.u.)       :      0.27237
Magnitude (Debye)      :      0.69231

Rotational constants in cm-1:     0.019911     0.008229     0.007191
Rotational constants in MHz :   596.928692   246.686730   215.567204

                             ****ORCA TERMINATED NORMALLY****
TOTAL RUN TIME: 0 days 0 hours 0 minutes 21 seconds 504 msec
