                         Program Version 4.2.1 -  RELEASE  -
|  1> ! wB97X-D3 SP def2-SVP
|  2> %pal
|  3> nprocs 24
|  4> end
|  5>
|  6> * xyz 0 1
|  7> S 	 -37.7758 	 18.6097 	 25.8221
|  8> C 	 -37.5632 	 17.2777 	 26.9277
|  9> C 	 -37.2644 	 17.7602 	 28.1929
| 10> C 	 -37.1562 	 19.1614 	 28.2287
| 11> C 	 -37.1093 	 19.7483 	 26.9804
| 12> H 	 -37.0076 	 19.6813 	 29.1327
| 13> C 	 -37.1108 	 16.8843 	 29.4382
| 14> H 	 -36.6089 	 17.3459 	 30.253
| 15> H 	 -36.5368 	 16.0552 	 29.1715
| 16> C 	 -38.5016 	 16.5217 	 30.0741
| 17> H 	 -38.9507 	 17.5053 	 30.4094
| 18> H 	 -39.2241 	 16.0551 	 29.4067
| 19> C 	 -38.4764 	 15.6943 	 31.3653
| 20> H 	 -37.8579 	 16.0986 	 32.1297
| 21> H 	 -39.5029 	 15.5124 	 31.682
| 22> H 	 -37.9529 	 14.7502 	 31.1342
| 23> S 	 -38.3715 	 21.9516 	 25.9289
| 24> C 	 -37.6289 	 23.5826 	 25.9059
| 25> C 	 -36.5594 	 23.5444 	 26.86
| 26> C 	 -36.2136 	 22.2541 	 27.3773
| 27> C 	 -37.0472 	 21.259 	 26.8092
| 28> H 	 -36.0809 	 24.4543 	 27.2057
| 29> C 	 -34.9337 	 22.0285 	 28.1973
| 30> H 	 -34.1191 	 22.4725 	 27.6793
| 31> H 	 -34.8986 	 20.9415 	 28.2553
| 32> C 	 -34.915 	 22.6038 	 29.606
| 33> H 	 -34.8507 	 23.6184 	 29.6418
| 34> H 	 -34.0944 	 22.2588 	 30.14
| 35> C 	 -36.034 	 22.2479 	 30.5191
| 36> H 	 -36.9311 	 22.7752 	 30.2159
| 37> H 	 -35.8572 	 22.4188 	 31.6062
| 38> H 	 -36.2485 	 21.1926 	 30.4708
| 39> H 	 -37.6045 	 16.22 	 26.5377
| 40> H 	 -38.1146 	 24.5214 	 25.6313
| 41> *
| 42>
| 43>                          ****END OF INPUT****

CARTESIAN COORDINATES (ANGSTROEM)
---------------------------------
  S    -37.775800   18.609700   25.822100
  C    -37.563200   17.277700   26.927700
  C    -37.264400   17.760200   28.192900
  C    -37.156200   19.161400   28.228700
  C    -37.109300   19.748300   26.980400
  H    -37.007600   19.681300   29.132700
  C    -37.110800   16.884300   29.438200
  H    -36.608900   17.345900   30.253000
  H    -36.536800   16.055200   29.171500
  C    -38.501600   16.521700   30.074100
  H    -38.950700   17.505300   30.409400
  H    -39.224100   16.055100   29.406700
  C    -38.476400   15.694300   31.365300
  H    -37.857900   16.098600   32.129700
  H    -39.502900   15.512400   31.682000
  H    -37.952900   14.750200   31.134200
  S    -38.371500   21.951600   25.928900
  C    -37.628900   23.582600   25.905900
  C    -36.559400   23.544400   26.860000
  C    -36.213600   22.254100   27.377300
  C    -37.047200   21.259000   26.809200
  H    -36.080900   24.454300   27.205700
  C    -34.933700   22.028500   28.197300
  H    -34.119100   22.472500   27.679300
  H    -34.898600   20.941500   28.255300
  C    -34.915000   22.603800   29.606000
  H    -34.850700   23.618400   29.641800
  H    -34.094400   22.258800   30.140000
  C    -36.034000   22.247900   30.519100
  H    -36.931100   22.775200   30.215900
  H    -35.857200   22.418800   31.606200
  H    -36.248500   21.192600   30.470800
  H    -37.604500   16.220000   26.537700
  H    -38.114600   24.521400   25.631300

 Total Charge           Charge          ....    0
 Multiplicity           Mult            ....    1
 Number of Electrons    NEL             ....  134
 Basis Dimension        Dim             ....  322

ORBITAL ENERGIES
----------------

  NO   OCC          E(Eh)            E(eV)
   0   2.0000     -88.968997     -2420.9695
   1   2.0000     -88.966987     -2420.9148
   2   2.0000     -10.336574      -281.2725
   3   2.0000     -10.335147      -281.2337
   4   2.0000     -10.322912      -280.9007
   5   2.0000     -10.321465      -280.8614
   6   2.0000     -10.306809      -280.4625
   7   2.0000     -10.303127      -280.3624
   8   2.0000     -10.299721      -280.2697
   9   2.0000     -10.291317      -280.0410
  10   2.0000     -10.291106      -280.0352
  11   2.0000     -10.291025      -280.0330
  12   2.0000     -10.290840      -280.0280
  13   2.0000     -10.277079      -279.6535
  14   2.0000     -10.272479      -279.5284
  15   2.0000     -10.269197      -279.4391
  16   2.0000      -8.083600      -219.9659
  17   2.0000      -8.080956      -219.8940
  18   2.0000      -6.042226      -164.4173
  19   2.0000      -6.039579      -164.3453
  20   2.0000      -6.038124      -164.3057
  21   2.0000      -6.035518      -164.2348
  22   2.0000      -6.034235      -164.1999
  23   2.0000      -6.031684      -164.1305
  24   2.0000      -1.006244       -27.3813
  25   2.0000      -0.980857       -26.6905
  26   2.0000      -0.917287       -24.9606
  27   2.0000      -0.907650       -24.6984
  28   2.0000      -0.862081       -23.4584
  29   2.0000      -0.854287       -23.2463
  30   2.0000      -0.848923       -23.1004
  31   2.0000      -0.813407       -22.1339
  32   2.0000      -0.783510       -21.3204
  33   2.0000      -0.773800       -21.0562
  34   2.0000      -0.706487       -19.2245
  35   2.0000      -0.696777       -18.9603
  36   2.0000      -0.692656       -18.8481
  37   2.0000      -0.660447       -17.9717
  38   2.0000      -0.642902       -17.4942
  39   2.0000      -0.623339       -16.9619
  40   2.0000      -0.591343       -16.0913
  41   2.0000      -0.574494       -15.6328
  42   2.0000      -0.563235       -15.3264
  43   2.0000      -0.553615       -15.0646
  44   2.0000      -0.550451       -14.9785
  45   2.0000      -0.531831       -14.4719
  46   2.0000      -0.522457       -14.2168
  47   2.0000      -0.515755       -14.0344
  48   2.0000      -0.504958       -13.7406
  49   2.0000      -0.495027       -13.4704
  50   2.0000      -0.493356       -13.4249
  51   2.0000      -0.476003       -12.9527
  52   2.0000      -0.471602       -12.8330
  53   2.0000      -0.461940       -12.5700
  54   2.0000      -0.458589       -12.4789
  55   2.0000      -0.451605       -12.2888
  56   2.0000      -0.442936       -12.0529
  57   2.0000      -0.438039       -11.9197
  58   2.0000      -0.434613       -11.8264
  59   2.0000      -0.428220       -11.6524
  60   2.0000      -0.421753       -11.4765
  61   2.0000      -0.413665       -11.2564
  62   2.0000      -0.412593       -11.2272
  63   2.0000      -0.347440        -9.4543
  64   2.0000      -0.330241        -8.9863
  65   2.0000      -0.328002        -8.9254
  66   2.0000      -0.290860        -7.9147
  67   0.0000       0.020697         0.5632
  68   0.0000       0.064677         1.7600
  69   0.0000       0.098946         2.6924
  70   0.0000       0.122456         3.3322
  71   0.0000       0.129920         3.5353

MULLIKEN ATOMIC CHARGES
-----------------------
   0 S :    0.106176
   1 C :   -0.152620
   2 C :   -0.080467
   3 C :    0.063646
   4 C :   -0.123263
   5 H :   -0.029585
   6 C :    0.121052
   7 H :    0.005845
   8 H :    0.014487
   9 C :   -0.122573
  10 H :    0.030080
  11 H :    0.034573
  12 C :   -0.023026
  13 H :    0.019927
  14 H :    0.044670
  15 H :    0.020391
  16 S :    0.098500
  17 C :   -0.098296
  18 C :   -0.056239
  19 C :   -0.062815
  20 C :   -0.159156
  21 H :    0.022059
  22 C :    0.106278
  23 H :    0.033882
  24 H :    0.020239
  25 C :   -0.005514
  26 H :    0.002281
  27 H :    0.007964
  28 C :   -0.078110
  29 H :    0.037160
  30 H :    0.035562
  31 H :    0.016201
  32 H :    0.079260
  33 H :    0.071429
Sum of atomic charges:    0.0000000

LOEWDIN ATOMIC CHARGES
----------------------
   0 S :    0.409515
   1 C :   -0.201586
   2 C :   -0.061121
   3 C :   -0.053264
   4 C :   -0.195100
   5 H :    0.019908
   6 C :   -0.021839
   7 H :    0.025243
   8 H :    0.021738
   9 C :   -0.040932
  10 H :    0.027746
  11 H :    0.021397
  12 C :   -0.065852
  13 H :    0.017321
  14 H :    0.030948
  15 H :    0.024080
  16 S :    0.401995
  17 C :   -0.196320
  18 C :   -0.063216
  19 C :   -0.069464
  20 C :   -0.188651
  21 H :    0.027704
  22 C :   -0.016140
  23 H :    0.032783
  24 H :    0.031673
  25 C :   -0.036458
  26 H :    0.011049
  27 H :    0.021440
  28 C :   -0.063589
  29 H :    0.024439
  30 H :    0.032036
  31 H :    0.015781
  32 H :    0.042557
  33 H :    0.034179

  Mayer bond orders larger than 0.100000
B(  0-S ,  1-C ) :   1.1498 B(  0-S ,  4-C ) :   1.1659 B(  1-C ,  2-C ) :   1.5665
B(  1-C ,  4-C ) :   0.1005 B(  1-C , 32-H ) :   0.9649 B(  2-C ,  3-C ) :   1.2910
B(  2-C ,  6-C ) :   1.0292 B(  3-C ,  4-C ) :   1.5143 B(  3-C ,  5-H ) :   0.9976
B(  4-C , 20-C ) :   1.0173 B(  6-C ,  7-H ) :   0.9402 B(  6-C ,  8-H ) :   0.9392
B(  6-C ,  9-C ) :   1.0485 B(  9-C , 10-H ) :   0.9574 B(  9-C , 11-H ) :   0.9627
B(  9-C , 12-C ) :   1.0849 B( 12-C , 13-H ) :   0.9731 B( 12-C , 14-H ) :   0.9739
B( 12-C , 15-H ) :   0.9725 B( 16-S , 17-C ) :   1.1337 B( 16-S , 20-C ) :   1.1828
B( 17-C , 18-C ) :   1.5860 B( 17-C , 20-C ) :   0.1086 B( 17-C , 33-H ) :   0.9665
B( 18-C , 19-C ) :   1.2699 B( 18-C , 21-H ) :   0.9822 B( 19-C , 20-C ) :   1.5558
B( 19-C , 22-C ) :   1.0361 B( 22-C , 23-H ) :   0.9403 B( 22-C , 24-H ) :   0.9306
B( 22-C , 25-C ) :   1.0810 B( 25-C , 26-H ) :   0.9507 B( 25-C , 27-H ) :   0.9487
B( 25-C , 28-C ) :   1.0837 B( 28-C , 29-H ) :   0.9719 B( 28-C , 30-H ) :   0.9676
B( 28-C , 31-H ) :   0.9709

Dispersion correction           -0.014388741
FINAL SINGLE POINT ENERGY     -1339.853118562161

DIPOLE MOMENT
-------------
                                X             Y             Z
Electronic contribution:     -6.34247       6.91687     -28.13776
Nuclear contribution   :      6.58649      -7.01350      28.90327
                        -----------------------------------------
Total Dipole Moment    :      0.24403      -0.09663       0.76551
                        -----------------------------------------
Magnitude (a.u.)       :      0.80925
Magnitude (Debye)      :      2.05696

Rotational constants in cm-1:     0.018877     0.008534     0.006538
Rotational constants in MHz :   565.927765   255.827914   195.999352

                             ****ORCA TERMINATED NORMALLY****
TOTAL RUN TIME: 0 days 0 hours 0 minutes 20 seconds 462 msec
