                         Program Version 4.2.1 -  RELEASE  -
|  1> ! wB97X-D3 SP def2-SVP
|  2> %pal
|  3> nprocs 24
|  4> end
|  5>
|  6> * xyz 0 1
|  7> S 	 -39.0508 	 -49.9771 	 -74.9921
|  8> C 	 -39.5424 	 -48.9992 	 -76.3408
|  9> C 	 -38.5499 	 -48.1404 	 -76.7828
| 10> C 	 -37.3592 	 -48.3175 	 -75.9751
| 11> C 	 -37.4042 	 -49.3237 	 -74.9767
| 12> H 	 -36.4273 	 -47.6832 	 -76.0709
| 13> C 	 -38.7101 	 -46.9676 	 -77.7237
| 14> H 	 -39.5924 	 -47.2416 	 -78.3276
| 15> H 	 -37.954 	 -46.7753 	 -78.5161
| 16> C 	 -38.9605 	 -45.6311 	 -77.0049
| 17> H 	 -38.1281 	 -45.4373 	 -76.2786
| 18> H 	 -38.9604 	 -44.8725 	 -77.7973
| 19> C 	 -40.2092 	 -45.5565 	 -76.125
| 20> H 	 -41.1278 	 -45.6377 	 -76.6888
| 21> H 	 -40.2413 	 -46.4401 	 -75.3973
| 22> H 	 -40.2528 	 -44.6238 	 -75.5235
| 23> S 	 -36.1272 	 -51.5384 	 -73.8861
| 24> C 	 -34.7976 	 -51.3814 	 -72.8279
| 25> C 	 -34.3372 	 -50.0871 	 -72.8926
| 26> C 	 -35.2403 	 -49.1709 	 -73.5613
| 27> C 	 -36.3156 	 -49.8029 	 -74.1484
| 28> H 	 -33.3674 	 -49.816 	 -72.4775
| 29> C 	 -34.867 	 -47.7139 	 -73.7395
| 30> H 	 -34.7587 	 -47.265 	 -72.7694
| 31> H 	 -35.639 	 -47.0901 	 -74.1747
| 32> C 	 -33.5043 	 -47.4865 	 -74.5052
| 33> H 	 -32.6425 	 -47.7797 	 -73.8565
| 34> H 	 -33.3899 	 -46.3949 	 -74.6698
| 35> C 	 -33.3631 	 -48.2418 	 -75.9237
| 36> H 	 -32.4923 	 -47.8995 	 -76.5014
| 37> H 	 -34.2469 	 -48.0829 	 -76.6079
| 38> H 	 -33.4785 	 -49.2632 	 -75.8432
| 39> H 	 -40.6457 	 -48.9109 	 -76.6991
| 40> H 	 -34.1845 	 -52.2108 	 -72.4114
| 41> *
| 42>
| 43>                          ****END OF INPUT****

CARTESIAN COORDINATES (ANGSTROEM)
---------------------------------
  S    -39.050800  -49.977100  -74.992100
  C    -39.542400  -48.999200  -76.340800
  C    -38.549900  -48.140400  -76.782800
  C    -37.359200  -48.317500  -75.975100
  C    -37.404200  -49.323700  -74.976700
  H    -36.427300  -47.683200  -76.070900
  C    -38.710100  -46.967600  -77.723700
  H    -39.592400  -47.241600  -78.327600
  H    -37.954000  -46.775300  -78.516100
  C    -38.960500  -45.631100  -77.004900
  H    -38.128100  -45.437300  -76.278600
  H    -38.960400  -44.872500  -77.797300
  C    -40.209200  -45.556500  -76.125000
  H    -41.127800  -45.637700  -76.688800
  H    -40.241300  -46.440100  -75.397300
  H    -40.252800  -44.623800  -75.523500
  S    -36.127200  -51.538400  -73.886100
  C    -34.797600  -51.381400  -72.827900
  C    -34.337200  -50.087100  -72.892600
  C    -35.240300  -49.170900  -73.561300
  C    -36.315600  -49.802900  -74.148400
  H    -33.367400  -49.816000  -72.477500
  C    -34.867000  -47.713900  -73.739500
  H    -34.758700  -47.265000  -72.769400
  H    -35.639000  -47.090100  -74.174700
  C    -33.504300  -47.486500  -74.505200
  H    -32.642500  -47.779700  -73.856500
  H    -33.389900  -46.394900  -74.669800
  C    -33.363100  -48.241800  -75.923700
  H    -32.492300  -47.899500  -76.501400
  H    -34.246900  -48.082900  -76.607900
  H    -33.478500  -49.263200  -75.843200
  H    -40.645700  -48.910900  -76.699100
  H    -34.184500  -52.210800  -72.411400

 Total Charge           Charge          ....    0
 Multiplicity           Mult            ....    1
 Number of Electrons    NEL             ....  134
 Basis Dimension        Dim             ....  322

ORBITAL ENERGIES
----------------

  NO   OCC          E(Eh)            E(eV)
   0   2.0000     -88.971218     -2421.0299
   1   2.0000     -88.963298     -2420.8144
   2   2.0000     -10.338018      -281.3118
   3   2.0000     -10.330793      -281.1152
   4   2.0000     -10.326199      -280.9902
   5   2.0000     -10.319327      -280.8032
   6   2.0000     -10.307262      -280.4748
   7   2.0000     -10.305791      -280.4348
   8   2.0000     -10.304226      -280.3923
   9   2.0000     -10.302693      -280.3505
  10   2.0000     -10.299297      -280.2581
  11   2.0000     -10.296120      -280.1717
  12   2.0000     -10.293679      -280.1053
  13   2.0000     -10.293227      -280.0929
  14   2.0000     -10.281597      -279.7765
  15   2.0000     -10.279953      -279.7317
  16   2.0000      -8.085437      -220.0159
  17   2.0000      -8.078775      -219.8347
  18   2.0000      -6.044060      -164.4672
  19   2.0000      -6.039898      -164.3540
  20   2.0000      -6.037294      -164.2831
  21   2.0000      -6.036198      -164.2533
  22   2.0000      -6.033178      -164.1711
  23   2.0000      -6.029442      -164.0695
  24   2.0000      -1.008074       -27.4311
  25   2.0000      -0.986231       -26.8367
  26   2.0000      -0.912552       -24.8318
  27   2.0000      -0.901444       -24.5295
  28   2.0000      -0.870713       -23.6933
  29   2.0000      -0.844120       -22.9697
  30   2.0000      -0.837118       -22.7791
  31   2.0000      -0.810908       -22.0659
  32   2.0000      -0.785471       -21.3738
  33   2.0000      -0.778347       -21.1799
  34   2.0000      -0.711666       -19.3654
  35   2.0000      -0.697523       -18.9806
  36   2.0000      -0.689244       -18.7553
  37   2.0000      -0.657873       -17.9016
  38   2.0000      -0.633614       -17.2415
  39   2.0000      -0.620137       -16.8748
  40   2.0000      -0.597824       -16.2676
  41   2.0000      -0.574925       -15.6445
  42   2.0000      -0.546363       -14.8673
  43   2.0000      -0.544066       -14.8048
  44   2.0000      -0.538266       -14.6470
  45   2.0000      -0.535722       -14.5777
  46   2.0000      -0.517622       -14.0852
  47   2.0000      -0.510138       -13.8816
  48   2.0000      -0.504196       -13.7199
  49   2.0000      -0.495496       -13.4831
  50   2.0000      -0.488806       -13.3011
  51   2.0000      -0.478734       -13.0270
  52   2.0000      -0.469367       -12.7721
  53   2.0000      -0.462168       -12.5762
  54   2.0000      -0.460245       -12.5239
  55   2.0000      -0.449425       -12.2295
  56   2.0000      -0.442041       -12.0286
  57   2.0000      -0.438099       -11.9213
  58   2.0000      -0.433718       -11.8021
  59   2.0000      -0.423399       -11.5213
  60   2.0000      -0.417787       -11.3686
  61   2.0000      -0.413268       -11.2456
  62   2.0000      -0.412350       -11.2206
  63   2.0000      -0.358148        -9.7457
  64   2.0000      -0.331555        -9.0221
  65   2.0000      -0.326040        -8.8720
  66   2.0000      -0.291011        -7.9188
  67   0.0000       0.022708         0.6179
  68   0.0000       0.074857         2.0370
  69   0.0000       0.108012         2.9392
  70   0.0000       0.111772         3.0415
  71   0.0000       0.128388         3.4936

MULLIKEN ATOMIC CHARGES
-----------------------
   0 S :    0.123486
   1 C :   -0.158221
   2 C :   -0.077283
   3 C :   -0.005620
   4 C :   -0.154535
   5 H :    0.031287
   6 C :    0.044036
   7 H :    0.018355
   8 H :    0.042054
   9 C :   -0.068671
  10 H :    0.035952
  11 H :    0.034536
  12 C :   -0.086236
  13 H :    0.022892
  14 H :    0.052354
  15 H :    0.044180
  16 S :    0.100330
  17 C :   -0.093335
  18 C :   -0.049223
  19 C :   -0.047539
  20 C :   -0.134646
  21 H :    0.022490
  22 C :    0.071177
  23 H :    0.025730
  24 H :    0.022117
  25 C :   -0.105823
  26 H :    0.039708
  27 H :    0.039077
  28 C :   -0.056071
  29 H :    0.048155
  30 H :    0.020921
  31 H :    0.032250
  32 H :    0.087166
  33 H :    0.078949
Sum of atomic charges:   -0.0000000

LOEWDIN ATOMIC CHARGES
----------------------
   0 S :    0.410803
   1 C :   -0.213460
   2 C :   -0.072660
   3 C :   -0.064256
   4 C :   -0.194605
   5 H :    0.033162
   6 C :   -0.039826
   7 H :    0.030762
   8 H :    0.037594
   9 C :   -0.042168
  10 H :    0.028825
  11 H :    0.024971
  12 C :   -0.076416
  13 H :    0.017315
  14 H :    0.035454
  15 H :    0.030876
  16 S :    0.412965
  17 C :   -0.203221
  18 C :   -0.073376
  19 C :   -0.058650
  20 C :   -0.195070
  21 H :    0.030457
  22 C :   -0.034326
  23 H :    0.032438
  24 H :    0.027378
  25 C :   -0.036582
  26 H :    0.024554
  27 H :    0.027296
  28 C :   -0.072696
  29 H :    0.031036
  30 H :    0.029644
  31 H :    0.016641
  32 H :    0.050874
  33 H :    0.044266

  Mayer bond orders larger than 0.100000
B(  0-S ,  1-C ) :   1.1521 B(  0-S ,  4-C ) :   1.1429 B(  1-C ,  2-C ) :   1.5934
B(  1-C , 32-H ) :   0.9475 B(  2-C ,  3-C ) :   1.2583 B(  2-C ,  6-C ) :   1.0339
B(  3-C ,  4-C ) :   1.5479 B(  3-C ,  5-H ) :   0.9711 B(  4-C , 20-C ) :   1.0792
B(  6-C ,  7-H ) :   0.9364 B(  6-C ,  8-H ) :   0.9436 B(  6-C ,  9-C ) :   1.0631
B(  9-C , 10-H ) :   0.9568 B(  9-C , 11-H ) :   0.9554 B(  9-C , 12-C ) :   1.0734
B( 12-C , 13-H ) :   0.9758 B( 12-C , 14-H ) :   0.9707 B( 12-C , 15-H ) :   0.9740
B( 16-S , 17-C ) :   1.1627 B( 16-S , 20-C ) :   1.1341 B( 17-C , 18-C ) :   1.5997
B( 17-C , 33-H ) :   0.9618 B( 18-C , 19-C ) :   1.2397 B( 18-C , 21-H ) :   0.9887
B( 19-C , 20-C ) :   1.5862 B( 19-C , 22-C ) :   1.0528 B( 22-C , 23-H ) :   0.9269
B( 22-C , 24-H ) :   0.9386 B( 22-C , 25-C ) :   1.0668 B( 25-C , 26-H ) :   0.9561
B( 25-C , 27-H ) :   0.9605 B( 25-C , 28-C ) :   1.0561 B( 28-C , 29-H ) :   0.9768
B( 28-C , 30-H ) :   0.9706 B( 28-C , 31-H ) :   0.9739

Dispersion correction           -0.015697048
FINAL SINGLE POINT ENERGY     -1339.878965169572

DIPOLE MOMENT
-------------
                                X             Y             Z
Electronic contribution:     -5.71229     -24.50619       9.45540
Nuclear contribution   :      6.03887      25.13964      -9.64539
                        -----------------------------------------
Total Dipole Moment    :      0.32658       0.63345      -0.18999
                        -----------------------------------------
Magnitude (a.u.)       :      0.73757
Magnitude (Debye)      :      1.87477

Rotational constants in cm-1:     0.020532     0.009197     0.007078
Rotational constants in MHz :   615.547647   275.705341   212.191052

                             ****ORCA TERMINATED NORMALLY****
TOTAL RUN TIME: 0 days 0 hours 0 minutes 22 seconds 479 msec
