                         Program Version 4.2.1 -  RELEASE  -
|  1> ! wB97X-D3 SP def2-SVP
|  2> %pal
|  3> nprocs 24
|  4> end
|  5>
|  6> * xyz 0 1
|  7> S 	 -135.269 	 68.9864 	 -66.2927
|  8> C 	 -134.311 	 69.4735 	 -67.6682
|  9> C 	 -133.71 	 70.7246 	 -67.464
| 10> C 	 -133.98 	 71.3102 	 -66.2065
| 11> C 	 -134.852 	 70.5098 	 -65.4661
| 12> H 	 -133.769 	 72.3315 	 -65.8927
| 13> C 	 -132.841 	 71.4335 	 -68.453
| 14> H 	 -131.82 	 71.0599 	 -68.3176
| 15> H 	 -132.963 	 72.5761 	 -68.243
| 16> C 	 -133.159 	 71.2581 	 -69.9303
| 17> H 	 -134.21 	 70.9357 	 -70.1231
| 18> H 	 -133.07 	 72.2867 	 -70.3421
| 19> C 	 -132.105 	 70.3217 	 -70.565
| 20> H 	 -132.242 	 70.2756 	 -71.6428
| 21> H 	 -131.119 	 70.6185 	 -70.3681
| 22> H 	 -132.22 	 69.3054 	 -70.189
| 23> S 	 -136.865 	 70.0679 	 -63.6096
| 24> C 	 -136.813 	 70.9649 	 -62.1104
| 25> C 	 -135.721 	 71.7747 	 -62.0707
| 26> C 	 -134.849 	 71.7691 	 -63.1545
| 27> C 	 -135.293 	 70.8258 	 -64.0903
| 28> H 	 -135.565 	 72.4452 	 -61.1771
| 29> C 	 -133.555 	 72.491 	 -63.1269
| 30> H 	 -132.986 	 72.4594 	 -64.0941
| 31> H 	 -132.94 	 71.9 	 -62.4463
| 32> C 	 -133.597 	 73.9623 	 -62.6274
| 33> H 	 -132.627 	 74.346 	 -62.4038
| 34> H 	 -134.122 	 74.0891 	 -61.6111
| 35> C 	 -134.217 	 74.9138 	 -63.6699
| 36> H 	 -133.566 	 74.9193 	 -64.5583
| 37> H 	 -134.405 	 75.8884 	 -63.2767
| 38> H 	 -135.164 	 74.4757 	 -63.8844
| 39> H 	 -134.253 	 68.9377 	 -68.5963
| 40> H 	 -137.648 	 70.9758 	 -61.3615
| 41> *
| 42>
| 43>                          ****END OF INPUT****

CARTESIAN COORDINATES (ANGSTROEM)
---------------------------------
  S    -135.269000   68.986400  -66.292700
  C    -134.311000   69.473500  -67.668200
  C    -133.710000   70.724600  -67.464000
  C    -133.980000   71.310200  -66.206500
  C    -134.852000   70.509800  -65.466100
  H    -133.769000   72.331500  -65.892700
  C    -132.841000   71.433500  -68.453000
  H    -131.820000   71.059900  -68.317600
  H    -132.963000   72.576100  -68.243000
  C    -133.159000   71.258100  -69.930300
  H    -134.210000   70.935700  -70.123100
  H    -133.070000   72.286700  -70.342100
  C    -132.105000   70.321700  -70.565000
  H    -132.242000   70.275600  -71.642800
  H    -131.119000   70.618500  -70.368100
  H    -132.220000   69.305400  -70.189000
  S    -136.865000   70.067900  -63.609600
  C    -136.813000   70.964900  -62.110400
  C    -135.721000   71.774700  -62.070700
  C    -134.849000   71.769100  -63.154500
  C    -135.293000   70.825800  -64.090300
  H    -135.565000   72.445200  -61.177100
  C    -133.555000   72.491000  -63.126900
  H    -132.986000   72.459400  -64.094100
  H    -132.940000   71.900000  -62.446300
  C    -133.597000   73.962300  -62.627400
  H    -132.627000   74.346000  -62.403800
  H    -134.122000   74.089100  -61.611100
  C    -134.217000   74.913800  -63.669900
  H    -133.566000   74.919300  -64.558300
  H    -134.405000   75.888400  -63.276700
  H    -135.164000   74.475700  -63.884400
  H    -134.253000   68.937700  -68.596300
  H    -137.648000   70.975800  -61.361500

 Total Charge           Charge          ....    0
 Multiplicity           Mult            ....    1
 Number of Electrons    NEL             ....  134
 Basis Dimension        Dim             ....  322

ORBITAL ENERGIES
----------------

  NO   OCC          E(Eh)            E(eV)
   0   2.0000     -88.970151     -2421.0009
   1   2.0000     -88.965408     -2420.8718
   2   2.0000     -10.333897      -281.1996
   3   2.0000     -10.333667      -281.1934
   4   2.0000     -10.319136      -280.7980
   5   2.0000     -10.310740      -280.5695
   6   2.0000     -10.304025      -280.3868
   7   2.0000     -10.299288      -280.2579
   8   2.0000     -10.298563      -280.2381
   9   2.0000     -10.293987      -280.1136
  10   2.0000     -10.293925      -280.1119
  11   2.0000     -10.292045      -280.0608
  12   2.0000     -10.292028      -280.0603
  13   2.0000     -10.289013      -279.9783
  14   2.0000     -10.275937      -279.6225
  15   2.0000     -10.275351      -279.6065
  16   2.0000      -8.083954      -219.9756
  17   2.0000      -8.079499      -219.8543
  18   2.0000      -6.042547      -164.4261
  19   2.0000      -6.038631      -164.3195
  20   2.0000      -6.037978      -164.3017
  21   2.0000      -6.034671      -164.2117
  22   2.0000      -6.034247      -164.2002
  23   2.0000      -6.030194      -164.0899
  24   2.0000      -1.003138       -27.2968
  25   2.0000      -0.982421       -26.7330
  26   2.0000      -0.914122       -24.8745
  27   2.0000      -0.911727       -24.8094
  28   2.0000      -0.863415       -23.4947
  29   2.0000      -0.857014       -23.3205
  30   2.0000      -0.849142       -23.1063
  31   2.0000      -0.808584       -22.0027
  32   2.0000      -0.784741       -21.3539
  33   2.0000      -0.770008       -20.9530
  34   2.0000      -0.706945       -19.2370
  35   2.0000      -0.705261       -19.1911
  36   2.0000      -0.692081       -18.8325
  37   2.0000      -0.657088       -17.8803
  38   2.0000      -0.634491       -17.2654
  39   2.0000      -0.617288       -16.7972
  40   2.0000      -0.598805       -16.2943
  41   2.0000      -0.569759       -15.5039
  42   2.0000      -0.561600       -15.2819
  43   2.0000      -0.549605       -14.9555
  44   2.0000      -0.541094       -14.7239
  45   2.0000      -0.524947       -14.2845
  46   2.0000      -0.517682       -14.0868
  47   2.0000      -0.515674       -14.0322
  48   2.0000      -0.500109       -13.6087
  49   2.0000      -0.494742       -13.4626
  50   2.0000      -0.489543       -13.3211
  51   2.0000      -0.484664       -13.1884
  52   2.0000      -0.477629       -12.9970
  53   2.0000      -0.462557       -12.5868
  54   2.0000      -0.460963       -12.5434
  55   2.0000      -0.450640       -12.2625
  56   2.0000      -0.447687       -12.1822
  57   2.0000      -0.438671       -11.9369
  58   2.0000      -0.435167       -11.8415
  59   2.0000      -0.422783       -11.5045
  60   2.0000      -0.419744       -11.4218
  61   2.0000      -0.416724       -11.3396
  62   2.0000      -0.409956       -11.1555
  63   2.0000      -0.357392        -9.7251
  64   2.0000      -0.336295        -9.1511
  65   2.0000      -0.329265        -8.9597
  66   2.0000      -0.276414        -7.5216
  67   0.0000       0.016746         0.4557
  68   0.0000       0.079158         2.1540
  69   0.0000       0.096096         2.6149
  70   0.0000       0.119557         3.2533
  71   0.0000       0.131006         3.5648

MULLIKEN ATOMIC CHARGES
-----------------------
   0 S :    0.113014
   1 C :   -0.124937
   2 C :   -0.067566
   3 C :   -0.034746
   4 C :   -0.097191
   5 H :    0.025379
   6 C :    0.023427
   7 H :    0.048291
   8 H :    0.042636
   9 C :   -0.095902
  10 H :    0.040272
  11 H :    0.033853
  12 C :   -0.039951
  13 H :    0.032970
  14 H :    0.024637
  15 H :    0.026476
  16 S :    0.082140
  17 C :   -0.099094
  18 C :   -0.054463
  19 C :   -0.030071
  20 C :   -0.137126
  21 H :    0.030218
  22 C :    0.038597
  23 H :    0.028320
  24 H :    0.048726
  25 C :   -0.105806
  26 H :    0.019691
  27 H :    0.034585
  28 C :   -0.021682
  29 H :    0.033556
  30 H :    0.032769
  31 H :    0.030249
  32 H :    0.044650
  33 H :    0.074079
Sum of atomic charges:   -0.0000000

LOEWDIN ATOMIC CHARGES
----------------------
   0 S :    0.396746
   1 C :   -0.211601
   2 C :   -0.060020
   3 C :   -0.072898
   4 C :   -0.173323
   5 H :    0.032995
   6 C :   -0.040481
   7 H :    0.038121
   8 H :    0.041301
   9 C :   -0.048168
  10 H :    0.027277
  11 H :    0.028993
  12 C :   -0.061200
  13 H :    0.025866
  14 H :    0.017025
  15 H :    0.023814
  16 S :    0.375552
  17 C :   -0.191553
  18 C :   -0.079963
  19 C :   -0.064689
  20 C :   -0.168277
  21 H :    0.037952
  22 C :   -0.033515
  23 H :    0.036106
  24 H :    0.042496
  25 C :   -0.042266
  26 H :    0.017303
  27 H :    0.027805
  28 C :   -0.059316
  29 H :    0.025860
  30 H :    0.023687
  31 H :    0.022958
  32 H :    0.023727
  33 H :    0.041687

  Mayer bond orders larger than 0.100000
B(  0-S ,  1-C ) :   1.1240 B(  0-S ,  4-C ) :   1.1518 B(  1-C ,  2-C ) :   1.5968
B(  1-C , 32-H ) :   0.9657 B(  2-C ,  3-C ) :   1.2651 B(  2-C ,  6-C ) :   1.0243
B(  3-C ,  4-C ) :   1.5695 B(  3-C ,  5-H ) :   0.9750 B(  4-C , 20-C ) :   1.0637
B(  6-C ,  7-H ) :   0.9324 B(  6-C ,  8-H ) :   0.9528 B(  6-C ,  9-C ) :   1.0453
B(  9-C , 10-H ) :   0.9624 B(  9-C , 11-H ) :   0.9620 B(  9-C , 12-C ) :   1.0766
B( 12-C , 13-H ) :   0.9724 B( 12-C , 14-H ) :   0.9748 B( 12-C , 15-H ) :   0.9771
B( 16-S , 17-C ) :   1.1414 B( 16-S , 20-C ) :   1.1335 B( 17-C , 18-C ) :   1.6215
B( 17-C , 33-H ) :   0.9603 B( 18-C , 19-C ) :   1.2541 B( 18-C , 21-H ) :   0.9753
B( 19-C , 20-C ) :   1.5742 B( 19-C , 22-C ) :   1.0301 B( 22-C , 23-H ) :   0.9398
B( 22-C , 24-H ) :   0.9290 B( 22-C , 25-C ) :   1.0672 B( 25-C , 26-H ) :   0.9551
B( 25-C , 27-H ) :   0.9534 B( 25-C , 28-C ) :   1.0705 B( 28-C , 29-H ) :   0.9718
B( 28-C , 30-H ) :   0.9729 B( 28-C , 31-H ) :   0.9779

Dispersion correction           -0.014174548
FINAL SINGLE POINT ENERGY     -1339.877276337161

DIPOLE MOMENT
-------------
                                X             Y             Z
Electronic contribution:    -17.38238     -18.56172      10.99780
Nuclear contribution   :     17.81448      19.18808     -11.01066
                        -----------------------------------------
Total Dipole Moment    :      0.43210       0.62636      -0.01285
                        -----------------------------------------
Magnitude (a.u.)       :      0.76105
Magnitude (Debye)      :      1.93444

Rotational constants in cm-1:     0.020853     0.008128     0.006125
Rotational constants in MHz :   625.148024   243.662841   183.623319

                             ****ORCA TERMINATED NORMALLY****
TOTAL RUN TIME: 0 days 0 hours 0 minutes 20 seconds 458 msec
