                         Program Version 4.2.1 -  RELEASE  -
|  1> ! wB97X-D3 SP def2-SVP
|  2> %pal
|  3> nprocs 24
|  4> end
|  5>
|  6> * xyz 0 1
|  7> S 	 16.2438 	 -13.5193 	 -121.053
|  8> C 	 14.8212 	 -12.5173 	 -121.325
|  9> C 	 13.8988 	 -13.149 	 -122.205
| 10> C 	 14.3239 	 -14.4512 	 -122.567
| 11> C 	 15.5513 	 -14.8442 	 -122.025
| 12> H 	 13.7148 	 -15.103 	 -123.213
| 13> C 	 12.5766 	 -12.4716 	 -122.658
| 14> H 	 12.8486 	 -11.746 	 -123.44
| 15> H 	 12.2679 	 -11.769 	 -121.859
| 16> C 	 11.4134 	 -13.4353 	 -122.974
| 17> H 	 11.6864 	 -14.299 	 -123.536
| 18> H 	 10.9812 	 -13.7229 	 -121.945
| 19> C 	 10.3916 	 -12.7143 	 -123.835
| 20> H 	 9.85603 	 -11.878 	 -123.28
| 21> H 	 10.9099 	 -12.4187 	 -124.772
| 22> H 	 9.68963 	 -13.5068 	 -124.023
| 23> S 	 17.8766 	 -16.2458 	 -122.497
| 24> C 	 17.8415 	 -18.0272 	 -122.474
| 25> C 	 16.6042 	 -18.5176 	 -122.219
| 26> C 	 15.6146 	 -17.453 	 -122.162
| 27> C 	 16.1717 	 -16.179 	 -122.126
| 28> H 	 16.4426 	 -19.5884 	 -122.092
| 29> C 	 14.2217 	 -17.8679 	 -121.773
| 30> H 	 14.1057 	 -18.8898 	 -121.821
| 31> H 	 13.6556 	 -17.5306 	 -122.601
| 32> C 	 13.5826 	 -17.2095 	 -120.524
| 33> H 	 12.7376 	 -17.8069 	 -120.236
| 34> H 	 13.2018 	 -16.2179 	 -120.631
| 35> C 	 14.5283 	 -17.2361 	 -119.336
| 36> H 	 15.066 	 -18.1595 	 -119.241
| 37> H 	 14.0086 	 -17.0643 	 -118.399
| 38> H 	 15.3839 	 -16.5898 	 -119.475
| 39> H 	 14.5974 	 -11.4945 	 -120.97
| 40> H 	 18.7746 	 -18.6742 	 -122.436
| 41> *
| 42>
| 43>                          ****END OF INPUT****

CARTESIAN COORDINATES (ANGSTROEM)
---------------------------------
  S     16.243800  -13.519300  -121.053000
  C     14.821200  -12.517300  -121.325000
  C     13.898800  -13.149000  -122.205000
  C     14.323900  -14.451200  -122.567000
  C     15.551300  -14.844200  -122.025000
  H     13.714800  -15.103000  -123.213000
  C     12.576600  -12.471600  -122.658000
  H     12.848600  -11.746000  -123.440000
  H     12.267900  -11.769000  -121.859000
  C     11.413400  -13.435300  -122.974000
  H     11.686400  -14.299000  -123.536000
  H     10.981200  -13.722900  -121.945000
  C     10.391600  -12.714300  -123.835000
  H      9.856030  -11.878000  -123.280000
  H     10.909900  -12.418700  -124.772000
  H      9.689630  -13.506800  -124.023000
  S     17.876600  -16.245800  -122.497000
  C     17.841500  -18.027200  -122.474000
  C     16.604200  -18.517600  -122.219000
  C     15.614600  -17.453000  -122.162000
  C     16.171700  -16.179000  -122.126000
  H     16.442600  -19.588400  -122.092000
  C     14.221700  -17.867900  -121.773000
  H     14.105700  -18.889800  -121.821000
  H     13.655600  -17.530600  -122.601000
  C     13.582600  -17.209500  -120.524000
  H     12.737600  -17.806900  -120.236000
  H     13.201800  -16.217900  -120.631000
  C     14.528300  -17.236100  -119.336000
  H     15.066000  -18.159500  -119.241000
  H     14.008600  -17.064300  -118.399000
  H     15.383900  -16.589800  -119.475000
  H     14.597400  -11.494500  -120.970000
  H     18.774600  -18.674200  -122.436000

 Total Charge           Charge          ....    0
 Multiplicity           Mult            ....    1
 Number of Electrons    NEL             ....  134
 Basis Dimension        Dim             ....  322

ORBITAL ENERGIES
----------------

  NO   OCC          E(Eh)            E(eV)
   0   2.0000     -88.973551     -2421.0934
   1   2.0000     -88.963227     -2420.8125
   2   2.0000     -10.336102      -281.2596
   3   2.0000     -10.329241      -281.0729
   4   2.0000     -10.320257      -280.8285
   5   2.0000     -10.319995      -280.8213
   6   2.0000     -10.305268      -280.4206
   7   2.0000     -10.304056      -280.3876
   8   2.0000     -10.298948      -280.2486
   9   2.0000     -10.298489      -280.2361
  10   2.0000     -10.295083      -280.1434
  11   2.0000     -10.294931      -280.1393
  12   2.0000     -10.285562      -279.8844
  13   2.0000     -10.280025      -279.7337
  14   2.0000     -10.276837      -279.6470
  15   2.0000     -10.260145      -279.1927
  16   2.0000      -8.086721      -220.0509
  17   2.0000      -8.077789      -219.8078
  18   2.0000      -6.045297      -164.5009
  19   2.0000      -6.041382      -164.3944
  20   2.0000      -6.037569      -164.2906
  21   2.0000      -6.036450      -164.2602
  22   2.0000      -6.032402      -164.1500
  23   2.0000      -6.028327      -164.0391
  24   2.0000      -1.001116       -27.2417
  25   2.0000      -0.978199       -26.6182
  26   2.0000      -0.912171       -24.8214
  27   2.0000      -0.908067       -24.7098
  28   2.0000      -0.868688       -23.6382
  29   2.0000      -0.848553       -23.0903
  30   2.0000      -0.843710       -22.9585
  31   2.0000      -0.814920       -22.1751
  32   2.0000      -0.782439       -21.2912
  33   2.0000      -0.768282       -20.9060
  34   2.0000      -0.711014       -19.3477
  35   2.0000      -0.697479       -18.9794
  36   2.0000      -0.682007       -18.5583
  37   2.0000      -0.659888       -17.9565
  38   2.0000      -0.633408       -17.2359
  39   2.0000      -0.620205       -16.8766
  40   2.0000      -0.587311       -15.9816
  41   2.0000      -0.572268       -15.5722
  42   2.0000      -0.564909       -15.3720
  43   2.0000      -0.554064       -15.0768
  44   2.0000      -0.547827       -14.9071
  45   2.0000      -0.532170       -14.4811
  46   2.0000      -0.508695       -13.8423
  47   2.0000      -0.501591       -13.6490
  48   2.0000      -0.499813       -13.6006
  49   2.0000      -0.492230       -13.3943
  50   2.0000      -0.488287       -13.2870
  51   2.0000      -0.481438       -13.1006
  52   2.0000      -0.472361       -12.8536
  53   2.0000      -0.468432       -12.7467
  54   2.0000      -0.457120       -12.4389
  55   2.0000      -0.448745       -12.2110
  56   2.0000      -0.440790       -11.9945
  57   2.0000      -0.434722       -11.8294
  58   2.0000      -0.430403       -11.7119
  59   2.0000      -0.427424       -11.6308
  60   2.0000      -0.420042       -11.4299
  61   2.0000      -0.411744       -11.2041
  62   2.0000      -0.409563       -11.1448
  63   2.0000      -0.351242        -9.5578
  64   2.0000      -0.333823        -9.0838
  65   2.0000      -0.325837        -8.8665
  66   2.0000      -0.286259        -7.7895
  67   0.0000       0.022587         0.6146
  68   0.0000       0.071324         1.9408
  69   0.0000       0.107526         2.9259
  70   0.0000       0.123228         3.3532
  71   0.0000       0.129361         3.5201

MULLIKEN ATOMIC CHARGES
-----------------------
   0 S :    0.125826
   1 C :   -0.126104
   2 C :   -0.105522
   3 C :    0.013513
   4 C :   -0.132590
   5 H :    0.016358
   6 C :    0.051398
   7 H :    0.040195
   8 H :    0.023164
   9 C :   -0.108706
  10 H :    0.033314
  11 H :    0.051839
  12 C :   -0.056684
  13 H :    0.047736
  14 H :    0.045988
  15 H :    0.030140
  16 S :    0.091674
  17 C :   -0.105373
  18 C :   -0.038112
  19 C :   -0.083869
  20 C :   -0.150530
  21 H :    0.030025
  22 C :    0.134977
  23 H :   -0.009667
  24 H :    0.007465
  25 C :   -0.040766
  26 H :    0.017423
  27 H :    0.031906
  28 C :   -0.028354
  29 H :    0.002613
  30 H :    0.031698
  31 H :    0.027200
  32 H :    0.054107
  33 H :    0.077717
Sum of atomic charges:   -0.0000000

LOEWDIN ATOMIC CHARGES
----------------------
   0 S :    0.402256
   1 C :   -0.208847
   2 C :   -0.063588
   3 C :   -0.065488
   4 C :   -0.187021
   5 H :    0.032568
   6 C :   -0.039213
   7 H :    0.033120
   8 H :    0.033819
   9 C :   -0.044190
  10 H :    0.017857
  11 H :    0.037045
  12 C :   -0.066029
  13 H :    0.032608
  14 H :    0.031013
  15 H :    0.023841
  16 S :    0.387094
  17 C :   -0.183905
  18 C :   -0.072431
  19 C :   -0.053994
  20 C :   -0.201033
  21 H :    0.036991
  22 C :   -0.025780
  23 H :    0.019892
  24 H :    0.030313
  25 C :   -0.032442
  26 H :    0.023695
  27 H :    0.021922
  28 C :   -0.066120
  29 H :    0.019521
  30 H :    0.024281
  31 H :    0.024061
  32 H :    0.035226
  33 H :    0.042954

  Mayer bond orders larger than 0.100000
B(  0-S ,  1-C ) :   1.1441 B(  0-S ,  4-C ) :   1.1533 B(  1-C ,  2-C ) :   1.5908
B(  1-C ,  4-C ) :   0.1112 B(  1-C , 32-H ) :   0.9627 B(  2-C ,  3-C ) :   1.2873
B(  2-C ,  6-C ) :   0.9996 B(  3-C ,  4-C ) :   1.5420 B(  3-C ,  5-H ) :   0.9884
B(  4-C , 20-C ) :   1.0387 B(  6-C ,  7-H ) :   0.9438 B(  6-C ,  8-H ) :   0.9414
B(  6-C ,  9-C ) :   1.0553 B(  9-C , 10-H ) :   0.9585 B(  9-C , 11-H ) :   0.9536
B(  9-C , 12-C ) :   1.0824 B( 12-C , 13-H ) :   0.9735 B( 12-C , 14-H ) :   0.9756
B( 12-C , 15-H ) :   0.9748 B( 16-S , 17-C ) :   1.1329 B( 16-S , 20-C ) :   1.1303
B( 17-C , 18-C ) :   1.6524 B( 17-C , 33-H ) :   0.9540 B( 18-C , 19-C ) :   1.2080
B( 18-C , 21-H ) :   0.9868 B( 19-C , 20-C ) :   1.6105 B( 19-C , 22-C ) :   1.0496
B( 22-C , 23-H ) :   0.9310 B( 22-C , 24-H ) :   0.9108 B( 22-C , 25-C ) :   1.0773
B( 25-C , 26-H ) :   0.9523 B( 25-C , 27-H ) :   0.9476 B( 25-C , 28-C ) :   1.0903
B( 28-C , 29-H ) :   0.9714 B( 28-C , 30-H ) :   0.9750 B( 28-C , 31-H ) :   0.9655

Dispersion correction           -0.015686032
FINAL SINGLE POINT ENERGY     -1339.868706116664

DIPOLE MOMENT
-------------
                                X             Y             Z
Electronic contribution:     27.57755       1.05184      -0.99883
Nuclear contribution   :    -28.34475      -1.23304       0.94825
                        -----------------------------------------
Total Dipole Moment    :     -0.76719      -0.18121      -0.05058
                        -----------------------------------------
Magnitude (a.u.)       :      0.78992
Magnitude (Debye)      :      2.00783

Rotational constants in cm-1:     0.020644     0.008699     0.007467
Rotational constants in MHz :   618.888400   260.794194   223.866444

                             ****ORCA TERMINATED NORMALLY****
TOTAL RUN TIME: 0 days 0 hours 0 minutes 22 seconds 796 msec
