                         Program Version 4.2.1 -  RELEASE  -
|  1> ! wB97X-D3 SP def2-SVP
|  2> %pal
|  3> nprocs 24
|  4> end
|  5>
|  6> * xyz 0 1
|  7> S 	 -68.4917 	 15.084 	 -69.9571
|  8> C 	 -67.3127 	 14.4671 	 -68.8563
|  9> C 	 -67.0609 	 15.2854 	 -67.7815
| 10> C 	 -67.8043 	 16.5258 	 -67.9022
| 11> C 	 -68.6548 	 16.5007 	 -68.9636
| 12> H 	 -67.9436 	 17.3776 	 -67.2854
| 13> C 	 -66.001 	 15.0527 	 -66.6666
| 14> H 	 -66.1393 	 14.0271 	 -66.3666
| 15> H 	 -66.2366 	 15.5846 	 -65.7468
| 16> C 	 -64.5958 	 15.2529 	 -67.1902
| 17> H 	 -63.8499 	 15.1194 	 -66.3998
| 18> H 	 -64.2932 	 14.4933 	 -67.9425
| 19> C 	 -64.3498 	 16.7037 	 -67.7951
| 20> H 	 -64.8579 	 17.4713 	 -67.1651
| 21> H 	 -63.2926 	 17.0262 	 -67.8916
| 22> H 	 -64.8683 	 16.8129 	 -68.7488
| 23> S 	 -71.2131 	 17.0053 	 -69.7278
| 24> C 	 -71.5534 	 18.5126 	 -70.5029
| 25> C 	 -70.6204 	 19.4399 	 -70.191
| 26> C 	 -69.4966 	 18.9282 	 -69.4855
| 27> C 	 -69.6256 	 17.5401 	 -69.3218
| 28> H 	 -70.7645 	 20.4966 	 -70.4685
| 29> C 	 -68.2366 	 19.7627 	 -69.3147
| 30> H 	 -68.1085 	 20.5071 	 -70.1331
| 31> H 	 -67.4864 	 19.0843 	 -69.5185
| 32> C 	 -68.0538 	 20.5291 	 -68.007
| 33> H 	 -67.1186 	 21.1278 	 -68.0976
| 34> H 	 -67.8792 	 19.7452 	 -67.27
| 35> C 	 -69.1799 	 21.4811 	 -67.6659
| 36> H 	 -69.5083 	 22.0164 	 -68.5344
| 37> H 	 -68.9491 	 22.2772 	 -67.0269
| 38> H 	 -70.0535 	 20.959 	 -67.3123
| 39> H 	 -66.8041 	 13.5719 	 -69.0651
| 40> H 	 -72.3601 	 18.6906 	 -71.281
| 41> *
| 42>
| 43>                          ****END OF INPUT****

CARTESIAN COORDINATES (ANGSTROEM)
---------------------------------
  S    -68.491700   15.084000  -69.957100
  C    -67.312700   14.467100  -68.856300
  C    -67.060900   15.285400  -67.781500
  C    -67.804300   16.525800  -67.902200
  C    -68.654800   16.500700  -68.963600
  H    -67.943600   17.377600  -67.285400
  C    -66.001000   15.052700  -66.666600
  H    -66.139300   14.027100  -66.366600
  H    -66.236600   15.584600  -65.746800
  C    -64.595800   15.252900  -67.190200
  H    -63.849900   15.119400  -66.399800
  H    -64.293200   14.493300  -67.942500
  C    -64.349800   16.703700  -67.795100
  H    -64.857900   17.471300  -67.165100
  H    -63.292600   17.026200  -67.891600
  H    -64.868300   16.812900  -68.748800
  S    -71.213100   17.005300  -69.727800
  C    -71.553400   18.512600  -70.502900
  C    -70.620400   19.439900  -70.191000
  C    -69.496600   18.928200  -69.485500
  C    -69.625600   17.540100  -69.321800
  H    -70.764500   20.496600  -70.468500
  C    -68.236600   19.762700  -69.314700
  H    -68.108500   20.507100  -70.133100
  H    -67.486400   19.084300  -69.518500
  C    -68.053800   20.529100  -68.007000
  H    -67.118600   21.127800  -68.097600
  H    -67.879200   19.745200  -67.270000
  C    -69.179900   21.481100  -67.665900
  H    -69.508300   22.016400  -68.534400
  H    -68.949100   22.277200  -67.026900
  H    -70.053500   20.959000  -67.312300
  H    -66.804100   13.571900  -69.065100
  H    -72.360100   18.690600  -71.281000

 Total Charge           Charge          ....    0
 Multiplicity           Mult            ....    1
 Number of Electrons    NEL             ....  134
 Basis Dimension        Dim             ....  322

ORBITAL ENERGIES
----------------

  NO   OCC          E(Eh)            E(eV)
   0   2.0000     -88.966988     -2420.9148
   1   2.0000     -88.962648     -2420.7967
   2   2.0000     -10.324163      -280.9348
   3   2.0000     -10.323834      -280.9258
   4   2.0000     -10.312666      -280.6219
   5   2.0000     -10.309699      -280.5412
   6   2.0000     -10.306904      -280.4651
   7   2.0000     -10.301166      -280.3090
   8   2.0000     -10.295126      -280.1446
   9   2.0000     -10.293335      -280.0959
  10   2.0000     -10.291060      -280.0340
  11   2.0000     -10.288453      -279.9630
  12   2.0000     -10.287701      -279.9426
  13   2.0000     -10.284827      -279.8644
  14   2.0000     -10.281301      -279.7684
  15   2.0000     -10.268021      -279.4071
  16   2.0000      -8.082458      -219.9349
  17   2.0000      -8.078486      -219.8268
  18   2.0000      -6.040841      -164.3796
  19   2.0000      -6.036932      -164.2733
  20   2.0000      -6.036855      -164.2712
  21   2.0000      -6.033229      -164.1725
  22   2.0000      -6.032917      -164.1640
  23   2.0000      -6.029249      -164.0642
  24   2.0000      -1.012882       -27.5619
  25   2.0000      -0.989611       -26.9287
  26   2.0000      -0.912184       -24.8218
  27   2.0000      -0.908297       -24.7160
  28   2.0000      -0.868751       -23.6399
  29   2.0000      -0.852130       -23.1876
  30   2.0000      -0.842545       -22.9268
  31   2.0000      -0.814865       -22.1736
  32   2.0000      -0.787418       -21.4267
  33   2.0000      -0.775530       -21.1032
  34   2.0000      -0.706227       -19.2174
  35   2.0000      -0.702724       -19.1221
  36   2.0000      -0.687810       -18.7163
  37   2.0000      -0.663283       -18.0488
  38   2.0000      -0.646710       -17.5979
  39   2.0000      -0.609871       -16.5954
  40   2.0000      -0.592832       -16.1318
  41   2.0000      -0.571934       -15.5631
  42   2.0000      -0.558136       -15.1876
  43   2.0000      -0.549528       -14.9534
  44   2.0000      -0.547842       -14.9075
  45   2.0000      -0.539271       -14.6743
  46   2.0000      -0.511380       -13.9154
  47   2.0000      -0.506401       -13.7799
  48   2.0000      -0.499065       -13.5802
  49   2.0000      -0.493269       -13.4225
  50   2.0000      -0.484812       -13.1924
  51   2.0000      -0.483910       -13.1679
  52   2.0000      -0.472434       -12.8556
  53   2.0000      -0.466214       -12.6863
  54   2.0000      -0.465897       -12.6777
  55   2.0000      -0.447741       -12.1837
  56   2.0000      -0.446597       -12.1525
  57   2.0000      -0.440673       -11.9913
  58   2.0000      -0.433723       -11.8022
  59   2.0000      -0.421472       -11.4688
  60   2.0000      -0.417978       -11.3738
  61   2.0000      -0.417197       -11.3525
  62   2.0000      -0.413914       -11.2632
  63   2.0000      -0.347383        -9.4528
  64   2.0000      -0.334746        -9.1089
  65   2.0000      -0.328614        -8.9420
  66   2.0000      -0.291604        -7.9349
  67   0.0000       0.029015         0.7895
  68   0.0000       0.075623         2.0578
  69   0.0000       0.114964         3.1283
  70   0.0000       0.123174         3.3517
  71   0.0000       0.126028         3.4294

MULLIKEN ATOMIC CHARGES
-----------------------
   0 S :    0.127862
   1 C :   -0.107170
   2 C :   -0.084714
   3 C :    0.036088
   4 C :   -0.158161
   5 H :   -0.009033
   6 C :    0.103289
   7 H :    0.021163
   8 H :    0.028795
   9 C :   -0.073530
  10 H :    0.030198
  11 H :    0.035594
  12 C :   -0.090379
  13 H :    0.025551
  14 H :    0.045479
  15 H :    0.048426
  16 S :    0.113277
  17 C :   -0.118287
  18 C :   -0.048877
  19 C :   -0.011761
  20 C :   -0.186917
  21 H :    0.026950
  22 C :    0.056311
  23 H :    0.022412
  24 H :    0.009174
  25 C :   -0.059003
  26 H :    0.032784
  27 H :    0.022173
  28 C :   -0.009989
  29 H :    0.005883
  30 H :    0.021665
  31 H :    0.038043
  32 H :    0.027986
  33 H :    0.078720
Sum of atomic charges:   -0.0000000

LOEWDIN ATOMIC CHARGES
----------------------
   0 S :    0.420615
   1 C :   -0.192424
   2 C :   -0.053718
   3 C :   -0.060742
   4 C :   -0.197853
   5 H :    0.026873
   6 C :   -0.030029
   7 H :    0.031733
   8 H :    0.032021
   9 C :   -0.041599
  10 H :    0.023387
  11 H :    0.026926
  12 C :   -0.075822
  13 H :    0.024654
  14 H :    0.028739
  15 H :    0.026055
  16 S :    0.416976
  17 C :   -0.206729
  18 C :   -0.075536
  19 C :   -0.059738
  20 C :   -0.204013
  21 H :    0.035030
  22 C :   -0.030389
  23 H :    0.032109
  24 H :    0.021608
  25 C :   -0.037020
  26 H :    0.029714
  27 H :    0.018205
  28 C :   -0.062899
  29 H :    0.022530
  30 H :    0.021480
  31 H :    0.028541
  32 H :    0.016276
  33 H :    0.045038

  Mayer bond orders larger than 0.100000
B(  0-S ,  1-C ) :   1.1410 B(  0-S ,  4-C ) :   1.1513 B(  1-C ,  2-C ) :   1.6279
B(  1-C , 32-H ) :   0.9755 B(  2-C ,  3-C ) :   1.1919 B(  2-C ,  6-C ) :   1.0128
B(  3-C ,  4-C ) :   1.6055 B(  3-C ,  5-H ) :   1.0009 B(  4-C , 20-C ) :   1.0289
B(  6-C ,  7-H ) :   0.9339 B(  6-C ,  8-H ) :   0.9443 B(  6-C ,  9-C ) :   1.0807
B(  9-C , 10-H ) :   0.9580 B(  9-C , 11-H ) :   0.9577 B(  9-C , 12-C ) :   1.0584
B( 12-C , 13-H ) :   0.9767 B( 12-C , 14-H ) :   0.9776 B( 12-C , 15-H ) :   0.9737
B( 16-S , 17-C ) :   1.1389 B( 16-S , 20-C ) :   1.1647 B( 17-C , 18-C ) :   1.6269
B( 17-C , 33-H ) :   0.9578 B( 18-C , 19-C ) :   1.2440 B( 18-C , 21-H ) :   0.9859
B( 19-C , 20-C ) :   1.5668 B( 19-C , 22-C ) :   1.0283 B( 22-C , 23-H ) :   0.9417
B( 22-C , 24-H ) :   0.9320 B( 22-C , 25-C ) :   1.0792 B( 25-C , 26-H ) :   0.9523
B( 25-C , 27-H ) :   0.9548 B( 25-C , 28-C ) :   1.0803 B( 28-C , 29-H ) :   0.9688
B( 28-C , 30-H ) :   0.9720 B( 28-C , 31-H ) :   0.9700

Dispersion correction           -0.015507424
FINAL SINGLE POINT ENERGY     -1339.877254954622

DIPOLE MOMENT
-------------
                                X             Y             Z
Electronic contribution:    -19.82208     -15.16925     -12.12016
Nuclear contribution   :     20.26889      15.47588      12.25459
                        -----------------------------------------
Total Dipole Moment    :      0.44681       0.30664       0.13444
                        -----------------------------------------
Magnitude (a.u.)       :      0.55834
Magnitude (Debye)      :      1.41918

Rotational constants in cm-1:     0.019172     0.009734     0.006989
Rotational constants in MHz :   574.776790   291.821661   209.519029

                             ****ORCA TERMINATED NORMALLY****
TOTAL RUN TIME: 0 days 0 hours 0 minutes 22 seconds 473 msec
