                         Program Version 4.2.1 -  RELEASE  -
|  1> ! wB97X-D3 SP def2-SVP
|  2> %pal
|  3> nprocs 24
|  4> end
|  5>
|  6> * xyz 0 1
|  7> S 	 45.4354 	 -16.5223 	 -108.283
|  8> C 	 44.6296 	 -16.9595 	 -109.812
|  9> C 	 43.8349 	 -15.9103 	 -110.255
| 10> C 	 44.1539 	 -14.7563 	 -109.497
| 11> C 	 45.1693 	 -14.822 	 -108.54
| 12> H 	 43.6991 	 -13.8344 	 -109.584
| 13> C 	 42.7106 	 -15.8842 	 -111.273
| 14> H 	 42.3184 	 -16.893 	 -111.388
| 15> H 	 43.2577 	 -15.728 	 -112.197
| 16> C 	 41.5959 	 -14.7829 	 -111.063
| 17> H 	 41.4209 	 -14.7592 	 -109.995
| 18> H 	 42.1526 	 -13.9329 	 -111.363
| 19> C 	 40.3061 	 -14.9294 	 -111.903
| 20> H 	 40.1634 	 -15.9943 	 -112.14
| 21> H 	 39.4643 	 -14.6737 	 -111.317
| 22> H 	 40.3659 	 -14.4042 	 -112.831
| 23> S 	 45.4014 	 -14.166 	 -105.945
| 24> C 	 45.8016 	 -12.4761 	 -105.485
| 25> C 	 46.003 	 -11.6924 	 -106.634
| 26> C 	 45.7681 	 -12.4381 	 -107.801
| 27> C 	 45.5101 	 -13.7752 	 -107.622
| 28> H 	 46.2219 	 -10.6258 	 -106.495
| 29> C 	 45.8749 	 -11.7574 	 -109.204
| 30> H 	 45.111 	 -10.9499 	 -109.151
| 31> H 	 45.5164 	 -12.3793 	 -109.953
| 32> C 	 47.2194 	 -11.279 	 -109.58
| 33> H 	 47.684 	 -10.7755 	 -108.694
| 34> H 	 47.2359 	 -10.5122 	 -110.407
| 35> C 	 48.1914 	 -12.455 	 -109.934
| 36> H 	 49.023 	 -11.8762 	 -110.383
| 37> H 	 47.8826 	 -13.207 	 -110.713
| 38> H 	 48.6408 	 -13.0178 	 -109.062
| 39> H 	 44.5237 	 -17.9617 	 -110.138
| 40> H 	 45.876 	 -12.0206 	 -104.512
| 41> *
| 42>
| 43>                          ****END OF INPUT****

CARTESIAN COORDINATES (ANGSTROEM)
---------------------------------
  S     45.435400  -16.522300  -108.283000
  C     44.629600  -16.959500  -109.812000
  C     43.834900  -15.910300  -110.255000
  C     44.153900  -14.756300  -109.497000
  C     45.169300  -14.822000  -108.540000
  H     43.699100  -13.834400  -109.584000
  C     42.710600  -15.884200  -111.273000
  H     42.318400  -16.893000  -111.388000
  H     43.257700  -15.728000  -112.197000
  C     41.595900  -14.782900  -111.063000
  H     41.420900  -14.759200  -109.995000
  H     42.152600  -13.932900  -111.363000
  C     40.306100  -14.929400  -111.903000
  H     40.163400  -15.994300  -112.140000
  H     39.464300  -14.673700  -111.317000
  H     40.365900  -14.404200  -112.831000
  S     45.401400  -14.166000  -105.945000
  C     45.801600  -12.476100  -105.485000
  C     46.003000  -11.692400  -106.634000
  C     45.768100  -12.438100  -107.801000
  C     45.510100  -13.775200  -107.622000
  H     46.221900  -10.625800  -106.495000
  C     45.874900  -11.757400  -109.204000
  H     45.111000  -10.949900  -109.151000
  H     45.516400  -12.379300  -109.953000
  C     47.219400  -11.279000  -109.580000
  H     47.684000  -10.775500  -108.694000
  H     47.235900  -10.512200  -110.407000
  C     48.191400  -12.455000  -109.934000
  H     49.023000  -11.876200  -110.383000
  H     47.882600  -13.207000  -110.713000
  H     48.640800  -13.017800  -109.062000
  H     44.523700  -17.961700  -110.138000
  H     45.876000  -12.020600  -104.512000

 Total Charge           Charge          ....    0
 Multiplicity           Mult            ....    1
 Number of Electrons    NEL             ....  134
 Basis Dimension        Dim             ....  322

ORBITAL ENERGIES
----------------

  NO   OCC          E(Eh)            E(eV)
   0   2.0000     -88.967975     -2420.9417
   1   2.0000     -88.965039     -2420.8618
   2   2.0000     -10.327472      -281.0248
   3   2.0000     -10.324201      -280.9358
   4   2.0000     -10.321503      -280.8624
   5   2.0000     -10.313970      -280.6574
   6   2.0000     -10.303689      -280.3776
   7   2.0000     -10.301983      -280.3312
   8   2.0000     -10.297804      -280.2175
   9   2.0000     -10.295717      -280.1607
  10   2.0000     -10.290776      -280.0263
  11   2.0000     -10.290762      -280.0259
  12   2.0000     -10.284364      -279.8518
  13   2.0000     -10.282815      -279.8096
  14   2.0000     -10.280505      -279.7468
  15   2.0000     -10.279683      -279.7244
  16   2.0000      -8.082251      -219.9292
  17   2.0000      -8.079301      -219.8489
  18   2.0000      -6.040873      -164.3805
  19   2.0000      -6.037923      -164.3002
  20   2.0000      -6.036815      -164.2701
  21   2.0000      -6.034103      -164.1963
  22   2.0000      -6.032913      -164.1639
  23   2.0000      -6.029746      -164.0777
  24   2.0000      -1.009865       -27.4798
  25   2.0000      -0.983457       -26.7612
  26   2.0000      -0.911681       -24.8081
  27   2.0000      -0.906704       -24.6727
  28   2.0000      -0.874141       -23.7866
  29   2.0000      -0.847072       -23.0500
  30   2.0000      -0.841783       -22.9061
  31   2.0000      -0.811907       -22.0931
  32   2.0000      -0.784590       -21.3498
  33   2.0000      -0.773759       -21.0550
  34   2.0000      -0.717783       -19.5319
  35   2.0000      -0.699109       -19.0237
  36   2.0000      -0.690027       -18.7766
  37   2.0000      -0.659282       -17.9400
  38   2.0000      -0.643226       -17.5031
  39   2.0000      -0.621336       -16.9074
  40   2.0000      -0.595054       -16.1922
  41   2.0000      -0.576483       -15.6869
  42   2.0000      -0.563859       -15.3434
  43   2.0000      -0.550477       -14.9792
  44   2.0000      -0.535372       -14.5682
  45   2.0000      -0.522437       -14.2162
  46   2.0000      -0.515988       -14.0408
  47   2.0000      -0.511498       -13.9186
  48   2.0000      -0.505001       -13.7418
  49   2.0000      -0.501450       -13.6451
  50   2.0000      -0.493774       -13.4363
  51   2.0000      -0.480959       -13.0876
  52   2.0000      -0.472546       -12.8586
  53   2.0000      -0.463654       -12.6167
  54   2.0000      -0.456770       -12.4294
  55   2.0000      -0.451365       -12.2823
  56   2.0000      -0.445481       -12.1221
  57   2.0000      -0.435488       -11.8502
  58   2.0000      -0.429784       -11.6950
  59   2.0000      -0.421143       -11.4599
  60   2.0000      -0.418661       -11.3924
  61   2.0000      -0.414887       -11.2896
  62   2.0000      -0.406998       -11.0750
  63   2.0000      -0.351923        -9.5763
  64   2.0000      -0.333266        -9.0686
  65   2.0000      -0.324597        -8.8327
  66   2.0000      -0.284674        -7.7464
  67   0.0000       0.021727         0.5912
  68   0.0000       0.067608         1.8397
  69   0.0000       0.097903         2.6641
  70   0.0000       0.126688         3.4473
  71   0.0000       0.134329         3.6553

MULLIKEN ATOMIC CHARGES
-----------------------
   0 S :    0.089839
   1 C :   -0.116655
   2 C :   -0.074600
   3 C :   -0.003356
   4 C :   -0.116281
   5 H :   -0.014019
   6 C :    0.071496
   7 H :    0.013960
   8 H :    0.038616
   9 C :   -0.108760
  10 H :    0.047114
  11 H :    0.036392
  12 C :    0.010617
  13 H :    0.023080
  14 H :    0.031272
  15 H :    0.036904
  16 S :    0.102555
  17 C :   -0.093900
  18 C :   -0.057255
  19 C :   -0.069280
  20 C :   -0.132838
  21 H :    0.035804
  22 C :    0.129805
  23 H :    0.025270
  24 H :   -0.009497
  25 C :   -0.085660
  26 H :    0.029785
  27 H :    0.040552
  28 C :   -0.103352
  29 H :    0.029167
  30 H :    0.048726
  31 H :    0.058691
  32 H :    0.034135
  33 H :    0.051675
Sum of atomic charges:    0.0000000

LOEWDIN ATOMIC CHARGES
----------------------
   0 S :    0.395081
   1 C :   -0.183509
   2 C :   -0.057816
   3 C :   -0.060486
   4 C :   -0.195757
   5 H :    0.011926
   6 C :   -0.031138
   7 H :    0.023765
   8 H :    0.035764
   9 C :   -0.035103
  10 H :    0.027128
  11 H :    0.022110
  12 C :   -0.055920
  13 H :    0.029097
  14 H :    0.026453
  15 H :    0.026419
  16 S :    0.401428
  17 C :   -0.173906
  18 C :   -0.069893
  19 C :   -0.058962
  20 C :   -0.202517
  21 H :    0.039489
  22 C :   -0.031584
  23 H :    0.032785
  24 H :    0.014231
  25 C :   -0.046954
  26 H :    0.028145
  27 H :    0.029934
  28 C :   -0.080553
  29 H :    0.028010
  30 H :    0.029899
  31 H :    0.034821
  32 H :    0.018753
  33 H :    0.028861

  Mayer bond orders larger than 0.100000
B(  0-S ,  1-C ) :   1.1419 B(  0-S ,  4-C ) :   1.1464 B(  1-C ,  2-C ) :   1.5805
B(  1-C ,  4-C ) :   0.1072 B(  1-C , 32-H ) :   0.9755 B(  2-C ,  3-C ) :   1.2730
B(  2-C ,  6-C ) :   1.0003 B(  3-C ,  4-C ) :   1.5220 B(  3-C ,  5-H ) :   0.9983
B(  4-C , 20-C ) :   1.0749 B(  6-C ,  7-H ) :   0.9383 B(  6-C ,  8-H ) :   0.9321
B(  6-C ,  9-C ) :   1.0617 B(  9-C , 10-H ) :   0.9673 B(  9-C , 11-H ) :   0.9482
B(  9-C , 12-C ) :   1.0728 B( 12-C , 13-H ) :   0.9766 B( 12-C , 14-H ) :   0.9744
B( 12-C , 15-H ) :   0.9758 B( 16-S , 17-C ) :   1.1468 B( 16-S , 20-C ) :   1.1329
B( 17-C , 18-C ) :   1.6117 B( 17-C , 20-C ) :   0.1032 B( 17-C , 33-H ) :   0.9687
B( 18-C , 19-C ) :   1.2464 B( 18-C , 21-H ) :   0.9858 B( 19-C , 20-C ) :   1.6029
B( 19-C , 22-C ) :   1.0278 B( 22-C , 23-H ) :   0.9293 B( 22-C , 24-H ) :   0.9295
B( 22-C , 25-C ) :   1.0797 B( 25-C , 26-H ) :   0.9539 B( 25-C , 27-H ) :   0.9570
B( 25-C , 28-C ) :   1.0592 B( 28-C , 29-H ) :   0.9749 B( 28-C , 30-H ) :   0.9764
B( 28-C , 31-H ) :   0.9764

Dispersion correction           -0.014204035
FINAL SINGLE POINT ENERGY     -1339.851610719608

DIPOLE MOMENT
-------------
                                X             Y             Z
Electronic contribution:      6.95718     -11.08034      21.61619
Nuclear contribution   :     -7.43795      11.54816     -22.08412
                        -----------------------------------------
Total Dipole Moment    :     -0.48077       0.46782      -0.46793
                        -----------------------------------------
Magnitude (a.u.)       :      0.81789
Magnitude (Debye)      :      2.07892

Rotational constants in cm-1:     0.017843     0.008452     0.007491
Rotational constants in MHz :   534.930889   253.378894   224.573383

                             ****ORCA TERMINATED NORMALLY****
TOTAL RUN TIME: 0 days 0 hours 0 minutes 20 seconds 756 msec
