                         Program Version 4.2.1 -  RELEASE  -
|  1> ! wB97X-D3 SP def2-SVP
|  2> %pal
|  3> nprocs 24
|  4> end
|  5>
|  6> * xyz 0 1
|  7> S 	 45.5586 	 -17.5341 	 -116.918
|  8> C 	 46.5827 	 -18.1216 	 -115.605
|  9> C 	 47.0982 	 -17.0578 	 -114.854
| 10> C 	 46.6133 	 -15.8536 	 -115.41
| 11> C 	 45.7979 	 -15.8134 	 -116.51
| 12> H 	 46.9182 	 -14.8674 	 -115.051
| 13> C 	 48.0238 	 -17.089 	 -113.628
| 14> H 	 47.6929 	 -16.3584 	 -112.895
| 15> H 	 48.9807 	 -16.6623 	 -113.884
| 16> C 	 48.1151 	 -18.4634 	 -112.862
| 17> H 	 47.1396 	 -18.5675 	 -112.389
| 18> H 	 48.1854 	 -19.3817 	 -113.579
| 19> C 	 49.1592 	 -18.5666 	 -111.712
| 20> H 	 48.9558 	 -19.522 	 -111.261
| 21> H 	 50.1455 	 -18.4911 	 -112.008
| 22> H 	 48.947 	 -17.7247 	 -110.992
| 23> S 	 44.7672 	 -14.9118 	 -118.886
| 24> C 	 43.9104 	 -13.3705 	 -119.051
| 25> C 	 43.9545 	 -12.7526 	 -117.81
| 26> C 	 44.7313 	 -13.4263 	 -116.767
| 27> C 	 45.1284 	 -14.709 	 -117.186
| 28> H 	 43.3157 	 -11.9132 	 -117.664
| 29> C 	 44.8248 	 -12.8633 	 -115.421
| 30> H 	 45.3839 	 -13.5402 	 -114.76
| 31> H 	 43.8944 	 -12.7472 	 -115.076
| 32> C 	 45.6419 	 -11.4942 	 -115.302
| 33> H 	 45.3304 	 -10.8126 	 -116.13
| 34> H 	 46.6903 	 -11.7206 	 -115.584
| 35> C 	 45.4695 	 -10.8496 	 -113.907
| 36> H 	 44.4016 	 -10.8285 	 -113.59
| 37> H 	 45.8334 	 -9.84359 	 -113.89
| 38> H 	 46.1353 	 -11.418 	 -113.231
| 39> H 	 46.4597 	 -19.176 	 -115.357
| 40> H 	 43.2454 	 -13.0467 	 -119.89
| 41> *
| 42>
| 43>                          ****END OF INPUT****

CARTESIAN COORDINATES (ANGSTROEM)
---------------------------------
  S     45.558600  -17.534100  -116.918000
  C     46.582700  -18.121600  -115.605000
  C     47.098200  -17.057800  -114.854000
  C     46.613300  -15.853600  -115.410000
  C     45.797900  -15.813400  -116.510000
  H     46.918200  -14.867400  -115.051000
  C     48.023800  -17.089000  -113.628000
  H     47.692900  -16.358400  -112.895000
  H     48.980700  -16.662300  -113.884000
  C     48.115100  -18.463400  -112.862000
  H     47.139600  -18.567500  -112.389000
  H     48.185400  -19.381700  -113.579000
  C     49.159200  -18.566600  -111.712000
  H     48.955800  -19.522000  -111.261000
  H     50.145500  -18.491100  -112.008000
  H     48.947000  -17.724700  -110.992000
  S     44.767200  -14.911800  -118.886000
  C     43.910400  -13.370500  -119.051000
  C     43.954500  -12.752600  -117.810000
  C     44.731300  -13.426300  -116.767000
  C     45.128400  -14.709000  -117.186000
  H     43.315700  -11.913200  -117.664000
  C     44.824800  -12.863300  -115.421000
  H     45.383900  -13.540200  -114.760000
  H     43.894400  -12.747200  -115.076000
  C     45.641900  -11.494200  -115.302000
  H     45.330400  -10.812600  -116.130000
  H     46.690300  -11.720600  -115.584000
  C     45.469500  -10.849600  -113.907000
  H     44.401600  -10.828500  -113.590000
  H     45.833400   -9.843590  -113.890000
  H     46.135300  -11.418000  -113.231000
  H     46.459700  -19.176000  -115.357000
  H     43.245400  -13.046700  -119.890000

 Total Charge           Charge          ....    0
 Multiplicity           Mult            ....    1
 Number of Electrons    NEL             ....  134
 Basis Dimension        Dim             ....  322

ORBITAL ENERGIES
----------------

  NO   OCC          E(Eh)            E(eV)
   0   2.0000     -88.963437     -2420.8182
   1   2.0000     -88.962528     -2420.7935
   2   2.0000     -10.335839      -281.2525
   3   2.0000     -10.334832      -281.2251
   4   2.0000     -10.324587      -280.9463
   5   2.0000     -10.321766      -280.8695
   6   2.0000     -10.310550      -280.5643
   7   2.0000     -10.308116      -280.4981
   8   2.0000     -10.301063      -280.3062
   9   2.0000     -10.300798      -280.2990
  10   2.0000     -10.296932      -280.1938
  11   2.0000     -10.295780      -280.1624
  12   2.0000     -10.293146      -280.0907
  13   2.0000     -10.285502      -279.8827
  14   2.0000     -10.283623      -279.8316
  15   2.0000     -10.281803      -279.7821
  16   2.0000      -8.077909      -219.8111
  17   2.0000      -8.076761      -219.7798
  18   2.0000      -6.036681      -164.2664
  19   2.0000      -6.035397      -164.2315
  20   2.0000      -6.032304      -164.1473
  21   2.0000      -6.031224      -164.1179
  22   2.0000      -6.028522      -164.0444
  23   2.0000      -6.027503      -164.0167
  24   2.0000      -1.004264       -27.3274
  25   2.0000      -0.981802       -26.7162
  26   2.0000      -0.908613       -24.7246
  27   2.0000      -0.904832       -24.6217
  28   2.0000      -0.870355       -23.6836
  29   2.0000      -0.851556       -23.1720
  30   2.0000      -0.844647       -22.9840
  31   2.0000      -0.817307       -22.2401
  32   2.0000      -0.784249       -21.3405
  33   2.0000      -0.772862       -21.0307
  34   2.0000      -0.709399       -19.3037
  35   2.0000      -0.703587       -19.1456
  36   2.0000      -0.692535       -18.8448
  37   2.0000      -0.664995       -18.0954
  38   2.0000      -0.641962       -17.4687
  39   2.0000      -0.617650       -16.8071
  40   2.0000      -0.594965       -16.1898
  41   2.0000      -0.570208       -15.5162
  42   2.0000      -0.566375       -15.4118
  43   2.0000      -0.557631       -15.1739
  44   2.0000      -0.529285       -14.4026
  45   2.0000      -0.524204       -14.2643
  46   2.0000      -0.523055       -14.2331
  47   2.0000      -0.521116       -14.1803
  48   2.0000      -0.510123       -13.8812
  49   2.0000      -0.505931       -13.7671
  50   2.0000      -0.496174       -13.5016
  51   2.0000      -0.481270       -13.0960
  52   2.0000      -0.468967       -12.7612
  53   2.0000      -0.461782       -12.5657
  54   2.0000      -0.460211       -12.5230
  55   2.0000      -0.450904       -12.2697
  56   2.0000      -0.440950       -11.9989
  57   2.0000      -0.436837       -11.8869
  58   2.0000      -0.431331       -11.7371
  59   2.0000      -0.424329       -11.5466
  60   2.0000      -0.422045       -11.4844
  61   2.0000      -0.417363       -11.3570
  62   2.0000      -0.405751       -11.0410
  63   2.0000      -0.360816        -9.8183
  64   2.0000      -0.330704        -8.9989
  65   2.0000      -0.324377        -8.8267
  66   2.0000      -0.286953        -7.8084
  67   0.0000       0.018753         0.5103
  68   0.0000       0.077103         2.0981
  69   0.0000       0.110182         2.9982
  70   0.0000       0.113220         3.0809
  71   0.0000       0.130352         3.5470

MULLIKEN ATOMIC CHARGES
-----------------------
   0 S :    0.083684
   1 C :   -0.156545
   2 C :   -0.045190
   3 C :   -0.024321
   4 C :   -0.106427
   5 H :    0.005128
   6 C :    0.084740
   7 H :    0.022092
   8 H :    0.032887
   9 C :   -0.150851
  10 H :    0.034849
  11 H :    0.046807
  12 C :   -0.013407
  13 H :    0.038131
  14 H :    0.027957
  15 H :    0.034062
  16 S :    0.085235
  17 C :   -0.104867
  18 C :   -0.033476
  19 C :   -0.044492
  20 C :   -0.115688
  21 H :    0.015446
  22 C :    0.101321
  23 H :    0.007869
  24 H :    0.000834
  25 C :   -0.130397
  26 H :    0.032072
  27 H :    0.033273
  28 C :   -0.031100
  29 H :    0.043961
  30 H :    0.033449
  31 H :    0.036581
  32 H :    0.072182
  33 H :    0.084202
Sum of atomic charges:    0.0000000

LOEWDIN ATOMIC CHARGES
----------------------
   0 S :    0.382698
   1 C :   -0.189290
   2 C :   -0.062023
   3 C :   -0.071798
   4 C :   -0.181980
   5 H :    0.024645
   6 C :   -0.031654
   7 H :    0.032382
   8 H :    0.030664
   9 C :   -0.047204
  10 H :    0.024631
  11 H :    0.029434
  12 C :   -0.055594
  13 H :    0.029893
  14 H :    0.013116
  15 H :    0.032206
  16 S :    0.393559
  17 C :   -0.191817
  18 C :   -0.066059
  19 C :   -0.054824
  20 C :   -0.189333
  21 H :    0.025844
  22 C :   -0.024712
  23 H :    0.030127
  24 H :    0.014324
  25 C :   -0.039945
  26 H :    0.021007
  27 H :    0.025568
  28 C :   -0.066939
  29 H :    0.031824
  30 H :    0.024420
  31 H :    0.029871
  32 H :    0.029958
  33 H :    0.047000

  Mayer bond orders larger than 0.100000
B(  0-S ,  1-C ) :   1.1552 B(  0-S ,  4-C ) :   1.1242 B(  1-C ,  2-C ) :   1.5729
B(  1-C ,  4-C ) :   0.1047 B(  1-C , 32-H ) :   0.9630 B(  2-C ,  3-C ) :   1.2736
B(  2-C ,  6-C ) :   1.0098 B(  3-C ,  4-C ) :   1.5903 B(  3-C ,  5-H ) :   0.9794
B(  4-C , 20-C ) :   1.0661 B(  6-C ,  7-H ) :   0.9402 B(  6-C ,  8-H ) :   0.9399
B(  6-C ,  9-C ) :   1.0473 B(  9-C , 10-H ) :   0.9613 B(  9-C , 11-H ) :   0.9565
B(  9-C , 12-C ) :   1.0794 B( 12-C , 13-H ) :   0.9734 B( 12-C , 14-H ) :   0.9800
B( 12-C , 15-H ) :   0.9736 B( 16-S , 17-C ) :   1.1325 B( 16-S , 20-C ) :   1.1378
B( 17-C , 18-C ) :   1.6278 B( 17-C , 33-H ) :   0.9614 B( 18-C , 19-C ) :   1.2149
B( 18-C , 21-H ) :   0.9871 B( 19-C , 20-C ) :   1.5703 B( 19-C , 22-C ) :   1.0692
B( 22-C , 23-H ) :   0.9338 B( 22-C , 24-H ) :   0.9262 B( 22-C , 25-C ) :   1.0389
B( 25-C , 26-H ) :   0.9633 B( 25-C , 27-H ) :   0.9573 B( 25-C , 28-C ) :   1.0705
B( 28-C , 29-H ) :   0.9751 B( 28-C , 30-H ) :   0.9737 B( 28-C , 31-H ) :   0.9750

Dispersion correction           -0.013128921
FINAL SINGLE POINT ENERGY     -1339.863575406074

DIPOLE MOMENT
-------------
                                X             Y             Z
Electronic contribution:    -11.19519      -8.22092     -27.85200
Nuclear contribution   :     11.21152       8.62912      28.65116
                        -----------------------------------------
Total Dipole Moment    :      0.01633       0.40820       0.79916
                        -----------------------------------------
Magnitude (a.u.)       :      0.89752
Magnitude (Debye)      :      2.28132

Rotational constants in cm-1:     0.018220     0.007709     0.005545
Rotational constants in MHz :   546.215140   231.097813   166.231271

                             ****ORCA TERMINATED NORMALLY****
TOTAL RUN TIME: 0 days 0 hours 0 minutes 20 seconds 622 msec
