                         Program Version 4.2.1 -  RELEASE  -
|  1> ! wB97X-D3 SP def2-SVP
|  2> %pal
|  3> nprocs 24
|  4> end
|  5>
|  6> * xyz 0 1
|  7> S 	 -49.4522 	 -52.0089 	 -79.2625
|  8> C 	 -51.1364 	 -51.6818 	 -79.2055
|  9> C 	 -51.3908 	 -50.357 	 -79.2829
| 10> C 	 -50.2402 	 -49.6065 	 -79.6566
| 11> C 	 -49.011 	 -50.3043 	 -79.6739
| 12> H 	 -50.1243 	 -48.5073 	 -79.8704
| 13> C 	 -52.7521 	 -49.7409 	 -78.9883
| 14> H 	 -53.5535 	 -50.508 	 -79.0856
| 15> H 	 -53.0049 	 -49.0664 	 -79.8227
| 16> C 	 -52.8689 	 -49.1378 	 -77.5678
| 17> H 	 -52.615 	 -49.9587 	 -76.9328
| 18> H 	 -52.0709 	 -48.3645 	 -77.5045
| 19> C 	 -54.2977 	 -48.6665 	 -77.2378
| 20> H 	 -55.1896 	 -49.3568 	 -77.1708
| 21> H 	 -54.3035 	 -48.1362 	 -76.3334
| 22> H 	 -54.7046 	 -47.9221 	 -78.0263
| 23> S 	 -47.0494 	 -48.4556 	 -79.3842
| 24> C 	 -45.7556 	 -48.244 	 -80.5612
| 25> C 	 -45.8285 	 -49.3336 	 -81.4158
| 26> C 	 -46.9996 	 -50.1405 	 -81.3027
| 27> C 	 -47.7948 	 -49.7925 	 -80.2361
| 28> H 	 -44.9873 	 -49.3176 	 -82.1272
| 29> C 	 -47.2371 	 -51.2776 	 -82.3688
| 30> H 	 -47.7063 	 -52.1246 	 -81.8778
| 31> H 	 -46.2752 	 -51.4797 	 -82.843
| 32> C 	 -48.2696 	 -50.8003 	 -83.4415
| 33> H 	 -49.1045 	 -50.4528 	 -82.9458
| 34> H 	 -48.617 	 -51.5861 	 -84.0686
| 35> C 	 -47.6992 	 -49.6726 	 -84.3343
| 36> H 	 -46.8929 	 -49.9761 	 -84.991
| 37> H 	 -47.3811 	 -48.7889 	 -83.7526
| 38> H 	 -48.5166 	 -49.2091 	 -84.9077
| 39> H 	 -51.8998 	 -52.3705 	 -78.9154
| 40> H 	 -44.9765 	 -47.5253 	 -80.463
| 41> *
| 42>
| 43>                          ****END OF INPUT****

CARTESIAN COORDINATES (ANGSTROEM)
---------------------------------
  S    -49.452200  -52.008900  -79.262500
  C    -51.136400  -51.681800  -79.205500
  C    -51.390800  -50.357000  -79.282900
  C    -50.240200  -49.606500  -79.656600
  C    -49.011000  -50.304300  -79.673900
  H    -50.124300  -48.507300  -79.870400
  C    -52.752100  -49.740900  -78.988300
  H    -53.553500  -50.508000  -79.085600
  H    -53.004900  -49.066400  -79.822700
  C    -52.868900  -49.137800  -77.567800
  H    -52.615000  -49.958700  -76.932800
  H    -52.070900  -48.364500  -77.504500
  C    -54.297700  -48.666500  -77.237800
  H    -55.189600  -49.356800  -77.170800
  H    -54.303500  -48.136200  -76.333400
  H    -54.704600  -47.922100  -78.026300
  S    -47.049400  -48.455600  -79.384200
  C    -45.755600  -48.244000  -80.561200
  C    -45.828500  -49.333600  -81.415800
  C    -46.999600  -50.140500  -81.302700
  C    -47.794800  -49.792500  -80.236100
  H    -44.987300  -49.317600  -82.127200
  C    -47.237100  -51.277600  -82.368800
  H    -47.706300  -52.124600  -81.877800
  H    -46.275200  -51.479700  -82.843000
  C    -48.269600  -50.800300  -83.441500
  H    -49.104500  -50.452800  -82.945800
  H    -48.617000  -51.586100  -84.068600
  C    -47.699200  -49.672600  -84.334300
  H    -46.892900  -49.976100  -84.991000
  H    -47.381100  -48.788900  -83.752600
  H    -48.516600  -49.209100  -84.907700
  H    -51.899800  -52.370500  -78.915400
  H    -44.976500  -47.525300  -80.463000

 Total Charge           Charge          ....    0
 Multiplicity           Mult            ....    1
 Number of Electrons    NEL             ....  134
 Basis Dimension        Dim             ....  322

ORBITAL ENERGIES
----------------

  NO   OCC          E(Eh)            E(eV)
   0   2.0000     -88.968705     -2420.9615
   1   2.0000     -88.961617     -2420.7687
   2   2.0000     -10.335918      -281.2546
   3   2.0000     -10.328546      -281.0540
   4   2.0000     -10.318347      -280.7765
   5   2.0000     -10.313093      -280.6335
   6   2.0000     -10.307392      -280.4784
   7   2.0000     -10.303519      -280.3730
   8   2.0000     -10.300242      -280.2838
   9   2.0000     -10.297141      -280.1995
  10   2.0000     -10.295715      -280.1606
  11   2.0000     -10.293658      -280.1047
  12   2.0000     -10.293542      -280.1015
  13   2.0000     -10.287634      -279.9407
  14   2.0000     -10.274586      -279.5857
  15   2.0000     -10.271865      -279.5117
  16   2.0000      -8.082718      -219.9419
  17   2.0000      -8.076393      -219.7698
  18   2.0000      -6.041295      -164.3920
  19   2.0000      -6.037222      -164.2812
  20   2.0000      -6.034867      -164.2171
  21   2.0000      -6.033509      -164.1801
  22   2.0000      -6.030752      -164.1051
  23   2.0000      -6.027297      -164.0111
  24   2.0000      -1.007386       -27.4124
  25   2.0000      -0.987573       -26.8732
  26   2.0000      -0.908975       -24.7345
  27   2.0000      -0.900087       -24.4926
  28   2.0000      -0.877186       -23.8694
  29   2.0000      -0.846420       -23.0323
  30   2.0000      -0.838568       -22.8186
  31   2.0000      -0.815461       -22.1898
  32   2.0000      -0.778923       -21.1956
  33   2.0000      -0.772138       -21.0109
  34   2.0000      -0.715047       -19.4574
  35   2.0000      -0.701464       -19.0878
  36   2.0000      -0.693987       -18.8843
  37   2.0000      -0.666016       -18.1232
  38   2.0000      -0.639832       -17.4107
  39   2.0000      -0.615022       -16.7356
  40   2.0000      -0.585991       -15.9456
  41   2.0000      -0.572939       -15.5905
  42   2.0000      -0.558583       -15.1998
  43   2.0000      -0.556016       -15.1300
  44   2.0000      -0.539014       -14.6673
  45   2.0000      -0.522781       -14.2256
  46   2.0000      -0.517837       -14.0911
  47   2.0000      -0.515637       -14.0312
  48   2.0000      -0.507655       -13.8140
  49   2.0000      -0.503302       -13.6955
  50   2.0000      -0.487747       -13.2723
  51   2.0000      -0.482600       -13.1322
  52   2.0000      -0.470576       -12.8050
  53   2.0000      -0.461611       -12.5611
  54   2.0000      -0.457201       -12.4411
  55   2.0000      -0.443244       -12.0613
  56   2.0000      -0.438854       -11.9418
  57   2.0000      -0.433117       -11.7857
  58   2.0000      -0.427315       -11.6278
  59   2.0000      -0.423524       -11.5247
  60   2.0000      -0.420738       -11.4489
  61   2.0000      -0.412479       -11.2241
  62   2.0000      -0.409902       -11.1540
  63   2.0000      -0.345913        -9.4128
  64   2.0000      -0.331493        -9.0204
  65   2.0000      -0.327605        -8.9146
  66   2.0000      -0.300690        -8.1822
  67   0.0000       0.025034         0.6812
  68   0.0000       0.065474         1.7817
  69   0.0000       0.110548         3.0082
  70   0.0000       0.124092         3.3767
  71   0.0000       0.130871         3.5612

MULLIKEN ATOMIC CHARGES
-----------------------
   0 S :    0.112404
   1 C :   -0.100870
   2 C :   -0.080660
   3 C :    0.004979
   4 C :   -0.149105
   5 H :    0.037901
   6 C :    0.030548
   7 H :    0.013032
   8 H :    0.032042
   9 C :   -0.033978
  10 H :    0.027260
  11 H :    0.043549
  12 C :   -0.069266
  13 H :    0.042944
  14 H :    0.029029
  15 H :    0.031523
  16 S :    0.090379
  17 C :   -0.104416
  18 C :   -0.055813
  19 C :   -0.034956
  20 C :   -0.182006
  21 H :    0.030376
  22 C :    0.105650
  23 H :    0.025126
  24 H :    0.024365
  25 C :   -0.019989
  26 H :    0.012244
  27 H :    0.024555
  28 C :   -0.085177
  29 H :    0.034140
  30 H :    0.036401
  31 H :    0.027739
  32 H :    0.044471
  33 H :    0.055577
Sum of atomic charges:   -0.0000000

LOEWDIN ATOMIC CHARGES
----------------------
   0 S :    0.399616
   1 C :   -0.192406
   2 C :   -0.076849
   3 C :   -0.055988
   4 C :   -0.194729
   5 H :    0.039076
   6 C :   -0.035366
   7 H :    0.027513
   8 H :    0.029225
   9 C :   -0.034907
  10 H :    0.024601
  11 H :    0.032652
  12 C :   -0.078837
  13 H :    0.033817
  14 H :    0.019339
  15 H :    0.032992
  16 S :    0.401923
  17 C :   -0.179396
  18 C :   -0.076347
  19 C :   -0.055745
  20 C :   -0.200462
  21 H :    0.035946
  22 C :   -0.016329
  23 H :    0.025197
  24 H :    0.028242
  25 C :   -0.027930
  26 H :    0.016159
  27 H :    0.020353
  28 C :   -0.073273
  29 H :    0.020921
  30 H :    0.027866
  31 H :    0.027651
  32 H :    0.029308
  33 H :    0.026167

  Mayer bond orders larger than 0.100000
B(  0-S ,  1-C ) :   1.1562 B(  0-S ,  4-C ) :   1.1198 B(  1-C ,  2-C ) :   1.6129
B(  1-C , 32-H ) :   0.9623 B(  2-C ,  3-C ) :   1.2422 B(  2-C ,  6-C ) :   1.0269
B(  3-C ,  4-C ) :   1.5683 B(  3-C ,  5-H ) :   0.9800 B(  4-C , 20-C ) :   1.0518
B(  6-C ,  7-H ) :   0.9440 B(  6-C ,  8-H ) :   0.9405 B(  6-C ,  9-C ) :   1.0500
B(  9-C , 10-H ) :   0.9530 B(  9-C , 11-H ) :   0.9576 B(  9-C , 12-C ) :   1.0732
B( 12-C , 13-H ) :   0.9748 B( 12-C , 14-H ) :   0.9751 B( 12-C , 15-H ) :   0.9739
B( 16-S , 17-C ) :   1.1549 B( 16-S , 20-C ) :   1.1509 B( 17-C , 18-C ) :   1.6005
B( 17-C , 20-C ) :   0.1054 B( 17-C , 33-H ) :   0.9741 B( 18-C , 19-C ) :   1.2315
B( 18-C , 21-H ) :   0.9864 B( 19-C , 20-C ) :   1.5891 B( 19-C , 22-C ) :   1.0293
B( 22-C , 23-H ) :   0.9325 B( 22-C , 24-H ) :   0.9427 B( 22-C , 25-C ) :   1.0713
B( 25-C , 26-H ) :   0.9549 B( 25-C , 27-H ) :   0.9581 B( 25-C , 28-C ) :   1.0782
B( 28-C , 29-H ) :   0.9784 B( 28-C , 30-H ) :   0.9721 B( 28-C , 31-H ) :   0.9719

Dispersion correction           -0.014677720
FINAL SINGLE POINT ENERGY     -1339.868540165451

DIPOLE MOMENT
-------------
                                X             Y             Z
Electronic contribution:     16.01565      -4.52586       8.63233
Nuclear contribution   :    -16.35069       4.66623      -8.82910
                        -----------------------------------------
Total Dipole Moment    :     -0.33504       0.14038      -0.19677
                        -----------------------------------------
Magnitude (a.u.)       :      0.41313
Magnitude (Debye)      :      1.05010

Rotational constants in cm-1:     0.021831     0.007400     0.006705
Rotational constants in MHz :   654.485110   221.860796   201.011102

                             ****ORCA TERMINATED NORMALLY****
TOTAL RUN TIME: 0 days 0 hours 0 minutes 21 seconds 652 msec
