                         Program Version 4.2.1 -  RELEASE  -
|  1> ! wB97X-D3 SP def2-SVP
|  2> %pal
|  3> nprocs 24
|  4> end
|  5>
|  6> * xyz 0 1
|  7> S 	 -43.3928 	 -51.3357 	 -73.7647
|  8> C 	 -43.5075 	 -52.8832 	 -74.5649
|  9> C 	 -42.7873 	 -53.8616 	 -73.9132
| 10> C 	 -42.2331 	 -53.4716 	 -72.6459
| 11> C 	 -42.3781 	 -52.0941 	 -72.4677
| 12> H 	 -41.7384 	 -54.0907 	 -71.8893
| 13> C 	 -42.8095 	 -55.3477 	 -74.3792
| 14> H 	 -42.0225 	 -55.7446 	 -73.7841
| 15> H 	 -42.4119 	 -55.4827 	 -75.3759
| 16> C 	 -44.2019 	 -56.0853 	 -74.2312
| 17> H 	 -44.8978 	 -55.8952 	 -74.9693
| 18> H 	 -44.1 	 -57.1664 	 -74.4651
| 19> C 	 -44.9243 	 -56.0081 	 -72.8709
| 20> H 	 -45.7445 	 -56.712 	 -72.9052
| 21> H 	 -44.307 	 -56.2931 	 -72.0851
| 22> H 	 -45.3614 	 -54.9993 	 -72.6988
| 23> S 	 -43.2197 	 -50.055 	 -70.7273
| 24> C 	 -42.077 	 -49.6008 	 -69.4654
| 25> C 	 -40.9331 	 -50.3383 	 -69.4531
| 26> C 	 -40.961 	 -51.4323 	 -70.4466
| 27> C 	 -42.0594 	 -51.3276 	 -71.3181
| 28> H 	 -40.0809 	 -50.079 	 -68.7897
| 29> C 	 -39.7105 	 -52.2428 	 -70.5384
| 30> H 	 -38.8876 	 -51.5604 	 -70.4155
| 31> H 	 -39.6868 	 -52.6028 	 -71.5428
| 32> C 	 -39.6053 	 -53.39 	 -69.5293
| 33> H 	 -40.4931 	 -54.0822 	 -69.5488
| 34> H 	 -39.5659 	 -52.9308 	 -68.5443
| 35> C 	 -38.4352 	 -54.2571 	 -69.868
| 36> H 	 -37.4943 	 -53.6881 	 -69.8891
| 37> H 	 -38.6637 	 -54.7297 	 -70.844
| 38> H 	 -38.1869 	 -55.0319 	 -69.199
| 39> H 	 -43.8681 	 -53.029 	 -75.5726
| 40> H 	 -42.2389 	 -48.8545 	 -68.8262
| 41> *
| 42>
| 43>                          ****END OF INPUT****

CARTESIAN COORDINATES (ANGSTROEM)
---------------------------------
  S    -43.392800  -51.335700  -73.764700
  C    -43.507500  -52.883200  -74.564900
  C    -42.787300  -53.861600  -73.913200
  C    -42.233100  -53.471600  -72.645900
  C    -42.378100  -52.094100  -72.467700
  H    -41.738400  -54.090700  -71.889300
  C    -42.809500  -55.347700  -74.379200
  H    -42.022500  -55.744600  -73.784100
  H    -42.411900  -55.482700  -75.375900
  C    -44.201900  -56.085300  -74.231200
  H    -44.897800  -55.895200  -74.969300
  H    -44.100000  -57.166400  -74.465100
  C    -44.924300  -56.008100  -72.870900
  H    -45.744500  -56.712000  -72.905200
  H    -44.307000  -56.293100  -72.085100
  H    -45.361400  -54.999300  -72.698800
  S    -43.219700  -50.055000  -70.727300
  C    -42.077000  -49.600800  -69.465400
  C    -40.933100  -50.338300  -69.453100
  C    -40.961000  -51.432300  -70.446600
  C    -42.059400  -51.327600  -71.318100
  H    -40.080900  -50.079000  -68.789700
  C    -39.710500  -52.242800  -70.538400
  H    -38.887600  -51.560400  -70.415500
  H    -39.686800  -52.602800  -71.542800
  C    -39.605300  -53.390000  -69.529300
  H    -40.493100  -54.082200  -69.548800
  H    -39.565900  -52.930800  -68.544300
  C    -38.435200  -54.257100  -69.868000
  H    -37.494300  -53.688100  -69.889100
  H    -38.663700  -54.729700  -70.844000
  H    -38.186900  -55.031900  -69.199000
  H    -43.868100  -53.029000  -75.572600
  H    -42.238900  -48.854500  -68.826200

 Total Charge           Charge          ....    0
 Multiplicity           Mult            ....    1
 Number of Electrons    NEL             ....  134
 Basis Dimension        Dim             ....  322

ORBITAL ENERGIES
----------------

  NO   OCC          E(Eh)            E(eV)
   0   2.0000     -88.967865     -2420.9387
   1   2.0000     -88.964395     -2420.8443
   2   2.0000     -10.334070      -281.2043
   3   2.0000     -10.331416      -281.1321
   4   2.0000     -10.312100      -280.6065
   5   2.0000     -10.308690      -280.5137
   6   2.0000     -10.306843      -280.4635
   7   2.0000     -10.303112      -280.3619
   8   2.0000     -10.302525      -280.3460
   9   2.0000     -10.296890      -280.1926
  10   2.0000     -10.293931      -280.1121
  11   2.0000     -10.290188      -280.0102
  12   2.0000     -10.286406      -279.9073
  13   2.0000     -10.285151      -279.8732
  14   2.0000     -10.276620      -279.6411
  15   2.0000     -10.270237      -279.4674
  16   2.0000      -8.081739      -219.9153
  17   2.0000      -8.078109      -219.8165
  18   2.0000      -6.040311      -164.3652
  19   2.0000      -6.036912      -164.2727
  20   2.0000      -6.036457      -164.2603
  21   2.0000      -6.032911      -164.1638
  22   2.0000      -6.032389      -164.1497
  23   2.0000      -6.028466      -164.0429
  24   2.0000      -0.999173       -27.1889
  25   2.0000      -0.974804       -26.5258
  26   2.0000      -0.917189       -24.9580
  27   2.0000      -0.900928       -24.5155
  28   2.0000      -0.871448       -23.7133
  29   2.0000      -0.854257       -23.2455
  30   2.0000      -0.845682       -23.0122
  31   2.0000      -0.814342       -22.1594
  32   2.0000      -0.783707       -21.3258
  33   2.0000      -0.770478       -20.9658
  34   2.0000      -0.710188       -19.3252
  35   2.0000      -0.707743       -19.2587
  36   2.0000      -0.698513       -19.0075
  37   2.0000      -0.664364       -18.0783
  38   2.0000      -0.637820       -17.3560
  39   2.0000      -0.612625       -16.6704
  40   2.0000      -0.597107       -16.2481
  41   2.0000      -0.575445       -15.6586
  42   2.0000      -0.560050       -15.2397
  43   2.0000      -0.546768       -14.8783
  44   2.0000      -0.538706       -14.6589
  45   2.0000      -0.525526       -14.3003
  46   2.0000      -0.519639       -14.1401
  47   2.0000      -0.514801       -14.0084
  48   2.0000      -0.511592       -13.9211
  49   2.0000      -0.500828       -13.6282
  50   2.0000      -0.486902       -13.2493
  51   2.0000      -0.478427       -13.0187
  52   2.0000      -0.473260       -12.8781
  53   2.0000      -0.460148       -12.5213
  54   2.0000      -0.454525       -12.3683
  55   2.0000      -0.448213       -12.1965
  56   2.0000      -0.441917       -12.0252
  57   2.0000      -0.436267       -11.8714
  58   2.0000      -0.432677       -11.7737
  59   2.0000      -0.431421       -11.7396
  60   2.0000      -0.424187       -11.5427
  61   2.0000      -0.419479       -11.4146
  62   2.0000      -0.404643       -11.0109
  63   2.0000      -0.359708        -9.7882
  64   2.0000      -0.333570        -9.0769
  65   2.0000      -0.327952        -8.9240
  66   2.0000      -0.281339        -7.6556
  67   0.0000       0.018139         0.4936
  68   0.0000       0.069604         1.8940
  69   0.0000       0.101533         2.7628
  70   0.0000       0.116854         3.1798
  71   0.0000       0.124166         3.3787

MULLIKEN ATOMIC CHARGES
-----------------------
   0 S :    0.097984
   1 C :   -0.105902
   2 C :   -0.119728
   3 C :    0.014291
   4 C :   -0.153812
   5 H :    0.024965
   6 C :    0.108597
   7 H :    0.002583
   8 H :    0.026916
   9 C :   -0.060971
  10 H :    0.005874
  11 H :    0.018145
  12 C :   -0.032007
  13 H :    0.023326
  14 H :    0.017656
  15 H :    0.050196
  16 S :    0.088137
  17 C :   -0.025251
  18 C :   -0.042671
  19 C :   -0.049036
  20 C :   -0.115940
  21 H :    0.037277
  22 C :    0.057653
  23 H :    0.025034
  24 H :    0.007465
  25 C :   -0.076386
  26 H :    0.037413
  27 H :    0.025079
  28 C :   -0.021497
  29 H :    0.023794
  30 H :    0.031682
  31 H :    0.023206
  32 H :    0.052648
  33 H :    0.003277
Sum of atomic charges:   -0.0000000

LOEWDIN ATOMIC CHARGES
----------------------
   0 S :    0.381795
   1 C :   -0.197314
   2 C :   -0.063678
   3 C :   -0.060904
   4 C :   -0.165614
   5 H :    0.037168
   6 C :   -0.027447
   7 H :    0.022892
   8 H :    0.031336
   9 C :   -0.039657
  10 H :    0.013157
  11 H :    0.028102
  12 C :   -0.058086
  13 H :    0.026345
  14 H :    0.013423
  15 H :    0.032603
  16 S :    0.361285
  17 C :   -0.154353
  18 C :   -0.069959
  19 C :   -0.045912
  20 C :   -0.180380
  21 H :    0.038824
  22 C :   -0.029911
  23 H :    0.031968
  24 H :    0.022878
  25 C :   -0.039733
  26 H :    0.028517
  27 H :    0.021869
  28 C :   -0.065143
  29 H :    0.025829
  30 H :    0.029879
  31 H :    0.018812
  32 H :    0.029873
  33 H :    0.001535

  Mayer bond orders larger than 0.100000
B(  0-S ,  1-C ) :   1.1256 B(  0-S ,  4-C ) :   1.1323 B(  1-C ,  2-C ) :   1.6281
B(  1-C , 32-H ) :   0.9659 B(  2-C ,  3-C ) :   1.2270 B(  2-C ,  6-C ) :   1.0191
B(  3-C ,  4-C ) :   1.5650 B(  3-C ,  5-H ) :   0.9830 B(  4-C , 20-C ) :   1.1146
B(  6-C ,  7-H ) :   0.9403 B(  6-C ,  8-H ) :   0.9405 B(  6-C ,  9-C ) :   1.0565
B(  9-C , 10-H ) :   0.9561 B(  9-C , 11-H ) :   0.9540 B(  9-C , 12-C ) :   1.0831
B( 12-C , 13-H ) :   0.9716 B( 12-C , 14-H ) :   0.9793 B( 12-C , 15-H ) :   0.9734
B( 16-S , 17-C ) :   1.1232 B( 16-S , 20-C ) :   1.0926 B( 17-C , 18-C ) :   1.6664
B( 17-C , 33-H ) :   0.9779 B( 18-C , 19-C ) :   1.1853 B( 18-C , 21-H ) :   0.9800
B( 19-C , 20-C ) :   1.6133 B( 19-C , 22-C ) :   1.0524 B( 22-C , 23-H ) :   0.9352
B( 22-C , 24-H ) :   0.9342 B( 22-C , 25-C ) :   1.0535 B( 25-C , 26-H ) :   0.9561
B( 25-C , 27-H ) :   0.9512 B( 25-C , 28-C ) :   1.0894 B( 28-C , 29-H ) :   0.9691
B( 28-C , 30-H ) :   0.9724 B( 28-C , 31-H ) :   0.9729

Dispersion correction           -0.014383324
FINAL SINGLE POINT ENERGY     -1339.864688503402

DIPOLE MOMENT
-------------
                                X             Y             Z
Electronic contribution:     -9.60094      25.77214      -3.12039
Nuclear contribution   :     10.03361     -26.30393       3.26325
                        -----------------------------------------
Total Dipole Moment    :      0.43266      -0.53179       0.14287
                        -----------------------------------------
Magnitude (a.u.)       :      0.70029
Magnitude (Debye)      :      1.78000

Rotational constants in cm-1:     0.017026     0.009285     0.006863
Rotational constants in MHz :   510.436252   278.342499   205.761471

                             ****ORCA TERMINATED NORMALLY****
TOTAL RUN TIME: 0 days 0 hours 0 minutes 21 seconds 629 msec
