                         Program Version 4.2.1 -  RELEASE  -
|  1> ! wB97X-D3 SP def2-SVP
|  2> %pal
|  3> nprocs 24
|  4> end
|  5>
|  6> * xyz 0 1
|  7> S 	 -125.338 	 59.9519 	 -58.3188
|  8> C 	 -124.992 	 61.3651 	 -59.2304
|  9> C 	 -126.037 	 62.2425 	 -59.2795
| 10> C 	 -127.221 	 61.7441 	 -58.6123
| 11> C 	 -126.977 	 60.482 	 -58.0886
| 12> H 	 -128.131 	 62.2534 	 -58.4074
| 13> C 	 -125.954 	 63.6878 	 -59.7322
| 14> H 	 -126.021 	 63.6494 	 -60.8415
| 15> H 	 -124.976 	 64.0334 	 -59.5172
| 16> C 	 -126.976 	 64.7137 	 -59.2615
| 17> H 	 -127.975 	 64.2668 	 -59.5449
| 18> H 	 -126.96 	 64.8278 	 -58.1447
| 19> C 	 -126.8 	 66.0631 	 -59.8785
| 20> H 	 -126.68 	 65.8541 	 -60.9773
| 21> H 	 -127.603 	 66.7048 	 -59.6348
| 22> H 	 -125.878 	 66.5842 	 -59.5139
| 23> S 	 -127.241 	 59.456 	 -55.5651
| 24> C 	 -128.733 	 58.6118 	 -55.1387
| 25> C 	 -129.645 	 58.5713 	 -56.1801
| 26> C 	 -129.161 	 59.3088 	 -57.3564
| 27> C 	 -127.844 	 59.7017 	 -57.2294
| 28> H 	 -130.63 	 58.0278 	 -56.0795
| 29> C 	 -129.959 	 59.646 	 -58.6118
| 30> H 	 -129.435 	 60.4099 	 -59.0917
| 31> H 	 -130.892 	 60.14 	 -58.2816
| 32> C 	 -130.398 	 58.475 	 -59.4465
| 33> H 	 -130.943 	 57.8354 	 -58.7636
| 34> H 	 -129.54 	 57.8956 	 -59.7227
| 35> C 	 -131.06 	 59.0366 	 -60.6767
| 36> H 	 -131.89 	 59.7041 	 -60.4466
| 37> H 	 -131.378 	 58.1871 	 -61.3426
| 38> H 	 -130.318 	 59.6095 	 -61.3161
| 39> H 	 -123.993 	 61.6673 	 -59.5052
| 40> H 	 -128.973 	 57.9602 	 -54.339
| 41> *
| 42>
| 43>                          ****END OF INPUT****

CARTESIAN COORDINATES (ANGSTROEM)
---------------------------------
  S    -125.338000   59.951900  -58.318800
  C    -124.992000   61.365100  -59.230400
  C    -126.037000   62.242500  -59.279500
  C    -127.221000   61.744100  -58.612300
  C    -126.977000   60.482000  -58.088600
  H    -128.131000   62.253400  -58.407400
  C    -125.954000   63.687800  -59.732200
  H    -126.021000   63.649400  -60.841500
  H    -124.976000   64.033400  -59.517200
  C    -126.976000   64.713700  -59.261500
  H    -127.975000   64.266800  -59.544900
  H    -126.960000   64.827800  -58.144700
  C    -126.800000   66.063100  -59.878500
  H    -126.680000   65.854100  -60.977300
  H    -127.603000   66.704800  -59.634800
  H    -125.878000   66.584200  -59.513900
  S    -127.241000   59.456000  -55.565100
  C    -128.733000   58.611800  -55.138700
  C    -129.645000   58.571300  -56.180100
  C    -129.161000   59.308800  -57.356400
  C    -127.844000   59.701700  -57.229400
  H    -130.630000   58.027800  -56.079500
  C    -129.959000   59.646000  -58.611800
  H    -129.435000   60.409900  -59.091700
  H    -130.892000   60.140000  -58.281600
  C    -130.398000   58.475000  -59.446500
  H    -130.943000   57.835400  -58.763600
  H    -129.540000   57.895600  -59.722700
  C    -131.060000   59.036600  -60.676700
  H    -131.890000   59.704100  -60.446600
  H    -131.378000   58.187100  -61.342600
  H    -130.318000   59.609500  -61.316100
  H    -123.993000   61.667300  -59.505200
  H    -128.973000   57.960200  -54.339000

 Total Charge           Charge          ....    0
 Multiplicity           Mult            ....    1
 Number of Electrons    NEL             ....  134
 Basis Dimension        Dim             ....  322

ORBITAL ENERGIES
----------------

  NO   OCC          E(Eh)            E(eV)
   0   2.0000     -88.967556     -2420.9303
   1   2.0000     -88.964258     -2420.8405
   2   2.0000     -10.326858      -281.0081
   3   2.0000     -10.323693      -280.9220
   4   2.0000     -10.314734      -280.6782
   5   2.0000     -10.307803      -280.4896
   6   2.0000     -10.303990      -280.3858
   7   2.0000     -10.301726      -280.3242
   8   2.0000     -10.301527      -280.3188
   9   2.0000     -10.294886      -280.1381
  10   2.0000     -10.293465      -280.0994
  11   2.0000     -10.290420      -280.0166
  12   2.0000     -10.284209      -279.8475
  13   2.0000     -10.282863      -279.8109
  14   2.0000     -10.281682      -279.7788
  15   2.0000     -10.278562      -279.6939
  16   2.0000      -8.083071      -219.9515
  17   2.0000      -8.078075      -219.8156
  18   2.0000      -6.041441      -164.3960
  19   2.0000      -6.037523      -164.2894
  20   2.0000      -6.036833      -164.2706
  21   2.0000      -6.033871      -164.1900
  22   2.0000      -6.032824      -164.1615
  23   2.0000      -6.028501      -164.0439
  24   2.0000      -1.008015       -27.4295
  25   2.0000      -0.979297       -26.6480
  26   2.0000      -0.917731       -24.9727
  27   2.0000      -0.915390       -24.9090
  28   2.0000      -0.873282       -23.7632
  29   2.0000      -0.854871       -23.2622
  30   2.0000      -0.843041       -22.9403
  31   2.0000      -0.816424       -22.2160
  32   2.0000      -0.781552       -21.2671
  33   2.0000      -0.767859       -20.8945
  34   2.0000      -0.710707       -19.3393
  35   2.0000      -0.702085       -19.1047
  36   2.0000      -0.686616       -18.6838
  37   2.0000      -0.654337       -17.8054
  38   2.0000      -0.643897       -17.5213
  39   2.0000      -0.622365       -16.9354
  40   2.0000      -0.590483       -16.0678
  41   2.0000      -0.576833       -15.6964
  42   2.0000      -0.570117       -15.5137
  43   2.0000      -0.562461       -15.3053
  44   2.0000      -0.529574       -14.4104
  45   2.0000      -0.523359       -14.2413
  46   2.0000      -0.514659       -14.0046
  47   2.0000      -0.512364       -13.9421
  48   2.0000      -0.500085       -13.6080
  49   2.0000      -0.496936       -13.5223
  50   2.0000      -0.496199       -13.5023
  51   2.0000      -0.478234       -13.0134
  52   2.0000      -0.477401       -12.9907
  53   2.0000      -0.466012       -12.6808
  54   2.0000      -0.455923       -12.4063
  55   2.0000      -0.453941       -12.3524
  56   2.0000      -0.448782       -12.2120
  57   2.0000      -0.437044       -11.8926
  58   2.0000      -0.431799       -11.7499
  59   2.0000      -0.424787       -11.5590
  60   2.0000      -0.420177       -11.4336
  61   2.0000      -0.417689       -11.3659
  62   2.0000      -0.410309       -11.1651
  63   2.0000      -0.344532        -9.3752
  64   2.0000      -0.329790        -8.9741
  65   2.0000      -0.325811        -8.8658
  66   2.0000      -0.295420        -8.0388
  67   0.0000       0.031882         0.8675
  68   0.0000       0.070083         1.9070
  69   0.0000       0.110830         3.0158
  70   0.0000       0.119997         3.2653
  71   0.0000       0.128044         3.4842

MULLIKEN ATOMIC CHARGES
-----------------------
   0 S :    0.125394
   1 C :   -0.115765
   2 C :   -0.076868
   3 C :    0.038484
   4 C :   -0.175461
   5 H :    0.018036
   6 C :    0.060430
   7 H :    0.036268
   8 H :    0.010196
   9 C :   -0.119510
  10 H :    0.036931
  11 H :    0.041379
  12 C :   -0.027183
  13 H :    0.033230
  14 H :    0.034676
  15 H :    0.036526
  16 S :    0.098464
  17 C :   -0.058337
  18 C :   -0.076880
  19 C :   -0.050278
  20 C :   -0.149114
  21 H :    0.045436
  22 C :    0.081091
  23 H :   -0.016666
  24 H :    0.019647
  25 C :   -0.039536
  26 H :    0.021973
  27 H :    0.024537
  28 C :   -0.053810
  29 H :    0.031634
  30 H :    0.040426
  31 H :    0.041834
  32 H :    0.039928
  33 H :    0.042886
Sum of atomic charges:   -0.0000000

LOEWDIN ATOMIC CHARGES
----------------------
   0 S :    0.430609
   1 C :   -0.211900
   2 C :   -0.058592
   3 C :   -0.057940
   4 C :   -0.197479
   5 H :    0.028409
   6 C :   -0.035559
   7 H :    0.037322
   8 H :    0.022097
   9 C :   -0.050765
  10 H :    0.026413
  11 H :    0.027834
  12 C :   -0.063332
  13 H :    0.031353
  14 H :    0.023157
  15 H :    0.030526
  16 S :    0.377602
  17 C :   -0.182586
  18 C :   -0.076578
  19 C :   -0.050159
  20 C :   -0.192354
  21 H :    0.041448
  22 C :   -0.028474
  23 H :    0.015406
  24 H :    0.032915
  25 C :   -0.040259
  26 H :    0.022626
  27 H :    0.024363
  28 C :   -0.067328
  29 H :    0.022928
  30 H :    0.030541
  31 H :    0.035295
  32 H :    0.025974
  33 H :    0.026487

  Mayer bond orders larger than 0.100000
B(  0-S ,  1-C ) :   1.1354 B(  0-S ,  4-C ) :   1.1711 B(  1-C ,  2-C ) :   1.6351
B(  1-C , 32-H ) :   0.9680 B(  2-C ,  3-C ) :   1.2384 B(  2-C ,  6-C ) :   1.0044
B(  3-C ,  4-C ) :   1.5635 B(  3-C ,  5-H ) :   0.9868 B(  4-C , 20-C ) :   1.0224
B(  6-C ,  7-H ) :   0.9236 B(  6-C ,  8-H ) :   0.9445 B(  6-C ,  9-C ) :   1.0861
B(  9-C , 10-H ) :   0.9418 B(  9-C , 11-H ) :   0.9509 B(  9-C , 12-C ) :   1.0919
B( 12-C , 13-H ) :   0.9715 B( 12-C , 14-H ) :   0.9702 B( 12-C , 15-H ) :   0.9715
B( 16-S , 17-C ) :   1.1285 B( 16-S , 20-C ) :   1.1116 B( 17-C , 18-C ) :   1.6718
B( 17-C , 33-H ) :   0.9609 B( 18-C , 19-C ) :   1.1907 B( 18-C , 21-H ) :   0.9753
B( 19-C , 20-C ) :   1.6505 B( 19-C , 22-C ) :   1.0437 B( 22-C , 23-H ) :   0.9303
B( 22-C , 24-H ) :   0.9258 B( 22-C , 25-C ) :   1.0616 B( 25-C , 26-H ) :   0.9544
B( 25-C , 27-H ) :   0.9506 B( 25-C , 28-C ) :   1.0847 B( 28-C , 29-H ) :   0.9726
B( 28-C , 30-H ) :   0.9722 B( 28-C , 31-H ) :   0.9711

Dispersion correction           -0.013555521
FINAL SINGLE POINT ENERGY     -1339.877121823726

DIPOLE MOMENT
-------------
                                X             Y             Z
Electronic contribution:     14.46204     -15.63486      17.62887
Nuclear contribution   :    -14.81750      16.04929     -17.88260
                        -----------------------------------------
Total Dipole Moment    :     -0.35546       0.41444      -0.25373
                        -----------------------------------------
Magnitude (a.u.)       :      0.60207
Magnitude (Debye)      :      1.53034

Rotational constants in cm-1:     0.016643     0.008490     0.006940
Rotational constants in MHz :   498.942572   254.520953   208.062964

                             ****ORCA TERMINATED NORMALLY****
TOTAL RUN TIME: 0 days 0 hours 0 minutes 21 seconds 248 msec
