                         Program Version 4.2.1 -  RELEASE  -
|  1> ! wB97X-D3 SP def2-SVP
|  2> %pal
|  3> nprocs 24
|  4> end
|  5>
|  6> * xyz 0 1
|  7> S 	 -58.2941 	 5.17757 	 -20.84
|  8> C 	 -58.7925 	 4.76949 	 -19.1711
|  9> C 	 -58.0783 	 5.55183 	 -18.2911
| 10> C 	 -57.3043 	 6.60982 	 -18.9126
| 11> C 	 -57.3482 	 6.50758 	 -20.3121
| 12> H 	 -56.6511 	 7.23575 	 -18.4132
| 13> C 	 -58.1311 	 5.36436 	 -16.8637
| 14> H 	 -57.0539 	 5.14681 	 -16.5767
| 15> H 	 -58.6988 	 4.5132 	 -16.5771
| 16> C 	 -58.6162 	 6.48967 	 -16.1192
| 17> H 	 -57.9653 	 7.27132 	 -16.2322
| 18> H 	 -59.5809 	 6.80045 	 -16.537
| 19> C 	 -58.6557 	 6.25003 	 -14.5649
| 20> H 	 -59.1762 	 5.27142 	 -14.3797
| 21> H 	 -57.6635 	 6.38352 	 -14.1286
| 22> H 	 -59.2932 	 6.9678 	 -14.0623
| 23> S 	 -55.9084 	 6.60676 	 -22.7251
| 24> C 	 -55.1497 	 8.12923 	 -23.1601
| 25> C 	 -55.3965 	 9.09337 	 -22.2451
| 26> C 	 -56.2245 	 8.68927 	 -21.1629
| 27> C 	 -56.5698 	 7.31813 	 -21.2409
| 28> H 	 -54.8774 	 10.1151 	 -22.3057
| 29> C 	 -56.8067 	 9.66821 	 -20.1536
| 30> H 	 -56.155 	 10.4556 	 -20.0082
| 31> H 	 -56.8433 	 9.17394 	 -19.2457
| 32> C 	 -58.1383 	 10.0958 	 -20.5859
| 33> H 	 -58.6853 	 9.29647 	 -20.917
| 34> H 	 -58.1152 	 10.7362 	 -21.5063
| 35> C 	 -59.0105 	 10.8675 	 -19.625
| 36> H 	 -58.5855 	 11.8389 	 -19.5043
| 37> H 	 -58.997 	 10.3168 	 -18.676
| 38> H 	 -60.0295 	 10.9442 	 -19.8426
| 39> H 	 -59.2693 	 3.84647 	 -18.8664
| 40> H 	 -54.4515 	 8.29196 	 -23.9581
| 41> *
| 42>
| 43>                          ****END OF INPUT****

CARTESIAN COORDINATES (ANGSTROEM)
---------------------------------
  S    -58.294100    5.177570  -20.840000
  C    -58.792500    4.769490  -19.171100
  C    -58.078300    5.551830  -18.291100
  C    -57.304300    6.609820  -18.912600
  C    -57.348200    6.507580  -20.312100
  H    -56.651100    7.235750  -18.413200
  C    -58.131100    5.364360  -16.863700
  H    -57.053900    5.146810  -16.576700
  H    -58.698800    4.513200  -16.577100
  C    -58.616200    6.489670  -16.119200
  H    -57.965300    7.271320  -16.232200
  H    -59.580900    6.800450  -16.537000
  C    -58.655700    6.250030  -14.564900
  H    -59.176200    5.271420  -14.379700
  H    -57.663500    6.383520  -14.128600
  H    -59.293200    6.967800  -14.062300
  S    -55.908400    6.606760  -22.725100
  C    -55.149700    8.129230  -23.160100
  C    -55.396500    9.093370  -22.245100
  C    -56.224500    8.689270  -21.162900
  C    -56.569800    7.318130  -21.240900
  H    -54.877400   10.115100  -22.305700
  C    -56.806700    9.668210  -20.153600
  H    -56.155000   10.455600  -20.008200
  H    -56.843300    9.173940  -19.245700
  C    -58.138300   10.095800  -20.585900
  H    -58.685300    9.296470  -20.917000
  H    -58.115200   10.736200  -21.506300
  C    -59.010500   10.867500  -19.625000
  H    -58.585500   11.838900  -19.504300
  H    -58.997000   10.316800  -18.676000
  H    -60.029500   10.944200  -19.842600
  H    -59.269300    3.846470  -18.866400
  H    -54.451500    8.291960  -23.958100

 Total Charge           Charge          ....    0
 Multiplicity           Mult            ....    1
 Number of Electrons    NEL             ....  134
 Basis Dimension        Dim             ....  322

ORBITAL ENERGIES
----------------

  NO   OCC          E(Eh)            E(eV)
   0   2.0000     -88.969015     -2420.9700
   1   2.0000     -88.966547     -2420.9028
   2   2.0000     -10.334848      -281.2255
   3   2.0000     -10.332264      -281.1552
   4   2.0000     -10.315585      -280.7013
   5   2.0000     -10.312814      -280.6259
   6   2.0000     -10.305282      -280.4210
   7   2.0000     -10.298903      -280.2474
   8   2.0000     -10.296923      -280.1935
   9   2.0000     -10.292891      -280.0838
  10   2.0000     -10.284345      -279.8513
  11   2.0000     -10.280681      -279.7516
  12   2.0000     -10.277306      -279.6597
  13   2.0000     -10.275419      -279.6084
  14   2.0000     -10.269186      -279.4388
  15   2.0000     -10.265226      -279.3310
  16   2.0000      -8.083105      -219.9525
  17   2.0000      -8.081285      -219.9029
  18   2.0000      -6.041681      -164.4025
  19   2.0000      -6.039870      -164.3532
  20   2.0000      -6.037730      -164.2950
  21   2.0000      -6.035793      -164.2423
  22   2.0000      -6.033808      -164.1883
  23   2.0000      -6.031960      -164.1380
  24   2.0000      -1.007340       -27.4111
  25   2.0000      -0.985374       -26.8134
  26   2.0000      -0.932366       -25.3710
  27   2.0000      -0.922026       -25.0896
  28   2.0000      -0.871709       -23.7204
  29   2.0000      -0.853691       -23.2301
  30   2.0000      -0.844623       -22.9834
  31   2.0000      -0.818100       -22.2616
  32   2.0000      -0.788311       -21.4510
  33   2.0000      -0.776026       -21.1167
  34   2.0000      -0.715137       -19.4599
  35   2.0000      -0.701910       -19.0999
  36   2.0000      -0.696647       -18.9567
  37   2.0000      -0.658729       -17.9249
  38   2.0000      -0.641495       -17.4560
  39   2.0000      -0.629913       -17.1408
  40   2.0000      -0.600457       -16.3393
  41   2.0000      -0.581422       -15.8213
  42   2.0000      -0.572816       -15.5871
  43   2.0000      -0.566396       -15.4124
  44   2.0000      -0.529460       -14.4073
  45   2.0000      -0.526466       -14.3259
  46   2.0000      -0.519365       -14.1326
  47   2.0000      -0.516783       -14.0624
  48   2.0000      -0.513659       -13.9774
  49   2.0000      -0.502325       -13.6690
  50   2.0000      -0.500327       -13.6146
  51   2.0000      -0.487468       -13.2647
  52   2.0000      -0.469670       -12.7804
  53   2.0000      -0.467853       -12.7309
  54   2.0000      -0.458432       -12.4746
  55   2.0000      -0.452945       -12.3253
  56   2.0000      -0.448023       -12.1913
  57   2.0000      -0.439258       -11.9528
  58   2.0000      -0.432804       -11.7772
  59   2.0000      -0.424647       -11.5552
  60   2.0000      -0.419897       -11.4260
  61   2.0000      -0.412159       -11.2154
  62   2.0000      -0.410039       -11.1577
  63   2.0000      -0.355835        -9.6828
  64   2.0000      -0.335366        -9.1258
  65   2.0000      -0.327877        -8.9220
  66   2.0000      -0.286186        -7.7875
  67   0.0000       0.019185         0.5221
  68   0.0000       0.079968         2.1761
  69   0.0000       0.101885         2.7724
  70   0.0000       0.119806         3.2601
  71   0.0000       0.131956         3.5907

MULLIKEN ATOMIC CHARGES
-----------------------
   0 S :    0.095082
   1 C :   -0.114728
   2 C :   -0.092387
   3 C :    0.017473
   4 C :   -0.115227
   5 H :    0.001120
   6 C :    0.091948
   7 H :    0.033178
   8 H :   -0.006885
   9 C :   -0.063684
  10 H :    0.002137
  11 H :    0.028574
  12 C :   -0.050311
  13 H :    0.034512
  14 H :    0.041099
  15 H :    0.028826
  16 S :    0.105180
  17 C :   -0.076312
  18 C :   -0.053992
  19 C :   -0.103393
  20 C :   -0.144498
  21 H :    0.045737
  22 C :    0.219669
  23 H :   -0.011338
  24 H :   -0.034008
  25 C :   -0.065298
  26 H :    0.006187
  27 H :    0.017209
  28 C :    0.000616
  29 H :    0.020888
  30 H :    0.017002
  31 H :    0.023015
  32 H :    0.051964
  33 H :    0.050649
Sum of atomic charges:    0.0000000

LOEWDIN ATOMIC CHARGES
----------------------
   0 S :    0.401584
   1 C :   -0.199167
   2 C :   -0.049411
   3 C :   -0.063414
   4 C :   -0.187904
   5 H :    0.016524
   6 C :   -0.039682
   7 H :    0.041707
   8 H :    0.022044
   9 C :   -0.036251
  10 H :    0.010021
  11 H :    0.027478
  12 C :   -0.062969
  13 H :    0.028749
  14 H :    0.027927
  15 H :    0.024834
  16 S :    0.392981
  17 C :   -0.181768
  18 C :   -0.081094
  19 C :   -0.045332
  20 C :   -0.191999
  21 H :    0.046485
  22 C :   -0.015329
  23 H :    0.020237
  24 H :    0.017984
  25 C :   -0.038493
  26 H :    0.015348
  27 H :    0.028423
  28 C :   -0.055022
  29 H :    0.019853
  30 H :    0.024556
  31 H :    0.020946
  32 H :    0.030088
  33 H :    0.030065

  Mayer bond orders larger than 0.100000
B(  0-S ,  1-C ) :   1.0970 B(  0-S ,  4-C ) :   1.1710 B(  1-C ,  2-C ) :   1.6266
B(  1-C , 32-H ) :   0.9654 B(  2-C ,  3-C ) :   1.2206 B(  2-C ,  6-C ) :   1.0565
B(  3-C ,  4-C ) :   1.5384 B(  3-C ,  5-H ) :   0.9972 B(  4-C , 20-C ) :   1.0740
B(  6-C ,  7-H ) :   0.9177 B(  6-C ,  8-H ) :   0.9305 B(  6-C ,  9-C ) :   1.0769
B(  9-C , 10-H ) :   0.9472 B(  9-C , 11-H ) :   0.9522 B(  9-C , 12-C ) :   1.0837
B( 12-C , 13-H ) :   0.9753 B( 12-C , 14-H ) :   0.9755 B( 12-C , 15-H ) :   0.9754
B( 16-S , 17-C ) :   1.1424 B( 16-S , 20-C ) :   1.1330 B( 17-C , 18-C ) :   1.6261
B( 17-C , 33-H ) :   0.9650 B( 18-C , 19-C ) :   1.2662 B( 18-C , 21-H ) :   0.9719
B( 19-C , 20-C ) :   1.5690 B( 19-C , 22-C ) :   1.0508 B( 22-C , 23-H ) :   0.9102
B( 22-C , 24-H ) :   0.9064 B( 22-C , 25-C ) :   1.0741 B( 25-C , 26-H ) :   0.9509
B( 25-C , 27-H ) :   0.9469 B( 25-C , 28-C ) :   1.0910 B( 28-C , 29-H ) :   0.9744
B( 28-C , 30-H ) :   0.9716 B( 28-C , 31-H ) :   0.9721

Dispersion correction           -0.014238757
FINAL SINGLE POINT ENERGY     -1339.859637888881

DIPOLE MOMENT
-------------
                                X             Y             Z
Electronic contribution:      8.70835     -14.67086     -25.69491
Nuclear contribution   :     -8.54216      15.05649      26.25743
                        -----------------------------------------
Total Dipole Moment    :      0.16619       0.38563       0.56252
                        -----------------------------------------
Magnitude (a.u.)       :      0.70197
Magnitude (Debye)      :      1.78427

Rotational constants in cm-1:     0.018901     0.008939     0.006885
Rotational constants in MHz :   566.647261   267.992224   206.406596

                             ****ORCA TERMINATED NORMALLY****
TOTAL RUN TIME: 0 days 0 hours 0 minutes 22 seconds 258 msec
