                         Program Version 4.2.1 -  RELEASE  -
|  1> ! wB97X-D3 SP def2-SVP
|  2> %pal
|  3> nprocs 24
|  4> end
|  5>
|  6> * xyz 0 1
|  7> S 	 -38.836 	 -49.7002 	 -74.6737
|  8> C 	 -39.1732 	 -48.0413 	 -74.7489
|  9> C 	 -39.4834 	 -47.5197 	 -73.483
| 10> C 	 -39.4165 	 -48.5406 	 -72.4743
| 11> C 	 -38.9785 	 -49.7669 	 -72.9265
| 12> H 	 -39.63 	 -48.2684 	 -71.4162
| 13> C 	 -39.768 	 -46.0638 	 -73.1059
| 14> H 	 -39.1924 	 -45.3936 	 -73.7776
| 15> H 	 -39.2097 	 -45.8551 	 -72.1737
| 16> C 	 -41.2904 	 -45.6851 	 -73.0497
| 17> H 	 -41.8091 	 -46.4043 	 -72.3526
| 18> H 	 -41.4819 	 -44.6779 	 -72.6549
| 19> C 	 -41.968 	 -45.8423 	 -74.4362
| 20> H 	 -43.0882 	 -45.6575 	 -74.3311
| 21> H 	 -41.5434 	 -45.1934 	 -75.1313
| 22> H 	 -41.6863 	 -46.8433 	 -74.905
| 23> S 	 -37.1132 	 -51.8728 	 -72.7675
| 24> C 	 -37.6713 	 -53.3106 	 -71.962
| 25> C 	 -38.8019 	 -53.0508 	 -71.1873
| 26> C 	 -39.2712 	 -51.7228 	 -71.3435
| 27> C 	 -38.584 	 -50.9842 	 -72.2718
| 28> H 	 -39.3052 	 -53.7031 	 -70.5724
| 29> C 	 -40.5492 	 -51.3248 	 -70.6648
| 30> H 	 -41.1755 	 -52.1829 	 -70.5541
| 31> H 	 -41.1673 	 -50.7569 	 -71.3467
| 32> C 	 -40.4222 	 -50.5086 	 -69.3394
| 33> H 	 -41.4002 	 -50.4794 	 -68.7555
| 34> H 	 -40.0222 	 -49.5097 	 -69.5229
| 35> C 	 -39.5019 	 -51.1899 	 -68.3659
| 36> H 	 -39.672 	 -50.8475 	 -67.3221
| 37> H 	 -38.4113 	 -51.0514 	 -68.5997
| 38> H 	 -39.6119 	 -52.2746 	 -68.4221
| 39> H 	 -39.0935 	 -47.4691 	 -75.6594
| 40> H 	 -37.2129 	 -54.2611 	 -71.9231
| 41> *
| 42>
| 43>                          ****END OF INPUT****

CARTESIAN COORDINATES (ANGSTROEM)
---------------------------------
  S    -38.836000  -49.700200  -74.673700
  C    -39.173200  -48.041300  -74.748900
  C    -39.483400  -47.519700  -73.483000
  C    -39.416500  -48.540600  -72.474300
  C    -38.978500  -49.766900  -72.926500
  H    -39.630000  -48.268400  -71.416200
  C    -39.768000  -46.063800  -73.105900
  H    -39.192400  -45.393600  -73.777600
  H    -39.209700  -45.855100  -72.173700
  C    -41.290400  -45.685100  -73.049700
  H    -41.809100  -46.404300  -72.352600
  H    -41.481900  -44.677900  -72.654900
  C    -41.968000  -45.842300  -74.436200
  H    -43.088200  -45.657500  -74.331100
  H    -41.543400  -45.193400  -75.131300
  H    -41.686300  -46.843300  -74.905000
  S    -37.113200  -51.872800  -72.767500
  C    -37.671300  -53.310600  -71.962000
  C    -38.801900  -53.050800  -71.187300
  C    -39.271200  -51.722800  -71.343500
  C    -38.584000  -50.984200  -72.271800
  H    -39.305200  -53.703100  -70.572400
  C    -40.549200  -51.324800  -70.664800
  H    -41.175500  -52.182900  -70.554100
  H    -41.167300  -50.756900  -71.346700
  C    -40.422200  -50.508600  -69.339400
  H    -41.400200  -50.479400  -68.755500
  H    -40.022200  -49.509700  -69.522900
  C    -39.501900  -51.189900  -68.365900
  H    -39.672000  -50.847500  -67.322100
  H    -38.411300  -51.051400  -68.599700
  H    -39.611900  -52.274600  -68.422100
  H    -39.093500  -47.469100  -75.659400
  H    -37.212900  -54.261100  -71.923100

 Total Charge           Charge          ....    0
 Multiplicity           Mult            ....    1
 Number of Electrons    NEL             ....  134
 Basis Dimension        Dim             ....  322

ORBITAL ENERGIES
----------------

  NO   OCC          E(Eh)            E(eV)
   0   2.0000     -88.969919     -2420.9946
   1   2.0000     -88.965423     -2420.8722
   2   2.0000     -10.329908      -281.0911
   3   2.0000     -10.326670      -281.0030
   4   2.0000     -10.318265      -280.7743
   5   2.0000     -10.313185      -280.6360
   6   2.0000     -10.304304      -280.3944
   7   2.0000     -10.299919      -280.2750
   8   2.0000     -10.298744      -280.2431
   9   2.0000     -10.297873      -280.2194
  10   2.0000     -10.295929      -280.1665
  11   2.0000     -10.292338      -280.0688
  12   2.0000     -10.288359      -279.9605
  13   2.0000     -10.286935      -279.9217
  14   2.0000     -10.279794      -279.7274
  15   2.0000     -10.276197      -279.6295
  16   2.0000      -8.083979      -219.9762
  17   2.0000      -8.081135      -219.8989
  18   2.0000      -6.042614      -164.4279
  19   2.0000      -6.039514      -164.3435
  20   2.0000      -6.038567      -164.3178
  21   2.0000      -6.035399      -164.2315
  22   2.0000      -6.034649      -164.2112
  23   2.0000      -6.032064      -164.1408
  24   2.0000      -1.010346       -27.4929
  25   2.0000      -0.987115       -26.8608
  26   2.0000      -0.910570       -24.7779
  27   2.0000      -0.904310       -24.6075
  28   2.0000      -0.870135       -23.6776
  29   2.0000      -0.852846       -23.2071
  30   2.0000      -0.845542       -23.0084
  31   2.0000      -0.812324       -22.1044
  32   2.0000      -0.782873       -21.3031
  33   2.0000      -0.771079       -20.9821
  34   2.0000      -0.709499       -19.3065
  35   2.0000      -0.696443       -18.9512
  36   2.0000      -0.687902       -18.7188
  37   2.0000      -0.670070       -18.2335
  38   2.0000      -0.642857       -17.4930
  39   2.0000      -0.622355       -16.9351
  40   2.0000      -0.596367       -16.2280
  41   2.0000      -0.569692       -15.5021
  42   2.0000      -0.556218       -15.1355
  43   2.0000      -0.550469       -14.9790
  44   2.0000      -0.546967       -14.8837
  45   2.0000      -0.533448       -14.5159
  46   2.0000      -0.516267       -14.0483
  47   2.0000      -0.510797       -13.8995
  48   2.0000      -0.505811       -13.7638
  49   2.0000      -0.493099       -13.4179
  50   2.0000      -0.482120       -13.1191
  51   2.0000      -0.481246       -13.0954
  52   2.0000      -0.472453       -12.8561
  53   2.0000      -0.465234       -12.6597
  54   2.0000      -0.459066       -12.4918
  55   2.0000      -0.445528       -12.1234
  56   2.0000      -0.439532       -11.9603
  57   2.0000      -0.434660       -11.8277
  58   2.0000      -0.430779       -11.7221
  59   2.0000      -0.422668       -11.5014
  60   2.0000      -0.418636       -11.3917
  61   2.0000      -0.416860       -11.3433
  62   2.0000      -0.414015       -11.2659
  63   2.0000      -0.351205        -9.5568
  64   2.0000      -0.336615        -9.1598
  65   2.0000      -0.327593        -8.9143
  66   2.0000      -0.289535        -7.8786
  67   0.0000       0.022974         0.6252
  68   0.0000       0.071119         1.9352
  69   0.0000       0.109989         2.9930
  70   0.0000       0.120915         3.2903
  71   0.0000       0.130919         3.5625

MULLIKEN ATOMIC CHARGES
-----------------------
   0 S :    0.119108
   1 C :   -0.114892
   2 C :   -0.126576
   3 C :    0.029992
   4 C :   -0.154433
   5 H :    0.017067
   6 C :    0.036392
   7 H :    0.025301
   8 H :    0.031791
   9 C :   -0.063705
  10 H :    0.035585
  11 H :    0.038300
  12 C :   -0.074384
  13 H :    0.054696
  14 H :    0.011203
  15 H :    0.046047
  16 S :    0.120816
  17 C :   -0.070532
  18 C :   -0.001770
  19 C :   -0.029569
  20 C :   -0.149241
  21 H :   -0.014686
  22 C :    0.070900
  23 H :    0.010848
  24 H :    0.022577
  25 C :   -0.064110
  26 H :    0.043112
  27 H :    0.036212
  28 C :   -0.086325
  29 H :    0.040632
  30 H :    0.045252
  31 H :    0.017810
  32 H :    0.050392
  33 H :    0.046191
Sum of atomic charges:   -0.0000000

LOEWDIN ATOMIC CHARGES
----------------------
   0 S :    0.434501
   1 C :   -0.214698
   2 C :   -0.067627
   3 C :   -0.064753
   4 C :   -0.191577
   5 H :    0.034926
   6 C :   -0.040219
   7 H :    0.030986
   8 H :    0.033749
   9 C :   -0.041691
  10 H :    0.027784
  11 H :    0.024613
  12 C :   -0.074973
  13 H :    0.036397
  14 H :    0.010446
  15 H :    0.034584
  16 S :    0.399648
  17 C :   -0.177246
  18 C :   -0.058186
  19 C :   -0.050604
  20 C :   -0.194344
  21 H :    0.015355
  22 C :   -0.033084
  23 H :    0.027112
  24 H :    0.031182
  25 C :   -0.040494
  26 H :    0.035663
  27 H :    0.021202
  28 C :   -0.078039
  29 H :    0.027854
  30 H :    0.030457
  31 H :    0.019498
  32 H :    0.027110
  33 H :    0.024468

  Mayer bond orders larger than 0.100000
B(  0-S ,  1-C ) :   1.1659 B(  0-S ,  4-C ) :   1.1579 B(  1-C ,  2-C ) :   1.5680
B(  1-C , 32-H ) :   0.9697 B(  2-C ,  3-C ) :   1.2844 B(  2-C ,  6-C ) :   1.0173
B(  3-C ,  4-C ) :   1.5370 B(  3-C ,  5-H ) :   0.9865 B(  4-C , 20-C ) :   1.0701
B(  6-C ,  7-H ) :   0.9485 B(  6-C ,  8-H ) :   0.9449 B(  6-C ,  9-C ) :   1.0511
B(  9-C , 10-H ) :   0.9596 B(  9-C , 11-H ) :   0.9585 B(  9-C , 12-C ) :   1.0677
B( 12-C , 13-H ) :   0.9737 B( 12-C , 14-H ) :   0.9751 B( 12-C , 15-H ) :   0.9705
B( 16-S , 17-C ) :   1.1555 B( 16-S , 20-C ) :   1.1250 B( 17-C , 18-C ) :   1.5756
B( 17-C , 33-H ) :   0.9724 B( 18-C , 19-C ) :   1.2667 B( 18-C , 21-H ) :   0.9997
B( 19-C , 20-C ) :   1.5742 B( 19-C , 22-C ) :   1.0467 B( 22-C , 23-H ) :   0.9366
B( 22-C , 24-H ) :   0.9262 B( 22-C , 25-C ) :   1.0693 B( 25-C , 26-H ) :   0.9573
B( 25-C , 27-H ) :   0.9532 B( 25-C , 28-C ) :   1.0792 B( 28-C , 29-H ) :   0.9745
B( 28-C , 30-H ) :   0.9675 B( 28-C , 31-H ) :   0.9752

Dispersion correction           -0.015071243
FINAL SINGLE POINT ENERGY     -1339.882128873398

DIPOLE MOMENT
-------------
                                X             Y             Z
Electronic contribution:     16.76417     -14.72131     -13.97798
Nuclear contribution   :    -17.08050      14.91633      14.33822
                        -----------------------------------------
Total Dipole Moment    :     -0.31633       0.19501       0.36024
                        -----------------------------------------
Magnitude (a.u.)       :      0.51756
Magnitude (Debye)      :      1.31553

Rotational constants in cm-1:     0.021165     0.008711     0.006696
Rotational constants in MHz :   634.505976   261.143951   200.732723

                             ****ORCA TERMINATED NORMALLY****
TOTAL RUN TIME: 0 days 0 hours 0 minutes 21 seconds 184 msec
