                         Program Version 4.2.1 -  RELEASE  -
|  1> ! wB97X-D3 SP def2-SVP
|  2> %pal
|  3> nprocs 24
|  4> end
|  5>
|  6> * xyz 0 1
|  7> S 	 -121.41 	 62.1568 	 -33.8588
|  8> C 	 -120.699 	 62.9277 	 -35.22
|  9> C 	 -119.549 	 62.3139 	 -35.741
| 10> C 	 -119.26 	 61.1592 	 -34.9025
| 11> C 	 -120.239 	 60.8263 	 -33.9307
| 12> H 	 -118.477 	 60.4504 	 -34.9355
| 13> C 	 -118.61 	 62.9132 	 -36.8532
| 14> H 	 -118.822 	 62.4385 	 -37.85
| 15> H 	 -117.586 	 62.7351 	 -36.5322
| 16> C 	 -118.792 	 64.4225 	 -37.1164
| 17> H 	 -118.269 	 64.7759 	 -38.0119
| 18> H 	 -119.82 	 64.7075 	 -37.3722
| 19> C 	 -118.337 	 65.4328 	 -36.0148
| 20> H 	 -118.421 	 66.4493 	 -36.3557
| 21> H 	 -118.958 	 65.3018 	 -35.0684
| 22> H 	 -117.309 	 65.2194 	 -35.8829
| 23> S 	 -121.605 	 58.565 	 -33.2824
| 24> C 	 -120.952 	 57.4392 	 -32.0889
| 25> C 	 -119.728 	 57.7769 	 -31.6462
| 26> C 	 -119.298 	 58.9631 	 -32.3496
| 27> C 	 -120.206 	 59.5675 	 -33.1468
| 28> H 	 -119.138 	 57.0855 	 -31.0437
| 29> C 	 -117.976 	 59.6042 	 -31.9581
| 30> H 	 -117.957 	 59.4376 	 -30.8691
| 31> H 	 -118.027 	 60.7546 	 -32.1315
| 32> C 	 -116.683 	 58.9893 	 -32.6266
| 33> H 	 -115.977 	 59.8756 	 -32.5218
| 34> H 	 -116.739 	 59.0196 	 -33.7073
| 35> C 	 -116.066 	 57.7619 	 -32.0074
| 36> H 	 -115.054 	 57.6729 	 -32.4564
| 37> H 	 -116.629 	 56.8447 	 -32.0141
| 38> H 	 -115.847 	 57.91 	 -30.9581
| 39> H 	 -121.027 	 63.8464 	 -35.5091
| 40> H 	 -121.393 	 56.4836 	 -32.0613
| 41> *
| 42>
| 43>                          ****END OF INPUT****

CARTESIAN COORDINATES (ANGSTROEM)
---------------------------------
  S    -121.410000   62.156800  -33.858800
  C    -120.699000   62.927700  -35.220000
  C    -119.549000   62.313900  -35.741000
  C    -119.260000   61.159200  -34.902500
  C    -120.239000   60.826300  -33.930700
  H    -118.477000   60.450400  -34.935500
  C    -118.610000   62.913200  -36.853200
  H    -118.822000   62.438500  -37.850000
  H    -117.586000   62.735100  -36.532200
  C    -118.792000   64.422500  -37.116400
  H    -118.269000   64.775900  -38.011900
  H    -119.820000   64.707500  -37.372200
  C    -118.337000   65.432800  -36.014800
  H    -118.421000   66.449300  -36.355700
  H    -118.958000   65.301800  -35.068400
  H    -117.309000   65.219400  -35.882900
  S    -121.605000   58.565000  -33.282400
  C    -120.952000   57.439200  -32.088900
  C    -119.728000   57.776900  -31.646200
  C    -119.298000   58.963100  -32.349600
  C    -120.206000   59.567500  -33.146800
  H    -119.138000   57.085500  -31.043700
  C    -117.976000   59.604200  -31.958100
  H    -117.957000   59.437600  -30.869100
  H    -118.027000   60.754600  -32.131500
  C    -116.683000   58.989300  -32.626600
  H    -115.977000   59.875600  -32.521800
  H    -116.739000   59.019600  -33.707300
  C    -116.066000   57.761900  -32.007400
  H    -115.054000   57.672900  -32.456400
  H    -116.629000   56.844700  -32.014100
  H    -115.847000   57.910000  -30.958100
  H    -121.027000   63.846400  -35.509100
  H    -121.393000   56.483600  -32.061300

 Total Charge           Charge          ....    0
 Multiplicity           Mult            ....    1
 Number of Electrons    NEL             ....  134
 Basis Dimension        Dim             ....  322

ORBITAL ENERGIES
----------------

  NO   OCC          E(Eh)            E(eV)
   0   2.0000     -88.970807     -2421.0187
   1   2.0000     -88.956774     -2420.6369
   2   2.0000     -10.334480      -281.2155
   3   2.0000     -10.322775      -280.8970
   4   2.0000     -10.313339      -280.6402
   5   2.0000     -10.311540      -280.5913
   6   2.0000     -10.310891      -280.5736
   7   2.0000     -10.308771      -280.5159
   8   2.0000     -10.298300      -280.2310
   9   2.0000     -10.297960      -280.2217
  10   2.0000     -10.296066      -280.1702
  11   2.0000     -10.294682      -280.1325
  12   2.0000     -10.292789      -280.0810
  13   2.0000     -10.291108      -280.0353
  14   2.0000     -10.280768      -279.7539
  15   2.0000     -10.278642      -279.6961
  16   2.0000      -8.085233      -220.0104
  17   2.0000      -8.072592      -219.6664
  18   2.0000      -6.043729      -164.4582
  19   2.0000      -6.039669      -164.3478
  20   2.0000      -6.036146      -164.2519
  21   2.0000      -6.031040      -164.1129
  22   2.0000      -6.027016      -164.0034
  23   2.0000      -6.023270      -163.9015
  24   2.0000      -1.006861       -27.3981
  25   2.0000      -0.983976       -26.7754
  26   2.0000      -0.905409       -24.6374
  27   2.0000      -0.901073       -24.5195
  28   2.0000      -0.871526       -23.7154
  29   2.0000      -0.850352       -23.1393
  30   2.0000      -0.845403       -23.0046
  31   2.0000      -0.816440       -22.2165
  32   2.0000      -0.783960       -21.3326
  33   2.0000      -0.772608       -21.0237
  34   2.0000      -0.707343       -19.2478
  35   2.0000      -0.699951       -19.0466
  36   2.0000      -0.689375       -18.7589
  37   2.0000      -0.668955       -18.2032
  38   2.0000      -0.649629       -17.6773
  39   2.0000      -0.603994       -16.4355
  40   2.0000      -0.589159       -16.0318
  41   2.0000      -0.577885       -15.7251
  42   2.0000      -0.552542       -15.0354
  43   2.0000      -0.544697       -14.8220
  44   2.0000      -0.540790       -14.7157
  45   2.0000      -0.536659       -14.6032
  46   2.0000      -0.518274       -14.1030
  47   2.0000      -0.514991       -14.0136
  48   2.0000      -0.503187       -13.6924
  49   2.0000      -0.497922       -13.5491
  50   2.0000      -0.489168       -13.3109
  51   2.0000      -0.483722       -13.1627
  52   2.0000      -0.476850       -12.9758
  53   2.0000      -0.468404       -12.7459
  54   2.0000      -0.458987       -12.4897
  55   2.0000      -0.442375       -12.0376
  56   2.0000      -0.440680       -11.9915
  57   2.0000      -0.438123       -11.9219
  58   2.0000      -0.430354       -11.7105
  59   2.0000      -0.424536       -11.5522
  60   2.0000      -0.421688       -11.4747
  61   2.0000      -0.418030       -11.3752
  62   2.0000      -0.397560       -10.8182
  63   2.0000      -0.349271        -9.5041
  64   2.0000      -0.331067        -9.0088
  65   2.0000      -0.326302        -8.8791
  66   2.0000      -0.295647        -8.0450
  67   0.0000       0.036874         1.0034
  68   0.0000       0.065161         1.7731
  69   0.0000       0.113192         3.0801
  70   0.0000       0.119563         3.2535
  71   0.0000       0.125499         3.4150

MULLIKEN ATOMIC CHARGES
-----------------------
   0 S :    0.133693
   1 C :   -0.085819
   2 C :   -0.073406
   3 C :    0.036770
   4 C :   -0.163691
   5 H :   -0.012730
   6 C :    0.102161
   7 H :    0.059345
   8 H :    0.034464
   9 C :   -0.132969
  10 H :    0.025657
  11 H :    0.024035
  12 C :   -0.053983
  13 H :    0.034347
  14 H :    0.048279
  15 H :    0.023414
  16 S :    0.082682
  17 C :   -0.076533
  18 C :   -0.018713
  19 C :   -0.032734
  20 C :   -0.156007
  21 H :    0.030853
  22 C :   -0.027039
  23 H :    0.030644
  24 H :    0.053671
  25 C :   -0.076208
  26 H :    0.025618
  27 H :    0.025946
  28 C :   -0.020902
  29 H :    0.039579
  30 H :    0.038713
  31 H :    0.019624
  32 H :    0.012730
  33 H :    0.048508
Sum of atomic charges:   -0.0000000

LOEWDIN ATOMIC CHARGES
----------------------
   0 S :    0.419131
   1 C :   -0.186670
   2 C :   -0.059718
   3 C :   -0.051488
   4 C :   -0.199095
   5 H :    0.019725
   6 C :   -0.024827
   7 H :    0.045756
   8 H :    0.031849
   9 C :   -0.052809
  10 H :    0.027009
  11 H :    0.019707
  12 C :   -0.065089
  13 H :    0.024340
  14 H :    0.031321
  15 H :    0.017490
  16 S :    0.396591
  17 C :   -0.160802
  18 C :   -0.071763
  19 C :   -0.065516
  20 C :   -0.203987
  21 H :    0.037699
  22 C :   -0.041422
  23 H :    0.030693
  24 H :    0.041383
  25 C :   -0.050453
  26 H :    0.033860
  27 H :    0.019614
  28 C :   -0.068896
  29 H :    0.037427
  30 H :    0.022138
  31 H :    0.025563
  32 H :    0.003061
  33 H :    0.018176

  Mayer bond orders larger than 0.100000
B(  0-S ,  1-C ) :   1.1671 B(  0-S ,  4-C ) :   1.1421 B(  1-C ,  2-C ) :   1.5919
B(  1-C , 32-H ) :   0.9680 B(  2-C ,  3-C ) :   1.2437 B(  2-C ,  6-C ) :   0.9956
B(  3-C ,  4-C ) :   1.5756 B(  3-C ,  5-H ) :   0.9972 B(  4-C , 20-C ) :   1.0249
B(  6-C ,  7-H ) :   0.9352 B(  6-C ,  8-H ) :   0.9512 B(  6-C ,  9-C ) :   1.0756
B(  9-C , 10-H ) :   0.9552 B(  9-C , 11-H ) :   0.9517 B(  9-C , 12-C ) :   1.0741
B( 12-C , 13-H ) :   0.9754 B( 12-C , 14-H ) :   0.9753 B( 12-C , 15-H ) :   0.9773
B( 16-S , 17-C ) :   1.1546 B( 16-S , 20-C ) :   1.1252 B( 17-C , 18-C ) :   1.6325
B( 17-C , 33-H ) :   0.9678 B( 18-C , 19-C ) :   1.2107 B( 18-C , 21-H ) :   0.9873
B( 19-C , 20-C ) :   1.6554 B( 19-C , 22-C ) :   1.0257 B( 22-C , 23-H ) :   0.9462
B( 22-C , 24-H ) :   0.9456 B( 22-C , 25-C ) :   1.0539 B( 25-C , 26-H ) :   0.9525
B( 25-C , 27-H ) :   0.9551 B( 25-C , 28-C ) :   1.0785 B( 28-C , 29-H ) :   0.9677
B( 28-C , 30-H ) :   0.9756 B( 28-C , 31-H ) :   0.9699

Dispersion correction           -0.014381795
FINAL SINGLE POINT ENERGY     -1339.858972422502

DIPOLE MOMENT
-------------
                                X             Y             Z
Electronic contribution:    -24.94196      -8.50504       4.87861
Nuclear contribution   :     25.67495       8.55953      -5.05239
                        -----------------------------------------
Total Dipole Moment    :      0.73299       0.05449      -0.17378
                        -----------------------------------------
Magnitude (a.u.)       :      0.75528
Magnitude (Debye)      :      1.91976

Rotational constants in cm-1:     0.020751     0.007839     0.006173
Rotational constants in MHz :   622.097741   235.007682   185.073546

                             ****ORCA TERMINATED NORMALLY****
TOTAL RUN TIME: 0 days 0 hours 0 minutes 21 seconds 80 msec
