                         Program Version 4.2.1 -  RELEASE  -
|  1> ! wB97X-D3 SP def2-SVP
|  2> %pal
|  3> nprocs 24
|  4> end
|  5>
|  6> * xyz 0 1
|  7> S 	 -139.17 	 14.1364 	 -3.70225
|  8> C 	 -139.59 	 12.7576 	 -2.74093
|  9> C 	 -138.797 	 12.5845 	 -1.65488
| 10> C 	 -137.783 	 13.6247 	 -1.56963
| 11> C 	 -137.689 	 14.3823 	 -2.74207
| 12> H 	 -137.175 	 13.8501 	 -0.703605
| 13> C 	 -139.104 	 11.5097 	 -0.620868
| 14> H 	 -139.773 	 10.8727 	 -1.11357
| 15> H 	 -139.634 	 11.9542 	 0.232417
| 16> C 	 -137.896 	 10.6257 	 -0.101058
| 17> H 	 -137.068 	 11.2228 	 0.228904
| 18> H 	 -138.35 	 10.0629 	 0.680459
| 19> C 	 -137.214 	 9.72767 	 -1.22522
| 20> H 	 -136.677 	 10.3229 	 -1.98486
| 21> H 	 -136.377 	 9.18912 	 -0.758017
| 22> H 	 -137.885 	 8.94878 	 -1.67046
| 23> S 	 -137.515 	 16.9818 	 -3.70722
| 24> C 	 -136.066 	 17.9014 	 -3.57078
| 25> C 	 -135.045 	 17.1377 	 -3.05968
| 26> C 	 -135.478 	 15.7871 	 -2.68257
| 27> C 	 -136.816 	 15.5282 	 -2.96862
| 28> H 	 -134.05 	 17.5891 	 -3.02706
| 29> C 	 -134.549 	 14.8264 	 -1.99591
| 30> H 	 -134.861 	 13.8215 	 -2.21711
| 31> H 	 -135.003 	 14.8131 	 -1.008
| 32> C 	 -133.053 	 15.1689 	 -2.11816
| 33> H 	 -132.836 	 16.2227 	 -1.86849
| 34> H 	 -132.745 	 15.1265 	 -3.18553
| 35> C 	 -132.212 	 14.1683 	 -1.3042
| 36> H 	 -132.325 	 13.1984 	 -1.6755
| 37> H 	 -132.584 	 14.0786 	 -0.18562
| 38> H 	 -131.205 	 14.3776 	 -1.39401
| 39> H 	 -140.503 	 12.1638 	 -2.92299
| 40> H 	 -135.988 	 18.9658 	 -3.64595
| 41> *
| 42>
| 43>                          ****END OF INPUT****

CARTESIAN COORDINATES (ANGSTROEM)
---------------------------------
  S    -139.170000   14.136400   -3.702250
  C    -139.590000   12.757600   -2.740930
  C    -138.797000   12.584500   -1.654880
  C    -137.783000   13.624700   -1.569630
  C    -137.689000   14.382300   -2.742070
  H    -137.175000   13.850100   -0.703605
  C    -139.104000   11.509700   -0.620868
  H    -139.773000   10.872700   -1.113570
  H    -139.634000   11.954200    0.232417
  C    -137.896000   10.625700   -0.101058
  H    -137.068000   11.222800    0.228904
  H    -138.350000   10.062900    0.680459
  C    -137.214000    9.727670   -1.225220
  H    -136.677000   10.322900   -1.984860
  H    -136.377000    9.189120   -0.758017
  H    -137.885000    8.948780   -1.670460
  S    -137.515000   16.981800   -3.707220
  C    -136.066000   17.901400   -3.570780
  C    -135.045000   17.137700   -3.059680
  C    -135.478000   15.787100   -2.682570
  C    -136.816000   15.528200   -2.968620
  H    -134.050000   17.589100   -3.027060
  C    -134.549000   14.826400   -1.995910
  H    -134.861000   13.821500   -2.217110
  H    -135.003000   14.813100   -1.008000
  C    -133.053000   15.168900   -2.118160
  H    -132.836000   16.222700   -1.868490
  H    -132.745000   15.126500   -3.185530
  C    -132.212000   14.168300   -1.304200
  H    -132.325000   13.198400   -1.675500
  H    -132.584000   14.078600   -0.185620
  H    -131.205000   14.377600   -1.394010
  H    -140.503000   12.163800   -2.922990
  H    -135.988000   18.965800   -3.645950

 Total Charge           Charge          ....    0
 Multiplicity           Mult            ....    1
 Number of Electrons    NEL             ....  134
 Basis Dimension        Dim             ....  322

ORBITAL ENERGIES
----------------

  NO   OCC          E(Eh)            E(eV)
   0   2.0000     -88.964965     -2420.8598
   1   2.0000     -88.960294     -2420.7327
   2   2.0000     -10.336309      -281.2653
   3   2.0000     -10.326611      -281.0014
   4   2.0000     -10.313587      -280.6470
   5   2.0000     -10.311645      -280.5941
   6   2.0000     -10.307793      -280.4893
   7   2.0000     -10.301230      -280.3107
   8   2.0000     -10.300542      -280.2920
   9   2.0000     -10.296428      -280.1801
  10   2.0000     -10.295509      -280.1551
  11   2.0000     -10.292326      -280.0684
  12   2.0000     -10.291980      -280.0590
  13   2.0000     -10.290164      -280.0096
  14   2.0000     -10.285368      -279.8791
  15   2.0000     -10.279131      -279.7094
  16   2.0000      -8.079713      -219.8602
  17   2.0000      -8.075385      -219.7424
  18   2.0000      -6.038355      -164.3120
  19   2.0000      -6.034425      -164.2050
  20   2.0000      -6.033994      -164.1933
  21   2.0000      -6.030125      -164.0880
  22   2.0000      -6.029790      -164.0789
  23   2.0000      -6.026061      -163.9775
  24   2.0000      -1.004348       -27.3297
  25   2.0000      -0.983012       -26.7491
  26   2.0000      -0.911294       -24.7976
  27   2.0000      -0.903858       -24.5952
  28   2.0000      -0.870369       -23.6840
  29   2.0000      -0.850354       -23.1393
  30   2.0000      -0.839204       -22.8359
  31   2.0000      -0.817818       -22.2540
  32   2.0000      -0.782500       -21.2929
  33   2.0000      -0.771711       -20.9993
  34   2.0000      -0.717826       -19.5330
  35   2.0000      -0.709128       -19.2963
  36   2.0000      -0.690835       -18.7986
  37   2.0000      -0.650965       -17.7137
  38   2.0000      -0.637086       -17.3360
  39   2.0000      -0.622413       -16.9367
  40   2.0000      -0.597112       -16.2482
  41   2.0000      -0.568754       -15.4766
  42   2.0000      -0.557412       -15.1679
  43   2.0000      -0.546675       -14.8758
  44   2.0000      -0.543533       -14.7903
  45   2.0000      -0.536752       -14.6058
  46   2.0000      -0.518139       -14.0993
  47   2.0000      -0.512220       -13.9382
  48   2.0000      -0.501921       -13.6580
  49   2.0000      -0.494674       -13.4608
  50   2.0000      -0.482631       -13.1331
  51   2.0000      -0.478509       -13.0209
  52   2.0000      -0.474162       -12.9026
  53   2.0000      -0.463544       -12.6137
  54   2.0000      -0.459521       -12.5042
  55   2.0000      -0.455893       -12.4055
  56   2.0000      -0.448963       -12.2169
  57   2.0000      -0.441065       -12.0020
  58   2.0000      -0.434702       -11.8288
  59   2.0000      -0.427051       -11.6207
  60   2.0000      -0.419949       -11.4274
  61   2.0000      -0.417382       -11.3575
  62   2.0000      -0.408776       -11.1234
  63   2.0000      -0.357918        -9.7394
  64   2.0000      -0.328278        -8.9329
  65   2.0000      -0.322178        -8.7669
  66   2.0000      -0.284731        -7.7479
  67   0.0000       0.023825         0.6483
  68   0.0000       0.076008         2.0683
  69   0.0000       0.103672         2.8210
  70   0.0000       0.123553         3.3621
  71   0.0000       0.130362         3.5473

MULLIKEN ATOMIC CHARGES
-----------------------
   0 S :    0.097676
   1 C :   -0.126600
   2 C :   -0.088443
   3 C :   -0.011620
   4 C :   -0.126109
   5 H :    0.022692
   6 C :    0.085940
   7 H :   -0.000903
   8 H :    0.046257
   9 C :   -0.058917
  10 H :    0.029898
  11 H :    0.032155
  12 C :   -0.095701
  13 H :    0.048156
  14 H :    0.030293
  15 H :    0.044994
  16 S :    0.087113
  17 C :   -0.071533
  18 C :   -0.068172
  19 C :   -0.065088
  20 C :   -0.134439
  21 H :    0.028789
  22 C :    0.077750
  23 H :    0.008597
  24 H :    0.025367
  25 C :   -0.086575
  26 H :    0.039744
  27 H :    0.039565
  28 C :    0.000731
  29 H :    0.014278
  30 H :    0.040122
  31 H :    0.019611
  32 H :    0.058608
  33 H :    0.055760
Sum of atomic charges:    0.0000000

LOEWDIN ATOMIC CHARGES
----------------------
   0 S :    0.391652
   1 C :   -0.200240
   2 C :   -0.067440
   3 C :   -0.062288
   4 C :   -0.177426
   5 H :    0.029061
   6 C :   -0.026769
   7 H :    0.020942
   8 H :    0.036056
   9 C :   -0.031118
  10 H :    0.020968
  11 H :    0.022077
  12 C :   -0.074957
  13 H :    0.030477
  14 H :    0.026388
  15 H :    0.027619
  16 S :    0.396913
  17 C :   -0.187761
  18 C :   -0.082987
  19 C :   -0.047004
  20 C :   -0.200104
  21 H :    0.034139
  22 C :   -0.041457
  23 H :    0.030104
  24 H :    0.036562
  25 C :   -0.039146
  26 H :    0.025508
  27 H :    0.032283
  28 C :   -0.058632
  29 H :    0.017692
  30 H :    0.038258
  31 H :    0.015521
  32 H :    0.034398
  33 H :    0.030711

  Mayer bond orders larger than 0.100000
B(  0-S ,  1-C ) :   1.1283 B(  0-S ,  4-C ) :   1.1360 B(  1-C ,  2-C ) :   1.6461
B(  1-C , 32-H ) :   0.9576 B(  2-C ,  3-C ) :   1.2107 B(  2-C ,  6-C ) :   1.0234
B(  3-C ,  4-C ) :   1.5645 B(  3-C ,  5-H ) :   0.9919 B(  4-C , 20-C ) :   1.0853
B(  6-C ,  7-H ) :   0.9375 B(  6-C ,  8-H ) :   0.9389 B(  6-C ,  9-C ) :   1.0623
B(  9-C , 10-H ) :   0.9616 B(  9-C , 11-H ) :   0.9599 B(  9-C , 12-C ) :   1.0685
B( 12-C , 13-H ) :   0.9753 B( 12-C , 14-H ) :   0.9759 B( 12-C , 15-H ) :   0.9778
B( 16-S , 17-C ) :   1.1668 B( 16-S , 20-C ) :   1.1139 B( 17-C , 18-C ) :   1.6185
B( 17-C , 33-H ) :   0.9624 B( 18-C , 19-C ) :   1.2233 B( 18-C , 21-H ) :   0.9870
B( 19-C , 20-C ) :   1.6004 B( 19-C , 22-C ) :   1.0402 B( 22-C , 23-H ) :   0.9211
B( 22-C , 24-H ) :   0.9193 B( 22-C , 25-C ) :   1.0546 B( 25-C , 26-H ) :   0.9476
B( 25-C , 27-H ) :   0.9553 B( 25-C , 28-C ) :   1.0848 B( 28-C , 29-H ) :   0.9712
B( 28-C , 30-H ) :   0.9743 B( 28-C , 31-H ) :   0.9715

Dispersion correction           -0.013742853
FINAL SINGLE POINT ENERGY     -1339.865351513367

DIPOLE MOMENT
-------------
                                X             Y             Z
Electronic contribution:    -18.28769      19.56549     -15.62521
Nuclear contribution   :     18.69328     -19.83837      16.24463
                        -----------------------------------------
Total Dipole Moment    :      0.40559      -0.27288       0.61941
                        -----------------------------------------
Magnitude (a.u.)       :      0.78908
Magnitude (Debye)      :      2.00567

Rotational constants in cm-1:     0.016285     0.009492     0.006304
Rotational constants in MHz :   488.208118   284.556700   188.974442

                             ****ORCA TERMINATED NORMALLY****
TOTAL RUN TIME: 0 days 0 hours 0 minutes 21 seconds 305 msec
