                         Program Version 4.2.1 -  RELEASE  -
|  1> ! wB97X-D3 SP def2-SVP
|  2> %pal
|  3> nprocs 24
|  4> end
|  5>
|  6> * xyz 0 1
|  7> S 	 -139.785 	 13.1824 	 0.605419
|  8> C 	 -141.024 	 11.9983 	 0.398549
|  9> C 	 -140.573 	 10.7106 	 0.584638
| 10> C 	 -139.16 	 10.6947 	 0.76198
| 11> C 	 -138.541 	 11.9661 	 0.757575
| 12> H 	 -138.59 	 9.85252 	 0.90976
| 13> C 	 -141.398 	 9.42052 	 0.68698
| 14> H 	 -142.398 	 9.59472 	 0.232718
| 15> H 	 -141.67 	 9.42366 	 1.789
| 16> C 	 -140.75 	 8.15205 	 0.265853
| 17> H 	 -140.162 	 8.35703 	 -0.677962
| 18> H 	 -139.944 	 7.93561 	 0.966617
| 19> C 	 -141.632 	 6.89061 	 0.278857
| 20> H 	 -140.99 	 6.06326 	 -0.0755327
| 21> H 	 -141.895 	 6.61122 	 1.24256
| 22> H 	 -142.503 	 6.88491 	 -0.370978
| 23> S 	 -136.531 	 13.8152 	 0.348204
| 24> C 	 -134.918 	 13.5407 	 0.768073
| 25> C 	 -134.846 	 12.4608 	 1.61379
| 26> C 	 -136.124 	 11.7751 	 1.7816
| 27> C 	 -137.124 	 12.3452 	 1.03945
| 28> H 	 -134.014 	 12.1815 	 2.1854
| 29> C 	 -136.237 	 10.5025 	 2.69434
| 30> H 	 -137.209 	 10.1053 	 2.74666
| 31> H 	 -135.858 	 10.8306 	 3.66728
| 32> C 	 -135.349 	 9.3191 	 2.25497
| 33> H 	 -134.381 	 9.70728 	 2.07826
| 34> H 	 -135.677 	 9.01844 	 1.24425
| 35> C 	 -135.412 	 8.20519 	 3.29642
| 36> H 	 -134.753 	 8.31961 	 4.12942
| 37> H 	 -135.144 	 7.23722 	 2.81555
| 38> H 	 -136.407 	 8.00264 	 3.57089
| 39> H 	 -142.057 	 12.1451 	 0.241747
| 40> H 	 -134.191 	 14.3675 	 0.553276
| 41> *
| 42>
| 43>                          ****END OF INPUT****

CARTESIAN COORDINATES (ANGSTROEM)
---------------------------------
  S    -139.785000   13.182400    0.605419
  C    -141.024000   11.998300    0.398549
  C    -140.573000   10.710600    0.584638
  C    -139.160000   10.694700    0.761980
  C    -138.541000   11.966100    0.757575
  H    -138.590000    9.852520    0.909760
  C    -141.398000    9.420520    0.686980
  H    -142.398000    9.594720    0.232718
  H    -141.670000    9.423660    1.789000
  C    -140.750000    8.152050    0.265853
  H    -140.162000    8.357030   -0.677962
  H    -139.944000    7.935610    0.966617
  C    -141.632000    6.890610    0.278857
  H    -140.990000    6.063260   -0.075533
  H    -141.895000    6.611220    1.242560
  H    -142.503000    6.884910   -0.370978
  S    -136.531000   13.815200    0.348204
  C    -134.918000   13.540700    0.768073
  C    -134.846000   12.460800    1.613790
  C    -136.124000   11.775100    1.781600
  C    -137.124000   12.345200    1.039450
  H    -134.014000   12.181500    2.185400
  C    -136.237000   10.502500    2.694340
  H    -137.209000   10.105300    2.746660
  H    -135.858000   10.830600    3.667280
  C    -135.349000    9.319100    2.254970
  H    -134.381000    9.707280    2.078260
  H    -135.677000    9.018440    1.244250
  C    -135.412000    8.205190    3.296420
  H    -134.753000    8.319610    4.129420
  H    -135.144000    7.237220    2.815550
  H    -136.407000    8.002640    3.570890
  H    -142.057000   12.145100    0.241747
  H    -134.191000   14.367500    0.553276

 Total Charge           Charge          ....    0
 Multiplicity           Mult            ....    1
 Number of Electrons    NEL             ....  134
 Basis Dimension        Dim             ....  322

ORBITAL ENERGIES
----------------

  NO   OCC          E(Eh)            E(eV)
   0   2.0000     -88.967570     -2420.9307
   1   2.0000     -88.958684     -2420.6889
   2   2.0000     -10.335192      -281.2349
   3   2.0000     -10.327620      -281.0288
   4   2.0000     -10.320253      -280.8284
   5   2.0000     -10.306864      -280.4640
   6   2.0000     -10.305865      -280.4369
   7   2.0000     -10.300019      -280.2778
   8   2.0000     -10.298541      -280.2376
   9   2.0000     -10.294155      -280.1182
  10   2.0000     -10.292837      -280.0823
  11   2.0000     -10.291216      -280.0382
  12   2.0000     -10.289191      -279.9831
  13   2.0000     -10.284018      -279.8424
  14   2.0000     -10.279753      -279.7263
  15   2.0000     -10.277005      -279.6515
  16   2.0000      -8.082417      -219.9337
  17   2.0000      -8.075674      -219.7503
  18   2.0000      -6.040987      -164.3836
  19   2.0000      -6.036816      -164.2701
  20   2.0000      -6.034115      -164.1966
  21   2.0000      -6.033225      -164.1724
  22   2.0000      -6.029798      -164.0791
  23   2.0000      -6.026434      -163.9876
  24   2.0000      -1.011145       -27.5147
  25   2.0000      -0.989717       -26.9316
  26   2.0000      -0.915563       -24.9137
  27   2.0000      -0.911015       -24.7900
  28   2.0000      -0.870400       -23.6848
  29   2.0000      -0.853336       -23.2204
  30   2.0000      -0.844532       -22.9809
  31   2.0000      -0.815710       -22.1966
  32   2.0000      -0.786033       -21.3890
  33   2.0000      -0.779393       -21.2084
  34   2.0000      -0.712484       -19.3877
  35   2.0000      -0.702816       -19.1246
  36   2.0000      -0.689638       -18.7660
  37   2.0000      -0.665473       -18.1084
  38   2.0000      -0.639773       -17.4091
  39   2.0000      -0.624978       -17.0065
  40   2.0000      -0.604544       -16.4505
  41   2.0000      -0.571078       -15.5398
  42   2.0000      -0.568158       -15.4604
  43   2.0000      -0.565183       -15.3794
  44   2.0000      -0.528200       -14.3731
  45   2.0000      -0.522014       -14.2047
  46   2.0000      -0.516829       -14.0636
  47   2.0000      -0.511790       -13.9265
  48   2.0000      -0.508058       -13.8250
  49   2.0000      -0.501758       -13.6535
  50   2.0000      -0.497767       -13.5449
  51   2.0000      -0.482716       -13.1354
  52   2.0000      -0.478028       -13.0078
  53   2.0000      -0.471745       -12.8368
  54   2.0000      -0.463675       -12.6172
  55   2.0000      -0.454907       -12.3787
  56   2.0000      -0.447976       -12.1900
  57   2.0000      -0.437798       -11.9131
  58   2.0000      -0.429753       -11.6942
  59   2.0000      -0.426804       -11.6139
  60   2.0000      -0.425520       -11.5790
  61   2.0000      -0.415428       -11.3044
  62   2.0000      -0.410789       -11.1781
  63   2.0000      -0.356620        -9.7041
  64   2.0000      -0.331125        -9.0104
  65   2.0000      -0.324893        -8.8408
  66   2.0000      -0.288583        -7.8527
  67   0.0000       0.028118         0.7651
  68   0.0000       0.081274         2.2116
  69   0.0000       0.109223         2.9721
  70   0.0000       0.122798         3.3415
  71   0.0000       0.129126         3.5137

MULLIKEN ATOMIC CHARGES
-----------------------
   0 S :    0.115480
   1 C :   -0.094523
   2 C :   -0.094154
   3 C :    0.019713
   4 C :   -0.107321
   5 H :   -0.034654
   6 C :    0.062176
   7 H :    0.019423
   8 H :    0.046604
   9 C :   -0.114783
  10 H :    0.045255
  11 H :    0.028571
  12 C :    0.001799
  13 H :    0.029970
  14 H :    0.017083
  15 H :    0.035758
  16 S :    0.089925
  17 C :   -0.093277
  18 C :   -0.012061
  19 C :   -0.072778
  20 C :   -0.138665
  21 H :    0.001654
  22 C :    0.075396
  23 H :    0.004842
  24 H :    0.028288
  25 C :   -0.075719
  26 H :    0.010908
  27 H :    0.026163
  28 C :   -0.006052
  29 H :    0.037607
  30 H :    0.025819
  31 H :    0.013449
  32 H :    0.021724
  33 H :    0.086382
Sum of atomic charges:    0.0000000

LOEWDIN ATOMIC CHARGES
----------------------
   0 S :    0.421204
   1 C :   -0.205308
   2 C :   -0.059999
   3 C :   -0.062657
   4 C :   -0.185146
   5 H :    0.010217
   6 C :   -0.041104
   7 H :    0.029734
   8 H :    0.042941
   9 C :   -0.053367
  10 H :    0.033577
  11 H :    0.025320
  12 C :   -0.054984
  13 H :    0.034661
  14 H :    0.017014
  15 H :    0.025080
  16 S :    0.428079
  17 C :   -0.203142
  18 C :   -0.070729
  19 C :   -0.055559
  20 C :   -0.207113
  21 H :    0.020523
  22 C :   -0.020097
  23 H :    0.016360
  24 H :    0.032112
  25 C :   -0.037624
  26 H :    0.014173
  27 H :    0.024828
  28 C :   -0.060108
  29 H :    0.025191
  30 H :    0.033222
  31 H :    0.018688
  32 H :    0.021232
  33 H :    0.042778

  Mayer bond orders larger than 0.100000
B(  0-S ,  1-C ) :   1.1430 B(  0-S ,  4-C ) :   1.1688 B(  1-C ,  2-C ) :   1.6105
B(  1-C ,  4-C ) :   0.1009 B(  1-C , 32-H ) :   0.9682 B(  2-C ,  3-C ) :   1.2643
B(  2-C ,  6-C ) :   1.0114 B(  3-C ,  4-C ) :   1.5437 B(  3-C ,  5-H ) :   1.0073
B(  4-C , 20-C ) :   1.0280 B(  6-C ,  7-H ) :   0.9403 B(  6-C ,  8-H ) :   0.9276
B(  6-C ,  9-C ) :   1.0725 B(  9-C , 10-H ) :   0.9616 B(  9-C , 11-H ) :   0.9358
B(  9-C , 12-C ) :   1.0850 B( 12-C , 13-H ) :   0.9709 B( 12-C , 14-H ) :   0.9719
B( 12-C , 15-H ) :   0.9767 B( 16-S , 17-C ) :   1.1818 B( 16-S , 20-C ) :   1.1448
B( 17-C , 18-C ) :   1.5594 B( 17-C , 33-H ) :   0.9643 B( 18-C , 19-C ) :   1.2552
B( 18-C , 21-H ) :   0.9997 B( 19-C , 20-C ) :   1.6053 B( 19-C , 22-C ) :   1.0311
B( 22-C , 23-H ) :   0.9427 B( 22-C , 24-H ) :   0.9354 B( 22-C , 25-C ) :   1.0624
B( 25-C , 26-H ) :   0.9553 B( 25-C , 27-H ) :   0.9552 B( 25-C , 28-C ) :   1.0792
B( 28-C , 29-H ) :   0.9758 B( 28-C , 30-H ) :   0.9713 B( 28-C , 31-H ) :   0.9718

Dispersion correction           -0.013508071
FINAL SINGLE POINT ENERGY     -1339.875160226926

DIPOLE MOMENT
-------------
                                X             Y             Z
Electronic contribution:      1.83841      32.63658      -7.37286
Nuclear contribution   :     -1.77685     -33.35274       7.76600
                        -----------------------------------------
Total Dipole Moment    :      0.06156      -0.71616       0.39315
                        -----------------------------------------
Magnitude (a.u.)       :      0.81929
Magnitude (Debye)      :      2.08247

Rotational constants in cm-1:     0.016139     0.009309     0.006195
Rotational constants in MHz :   483.824555   279.065454   185.707085

                             ****ORCA TERMINATED NORMALLY****
TOTAL RUN TIME: 0 days 0 hours 0 minutes 21 seconds 256 msec
