                         Program Version 4.2.1 -  RELEASE  -
|  1> ! wB97X-D3 SP def2-SVP
|  2> %pal
|  3> nprocs 24
|  4> end
|  5>
|  6> * xyz 0 1
|  7> S 	 -120.476 	 60.7221 	 -33.5599
|  8> C 	 -120.613 	 59.5471 	 -34.9244
|  9> C 	 -121.345 	 60.0631 	 -35.9655
| 10> C 	 -121.617 	 61.4633 	 -35.7787
| 11> C 	 -121.135 	 61.9551 	 -34.5862
| 12> H 	 -122.137 	 62.1365 	 -36.4287
| 13> C 	 -121.675 	 59.3258 	 -37.2878
| 14> H 	 -122.769 	 59.3779 	 -37.5337
| 15> H 	 -121.561 	 58.2527 	 -37.2054
| 16> C 	 -120.829 	 59.7968 	 -38.4877
| 17> H 	 -121.03 	 60.8739 	 -38.4971
| 18> H 	 -119.844 	 59.576 	 -38.2073
| 19> C 	 -121.322 	 59.2274 	 -39.7813
| 20> H 	 -122.284 	 59.5079 	 -40.1967
| 21> H 	 -120.676 	 59.4711 	 -40.6457
| 22> H 	 -121.233 	 58.1884 	 -39.6745
| 23> S 	 -119.541 	 64.111 	 -33.7254
| 24> C 	 -120.263 	 65.6948 	 -33.521
| 25> C 	 -121.629 	 65.6282 	 -33.7067
| 26> C 	 -122.138 	 64.3168 	 -34.1167
| 27> C 	 -121.116 	 63.3478 	 -34.255
| 28> H 	 -122.193 	 66.5345 	 -33.6094
| 29> C 	 -123.611 	 64.0232 	 -34.4346
| 30> H 	 -123.907 	 63.04 	 -34.0241
| 31> H 	 -123.831 	 64.0028 	 -35.4859
| 32> C 	 -124.597 	 65.0199 	 -33.8656
| 33> H 	 -124.394 	 65.9348 	 -34.3503
| 34> H 	 -124.361 	 65.2474 	 -32.8063
| 35> C 	 -126.106 	 64.6756 	 -33.9936
| 36> H 	 -126.472 	 64.235 	 -34.8882
| 37> H 	 -126.66 	 65.5797 	 -34.0032
| 38> H 	 -126.482 	 64.0279 	 -33.1686
| 39> H 	 -120.327 	 58.5213 	 -34.7681
| 40> H 	 -119.764 	 66.6332 	 -33.2586
| 41> *
| 42>
| 43>                          ****END OF INPUT****

CARTESIAN COORDINATES (ANGSTROEM)
---------------------------------
  S    -120.476000   60.722100  -33.559900
  C    -120.613000   59.547100  -34.924400
  C    -121.345000   60.063100  -35.965500
  C    -121.617000   61.463300  -35.778700
  C    -121.135000   61.955100  -34.586200
  H    -122.137000   62.136500  -36.428700
  C    -121.675000   59.325800  -37.287800
  H    -122.769000   59.377900  -37.533700
  H    -121.561000   58.252700  -37.205400
  C    -120.829000   59.796800  -38.487700
  H    -121.030000   60.873900  -38.497100
  H    -119.844000   59.576000  -38.207300
  C    -121.322000   59.227400  -39.781300
  H    -122.284000   59.507900  -40.196700
  H    -120.676000   59.471100  -40.645700
  H    -121.233000   58.188400  -39.674500
  S    -119.541000   64.111000  -33.725400
  C    -120.263000   65.694800  -33.521000
  C    -121.629000   65.628200  -33.706700
  C    -122.138000   64.316800  -34.116700
  C    -121.116000   63.347800  -34.255000
  H    -122.193000   66.534500  -33.609400
  C    -123.611000   64.023200  -34.434600
  H    -123.907000   63.040000  -34.024100
  H    -123.831000   64.002800  -35.485900
  C    -124.597000   65.019900  -33.865600
  H    -124.394000   65.934800  -34.350300
  H    -124.361000   65.247400  -32.806300
  C    -126.106000   64.675600  -33.993600
  H    -126.472000   64.235000  -34.888200
  H    -126.660000   65.579700  -34.003200
  H    -126.482000   64.027900  -33.168600
  H    -120.327000   58.521300  -34.768100
  H    -119.764000   66.633200  -33.258600

 Total Charge           Charge          ....    0
 Multiplicity           Mult            ....    1
 Number of Electrons    NEL             ....  134
 Basis Dimension        Dim             ....  322

ORBITAL ENERGIES
----------------

  NO   OCC          E(Eh)            E(eV)
   0   2.0000     -88.966686     -2420.9066
   1   2.0000     -88.963226     -2420.8124
   2   2.0000     -10.332055      -281.1495
   3   2.0000     -10.326974      -281.0112
   4   2.0000     -10.320723      -280.8411
   5   2.0000     -10.318377      -280.7773
   6   2.0000     -10.313517      -280.6451
   7   2.0000     -10.308146      -280.4989
   8   2.0000     -10.296160      -280.1727
   9   2.0000     -10.295605      -280.1577
  10   2.0000     -10.294094      -280.1165
  11   2.0000     -10.290963      -280.0313
  12   2.0000     -10.283919      -279.8397
  13   2.0000     -10.281935      -279.7857
  14   2.0000     -10.276708      -279.6434
  15   2.0000     -10.274607      -279.5863
  16   2.0000      -8.081088      -219.8976
  17   2.0000      -8.076754      -219.7797
  18   2.0000      -6.039645      -164.3471
  19   2.0000      -6.035809      -164.2427
  20   2.0000      -6.035455      -164.2331
  21   2.0000      -6.031637      -164.1292
  22   2.0000      -6.031361      -164.1217
  23   2.0000      -6.027433      -164.0148
  24   2.0000      -1.001404       -27.2496
  25   2.0000      -0.974304       -26.5122
  26   2.0000      -0.914863       -24.8947
  27   2.0000      -0.908256       -24.7149
  28   2.0000      -0.873017       -23.7560
  29   2.0000      -0.849842       -23.1254
  30   2.0000      -0.839291       -22.8383
  31   2.0000      -0.813142       -22.1267
  32   2.0000      -0.785540       -21.3756
  33   2.0000      -0.775199       -21.0942
  34   2.0000      -0.710076       -19.3221
  35   2.0000      -0.701856       -19.0985
  36   2.0000      -0.698384       -19.0040
  37   2.0000      -0.650955       -17.7134
  38   2.0000      -0.642872       -17.4934
  39   2.0000      -0.620941       -16.8967
  40   2.0000      -0.597015       -16.2456
  41   2.0000      -0.573327       -15.6010
  42   2.0000      -0.570237       -15.5169
  43   2.0000      -0.564606       -15.3637
  44   2.0000      -0.526299       -14.3213
  45   2.0000      -0.521539       -14.1918
  46   2.0000      -0.512620       -13.9491
  47   2.0000      -0.510845       -13.9008
  48   2.0000      -0.502591       -13.6762
  49   2.0000      -0.499948       -13.6043
  50   2.0000      -0.496852       -13.5200
  51   2.0000      -0.481923       -13.1138
  52   2.0000      -0.474117       -12.9014
  53   2.0000      -0.461945       -12.5702
  54   2.0000      -0.460914       -12.5421
  55   2.0000      -0.453268       -12.3341
  56   2.0000      -0.450762       -12.2659
  57   2.0000      -0.429901       -11.6982
  58   2.0000      -0.427162       -11.6237
  59   2.0000      -0.423630       -11.5276
  60   2.0000      -0.419652       -11.4193
  61   2.0000      -0.416795       -11.3416
  62   2.0000      -0.411830       -11.2065
  63   2.0000      -0.344048        -9.3620
  64   2.0000      -0.334306        -9.0969
  65   2.0000      -0.326806        -8.8928
  66   2.0000      -0.293334        -7.9820
  67   0.0000       0.026656         0.7254
  68   0.0000       0.064600         1.7579
  69   0.0000       0.104919         2.8550
  70   0.0000       0.128427         3.4947
  71   0.0000       0.132823         3.6143

MULLIKEN ATOMIC CHARGES
-----------------------
   0 S :    0.110870
   1 C :   -0.138565
   2 C :   -0.029517
   3 C :    0.023797
   4 C :   -0.157277
   5 H :    0.009432
   6 C :    0.018622
   7 H :    0.032523
   8 H :    0.008218
   9 C :   -0.036206
  10 H :    0.027351
  11 H :    0.026180
  12 C :   -0.026116
  13 H :    0.033038
  14 H :    0.029364
  15 H :    0.014386
  16 S :    0.093054
  17 C :   -0.085893
  18 C :   -0.046114
  19 C :   -0.026540
  20 C :   -0.159379
  21 H :    0.015516
  22 C :    0.081829
  23 H :    0.036291
  24 H :    0.034031
  25 C :   -0.114628
  26 H :    0.016804
  27 H :    0.033506
  28 C :   -0.016006
  29 H :    0.014578
  30 H :    0.018533
  31 H :    0.043665
  32 H :    0.049343
  33 H :    0.065311
Sum of atomic charges:   -0.0000000

LOEWDIN ATOMIC CHARGES
----------------------
   0 S :    0.387804
   1 C :   -0.173596
   2 C :   -0.056108
   3 C :   -0.052744
   4 C :   -0.198573
   5 H :    0.029150
   6 C :   -0.033914
   7 H :    0.033143
   8 H :    0.020885
   9 C :   -0.032101
  10 H :    0.025214
  11 H :    0.021845
  12 C :   -0.066520
  13 H :    0.027953
  14 H :    0.032036
  15 H :    0.017839
  16 S :    0.372054
  17 C :   -0.184109
  18 C :   -0.078381
  19 C :   -0.046887
  20 C :   -0.176868
  21 H :    0.027700
  22 C :   -0.033760
  23 H :    0.034901
  24 H :    0.028638
  25 C :   -0.043189
  26 H :    0.013921
  27 H :    0.028022
  28 C :   -0.065295
  29 H :    0.019947
  30 H :    0.025586
  31 H :    0.032859
  32 H :    0.024206
  33 H :    0.038340

  Mayer bond orders larger than 0.100000
B(  0-S ,  1-C ) :   1.1160 B(  0-S ,  4-C ) :   1.1451 B(  1-C ,  2-C ) :   1.6307
B(  1-C , 32-H ) :   0.9714 B(  2-C ,  3-C ) :   1.2004 B(  2-C ,  6-C ) :   1.0280
B(  3-C ,  4-C ) :   1.5867 B(  3-C ,  5-H ) :   0.9973 B(  4-C , 20-C ) :   1.0807
B(  6-C ,  7-H ) :   0.9436 B(  6-C ,  8-H ) :   0.9421 B(  6-C ,  9-C ) :   1.0505
B(  9-C , 10-H ) :   0.9582 B(  9-C , 11-H ) :   0.9555 B(  9-C , 12-C ) :   1.0851
B( 12-C , 13-H ) :   0.9738 B( 12-C , 14-H ) :   0.9691 B( 12-C , 15-H ) :   0.9722
B( 16-S , 17-C ) :   1.1483 B( 16-S , 20-C ) :   1.1141 B( 17-C , 18-C ) :   1.6261
B( 17-C , 33-H ) :   0.9605 B( 18-C , 19-C ) :   1.2240 B( 18-C , 21-H ) :   0.9882
B( 19-C , 20-C ) :   1.5961 B( 19-C , 22-C ) :   1.0368 B( 22-C , 23-H ) :   0.9356
B( 22-C , 24-H ) :   0.9296 B( 22-C , 25-C ) :   1.0822 B( 25-C , 26-H ) :   0.9478
B( 25-C , 27-H ) :   0.9572 B( 25-C , 28-C ) :   1.0782 B( 28-C , 29-H ) :   0.9738
B( 28-C , 30-H ) :   0.9712 B( 28-C , 31-H ) :   0.9760

Dispersion correction           -0.013329102
FINAL SINGLE POINT ENERGY     -1339.872683525819

DIPOLE MOMENT
-------------
                                X             Y             Z
Electronic contribution:     20.25378       2.31749      17.96080
Nuclear contribution   :    -20.82104      -2.25591     -18.45215
                        -----------------------------------------
Total Dipole Moment    :     -0.56726       0.06159      -0.49135
                        -----------------------------------------
Magnitude (a.u.)       :      0.75299
Magnitude (Debye)      :      1.91396

Rotational constants in cm-1:     0.016688     0.007745     0.006385
Rotational constants in MHz :   500.295142   232.187420   191.422467

                             ****ORCA TERMINATED NORMALLY****
TOTAL RUN TIME: 0 days 0 hours 0 minutes 20 seconds 817 msec
