                         Program Version 4.2.1 -  RELEASE  -
|  1> ! wB97X-D3 SP def2-SVP
|  2> %pal
|  3> nprocs 24
|  4> end
|  5>
|  6> * xyz 0 1
|  7> S 	 -56.353 	 -48.2512 	 -79.6334
|  8> C 	 -56.1039 	 -46.6855 	 -78.9061
|  9> C 	 -55.311 	 -46.7651 	 -77.8269
| 10> C 	 -54.8439 	 -48.1536 	 -77.6019
| 11> C 	 -55.3217 	 -49.0594 	 -78.5284
| 12> H 	 -54.0486 	 -48.4718 	 -76.986
| 13> C 	 -54.8399 	 -45.5093 	 -77.0819
| 14> H 	 -55.7027 	 -44.8713 	 -77.0128
| 15> H 	 -54.1704 	 -44.8869 	 -77.7373
| 16> C 	 -54.0905 	 -45.7397 	 -75.7673
| 17> H 	 -53.3067 	 -46.4188 	 -76.0506
| 18> H 	 -53.6131 	 -44.8048 	 -75.4263
| 19> C 	 -54.8939 	 -46.4155 	 -74.6325
| 20> H 	 -54.4641 	 -46.3904 	 -73.6279
| 21> H 	 -55.861 	 -45.9518 	 -74.4378
| 22> H 	 -55.2056 	 -47.3582 	 -74.9781
| 23> S 	 -55.0145 	 -51.0164 	 -80.345
| 24> C 	 -54.3111 	 -52.5391 	 -79.9778
| 25> C 	 -54.1438 	 -52.6279 	 -78.6234
| 26> C 	 -54.4624 	 -51.4005 	 -77.8988
| 27> C 	 -54.8772 	 -50.4273 	 -78.7464
| 28> H 	 -53.6294 	 -53.4548 	 -78.2556
| 29> C 	 -54.355 	 -51.3024 	 -76.4137
| 30> H 	 -54.7749 	 -52.2139 	 -76.1068
| 31> H 	 -54.9799 	 -50.5531 	 -75.9553
| 32> C 	 -52.9432 	 -50.9848 	 -75.8527
| 33> H 	 -52.4897 	 -50.3373 	 -76.5857
| 34> H 	 -52.3047 	 -51.941 	 -75.78
| 35> C 	 -52.8449 	 -50.2 	 -74.5319
| 36> H 	 -51.9126 	 -50.5789 	 -74.0683
| 37> H 	 -53.6445 	 -50.6069 	 -73.8358
| 38> H 	 -52.9113 	 -49.1397 	 -74.6863
| 39> H 	 -56.5122 	 -45.7955 	 -79.364
| 40> H 	 -53.8883 	 -53.2235 	 -80.6843
| 41> *
| 42>
| 43>                          ****END OF INPUT****

CARTESIAN COORDINATES (ANGSTROEM)
---------------------------------
  S    -56.353000  -48.251200  -79.633400
  C    -56.103900  -46.685500  -78.906100
  C    -55.311000  -46.765100  -77.826900
  C    -54.843900  -48.153600  -77.601900
  C    -55.321700  -49.059400  -78.528400
  H    -54.048600  -48.471800  -76.986000
  C    -54.839900  -45.509300  -77.081900
  H    -55.702700  -44.871300  -77.012800
  H    -54.170400  -44.886900  -77.737300
  C    -54.090500  -45.739700  -75.767300
  H    -53.306700  -46.418800  -76.050600
  H    -53.613100  -44.804800  -75.426300
  C    -54.893900  -46.415500  -74.632500
  H    -54.464100  -46.390400  -73.627900
  H    -55.861000  -45.951800  -74.437800
  H    -55.205600  -47.358200  -74.978100
  S    -55.014500  -51.016400  -80.345000
  C    -54.311100  -52.539100  -79.977800
  C    -54.143800  -52.627900  -78.623400
  C    -54.462400  -51.400500  -77.898800
  C    -54.877200  -50.427300  -78.746400
  H    -53.629400  -53.454800  -78.255600
  C    -54.355000  -51.302400  -76.413700
  H    -54.774900  -52.213900  -76.106800
  H    -54.979900  -50.553100  -75.955300
  C    -52.943200  -50.984800  -75.852700
  H    -52.489700  -50.337300  -76.585700
  H    -52.304700  -51.941000  -75.780000
  C    -52.844900  -50.200000  -74.531900
  H    -51.912600  -50.578900  -74.068300
  H    -53.644500  -50.606900  -73.835800
  H    -52.911300  -49.139700  -74.686300
  H    -56.512200  -45.795500  -79.364000
  H    -53.888300  -53.223500  -80.684300

 Total Charge           Charge          ....    0
 Multiplicity           Mult            ....    1
 Number of Electrons    NEL             ....  134
 Basis Dimension        Dim             ....  322

ORBITAL ENERGIES
----------------

  NO   OCC          E(Eh)            E(eV)
   0   2.0000     -88.962026     -2420.7798
   1   2.0000     -88.960569     -2420.7402
   2   2.0000     -10.329456      -281.0788
   3   2.0000     -10.322440      -280.8879
   4   2.0000     -10.313737      -280.6511
   5   2.0000     -10.309602      -280.5385
   6   2.0000     -10.305665      -280.4314
   7   2.0000     -10.301501      -280.3181
   8   2.0000     -10.297268      -280.2029
   9   2.0000     -10.295837      -280.1640
  10   2.0000     -10.291588      -280.0484
  11   2.0000     -10.290635      -280.0224
  12   2.0000     -10.290382      -280.0155
  13   2.0000     -10.285978      -279.8957
  14   2.0000     -10.284373      -279.8520
  15   2.0000     -10.273350      -279.5521
  16   2.0000      -8.077909      -219.8111
  17   2.0000      -8.077155      -219.7906
  18   2.0000      -6.036475      -164.2608
  19   2.0000      -6.035713      -164.2401
  20   2.0000      -6.032217      -164.1450
  21   2.0000      -6.031316      -164.1204
  22   2.0000      -6.028572      -164.0458
  23   2.0000      -6.027822      -164.0254
  24   2.0000      -1.018321       -27.7099
  25   2.0000      -0.992030       -26.9945
  26   2.0000      -0.913121       -24.8473
  27   2.0000      -0.911290       -24.7975
  28   2.0000      -0.877259       -23.8714
  29   2.0000      -0.854585       -23.2544
  30   2.0000      -0.839083       -22.8326
  31   2.0000      -0.824638       -22.4395
  32   2.0000      -0.786419       -21.3995
  33   2.0000      -0.779511       -21.2116
  34   2.0000      -0.714168       -19.4335
  35   2.0000      -0.695949       -18.9377
  36   2.0000      -0.691823       -18.8255
  37   2.0000      -0.669434       -18.2162
  38   2.0000      -0.644950       -17.5500
  39   2.0000      -0.625695       -17.0260
  40   2.0000      -0.601385       -16.3645
  41   2.0000      -0.573169       -15.5967
  42   2.0000      -0.568058       -15.4577
  43   2.0000      -0.548580       -14.9276
  44   2.0000      -0.540260       -14.7012
  45   2.0000      -0.527747       -14.3607
  46   2.0000      -0.524644       -14.2763
  47   2.0000      -0.514518       -14.0008
  48   2.0000      -0.510781       -13.8991
  49   2.0000      -0.501065       -13.6347
  50   2.0000      -0.496438       -13.5088
  51   2.0000      -0.490300       -13.3417
  52   2.0000      -0.473523       -12.8852
  53   2.0000      -0.472502       -12.8574
  54   2.0000      -0.462913       -12.5965
  55   2.0000      -0.449393       -12.2286
  56   2.0000      -0.442830       -12.0500
  57   2.0000      -0.434912       -11.8345
  58   2.0000      -0.432338       -11.7645
  59   2.0000      -0.421734       -11.4760
  60   2.0000      -0.419454       -11.4139
  61   2.0000      -0.416684       -11.3386
  62   2.0000      -0.407202       -11.0805
  63   2.0000      -0.364516        -9.9190
  64   2.0000      -0.330200        -8.9852
  65   2.0000      -0.324757        -8.8371
  66   2.0000      -0.292919        -7.9707
  67   0.0000       0.028360         0.7717
  68   0.0000       0.082650         2.2490
  69   0.0000       0.112461         3.0602
  70   0.0000       0.114811         3.1242
  71   0.0000       0.126020         3.4292

MULLIKEN ATOMIC CHARGES
-----------------------
   0 S :    0.093229
   1 C :   -0.134223
   2 C :   -0.057607
   3 C :    0.007993
   4 C :   -0.101338
   5 H :   -0.025974
   6 C :    0.043563
   7 H :    0.021928
   8 H :    0.047010
   9 C :   -0.061821
  10 H :    0.024519
  11 H :    0.033301
  12 C :   -0.029552
  13 H :    0.042082
  14 H :    0.014791
  15 H :    0.014498
  16 S :    0.093321
  17 C :   -0.081060
  18 C :   -0.011268
  19 C :   -0.083741
  20 C :   -0.115794
  21 H :   -0.002295
  22 C :    0.108824
  23 H :    0.014404
  24 H :    0.012028
  25 C :   -0.118477
  26 H :    0.033109
  27 H :    0.039907
  28 C :   -0.061271
  29 H :    0.041176
  30 H :    0.038423
  31 H :    0.052546
  32 H :    0.049177
  33 H :    0.058591
Sum of atomic charges:    0.0000000

LOEWDIN ATOMIC CHARGES
----------------------
   0 S :    0.409769
   1 C :   -0.192074
   2 C :   -0.059873
   3 C :   -0.073597
   4 C :   -0.190278
   5 H :    0.018632
   6 C :   -0.033289
   7 H :    0.026387
   8 H :    0.041898
   9 C :   -0.040577
  10 H :    0.020931
  11 H :    0.028559
  12 C :   -0.069854
  13 H :    0.030560
  14 H :    0.026300
  15 H :    0.016855
  16 S :    0.424131
  17 C :   -0.187779
  18 C :   -0.062117
  19 C :   -0.056901
  20 C :   -0.202291
  21 H :    0.019890
  22 C :   -0.034567
  23 H :    0.027070
  24 H :    0.028286
  25 C :   -0.047365
  26 H :    0.019970
  27 H :    0.029966
  28 C :   -0.070068
  29 H :    0.035369
  30 H :    0.031940
  31 H :    0.022624
  32 H :    0.029619
  33 H :    0.031875

  Mayer bond orders larger than 0.100000
B(  0-S ,  1-C ) :   1.1246 B(  0-S ,  4-C ) :   1.1504 B(  1-C ,  2-C ) :   1.6500
B(  1-C , 32-H ) :   0.9753 B(  2-C ,  3-C ) :   1.2019 B(  2-C ,  6-C ) :   1.0041
B(  3-C ,  4-C ) :   1.5943 B(  3-C ,  5-H ) :   0.9933 B(  4-C , 20-C ) :   1.0541
B(  6-C ,  7-H ) :   0.9406 B(  6-C ,  8-H ) :   0.9416 B(  6-C ,  9-C ) :   1.0806
B(  9-C , 10-H ) :   0.9503 B(  9-C , 11-H ) :   0.9546 B(  9-C , 12-C ) :   1.0756
B( 12-C , 13-H ) :   0.9755 B( 12-C , 14-H ) :   0.9699 B( 12-C , 15-H ) :   0.9702
B( 16-S , 17-C ) :   1.1542 B( 16-S , 20-C ) :   1.1363 B( 17-C , 18-C ) :   1.6201
B( 17-C , 33-H ) :   0.9707 B( 18-C , 19-C ) :   1.2195 B( 18-C , 21-H ) :   0.9980
B( 19-C , 20-C ) :   1.6053 B( 19-C , 22-C ) :   1.0611 B( 22-C , 23-H ) :   0.9211
B( 22-C , 24-H ) :   0.9334 B( 22-C , 25-C ) :   1.0401 B( 25-C , 26-H ) :   0.9603
B( 25-C , 27-H ) :   0.9575 B( 25-C , 28-C ) :   1.0810 B( 28-C , 29-H ) :   0.9732
B( 28-C , 30-H ) :   0.9738 B( 28-C , 31-H ) :   0.9750

Dispersion correction           -0.015374084
FINAL SINGLE POINT ENERGY     -1339.872950775503

DIPOLE MOMENT
-------------
                                X             Y             Z
Electronic contribution:    -11.56816      -8.45243     -28.69518
Nuclear contribution   :     12.04405       8.58234      29.15000
                        -----------------------------------------
Total Dipole Moment    :      0.47589       0.12991       0.45482
                        -----------------------------------------
Magnitude (a.u.)       :      0.67098
Magnitude (Debye)      :      1.70550

Rotational constants in cm-1:     0.017697     0.010880     0.007041
Rotational constants in MHz :   530.542948   326.182172   211.080100

                             ****ORCA TERMINATED NORMALLY****
TOTAL RUN TIME: 0 days 0 hours 0 minutes 22 seconds 962 msec
