                         Program Version 4.2.1 -  RELEASE  -
|  1> ! wB97X-D3 SP def2-SVP
|  2> %pal
|  3> nprocs 24
|  4> end
|  5>
|  6> * xyz 0 1
|  7> S 	 -33.3259 	 15.3909 	 14.2531
|  8> C 	 -34.0516 	 16.4596 	 15.5179
|  9> C 	 -34.5242 	 17.6389 	 14.9643
| 10> C 	 -34.4073 	 17.6908 	 13.553
| 11> C 	 -33.745 	 16.5858 	 13.0199
| 12> H 	 -34.704 	 18.4397 	 12.8729
| 13> C 	 -35.2461 	 18.7189 	 15.7731
| 14> H 	 -34.8207 	 19.6743 	 15.4114
| 15> H 	 -35.0401 	 18.5913 	 16.8072
| 16> C 	 -36.7236 	 18.7254 	 15.6771
| 17> H 	 -36.9541 	 18.8072 	 14.5705
| 18> H 	 -37.0627 	 17.7356 	 16.023
| 19> C 	 -37.4118 	 19.8549 	 16.4923
| 20> H 	 -37.8177 	 20.6168 	 15.8394
| 21> H 	 -38.2773 	 19.4849 	 16.9515
| 22> H 	 -36.6836 	 20.2841 	 17.1563
| 23> S 	 -31.7334 	 16.2816 	 11.0906
| 24> C 	 -32.2118 	 16.0148 	 9.39997
| 25> C 	 -33.5699 	 15.9804 	 9.24091
| 26> C 	 -34.286 	 16.2356 	 10.4622
| 27> C 	 -33.432 	 16.4225 	 11.5907
| 28> H 	 -33.8933 	 15.8799 	 8.22332
| 29> C 	 -35.8119 	 16.3116 	 10.5893
| 30> H 	 -36.0554 	 16.3392 	 11.7508
| 31> H 	 -36.2332 	 15.4125 	 10.1574
| 32> C 	 -36.454 	 17.4949 	 9.85775
| 33> H 	 -36.0046 	 17.587 	 8.89723
| 34> H 	 -36.2282 	 18.4331 	 10.3961
| 35> C 	 -38.0044 	 17.3784 	 9.88704
| 36> H 	 -38.4056 	 18.3017 	 9.45343
| 37> H 	 -38.3077 	 17.2053 	 10.9184
| 38> H 	 -38.4839 	 16.6795 	 9.27598
| 39> H 	 -34.4155 	 16.0562 	 16.4396
| 40> H 	 -31.4638 	 15.9666 	 8.61697
| 41> *
| 42>
| 43>                          ****END OF INPUT****

CARTESIAN COORDINATES (ANGSTROEM)
---------------------------------
  S    -33.325900   15.390900   14.253100
  C    -34.051600   16.459600   15.517900
  C    -34.524200   17.638900   14.964300
  C    -34.407300   17.690800   13.553000
  C    -33.745000   16.585800   13.019900
  H    -34.704000   18.439700   12.872900
  C    -35.246100   18.718900   15.773100
  H    -34.820700   19.674300   15.411400
  H    -35.040100   18.591300   16.807200
  C    -36.723600   18.725400   15.677100
  H    -36.954100   18.807200   14.570500
  H    -37.062700   17.735600   16.023000
  C    -37.411800   19.854900   16.492300
  H    -37.817700   20.616800   15.839400
  H    -38.277300   19.484900   16.951500
  H    -36.683600   20.284100   17.156300
  S    -31.733400   16.281600   11.090600
  C    -32.211800   16.014800    9.399970
  C    -33.569900   15.980400    9.240910
  C    -34.286000   16.235600   10.462200
  C    -33.432000   16.422500   11.590700
  H    -33.893300   15.879900    8.223320
  C    -35.811900   16.311600   10.589300
  H    -36.055400   16.339200   11.750800
  H    -36.233200   15.412500   10.157400
  C    -36.454000   17.494900    9.857750
  H    -36.004600   17.587000    8.897230
  H    -36.228200   18.433100   10.396100
  C    -38.004400   17.378400    9.887040
  H    -38.405600   18.301700    9.453430
  H    -38.307700   17.205300   10.918400
  H    -38.483900   16.679500    9.275980
  H    -34.415500   16.056200   16.439600
  H    -31.463800   15.966600    8.616970

 Total Charge           Charge          ....    0
 Multiplicity           Mult            ....    1
 Number of Electrons    NEL             ....  134
 Basis Dimension        Dim             ....  322

ORBITAL ENERGIES
----------------

  NO   OCC          E(Eh)            E(eV)
   0   2.0000     -88.968164     -2420.9468
   1   2.0000     -88.963616     -2420.8231
   2   2.0000     -10.334829      -281.2250
   3   2.0000     -10.331835      -281.1435
   4   2.0000     -10.319953      -280.8202
   5   2.0000     -10.316821      -280.7350
   6   2.0000     -10.311475      -280.5895
   7   2.0000     -10.305106      -280.4162
   8   2.0000     -10.296546      -280.1833
   9   2.0000     -10.296374      -280.1786
  10   2.0000     -10.294235      -280.1204
  11   2.0000     -10.288817      -279.9730
  12   2.0000     -10.288564      -279.9661
  13   2.0000     -10.286844      -279.9192
  14   2.0000     -10.275289      -279.6048
  15   2.0000     -10.275109      -279.5999
  16   2.0000      -8.081729      -219.9150
  17   2.0000      -8.077695      -219.8053
  18   2.0000      -6.040313      -164.3653
  19   2.0000      -6.036421      -164.2594
  20   2.0000      -6.036203      -164.2534
  21   2.0000      -6.032439      -164.1510
  22   2.0000      -6.032292      -164.1470
  23   2.0000      -6.028502      -164.0439
  24   2.0000      -0.998033       -27.1579
  25   2.0000      -0.976986       -26.5851
  26   2.0000      -0.917443       -24.9649
  27   2.0000      -0.904592       -24.6152
  28   2.0000      -0.868288       -23.6273
  29   2.0000      -0.848275       -23.0827
  30   2.0000      -0.844188       -22.9715
  31   2.0000      -0.816472       -22.2173
  32   2.0000      -0.785656       -21.3788
  33   2.0000      -0.769336       -20.9347
  34   2.0000      -0.706772       -19.2323
  35   2.0000      -0.696146       -18.9431
  36   2.0000      -0.695664       -18.9300
  37   2.0000      -0.655607       -17.8400
  38   2.0000      -0.644866       -17.5477
  39   2.0000      -0.622055       -16.9270
  40   2.0000      -0.593524       -16.1506
  41   2.0000      -0.573264       -15.5993
  42   2.0000      -0.567942       -15.4545
  43   2.0000      -0.560031       -15.2392
  44   2.0000      -0.531393       -14.4599
  45   2.0000      -0.527393       -14.3511
  46   2.0000      -0.516619       -14.0579
  47   2.0000      -0.513694       -13.9783
  48   2.0000      -0.507666       -13.8143
  49   2.0000      -0.495626       -13.4867
  50   2.0000      -0.491173       -13.3655
  51   2.0000      -0.476780       -12.9738
  52   2.0000      -0.469213       -12.7679
  53   2.0000      -0.465679       -12.6718
  54   2.0000      -0.460527       -12.5316
  55   2.0000      -0.446460       -12.1488
  56   2.0000      -0.445316       -12.1177
  57   2.0000      -0.437796       -11.9130
  58   2.0000      -0.435718       -11.8565
  59   2.0000      -0.420785       -11.4501
  60   2.0000      -0.419623       -11.4185
  61   2.0000      -0.415217       -11.2986
  62   2.0000      -0.413536       -11.2529
  63   2.0000      -0.341847        -9.3021
  64   2.0000      -0.335113        -9.1189
  65   2.0000      -0.328175        -8.9301
  66   2.0000      -0.294763        -8.0209
  67   0.0000       0.032158         0.8751
  68   0.0000       0.055239         1.5031
  69   0.0000       0.112117         3.0508
  70   0.0000       0.118835         3.2337
  71   0.0000       0.126426         3.4402

MULLIKEN ATOMIC CHARGES
-----------------------
   0 S :    0.107820
   1 C :   -0.119768
   2 C :   -0.078240
   3 C :    0.043960
   4 C :   -0.161434
   5 H :   -0.000778
   6 C :    0.072914
   7 H :    0.032702
   8 H :    0.009207
   9 C :   -0.105424
  10 H :    0.029507
  11 H :    0.024125
  12 C :    0.006135
  13 H :    0.027860
  14 H :    0.023608
  15 H :    0.032609
  16 S :    0.093879
  17 C :   -0.105783
  18 C :   -0.017394
  19 C :   -0.011386
  20 C :   -0.176694
  21 H :    0.018792
  22 C :    0.019275
  23 H :    0.056263
  24 H :    0.026817
  25 C :   -0.064418
  26 H :    0.021429
  27 H :    0.025570
  28 C :   -0.024391
  29 H :    0.027524
  30 H :    0.033115
  31 H :    0.018010
  32 H :    0.054249
  33 H :    0.060338
Sum of atomic charges:   -0.0000000

LOEWDIN ATOMIC CHARGES
----------------------
   0 S :    0.380268
   1 C :   -0.183107
   2 C :   -0.052575
   3 C :   -0.056669
   4 C :   -0.183294
   5 H :    0.026545
   6 C :   -0.033137
   7 H :    0.033333
   8 H :    0.022489
   9 C :   -0.044374
  10 H :    0.025275
  11 H :    0.022745
  12 C :   -0.057646
  13 H :    0.029521
  14 H :    0.022631
  15 H :    0.025222
  16 S :    0.380769
  17 C :   -0.168074
  18 C :   -0.075239
  19 C :   -0.050712
  20 C :   -0.198342
  21 H :    0.033571
  22 C :   -0.040864
  23 H :    0.043964
  24 H :    0.027598
  25 C :   -0.036886
  26 H :    0.017277
  27 H :    0.025459
  28 C :   -0.061716
  29 H :    0.029107
  30 H :    0.028134
  31 H :    0.015037
  32 H :    0.025380
  33 H :    0.028311

  Mayer bond orders larger than 0.100000
B(  0-S ,  1-C ) :   1.1196 B(  0-S ,  4-C ) :   1.1552 B(  1-C ,  2-C ) :   1.6272
B(  1-C , 32-H ) :   0.9641 B(  2-C ,  3-C ) :   1.2197 B(  2-C ,  6-C ) :   1.0277
B(  3-C ,  4-C ) :   1.5704 B(  3-C ,  5-H ) :   1.0029 B(  4-C , 20-C ) :   1.0380
B(  6-C ,  7-H ) :   0.9353 B(  6-C ,  8-H ) :   0.9341 B(  6-C ,  9-C ) :   1.0793
B(  9-C , 10-H ) :   0.9588 B(  9-C , 11-H ) :   0.9575 B(  9-C , 12-C ) :   1.0611
B( 12-C , 13-H ) :   0.9734 B( 12-C , 14-H ) :   0.9753 B( 12-C , 15-H ) :   0.9786
B( 16-S , 17-C ) :   1.1513 B( 16-S , 20-C ) :   1.1368 B( 17-C , 18-C ) :   1.6254
B( 17-C , 33-H ) :   0.9658 B( 18-C , 19-C ) :   1.2149 B( 18-C , 21-H ) :   0.9949
B( 19-C , 20-C ) :   1.5909 B( 19-C , 22-C ) :   1.0397 B( 22-C , 23-H ) :   0.9309
B( 22-C , 24-H ) :   0.9374 B( 22-C , 25-C ) :   1.0617 B( 25-C , 26-H ) :   0.9588
B( 25-C , 27-H ) :   0.9527 B( 25-C , 28-C ) :   1.0757 B( 28-C , 29-H ) :   0.9739
B( 28-C , 30-H ) :   0.9736 B( 28-C , 31-H ) :   0.9770

Dispersion correction           -0.013964502
FINAL SINGLE POINT ENERGY     -1339.873010089332

DIPOLE MOMENT
-------------
                                X             Y             Z
Electronic contribution:     28.32202     -15.37913      -2.75333
Nuclear contribution   :    -29.03514      15.73419       2.56627
                        -----------------------------------------
Total Dipole Moment    :     -0.71312       0.35506      -0.18706
                        -----------------------------------------
Magnitude (a.u.)       :      0.81829
Magnitude (Debye)      :      2.07992

Rotational constants in cm-1:     0.016921     0.008872     0.006388
Rotational constants in MHz :   507.278430   265.985521   191.500596

                             ****ORCA TERMINATED NORMALLY****
TOTAL RUN TIME: 0 days 0 hours 0 minutes 21 seconds 387 msec
