                         Program Version 4.2.1 -  RELEASE  -
|  1> ! wB97X-D3 SP def2-SVP
|  2> %pal
|  3> nprocs 24
|  4> end
|  5>
|  6> * xyz 0 1
|  7> S 	 39.3017 	 -26.4277 	 -124.637
|  8> C 	 38.5744 	 -24.854 	 -124.357
|  9> C 	 39.4627 	 -23.8062 	 -124.617
| 10> C 	 40.766 	 -24.3197 	 -124.949
| 11> C 	 40.874 	 -25.7423 	 -124.993
| 12> H 	 41.5856 	 -23.713 	 -125.158
| 13> C 	 39.1626 	 -22.3061 	 -124.438
| 14> H 	 39.1221 	 -22.0482 	 -123.379
| 15> H 	 38.0511 	 -22.1073 	 -124.597
| 16> C 	 40.0867 	 -21.2403 	 -125.143
| 17> H 	 40.2344 	 -21.6328 	 -126.168
| 18> H 	 39.7412 	 -20.2898 	 -125.258
| 19> C 	 41.4613 	 -21.0639 	 -124.494
| 20> H 	 42.2171 	 -20.5974 	 -125.164
| 21> H 	 41.3631 	 -20.3644 	 -123.686
| 22> H 	 41.8461 	 -21.9467 	 -124.087
| 23> S 	 41.7373 	 -27.6367 	 -126.653
| 24> C 	 43.37 	 -28.2067 	 -126.557
| 25> C 	 44.1315 	 -27.4412 	 -125.732
| 26> C 	 43.3231 	 -26.4346 	 -125.063
| 27> C 	 42.0015 	 -26.4337 	 -125.42
| 28> H 	 45.1775 	 -27.4743 	 -125.653
| 29> C 	 44.0118 	 -25.4909 	 -124.114
| 30> H 	 43.2671 	 -24.9049 	 -123.652
| 31> H 	 44.6943 	 -25.0085 	 -124.811
| 32> C 	 44.9241 	 -26.0483 	 -122.965
| 33> H 	 45.7148 	 -26.7905 	 -123.253
| 34> H 	 44.2567 	 -26.6648 	 -122.312
| 35> C 	 45.573 	 -24.8688 	 -122.135
| 36> H 	 44.829 	 -24.1237 	 -121.9
| 37> H 	 46.3108 	 -24.421 	 -122.774
| 38> H 	 46.0475 	 -25.3255 	 -121.334
| 39> H 	 37.5151 	 -24.7897 	 -124.014
| 40> H 	 43.8163 	 -28.75 	 -127.379
| 41> *
| 42>
| 43>                          ****END OF INPUT****

CARTESIAN COORDINATES (ANGSTROEM)
---------------------------------
  S     39.301700  -26.427700  -124.637000
  C     38.574400  -24.854000  -124.357000
  C     39.462700  -23.806200  -124.617000
  C     40.766000  -24.319700  -124.949000
  C     40.874000  -25.742300  -124.993000
  H     41.585600  -23.713000  -125.158000
  C     39.162600  -22.306100  -124.438000
  H     39.122100  -22.048200  -123.379000
  H     38.051100  -22.107300  -124.597000
  C     40.086700  -21.240300  -125.143000
  H     40.234400  -21.632800  -126.168000
  H     39.741200  -20.289800  -125.258000
  C     41.461300  -21.063900  -124.494000
  H     42.217100  -20.597400  -125.164000
  H     41.363100  -20.364400  -123.686000
  H     41.846100  -21.946700  -124.087000
  S     41.737300  -27.636700  -126.653000
  C     43.370000  -28.206700  -126.557000
  C     44.131500  -27.441200  -125.732000
  C     43.323100  -26.434600  -125.063000
  C     42.001500  -26.433700  -125.420000
  H     45.177500  -27.474300  -125.653000
  C     44.011800  -25.490900  -124.114000
  H     43.267100  -24.904900  -123.652000
  H     44.694300  -25.008500  -124.811000
  C     44.924100  -26.048300  -122.965000
  H     45.714800  -26.790500  -123.253000
  H     44.256700  -26.664800  -122.312000
  C     45.573000  -24.868800  -122.135000
  H     44.829000  -24.123700  -121.900000
  H     46.310800  -24.421000  -122.774000
  H     46.047500  -25.325500  -121.334000
  H     37.515100  -24.789700  -124.014000
  H     43.816300  -28.750000  -127.379000

 Total Charge           Charge          ....    0
 Multiplicity           Mult            ....    1
 Number of Electrons    NEL             ....  134
 Basis Dimension        Dim             ....  322

ORBITAL ENERGIES
----------------

  NO   OCC          E(Eh)            E(eV)
   0   2.0000     -88.970304     -2421.0051
   1   2.0000     -88.959196     -2420.7028
   2   2.0000     -10.329683      -281.0850
   3   2.0000     -10.320282      -280.8292
   4   2.0000     -10.319638      -280.8116
   5   2.0000     -10.312104      -280.6066
   6   2.0000     -10.310943      -280.5750
   7   2.0000     -10.304578      -280.4018
   8   2.0000     -10.300716      -280.2967
   9   2.0000     -10.295177      -280.1460
  10   2.0000     -10.294146      -280.1180
  11   2.0000     -10.289967      -280.0042
  12   2.0000     -10.288790      -279.9722
  13   2.0000     -10.286905      -279.9209
  14   2.0000     -10.274824      -279.5922
  15   2.0000     -10.274371      -279.5799
  16   2.0000      -8.084433      -219.9886
  17   2.0000      -8.075009      -219.7322
  18   2.0000      -6.042960      -164.4373
  19   2.0000      -6.038879      -164.3263
  20   2.0000      -6.035357      -164.2304
  21   2.0000      -6.033588      -164.1823
  22   2.0000      -6.029379      -164.0677
  23   2.0000      -6.025591      -163.9647
  24   2.0000      -1.010797       -27.5052
  25   2.0000      -0.981737       -26.7144
  26   2.0000      -0.908595       -24.7241
  27   2.0000      -0.904500       -24.6127
  28   2.0000      -0.879252       -23.9257
  29   2.0000      -0.851707       -23.1761
  30   2.0000      -0.845046       -22.9949
  31   2.0000      -0.814705       -22.1693
  32   2.0000      -0.784902       -21.3583
  33   2.0000      -0.772091       -21.0097
  34   2.0000      -0.713977       -19.4283
  35   2.0000      -0.701897       -19.0996
  36   2.0000      -0.696372       -18.9492
  37   2.0000      -0.667438       -18.1619
  38   2.0000      -0.642643       -17.4872
  39   2.0000      -0.624493       -16.9933
  40   2.0000      -0.597156       -16.2494
  41   2.0000      -0.569699       -15.5023
  42   2.0000      -0.564545       -15.3620
  43   2.0000      -0.550501       -14.9799
  44   2.0000      -0.539425       -14.6785
  45   2.0000      -0.531047       -14.4505
  46   2.0000      -0.520517       -14.1640
  47   2.0000      -0.508327       -13.8323
  48   2.0000      -0.503636       -13.7046
  49   2.0000      -0.503064       -13.6891
  50   2.0000      -0.498176       -13.5561
  51   2.0000      -0.487904       -13.2765
  52   2.0000      -0.471000       -12.8166
  53   2.0000      -0.465313       -12.6618
  54   2.0000      -0.458689       -12.4816
  55   2.0000      -0.449191       -12.2231
  56   2.0000      -0.448753       -12.2112
  57   2.0000      -0.434877       -11.8336
  58   2.0000      -0.429259       -11.6807
  59   2.0000      -0.427289       -11.6271
  60   2.0000      -0.421328       -11.4649
  61   2.0000      -0.417580       -11.3629
  62   2.0000      -0.410456       -11.1691
  63   2.0000      -0.353148        -9.6096
  64   2.0000      -0.330589        -8.9958
  65   2.0000      -0.324756        -8.8371
  66   2.0000      -0.286275        -7.7899
  67   0.0000       0.027763         0.7555
  68   0.0000       0.067854         1.8464
  69   0.0000       0.108737         2.9589
  70   0.0000       0.121241         3.2991
  71   0.0000       0.130863         3.5610

MULLIKEN ATOMIC CHARGES
-----------------------
   0 S :    0.129779
   1 C :   -0.164835
   2 C :   -0.029658
   3 C :    0.021807
   4 C :   -0.155113
   5 H :   -0.006961
   6 C :    0.024130
   7 H :    0.034005
   8 H :    0.029508
   9 C :   -0.034737
  10 H :    0.036023
  11 H :    0.011407
  12 C :   -0.053924
  13 H :    0.039059
  14 H :    0.019186
  15 H :    0.020775
  16 S :    0.089726
  17 C :   -0.066563
  18 C :   -0.020752
  19 C :   -0.048797
  20 C :   -0.157182
  21 H :    0.002578
  22 C :    0.077909
  23 H :    0.018435
  24 H :    0.034903
  25 C :   -0.140727
  26 H :    0.034609
  27 H :    0.034434
  28 C :    0.000917
  29 H :    0.033905
  30 H :    0.023608
  31 H :    0.028881
  32 H :    0.069530
  33 H :    0.064133
Sum of atomic charges:    0.0000000

LOEWDIN ATOMIC CHARGES
----------------------
   0 S :    0.416274
   1 C :   -0.204982
   2 C :   -0.058312
   3 C :   -0.055682
   4 C :   -0.201482
   5 H :    0.016927
   6 C :   -0.041473
   7 H :    0.032312
   8 H :    0.040088
   9 C :   -0.034307
  10 H :    0.028329
  11 H :    0.014957
  12 C :   -0.062521
  13 H :    0.033357
  14 H :    0.022175
  15 H :    0.011924
  16 S :    0.407146
  17 C :   -0.187235
  18 C :   -0.060938
  19 C :   -0.051763
  20 C :   -0.205637
  21 H :    0.022982
  22 C :   -0.031766
  23 H :    0.023590
  24 H :    0.036490
  25 C :   -0.043280
  26 H :    0.023170
  27 H :    0.024127
  28 C :   -0.050631
  29 H :    0.025721
  30 H :    0.023142
  31 H :    0.019686
  32 H :    0.036790
  33 H :    0.030823

  Mayer bond orders larger than 0.100000
B(  0-S ,  1-C ) :   1.1523 B(  0-S ,  4-C ) :   1.1536 B(  1-C ,  2-C ) :   1.5719
B(  1-C ,  4-C ) :   0.1049 B(  1-C , 32-H ) :   0.9655 B(  2-C ,  3-C ) :   1.2789
B(  2-C ,  6-C ) :   1.0132 B(  3-C ,  4-C ) :   1.5110 B(  3-C ,  5-H ) :   0.9937
B(  4-C , 20-C ) :   1.1083 B(  6-C ,  7-H ) :   0.9414 B(  6-C ,  8-H ) :   0.9404
B(  6-C ,  9-C ) :   1.0548 B(  9-C , 10-H ) :   0.9635 B(  9-C , 11-H ) :   0.9595
B(  9-C , 12-C ) :   1.0673 B( 12-C , 13-H ) :   0.9729 B( 12-C , 14-H ) :   0.9716
B( 12-C , 15-H ) :   0.9787 B( 16-S , 17-C ) :   1.1529 B( 16-S , 20-C ) :   1.1175
B( 17-C , 18-C ) :   1.6163 B( 17-C , 33-H ) :   0.9587 B( 18-C , 19-C ) :   1.2266
B( 18-C , 21-H ) :   0.9969 B( 19-C , 20-C ) :   1.6044 B( 19-C , 22-C ) :   1.0475
B( 22-C , 23-H ) :   0.9313 B( 22-C , 24-H ) :   0.9306 B( 22-C , 25-C ) :   1.0608
B( 25-C , 26-H ) :   0.9555 B( 25-C , 27-H ) :   0.9581 B( 25-C , 28-C ) :   1.0720
B( 28-C , 29-H ) :   0.9768 B( 28-C , 30-H ) :   0.9771 B( 28-C , 31-H ) :   0.9746

Dispersion correction           -0.013940717
FINAL SINGLE POINT ENERGY     -1339.858326311713

DIPOLE MOMENT
-------------
                                X             Y             Z
Electronic contribution:    -14.79927     -23.36501     -11.99566
Nuclear contribution   :     15.21065      24.04716      12.18517
                        -----------------------------------------
Total Dipole Moment    :      0.41138       0.68215       0.18951
                        -----------------------------------------
Magnitude (a.u.)       :      0.81883
Magnitude (Debye)      :      2.08130

Rotational constants in cm-1:     0.015326     0.009830     0.006996
Rotational constants in MHz :   459.468751   294.691945   209.744305

                             ****ORCA TERMINATED NORMALLY****
TOTAL RUN TIME: 0 days 0 hours 0 minutes 20 seconds 563 msec
