                         Program Version 4.2.1 -  RELEASE  -
|  1> ! wB97X-D3 SP def2-SVP
|  2> %pal
|  3> nprocs 24
|  4> end
|  5>
|  6> * xyz 0 1
|  7> S 	 -64.7029 	 20.1702 	 -117.627
|  8> C 	 -63.0503 	 19.84 	 -118.043
|  9> C 	 -62.1606 	 20.2387 	 -117.093
| 10> C 	 -62.8566 	 20.6493 	 -115.899
| 11> C 	 -64.2788 	 20.7279 	 -116.021
| 12> H 	 -62.367 	 20.9343 	 -114.973
| 13> C 	 -60.6962 	 20.3284 	 -117.234
| 14> H 	 -60.376 	 20.2379 	 -118.29
| 15> H 	 -60.1366 	 19.5019 	 -116.821
| 16> C 	 -59.9316 	 21.652 	 -116.657
| 17> H 	 -60.0415 	 21.5563 	 -115.532
| 18> H 	 -58.8826 	 21.6181 	 -116.723
| 19> C 	 -60.3779 	 23.0561 	 -117.217
| 20> H 	 -60.6013 	 22.9661 	 -118.27
| 21> H 	 -61.2298 	 23.4141 	 -116.651
| 22> H 	 -59.5996 	 23.8073 	 -117.099
| 23> S 	 -66.5776 	 20.0393 	 -114.739
| 24> C 	 -67.1976 	 20.8624 	 -113.343
| 25> C 	 -66.3447 	 21.8679 	 -113.008
| 26> C 	 -65.2313 	 22.0855 	 -113.974
| 27> C 	 -65.2088 	 21.102 	 -114.946
| 28> H 	 -66.4296 	 22.408 	 -112.069
| 29> C 	 -64.1896 	 23.1742 	 -113.768
| 30> H 	 -63.2274 	 22.7381 	 -113.651
| 31> H 	 -64.5256 	 23.7007 	 -112.838
| 32> C 	 -64.0226 	 24.2165 	 -114.852
| 33> H 	 -65.0045 	 24.5807 	 -115.127
| 34> H 	 -63.6149 	 23.6325 	 -115.69
| 35> C 	 -63.1759 	 25.3672 	 -114.361
| 36> H 	 -63.6118 	 26.0818 	 -113.617
| 37> H 	 -62.9966 	 25.861 	 -115.347
| 38> H 	 -62.218 	 24.9584 	 -113.944
| 39> H 	 -62.8622 	 19.4649 	 -119.05
| 40> H 	 -68.0813 	 20.5888 	 -112.864
| 41> *
| 42>
| 43>                          ****END OF INPUT****

CARTESIAN COORDINATES (ANGSTROEM)
---------------------------------
  S    -64.702900   20.170200  -117.627000
  C    -63.050300   19.840000  -118.043000
  C    -62.160600   20.238700  -117.093000
  C    -62.856600   20.649300  -115.899000
  C    -64.278800   20.727900  -116.021000
  H    -62.367000   20.934300  -114.973000
  C    -60.696200   20.328400  -117.234000
  H    -60.376000   20.237900  -118.290000
  H    -60.136600   19.501900  -116.821000
  C    -59.931600   21.652000  -116.657000
  H    -60.041500   21.556300  -115.532000
  H    -58.882600   21.618100  -116.723000
  C    -60.377900   23.056100  -117.217000
  H    -60.601300   22.966100  -118.270000
  H    -61.229800   23.414100  -116.651000
  H    -59.599600   23.807300  -117.099000
  S    -66.577600   20.039300  -114.739000
  C    -67.197600   20.862400  -113.343000
  C    -66.344700   21.867900  -113.008000
  C    -65.231300   22.085500  -113.974000
  C    -65.208800   21.102000  -114.946000
  H    -66.429600   22.408000  -112.069000
  C    -64.189600   23.174200  -113.768000
  H    -63.227400   22.738100  -113.651000
  H    -64.525600   23.700700  -112.838000
  C    -64.022600   24.216500  -114.852000
  H    -65.004500   24.580700  -115.127000
  H    -63.614900   23.632500  -115.690000
  C    -63.175900   25.367200  -114.361000
  H    -63.611800   26.081800  -113.617000
  H    -62.996600   25.861000  -115.347000
  H    -62.218000   24.958400  -113.944000
  H    -62.862200   19.464900  -119.050000
  H    -68.081300   20.588800  -112.864000

 Total Charge           Charge          ....    0
 Multiplicity           Mult            ....    1
 Number of Electrons    NEL             ....  134
 Basis Dimension        Dim             ....  322

ORBITAL ENERGIES
----------------

  NO   OCC          E(Eh)            E(eV)
   0   2.0000     -88.968898     -2420.9668
   1   2.0000     -88.958684     -2420.6889
   2   2.0000     -10.338071      -281.3132
   3   2.0000     -10.328861      -281.0626
   4   2.0000     -10.316308      -280.7210
   5   2.0000     -10.312913      -280.6286
   6   2.0000     -10.307193      -280.4730
   7   2.0000     -10.304623      -280.4030
   8   2.0000     -10.301056      -280.3060
   9   2.0000     -10.299722      -280.2697
  10   2.0000     -10.298124      -280.2262
  11   2.0000     -10.297354      -280.2052
  12   2.0000     -10.286799      -279.9180
  13   2.0000     -10.285900      -279.8936
  14   2.0000     -10.279805      -279.7277
  15   2.0000     -10.279720      -279.7254
  16   2.0000      -8.083740      -219.9697
  17   2.0000      -8.074320      -219.7134
  18   2.0000      -6.042245      -164.4178
  19   2.0000      -6.038116      -164.3055
  20   2.0000      -6.034612      -164.2101
  21   2.0000      -6.032891      -164.1633
  22   2.0000      -6.028565      -164.0456
  23   2.0000      -6.025074      -163.9506
  24   2.0000      -1.006004       -27.3748
  25   2.0000      -0.985749       -26.8236
  26   2.0000      -0.914477       -24.8842
  27   2.0000      -0.903720       -24.5915
  28   2.0000      -0.869653       -23.6645
  29   2.0000      -0.849506       -23.1162
  30   2.0000      -0.842612       -22.9286
  31   2.0000      -0.815583       -22.1931
  32   2.0000      -0.782984       -21.3061
  33   2.0000      -0.772419       -21.0186
  34   2.0000      -0.711825       -19.3697
  35   2.0000      -0.699384       -19.0312
  36   2.0000      -0.686369       -18.6770
  37   2.0000      -0.665951       -18.1215
  38   2.0000      -0.642903       -17.4943
  39   2.0000      -0.622784       -16.9468
  40   2.0000      -0.599998       -16.3268
  41   2.0000      -0.570416       -15.5218
  42   2.0000      -0.566091       -15.4041
  43   2.0000      -0.545384       -14.8406
  44   2.0000      -0.538561       -14.6550
  45   2.0000      -0.523471       -14.2444
  46   2.0000      -0.519296       -14.1308
  47   2.0000      -0.514152       -13.9908
  48   2.0000      -0.504867       -13.7381
  49   2.0000      -0.500670       -13.6239
  50   2.0000      -0.494183       -13.4474
  51   2.0000      -0.487238       -13.2584
  52   2.0000      -0.472620       -12.8607
  53   2.0000      -0.465425       -12.6649
  54   2.0000      -0.462382       -12.5821
  55   2.0000      -0.448895       -12.2151
  56   2.0000      -0.443685       -12.0733
  57   2.0000      -0.436692       -11.8830
  58   2.0000      -0.428031       -11.6473
  59   2.0000      -0.427264       -11.6265
  60   2.0000      -0.414861       -11.2889
  61   2.0000      -0.411372       -11.1940
  62   2.0000      -0.406837       -11.0706
  63   2.0000      -0.350853        -9.5472
  64   2.0000      -0.330373        -8.9899
  65   2.0000      -0.323727        -8.8091
  66   2.0000      -0.294970        -8.0265
  67   0.0000       0.026904         0.7321
  68   0.0000       0.077577         2.1110
  69   0.0000       0.108637         2.9562
  70   0.0000       0.114401         3.1130
  71   0.0000       0.123773         3.3680

MULLIKEN ATOMIC CHARGES
-----------------------
   0 S :    0.119199
   1 C :   -0.143144
   2 C :   -0.017908
   3 C :    0.010723
   4 C :   -0.146267
   5 H :    0.011809
   6 C :    0.046903
   7 H :    0.020222
   8 H :    0.037777
   9 C :   -0.114051
  10 H :    0.027741
  11 H :    0.019898
  12 C :   -0.033961
  13 H :    0.037549
  14 H :    0.034920
  15 H :    0.032694
  16 S :    0.086048
  17 C :   -0.059753
  18 C :   -0.033713
  19 C :   -0.055729
  20 C :   -0.143397
  21 H :    0.023977
  22 C :    0.056001
  23 H :    0.018613
  24 H :    0.013190
  25 C :   -0.082292
  26 H :    0.023558
  27 H :    0.045796
  28 C :   -0.061394
  29 H :    0.052135
  30 H :    0.045396
  31 H :    0.030982
  32 H :    0.056205
  33 H :    0.040272
Sum of atomic charges:    0.0000000

LOEWDIN ATOMIC CHARGES
----------------------
   0 S :    0.415547
   1 C :   -0.191244
   2 C :   -0.071168
   3 C :   -0.055941
   4 C :   -0.201244
   5 H :    0.026957
   6 C :   -0.035306
   7 H :    0.031169
   8 H :    0.034826
   9 C :   -0.040729
  10 H :    0.024071
  11 H :    0.016969
  12 C :   -0.064258
  13 H :    0.027015
  14 H :    0.024909
  15 H :    0.027473
  16 S :    0.405828
  17 C :   -0.176186
  18 C :   -0.071368
  19 C :   -0.055355
  20 C :   -0.199228
  21 H :    0.030650
  22 C :   -0.035392
  23 H :    0.021555
  24 H :    0.030531
  25 C :   -0.043255
  26 H :    0.022852
  27 H :    0.026916
  28 C :   -0.071652
  29 H :    0.032292
  30 H :    0.036496
  31 H :    0.026180
  32 H :    0.029415
  33 H :    0.020678

  Mayer bond orders larger than 0.100000
B(  0-S ,  1-C ) :   1.1511 B(  0-S ,  4-C ) :   1.1609 B(  1-C ,  2-C ) :   1.5894
B(  1-C , 32-H ) :   0.9663 B(  2-C ,  3-C ) :   1.2475 B(  2-C ,  6-C ) :   1.0330
B(  3-C ,  4-C ) :   1.5429 B(  3-C ,  5-H ) :   0.9906 B(  4-C , 20-C ) :   1.0517
B(  6-C ,  7-H ) :   0.9445 B(  6-C ,  8-H ) :   0.9340 B(  6-C ,  9-C ) :   1.0646
B(  9-C , 10-H ) :   0.9571 B(  9-C , 11-H ) :   0.9622 B(  9-C , 12-C ) :   1.0583
B( 12-C , 13-H ) :   0.9778 B( 12-C , 14-H ) :   0.9767 B( 12-C , 15-H ) :   0.9761
B( 16-S , 17-C ) :   1.1495 B( 16-S , 20-C ) :   1.1393 B( 17-C , 18-C ) :   1.6119
B( 17-C , 33-H ) :   0.9791 B( 18-C , 19-C ) :   1.2308 B( 18-C , 21-H ) :   0.9864
B( 19-C , 20-C ) :   1.6032 B( 19-C , 22-C ) :   1.0456 B( 22-C , 23-H ) :   0.9301
B( 22-C , 24-H ) :   0.9326 B( 22-C , 25-C ) :   1.0699 B( 25-C , 26-H ) :   0.9492
B( 25-C , 27-H ) :   0.9500 B( 25-C , 28-C ) :   1.0810 B( 28-C , 29-H ) :   0.9723
B( 28-C , 30-H ) :   0.9735 B( 28-C , 31-H ) :   0.9699

Dispersion correction           -0.015322484
FINAL SINGLE POINT ENERGY     -1339.875372112407

DIPOLE MOMENT
-------------
                                X             Y             Z
Electronic contribution:    -23.51348     -20.71544      -2.72169
Nuclear contribution   :     24.08860      21.05210       2.89778
                        -----------------------------------------
Total Dipole Moment    :      0.57512       0.33665       0.17609
                        -----------------------------------------
Magnitude (a.u.)       :      0.68927
Magnitude (Debye)      :      1.75200

Rotational constants in cm-1:     0.017306     0.010476     0.007230
Rotational constants in MHz :   518.814261   314.066159   216.743846

                             ****ORCA TERMINATED NORMALLY****
TOTAL RUN TIME: 0 days 0 hours 0 minutes 22 seconds 620 msec
