                         Program Version 4.2.1 -  RELEASE  -
|  1> ! wB97X-D3 SP def2-SVP
|  2> %pal
|  3> nprocs 24
|  4> end
|  5>
|  6> * xyz 0 1
|  7> S 	 -63.186 	 14.7076 	 -122.321
|  8> C 	 -62.063 	 14.2355 	 -121.117
|  9> C 	 -62.6279 	 13.3427 	 -120.183
| 10> C 	 -63.9867 	 12.9942 	 -120.511
| 11> C 	 -64.524 	 13.7786 	 -121.556
| 12> H 	 -64.5023 	 12.2753 	 -119.963
| 13> C 	 -61.8188 	 12.7399 	 -119.079
| 14> H 	 -62.5486 	 12.5197 	 -118.272
| 15> H 	 -61.2104 	 13.6162 	 -118.773
| 16> C 	 -60.9957 	 11.4704 	 -119.352
| 17> H 	 -61.7048 	 10.7519 	 -119.702
| 18> H 	 -60.3088 	 11.6249 	 -120.195
| 19> C 	 -60.3396 	 10.9469 	 -118.1
| 20> H 	 -61.0157 	 10.664 	 -117.238
| 21> H 	 -59.8773 	 10.0012 	 -118.31
| 22> H 	 -59.6179 	 11.64 	 -117.666
| 23> S 	 -65.8655 	 12.2092 	 -123.311
| 24> C 	 -67.6247 	 12.3866 	 -123.498
| 25> C 	 -68.0814 	 13.4246 	 -122.659
| 26> C 	 -67.0832 	 14.0456 	 -121.877
| 27> C 	 -65.7993 	 13.5451 	 -122.158
| 28> H 	 -69.1454 	 13.7561 	 -122.658
| 29> C 	 -67.3554 	 15.2949 	 -121.133
| 30> H 	 -66.9159 	 15.1791 	 -120.103
| 31> H 	 -68.4012 	 15.2821 	 -120.958
| 32> C 	 -67.0416 	 16.6864 	 -121.832
| 33> H 	 -67.5636 	 16.8098 	 -122.78
| 34> H 	 -65.9848 	 16.8211 	 -122.125
| 35> C 	 -67.5189 	 17.9444 	 -121.002
| 36> H 	 -67.1707 	 17.8769 	 -119.982
| 37> H 	 -68.5916 	 18.0339 	 -120.931
| 38> H 	 -67.1453 	 18.9638 	 -121.307
| 39> H 	 -60.9938 	 14.4586 	 -121.117
| 40> H 	 -68.3559 	 11.6902 	 -123.889
| 41> *
| 42>
| 43>                          ****END OF INPUT****

CARTESIAN COORDINATES (ANGSTROEM)
---------------------------------
  S    -63.186000   14.707600  -122.321000
  C    -62.063000   14.235500  -121.117000
  C    -62.627900   13.342700  -120.183000
  C    -63.986700   12.994200  -120.511000
  C    -64.524000   13.778600  -121.556000
  H    -64.502300   12.275300  -119.963000
  C    -61.818800   12.739900  -119.079000
  H    -62.548600   12.519700  -118.272000
  H    -61.210400   13.616200  -118.773000
  C    -60.995700   11.470400  -119.352000
  H    -61.704800   10.751900  -119.702000
  H    -60.308800   11.624900  -120.195000
  C    -60.339600   10.946900  -118.100000
  H    -61.015700   10.664000  -117.238000
  H    -59.877300   10.001200  -118.310000
  H    -59.617900   11.640000  -117.666000
  S    -65.865500   12.209200  -123.311000
  C    -67.624700   12.386600  -123.498000
  C    -68.081400   13.424600  -122.659000
  C    -67.083200   14.045600  -121.877000
  C    -65.799300   13.545100  -122.158000
  H    -69.145400   13.756100  -122.658000
  C    -67.355400   15.294900  -121.133000
  H    -66.915900   15.179100  -120.103000
  H    -68.401200   15.282100  -120.958000
  C    -67.041600   16.686400  -121.832000
  H    -67.563600   16.809800  -122.780000
  H    -65.984800   16.821100  -122.125000
  C    -67.518900   17.944400  -121.002000
  H    -67.170700   17.876900  -119.982000
  H    -68.591600   18.033900  -120.931000
  H    -67.145300   18.963800  -121.307000
  H    -60.993800   14.458600  -121.117000
  H    -68.355900   11.690200  -123.889000

 Total Charge           Charge          ....    0
 Multiplicity           Mult            ....    1
 Number of Electrons    NEL             ....  134
 Basis Dimension        Dim             ....  322

ORBITAL ENERGIES
----------------

  NO   OCC          E(Eh)            E(eV)
   0   2.0000     -88.969364     -2420.9795
   1   2.0000     -88.968254     -2420.9493
   2   2.0000     -10.331788      -281.1422
   3   2.0000     -10.325830      -280.9801
   4   2.0000     -10.320366      -280.8314
   5   2.0000     -10.315145      -280.6894
   6   2.0000     -10.300606      -280.2937
   7   2.0000     -10.299534      -280.2646
   8   2.0000     -10.297016      -280.1960
   9   2.0000     -10.296615      -280.1851
  10   2.0000     -10.292960      -280.0857
  11   2.0000     -10.292471      -280.0724
  12   2.0000     -10.291901      -280.0569
  13   2.0000     -10.287042      -279.9247
  14   2.0000     -10.280552      -279.7480
  15   2.0000     -10.278579      -279.6944
  16   2.0000      -8.083474      -219.9625
  17   2.0000      -8.081926      -219.9204
  18   2.0000      -6.041924      -164.4091
  19   2.0000      -6.040451      -164.3690
  20   2.0000      -6.037969      -164.3015
  21   2.0000      -6.036381      -164.2583
  22   2.0000      -6.034436      -164.2053
  23   2.0000      -6.032919      -164.1641
  24   2.0000      -1.000761       -27.2321
  25   2.0000      -0.977881       -26.6095
  26   2.0000      -0.912520       -24.8309
  27   2.0000      -0.898423       -24.4473
  28   2.0000      -0.870181       -23.6788
  29   2.0000      -0.852343       -23.1934
  30   2.0000      -0.845415       -23.0049
  31   2.0000      -0.810681       -22.0597
  32   2.0000      -0.777983       -21.1700
  33   2.0000      -0.763160       -20.7666
  34   2.0000      -0.711111       -19.3503
  35   2.0000      -0.703124       -19.1330
  36   2.0000      -0.696346       -18.9485
  37   2.0000      -0.661991       -18.0137
  38   2.0000      -0.642948       -17.4955
  39   2.0000      -0.613822       -16.7029
  40   2.0000      -0.586724       -15.9656
  41   2.0000      -0.570303       -15.5187
  42   2.0000      -0.558132       -15.1875
  43   2.0000      -0.550392       -14.9769
  44   2.0000      -0.528817       -14.3899
  45   2.0000      -0.519161       -14.1271
  46   2.0000      -0.510694       -13.8967
  47   2.0000      -0.507466       -13.8089
  48   2.0000      -0.503893       -13.7116
  49   2.0000      -0.502611       -13.6767
  50   2.0000      -0.497030       -13.5249
  51   2.0000      -0.475696       -12.9443
  52   2.0000      -0.466204       -12.6861
  53   2.0000      -0.462051       -12.5730
  54   2.0000      -0.455978       -12.4078
  55   2.0000      -0.445709       -12.1283
  56   2.0000      -0.444772       -12.1029
  57   2.0000      -0.435939       -11.8625
  58   2.0000      -0.433921       -11.8076
  59   2.0000      -0.422396       -11.4940
  60   2.0000      -0.421513       -11.4700
  61   2.0000      -0.419102       -11.4044
  62   2.0000      -0.414569       -11.2810
  63   2.0000      -0.339313        -9.2332
  64   2.0000      -0.328619        -8.9422
  65   2.0000      -0.311148        -8.4668
  66   2.0000      -0.306295        -8.3347
  67   0.0000       0.036792         1.0012
  68   0.0000       0.039363         1.0711
  69   0.0000       0.113250         3.0817
  70   0.0000       0.120360         3.2752
  71   0.0000       0.125130         3.4050

MULLIKEN ATOMIC CHARGES
-----------------------
   0 S :    0.122069
   1 C :   -0.118297
   2 C :   -0.115686
   3 C :    0.072357
   4 C :   -0.168832
   5 H :   -0.006322
   6 C :    0.020441
   7 H :    0.023056
   8 H :    0.032311
   9 C :   -0.020679
  10 H :    0.017039
  11 H :    0.028785
  12 C :   -0.048864
  13 H :    0.032157
  14 H :    0.029351
  15 H :    0.033632
  16 S :    0.121197
  17 C :   -0.091825
  18 C :   -0.071582
  19 C :   -0.019497
  20 C :   -0.179396
  21 H :    0.034238
  22 C :    0.084264
  23 H :    0.040173
  24 H :   -0.000515
  25 C :   -0.048643
  26 H :    0.029202
  27 H :    0.035214
  28 C :   -0.077446
  29 H :    0.023696
  30 H :    0.028494
  31 H :    0.039586
  32 H :    0.055769
  33 H :    0.064553
Sum of atomic charges:   -0.0000000

LOEWDIN ATOMIC CHARGES
----------------------
   0 S :    0.413056
   1 C :   -0.211537
   2 C :   -0.069987
   3 C :   -0.036736
   4 C :   -0.200691
   5 H :    0.021696
   6 C :   -0.041546
   7 H :    0.032216
   8 H :    0.034366
   9 C :   -0.038270
  10 H :    0.023681
  11 H :    0.027135
  12 C :   -0.069596
  13 H :    0.032572
  14 H :    0.024995
  15 H :    0.025104
  16 S :    0.407559
  17 C :   -0.191728
  18 C :   -0.073593
  19 C :   -0.060253
  20 C :   -0.198282
  21 H :    0.037111
  22 C :   -0.033735
  23 H :    0.041105
  24 H :    0.023631
  25 C :   -0.034428
  26 H :    0.025539
  27 H :    0.025154
  28 C :   -0.075054
  29 H :    0.020627
  30 H :    0.019939
  31 H :    0.033555
  32 H :    0.032399
  33 H :    0.033995

  Mayer bond orders larger than 0.100000
B(  0-S ,  1-C ) :   1.1678 B(  0-S ,  4-C ) :   1.1418 B(  1-C ,  2-C ) :   1.5689
B(  1-C ,  4-C ) :   0.1004 B(  1-C , 32-H ) :   0.9643 B(  2-C ,  3-C ) :   1.2772
B(  2-C ,  6-C ) :   1.0263 B(  3-C ,  4-C ) :   1.5375 B(  3-C ,  5-H ) :   1.0028
B(  4-C , 20-C ) :   1.0444 B(  6-C ,  7-H ) :   0.9388 B(  6-C ,  8-H ) :   0.9391
B(  6-C ,  9-C ) :   1.0641 B(  9-C , 10-H ) :   0.9486 B(  9-C , 11-H ) :   0.9522
B(  9-C , 12-C ) :   1.0865 B( 12-C , 13-H ) :   0.9714 B( 12-C , 14-H ) :   0.9716
B( 12-C , 15-H ) :   0.9757 B( 16-S , 17-C ) :   1.1571 B( 16-S , 20-C ) :   1.1548
B( 17-C , 18-C ) :   1.5881 B( 17-C , 20-C ) :   0.1112 B( 17-C , 33-H ) :   0.9623
B( 18-C , 19-C ) :   1.2854 B( 18-C , 21-H ) :   0.9738 B( 19-C , 20-C ) :   1.5476
B( 19-C , 22-C ) :   1.0741 B( 22-C , 23-H ) :   0.9202 B( 22-C , 24-H ) :   0.9264
B( 22-C , 25-C ) :   1.0456 B( 25-C , 26-H ) :   0.9589 B( 25-C , 27-H ) :   0.9592
B( 25-C , 28-C ) :   1.0663 B( 28-C , 29-H ) :   0.9778 B( 28-C , 30-H ) :   0.9790
B( 28-C , 31-H ) :   0.9763

Dispersion correction           -0.013813397
FINAL SINGLE POINT ENERGY     -1339.870953349715

DIPOLE MOMENT
-------------
                                X             Y             Z
Electronic contribution:     -3.20578      -5.05750     -17.98507
Nuclear contribution   :      3.18139       4.88869      18.44879
                        -----------------------------------------
Total Dipole Moment    :     -0.02439      -0.16880       0.46373
                        -----------------------------------------
Magnitude (a.u.)       :      0.49410
Magnitude (Debye)      :      1.25590

Rotational constants in cm-1:     0.020053     0.007352     0.006286
Rotational constants in MHz :   601.186843   220.406003   188.447371

                             ****ORCA TERMINATED NORMALLY****
TOTAL RUN TIME: 0 days 0 hours 0 minutes 19 seconds 679 msec
