                         Program Version 4.2.1 -  RELEASE  -
|  1> ! wB97X-D3 SP def2-SVP
|  2> %pal
|  3> nprocs 24
|  4> end
|  5>
|  6> * xyz 0 1
|  7> S 	 -47.8099 	 23.482 	 21.5088
|  8> C 	 -49.3954 	 23.742 	 22.2018
|  9> C 	 -49.739 	 22.7051 	 23.0942
| 10> C 	 -48.6239 	 21.9241 	 23.4207
| 11> C 	 -47.4706 	 22.1844 	 22.6501
| 12> H 	 -48.6834 	 21.1213 	 24.1106
| 13> C 	 -51.1553 	 22.5216 	 23.6895
| 14> H 	 -51.3298 	 21.3984 	 23.9687
| 15> H 	 -51.7944 	 22.6459 	 22.8614
| 16> C 	 -51.642 	 23.4006 	 24.8482
| 17> H 	 -51.5141 	 24.3767 	 24.5234
| 18> H 	 -52.6505 	 22.9962 	 24.9641
| 19> C 	 -50.7911 	 23.0084 	 26.0825
| 20> H 	 -51.133 	 23.6127 	 26.9182
| 21> H 	 -51.0399 	 22.0768 	 26.4426
| 22> H 	 -49.6915 	 23.1354 	 25.9218
| 23> S 	 -45.9559 	 20.9036 	 24.4351
| 24> C 	 -44.3168 	 20.3708 	 23.9894
| 25> C 	 -43.9277 	 20.7791 	 22.7668
| 26> C 	 -45.0045 	 21.4222 	 22.0657
| 27> C 	 -46.1769 	 21.5342 	 22.8222
| 28> H 	 -42.9185 	 20.6266 	 22.3597
| 29> C 	 -44.8285 	 21.9024 	 20.6795
| 30> H 	 -43.7628 	 21.9724 	 20.4312
| 31> H 	 -45.1097 	 22.9295 	 20.6248
| 32> C 	 -45.6293 	 21.1051 	 19.6323
| 33> H 	 -46.7039 	 21.0816 	 20.0037
| 34> H 	 -45.2339 	 20.1305 	 19.6217
| 35> C 	 -45.5898 	 21.7741 	 18.1899
| 36> H 	 -46.3133 	 22.613 	 18.248
| 37> H 	 -46.1451 	 21.1104 	 17.4623
| 38> H 	 -44.6595 	 22.1918 	 17.7407
| 39> H 	 -50.1285 	 24.3756 	 21.753
| 40> H 	 -43.5666 	 19.8933 	 24.5809
| 41> *
| 42>
| 43>                          ****END OF INPUT****

CARTESIAN COORDINATES (ANGSTROEM)
---------------------------------
  S    -47.809900   23.482000   21.508800
  C    -49.395400   23.742000   22.201800
  C    -49.739000   22.705100   23.094200
  C    -48.623900   21.924100   23.420700
  C    -47.470600   22.184400   22.650100
  H    -48.683400   21.121300   24.110600
  C    -51.155300   22.521600   23.689500
  H    -51.329800   21.398400   23.968700
  H    -51.794400   22.645900   22.861400
  C    -51.642000   23.400600   24.848200
  H    -51.514100   24.376700   24.523400
  H    -52.650500   22.996200   24.964100
  C    -50.791100   23.008400   26.082500
  H    -51.133000   23.612700   26.918200
  H    -51.039900   22.076800   26.442600
  H    -49.691500   23.135400   25.921800
  S    -45.955900   20.903600   24.435100
  C    -44.316800   20.370800   23.989400
  C    -43.927700   20.779100   22.766800
  C    -45.004500   21.422200   22.065700
  C    -46.176900   21.534200   22.822200
  H    -42.918500   20.626600   22.359700
  C    -44.828500   21.902400   20.679500
  H    -43.762800   21.972400   20.431200
  H    -45.109700   22.929500   20.624800
  C    -45.629300   21.105100   19.632300
  H    -46.703900   21.081600   20.003700
  H    -45.233900   20.130500   19.621700
  C    -45.589800   21.774100   18.189900
  H    -46.313300   22.613000   18.248000
  H    -46.145100   21.110400   17.462300
  H    -44.659500   22.191800   17.740700
  H    -50.128500   24.375600   21.753000
  H    -43.566600   19.893300   24.580900

 Total Charge           Charge          ....    0
 Multiplicity           Mult            ....    1
 Number of Electrons    NEL             ....  134
 Basis Dimension        Dim             ....  322

ORBITAL ENERGIES
----------------

  NO   OCC          E(Eh)            E(eV)
   0   2.0000     -88.973642     -2421.0959
   1   2.0000     -88.967733     -2420.9351
   2   2.0000     -10.337272      -281.2915
   3   2.0000     -10.328823      -281.0616
   4   2.0000     -10.314538      -280.6729
   5   2.0000     -10.313215      -280.6368
   6   2.0000     -10.304168      -280.3907
   7   2.0000     -10.301000      -280.3045
   8   2.0000     -10.294821      -280.1363
   9   2.0000     -10.292668      -280.0777
  10   2.0000     -10.292205      -280.0651
  11   2.0000     -10.289707      -279.9972
  12   2.0000     -10.286637      -279.9136
  13   2.0000     -10.285391      -279.8797
  14   2.0000     -10.283594      -279.8308
  15   2.0000     -10.272048      -279.5166
  16   2.0000      -8.087212      -220.0642
  17   2.0000      -8.081815      -219.9174
  18   2.0000      -6.045719      -164.5124
  19   2.0000      -6.041812      -164.4061
  20   2.0000      -6.040526      -164.3711
  21   2.0000      -6.038148      -164.3064
  22   2.0000      -6.036538      -164.2626
  23   2.0000      -6.032272      -164.1465
  24   2.0000      -1.006923       -27.3998
  25   2.0000      -0.983365       -26.7587
  26   2.0000      -0.912390       -24.8274
  27   2.0000      -0.906446       -24.6657
  28   2.0000      -0.874243       -23.7894
  29   2.0000      -0.851441       -23.1689
  30   2.0000      -0.839025       -22.8310
  31   2.0000      -0.813816       -22.1451
  32   2.0000      -0.783532       -21.3210
  33   2.0000      -0.767106       -20.8740
  34   2.0000      -0.709514       -19.3069
  35   2.0000      -0.703488       -19.1429
  36   2.0000      -0.692896       -18.8547
  37   2.0000      -0.669097       -18.2070
  38   2.0000      -0.637832       -17.3563
  39   2.0000      -0.614238       -16.7143
  40   2.0000      -0.595957       -16.2168
  41   2.0000      -0.581205       -15.8154
  42   2.0000      -0.560404       -15.2494
  43   2.0000      -0.548256       -14.9188
  44   2.0000      -0.543675       -14.7941
  45   2.0000      -0.519505       -14.1365
  46   2.0000      -0.514008       -13.9869
  47   2.0000      -0.506646       -13.7865
  48   2.0000      -0.498871       -13.5750
  49   2.0000      -0.493309       -13.4236
  50   2.0000      -0.489340       -13.3156
  51   2.0000      -0.480762       -13.0822
  52   2.0000      -0.472290       -12.8517
  53   2.0000      -0.467475       -12.7207
  54   2.0000      -0.458298       -12.4709
  55   2.0000      -0.453318       -12.3354
  56   2.0000      -0.443719       -12.0742
  57   2.0000      -0.431726       -11.7479
  58   2.0000      -0.426845       -11.6150
  59   2.0000      -0.424346       -11.5470
  60   2.0000      -0.421596       -11.4722
  61   2.0000      -0.420373       -11.4389
  62   2.0000      -0.413731       -11.2582
  63   2.0000      -0.361159        -9.8276
  64   2.0000      -0.335741        -9.1360
  65   2.0000      -0.330465        -8.9924
  66   2.0000      -0.278886        -7.5889
  67   0.0000       0.014863         0.4044
  68   0.0000       0.078480         2.1356
  69   0.0000       0.100000         2.7211
  70   0.0000       0.115254         3.1362
  71   0.0000       0.132554         3.6070

MULLIKEN ATOMIC CHARGES
-----------------------
   0 S :    0.112382
   1 C :   -0.111399
   2 C :   -0.089839
   3 C :    0.004118
   4 C :   -0.117884
   5 H :    0.005123
   6 C :   -0.000733
   7 H :    0.032940
   8 H :    0.014272
   9 C :   -0.001641
  10 H :    0.021909
  11 H :    0.037985
  12 C :   -0.041079
  13 H :    0.022521
  14 H :    0.003524
  15 H :    0.059124
  16 S :    0.092103
  17 C :   -0.054848
  18 C :   -0.039446
  19 C :   -0.074588
  20 C :   -0.115167
  21 H :    0.027112
  22 C :    0.061402
  23 H :    0.011019
  24 H :    0.013921
  25 C :   -0.066757
  26 H :    0.048244
  27 H :    0.024369
  28 C :   -0.079183
  29 H :    0.026231
  30 H :    0.040563
  31 H :    0.050787
  32 H :    0.043814
  33 H :    0.039100
Sum of atomic charges:    0.0000000

LOEWDIN ATOMIC CHARGES
----------------------
   0 S :    0.418461
   1 C :   -0.203053
   2 C :   -0.057729
   3 C :   -0.075149
   4 C :   -0.188630
   5 H :    0.019606
   6 C :   -0.036296
   7 H :    0.036945
   8 H :    0.019440
   9 C :   -0.023333
  10 H :    0.015422
  11 H :    0.033487
  12 C :   -0.063016
  13 H :    0.025394
  14 H :    0.012849
  15 H :    0.035701
  16 S :    0.405470
  17 C :   -0.173317
  18 C :   -0.067455
  19 C :   -0.058769
  20 C :   -0.190250
  21 H :    0.038759
  22 C :   -0.042981
  23 H :    0.029695
  24 H :    0.019377
  25 C :   -0.031068
  26 H :    0.031928
  27 H :    0.014942
  28 C :   -0.083085
  29 H :    0.026624
  30 H :    0.032847
  31 H :    0.029195
  32 H :    0.020891
  33 H :    0.027099

  Mayer bond orders larger than 0.100000
B(  0-S ,  1-C ) :   1.1489 B(  0-S ,  4-C ) :   1.1542 B(  1-C ,  2-C ) :   1.5666
B(  1-C ,  4-C ) :   0.1081 B(  1-C , 32-H ) :   0.9654 B(  2-C ,  3-C ) :   1.3055
B(  2-C ,  6-C ) :   1.0103 B(  3-C ,  4-C ) :   1.4919 B(  3-C ,  5-H ) :   0.9867
B(  4-C , 20-C ) :   1.0939 B(  6-C ,  7-H ) :   0.9483 B(  6-C ,  8-H ) :   0.9364
B(  6-C ,  9-C ) :   1.0681 B(  9-C , 10-H ) :   0.9566 B(  9-C , 11-H ) :   0.9500
B(  9-C , 12-C ) :   1.0843 B( 12-C , 13-H ) :   0.9714 B( 12-C , 14-H ) :   0.9716
B( 12-C , 15-H ) :   0.9749 B( 16-S , 17-C ) :   1.1289 B( 16-S , 20-C ) :   1.1277
B( 17-C , 18-C ) :   1.6503 B( 17-C , 33-H ) :   0.9616 B( 18-C , 19-C ) :   1.2360
B( 18-C , 21-H ) :   0.9840 B( 19-C , 20-C ) :   1.5743 B( 19-C , 22-C ) :   1.0591
B( 22-C , 23-H ) :   0.9265 B( 22-C , 24-H ) :   0.9269 B( 22-C , 25-C ) :   1.0513
B( 25-C , 26-H ) :   0.9571 B( 25-C , 27-H ) :   0.9591 B( 25-C , 28-C ) :   1.0627
B( 28-C , 29-H ) :   0.9733 B( 28-C , 30-H ) :   0.9746 B( 28-C , 31-H ) :   0.9778

Dispersion correction           -0.014579515
FINAL SINGLE POINT ENERGY     -1339.863782807635

DIPOLE MOMENT
-------------
                                X             Y             Z
Electronic contribution:      9.52706      -0.90917       5.03284
Nuclear contribution   :     -9.68979       0.84770      -5.11948
                        -----------------------------------------
Total Dipole Moment    :     -0.16274      -0.06148      -0.08665
                        -----------------------------------------
Magnitude (a.u.)       :      0.19434
Magnitude (Debye)      :      0.49398

Rotational constants in cm-1:     0.020820     0.008793     0.006533
Rotational constants in MHz :   624.175078   263.602008   195.851805

                             ****ORCA TERMINATED NORMALLY****
TOTAL RUN TIME: 0 days 0 hours 0 minutes 21 seconds 563 msec
