                         Program Version 4.2.1 -  RELEASE  -
|  1> ! wB97X-D3 SP def2-SVP
|  2> %pal
|  3> nprocs 24
|  4> end
|  5>
|  6> * xyz 0 1
|  7> S 	 -36.4725 	 -9.49126 	 18.6492
|  8> C 	 -35.5113 	 -10.8749 	 19.0202
|  9> C 	 -35.6571 	 -11.8701 	 18.052
| 10> C 	 -36.588 	 -11.5271 	 17.0551
| 11> C 	 -37.0262 	 -10.2584 	 17.1972
| 12> H 	 -36.817 	 -12.1414 	 16.2163
| 13> C 	 -35.1032 	 -13.2082 	 18.1013
| 14> H 	 -35.7319 	 -13.9135 	 17.57
| 15> H 	 -34.9421 	 -13.4849 	 19.1012
| 16> C 	 -33.6184 	 -13.3271 	 17.6062
| 17> H 	 -33.3888 	 -14.2913 	 17.5338
| 18> H 	 -33.5413 	 -12.9204 	 16.6407
| 19> C 	 -32.5023 	 -12.5805 	 18.3606
| 20> H 	 -31.5747 	 -12.9741 	 17.9161
| 21> H 	 -32.4083 	 -11.5233 	 18.3415
| 22> H 	 -32.6116 	 -12.8798 	 19.4341
| 23> S 	 -39.2987 	 -8.87272 	 17.1091
| 24> C 	 -40.0607 	 -8.54573 	 15.5995
| 25> C 	 -39.3438 	 -8.97754 	 14.5284
| 26> C 	 -38.1619 	 -9.66866 	 14.8954
| 27> C 	 -37.9772 	 -9.57826 	 16.306
| 28> H 	 -39.7703 	 -8.90699 	 13.5231
| 29> C 	 -37.324 	 -10.3484 	 13.8777
| 30> H 	 -37.9789 	 -10.478 	 12.9952
| 31> H 	 -36.9304 	 -11.2812 	 14.1834
| 32> C 	 -36.1798 	 -9.52636 	 13.3424
| 33> H 	 -36.5185 	 -8.51816 	 13.0604
| 34> H 	 -35.6522 	 -9.81851 	 12.416
| 35> C 	 -35.0854 	 -9.1874 	 14.3993
| 36> H 	 -34.2929 	 -8.48859 	 14.0548
| 37> H 	 -34.6619 	 -10.1027 	 14.7635
| 38> H 	 -35.5642 	 -8.65643 	 15.308
| 39> H 	 -35.0541 	 -10.9729 	 19.9972
| 40> H 	 -41.0493 	 -8.12244 	 15.5155
| 41> *
| 42>
| 43>                          ****END OF INPUT****

CARTESIAN COORDINATES (ANGSTROEM)
---------------------------------
  S    -36.472500   -9.491260   18.649200
  C    -35.511300  -10.874900   19.020200
  C    -35.657100  -11.870100   18.052000
  C    -36.588000  -11.527100   17.055100
  C    -37.026200  -10.258400   17.197200
  H    -36.817000  -12.141400   16.216300
  C    -35.103200  -13.208200   18.101300
  H    -35.731900  -13.913500   17.570000
  H    -34.942100  -13.484900   19.101200
  C    -33.618400  -13.327100   17.606200
  H    -33.388800  -14.291300   17.533800
  H    -33.541300  -12.920400   16.640700
  C    -32.502300  -12.580500   18.360600
  H    -31.574700  -12.974100   17.916100
  H    -32.408300  -11.523300   18.341500
  H    -32.611600  -12.879800   19.434100
  S    -39.298700   -8.872720   17.109100
  C    -40.060700   -8.545730   15.599500
  C    -39.343800   -8.977540   14.528400
  C    -38.161900   -9.668660   14.895400
  C    -37.977200   -9.578260   16.306000
  H    -39.770300   -8.906990   13.523100
  C    -37.324000  -10.348400   13.877700
  H    -37.978900  -10.478000   12.995200
  H    -36.930400  -11.281200   14.183400
  C    -36.179800   -9.526360   13.342400
  H    -36.518500   -8.518160   13.060400
  H    -35.652200   -9.818510   12.416000
  C    -35.085400   -9.187400   14.399300
  H    -34.292900   -8.488590   14.054800
  H    -34.661900  -10.102700   14.763500
  H    -35.564200   -8.656430   15.308000
  H    -35.054100  -10.972900   19.997200
  H    -41.049300   -8.122440   15.515500

 Total Charge           Charge          ....    0
 Multiplicity           Mult            ....    1
 Number of Electrons    NEL             ....  134
 Basis Dimension        Dim             ....  322

ORBITAL ENERGIES
----------------

  NO   OCC          E(Eh)            E(eV)
   0   2.0000     -88.967146     -2420.9191
   1   2.0000     -88.965624     -2420.8777
   2   2.0000     -10.323962      -280.9293
   3   2.0000     -10.322858      -280.8992
   4   2.0000     -10.309851      -280.5453
   5   2.0000     -10.308835      -280.5177
   6   2.0000     -10.304406      -280.3971
   7   2.0000     -10.293437      -280.0987
   8   2.0000     -10.291580      -280.0481
   9   2.0000     -10.290955      -280.0311
  10   2.0000     -10.283805      -279.8366
  11   2.0000     -10.283077      -279.8167
  12   2.0000     -10.281653      -279.7780
  13   2.0000     -10.277999      -279.6786
  14   2.0000     -10.273310      -279.5510
  15   2.0000     -10.272556      -279.5305
  16   2.0000      -8.083315      -219.9582
  17   2.0000      -8.081117      -219.8984
  18   2.0000      -6.041547      -164.3989
  19   2.0000      -6.039455      -164.3419
  20   2.0000      -6.037602      -164.2915
  21   2.0000      -6.035562      -164.2360
  22   2.0000      -6.034301      -164.2017
  23   2.0000      -6.031991      -164.1388
  24   2.0000      -1.016310       -27.6552
  25   2.0000      -0.992847       -27.0167
  26   2.0000      -0.917784       -24.9742
  27   2.0000      -0.914466       -24.8839
  28   2.0000      -0.870341       -23.6832
  29   2.0000      -0.857525       -23.3345
  30   2.0000      -0.846015       -23.0212
  31   2.0000      -0.815118       -22.1805
  32   2.0000      -0.784469       -21.3465
  33   2.0000      -0.771639       -20.9974
  34   2.0000      -0.709009       -19.2931
  35   2.0000      -0.698321       -19.0023
  36   2.0000      -0.689642       -18.7661
  37   2.0000      -0.662999       -18.0411
  38   2.0000      -0.642666       -17.4878
  39   2.0000      -0.630725       -17.1629
  40   2.0000      -0.604132       -16.4393
  41   2.0000      -0.569740       -15.5034
  42   2.0000      -0.554659       -15.0930
  43   2.0000      -0.549535       -14.9536
  44   2.0000      -0.546344       -14.8668
  45   2.0000      -0.535760       -14.5788
  46   2.0000      -0.518194       -14.1008
  47   2.0000      -0.509385       -13.8611
  48   2.0000      -0.506814       -13.7911
  49   2.0000      -0.499195       -13.5838
  50   2.0000      -0.493412       -13.4264
  51   2.0000      -0.475522       -12.9396
  52   2.0000      -0.470264       -12.7965
  53   2.0000      -0.468418       -12.7463
  54   2.0000      -0.460566       -12.5326
  55   2.0000      -0.456025       -12.4091
  56   2.0000      -0.447607       -12.1800
  57   2.0000      -0.439706       -11.9650
  58   2.0000      -0.432497       -11.7688
  59   2.0000      -0.426411       -11.6032
  60   2.0000      -0.413162       -11.2427
  61   2.0000      -0.411773       -11.2049
  62   2.0000      -0.408484       -11.1154
  63   2.0000      -0.351883        -9.5752
  64   2.0000      -0.335067        -9.1176
  65   2.0000      -0.325930        -8.8690
  66   2.0000      -0.285532        -7.7697
  67   0.0000       0.030822         0.8387
  68   0.0000       0.075835         2.0636
  69   0.0000       0.107790         2.9331
  70   0.0000       0.120589         3.2814
  71   0.0000       0.130938         3.5630

MULLIKEN ATOMIC CHARGES
-----------------------
   0 S :    0.112698
   1 C :   -0.130483
   2 C :   -0.069644
   3 C :    0.016057
   4 C :   -0.131656
   5 H :   -0.000063
   6 C :    0.092279
   7 H :    0.022705
   8 H :    0.001539
   9 C :   -0.016104
  10 H :   -0.000116
  11 H :    0.005667
  12 C :   -0.069382
  13 H :    0.036079
  14 H :    0.040954
  15 H :    0.021993
  16 S :    0.123059
  17 C :   -0.092710
  18 C :   -0.034647
  19 C :   -0.062710
  20 C :   -0.140732
  21 H :    0.022911
  22 C :    0.130288
  23 H :    0.023381
  24 H :    0.010708
  25 C :   -0.079080
  26 H :    0.013585
  27 H :    0.033000
  28 C :   -0.092030
  29 H :    0.040480
  30 H :    0.022057
  31 H :    0.051014
  32 H :    0.048903
  33 H :    0.050001
Sum of atomic charges:   -0.0000000

LOEWDIN ATOMIC CHARGES
----------------------
   0 S :    0.418625
   1 C :   -0.211387
   2 C :   -0.056997
   3 C :   -0.063579
   4 C :   -0.193521
   5 H :    0.027686
   6 C :   -0.026251
   7 H :    0.032279
   8 H :    0.023923
   9 C :   -0.021420
  10 H :    0.006149
  11 H :    0.016164
  12 C :   -0.063077
  13 H :    0.033220
  14 H :    0.020321
  15 H :    0.022908
  16 S :    0.446408
  17 C :   -0.197246
  18 C :   -0.069934
  19 C :   -0.053853
  20 C :   -0.214296
  21 H :    0.036146
  22 C :   -0.028337
  23 H :    0.040682
  24 H :    0.021391
  25 C :   -0.046829
  26 H :    0.022710
  27 H :    0.025808
  28 C :   -0.075669
  29 H :    0.027447
  30 H :    0.013261
  31 H :    0.034916
  32 H :    0.025430
  33 H :    0.026923

  Mayer bond orders larger than 0.100000
B(  0-S ,  1-C ) :   1.1367 B(  0-S ,  4-C ) :   1.1674 B(  1-C ,  2-C ) :   1.5784
B(  1-C , 32-H ) :   0.9695 B(  2-C ,  3-C ) :   1.2571 B(  2-C ,  6-C ) :   1.0544
B(  3-C ,  4-C ) :   1.5654 B(  3-C ,  5-H ) :   1.0010 B(  4-C , 20-C ) :   1.0087
B(  6-C ,  7-H ) :   0.9385 B(  6-C ,  8-H ) :   0.9301 B(  6-C ,  9-C ) :   1.0656
B(  9-C , 10-H ) :   0.9555 B(  9-C , 11-H ) :   0.9496 B(  9-C , 12-C ) :   1.0762
B( 12-C , 13-H ) :   0.9721 B( 12-C , 14-H ) :   0.9768 B( 12-C , 15-H ) :   0.9754
B( 16-S , 17-C ) :   1.1669 B( 16-S , 20-C ) :   1.1839 B( 17-C , 18-C ) :   1.5998
B( 17-C , 33-H ) :   0.9671 B( 18-C , 19-C ) :   1.2719 B( 18-C , 21-H ) :   0.9851
B( 19-C , 20-C ) :   1.5440 B( 19-C , 22-C ) :   1.0518 B( 22-C , 23-H ) :   0.9184
B( 22-C , 24-H ) :   0.9356 B( 22-C , 25-C ) :   1.0690 B( 25-C , 26-H ) :   0.9502
B( 25-C , 27-H ) :   0.9583 B( 25-C , 28-C ) :   1.0750 B( 28-C , 29-H ) :   0.9742
B( 28-C , 30-H ) :   0.9766 B( 28-C , 31-H ) :   0.9697

Dispersion correction           -0.015644980
FINAL SINGLE POINT ENERGY     -1339.867703875611

DIPOLE MOMENT
-------------
                                X             Y             Z
Electronic contribution:    -21.40209      12.38682      10.82301
Nuclear contribution   :     21.46938     -12.87255     -11.21381
                        -----------------------------------------
Total Dipole Moment    :      0.06729      -0.48573      -0.39080
                        -----------------------------------------
Magnitude (a.u.)       :      0.62704
Magnitude (Debye)      :      1.59381

Rotational constants in cm-1:     0.022214     0.009199     0.007454
Rotational constants in MHz :   665.952780   275.784811   223.463391

                             ****ORCA TERMINATED NORMALLY****
TOTAL RUN TIME: 0 days 0 hours 0 minutes 23 seconds 151 msec
