                         Program Version 4.2.1 -  RELEASE  -
|  1> ! wB97X-D3 SP def2-SVP
|  2> %pal
|  3> nprocs 24
|  4> end
|  5>
|  6> * xyz 0 1
|  7> S 	 -88.7418 	 -7.00842 	 -117.951
|  8> C 	 -90.3935 	 -7.40671 	 -117.59
|  9> C 	 -91.2228 	 -6.31695 	 -117.855
| 10> C 	 -90.487 	 -5.24474 	 -118.423
| 11> C 	 -89.1252 	 -5.38565 	 -118.3
| 12> H 	 -90.8807 	 -4.26659 	 -118.794
| 13> C 	 -92.7223 	 -6.23054 	 -117.702
| 14> H 	 -93.1184 	 -7.18083 	 -117.388
| 15> H 	 -93.1042 	 -6.0912 	 -118.714
| 16> C 	 -93.0993 	 -5.04111 	 -116.834
| 17> H 	 -92.496 	 -4.15923 	 -117.057
| 18> H 	 -94.1304 	 -4.67611 	 -117.01
| 19> C 	 -92.899 	 -5.44584 	 -115.326
| 20> H 	 -93.4884 	 -6.39198 	 -115.236
| 21> H 	 -91.898 	 -5.43912 	 -115.02
| 22> H 	 -93.459 	 -4.78972 	 -114.674
| 23> S 	 -86.8855 	 -4.78696 	 -119.637
| 24> C 	 -86.1382 	 -3.19083 	 -119.463
| 25> C 	 -86.7651 	 -2.44559 	 -118.457
| 26> C 	 -87.9998 	 -3.03462 	 -118.086
| 27> C 	 -88.1263 	 -4.36724 	 -118.555
| 28> H 	 -86.343 	 -1.4912 	 -118.207
| 29> C 	 -88.9839 	 -2.41989 	 -117.128
| 30> H 	 -89.9411 	 -2.67821 	 -117.607
| 31> H 	 -88.8768 	 -1.2997 	 -117.194
| 32> C 	 -88.944 	 -2.83791 	 -115.548
| 33> H 	 -88.9948 	 -3.96216 	 -115.496
| 34> H 	 -89.79 	 -2.57214 	 -114.903
| 35> C 	 -87.6495 	 -2.33933 	 -114.885
| 36> H 	 -86.8502 	 -2.6782 	 -115.544
| 37> H 	 -87.4963 	 -2.81186 	 -113.843
| 38> H 	 -87.5161 	 -1.28165 	 -114.817
| 39> H 	 -90.7057 	 -8.37881 	 -117.33
| 40> H 	 -85.2367 	 -2.97007 	 -120.007
| 41> *
| 42>
| 43>                          ****END OF INPUT****

CARTESIAN COORDINATES (ANGSTROEM)
---------------------------------
  S    -88.741800   -7.008420  -117.951000
  C    -90.393500   -7.406710  -117.590000
  C    -91.222800   -6.316950  -117.855000
  C    -90.487000   -5.244740  -118.423000
  C    -89.125200   -5.385650  -118.300000
  H    -90.880700   -4.266590  -118.794000
  C    -92.722300   -6.230540  -117.702000
  H    -93.118400   -7.180830  -117.388000
  H    -93.104200   -6.091200  -118.714000
  C    -93.099300   -5.041110  -116.834000
  H    -92.496000   -4.159230  -117.057000
  H    -94.130400   -4.676110  -117.010000
  C    -92.899000   -5.445840  -115.326000
  H    -93.488400   -6.391980  -115.236000
  H    -91.898000   -5.439120  -115.020000
  H    -93.459000   -4.789720  -114.674000
  S    -86.885500   -4.786960  -119.637000
  C    -86.138200   -3.190830  -119.463000
  C    -86.765100   -2.445590  -118.457000
  C    -87.999800   -3.034620  -118.086000
  C    -88.126300   -4.367240  -118.555000
  H    -86.343000   -1.491200  -118.207000
  C    -88.983900   -2.419890  -117.128000
  H    -89.941100   -2.678210  -117.607000
  H    -88.876800   -1.299700  -117.194000
  C    -88.944000   -2.837910  -115.548000
  H    -88.994800   -3.962160  -115.496000
  H    -89.790000   -2.572140  -114.903000
  C    -87.649500   -2.339330  -114.885000
  H    -86.850200   -2.678200  -115.544000
  H    -87.496300   -2.811860  -113.843000
  H    -87.516100   -1.281650  -114.817000
  H    -90.705700   -8.378810  -117.330000
  H    -85.236700   -2.970070  -120.007000

 Total Charge           Charge          ....    0
 Multiplicity           Mult            ....    1
 Number of Electrons    NEL             ....  134
 Basis Dimension        Dim             ....  322

ORBITAL ENERGIES
----------------

  NO   OCC          E(Eh)            E(eV)
   0   2.0000     -88.967665     -2420.9332
   1   2.0000     -88.964388     -2420.8441
   2   2.0000     -10.325362      -280.9674
   3   2.0000     -10.324077      -280.9324
   4   2.0000     -10.320159      -280.8258
   5   2.0000     -10.310546      -280.5642
   6   2.0000     -10.307976      -280.4943
   7   2.0000     -10.301545      -280.3193
   8   2.0000     -10.301193      -280.3097
   9   2.0000     -10.300031      -280.2781
  10   2.0000     -10.296083      -280.1707
  11   2.0000     -10.291890      -280.0566
  12   2.0000     -10.290308      -280.0135
  13   2.0000     -10.289437      -279.9898
  14   2.0000     -10.277930      -279.6767
  15   2.0000     -10.275045      -279.5982
  16   2.0000      -8.083113      -219.9527
  17   2.0000      -8.080322      -219.8767
  18   2.0000      -6.041319      -164.3927
  19   2.0000      -6.038712      -164.3217
  20   2.0000      -6.037471      -164.2879
  21   2.0000      -6.034680      -164.2120
  22   2.0000      -6.034198      -164.1989
  23   2.0000      -6.031125      -164.1153
  24   2.0000      -1.015339       -27.6288
  25   2.0000      -0.989201       -26.9175
  26   2.0000      -0.915710       -24.9177
  27   2.0000      -0.897010       -24.4089
  28   2.0000      -0.871627       -23.7182
  29   2.0000      -0.849492       -23.1158
  30   2.0000      -0.843369       -22.9492
  31   2.0000      -0.814480       -22.1631
  32   2.0000      -0.782168       -21.2839
  33   2.0000      -0.766579       -20.8597
  34   2.0000      -0.710365       -19.3300
  35   2.0000      -0.699313       -19.0293
  36   2.0000      -0.690948       -18.8017
  37   2.0000      -0.666219       -18.1287
  38   2.0000      -0.643104       -17.4998
  39   2.0000      -0.623572       -16.9683
  40   2.0000      -0.586696       -15.9648
  41   2.0000      -0.570648       -15.5281
  42   2.0000      -0.556295       -15.1375
  43   2.0000      -0.545768       -14.8511
  44   2.0000      -0.541842       -14.7443
  45   2.0000      -0.538560       -14.6550
  46   2.0000      -0.516052       -14.0425
  47   2.0000      -0.515479       -14.0269
  48   2.0000      -0.504556       -13.7297
  49   2.0000      -0.494149       -13.4465
  50   2.0000      -0.484831       -13.1929
  51   2.0000      -0.475837       -12.9482
  52   2.0000      -0.470253       -12.7962
  53   2.0000      -0.465758       -12.6739
  54   2.0000      -0.461969       -12.5708
  55   2.0000      -0.447729       -12.1833
  56   2.0000      -0.441480       -12.0133
  57   2.0000      -0.435656       -11.8548
  58   2.0000      -0.432039       -11.7564
  59   2.0000      -0.426732       -11.6120
  60   2.0000      -0.424442       -11.5497
  61   2.0000      -0.416846       -11.3429
  62   2.0000      -0.409188       -11.1346
  63   2.0000      -0.348301        -9.4778
  64   2.0000      -0.332013        -9.0345
  65   2.0000      -0.327138        -8.9019
  66   2.0000      -0.287776        -7.8308
  67   0.0000       0.026429         0.7192
  68   0.0000       0.071496         1.9455
  69   0.0000       0.110743         3.0135
  70   0.0000       0.112815         3.0698
  71   0.0000       0.127718         3.4754

MULLIKEN ATOMIC CHARGES
-----------------------
   0 S :    0.112974
   1 C :   -0.104839
   2 C :   -0.105888
   3 C :    0.000144
   4 C :   -0.151191
   5 H :    0.036246
   6 C :    0.108450
   7 H :    0.010299
   8 H :    0.033872
   9 C :   -0.094182
  10 H :    0.029204
  11 H :    0.028777
  12 C :   -0.035659
  13 H :    0.027658
  14 H :    0.045842
  15 H :    0.021268
  16 S :    0.113489
  17 C :   -0.110119
  18 C :   -0.017929
  19 C :   -0.053913
  20 C :   -0.150210
  21 H :    0.021233
  22 C :    0.049978
  23 H :    0.019138
  24 H :    0.031529
  25 C :   -0.062959
  26 H :    0.044082
  27 H :    0.033815
  28 C :   -0.076752
  29 H :    0.032916
  30 H :    0.048208
  31 H :    0.026800
  32 H :    0.029214
  33 H :    0.058504
Sum of atomic charges:    0.0000000

LOEWDIN ATOMIC CHARGES
----------------------
   0 S :    0.425669
   1 C :   -0.200336
   2 C :   -0.057164
   3 C :   -0.071992
   4 C :   -0.211333
   5 H :    0.035532
   6 C :   -0.028916
   7 H :    0.024119
   8 H :    0.035690
   9 C :   -0.040286
  10 H :    0.021646
  11 H :    0.024486
  12 C :   -0.058499
  13 H :    0.030478
  14 H :    0.020164
  15 H :    0.022323
  16 S :    0.428965
  17 C :   -0.179044
  18 C :   -0.063603
  19 C :   -0.062136
  20 C :   -0.213179
  21 H :    0.032832
  22 C :   -0.037956
  23 H :    0.029655
  24 H :    0.033490
  25 C :   -0.041355
  26 H :    0.031023
  27 H :    0.023159
  28 C :   -0.075213
  29 H :    0.025956
  30 H :    0.037081
  31 H :    0.017212
  32 H :    0.018171
  33 H :    0.023363

  Mayer bond orders larger than 0.100000
B(  0-S ,  1-C ) :   1.1383 B(  0-S ,  4-C ) :   1.1686 B(  1-C ,  2-C ) :   1.5840
B(  1-C ,  4-C ) :   0.1003 B(  1-C , 32-H ) :   0.9799 B(  2-C ,  3-C ) :   1.2524
B(  2-C ,  6-C ) :   1.0221 B(  3-C ,  4-C ) :   1.5603 B(  3-C ,  5-H ) :   0.9786
B(  4-C , 20-C ) :   1.0364 B(  6-C ,  7-H ) :   0.9467 B(  6-C ,  8-H ) :   0.9327
B(  6-C ,  9-C ) :   1.0645 B(  9-C , 10-H ) :   0.9584 B(  9-C , 11-H ) :   0.9568
B(  9-C , 12-C ) :   1.0633 B( 12-C , 13-H ) :   0.9766 B( 12-C , 14-H ) :   0.9800
B( 12-C , 15-H ) :   0.9750 B( 16-S , 17-C ) :   1.1679 B( 16-S , 20-C ) :   1.1830
B( 17-C , 18-C ) :   1.5724 B( 17-C , 20-C ) :   0.1137 B( 17-C , 33-H ) :   0.9717
B( 18-C , 19-C ) :   1.2580 B( 18-C , 21-H ) :   0.9930 B( 19-C , 20-C ) :   1.5349
B( 19-C , 22-C ) :   1.0495 B( 22-C , 23-H ) :   0.9302 B( 22-C , 24-H ) :   0.9387
B( 22-C , 25-C ) :   1.0387 B( 25-C , 26-H ) :   0.9587 B( 25-C , 27-H ) :   0.9620
B( 25-C , 28-C ) :   1.0664 B( 28-C , 29-H ) :   0.9769 B( 28-C , 30-H ) :   0.9721
B( 28-C , 31-H ) :   0.9775

Dispersion correction           -0.015842186
FINAL SINGLE POINT ENERGY     -1339.872114852362

DIPOLE MOMENT
-------------
                                X             Y             Z
Electronic contribution:     17.33205     -11.56380     -18.87984
Nuclear contribution   :    -17.70772      11.92014      19.03183
                        -----------------------------------------
Total Dipole Moment    :     -0.37567       0.35634       0.15199
                        -----------------------------------------
Magnitude (a.u.)       :      0.53964
Magnitude (Debye)      :      1.37165

Rotational constants in cm-1:     0.019128     0.010188     0.007730
Rotational constants in MHz :   573.442439   305.426783   231.729450

                             ****ORCA TERMINATED NORMALLY****
TOTAL RUN TIME: 0 days 0 hours 0 minutes 23 seconds 237 msec
