                         Program Version 4.2.1 -  RELEASE  -
|  1> ! wB97X-D3 SP def2-SVP
|  2> %pal
|  3> nprocs 24
|  4> end
|  5>
|  6> * xyz 0 1
|  7> S 	 -38.4464 	 -51.6701 	 -76.8029
|  8> C 	 -36.8939 	 -52.3139 	 -77.5153
|  9> C 	 -35.8091 	 -51.6317 	 -77.0016
| 10> C 	 -36.2401 	 -50.6964 	 -76.002
| 11> C 	 -37.6098 	 -50.6311 	 -75.7396
| 12> H 	 -35.5851 	 -50.0354 	 -75.4912
| 13> C 	 -34.3795 	 -51.8582 	 -77.5011
| 14> H 	 -34.6656 	 -52.0545 	 -78.5287
| 15> H 	 -34.014 	 -52.8396 	 -77.1903
| 16> C 	 -33.3752 	 -50.7163 	 -77.412
| 17> H 	 -32.5463 	 -50.8241 	 -78.1154
| 18> H 	 -33.6874 	 -49.6991 	 -77.66
| 19> C 	 -32.4739 	 -50.7022 	 -76.1852
| 20> H 	 -33.0693 	 -50.6033 	 -75.2748
| 21> H 	 -32.0439 	 -51.6654 	 -76.0146
| 22> H 	 -31.6292 	 -50.0111 	 -76.2898
| 23> S 	 -39.0315 	 -50.3469 	 -73.3758
| 24> C 	 -39.1158 	 -48.701 	 -72.6685
| 25> C 	 -38.4374 	 -47.7919 	 -73.4486
| 26> C 	 -37.8259 	 -48.4032 	 -74.5939
| 27> C 	 -38.1742 	 -49.6963 	 -74.7927
| 28> H 	 -38.4019 	 -46.8028 	 -73.0551
| 29> C 	 -36.8783 	 -47.6426 	 -75.5166
| 30> H 	 -36.7602 	 -48.2822 	 -76.3704
| 31> H 	 -35.9447 	 -47.7402 	 -74.9481
| 32> C 	 -37.1179 	 -46.1003 	 -75.8507
| 33> H 	 -37.1979 	 -45.4715 	 -74.9474
| 34> H 	 -38.1155 	 -45.9541 	 -76.3816
| 35> C 	 -36.0123 	 -45.5257 	 -76.6997
| 36> H 	 -36.234 	 -44.4879 	 -76.9394
| 37> H 	 -35.7825 	 -46.1004 	 -77.6201
| 38> H 	 -35.0543 	 -45.4738 	 -76.1823
| 39> H 	 -36.7576 	 -53.1108 	 -78.2851
| 40> H 	 -39.779 	 -48.4776 	 -71.817
| 41> *
| 42>
| 43>                          ****END OF INPUT****

CARTESIAN COORDINATES (ANGSTROEM)
---------------------------------
  S    -38.446400  -51.670100  -76.802900
  C    -36.893900  -52.313900  -77.515300
  C    -35.809100  -51.631700  -77.001600
  C    -36.240100  -50.696400  -76.002000
  C    -37.609800  -50.631100  -75.739600
  H    -35.585100  -50.035400  -75.491200
  C    -34.379500  -51.858200  -77.501100
  H    -34.665600  -52.054500  -78.528700
  H    -34.014000  -52.839600  -77.190300
  C    -33.375200  -50.716300  -77.412000
  H    -32.546300  -50.824100  -78.115400
  H    -33.687400  -49.699100  -77.660000
  C    -32.473900  -50.702200  -76.185200
  H    -33.069300  -50.603300  -75.274800
  H    -32.043900  -51.665400  -76.014600
  H    -31.629200  -50.011100  -76.289800
  S    -39.031500  -50.346900  -73.375800
  C    -39.115800  -48.701000  -72.668500
  C    -38.437400  -47.791900  -73.448600
  C    -37.825900  -48.403200  -74.593900
  C    -38.174200  -49.696300  -74.792700
  H    -38.401900  -46.802800  -73.055100
  C    -36.878300  -47.642600  -75.516600
  H    -36.760200  -48.282200  -76.370400
  H    -35.944700  -47.740200  -74.948100
  C    -37.117900  -46.100300  -75.850700
  H    -37.197900  -45.471500  -74.947400
  H    -38.115500  -45.954100  -76.381600
  C    -36.012300  -45.525700  -76.699700
  H    -36.234000  -44.487900  -76.939400
  H    -35.782500  -46.100400  -77.620100
  H    -35.054300  -45.473800  -76.182300
  H    -36.757600  -53.110800  -78.285100
  H    -39.779000  -48.477600  -71.817000

 Total Charge           Charge          ....    0
 Multiplicity           Mult            ....    1
 Number of Electrons    NEL             ....  134
 Basis Dimension        Dim             ....  322

ORBITAL ENERGIES
----------------

  NO   OCC          E(Eh)            E(eV)
   0   2.0000     -88.968661     -2420.9603
   1   2.0000     -88.959514     -2420.7114
   2   2.0000     -10.326152      -280.9889
   3   2.0000     -10.322048      -280.8772
   4   2.0000     -10.321827      -280.8712
   5   2.0000     -10.320452      -280.8338
   6   2.0000     -10.304665      -280.4042
   7   2.0000     -10.303334      -280.3680
   8   2.0000     -10.300268      -280.2845
   9   2.0000     -10.298672      -280.2411
  10   2.0000     -10.293764      -280.1076
  11   2.0000     -10.293277      -280.0943
  12   2.0000     -10.291129      -280.0358
  13   2.0000     -10.290208      -280.0108
  14   2.0000     -10.279370      -279.7159
  15   2.0000     -10.276987      -279.6510
  16   2.0000      -8.082646      -219.9400
  17   2.0000      -8.073674      -219.6958
  18   2.0000      -6.041292      -164.3919
  19   2.0000      -6.037172      -164.2798
  20   2.0000      -6.033372      -164.1764
  21   2.0000      -6.032310      -164.1475
  22   2.0000      -6.028418      -164.0416
  23   2.0000      -6.024167      -163.9259
  24   2.0000      -1.005141       -27.3513
  25   2.0000      -0.979242       -26.6465
  26   2.0000      -0.916522       -24.9398
  27   2.0000      -0.900839       -24.5131
  28   2.0000      -0.874964       -23.8090
  29   2.0000      -0.854398       -23.2494
  30   2.0000      -0.844249       -22.9732
  31   2.0000      -0.813267       -22.1301
  32   2.0000      -0.787476       -21.4283
  33   2.0000      -0.771275       -20.9875
  34   2.0000      -0.711943       -19.3730
  35   2.0000      -0.701550       -19.0902
  36   2.0000      -0.695875       -18.9357
  37   2.0000      -0.656212       -17.8564
  38   2.0000      -0.635742       -17.2994
  39   2.0000      -0.620078       -16.8732
  40   2.0000      -0.589714       -16.0469
  41   2.0000      -0.574379       -15.6296
  42   2.0000      -0.560733       -15.2583
  43   2.0000      -0.555044       -15.1035
  44   2.0000      -0.542317       -14.7572
  45   2.0000      -0.529459       -14.4073
  46   2.0000      -0.520278       -14.1575
  47   2.0000      -0.514918       -14.0116
  48   2.0000      -0.501222       -13.6390
  49   2.0000      -0.497030       -13.5249
  50   2.0000      -0.492803       -13.4098
  51   2.0000      -0.479372       -13.0444
  52   2.0000      -0.472225       -12.8499
  53   2.0000      -0.465575       -12.6689
  54   2.0000      -0.453190       -12.3319
  55   2.0000      -0.451096       -12.2749
  56   2.0000      -0.447147       -12.1675
  57   2.0000      -0.441427       -12.0118
  58   2.0000      -0.431965       -11.7544
  59   2.0000      -0.427303       -11.6275
  60   2.0000      -0.418739       -11.3945
  61   2.0000      -0.416891       -11.3442
  62   2.0000      -0.401709       -10.9311
  63   2.0000      -0.341902        -9.3036
  64   2.0000      -0.331674        -9.0253
  65   2.0000      -0.323529        -8.8037
  66   2.0000      -0.296936        -8.0801
  67   0.0000       0.030195         0.8216
  68   0.0000       0.070060         1.9064
  69   0.0000       0.111632         3.0377
  70   0.0000       0.114873         3.1259
  71   0.0000       0.128293         3.4910

MULLIKEN ATOMIC CHARGES
-----------------------
   0 S :    0.117424
   1 C :   -0.156088
   2 C :   -0.084892
   3 C :    0.010580
   4 C :   -0.147061
   5 H :   -0.006427
   6 C :    0.101939
   7 H :    0.023280
   8 H :    0.041691
   9 C :   -0.070190
  10 H :    0.020773
  11 H :    0.031870
  12 C :   -0.045402
  13 H :    0.022212
  14 H :    0.011689
  15 H :    0.042240
  16 S :    0.079279
  17 C :   -0.110060
  18 C :   -0.023082
  19 C :   -0.041903
  20 C :   -0.132033
  21 H :    0.013845
  22 C :    0.033765
  23 H :    0.040033
  24 H :    0.042603
  25 C :   -0.064559
  26 H :    0.032014
  27 H :    0.046000
  28 C :   -0.051180
  29 H :    0.033474
  30 H :    0.036131
  31 H :    0.023031
  32 H :    0.057395
  33 H :    0.071610
Sum of atomic charges:    0.0000000

LOEWDIN ATOMIC CHARGES
----------------------
   0 S :    0.404903
   1 C :   -0.192446
   2 C :   -0.058858
   3 C :   -0.063127
   4 C :   -0.212935
   5 H :    0.020496
   6 C :   -0.031160
   7 H :    0.038881
   8 H :    0.038622
   9 C :   -0.051678
  10 H :    0.032592
  11 H :    0.028031
  12 C :   -0.064145
  13 H :    0.019017
  14 H :    0.019638
  15 H :    0.029482
  16 S :    0.364616
  17 C :   -0.163507
  18 C :   -0.070979
  19 C :   -0.049386
  20 C :   -0.195185
  21 H :    0.030639
  22 C :   -0.033555
  23 H :    0.028934
  24 H :    0.036022
  25 C :   -0.043099
  26 H :    0.024962
  27 H :    0.032983
  28 C :   -0.070400
  29 H :    0.027828
  30 H :    0.028123
  31 H :    0.023306
  32 H :    0.036997
  33 H :    0.034389

  Mayer bond orders larger than 0.100000
B(  0-S ,  1-C ) :   1.1280 B(  0-S ,  4-C ) :   1.1574 B(  1-C ,  2-C ) :   1.6203
B(  1-C , 32-H ) :   0.9625 B(  2-C ,  3-C ) :   1.2531 B(  2-C ,  6-C ) :   0.9849
B(  3-C ,  4-C ) :   1.5448 B(  3-C ,  5-H ) :   0.9986 B(  4-C , 20-C ) :   1.0268
B(  6-C ,  7-H ) :   0.9359 B(  6-C ,  8-H ) :   0.9386 B(  6-C ,  9-C ) :   1.0688
B(  9-C , 10-H ) :   0.9530 B(  9-C , 11-H ) :   0.9594 B(  9-C , 12-C ) :   1.0702
B( 12-C , 13-H ) :   0.9755 B( 12-C , 14-H ) :   0.9706 B( 12-C , 15-H ) :   0.9754
B( 16-S , 17-C ) :   1.1443 B( 16-S , 20-C ) :   1.1111 B( 17-C , 18-C ) :   1.6404
B( 17-C , 33-H ) :   0.9611 B( 18-C , 19-C ) :   1.1880 B( 18-C , 21-H ) :   1.0013
B( 19-C , 20-C ) :   1.6464 B( 19-C , 22-C ) :   1.0330 B( 22-C , 23-H ) :   0.9347
B( 22-C , 24-H ) :   0.9255 B( 22-C , 25-C ) :   1.0485 B( 25-C , 26-H ) :   0.9486
B( 25-C , 27-H ) :   0.9577 B( 25-C , 28-C ) :   1.0927 B( 28-C , 29-H ) :   0.9715
B( 28-C , 30-H ) :   0.9745 B( 28-C , 31-H ) :   0.9725

Dispersion correction           -0.014184808
FINAL SINGLE POINT ENERGY     -1339.862382589552

DIPOLE MOMENT
-------------
                                X             Y             Z
Electronic contribution:    -25.65198     -15.53949       8.96420
Nuclear contribution   :     26.42261      16.00565      -9.16516
                        -----------------------------------------
Total Dipole Moment    :      0.77064       0.46616      -0.20096
                        -----------------------------------------
Magnitude (a.u.)       :      0.92281
Magnitude (Debye)      :      2.34559

Rotational constants in cm-1:     0.014924     0.009968     0.007235
Rotational constants in MHz :   447.414167   298.836946   216.906681

                             ****ORCA TERMINATED NORMALLY****
TOTAL RUN TIME: 0 days 0 hours 0 minutes 21 seconds 863 msec
