                         Program Version 4.2.1 -  RELEASE  -
|  1> ! wB97X-D3 SP def2-SVP
|  2> %pal
|  3> nprocs 24
|  4> end
|  5>
|  6> * xyz 0 1
|  7> S 	 -75.8096 	 -6.73009 	 -59.2607
|  8> C 	 -75.3046 	 -5.4273 	 -60.3149
|  9> C 	 -76.2621 	 -5.06317 	 -61.2626
| 10> C 	 -77.5032 	 -5.73372 	 -61.0262
| 11> C 	 -77.367 	 -6.74192 	 -60.084
| 12> H 	 -78.4766 	 -5.5704 	 -61.5673
| 13> C 	 -76.0774 	 -3.90258 	 -62.352
| 14> H 	 -75.3069 	 -4.25702 	 -62.9581
| 15> H 	 -75.7619 	 -2.9313 	 -62.0018
| 16> C 	 -77.321 	 -3.50854 	 -63.1687
| 17> H 	 -77.4778 	 -4.4253 	 -63.74
| 18> H 	 -78.1715 	 -3.48133 	 -62.5574
| 19> C 	 -77.1072 	 -2.23284 	 -64.0007
| 20> H 	 -76.6808 	 -2.51465 	 -64.9389
| 21> H 	 -78.064 	 -1.65569 	 -64.1847
| 22> H 	 -76.4563 	 -1.51909 	 -63.4634
| 23> S 	 -78.1404 	 -9.07716 	 -61.2017
| 24> C 	 -79.5182 	 -9.92118 	 -60.5599
| 25> C 	 -80.2046 	 -9.14882 	 -59.6142
| 26> C 	 -79.5143 	 -7.91856 	 -59.28
| 27> C 	 -78.3401 	 -7.8306 	 -59.9463
| 28> H 	 -81.0445 	 -9.4853 	 -59.0766
| 29> C 	 -80.0273 	 -6.93236 	 -58.1434
| 30> H 	 -81.0563 	 -6.6937 	 -58.4676
| 31> H 	 -79.5395 	 -5.89823 	 -58.2282
| 32> C 	 -79.9109 	 -7.40397 	 -56.6831
| 33> H 	 -80.4746 	 -8.34587 	 -56.5783
| 34> H 	 -80.4124 	 -6.74522 	 -56.0066
| 35> C 	 -78.4631 	 -7.66276 	 -56.3119
| 36> H 	 -77.9058 	 -6.72156 	 -56.3589
| 37> H 	 -78.0552 	 -8.42058 	 -56.9347
| 38> H 	 -78.4264 	 -8.09495 	 -55.3038
| 39> H 	 -74.2451 	 -5.2294 	 -60.4093
| 40> H 	 -79.7866 	 -10.8993 	 -60.7679
| 41> *
| 42>
| 43>                          ****END OF INPUT****

CARTESIAN COORDINATES (ANGSTROEM)
---------------------------------
  S    -75.809600   -6.730090  -59.260700
  C    -75.304600   -5.427300  -60.314900
  C    -76.262100   -5.063170  -61.262600
  C    -77.503200   -5.733720  -61.026200
  C    -77.367000   -6.741920  -60.084000
  H    -78.476600   -5.570400  -61.567300
  C    -76.077400   -3.902580  -62.352000
  H    -75.306900   -4.257020  -62.958100
  H    -75.761900   -2.931300  -62.001800
  C    -77.321000   -3.508540  -63.168700
  H    -77.477800   -4.425300  -63.740000
  H    -78.171500   -3.481330  -62.557400
  C    -77.107200   -2.232840  -64.000700
  H    -76.680800   -2.514650  -64.938900
  H    -78.064000   -1.655690  -64.184700
  H    -76.456300   -1.519090  -63.463400
  S    -78.140400   -9.077160  -61.201700
  C    -79.518200   -9.921180  -60.559900
  C    -80.204600   -9.148820  -59.614200
  C    -79.514300   -7.918560  -59.280000
  C    -78.340100   -7.830600  -59.946300
  H    -81.044500   -9.485300  -59.076600
  C    -80.027300   -6.932360  -58.143400
  H    -81.056300   -6.693700  -58.467600
  H    -79.539500   -5.898230  -58.228200
  C    -79.910900   -7.403970  -56.683100
  H    -80.474600   -8.345870  -56.578300
  H    -80.412400   -6.745220  -56.006600
  C    -78.463100   -7.662760  -56.311900
  H    -77.905800   -6.721560  -56.358900
  H    -78.055200   -8.420580  -56.934700
  H    -78.426400   -8.094950  -55.303800
  H    -74.245100   -5.229400  -60.409300
  H    -79.786600  -10.899300  -60.767900

 Total Charge           Charge          ....    0
 Multiplicity           Mult            ....    1
 Number of Electrons    NEL             ....  134
 Basis Dimension        Dim             ....  322

ORBITAL ENERGIES
----------------

  NO   OCC          E(Eh)            E(eV)
   0   2.0000     -88.968482     -2420.9555
   1   2.0000     -88.962789     -2420.8006
   2   2.0000     -10.326084      -280.9870
   3   2.0000     -10.321659      -280.8666
   4   2.0000     -10.314343      -280.6675
   5   2.0000     -10.312606      -280.6203
   6   2.0000     -10.308764      -280.5157
   7   2.0000     -10.305659      -280.4313
   8   2.0000     -10.302296      -280.3397
   9   2.0000     -10.298785      -280.2442
  10   2.0000     -10.293512      -280.1007
  11   2.0000     -10.290538      -280.0198
  12   2.0000     -10.286254      -279.9032
  13   2.0000     -10.284100      -279.8446
  14   2.0000     -10.281765      -279.7811
  15   2.0000     -10.269096      -279.4363
  16   2.0000      -8.082875      -219.9462
  17   2.0000      -8.077559      -219.8016
  18   2.0000      -6.041234      -164.3903
  19   2.0000      -6.037488      -164.2884
  20   2.0000      -6.036118      -164.2511
  21   2.0000      -6.033763      -164.1870
  22   2.0000      -6.032134      -164.1427
  23   2.0000      -6.028172      -164.0349
  24   2.0000      -1.002651       -27.2835
  25   2.0000      -0.978865       -26.6363
  26   2.0000      -0.908227       -24.7141
  27   2.0000      -0.903307       -24.5802
  28   2.0000      -0.865172       -23.5425
  29   2.0000      -0.846534       -23.0354
  30   2.0000      -0.845818       -23.0159
  31   2.0000      -0.806346       -21.9418
  32   2.0000      -0.781350       -21.2616
  33   2.0000      -0.772074       -21.0092
  34   2.0000      -0.709908       -19.3176
  35   2.0000      -0.695626       -18.9290
  36   2.0000      -0.687036       -18.6952
  37   2.0000      -0.663506       -18.0549
  38   2.0000      -0.640275       -17.4228
  39   2.0000      -0.613892       -16.7048
  40   2.0000      -0.593387       -16.1469
  41   2.0000      -0.573457       -15.6046
  42   2.0000      -0.559231       -15.2174
  43   2.0000      -0.550244       -14.9729
  44   2.0000      -0.546785       -14.8788
  45   2.0000      -0.518995       -14.1226
  46   2.0000      -0.516660       -14.0590
  47   2.0000      -0.503132       -13.6909
  48   2.0000      -0.494338       -13.4516
  49   2.0000      -0.492373       -13.3981
  50   2.0000      -0.484333       -13.1794
  51   2.0000      -0.475711       -12.9448
  52   2.0000      -0.474254       -12.9051
  53   2.0000      -0.460591       -12.5333
  54   2.0000      -0.456363       -12.4183
  55   2.0000      -0.452663       -12.3176
  56   2.0000      -0.447982       -12.1902
  57   2.0000      -0.435120       -11.8402
  58   2.0000      -0.433385       -11.7930
  59   2.0000      -0.428036       -11.6475
  60   2.0000      -0.417096       -11.3498
  61   2.0000      -0.413654       -11.2561
  62   2.0000      -0.408129       -11.1057
  63   2.0000      -0.340130        -9.2554
  64   2.0000      -0.329119        -8.9558
  65   2.0000      -0.317016        -8.6265
  66   2.0000      -0.308838        -8.4039
  67   0.0000       0.040014         1.0888
  68   0.0000       0.053211         1.4479
  69   0.0000       0.108228         2.9450
  70   0.0000       0.113358         3.0846
  71   0.0000       0.132731         3.6118

MULLIKEN ATOMIC CHARGES
-----------------------
   0 S :    0.118565
   1 C :   -0.125909
   2 C :   -0.082107
   3 C :    0.010995
   4 C :   -0.178080
   5 H :    0.044974
   6 C :    0.062440
   7 H :    0.022471
   8 H :    0.024241
   9 C :   -0.087884
  10 H :    0.026331
  11 H :    0.023411
  12 C :   -0.045083
  13 H :    0.039112
  14 H :    0.044789
  15 H :    0.035000
  16 S :    0.112230
  17 C :   -0.057492
  18 C :   -0.023676
  19 C :   -0.020263
  20 C :   -0.191345
  21 H :    0.002194
  22 C :    0.023477
  23 H :    0.030144
  24 H :    0.040401
  25 C :   -0.044251
  26 H :    0.018098
  27 H :    0.026777
  28 C :   -0.039690
  29 H :    0.037438
  30 H :    0.035144
  31 H :    0.029632
  32 H :    0.055509
  33 H :    0.032406
Sum of atomic charges:    0.0000000

LOEWDIN ATOMIC CHARGES
----------------------
   0 S :    0.408881
   1 C :   -0.201867
   2 C :   -0.055614
   3 C :   -0.068199
   4 C :   -0.201392
   5 H :    0.044771
   6 C :   -0.021539
   7 H :    0.022312
   8 H :    0.024343
   9 C :   -0.045034
  10 H :    0.025418
  11 H :    0.013633
  12 C :   -0.062936
  13 H :    0.025488
  14 H :    0.036592
  15 H :    0.027007
  16 S :    0.398270
  17 C :   -0.172874
  18 C :   -0.062456
  19 C :   -0.053784
  20 C :   -0.192212
  21 H :    0.021065
  22 C :   -0.034419
  23 H :    0.030525
  24 H :    0.036902
  25 C :   -0.041832
  26 H :    0.022365
  27 H :    0.021910
  28 C :   -0.061144
  29 H :    0.026234
  30 H :    0.022009
  31 H :    0.027999
  32 H :    0.025058
  33 H :    0.014515

  Mayer bond orders larger than 0.100000
B(  0-S ,  1-C ) :   1.1438 B(  0-S ,  4-C ) :   1.1626 B(  1-C ,  2-C ) :   1.6327
B(  1-C , 32-H ) :   0.9664 B(  2-C ,  3-C ) :   1.2494 B(  2-C ,  6-C ) :   0.9775
B(  3-C ,  4-C ) :   1.5803 B(  3-C ,  5-H ) :   0.9795 B(  4-C , 20-C ) :   0.9988
B(  6-C ,  7-H ) :   0.9417 B(  6-C ,  8-H ) :   0.9558 B(  6-C ,  9-C ) :   1.0723
B(  9-C , 10-H ) :   0.9559 B(  9-C , 11-H ) :   0.9558 B(  9-C , 12-C ) :   1.0679
B( 12-C , 13-H ) :   0.9774 B( 12-C , 14-H ) :   0.9756 B( 12-C , 15-H ) :   0.9756
B( 16-S , 17-C ) :   1.1475 B( 16-S , 20-C ) :   1.1319 B( 17-C , 18-C ) :   1.6249
B( 17-C , 33-H ) :   0.9773 B( 18-C , 19-C ) :   1.2076 B( 18-C , 21-H ) :   0.9939
B( 19-C , 20-C ) :   1.6606 B( 19-C , 22-C ) :   1.0206 B( 22-C , 23-H ) :   0.9377
B( 22-C , 24-H ) :   0.9425 B( 22-C , 25-C ) :   1.0694 B( 25-C , 26-H ) :   0.9531
B( 25-C , 27-H ) :   0.9538 B( 25-C , 28-C ) :   1.0773 B( 28-C , 29-H ) :   0.9754
B( 28-C , 30-H ) :   0.9743 B( 28-C , 31-H ) :   0.9705

Dispersion correction           -0.014710492
FINAL SINGLE POINT ENERGY     -1339.861496446638

DIPOLE MOMENT
-------------
                                X             Y             Z
Electronic contribution:      6.35843     -16.89445      -0.23064
Nuclear contribution   :     -6.64198      17.14386       0.14338
                        -----------------------------------------
Total Dipole Moment    :     -0.28355       0.24941      -0.08726
                        -----------------------------------------
Magnitude (a.u.)       :      0.38759
Magnitude (Debye)      :      0.98516

Rotational constants in cm-1:     0.019871     0.007760     0.007149
Rotational constants in MHz :   595.725343   232.639153   214.307921

                             ****ORCA TERMINATED NORMALLY****
TOTAL RUN TIME: 0 days 0 hours 0 minutes 22 seconds 330 msec
