                         Program Version 4.2.1 -  RELEASE  -
|  1> ! wB97X-D3 SP def2-SVP
|  2> %pal
|  3> nprocs 24
|  4> end
|  5>
|  6> * xyz 0 1
|  7> S 	 -126.828 	 61.5449 	 -60.462
|  8> C 	 -128.456 	 62.1423 	 -60.8017
|  9> C 	 -129.419 	 61.2822 	 -60.3239
| 10> C 	 -128.884 	 60.1301 	 -59.7314
| 11> C 	 -127.505 	 60.0748 	 -59.6388
| 12> H 	 -129.466 	 59.3812 	 -59.244
| 13> C 	 -130.904 	 61.3765 	 -60.7035
| 14> H 	 -130.974 	 60.9554 	 -61.7007
| 15> H 	 -131.394 	 62.4074 	 -60.8627
| 16> C 	 -131.97 	 60.7262 	 -59.8671
| 17> H 	 -131.722 	 59.5793 	 -59.689
| 18> H 	 -131.902 	 61.1533 	 -58.9406
| 19> C 	 -133.388 	 60.7144 	 -60.3634
| 20> H 	 -133.866 	 61.5602 	 -60.8152
| 21> H 	 -133.604 	 59.9227 	 -61.0536
| 22> H 	 -134.073 	 60.5623 	 -59.4133
| 23> S 	 -125.76 	 58.1814 	 -60.5219
| 24> C 	 -125.611 	 56.7802 	 -59.5746
| 25> C 	 -125.977 	 56.9797 	 -58.205
| 26> C 	 -126.584 	 58.2566 	 -58.0426
| 27> C 	 -126.634 	 58.9217 	 -59.2545
| 28> H 	 -125.721 	 56.208 	 -57.484
| 29> C 	 -127.239 	 58.785 	 -56.7702
| 30> H 	 -128.285 	 58.5996 	 -56.8147
| 31> H 	 -127.228 	 59.855 	 -56.7962
| 32> C 	 -126.725 	 58.3255 	 -55.4567
| 33> H 	 -125.697 	 58.7222 	 -55.3154
| 34> H 	 -126.624 	 57.2742 	 -55.4211
| 35> C 	 -127.503 	 58.8787 	 -54.2676
| 36> H 	 -128.571 	 58.6151 	 -54.4145
| 37> H 	 -127.412 	 59.9564 	 -54.1384
| 38> H 	 -127.071 	 58.3351 	 -53.372
| 39> H 	 -128.719 	 63.0229 	 -61.3377
| 40> H 	 -125.253 	 55.8231 	 -59.9904
| 41> *
| 42>
| 43>                          ****END OF INPUT****

CARTESIAN COORDINATES (ANGSTROEM)
---------------------------------
  S    -126.828000   61.544900  -60.462000
  C    -128.456000   62.142300  -60.801700
  C    -129.419000   61.282200  -60.323900
  C    -128.884000   60.130100  -59.731400
  C    -127.505000   60.074800  -59.638800
  H    -129.466000   59.381200  -59.244000
  C    -130.904000   61.376500  -60.703500
  H    -130.974000   60.955400  -61.700700
  H    -131.394000   62.407400  -60.862700
  C    -131.970000   60.726200  -59.867100
  H    -131.722000   59.579300  -59.689000
  H    -131.902000   61.153300  -58.940600
  C    -133.388000   60.714400  -60.363400
  H    -133.866000   61.560200  -60.815200
  H    -133.604000   59.922700  -61.053600
  H    -134.073000   60.562300  -59.413300
  S    -125.760000   58.181400  -60.521900
  C    -125.611000   56.780200  -59.574600
  C    -125.977000   56.979700  -58.205000
  C    -126.584000   58.256600  -58.042600
  C    -126.634000   58.921700  -59.254500
  H    -125.721000   56.208000  -57.484000
  C    -127.239000   58.785000  -56.770200
  H    -128.285000   58.599600  -56.814700
  H    -127.228000   59.855000  -56.796200
  C    -126.725000   58.325500  -55.456700
  H    -125.697000   58.722200  -55.315400
  H    -126.624000   57.274200  -55.421100
  C    -127.503000   58.878700  -54.267600
  H    -128.571000   58.615100  -54.414500
  H    -127.412000   59.956400  -54.138400
  H    -127.071000   58.335100  -53.372000
  H    -128.719000   63.022900  -61.337700
  H    -125.253000   55.823100  -59.990400

 Total Charge           Charge          ....    0
 Multiplicity           Mult            ....    1
 Number of Electrons    NEL             ....  134
 Basis Dimension        Dim             ....  322

ORBITAL ENERGIES
----------------

  NO   OCC          E(Eh)            E(eV)
   0   2.0000     -88.969772     -2420.9906
   1   2.0000     -88.964687     -2420.8522
   2   2.0000     -10.334768      -281.2233
   3   2.0000     -10.321348      -280.8582
   4   2.0000     -10.320109      -280.8244
   5   2.0000     -10.311656      -280.5944
   6   2.0000     -10.305557      -280.4285
   7   2.0000     -10.300395      -280.2880
   8   2.0000     -10.300151      -280.2813
   9   2.0000     -10.295937      -280.1667
  10   2.0000     -10.290466      -280.0178
  11   2.0000     -10.287484      -279.9367
  12   2.0000     -10.284575      -279.8575
  13   2.0000     -10.284420      -279.8533
  14   2.0000     -10.282502      -279.8011
  15   2.0000     -10.280158      -279.7373
  16   2.0000      -8.086156      -220.0355
  17   2.0000      -8.078103      -219.8164
  18   2.0000      -6.044278      -164.4732
  19   2.0000      -6.040502      -164.3704
  20   2.0000      -6.037141      -164.2790
  21   2.0000      -6.036680      -164.2664
  22   2.0000      -6.032786      -164.1604
  23   2.0000      -6.028890      -164.0544
  24   2.0000      -1.009477       -27.4693
  25   2.0000      -0.982960       -26.7477
  26   2.0000      -0.918959       -25.0061
  27   2.0000      -0.912258       -24.8238
  28   2.0000      -0.865058       -23.5394
  29   2.0000      -0.858078       -23.3495
  30   2.0000      -0.844856       -22.9897
  31   2.0000      -0.812724       -22.1154
  32   2.0000      -0.785041       -21.3620
  33   2.0000      -0.773142       -21.0383
  34   2.0000      -0.705078       -19.1861
  35   2.0000      -0.701092       -19.0777
  36   2.0000      -0.689239       -18.7551
  37   2.0000      -0.655356       -17.8332
  38   2.0000      -0.641020       -17.4430
  39   2.0000      -0.623431       -16.9644
  40   2.0000      -0.603508       -16.4223
  41   2.0000      -0.573504       -15.6058
  42   2.0000      -0.569472       -15.4961
  43   2.0000      -0.563563       -15.3353
  44   2.0000      -0.529620       -14.4117
  45   2.0000      -0.520269       -14.1572
  46   2.0000      -0.516010       -14.0413
  47   2.0000      -0.508998       -13.8505
  48   2.0000      -0.505472       -13.7546
  49   2.0000      -0.493746       -13.4355
  50   2.0000      -0.490913       -13.3584
  51   2.0000      -0.482635       -13.1332
  52   2.0000      -0.474861       -12.9216
  53   2.0000      -0.468073       -12.7369
  54   2.0000      -0.458097       -12.4654
  55   2.0000      -0.455509       -12.3950
  56   2.0000      -0.448041       -12.1918
  57   2.0000      -0.436605       -11.8806
  58   2.0000      -0.430245       -11.7076
  59   2.0000      -0.424617       -11.5544
  60   2.0000      -0.419415       -11.4129
  61   2.0000      -0.414769       -11.2864
  62   2.0000      -0.405288       -11.0285
  63   2.0000      -0.342003        -9.3064
  64   2.0000      -0.333366        -9.0713
  65   2.0000      -0.326659        -8.8888
  66   2.0000      -0.290649        -7.9090
  67   0.0000       0.034091         0.9277
  68   0.0000       0.054680         1.4879
  69   0.0000       0.113963         3.1011
  70   0.0000       0.124234         3.3806
  71   0.0000       0.131197         3.5700

MULLIKEN ATOMIC CHARGES
-----------------------
   0 S :    0.087683
   1 C :   -0.106614
   2 C :   -0.029505
   3 C :    0.039761
   4 C :   -0.167234
   5 H :    0.005853
   6 C :    0.017070
   7 H :    0.038495
   8 H :    0.031145
   9 C :   -0.081225
  10 H :    0.037714
  11 H :    0.015419
  12 C :   -0.069455
  13 H :    0.023689
  14 H :    0.035234
  15 H :    0.042069
  16 S :    0.154201
  17 C :   -0.126611
  18 C :   -0.063403
  19 C :   -0.008880
  20 C :   -0.170009
  21 H :    0.029452
  22 C :    0.111028
  23 H :    0.013114
  24 H :    0.018034
  25 C :   -0.087116
  26 H :    0.029007
  27 H :    0.020017
  28 C :   -0.059407
  29 H :    0.031995
  30 H :    0.042801
  31 H :    0.044657
  32 H :    0.035076
  33 H :    0.065942
Sum of atomic charges:   -0.0000000

LOEWDIN ATOMIC CHARGES
----------------------
   0 S :    0.365440
   1 C :   -0.182191
   2 C :   -0.067131
   3 C :   -0.060466
   4 C :   -0.170059
   5 H :    0.027055
   6 C :   -0.042031
   7 H :    0.032249
   8 H :    0.038467
   9 C :   -0.050001
  10 H :    0.033226
  11 H :    0.011288
  12 C :   -0.072419
  13 H :    0.018830
  14 H :    0.023677
  15 H :    0.044588
  16 S :    0.460080
  17 C :   -0.203783
  18 C :   -0.074699
  19 C :   -0.046629
  20 C :   -0.224199
  21 H :    0.033118
  22 C :   -0.032649
  23 H :    0.027192
  24 H :    0.031831
  25 C :   -0.044679
  26 H :    0.029343
  27 H :    0.014940
  28 C :   -0.062538
  29 H :    0.024466
  30 H :    0.025934
  31 H :    0.036508
  32 H :    0.024679
  33 H :    0.030562

  Mayer bond orders larger than 0.100000
B(  0-S ,  1-C ) :   1.1347 B(  0-S ,  4-C ) :   1.1344 B(  1-C ,  2-C ) :   1.6173
B(  1-C ,  4-C ) :   0.1012 B(  1-C , 32-H ) :   0.9710 B(  2-C ,  3-C ) :   1.2487
B(  2-C ,  6-C ) :   1.0106 B(  3-C ,  4-C ) :   1.5945 B(  3-C ,  5-H ) :   0.9891
B(  4-C , 20-C ) :   1.0012 B(  6-C ,  7-H ) :   0.9438 B(  6-C ,  8-H ) :   0.9443
B(  6-C ,  9-C ) :   1.0650 B(  9-C , 10-H ) :   0.9397 B(  9-C , 11-H ) :   0.9633
B(  9-C , 12-C ) :   1.0801 B( 12-C , 13-H ) :   0.9750 B( 12-C , 14-H ) :   0.9760
B( 12-C , 15-H ) :   0.9721 B( 16-S , 17-C ) :   1.2026 B( 16-S , 20-C ) :   1.1665
B( 17-C , 18-C ) :   1.5580 B( 17-C , 33-H ) :   0.9658 B( 18-C , 19-C ) :   1.2529
B( 18-C , 21-H ) :   0.9945 B( 19-C , 20-C ) :   1.5795 B( 19-C , 22-C ) :   1.0340
B( 22-C , 23-H ) :   0.9195 B( 22-C , 24-H ) :   0.9246 B( 22-C , 25-C ) :   1.0776
B( 25-C , 26-H ) :   0.9509 B( 25-C , 27-H ) :   0.9505 B( 25-C , 28-C ) :   1.0883
B( 28-C , 29-H ) :   0.9740 B( 28-C , 30-H ) :   0.9756 B( 28-C , 31-H ) :   0.9728

Dispersion correction           -0.013327354
FINAL SINGLE POINT ENERGY     -1339.852889273619

DIPOLE MOMENT
-------------
                                X             Y             Z
Electronic contribution:     23.57883       0.77859     -17.08169
Nuclear contribution   :    -24.10306      -1.07525      17.32221
                        -----------------------------------------
Total Dipole Moment    :     -0.52423      -0.29666       0.24052
                        -----------------------------------------
Magnitude (a.u.)       :      0.64859
Magnitude (Debye)      :      1.64859

Rotational constants in cm-1:     0.015624     0.008206     0.006598
Rotational constants in MHz :   468.385682   246.017428   197.807828

                             ****ORCA TERMINATED NORMALLY****
TOTAL RUN TIME: 0 days 0 hours 0 minutes 20 seconds 792 msec
