                         Program Version 4.2.1 -  RELEASE  -
|  1> ! wB97X-D3 SP def2-SVP
|  2> %pal
|  3> nprocs 24
|  4> end
|  5>
|  6> * xyz 0 1
|  7> S 	 -59.7662 	 8.53451 	 -12.4359
|  8> C 	 -59.3342 	 7.03508 	 -11.6551
|  9> C 	 -59.4118 	 5.99333 	 -12.5583
| 10> C 	 -59.7462 	 6.43982 	 -13.8958
| 11> C 	 -59.9625 	 7.79075 	 -13.9907
| 12> H 	 -59.8771 	 5.88214 	 -14.7907
| 13> C 	 -58.9735 	 4.52512 	 -12.369
| 14> H 	 -59.5918 	 3.99926 	 -13.0811
| 15> H 	 -59.3028 	 4.23322 	 -11.3566
| 16> C 	 -57.484 	 4.25811 	 -12.6096
| 17> H 	 -57.2491 	 4.79887 	 -13.5085
| 18> H 	 -56.9384 	 4.75843 	 -11.8348
| 19> C 	 -57.0787 	 2.77446 	 -12.8235
| 20> H 	 -57.2263 	 2.26474 	 -11.8691
| 21> H 	 -57.6766 	 2.24724 	 -13.5835
| 22> H 	 -55.9835 	 2.78961 	 -13.0047
| 23> S 	 -61.8765 	 9.64207 	 -14.9112
| 24> C 	 -62.0723 	 9.98967 	 -16.5877
| 25> C 	 -61.1406 	 9.34154 	 -17.3474
| 26> C 	 -60.2097 	 8.57763 	 -16.502
| 27> C 	 -60.5268 	 8.54558 	 -15.1334
| 28> H 	 -61.2258 	 9.45755 	 -18.487
| 29> C 	 -59.0792 	 7.76962 	 -17.0222
| 30> H 	 -58.6763 	 7.20205 	 -16.228
| 31> H 	 -58.336 	 8.4659 	 -17.3675
| 32> C 	 -59.5138 	 6.7532 	 -18.1449
| 33> H 	 -58.6474 	 6.22485 	 -18.4793
| 34> H 	 -59.9087 	 7.17883 	 -19.0816
| 35> C 	 -60.5928 	 5.75053 	 -17.7932
| 36> H 	 -61.4821 	 6.33486 	 -17.3693
| 37> H 	 -60.2867 	 4.96006 	 -17.1702
| 38> H 	 -60.9308 	 5.21136 	 -18.6759
| 39> H 	 -59.0659 	 6.88147 	 -10.6154
| 40> H 	 -62.9481 	 10.4088 	 -16.9697
| 41> *
| 42>
| 43>                          ****END OF INPUT****

CARTESIAN COORDINATES (ANGSTROEM)
---------------------------------
  S    -59.766200    8.534510  -12.435900
  C    -59.334200    7.035080  -11.655100
  C    -59.411800    5.993330  -12.558300
  C    -59.746200    6.439820  -13.895800
  C    -59.962500    7.790750  -13.990700
  H    -59.877100    5.882140  -14.790700
  C    -58.973500    4.525120  -12.369000
  H    -59.591800    3.999260  -13.081100
  H    -59.302800    4.233220  -11.356600
  C    -57.484000    4.258110  -12.609600
  H    -57.249100    4.798870  -13.508500
  H    -56.938400    4.758430  -11.834800
  C    -57.078700    2.774460  -12.823500
  H    -57.226300    2.264740  -11.869100
  H    -57.676600    2.247240  -13.583500
  H    -55.983500    2.789610  -13.004700
  S    -61.876500    9.642070  -14.911200
  C    -62.072300    9.989670  -16.587700
  C    -61.140600    9.341540  -17.347400
  C    -60.209700    8.577630  -16.502000
  C    -60.526800    8.545580  -15.133400
  H    -61.225800    9.457550  -18.487000
  C    -59.079200    7.769620  -17.022200
  H    -58.676300    7.202050  -16.228000
  H    -58.336000    8.465900  -17.367500
  C    -59.513800    6.753200  -18.144900
  H    -58.647400    6.224850  -18.479300
  H    -59.908700    7.178830  -19.081600
  C    -60.592800    5.750530  -17.793200
  H    -61.482100    6.334860  -17.369300
  H    -60.286700    4.960060  -17.170200
  H    -60.930800    5.211360  -18.675900
  H    -59.065900    6.881470  -10.615400
  H    -62.948100   10.408800  -16.969700

 Total Charge           Charge          ....    0
 Multiplicity           Mult            ....    1
 Number of Electrons    NEL             ....  134
 Basis Dimension        Dim             ....  322

ORBITAL ENERGIES
----------------

  NO   OCC          E(Eh)            E(eV)
   0   2.0000     -88.967046     -2420.9164
   1   2.0000     -88.961078     -2420.7540
   2   2.0000     -10.332539      -281.1627
   3   2.0000     -10.331527      -281.1351
   4   2.0000     -10.316787      -280.7340
   5   2.0000     -10.312611      -280.6204
   6   2.0000     -10.307584      -280.4836
   7   2.0000     -10.304796      -280.4078
   8   2.0000     -10.304599      -280.4024
   9   2.0000     -10.293075      -280.0888
  10   2.0000     -10.292794      -280.0812
  11   2.0000     -10.286017      -279.8968
  12   2.0000     -10.285089      -279.8715
  13   2.0000     -10.284790      -279.8634
  14   2.0000     -10.284606      -279.8584
  15   2.0000     -10.275432      -279.6087
  16   2.0000      -8.082054      -219.9239
  17   2.0000      -8.076538      -219.7738
  18   2.0000      -6.040680      -164.3753
  19   2.0000      -6.036400      -164.2588
  20   2.0000      -6.035016      -164.2211
  21   2.0000      -6.032787      -164.1605
  22   2.0000      -6.030833      -164.1073
  23   2.0000      -6.027366      -164.0130
  24   2.0000      -1.008296       -27.4371
  25   2.0000      -0.986873       -26.8542
  26   2.0000      -0.909958       -24.7612
  27   2.0000      -0.909429       -24.7468
  28   2.0000      -0.871723       -23.7208
  29   2.0000      -0.850179       -23.1345
  30   2.0000      -0.843626       -22.9562
  31   2.0000      -0.820982       -22.3401
  32   2.0000      -0.782385       -21.2898
  33   2.0000      -0.773583       -21.0503
  34   2.0000      -0.705697       -19.2030
  35   2.0000      -0.703028       -19.1304
  36   2.0000      -0.698331       -19.0025
  37   2.0000      -0.654094       -17.7988
  38   2.0000      -0.643225       -17.5030
  39   2.0000      -0.619712       -16.8632
  40   2.0000      -0.597097       -16.2478
  41   2.0000      -0.569220       -15.4893
  42   2.0000      -0.564119       -15.3505
  43   2.0000      -0.555925       -15.1275
  44   2.0000      -0.539017       -14.6674
  45   2.0000      -0.528492       -14.3810
  46   2.0000      -0.524350       -14.2683
  47   2.0000      -0.512310       -13.9407
  48   2.0000      -0.509423       -13.8621
  49   2.0000      -0.500288       -13.6135
  50   2.0000      -0.489670       -13.3246
  51   2.0000      -0.479389       -13.0448
  52   2.0000      -0.471577       -12.8323
  53   2.0000      -0.464835       -12.6488
  54   2.0000      -0.461734       -12.5644
  55   2.0000      -0.449620       -12.2348
  56   2.0000      -0.444995       -12.1089
  57   2.0000      -0.440085       -11.9753
  58   2.0000      -0.436428       -11.8758
  59   2.0000      -0.422881       -11.5072
  60   2.0000      -0.418232       -11.3807
  61   2.0000      -0.414308       -11.2739
  62   2.0000      -0.405943       -11.0463
  63   2.0000      -0.355934        -9.6855
  64   2.0000      -0.330299        -8.9879
  65   2.0000      -0.325864        -8.8672
  66   2.0000      -0.295385        -8.0378
  67   0.0000       0.032423         0.8823
  68   0.0000       0.071382         1.9424
  69   0.0000       0.117899         3.2082
  70   0.0000       0.118997         3.2381
  71   0.0000       0.133707         3.6384

MULLIKEN ATOMIC CHARGES
-----------------------
   0 S :    0.112199
   1 C :   -0.114973
   2 C :   -0.104359
   3 C :    0.042413
   4 C :   -0.152874
   5 H :   -0.012505
   6 C :    0.068369
   7 H :    0.015697
   8 H :    0.022166
   9 C :   -0.049731
  10 H :    0.017664
  11 H :    0.020421
  12 C :   -0.047671
  13 H :    0.030359
  14 H :    0.043216
  15 H :    0.046444
  16 S :    0.094346
  17 C :   -0.070374
  18 C :   -0.053794
  19 C :   -0.105780
  20 C :   -0.124662
  21 H :    0.055796
  22 C :    0.132761
  23 H :    0.006685
  24 H :    0.036093
  25 C :   -0.085971
  26 H :    0.017242
  27 H :    0.024730
  28 C :   -0.068930
  29 H :    0.057896
  30 H :    0.026098
  31 H :    0.026588
  32 H :    0.049688
  33 H :    0.044757
Sum of atomic charges:   -0.0000000

LOEWDIN ATOMIC CHARGES
----------------------
   0 S :    0.415879
   1 C :   -0.200910
   2 C :   -0.060582
   3 C :   -0.063944
   4 C :   -0.193422
   5 H :    0.024961
   6 C :   -0.029520
   7 H :    0.025888
   8 H :    0.026842
   9 C :   -0.039562
  10 H :    0.020871
  11 H :    0.022361
  12 C :   -0.065098
  13 H :    0.024524
  14 H :    0.028404
  15 H :    0.034276
  16 S :    0.407651
  17 C :   -0.182063
  18 C :   -0.083376
  19 C :   -0.056876
  20 C :   -0.202082
  21 H :    0.049917
  22 C :   -0.025722
  23 H :    0.024104
  24 H :    0.035908
  25 C :   -0.042082
  26 H :    0.018825
  27 H :    0.024072
  28 C :   -0.071533
  29 H :    0.038351
  30 H :    0.011787
  31 H :    0.028277
  32 H :    0.033170
  33 H :    0.020703

  Mayer bond orders larger than 0.100000
B(  0-S ,  1-C ) :   1.1343 B(  0-S ,  4-C ) :   1.1543 B(  1-C ,  2-C ) :   1.6178
B(  1-C , 32-H ) :   0.9714 B(  2-C ,  3-C ) :   1.2254 B(  2-C ,  6-C ) :   1.0263
B(  3-C ,  4-C ) :   1.5818 B(  3-C ,  5-H ) :   0.9936 B(  4-C , 20-C ) :   1.0283
B(  6-C ,  7-H ) :   0.9388 B(  6-C ,  8-H ) :   0.9387 B(  6-C ,  9-C ) :   1.0627
B(  9-C , 10-H ) :   0.9556 B(  9-C , 11-H ) :   0.9529 B(  9-C , 12-C ) :   1.0774
B( 12-C , 13-H ) :   0.9761 B( 12-C , 14-H ) :   0.9755 B( 12-C , 15-H ) :   0.9738
B( 16-S , 17-C ) :   1.1683 B( 16-S , 20-C ) :   1.1317 B( 17-C , 18-C ) :   1.6211
B( 17-C , 33-H ) :   0.9693 B( 18-C , 19-C ) :   1.2109 B( 18-C , 21-H ) :   0.9808
B( 19-C , 20-C ) :   1.5889 B( 19-C , 22-C ) :   1.0639 B( 22-C , 23-H ) :   0.9316
B( 22-C , 24-H ) :   0.9238 B( 22-C , 25-C ) :   1.0587 B( 25-C , 26-H ) :   0.9558
B( 25-C , 27-H ) :   0.9595 B( 25-C , 28-C ) :   1.0842 B( 28-C , 29-H ) :   0.9691
B( 28-C , 30-H ) :   0.9698 B( 28-C , 31-H ) :   0.9691

Dispersion correction           -0.014790252
FINAL SINGLE POINT ENERGY     -1339.881090352574

DIPOLE MOMENT
-------------
                                X             Y             Z
Electronic contribution:    -12.18296      26.29203       9.69098
Nuclear contribution   :     12.40160     -26.89710     -10.08066
                        -----------------------------------------
Total Dipole Moment    :      0.21863      -0.60507      -0.38968
                        -----------------------------------------
Magnitude (a.u.)       :      0.75217
Magnitude (Debye)      :      1.91188

Rotational constants in cm-1:     0.019567     0.008912     0.006556
Rotational constants in MHz :   586.592376   267.183193   196.539816

                             ****ORCA TERMINATED NORMALLY****
TOTAL RUN TIME: 0 days 0 hours 0 minutes 22 seconds 68 msec
