                         Program Version 4.2.1 -  RELEASE  -
|  1> ! wB97X-D3 SP def2-SVP
|  2> %pal
|  3> nprocs 24
|  4> end
|  5>
|  6> * xyz 0 1
|  7> S 	 -34.4416 	 1.96394 	 10.7344
|  8> C 	 -33.4478 	 1.38792 	 12.1166
|  9> C 	 -34.1049 	 0.373227 	 12.8569
| 10> C 	 -35.4411 	 0.112548 	 12.4024
| 11> C 	 -35.8049 	 0.870828 	 11.2548
| 12> H 	 -36.1626 	 -0.627154 	 12.8255
| 13> C 	 -33.5156 	 -0.412562 	 14.0591
| 14> H 	 -32.5281 	 -0.732734 	 13.8621
| 15> H 	 -34.1311 	 -1.20569 	 14.2817
| 16> C 	 -33.4303 	 0.488703 	 15.3581
| 17> H 	 -32.8003 	 0.0862794 	 16.142
| 18> H 	 -32.729 	 1.31908 	 15.1094
| 19> C 	 -34.7289 	 0.956774 	 15.9977
| 20> H 	 -35.2569 	 0.074723 	 16.3415
| 21> H 	 -34.5687 	 1.57367 	 16.931
| 22> H 	 -35.4005 	 1.52172 	 15.2667
| 23> S 	 -37.0576 	 -0.197436 	 9.14925
| 24> C 	 -38.7433 	 0.0286468 	 8.90737
| 25> C 	 -39.2705 	 0.88747 	 9.85271
| 26> C 	 -38.3327 	 1.19367 	 10.944
| 27> C 	 -37.0644 	 0.832286 	 10.5876
| 28> H 	 -40.2662 	 1.11665 	 9.80299
| 29> C 	 -38.7208 	 1.95731 	 12.1828
| 30> H 	 -38.9878 	 2.96009 	 11.8185
| 31> H 	 -37.8419 	 2.05958 	 12.8334
| 32> C 	 -39.8529 	 1.2787 	 12.9441
| 33> H 	 -39.7947 	 0.233344 	 13.1063
| 34> H 	 -40.7203 	 1.26939 	 12.3577
| 35> C 	 -40.023 	 2.06723 	 14.2339
| 36> H 	 -40.8053 	 1.65768 	 14.8121
| 37> H 	 -40.3627 	 3.12917 	 13.987
| 38> H 	 -39.1022 	 2.03688 	 14.8354
| 39> H 	 -32.4848 	 1.78585 	 12.3837
| 40> H 	 -39.1172 	 -0.523492 	 8.04522
| 41> *
| 42>
| 43>                          ****END OF INPUT****

CARTESIAN COORDINATES (ANGSTROEM)
---------------------------------
  S    -34.441600    1.963940   10.734400
  C    -33.447800    1.387920   12.116600
  C    -34.104900    0.373227   12.856900
  C    -35.441100    0.112548   12.402400
  C    -35.804900    0.870828   11.254800
  H    -36.162600   -0.627154   12.825500
  C    -33.515600   -0.412562   14.059100
  H    -32.528100   -0.732734   13.862100
  H    -34.131100   -1.205690   14.281700
  C    -33.430300    0.488703   15.358100
  H    -32.800300    0.086279   16.142000
  H    -32.729000    1.319080   15.109400
  C    -34.728900    0.956774   15.997700
  H    -35.256900    0.074723   16.341500
  H    -34.568700    1.573670   16.931000
  H    -35.400500    1.521720   15.266700
  S    -37.057600   -0.197436    9.149250
  C    -38.743300    0.028647    8.907370
  C    -39.270500    0.887470    9.852710
  C    -38.332700    1.193670   10.944000
  C    -37.064400    0.832286   10.587600
  H    -40.266200    1.116650    9.802990
  C    -38.720800    1.957310   12.182800
  H    -38.987800    2.960090   11.818500
  H    -37.841900    2.059580   12.833400
  C    -39.852900    1.278700   12.944100
  H    -39.794700    0.233344   13.106300
  H    -40.720300    1.269390   12.357700
  C    -40.023000    2.067230   14.233900
  H    -40.805300    1.657680   14.812100
  H    -40.362700    3.129170   13.987000
  H    -39.102200    2.036880   14.835400
  H    -32.484800    1.785850   12.383700
  H    -39.117200   -0.523492    8.045220

 Total Charge           Charge          ....    0
 Multiplicity           Mult            ....    1
 Number of Electrons    NEL             ....  134
 Basis Dimension        Dim             ....  322

ORBITAL ENERGIES
----------------

  NO   OCC          E(Eh)            E(eV)
   0   2.0000     -88.969416     -2420.9809
   1   2.0000     -88.954263     -2420.5686
   2   2.0000     -10.333227      -281.1814
   3   2.0000     -10.321127      -280.8521
   4   2.0000     -10.317760      -280.7605
   5   2.0000     -10.317425      -280.7514
   6   2.0000     -10.308496      -280.5084
   7   2.0000     -10.305440      -280.4253
   8   2.0000     -10.303365      -280.3688
   9   2.0000     -10.292211      -280.0653
  10   2.0000     -10.292055      -280.0611
  11   2.0000     -10.290842      -280.0280
  12   2.0000     -10.288596      -279.9669
  13   2.0000     -10.285456      -279.8815
  14   2.0000     -10.279519      -279.7199
  15   2.0000     -10.277968      -279.6777
  16   2.0000      -8.081920      -219.9202
  17   2.0000      -8.070409      -219.6070
  18   2.0000      -6.040537      -164.3714
  19   2.0000      -6.036754      -164.2684
  20   2.0000      -6.032690      -164.1579
  21   2.0000      -6.028811      -164.0523
  22   2.0000      -6.024689      -163.9401
  23   2.0000      -6.021210      -163.8455
  24   2.0000      -1.000674       -27.2297
  25   2.0000      -0.969222       -26.3739
  26   2.0000      -0.916452       -24.9379
  27   2.0000      -0.903364       -24.5818
  28   2.0000      -0.867227       -23.5985
  29   2.0000      -0.850543       -23.1444
  30   2.0000      -0.840933       -22.8829
  31   2.0000      -0.806843       -21.9553
  32   2.0000      -0.782264       -21.2865
  33   2.0000      -0.769393       -20.9362
  34   2.0000      -0.712986       -19.4013
  35   2.0000      -0.702558       -19.1176
  36   2.0000      -0.694343       -18.8940
  37   2.0000      -0.663848       -18.0642
  38   2.0000      -0.636670       -17.3247
  39   2.0000      -0.610693       -16.6178
  40   2.0000      -0.599214       -16.3054
  41   2.0000      -0.569627       -15.5003
  42   2.0000      -0.563808       -15.3420
  43   2.0000      -0.550782       -14.9875
  44   2.0000      -0.538061       -14.6414
  45   2.0000      -0.533406       -14.5147
  46   2.0000      -0.517667       -14.0864
  47   2.0000      -0.508383       -13.8338
  48   2.0000      -0.505795       -13.7634
  49   2.0000      -0.488890       -13.3034
  50   2.0000      -0.486625       -13.2417
  51   2.0000      -0.475629       -12.9425
  52   2.0000      -0.470476       -12.8023
  53   2.0000      -0.462308       -12.5800
  54   2.0000      -0.455360       -12.3910
  55   2.0000      -0.450140       -12.2489
  56   2.0000      -0.445864       -12.1326
  57   2.0000      -0.441093       -12.0027
  58   2.0000      -0.434360       -11.8195
  59   2.0000      -0.426063       -11.5938
  60   2.0000      -0.422626       -11.5002
  61   2.0000      -0.411256       -11.1908
  62   2.0000      -0.406632       -11.0650
  63   2.0000      -0.335494        -9.1293
  64   2.0000      -0.326214        -8.8767
  65   2.0000      -0.323164        -8.7937
  66   2.0000      -0.298398        -8.1198
  67   0.0000       0.036681         0.9981
  68   0.0000       0.055437         1.5085
  69   0.0000       0.109684         2.9847
  70   0.0000       0.114419         3.1135
  71   0.0000       0.126388         3.4392

MULLIKEN ATOMIC CHARGES
-----------------------
   0 S :    0.109061
   1 C :   -0.115419
   2 C :   -0.110267
   3 C :    0.036523
   4 C :   -0.184185
   5 H :    0.037077
   6 C :    0.155343
   7 H :    0.022968
   8 H :   -0.000866
   9 C :   -0.102597
  10 H :    0.018144
  11 H :    0.015804
  12 C :   -0.074469
  13 H :    0.025777
  14 H :    0.045876
  15 H :    0.055393
  16 S :    0.086774
  17 C :   -0.101922
  18 C :    0.012389
  19 C :   -0.029650
  20 C :   -0.173629
  21 H :   -0.011431
  22 C :    0.067863
  23 H :    0.042387
  24 H :    0.029425
  25 C :   -0.061881
  26 H :    0.018184
  27 H :    0.006703
  28 C :   -0.032783
  29 H :    0.018928
  30 H :    0.036700
  31 H :    0.040568
  32 H :    0.046637
  33 H :    0.070573
Sum of atomic charges:   -0.0000000

LOEWDIN ATOMIC CHARGES
----------------------
   0 S :    0.368156
   1 C :   -0.183873
   2 C :   -0.059090
   3 C :   -0.061224
   4 C :   -0.183617
   5 H :    0.041698
   6 C :   -0.009240
   7 H :    0.029541
   8 H :    0.015781
   9 C :   -0.050843
  10 H :    0.021032
  11 H :    0.021611
  12 C :   -0.075995
  13 H :    0.021409
  14 H :    0.035191
  15 H :    0.032886
  16 S :    0.401808
  17 C :   -0.180663
  18 C :   -0.067418
  19 C :   -0.041186
  20 C :   -0.208160
  21 H :    0.013484
  22 C :   -0.025143
  23 H :    0.039548
  24 H :    0.031684
  25 C :   -0.039208
  26 H :    0.022391
  27 H :    0.016925
  28 C :   -0.060542
  29 H :    0.016511
  30 H :    0.034116
  31 H :    0.028322
  32 H :    0.024475
  33 H :    0.029632

  Mayer bond orders larger than 0.100000
B(  0-S ,  1-C ) :   1.1340 B(  0-S ,  4-C ) :   1.1340 B(  1-C ,  2-C ) :   1.6060
B(  1-C ,  4-C ) :   0.1125 B(  1-C , 32-H ) :   0.9686 B(  2-C ,  3-C ) :   1.2377
B(  2-C ,  6-C ) :   1.0218 B(  3-C ,  4-C ) :   1.5774 B(  3-C ,  5-H ) :   0.9829
B(  4-C , 20-C ) :   1.0363 B(  6-C ,  7-H ) :   0.9374 B(  6-C ,  8-H ) :   0.9448
B(  6-C ,  9-C ) :   1.0647 B(  9-C , 10-H ) :   0.9545 B(  9-C , 11-H ) :   0.9559
B(  9-C , 12-C ) :   1.0731 B( 12-C , 13-H ) :   0.9730 B( 12-C , 14-H ) :   0.9718
B( 12-C , 15-H ) :   0.9746 B( 16-S , 17-C ) :   1.1742 B( 16-S , 20-C ) :   1.1318
B( 17-C , 18-C ) :   1.5964 B( 17-C , 33-H ) :   0.9708 B( 18-C , 19-C ) :   1.1854
B( 18-C , 21-H ) :   1.0068 B( 19-C , 20-C ) :   1.6386 B( 19-C , 22-C ) :   1.0466
B( 22-C , 23-H ) :   0.9312 B( 22-C , 24-H ) :   0.9424 B( 22-C , 25-C ) :   1.0490
B( 25-C , 26-H ) :   0.9562 B( 25-C , 27-H ) :   0.9476 B( 25-C , 28-C ) :   1.0943
B( 28-C , 29-H ) :   0.9718 B( 28-C , 30-H ) :   0.9703 B( 28-C , 31-H ) :   0.9751

Dispersion correction           -0.014510369
FINAL SINGLE POINT ENERGY     -1339.863529547383

DIPOLE MOMENT
-------------
                                X             Y             Z
Electronic contribution:      7.02423      -2.04920     -28.79360
Nuclear contribution   :     -7.35660       1.87524      29.40692
                        -----------------------------------------
Total Dipole Moment    :     -0.33237      -0.17396       0.61332
                        -----------------------------------------
Magnitude (a.u.)       :      0.71895
Magnitude (Debye)      :      1.82742

Rotational constants in cm-1:     0.016785     0.009539     0.006891
Rotational constants in MHz :   503.216488   285.965831   206.590741

                             ****ORCA TERMINATED NORMALLY****
TOTAL RUN TIME: 0 days 0 hours 0 minutes 21 seconds 525 msec
