                         Program Version 4.2.1 -  RELEASE  -
|  1> ! wB97X-D3 SP def2-SVP
|  2> %pal
|  3> nprocs 24
|  4> end
|  5>
|  6> * xyz 0 1
|  7> S 	 -114.972 	 57.5388 	 -79.7013
|  8> C 	 -116.259 	 58.2096 	 -80.7032
|  9> C 	 -116.13 	 57.872 	 -82.0598
| 10> C 	 -114.99 	 57.0709 	 -82.3392
| 11> C 	 -114.24 	 56.8484 	 -81.1884
| 12> H 	 -114.576 	 56.7041 	 -83.2961
| 13> C 	 -117.086 	 58.3483 	 -83.1722
| 14> H 	 -118.137 	 58.3899 	 -82.8435
| 15> H 	 -117.16 	 57.591 	 -84.019
| 16> C 	 -116.892 	 59.7702 	 -83.6447
| 17> H 	 -117.698 	 59.9137 	 -84.4459
| 18> H 	 -117 	 60.4698 	 -82.8215
| 19> C 	 -115.53 	 59.8623 	 -84.2442
| 20> H 	 -115.365 	 60.7794 	 -84.7999
| 21> H 	 -114.81 	 59.8393 	 -83.3908
| 22> H 	 -115.489 	 58.9892 	 -85.0162
| 23> S 	 -113.022 	 54.3959 	 -81.8384
| 24> C 	 -111.285 	 54.1554 	 -81.3356
| 25> C 	 -110.817 	 55.2491 	 -80.6907
| 26> C 	 -111.718 	 56.3184 	 -80.5768
| 27> C 	 -112.981 	 56.0443 	 -81.1545
| 28> H 	 -109.798 	 55.2389 	 -80.3508
| 29> C 	 -111.298 	 57.6067 	 -79.8333
| 30> H 	 -111.234 	 57.5374 	 -78.7161
| 31> H 	 -112.177 	 58.3521 	 -80.0198
| 32> C 	 -109.871 	 58.1515 	 -80.2671
| 33> H 	 -109.871 	 58.3351 	 -81.3579
| 34> H 	 -109.204 	 57.38 	 -80.0775
| 35> C 	 -109.568 	 59.5349 	 -79.5606
| 36> H 	 -110.422 	 60.1541 	 -79.8935
| 37> H 	 -108.574 	 59.8164 	 -79.8659
| 38> H 	 -109.614 	 59.3779 	 -78.4604
| 39> H 	 -117.06 	 58.8524 	 -80.3517
| 40> H 	 -110.702 	 53.2283 	 -81.4197
| 41> *
| 42>
| 43>                          ****END OF INPUT****

CARTESIAN COORDINATES (ANGSTROEM)
---------------------------------
  S    -114.972000   57.538800  -79.701300
  C    -116.259000   58.209600  -80.703200
  C    -116.130000   57.872000  -82.059800
  C    -114.990000   57.070900  -82.339200
  C    -114.240000   56.848400  -81.188400
  H    -114.576000   56.704100  -83.296100
  C    -117.086000   58.348300  -83.172200
  H    -118.137000   58.389900  -82.843500
  H    -117.160000   57.591000  -84.019000
  C    -116.892000   59.770200  -83.644700
  H    -117.698000   59.913700  -84.445900
  H    -117.000000   60.469800  -82.821500
  C    -115.530000   59.862300  -84.244200
  H    -115.365000   60.779400  -84.799900
  H    -114.810000   59.839300  -83.390800
  H    -115.489000   58.989200  -85.016200
  S    -113.022000   54.395900  -81.838400
  C    -111.285000   54.155400  -81.335600
  C    -110.817000   55.249100  -80.690700
  C    -111.718000   56.318400  -80.576800
  C    -112.981000   56.044300  -81.154500
  H    -109.798000   55.238900  -80.350800
  C    -111.298000   57.606700  -79.833300
  H    -111.234000   57.537400  -78.716100
  H    -112.177000   58.352100  -80.019800
  C    -109.871000   58.151500  -80.267100
  H    -109.871000   58.335100  -81.357900
  H    -109.204000   57.380000  -80.077500
  C    -109.568000   59.534900  -79.560600
  H    -110.422000   60.154100  -79.893500
  H    -108.574000   59.816400  -79.865900
  H    -109.614000   59.377900  -78.460400
  H    -117.060000   58.852400  -80.351700
  H    -110.702000   53.228300  -81.419700

 Total Charge           Charge          ....    0
 Multiplicity           Mult            ....    1
 Number of Electrons    NEL             ....  134
 Basis Dimension        Dim             ....  322

ORBITAL ENERGIES
----------------

  NO   OCC          E(Eh)            E(eV)
   0   2.0000     -88.974960     -2421.1318
   1   2.0000     -88.967814     -2420.9373
   2   2.0000     -10.336773      -281.2779
   3   2.0000     -10.334837      -281.2252
   4   2.0000     -10.321251      -280.8555
   5   2.0000     -10.319699      -280.8133
   6   2.0000     -10.307607      -280.4842
   7   2.0000     -10.305918      -280.4383
   8   2.0000     -10.303187      -280.3640
   9   2.0000     -10.299959      -280.2761
  10   2.0000     -10.295585      -280.1571
  11   2.0000     -10.289148      -279.9820
  12   2.0000     -10.286952      -279.9222
  13   2.0000     -10.286594      -279.9124
  14   2.0000     -10.285381      -279.8794
  15   2.0000     -10.279309      -279.7142
  16   2.0000      -8.088028      -220.0864
  17   2.0000      -8.080683      -219.8866
  18   2.0000      -6.046550      -164.5350
  19   2.0000      -6.042841      -164.4341
  20   2.0000      -6.039345      -164.3389
  21   2.0000      -6.038797      -164.3240
  22   2.0000      -6.035562      -164.2360
  23   2.0000      -6.031270      -164.1192
  24   2.0000      -0.996800       -27.1243
  25   2.0000      -0.976980       -26.5850
  26   2.0000      -0.916611       -24.9422
  27   2.0000      -0.895704       -24.3733
  28   2.0000      -0.865978       -23.5645
  29   2.0000      -0.849403       -23.1134
  30   2.0000      -0.840501       -22.8712
  31   2.0000      -0.812188       -22.1008
  32   2.0000      -0.776167       -21.1206
  33   2.0000      -0.762074       -20.7371
  34   2.0000      -0.702187       -19.1075
  35   2.0000      -0.695210       -18.9176
  36   2.0000      -0.688089       -18.7239
  37   2.0000      -0.655257       -17.8304
  38   2.0000      -0.636862       -17.3299
  39   2.0000      -0.609187       -16.5768
  40   2.0000      -0.592923       -16.1343
  41   2.0000      -0.578168       -15.7327
  42   2.0000      -0.561694       -15.2845
  43   2.0000      -0.549744       -14.9593
  44   2.0000      -0.542092       -14.7511
  45   2.0000      -0.527300       -14.3486
  46   2.0000      -0.511433       -13.9168
  47   2.0000      -0.509764       -13.8714
  48   2.0000      -0.501272       -13.6403
  49   2.0000      -0.485760       -13.2182
  50   2.0000      -0.480208       -13.0671
  51   2.0000      -0.477181       -12.9848
  52   2.0000      -0.465711       -12.6726
  53   2.0000      -0.459612       -12.5067
  54   2.0000      -0.457671       -12.4539
  55   2.0000      -0.448091       -12.1932
  56   2.0000      -0.441921       -12.0253
  57   2.0000      -0.431982       -11.7548
  58   2.0000      -0.427898       -11.6437
  59   2.0000      -0.423744       -11.5307
  60   2.0000      -0.417795       -11.3688
  61   2.0000      -0.416025       -11.3206
  62   2.0000      -0.413027       -11.2390
  63   2.0000      -0.347666        -9.4605
  64   2.0000      -0.339107        -9.2276
  65   2.0000      -0.326488        -8.8842
  66   2.0000      -0.291162        -7.9229
  67   0.0000       0.024871         0.6768
  68   0.0000       0.064291         1.7495
  69   0.0000       0.100957         2.7472
  70   0.0000       0.107574         2.9272
  71   0.0000       0.124327         3.3831

MULLIKEN ATOMIC CHARGES
-----------------------
   0 S :    0.124597
   1 C :   -0.119868
   2 C :   -0.066184
   3 C :    0.013465
   4 C :   -0.160261
   5 H :    0.035143
   6 C :    0.008820
   7 H :    0.023291
   8 H :    0.042809
   9 C :   -0.073681
  10 H :    0.039052
  11 H :    0.029890
  12 C :   -0.071790
  13 H :    0.031425
  14 H :    0.058910
  15 H :    0.034328
  16 S :    0.093403
  17 C :   -0.101994
  18 C :   -0.027563
  19 C :    0.005392
  20 C :   -0.164377
  21 H :    0.019011
  22 C :   -0.011317
  23 H :    0.046426
  24 H :    0.037794
  25 C :   -0.108844
  26 H :    0.041003
  27 H :    0.020309
  28 C :   -0.038535
  29 H :    0.048362
  30 H :    0.042845
  31 H :    0.036238
  32 H :    0.048918
  33 H :    0.062983
Sum of atomic charges:    0.0000000

LOEWDIN ATOMIC CHARGES
----------------------
   0 S :    0.396896
   1 C :   -0.195844
   2 C :   -0.061542
   3 C :   -0.062358
   4 C :   -0.178321
   5 H :    0.041579
   6 C :   -0.043323
   7 H :    0.030792
   8 H :    0.035807
   9 C :   -0.047050
  10 H :    0.031193
  11 H :    0.021182
  12 C :   -0.074000
  13 H :    0.019161
  14 H :    0.034360
  15 H :    0.033464
  16 S :    0.365447
  17 C :   -0.164136
  18 C :   -0.071958
  19 C :   -0.061815
  20 C :   -0.187033
  21 H :    0.032127
  22 C :   -0.045126
  23 H :    0.033104
  24 H :    0.029940
  25 C :   -0.036102
  26 H :    0.027471
  27 H :    0.006469
  28 C :   -0.060867
  29 H :    0.034122
  30 H :    0.025013
  31 H :    0.026573
  32 H :    0.028619
  33 H :    0.036156

  Mayer bond orders larger than 0.100000
B(  0-S ,  1-C ) :   1.1338 B(  0-S ,  4-C ) :   1.1387 B(  1-C ,  2-C ) :   1.6160
B(  1-C , 32-H ) :   0.9649 B(  2-C ,  3-C ) :   1.2265 B(  2-C ,  6-C ) :   1.0100
B(  3-C ,  4-C ) :   1.5790 B(  3-C ,  5-H ) :   0.9889 B(  4-C , 20-C ) :   1.0350
B(  6-C ,  7-H ) :   0.9400 B(  6-C ,  8-H ) :   0.9489 B(  6-C ,  9-C ) :   1.0752
B(  9-C , 10-H ) :   0.9516 B(  9-C , 11-H ) :   0.9533 B(  9-C , 12-C ) :   1.0805
B( 12-C , 13-H ) :   0.9729 B( 12-C , 14-H ) :   0.9684 B( 12-C , 15-H ) :   0.9717
B( 16-S , 17-C ) :   1.1235 B( 16-S , 20-C ) :   1.1340 B( 17-C , 18-C ) :   1.6462
B( 17-C , 33-H ) :   0.9612 B( 18-C , 19-C ) :   1.2335 B( 18-C , 21-H ) :   0.9851
B( 19-C , 20-C ) :   1.5850 B( 19-C , 22-C ) :   1.0337 B( 22-C , 23-H ) :   0.9434
B( 22-C , 24-H ) :   0.9352 B( 22-C , 25-C ) :   1.0429 B( 25-C , 26-H ) :   0.9610
B( 25-C , 27-H ) :   0.9573 B( 25-C , 28-C ) :   1.0715 B( 28-C , 29-H ) :   0.9773
B( 28-C , 30-H ) :   0.9752 B( 28-C , 31-H ) :   0.9764

Dispersion correction           -0.014146320
FINAL SINGLE POINT ENERGY     -1339.868412282838

DIPOLE MOMENT
-------------
                                X             Y             Z
Electronic contribution:     -5.30584     -20.21529       6.89051
Nuclear contribution   :      5.47663      20.54183      -6.98302
                        -----------------------------------------
Total Dipole Moment    :      0.17080       0.32654      -0.09251
                        -----------------------------------------
Magnitude (a.u.)       :      0.37995
Magnitude (Debye)      :      0.96574

Rotational constants in cm-1:     0.017773     0.008229     0.006951
Rotational constants in MHz :   532.812794   246.707414   208.396178

                             ****ORCA TERMINATED NORMALLY****
TOTAL RUN TIME: 0 days 0 hours 0 minutes 21 seconds 247 msec
