                         Program Version 4.2.1 -  RELEASE  -
|  1> ! wB97X-D3 SP def2-SVP
|  2> %pal
|  3> nprocs 24
|  4> end
|  5>
|  6> * xyz 0 1
|  7> S 	 32.5637 	 -36.8739 	 -130.469
|  8> C 	 32.9235 	 -35.1978 	 -130.208
|  9> C 	 32.2305 	 -34.4426 	 -131.113
| 10> C 	 31.3261 	 -35.2098 	 -131.903
| 11> C 	 31.3077 	 -36.5534 	 -131.683
| 12> H 	 30.6138 	 -34.793 	 -132.596
| 13> C 	 32.3041 	 -32.9262 	 -131.356
| 14> H 	 32.4743 	 -32.8814 	 -132.442
| 15> H 	 33.1792 	 -32.4607 	 -130.93
| 16> C 	 31.0007 	 -32.137 	 -131.082
| 17> H 	 30.8875 	 -31.2543 	 -131.718
| 18> H 	 30.1214 	 -32.7377 	 -131.223
| 19> C 	 30.9766 	 -31.639 	 -129.643
| 20> H 	 30.1554 	 -30.9542 	 -129.416
| 21> H 	 30.9435 	 -32.4409 	 -128.999
| 22> H 	 31.9074 	 -31.06 	 -129.365
| 23> S 	 31.367 	 -38.7483 	 -133.339
| 24> C 	 29.8965 	 -39.2448 	 -134.059
| 25> C 	 28.794 	 -38.5975 	 -133.6
| 26> C 	 29.1238 	 -37.5368 	 -132.695
| 27> C 	 30.4755 	 -37.5636 	 -132.392
| 28> H 	 27.8078 	 -38.726 	 -134.068
| 29> C 	 28.0447 	 -36.7682 	 -131.966
| 30> H 	 27.1147 	 -36.8619 	 -132.468
| 31> H 	 28.3371 	 -35.7257 	 -132.013
| 32> C 	 27.7884 	 -37.2118 	 -130.497
| 33> H 	 27.0867 	 -36.5341 	 -129.999
| 34> H 	 28.7358 	 -37.0787 	 -129.938
| 35> C 	 27.3629 	 -38.7228 	 -130.308
| 36> H 	 27.9245 	 -39.5113 	 -130.73
| 37> H 	 26.3972 	 -38.7917 	 -130.838
| 38> H 	 27.2327 	 -38.9236 	 -129.176
| 39> H 	 33.6402 	 -34.7667 	 -129.532
| 40> H 	 29.7515 	 -40.0126 	 -134.814
| 41> *
| 42>
| 43>                          ****END OF INPUT****

CARTESIAN COORDINATES (ANGSTROEM)
---------------------------------
  S     32.563700  -36.873900  -130.469000
  C     32.923500  -35.197800  -130.208000
  C     32.230500  -34.442600  -131.113000
  C     31.326100  -35.209800  -131.903000
  C     31.307700  -36.553400  -131.683000
  H     30.613800  -34.793000  -132.596000
  C     32.304100  -32.926200  -131.356000
  H     32.474300  -32.881400  -132.442000
  H     33.179200  -32.460700  -130.930000
  C     31.000700  -32.137000  -131.082000
  H     30.887500  -31.254300  -131.718000
  H     30.121400  -32.737700  -131.223000
  C     30.976600  -31.639000  -129.643000
  H     30.155400  -30.954200  -129.416000
  H     30.943500  -32.440900  -128.999000
  H     31.907400  -31.060000  -129.365000
  S     31.367000  -38.748300  -133.339000
  C     29.896500  -39.244800  -134.059000
  C     28.794000  -38.597500  -133.600000
  C     29.123800  -37.536800  -132.695000
  C     30.475500  -37.563600  -132.392000
  H     27.807800  -38.726000  -134.068000
  C     28.044700  -36.768200  -131.966000
  H     27.114700  -36.861900  -132.468000
  H     28.337100  -35.725700  -132.013000
  C     27.788400  -37.211800  -130.497000
  H     27.086700  -36.534100  -129.999000
  H     28.735800  -37.078700  -129.938000
  C     27.362900  -38.722800  -130.308000
  H     27.924500  -39.511300  -130.730000
  H     26.397200  -38.791700  -130.838000
  H     27.232700  -38.923600  -129.176000
  H     33.640200  -34.766700  -129.532000
  H     29.751500  -40.012600  -134.814000

 Total Charge           Charge          ....    0
 Multiplicity           Mult            ....    1
 Number of Electrons    NEL             ....  134
 Basis Dimension        Dim             ....  322

ORBITAL ENERGIES
----------------

  NO   OCC          E(Eh)            E(eV)
   0   2.0000     -88.969708     -2420.9888
   1   2.0000     -88.962547     -2420.7940
   2   2.0000     -10.331105      -281.1237
   3   2.0000     -10.330211      -281.0993
   4   2.0000     -10.313975      -280.6575
   5   2.0000     -10.312714      -280.6232
   6   2.0000     -10.304693      -280.4050
   7   2.0000     -10.299430      -280.2617
   8   2.0000     -10.294170      -280.1186
   9   2.0000     -10.292002      -280.0596
  10   2.0000     -10.290905      -280.0298
  11   2.0000     -10.290793      -280.0267
  12   2.0000     -10.288309      -279.9591
  13   2.0000     -10.286497      -279.9098
  14   2.0000     -10.281046      -279.7615
  15   2.0000     -10.271372      -279.4982
  16   2.0000      -8.085038      -220.0051
  17   2.0000      -8.077242      -219.7929
  18   2.0000      -6.043459      -164.4509
  19   2.0000      -6.039491      -164.3429
  20   2.0000      -6.035857      -164.2440
  21   2.0000      -6.035822      -164.2431
  22   2.0000      -6.031716      -164.1313
  23   2.0000      -6.027898      -164.0274
  24   2.0000      -1.009669       -27.4745
  25   2.0000      -0.990064       -26.9410
  26   2.0000      -0.909565       -24.7505
  27   2.0000      -0.905441       -24.6383
  28   2.0000      -0.870730       -23.6938
  29   2.0000      -0.847422       -23.0595
  30   2.0000      -0.843606       -22.9557
  31   2.0000      -0.815908       -22.2020
  32   2.0000      -0.783220       -21.3125
  33   2.0000      -0.774197       -21.0670
  34   2.0000      -0.710679       -19.3386
  35   2.0000      -0.699878       -19.0447
  36   2.0000      -0.689036       -18.7496
  37   2.0000      -0.661596       -18.0029
  38   2.0000      -0.641506       -17.4563
  39   2.0000      -0.623205       -16.9583
  40   2.0000      -0.593153       -16.1405
  41   2.0000      -0.571847       -15.5608
  42   2.0000      -0.554787       -15.0965
  43   2.0000      -0.548265       -14.9190
  44   2.0000      -0.541901       -14.7459
  45   2.0000      -0.531543       -14.4640
  46   2.0000      -0.514658       -14.0046
  47   2.0000      -0.508894       -13.8477
  48   2.0000      -0.504438       -13.7265
  49   2.0000      -0.490095       -13.3362
  50   2.0000      -0.487368       -13.2620
  51   2.0000      -0.483189       -13.1482
  52   2.0000      -0.474333       -12.9073
  53   2.0000      -0.468732       -12.7548
  54   2.0000      -0.464610       -12.6427
  55   2.0000      -0.448247       -12.1974
  56   2.0000      -0.437467       -11.9041
  57   2.0000      -0.435233       -11.8433
  58   2.0000      -0.433654       -11.8003
  59   2.0000      -0.430793       -11.7225
  60   2.0000      -0.425277       -11.5724
  61   2.0000      -0.410647       -11.1743
  62   2.0000      -0.407589       -11.0911
  63   2.0000      -0.349395        -9.5075
  64   2.0000      -0.335525        -9.1301
  65   2.0000      -0.325943        -8.8694
  66   2.0000      -0.298169        -8.1136
  67   0.0000       0.035486         0.9656
  68   0.0000       0.068457         1.8628
  69   0.0000       0.114572         3.1177
  70   0.0000       0.126221         3.4347
  71   0.0000       0.128699         3.5021

MULLIKEN ATOMIC CHARGES
-----------------------
   0 S :    0.092801
   1 C :   -0.106866
   2 C :   -0.092640
   3 C :    0.024151
   4 C :   -0.146580
   5 H :    0.008352
   6 C :    0.069506
   7 H :    0.034778
   8 H :    0.014534
   9 C :   -0.052981
  10 H :    0.029952
  11 H :    0.026553
  12 C :   -0.050254
  13 H :    0.033123
  14 H :    0.015853
  15 H :    0.024219
  16 S :    0.126088
  17 C :   -0.073369
  18 C :   -0.050470
  19 C :   -0.064815
  20 C :   -0.152464
  21 H :    0.027683
  22 C :    0.108360
  23 H :    0.006586
  24 H :    0.018948
  25 C :   -0.075236
  26 H :    0.035366
  27 H :    0.038357
  28 C :   -0.077764
  29 H :    0.043376
  30 H :    0.020475
  31 H :    0.051159
  32 H :    0.042120
  33 H :    0.051099
Sum of atomic charges:    0.0000000

LOEWDIN ATOMIC CHARGES
----------------------
   0 S :    0.390476
   1 C :   -0.198934
   2 C :   -0.068145
   3 C :   -0.065541
   4 C :   -0.188701
   5 H :    0.027222
   6 C :   -0.027771
   7 H :    0.038076
   8 H :    0.025253
   9 C :   -0.037293
  10 H :    0.024913
  11 H :    0.022332
  12 C :   -0.063157
  13 H :    0.025127
  14 H :    0.012033
  15 H :    0.026910
  16 S :    0.425692
  17 C :   -0.193412
  18 C :   -0.078934
  19 C :   -0.051093
  20 C :   -0.194503
  21 H :    0.036021
  22 C :   -0.028349
  23 H :    0.022231
  24 H :    0.030719
  25 C :   -0.036439
  26 H :    0.026097
  27 H :    0.025744
  28 C :   -0.071423
  29 H :    0.020113
  30 H :    0.022566
  31 H :    0.038997
  32 H :    0.031504
  33 H :    0.031670

  Mayer bond orders larger than 0.100000
B(  0-S ,  1-C ) :   1.1302 B(  0-S ,  4-C ) :   1.1340 B(  1-C ,  2-C ) :   1.6230
B(  1-C , 32-H ) :   0.9718 B(  2-C ,  3-C ) :   1.2313 B(  2-C ,  6-C ) :   1.0196
B(  3-C ,  4-C ) :   1.6030 B(  3-C ,  5-H ) :   0.9932 B(  4-C , 20-C ) :   1.0070
B(  6-C ,  7-H ) :   0.9377 B(  6-C ,  8-H ) :   0.9492 B(  6-C ,  9-C ) :   1.0571
B(  9-C , 10-H ) :   0.9572 B(  9-C , 11-H ) :   0.9581 B(  9-C , 12-C ) :   1.0784
B( 12-C , 13-H ) :   0.9742 B( 12-C , 14-H ) :   0.9780 B( 12-C , 15-H ) :   0.9756
B( 16-S , 17-C ) :   1.1615 B( 16-S , 20-C ) :   1.1470 B( 17-C , 18-C ) :   1.6320
B( 17-C , 33-H ) :   0.9595 B( 18-C , 19-C ) :   1.2362 B( 18-C , 21-H ) :   0.9811
B( 19-C , 20-C ) :   1.6060 B( 19-C , 22-C ) :   1.0506 B( 22-C , 23-H ) :   0.9355
B( 22-C , 24-H ) :   0.9219 B( 22-C , 25-C ) :   1.0732 B( 25-C , 26-H ) :   0.9573
B( 25-C , 27-H ) :   0.9572 B( 25-C , 28-C ) :   1.0588 B( 28-C , 29-H ) :   0.9786
B( 28-C , 30-H ) :   0.9765 B( 28-C , 31-H ) :   0.9752

Dispersion correction           -0.014949600
FINAL SINGLE POINT ENERGY     -1339.883163778914

DIPOLE MOMENT
-------------
                                X             Y             Z
Electronic contribution:     15.95439     -18.10260      -9.04645
Nuclear contribution   :    -16.40456      18.57625       8.84150
                        -----------------------------------------
Total Dipole Moment    :     -0.45017       0.47365      -0.20495
                        -----------------------------------------
Magnitude (a.u.)       :      0.68484
Magnitude (Debye)      :      1.74072

Rotational constants in cm-1:     0.019832     0.008596     0.007309
Rotational constants in MHz :   594.559522   257.716307   219.127603

                             ****ORCA TERMINATED NORMALLY****
TOTAL RUN TIME: 0 days 0 hours 0 minutes 22 seconds 191 msec
