                         Program Version 4.2.1 -  RELEASE  -
|  1> ! wB97X-D3 SP def2-SVP
|  2> %pal
|  3> nprocs 24
|  4> end
|  5>
|  6> * xyz 0 1
|  7> S 	 -59.9264 	 4.43098 	 -17.5576
|  8> C 	 -58.3364 	 4.43365 	 -16.7047
|  9> C 	 -57.4704 	 3.55434 	 -17.3523
| 10> C 	 -58.1979 	 2.80669 	 -18.3727
| 11> C 	 -59.5146 	 3.1035 	 -18.4958
| 12> H 	 -57.7589 	 2.16611 	 -19.1424
| 13> C 	 -55.967 	 3.27732 	 -17.0505
| 14> H 	 -55.7377 	 2.218 	 -17.0147
| 15> H 	 -55.8198 	 3.64946 	 -16.0486
| 16> C 	 -54.9465 	 4.03283 	 -17.8628
| 17> H 	 -55.1736 	 5.10278 	 -17.8539
| 18> H 	 -54.0109 	 3.96096 	 -17.3585
| 19> C 	 -54.7542 	 3.70617 	 -19.4024
| 20> H 	 -54.1937 	 2.77248 	 -19.6833
| 21> H 	 -55.6552 	 3.6542 	 -19.9762
| 22> H 	 -54.1634 	 4.51557 	 -19.9029
| 23> S 	 -61.3906 	 3.90656 	 -20.2925
| 24> C 	 -62.1239 	 2.70638 	 -21.3981
| 25> C 	 -61.6655 	 1.40727 	 -21.1459
| 26> C 	 -60.6685 	 1.38908 	 -20.1274
| 27> C 	 -60.4757 	 2.65787 	 -19.5101
| 28> H 	 -62.0428 	 0.606173 	 -21.672
| 29> C 	 -59.9358 	 0.123375 	 -19.6306
| 30> H 	 -60.482 	 -0.52067 	 -19.0183
| 31> H 	 -59.0668 	 0.307031 	 -19.0728
| 32> C 	 -59.2847 	 -0.809775 	 -20.7104
| 33> H 	 -58.642 	 -0.193168 	 -21.3134
| 34> H 	 -60.0512 	 -1.30117 	 -21.363
| 35> C 	 -58.3807 	 -1.88194 	 -20.0428
| 36> H 	 -59.0775 	 -2.45103 	 -19.5232
| 37> H 	 -57.7122 	 -1.39119 	 -19.2868
| 38> H 	 -57.7766 	 -2.4827 	 -20.7993
| 39> H 	 -58.0121 	 5.09696 	 -15.8361
| 40> H 	 -62.9711 	 2.80728 	 -22.0532
| 41> *
| 42>
| 43>                          ****END OF INPUT****

CARTESIAN COORDINATES (ANGSTROEM)
---------------------------------
  S    -59.926400    4.430980  -17.557600
  C    -58.336400    4.433650  -16.704700
  C    -57.470400    3.554340  -17.352300
  C    -58.197900    2.806690  -18.372700
  C    -59.514600    3.103500  -18.495800
  H    -57.758900    2.166110  -19.142400
  C    -55.967000    3.277320  -17.050500
  H    -55.737700    2.218000  -17.014700
  H    -55.819800    3.649460  -16.048600
  C    -54.946500    4.032830  -17.862800
  H    -55.173600    5.102780  -17.853900
  H    -54.010900    3.960960  -17.358500
  C    -54.754200    3.706170  -19.402400
  H    -54.193700    2.772480  -19.683300
  H    -55.655200    3.654200  -19.976200
  H    -54.163400    4.515570  -19.902900
  S    -61.390600    3.906560  -20.292500
  C    -62.123900    2.706380  -21.398100
  C    -61.665500    1.407270  -21.145900
  C    -60.668500    1.389080  -20.127400
  C    -60.475700    2.657870  -19.510100
  H    -62.042800    0.606173  -21.672000
  C    -59.935800    0.123375  -19.630600
  H    -60.482000   -0.520670  -19.018300
  H    -59.066800    0.307031  -19.072800
  C    -59.284700   -0.809775  -20.710400
  H    -58.642000   -0.193168  -21.313400
  H    -60.051200   -1.301170  -21.363000
  C    -58.380700   -1.881940  -20.042800
  H    -59.077500   -2.451030  -19.523200
  H    -57.712200   -1.391190  -19.286800
  H    -57.776600   -2.482700  -20.799300
  H    -58.012100    5.096960  -15.836100
  H    -62.971100    2.807280  -22.053200

 Total Charge           Charge          ....    0
 Multiplicity           Mult            ....    1
 Number of Electrons    NEL             ....  134
 Basis Dimension        Dim             ....  322

ORBITAL ENERGIES
----------------

  NO   OCC          E(Eh)            E(eV)
   0   2.0000     -88.972718     -2421.0707
   1   2.0000     -88.966071     -2420.8899
   2   2.0000     -10.332018      -281.1485
   3   2.0000     -10.326748      -281.0051
   4   2.0000     -10.324252      -280.9372
   5   2.0000     -10.320881      -280.8454
   6   2.0000     -10.311516      -280.5906
   7   2.0000     -10.311322      -280.5853
   8   2.0000     -10.296645      -280.1860
   9   2.0000     -10.295044      -280.1424
  10   2.0000     -10.291692      -280.0512
  11   2.0000     -10.289923      -280.0030
  12   2.0000     -10.288231      -279.9570
  13   2.0000     -10.284395      -279.8526
  14   2.0000     -10.283894      -279.8390
  15   2.0000     -10.283028      -279.8154
  16   2.0000      -8.086643      -220.0487
  17   2.0000      -8.081603      -219.9116
  18   2.0000      -6.045181      -164.4977
  19   2.0000      -6.041237      -164.3904
  20   2.0000      -6.040196      -164.3621
  21   2.0000      -6.037431      -164.2868
  22   2.0000      -6.036082      -164.2501
  23   2.0000      -6.032099      -164.1418
  24   2.0000      -1.011647       -27.5283
  25   2.0000      -0.980621       -26.6841
  26   2.0000      -0.911461       -24.8021
  27   2.0000      -0.906620       -24.6704
  28   2.0000      -0.869394       -23.6574
  29   2.0000      -0.849662       -23.1205
  30   2.0000      -0.838601       -22.8195
  31   2.0000      -0.814692       -22.1689
  32   2.0000      -0.788602       -21.4589
  33   2.0000      -0.771524       -20.9942
  34   2.0000      -0.705925       -19.2092
  35   2.0000      -0.698062       -18.9952
  36   2.0000      -0.695126       -18.9153
  37   2.0000      -0.662777       -18.0351
  38   2.0000      -0.638248       -17.3676
  39   2.0000      -0.617317       -16.7980
  40   2.0000      -0.598428       -16.2840
  41   2.0000      -0.574093       -15.6219
  42   2.0000      -0.572748       -15.5853
  43   2.0000      -0.544409       -14.8141
  44   2.0000      -0.539358       -14.6767
  45   2.0000      -0.522059       -14.2059
  46   2.0000      -0.518166       -14.1000
  47   2.0000      -0.508248       -13.8301
  48   2.0000      -0.505848       -13.7648
  49   2.0000      -0.495492       -13.4830
  50   2.0000      -0.487794       -13.2735
  51   2.0000      -0.479620       -13.0511
  52   2.0000      -0.469790       -12.7836
  53   2.0000      -0.464324       -12.6349
  54   2.0000      -0.463341       -12.6082
  55   2.0000      -0.455876       -12.4050
  56   2.0000      -0.441060       -12.0019
  57   2.0000      -0.437122       -11.8947
  58   2.0000      -0.429749       -11.6941
  59   2.0000      -0.423949       -11.5362
  60   2.0000      -0.421361       -11.4658
  61   2.0000      -0.418995       -11.4014
  62   2.0000      -0.414942       -11.2911
  63   2.0000      -0.354334        -9.6419
  64   2.0000      -0.335070        -9.1177
  65   2.0000      -0.329663        -8.9706
  66   2.0000      -0.288887        -7.8610
  67   0.0000       0.023959         0.6520
  68   0.0000       0.070278         1.9124
  69   0.0000       0.097639         2.6569
  70   0.0000       0.116111         3.1595
  71   0.0000       0.127598         3.4721

MULLIKEN ATOMIC CHARGES
-----------------------
   0 S :    0.090413
   1 C :   -0.143675
   2 C :   -0.098464
   3 C :    0.004246
   4 C :   -0.120877
   5 H :    0.023542
   6 C :    0.093621
   7 H :    0.034389
   8 H :    0.011814
   9 C :   -0.048263
  10 H :    0.026385
  11 H :    0.027136
  12 C :   -0.091368
  13 H :    0.034067
  14 H :    0.032671
  15 H :    0.036359
  16 S :    0.110448
  17 C :   -0.084944
  18 C :   -0.005292
  19 C :   -0.014955
  20 C :   -0.130993
  21 H :   -0.006167
  22 C :    0.096763
  23 H :    0.016177
  24 H :   -0.017201
  25 C :   -0.120198
  26 H :    0.024484
  27 H :    0.037246
  28 C :   -0.059546
  29 H :    0.018936
  30 H :    0.037325
  31 H :    0.057507
  32 H :    0.074726
  33 H :    0.053689
Sum of atomic charges:    0.0000000

LOEWDIN ATOMIC CHARGES
----------------------
   0 S :    0.411201
   1 C :   -0.198193
   2 C :   -0.054980
   3 C :   -0.076512
   4 C :   -0.212120
   5 H :    0.030900
   6 C :   -0.027915
   7 H :    0.031542
   8 H :    0.032547
   9 C :   -0.037570
  10 H :    0.029066
  11 H :    0.023536
  12 C :   -0.080394
  13 H :    0.026398
  14 H :    0.020132
  15 H :    0.032527
  16 S :    0.406097
  17 C :   -0.179149
  18 C :   -0.050802
  19 C :   -0.051639
  20 C :   -0.198356
  21 H :    0.020881
  22 C :   -0.026864
  23 H :    0.021847
  24 H :    0.019584
  25 C :   -0.037803
  26 H :    0.015376
  27 H :    0.021072
  28 C :   -0.065345
  29 H :    0.014053
  30 H :    0.028449
  31 H :    0.037672
  32 H :    0.045899
  33 H :    0.028861

  Mayer bond orders larger than 0.100000
B(  0-S ,  1-C ) :   1.1199 B(  0-S ,  4-C ) :   1.1540 B(  1-C ,  2-C ) :   1.6364
B(  1-C , 32-H ) :   0.9592 B(  2-C ,  3-C ) :   1.2214 B(  2-C ,  6-C ) :   1.0132
B(  3-C ,  4-C ) :   1.5951 B(  3-C ,  5-H ) :   0.9808 B(  4-C , 20-C ) :   1.0239
B(  6-C ,  7-H ) :   0.9482 B(  6-C ,  8-H ) :   0.9306 B(  6-C ,  9-C ) :   1.0845
B(  9-C , 10-H ) :   0.9533 B(  9-C , 11-H ) :   0.9557 B(  9-C , 12-C ) :   1.0649
B( 12-C , 13-H ) :   0.9780 B( 12-C , 14-H ) :   0.9768 B( 12-C , 15-H ) :   0.9760
B( 16-S , 17-C ) :   1.1428 B( 16-S , 20-C ) :   1.1530 B( 17-C , 18-C ) :   1.6091
B( 17-C , 20-C ) :   0.1057 B( 17-C , 33-H ) :   0.9647 B( 18-C , 19-C ) :   1.2519
B( 18-C , 21-H ) :   1.0005 B( 19-C , 20-C ) :   1.5744 B( 19-C , 22-C ) :   1.0352
B( 22-C , 23-H ) :   0.9373 B( 22-C , 24-H ) :   0.9376 B( 22-C , 25-C ) :   1.0445
B( 25-C , 26-H ) :   0.9622 B( 25-C , 27-H ) :   0.9561 B( 25-C , 28-C ) :   1.0749
B( 28-C , 29-H ) :   0.9774 B( 28-C , 30-H ) :   0.9728 B( 28-C , 31-H ) :   0.9735

Dispersion correction           -0.013827194
FINAL SINGLE POINT ENERGY     -1339.856858092729

DIPOLE MOMENT
-------------
                                X             Y             Z
Electronic contribution:    -23.90954      17.61726       3.09183
Nuclear contribution   :     24.37737     -18.00800      -3.15043
                        -----------------------------------------
Total Dipole Moment    :      0.46784      -0.39074      -0.05859
                        -----------------------------------------
Magnitude (a.u.)       :      0.61236
Magnitude (Debye)      :      1.55649

Rotational constants in cm-1:     0.015743     0.009599     0.006927
Rotational constants in MHz :   471.970544   287.777563   207.669754

                             ****ORCA TERMINATED NORMALLY****
TOTAL RUN TIME: 0 days 0 hours 0 minutes 21 seconds 394 msec
