                         Program Version 4.2.1 -  RELEASE  -
|  1> ! wB97X-D3 SP def2-SVP
|  2> %pal
|  3> nprocs 24
|  4> end
|  5>
|  6> * xyz 0 1
|  7> S 	 -116.034 	 45.5771 	 -112.619
|  8> C 	 -116.919 	 45.141 	 -114.065
|  9> C 	 -116.187 	 44.38 	 -114.888
| 10> C 	 -114.789 	 44.4516 	 -114.524
| 11> C 	 -114.55 	 45.1461 	 -113.367
| 12> H 	 -114.001 	 43.9296 	 -115.08
| 13> C 	 -116.624 	 43.6345 	 -116.1
| 14> H 	 -115.796 	 43.471 	 -116.762
| 15> H 	 -117.373 	 44.2622 	 -116.601
| 16> C 	 -117.348 	 42.3024 	 -115.657
| 17> H 	 -116.712 	 41.6555 	 -115.048
| 18> H 	 -118.192 	 42.5612 	 -115.048
| 19> C 	 -117.787 	 41.4791 	 -116.826
| 20> H 	 -118.689 	 41.861 	 -117.276
| 21> H 	 -116.978 	 41.2504 	 -117.525
| 22> H 	 -118.224 	 40.5568 	 -116.419
| 23> S 	 -113.023 	 45.4852 	 -111.16
| 24> C 	 -111.326 	 45.9977 	 -111.365
| 25> C 	 -111.002 	 46.2439 	 -112.743
| 26> C 	 -112.14 	 45.992 	 -113.613
| 27> C 	 -113.25 	 45.5847 	 -112.871
| 28> H 	 -110.065 	 46.6028 	 -113.08
| 29> C 	 -112.021 	 46.0737 	 -115.1
| 30> H 	 -112.426 	 45.1462 	 -115.585
| 31> H 	 -110.966 	 46.0129 	 -115.291
| 32> C 	 -112.518 	 47.3692 	 -115.753
| 33> H 	 -112.263 	 47.2178 	 -116.825
| 34> H 	 -111.965 	 48.2249 	 -115.389
| 35> C 	 -114.062 	 47.685 	 -115.721
| 36> H 	 -114.459 	 48.1723 	 -114.854
| 37> H 	 -114.693 	 46.8035 	 -116.02
| 38> H 	 -114.24 	 48.4635 	 -116.467
| 39> H 	 -117.994 	 45.1486 	 -114.081
| 40> H 	 -110.665 	 45.9915 	 -110.517
| 41> *
| 42>
| 43>                          ****END OF INPUT****

CARTESIAN COORDINATES (ANGSTROEM)
---------------------------------
  S    -116.034000   45.577100  -112.619000
  C    -116.919000   45.141000  -114.065000
  C    -116.187000   44.380000  -114.888000
  C    -114.789000   44.451600  -114.524000
  C    -114.550000   45.146100  -113.367000
  H    -114.001000   43.929600  -115.080000
  C    -116.624000   43.634500  -116.100000
  H    -115.796000   43.471000  -116.762000
  H    -117.373000   44.262200  -116.601000
  C    -117.348000   42.302400  -115.657000
  H    -116.712000   41.655500  -115.048000
  H    -118.192000   42.561200  -115.048000
  C    -117.787000   41.479100  -116.826000
  H    -118.689000   41.861000  -117.276000
  H    -116.978000   41.250400  -117.525000
  H    -118.224000   40.556800  -116.419000
  S    -113.023000   45.485200  -111.160000
  C    -111.326000   45.997700  -111.365000
  C    -111.002000   46.243900  -112.743000
  C    -112.140000   45.992000  -113.613000
  C    -113.250000   45.584700  -112.871000
  H    -110.065000   46.602800  -113.080000
  C    -112.021000   46.073700  -115.100000
  H    -112.426000   45.146200  -115.585000
  H    -110.966000   46.012900  -115.291000
  C    -112.518000   47.369200  -115.753000
  H    -112.263000   47.217800  -116.825000
  H    -111.965000   48.224900  -115.389000
  C    -114.062000   47.685000  -115.721000
  H    -114.459000   48.172300  -114.854000
  H    -114.693000   46.803500  -116.020000
  H    -114.240000   48.463500  -116.467000
  H    -117.994000   45.148600  -114.081000
  H    -110.665000   45.991500  -110.517000

 Total Charge           Charge          ....    0
 Multiplicity           Mult            ....    1
 Number of Electrons    NEL             ....  134
 Basis Dimension        Dim             ....  322

ORBITAL ENERGIES
----------------

  NO   OCC          E(Eh)            E(eV)
   0   2.0000     -88.968422     -2420.9538
   1   2.0000     -88.960492     -2420.7380
   2   2.0000     -10.324635      -280.9476
   3   2.0000     -10.324041      -280.9314
   4   2.0000     -10.322036      -280.8769
   5   2.0000     -10.304238      -280.3926
   6   2.0000     -10.302984      -280.3584
   7   2.0000     -10.302582      -280.3475
   8   2.0000     -10.293890      -280.1110
   9   2.0000     -10.292535      -280.0741
  10   2.0000     -10.291137      -280.0361
  11   2.0000     -10.289232      -279.9842
  12   2.0000     -10.287983      -279.9502
  13   2.0000     -10.285922      -279.8942
  14   2.0000     -10.275191      -279.6022
  15   2.0000     -10.271973      -279.5146
  16   2.0000      -8.082975      -219.9489
  17   2.0000      -8.076251      -219.7660
  18   2.0000      -6.041392      -164.3946
  19   2.0000      -6.037559      -164.2903
  20   2.0000      -6.034843      -164.2164
  21   2.0000      -6.033824      -164.1887
  22   2.0000      -6.030837      -164.1074
  23   2.0000      -6.026662      -163.9938
  24   2.0000      -1.009364       -27.4662
  25   2.0000      -0.981092       -26.6969
  26   2.0000      -0.914702       -24.8903
  27   2.0000      -0.904661       -24.6171
  28   2.0000      -0.869516       -23.6607
  29   2.0000      -0.848069       -23.0771
  30   2.0000      -0.844179       -22.9713
  31   2.0000      -0.809446       -22.0262
  32   2.0000      -0.783082       -21.3087
  33   2.0000      -0.773684       -21.0530
  34   2.0000      -0.703387       -19.1401
  35   2.0000      -0.701261       -19.0823
  36   2.0000      -0.687582       -18.7101
  37   2.0000      -0.669358       -18.2142
  38   2.0000      -0.638444       -17.3729
  39   2.0000      -0.617895       -16.8138
  40   2.0000      -0.592733       -16.1291
  41   2.0000      -0.576667       -15.6919
  42   2.0000      -0.558559       -15.1992
  43   2.0000      -0.544998       -14.8301
  44   2.0000      -0.537018       -14.6130
  45   2.0000      -0.526884       -14.3372
  46   2.0000      -0.515820       -14.0362
  47   2.0000      -0.511772       -13.9260
  48   2.0000      -0.503853       -13.7105
  49   2.0000      -0.497236       -13.5305
  50   2.0000      -0.490471       -13.3464
  51   2.0000      -0.475700       -12.9445
  52   2.0000      -0.470284       -12.7971
  53   2.0000      -0.465738       -12.6734
  54   2.0000      -0.453825       -12.3492
  55   2.0000      -0.450613       -12.2618
  56   2.0000      -0.447679       -12.1820
  57   2.0000      -0.435675       -11.8553
  58   2.0000      -0.433697       -11.8015
  59   2.0000      -0.423303       -11.5187
  60   2.0000      -0.418334       -11.3835
  61   2.0000      -0.414627       -11.2826
  62   2.0000      -0.412238       -11.2176
  63   2.0000      -0.349438        -9.5087
  64   2.0000      -0.332255        -9.0411
  65   2.0000      -0.323752        -8.8097
  66   2.0000      -0.283947        -7.7266
  67   0.0000       0.027013         0.7351
  68   0.0000       0.072593         1.9754
  69   0.0000       0.095593         2.6012
  70   0.0000       0.116812         3.1786
  71   0.0000       0.136422         3.7122

MULLIKEN ATOMIC CHARGES
-----------------------
   0 S :    0.097370
   1 C :   -0.122563
   2 C :   -0.076886
   3 C :   -0.037919
   4 C :   -0.093402
   5 H :    0.018714
   6 C :    0.085289
   7 H :    0.015431
   8 H :    0.029140
   9 C :   -0.091005
  10 H :    0.031457
  11 H :    0.020649
  12 C :   -0.017277
  13 H :    0.019966
  14 H :    0.041636
  15 H :    0.022320
  16 S :    0.105584
  17 C :   -0.098688
  18 C :   -0.010390
  19 C :   -0.059922
  20 C :   -0.139602
  21 H :    0.007429
  22 C :    0.075060
  23 H :    0.026327
  24 H :    0.004706
  25 C :   -0.058969
  26 H :    0.031888
  27 H :    0.027310
  28 C :   -0.053598
  29 H :    0.036626
  30 H :    0.046306
  31 H :    0.020818
  32 H :    0.037033
  33 H :    0.059162
Sum of atomic charges:   -0.0000000

LOEWDIN ATOMIC CHARGES
----------------------
   0 S :    0.404624
   1 C :   -0.196303
   2 C :   -0.061256
   3 C :   -0.072546
   4 C :   -0.197582
   5 H :    0.029090
   6 C :   -0.025918
   7 H :    0.024642
   8 H :    0.035422
   9 C :   -0.034159
  10 H :    0.025154
  11 H :    0.021516
  12 C :   -0.069527
  13 H :    0.022552
  14 H :    0.027204
  15 H :    0.029912
  16 S :    0.404415
  17 C :   -0.176519
  18 C :   -0.054089
  19 C :   -0.056570
  20 C :   -0.200154
  21 H :    0.024434
  22 C :   -0.037996
  23 H :    0.033699
  24 H :    0.029427
  25 C :   -0.033642
  26 H :    0.028794
  27 H :    0.023564
  28 C :   -0.073686
  29 H :    0.022917
  30 H :    0.032792
  31 H :    0.025679
  32 H :    0.021477
  33 H :    0.022633

  Mayer bond orders larger than 0.100000
B(  0-S ,  1-C ) :   1.1198 B(  0-S ,  4-C ) :   1.1521 B(  1-C ,  2-C ) :   1.6435
B(  1-C , 32-H ) :   0.9645 B(  2-C ,  3-C ) :   1.2199 B(  2-C ,  6-C ) :   1.0307
B(  3-C ,  4-C ) :   1.5780 B(  3-C ,  5-H ) :   0.9957 B(  4-C , 20-C ) :   1.0292
B(  6-C ,  7-H ) :   0.9420 B(  6-C ,  8-H ) :   0.9372 B(  6-C ,  9-C ) :   1.0544
B(  9-C , 10-H ) :   0.9593 B(  9-C , 11-H ) :   0.9549 B(  9-C , 12-C ) :   1.1013
B( 12-C , 13-H ) :   0.9696 B( 12-C , 14-H ) :   0.9723 B( 12-C , 15-H ) :   0.9673
B( 16-S , 17-C ) :   1.1538 B( 16-S , 20-C ) :   1.1513 B( 17-C , 18-C ) :   1.5783
B( 17-C , 20-C ) :   0.1037 B( 17-C , 33-H ) :   0.9739 B( 18-C , 19-C ) :   1.2509
B( 18-C , 21-H ) :   0.9910 B( 19-C , 20-C ) :   1.5887 B( 19-C , 22-C ) :   1.0353
B( 22-C , 23-H ) :   0.9343 B( 22-C , 24-H ) :   0.9193 B( 22-C , 25-C ) :   1.0861
B( 25-C , 26-H ) :   0.9548 B( 25-C , 27-H ) :   0.9525 B( 25-C , 28-C ) :   1.0762
B( 28-C , 29-H ) :   0.9754 B( 28-C , 30-H ) :   0.9716 B( 28-C , 31-H ) :   0.9715

Dispersion correction           -0.015564085
FINAL SINGLE POINT ENERGY     -1339.879188264490

DIPOLE MOMENT
-------------
                                X             Y             Z
Electronic contribution:      6.07643       5.57743      25.79378
Nuclear contribution   :     -5.96687      -5.83752     -26.41124
                        -----------------------------------------
Total Dipole Moment    :      0.10955      -0.26009      -0.61746
                        -----------------------------------------
Magnitude (a.u.)       :      0.67890
Magnitude (Debye)      :      1.72562

Rotational constants in cm-1:     0.022004     0.008346     0.007234
Rotational constants in MHz :   659.661032   250.208742   216.868077

                             ****ORCA TERMINATED NORMALLY****
TOTAL RUN TIME: 0 days 0 hours 0 minutes 21 seconds 417 msec
