                         Program Version 4.2.1 -  RELEASE  -
|  1> ! wB97X-D3 SP def2-SVP
|  2> %pal
|  3> nprocs 24
|  4> end
|  5>
|  6> * xyz 0 1
|  7> S 	 -48.6109 	 6.14487 	 -22.0125
|  8> C 	 -48.09 	 6.13744 	 -20.3592
|  9> C 	 -47.9583 	 7.3672 	 -19.7908
| 10> C 	 -48.2833 	 8.38514 	 -20.7396
| 11> C 	 -48.5856 	 7.98156 	 -21.9583
| 12> H 	 -48.2709 	 9.44942 	 -20.6044
| 13> C 	 -47.5142 	 7.66476 	 -18.3977
| 14> H 	 -47.1435 	 6.77443 	 -17.9332
| 15> H 	 -48.5498 	 7.90013 	 -17.9657
| 16> C 	 -46.5437 	 8.82935 	 -18.0838
| 17> H 	 -46.9226 	 9.78568 	 -18.3198
| 18> H 	 -46.2863 	 8.8911 	 -17.0449
| 19> C 	 -45.2021 	 8.6466 	 -18.9042
| 20> H 	 -44.375 	 9.25449 	 -18.4709
| 21> H 	 -44.8416 	 7.61064 	 -18.8032
| 22> H 	 -45.1015 	 9.03012 	 -19.9029
| 23> S 	 -50.1067 	 8.40529 	 -24.2422
| 24> C 	 -49.769 	 9.79686 	 -25.2333
| 25> C 	 -48.8227 	 10.6614 	 -24.6646
| 26> C 	 -48.1864 	 10.0422 	 -23.5385
| 27> C 	 -48.7941 	 8.81235 	 -23.157
| 28> H 	 -48.6617 	 11.6296 	 -25.0651
| 29> C 	 -47.1431 	 10.8655 	 -22.6841
| 30> H 	 -46.2732 	 11.2012 	 -23.2274
| 31> H 	 -46.7742 	 10.2527 	 -21.9004
| 32> C 	 -47.764 	 12.1659 	 -22.0054
| 33> H 	 -48.6689 	 11.979 	 -21.454
| 34> H 	 -48.1014 	 12.7286 	 -22.8758
| 35> C 	 -46.784 	 12.9186 	 -21.0969
| 36> H 	 -47.1958 	 13.742 	 -20.5632
| 37> H 	 -45.9529 	 13.3396 	 -21.6584
| 38> H 	 -46.4393 	 12.2193 	 -20.3481
| 39> H 	 -47.9361 	 5.25264 	 -19.7122
| 40> H 	 -50.4419 	 10.1334 	 -26.0838
| 41> *
| 42>
| 43>                          ****END OF INPUT****

CARTESIAN COORDINATES (ANGSTROEM)
---------------------------------
  S    -48.610900    6.144870  -22.012500
  C    -48.090000    6.137440  -20.359200
  C    -47.958300    7.367200  -19.790800
  C    -48.283300    8.385140  -20.739600
  C    -48.585600    7.981560  -21.958300
  H    -48.270900    9.449420  -20.604400
  C    -47.514200    7.664760  -18.397700
  H    -47.143500    6.774430  -17.933200
  H    -48.549800    7.900130  -17.965700
  C    -46.543700    8.829350  -18.083800
  H    -46.922600    9.785680  -18.319800
  H    -46.286300    8.891100  -17.044900
  C    -45.202100    8.646600  -18.904200
  H    -44.375000    9.254490  -18.470900
  H    -44.841600    7.610640  -18.803200
  H    -45.101500    9.030120  -19.902900
  S    -50.106700    8.405290  -24.242200
  C    -49.769000    9.796860  -25.233300
  C    -48.822700   10.661400  -24.664600
  C    -48.186400   10.042200  -23.538500
  C    -48.794100    8.812350  -23.157000
  H    -48.661700   11.629600  -25.065100
  C    -47.143100   10.865500  -22.684100
  H    -46.273200   11.201200  -23.227400
  H    -46.774200   10.252700  -21.900400
  C    -47.764000   12.165900  -22.005400
  H    -48.668900   11.979000  -21.454000
  H    -48.101400   12.728600  -22.875800
  C    -46.784000   12.918600  -21.096900
  H    -47.195800   13.742000  -20.563200
  H    -45.952900   13.339600  -21.658400
  H    -46.439300   12.219300  -20.348100
  H    -47.936100    5.252640  -19.712200
  H    -50.441900   10.133400  -26.083800

 Total Charge           Charge          ....    0
 Multiplicity           Mult            ....    1
 Number of Electrons    NEL             ....  134
 Basis Dimension        Dim             ....  322

ORBITAL ENERGIES
----------------

  NO   OCC          E(Eh)            E(eV)
   0   2.0000     -88.970787     -2421.0182
   1   2.0000     -88.962137     -2420.7828
   2   2.0000     -10.333509      -281.1891
   3   2.0000     -10.328601      -281.0555
   4   2.0000     -10.324133      -280.9339
   5   2.0000     -10.314237      -280.6647
   6   2.0000     -10.310609      -280.5659
   7   2.0000     -10.298643      -280.2403
   8   2.0000     -10.297547      -280.2105
   9   2.0000     -10.297410      -280.2068
  10   2.0000     -10.295892      -280.1655
  11   2.0000     -10.293365      -280.0967
  12   2.0000     -10.290194      -280.0104
  13   2.0000     -10.286019      -279.8968
  14   2.0000     -10.280954      -279.7590
  15   2.0000     -10.279365      -279.7158
  16   2.0000      -8.085382      -220.0144
  17   2.0000      -8.076175      -219.7639
  18   2.0000      -6.043756      -164.4590
  19   2.0000      -6.039956      -164.3556
  20   2.0000      -6.036249      -164.2547
  21   2.0000      -6.034887      -164.2176
  22   2.0000      -6.031079      -164.1140
  23   2.0000      -6.026468      -163.9885
  24   2.0000      -1.003867       -27.3166
  25   2.0000      -0.983134       -26.7524
  26   2.0000      -0.908793       -24.7295
  27   2.0000      -0.902913       -24.5695
  28   2.0000      -0.870007       -23.6741
  29   2.0000      -0.852665       -23.2022
  30   2.0000      -0.843424       -22.9507
  31   2.0000      -0.817158       -22.2360
  32   2.0000      -0.783861       -21.3299
  33   2.0000      -0.770324       -20.9616
  34   2.0000      -0.713840       -19.4246
  35   2.0000      -0.703786       -19.1510
  36   2.0000      -0.692917       -18.8552
  37   2.0000      -0.660847       -17.9826
  38   2.0000      -0.639795       -17.4097
  39   2.0000      -0.625481       -17.0202
  40   2.0000      -0.593935       -16.1618
  41   2.0000      -0.569252       -15.4901
  42   2.0000      -0.563870       -15.3437
  43   2.0000      -0.551406       -15.0045
  44   2.0000      -0.538597       -14.6560
  45   2.0000      -0.520817       -14.1721
  46   2.0000      -0.518788       -14.1169
  47   2.0000      -0.508629       -13.8405
  48   2.0000      -0.501617       -13.6497
  49   2.0000      -0.497495       -13.5375
  50   2.0000      -0.489222       -13.3124
  51   2.0000      -0.481827       -13.1112
  52   2.0000      -0.470092       -12.7918
  53   2.0000      -0.466336       -12.6897
  54   2.0000      -0.461592       -12.5606
  55   2.0000      -0.454381       -12.3643
  56   2.0000      -0.439522       -11.9600
  57   2.0000      -0.435804       -11.8588
  58   2.0000      -0.434321       -11.8185
  59   2.0000      -0.429595       -11.6899
  60   2.0000      -0.425447       -11.5770
  61   2.0000      -0.422065       -11.4850
  62   2.0000      -0.417184       -11.3522
  63   2.0000      -0.354820        -9.6551
  64   2.0000      -0.334479        -9.1016
  65   2.0000      -0.325329        -8.8526
  66   2.0000      -0.288062        -7.8386
  67   0.0000       0.027835         0.7574
  68   0.0000       0.075338         2.0500
  69   0.0000       0.099997         2.7211
  70   0.0000       0.116296         3.1646
  71   0.0000       0.121664         3.3107

MULLIKEN ATOMIC CHARGES
-----------------------
   0 S :    0.092656
   1 C :   -0.123280
   2 C :   -0.074486
   3 C :    0.006202
   4 C :   -0.103450
   5 H :   -0.005748
   6 C :    0.044034
   7 H :    0.016927
   8 H :    0.055415
   9 C :   -0.012394
  10 H :    0.015430
  11 H :    0.032798
  12 C :   -0.090035
  13 H :    0.020282
  14 H :    0.035910
  15 H :    0.042105
  16 S :    0.118320
  17 C :   -0.114024
  18 C :   -0.039962
  19 C :   -0.025018
  20 C :   -0.153978
  21 H :    0.018959
  22 C :    0.061691
  23 H :    0.027223
  24 H :    0.003736
  25 C :   -0.096979
  26 H :    0.030436
  27 H :    0.021071
  28 C :   -0.019211
  29 H :    0.029639
  30 H :    0.030867
  31 H :    0.025895
  32 H :    0.047552
  33 H :    0.081418
Sum of atomic charges:    0.0000000

LOEWDIN ATOMIC CHARGES
----------------------
   0 S :    0.357866
   1 C :   -0.201350
   2 C :   -0.068897
   3 C :   -0.059657
   4 C :   -0.158528
   5 H :    0.030885
   6 C :   -0.034179
   7 H :    0.025500
   8 H :    0.048850
   9 C :   -0.030934
  10 H :    0.015843
  11 H :    0.029078
  12 C :   -0.076557
  13 H :    0.028194
  14 H :    0.027425
  15 H :    0.023590
  16 S :    0.418880
  17 C :   -0.199671
  18 C :   -0.067601
  19 C :   -0.048347
  20 C :   -0.199446
  21 H :    0.027722
  22 C :   -0.024492
  23 H :    0.028650
  24 H :    0.015571
  25 C :   -0.039092
  26 H :    0.020107
  27 H :    0.019559
  28 C :   -0.061820
  29 H :    0.024770
  30 H :    0.026387
  31 H :    0.024740
  32 H :    0.034728
  33 H :    0.042225

  Mayer bond orders larger than 0.100000
B(  0-S ,  1-C ) :   1.1199 B(  0-S ,  4-C ) :   1.0916 B(  1-C ,  2-C ) :   1.6745
B(  1-C , 32-H ) :   0.9521 B(  2-C ,  3-C ) :   1.1710 B(  2-C ,  6-C ) :   1.0129
B(  3-C ,  4-C ) :   1.6676 B(  3-C ,  5-H ) :   0.9963 B(  4-C , 20-C ) :   1.0374
B(  6-C ,  7-H ) :   0.9440 B(  6-C ,  8-H ) :   0.9323 B(  6-C ,  9-C ) :   1.0799
B(  9-C , 10-H ) :   0.9514 B(  9-C , 11-H ) :   0.9550 B(  9-C , 12-C ) :   1.0659
B( 12-C , 13-H ) :   0.9723 B( 12-C , 14-H ) :   0.9787 B( 12-C , 15-H ) :   0.9753
B( 16-S , 17-C ) :   1.1674 B( 16-S , 20-C ) :   1.1549 B( 17-C , 18-C ) :   1.5947
B( 17-C , 20-C ) :   0.1019 B( 17-C , 33-H ) :   0.9571 B( 18-C , 19-C ) :   1.2512
B( 18-C , 21-H ) :   0.9938 B( 19-C , 20-C ) :   1.5663 B( 19-C , 22-C ) :   1.0433
B( 22-C , 23-H ) :   0.9385 B( 22-C , 24-H ) :   0.9423 B( 22-C , 25-C ) :   1.0430
B( 25-C , 26-H ) :   0.9576 B( 25-C , 27-H ) :   0.9554 B( 25-C , 28-C ) :   1.0813
B( 28-C , 29-H ) :   0.9734 B( 28-C , 30-H ) :   0.9742 B( 28-C , 31-H ) :   0.9741

Dispersion correction           -0.015269190
FINAL SINGLE POINT ENERGY     -1339.868997227897

DIPOLE MOMENT
-------------
                                X             Y             Z
Electronic contribution:    -17.60007     -20.01505     -19.37209
Nuclear contribution   :     17.85008      20.77194      19.90917
                        -----------------------------------------
Total Dipole Moment    :      0.25001       0.75689       0.53708
                        -----------------------------------------
Magnitude (a.u.)       :      0.96117
Magnitude (Debye)      :      2.44309

Rotational constants in cm-1:     0.016137     0.011063     0.006971
Rotational constants in MHz :   483.760891   331.674193   208.974230

                             ****ORCA TERMINATED NORMALLY****
TOTAL RUN TIME: 0 days 0 hours 0 minutes 22 seconds 594 msec
