                         Program Version 4.2.1 -  RELEASE  -
|  1> ! wB97X-D3 SP def2-SVP
|  2> %pal
|  3> nprocs 24
|  4> end
|  5>
|  6> * xyz 0 1
|  7> S 	 -40.4299 	 -51.6049 	 -72.9125
|  8> C 	 -38.7707 	 -52.1034 	 -72.8409
|  9> C 	 -38.6616 	 -53.41 	 -73.2151
| 10> C 	 -39.9147 	 -54.0692 	 -73.3671
| 11> C 	 -41.0085 	 -53.191 	 -73.3762
| 12> H 	 -40.0919 	 -55.0427 	 -73.6595
| 13> C 	 -37.3696 	 -54.1706 	 -73.2809
| 14> H 	 -36.6008 	 -53.4909 	 -72.9544
| 15> H 	 -37.099 	 -54.3971 	 -74.3066
| 16> C 	 -37.3562 	 -55.3942 	 -72.3162
| 17> H 	 -38.1981 	 -56.0468 	 -72.5961
| 18> H 	 -36.4516 	 -55.9415 	 -72.5313
| 19> C 	 -37.3485 	 -55.2039 	 -70.7846
| 20> H 	 -37.1468 	 -56.205 	 -70.4669
| 21> H 	 -36.4955 	 -54.564 	 -70.493
| 22> H 	 -38.3298 	 -54.9151 	 -70.4011
| 23> S 	 -43.2185 	 -52.0461 	 -74.3115
| 24> C 	 -44.7341 	 -52.8703 	 -74.5216
| 25> C 	 -44.5323 	 -54.2102 	 -74.3449
| 26> C 	 -43.2748 	 -54.5707 	 -73.7403
| 27> C 	 -42.4315 	 -53.4366 	 -73.555
| 28> H 	 -45.284 	 -54.898 	 -74.675
| 29> C 	 -42.9525 	 -56.014 	 -73.3959
| 30> H 	 -42.9277 	 -56.0687 	 -72.3047
| 31> H 	 -41.9813 	 -56.1982 	 -73.9155
| 32> C 	 -44.0021 	 -57.0293 	 -73.8668
| 33> H 	 -44.2921 	 -56.7289 	 -74.8838
| 34> H 	 -44.8274 	 -56.9823 	 -73.1106
| 35> C 	 -43.5405 	 -58.4928 	 -73.9122
| 36> H 	 -44.4232 	 -58.9866 	 -74.3502
| 37> H 	 -43.4175 	 -58.8719 	 -72.8702
| 38> H 	 -42.659 	 -58.8063 	 -74.4734
| 39> H 	 -37.9319 	 -51.5098 	 -72.7185
| 40> H 	 -45.5712 	 -52.3645 	 -74.9921
| 41> *
| 42>
| 43>                          ****END OF INPUT****

CARTESIAN COORDINATES (ANGSTROEM)
---------------------------------
  S    -40.429900  -51.604900  -72.912500
  C    -38.770700  -52.103400  -72.840900
  C    -38.661600  -53.410000  -73.215100
  C    -39.914700  -54.069200  -73.367100
  C    -41.008500  -53.191000  -73.376200
  H    -40.091900  -55.042700  -73.659500
  C    -37.369600  -54.170600  -73.280900
  H    -36.600800  -53.490900  -72.954400
  H    -37.099000  -54.397100  -74.306600
  C    -37.356200  -55.394200  -72.316200
  H    -38.198100  -56.046800  -72.596100
  H    -36.451600  -55.941500  -72.531300
  C    -37.348500  -55.203900  -70.784600
  H    -37.146800  -56.205000  -70.466900
  H    -36.495500  -54.564000  -70.493000
  H    -38.329800  -54.915100  -70.401100
  S    -43.218500  -52.046100  -74.311500
  C    -44.734100  -52.870300  -74.521600
  C    -44.532300  -54.210200  -74.344900
  C    -43.274800  -54.570700  -73.740300
  C    -42.431500  -53.436600  -73.555000
  H    -45.284000  -54.898000  -74.675000
  C    -42.952500  -56.014000  -73.395900
  H    -42.927700  -56.068700  -72.304700
  H    -41.981300  -56.198200  -73.915500
  C    -44.002100  -57.029300  -73.866800
  H    -44.292100  -56.728900  -74.883800
  H    -44.827400  -56.982300  -73.110600
  C    -43.540500  -58.492800  -73.912200
  H    -44.423200  -58.986600  -74.350200
  H    -43.417500  -58.871900  -72.870200
  H    -42.659000  -58.806300  -74.473400
  H    -37.931900  -51.509800  -72.718500
  H    -45.571200  -52.364500  -74.992100

 Total Charge           Charge          ....    0
 Multiplicity           Mult            ....    1
 Number of Electrons    NEL             ....  134
 Basis Dimension        Dim             ....  322

ORBITAL ENERGIES
----------------

  NO   OCC          E(Eh)            E(eV)
   0   2.0000     -88.962131     -2420.7827
   1   2.0000     -88.960264     -2420.7319
   2   2.0000     -10.332543      -281.1628
   3   2.0000     -10.332108      -281.1509
   4   2.0000     -10.316279      -280.7202
   5   2.0000     -10.311968      -280.6029
   6   2.0000     -10.303235      -280.3653
   7   2.0000     -10.297319      -280.2043
   8   2.0000     -10.296303      -280.1767
   9   2.0000     -10.293831      -280.1094
  10   2.0000     -10.293198      -280.0922
  11   2.0000     -10.287045      -279.9247
  12   2.0000     -10.286633      -279.9135
  13   2.0000     -10.286444      -279.9084
  14   2.0000     -10.285840      -279.8919
  15   2.0000     -10.277791      -279.6729
  16   2.0000      -8.077055      -219.7878
  17   2.0000      -8.075425      -219.7435
  18   2.0000      -6.035660      -164.2387
  19   2.0000      -6.033967      -164.1926
  20   2.0000      -6.031435      -164.1237
  21   2.0000      -6.029815      -164.0796
  22   2.0000      -6.027783      -164.0243
  23   2.0000      -6.026149      -163.9798
  24   2.0000      -1.007295       -27.4099
  25   2.0000      -0.984770       -26.7970
  26   2.0000      -0.914164       -24.8757
  27   2.0000      -0.908610       -24.7245
  28   2.0000      -0.872091       -23.7308
  29   2.0000      -0.851664       -23.1750
  30   2.0000      -0.841988       -22.9117
  31   2.0000      -0.818968       -22.2853
  32   2.0000      -0.783007       -21.3067
  33   2.0000      -0.774566       -21.0770
  34   2.0000      -0.711620       -19.3642
  35   2.0000      -0.699353       -19.0304
  36   2.0000      -0.689577       -18.7643
  37   2.0000      -0.651709       -17.7339
  38   2.0000      -0.641044       -17.4437
  39   2.0000      -0.623829       -16.9753
  40   2.0000      -0.600851       -16.3500
  41   2.0000      -0.580933       -15.8080
  42   2.0000      -0.567250       -15.4357
  43   2.0000      -0.549334       -14.9481
  44   2.0000      -0.541359       -14.7311
  45   2.0000      -0.529711       -14.4142
  46   2.0000      -0.520129       -14.1534
  47   2.0000      -0.512569       -13.9477
  48   2.0000      -0.509663       -13.8686
  49   2.0000      -0.499161       -13.5829
  50   2.0000      -0.492530       -13.4024
  51   2.0000      -0.481051       -13.0901
  52   2.0000      -0.476797       -12.9743
  53   2.0000      -0.463130       -12.6024
  54   2.0000      -0.460071       -12.5192
  55   2.0000      -0.450461       -12.2577
  56   2.0000      -0.439508       -11.9596
  57   2.0000      -0.438695       -11.9375
  58   2.0000      -0.436640       -11.8816
  59   2.0000      -0.421645       -11.4735
  60   2.0000      -0.415972       -11.3192
  61   2.0000      -0.414558       -11.2807
  62   2.0000      -0.404369       -11.0034
  63   2.0000      -0.359653        -9.7867
  64   2.0000      -0.328677        -8.9438
  65   2.0000      -0.325068        -8.8455
  66   2.0000      -0.282258        -7.6806
  67   0.0000       0.017633         0.4798
  68   0.0000       0.084324         2.2946
  69   0.0000       0.102128         2.7790
  70   0.0000       0.126487         3.4419
  71   0.0000       0.135487         3.6868

MULLIKEN ATOMIC CHARGES
-----------------------
   0 S :    0.100755
   1 C :   -0.074205
   2 C :   -0.106376
   3 C :    0.030444
   4 C :   -0.135130
   5 H :   -0.030666
   6 C :    0.111951
   7 H :   -0.004855
   8 H :    0.035703
   9 C :   -0.126580
  10 H :    0.030034
  11 H :    0.021726
  12 C :   -0.019216
  13 H :    0.026107
  14 H :    0.036863
  15 H :    0.047956
  16 S :    0.069063
  17 C :   -0.073128
  18 C :   -0.040706
  19 C :   -0.107524
  20 C :   -0.087905
  21 H :    0.018960
  22 C :    0.077562
  23 H :    0.049225
  24 H :    0.046520
  25 C :   -0.135505
  26 H :    0.040003
  27 H :    0.046070
  28 C :   -0.043516
  29 H :    0.037887
  30 H :    0.034051
  31 H :    0.042213
  32 H :    0.017817
  33 H :    0.064401
Sum of atomic charges:    0.0000000

LOEWDIN ATOMIC CHARGES
----------------------
   0 S :    0.408498
   1 C :   -0.195116
   2 C :   -0.061810
   3 C :   -0.065739
   4 C :   -0.186907
   5 H :    0.011635
   6 C :   -0.031422
   7 H :    0.023154
   8 H :    0.032752
   9 C :   -0.040785
  10 H :    0.021855
  11 H :    0.020674
  12 C :   -0.057697
  13 H :    0.026500
  14 H :    0.028561
  15 H :    0.028122
  16 S :    0.404721
  17 C :   -0.184846
  18 C :   -0.078086
  19 C :   -0.055232
  20 C :   -0.191513
  21 H :    0.029095
  22 C :   -0.037470
  23 H :    0.039553
  24 H :    0.034969
  25 C :   -0.046097
  26 H :    0.023740
  27 H :    0.034874
  28 C :   -0.069794
  29 H :    0.032596
  30 H :    0.028371
  31 H :    0.024609
  32 H :    0.016660
  33 H :    0.031575

  Mayer bond orders larger than 0.100000
B(  0-S ,  1-C ) :   1.1302 B(  0-S ,  4-C ) :   1.1551 B(  1-C ,  2-C ) :   1.6191
B(  1-C , 32-H ) :   0.9696 B(  2-C ,  3-C ) :   1.2401 B(  2-C ,  6-C ) :   1.0323
B(  3-C ,  4-C ) :   1.5678 B(  3-C ,  5-H ) :   0.9962 B(  4-C , 20-C ) :   1.0615
B(  6-C ,  7-H ) :   0.9357 B(  6-C ,  8-H ) :   0.9330 B(  6-C ,  9-C ) :   1.0669
B(  9-C , 10-H ) :   0.9563 B(  9-C , 11-H ) :   0.9580 B(  9-C , 12-C ) :   1.0745
B( 12-C , 13-H ) :   0.9728 B( 12-C , 14-H ) :   0.9739 B( 12-C , 15-H ) :   0.9751
B( 16-S , 17-C ) :   1.1662 B( 16-S , 20-C ) :   1.1449 B( 17-C , 18-C ) :   1.5662
B( 17-C , 20-C ) :   0.1020 B( 17-C , 33-H ) :   0.9667 B( 18-C , 19-C ) :   1.2802
B( 18-C , 21-H ) :   0.9881 B( 19-C , 20-C ) :   1.5538 B( 19-C , 22-C ) :   1.0161
B( 22-C , 23-H ) :   0.9311 B( 22-C , 24-H ) :   0.9293 B( 22-C , 25-C ) :   1.1008
B( 25-C , 26-H ) :   0.9494 B( 25-C , 27-H ) :   0.9466 B( 25-C , 28-C ) :   1.0836
B( 28-C , 29-H ) :   0.9725 B( 28-C , 30-H ) :   0.9728 B( 28-C , 31-H ) :   0.9761

Dispersion correction           -0.013492421
FINAL SINGLE POINT ENERGY     -1339.869004421271

DIPOLE MOMENT
-------------
                                X             Y             Z
Electronic contribution:     -8.75100      28.20185      -5.03869
Nuclear contribution   :      8.84887     -29.03341       4.83705
                        -----------------------------------------
Total Dipole Moment    :      0.09787      -0.83156      -0.20164
                        -----------------------------------------
Magnitude (a.u.)       :      0.86124
Magnitude (Debye)      :      2.18909

Rotational constants in cm-1:     0.016850     0.009203     0.006243
Rotational constants in MHz :   505.135856   275.909992   187.175192

                             ****ORCA TERMINATED NORMALLY****
TOTAL RUN TIME: 0 days 0 hours 0 minutes 21 seconds 283 msec
