                         Program Version 4.2.1 -  RELEASE  -
|  1> ! wB97X-D3 SP def2-SVP
|  2> %pal
|  3> nprocs 24
|  4> end
|  5>
|  6> * xyz 0 1
|  7> S 	 -102.114 	 36.7927 	 -87.452
|  8> C 	 -101.05 	 35.5766 	 -87.9854
|  9> C 	 -99.7112 	 35.9446 	 -87.7717
| 10> C 	 -99.5978 	 37.1632 	 -87.0852
| 11> C 	 -100.762 	 37.7599 	 -86.7158
| 12> H 	 -98.7024 	 37.5794 	 -86.7982
| 13> C 	 -98.4739 	 35.1515 	 -88.1174
| 14> H 	 -98.6421 	 34.6198 	 -89.1461
| 15> H 	 -98.4775 	 34.4176 	 -87.2525
| 16> C 	 -97.168 	 35.9684 	 -88.2474
| 17> H 	 -97.226 	 36.7199 	 -89.0494
| 18> H 	 -96.9443 	 36.525 	 -87.3576
| 19> C 	 -95.9373 	 35.1825 	 -88.6672
| 20> H 	 -95.6632 	 34.3494 	 -88.0304
| 21> H 	 -96.1771 	 34.774 	 -89.6872
| 22> H 	 -95.075 	 35.8555 	 -88.8554
| 23> S 	 -99.3905 	 39.967 	 -85.5151
| 24> C 	 -100.409 	 41.2403 	 -84.8641
| 25> C 	 -101.774 	 41.0774 	 -85.0121
| 26> C 	 -102.106 	 39.7269 	 -85.4949
| 27> C 	 -100.907 	 39.036 	 -85.9555
| 28> H 	 -102.487 	 41.7722 	 -84.5896
| 29> C 	 -103.567 	 39.2681 	 -85.3528
| 30> H 	 -103.943 	 39.5204 	 -84.3817
| 31> H 	 -103.619 	 38.1279 	 -85.4524
| 32> C 	 -104.599 	 39.8801 	 -86.3285
| 33> H 	 -104.495 	 40.9144 	 -86.3178
| 34> H 	 -105.661 	 39.5959 	 -86.2082
| 35> C 	 -104.267 	 39.4371 	 -87.771
| 36> H 	 -104.917 	 39.9381 	 -88.4591
| 37> H 	 -104.482 	 38.3591 	 -87.9654
| 38> H 	 -103.215 	 39.557 	 -87.9118
| 39> H 	 -101.284 	 34.614 	 -88.4595
| 40> H 	 -99.9622 	 42.1867 	 -84.5636
| 41> *
| 42>
| 43>                          ****END OF INPUT****

CARTESIAN COORDINATES (ANGSTROEM)
---------------------------------
  S    -102.114000   36.792700  -87.452000
  C    -101.050000   35.576600  -87.985400
  C    -99.711200   35.944600  -87.771700
  C    -99.597800   37.163200  -87.085200
  C    -100.762000   37.759900  -86.715800
  H    -98.702400   37.579400  -86.798200
  C    -98.473900   35.151500  -88.117400
  H    -98.642100   34.619800  -89.146100
  H    -98.477500   34.417600  -87.252500
  C    -97.168000   35.968400  -88.247400
  H    -97.226000   36.719900  -89.049400
  H    -96.944300   36.525000  -87.357600
  C    -95.937300   35.182500  -88.667200
  H    -95.663200   34.349400  -88.030400
  H    -96.177100   34.774000  -89.687200
  H    -95.075000   35.855500  -88.855400
  S    -99.390500   39.967000  -85.515100
  C    -100.409000   41.240300  -84.864100
  C    -101.774000   41.077400  -85.012100
  C    -102.106000   39.726900  -85.494900
  C    -100.907000   39.036000  -85.955500
  H    -102.487000   41.772200  -84.589600
  C    -103.567000   39.268100  -85.352800
  H    -103.943000   39.520400  -84.381700
  H    -103.619000   38.127900  -85.452400
  C    -104.599000   39.880100  -86.328500
  H    -104.495000   40.914400  -86.317800
  H    -105.661000   39.595900  -86.208200
  C    -104.267000   39.437100  -87.771000
  H    -104.917000   39.938100  -88.459100
  H    -104.482000   38.359100  -87.965400
  H    -103.215000   39.557000  -87.911800
  H    -101.284000   34.614000  -88.459500
  H    -99.962200   42.186700  -84.563600

 Total Charge           Charge          ....    0
 Multiplicity           Mult            ....    1
 Number of Electrons    NEL             ....  134
 Basis Dimension        Dim             ....  322

ORBITAL ENERGIES
----------------

  NO   OCC          E(Eh)            E(eV)
   0   2.0000     -88.974128     -2421.1091
   1   2.0000     -88.969082     -2420.9718
   2   2.0000     -10.348656      -281.6013
   3   2.0000     -10.335530      -281.2441
   4   2.0000     -10.323256      -280.9101
   5   2.0000     -10.321260      -280.8558
   6   2.0000     -10.312557      -280.6189
   7   2.0000     -10.306765      -280.4613
   8   2.0000     -10.301230      -280.3107
   9   2.0000     -10.299620      -280.2669
  10   2.0000     -10.298312      -280.2313
  11   2.0000     -10.289118      -279.9811
  12   2.0000     -10.283170      -279.8193
  13   2.0000     -10.281689      -279.7790
  14   2.0000     -10.281470      -279.7730
  15   2.0000     -10.264419      -279.3090
  16   2.0000      -8.087147      -220.0625
  17   2.0000      -8.082497      -219.9359
  18   2.0000      -6.045856      -164.5161
  19   2.0000      -6.042129      -164.4147
  20   2.0000      -6.041196      -164.3893
  21   2.0000      -6.037608      -164.2917
  22   2.0000      -6.037087      -164.2775
  23   2.0000      -6.033199      -164.1717
  24   2.0000      -0.999868       -27.2078
  25   2.0000      -0.975449       -26.5433
  26   2.0000      -0.909782       -24.7564
  27   2.0000      -0.906357       -24.6632
  28   2.0000      -0.868562       -23.6348
  29   2.0000      -0.853361       -23.2211
  30   2.0000      -0.843981       -22.9659
  31   2.0000      -0.811964       -22.0947
  32   2.0000      -0.781090       -21.2545
  33   2.0000      -0.762462       -20.7477
  34   2.0000      -0.710153       -19.3243
  35   2.0000      -0.697118       -18.9695
  36   2.0000      -0.681739       -18.5511
  37   2.0000      -0.663739       -18.0613
  38   2.0000      -0.636123       -17.3098
  39   2.0000      -0.617949       -16.8153
  40   2.0000      -0.597270       -16.2526
  41   2.0000      -0.570290       -15.5184
  42   2.0000      -0.562824       -15.3152
  43   2.0000      -0.555510       -15.1162
  44   2.0000      -0.544006       -14.8032
  45   2.0000      -0.526384       -14.3236
  46   2.0000      -0.513279       -13.9670
  47   2.0000      -0.506967       -13.7953
  48   2.0000      -0.499811       -13.6005
  49   2.0000      -0.498903       -13.5758
  50   2.0000      -0.483159       -13.1474
  51   2.0000      -0.478119       -13.0103
  52   2.0000      -0.467429       -12.7194
  53   2.0000      -0.462041       -12.5728
  54   2.0000      -0.458961       -12.4890
  55   2.0000      -0.451733       -12.2923
  56   2.0000      -0.445637       -12.1264
  57   2.0000      -0.438332       -11.9276
  58   2.0000      -0.431047       -11.7294
  59   2.0000      -0.423050       -11.5118
  60   2.0000      -0.419724       -11.4213
  61   2.0000      -0.411698       -11.2029
  62   2.0000      -0.405798       -11.0423
  63   2.0000      -0.365110        -9.9352
  64   2.0000      -0.333513        -9.0753
  65   2.0000      -0.328280        -8.9329
  66   2.0000      -0.275120        -7.4864
  67   0.0000       0.012945         0.3523
  68   0.0000       0.082905         2.2560
  69   0.0000       0.089958         2.4479
  70   0.0000       0.111837         3.0432
  71   0.0000       0.121458         3.3050

MULLIKEN ATOMIC CHARGES
-----------------------
   0 S :    0.104027
   1 C :   -0.116421
   2 C :   -0.083222
   3 C :   -0.010256
   4 C :   -0.056416
   5 H :   -0.026701
   6 C :    0.019809
   7 H :    0.045641
   8 H :    0.063444
   9 C :   -0.099265
  10 H :    0.035642
  11 H :    0.035072
  12 C :   -0.048033
  13 H :    0.036709
  14 H :    0.024118
  15 H :    0.040214
  16 S :    0.082581
  17 C :   -0.080701
  18 C :   -0.017894
  19 C :   -0.093146
  20 C :   -0.132056
  21 H :    0.030777
  22 C :    0.029854
  23 H :    0.031841
  24 H :    0.041613
  25 C :   -0.049406
  26 H :    0.014921
  27 H :    0.039146
  28 C :   -0.064599
  29 H :    0.025529
  30 H :    0.028416
  31 H :    0.034661
  32 H :    0.050087
  33 H :    0.064010
Sum of atomic charges:   -0.0000000

LOEWDIN ATOMIC CHARGES
----------------------
   0 S :    0.423810
   1 C :   -0.223375
   2 C :   -0.068104
   3 C :   -0.068660
   4 C :   -0.163871
   5 H :    0.010109
   6 C :   -0.040895
   7 H :    0.041620
   8 H :    0.046333
   9 C :   -0.049344
  10 H :    0.031995
  11 H :    0.018318
  12 C :   -0.065886
  13 H :    0.021036
  14 H :    0.027453
  15 H :    0.031537
  16 S :    0.372500
  17 C :   -0.177639
  18 C :   -0.067516
  19 C :   -0.050725
  20 C :   -0.166479
  21 H :    0.034049
  22 C :   -0.036262
  23 H :    0.029447
  24 H :    0.031368
  25 C :   -0.034611
  26 H :    0.011792
  27 H :    0.030249
  28 C :   -0.068531
  29 H :    0.019948
  30 H :    0.019098
  31 H :    0.016280
  32 H :    0.036037
  33 H :    0.028919

  Mayer bond orders larger than 0.100000
B(  0-S ,  1-C ) :   1.1494 B(  0-S ,  4-C ) :   1.1215 B(  1-C ,  2-C ) :   1.5846
B(  1-C , 32-H ) :   0.9659 B(  2-C ,  3-C ) :   1.2854 B(  2-C ,  6-C ) :   1.0021
B(  3-C ,  4-C ) :   1.5401 B(  3-C ,  5-H ) :   0.9995 B(  4-C , 20-C ) :   1.1094
B(  6-C ,  7-H ) :   0.9443 B(  6-C ,  8-H ) :   0.9338 B(  6-C ,  9-C ) :   1.0751
B(  9-C , 10-H ) :   0.9579 B(  9-C , 11-H ) :   0.9431 B(  9-C , 12-C ) :   1.0918
B( 12-C , 13-H ) :   0.9757 B( 12-C , 14-H ) :   0.9718 B( 12-C , 15-H ) :   0.9726
B( 16-S , 17-C ) :   1.1364 B( 16-S , 20-C ) :   1.1207 B( 17-C , 18-C ) :   1.6555
B( 17-C , 33-H ) :   0.9598 B( 18-C , 19-C ) :   1.2111 B( 18-C , 21-H ) :   0.9802
B( 19-C , 20-C ) :   1.5654 B( 19-C , 22-C ) :   1.0337 B( 22-C , 23-H ) :   0.9398
B( 22-C , 24-H ) :   0.9411 B( 22-C , 25-C ) :   1.0633 B( 25-C , 26-H ) :   0.9565
B( 25-C , 27-H ) :   0.9578 B( 25-C , 28-C ) :   1.0746 B( 28-C , 29-H ) :   0.9723
B( 28-C , 30-H ) :   0.9723 B( 28-C , 31-H ) :   0.9768

Dispersion correction           -0.014370677
FINAL SINGLE POINT ENERGY     -1339.860742784973

DIPOLE MOMENT
-------------
                                X             Y             Z
Electronic contribution:     -1.98583       5.98868       8.29519
Nuclear contribution   :      2.07172      -5.97298      -8.28378
                        -----------------------------------------
Total Dipole Moment    :      0.08589       0.01569       0.01141
                        -----------------------------------------
Magnitude (a.u.)       :      0.08805
Magnitude (Debye)      :      0.22382

Rotational constants in cm-1:     0.021653     0.008329     0.006277
Rotational constants in MHz :   649.128577   249.685730   188.165673

                             ****ORCA TERMINATED NORMALLY****
TOTAL RUN TIME: 0 days 0 hours 0 minutes 22 seconds 600 msec
