                         Program Version 4.2.1 -  RELEASE  -
|  1> ! wB97X-D3 SP def2-SVP
|  2> %pal
|  3> nprocs 24
|  4> end
|  5>
|  6> * xyz 0 1
|  7> S 	 25.3756 	 -1.88529 	 -110.833
|  8> C 	 24.4608 	 -2.51078 	 -112.184
|  9> C 	 23.9288 	 -1.53092 	 -112.996
| 10> C 	 24.4151 	 -0.274152 	 -112.573
| 11> C 	 25.3024 	 -0.346572 	 -111.531
| 12> H 	 24.2492 	 0.635816 	 -113.156
| 13> C 	 22.9848 	 -1.64647 	 -114.132
| 14> H 	 23.4398 	 -1.71939 	 -115.113
| 15> H 	 22.3077 	 -0.785386 	 -114.009
| 16> C 	 22.0542 	 -2.88151 	 -114.174
| 17> H 	 22.6036 	 -3.62861 	 -114.644
| 18> H 	 21.8902 	 -3.22335 	 -113.134
| 19> C 	 20.7055 	 -2.57737 	 -114.834
| 20> H 	 20.193 	 -3.46034 	 -115.135
| 21> H 	 20.1327 	 -2.09382 	 -114.059
| 22> H 	 20.7647 	 -1.92026 	 -115.719
| 23> S 	 25.6123 	 1.30445 	 -109.327
| 24> C 	 26.9277 	 2.41458 	 -109.19
| 25> C 	 27.7576 	 2.25272 	 -110.335
| 26> C 	 27.2364 	 1.27975 	 -111.287
| 27> C 	 26.0378 	 0.739179 	 -110.874
| 28> H 	 28.6679 	 2.80358 	 -110.434
| 29> C 	 27.9324 	 0.848793 	 -112.581
| 30> H 	 27.8081 	 -0.254048 	 -112.725
| 31> H 	 28.9862 	 1.0702 	 -112.422
| 32> C 	 27.6124 	 1.5507 	 -113.936
| 33> H 	 26.5985 	 1.50788 	 -114.19
| 34> H 	 28.1762 	 1.01796 	 -114.659
| 35> C 	 27.9669 	 3.07715 	 -114.044
| 36> H 	 27.3134 	 3.679 	 -113.404
| 37> H 	 27.7991 	 3.44705 	 -115.09
| 38> H 	 29.0378 	 3.19663 	 -113.889
| 39> H 	 24.0841 	 -3.50029 	 -112.35
| 40> H 	 27.2584 	 2.96394 	 -108.345
| 41> *
| 42>
| 43>                          ****END OF INPUT****

CARTESIAN COORDINATES (ANGSTROEM)
---------------------------------
  S     25.375600   -1.885290  -110.833000
  C     24.460800   -2.510780  -112.184000
  C     23.928800   -1.530920  -112.996000
  C     24.415100   -0.274152  -112.573000
  C     25.302400   -0.346572  -111.531000
  H     24.249200    0.635816  -113.156000
  C     22.984800   -1.646470  -114.132000
  H     23.439800   -1.719390  -115.113000
  H     22.307700   -0.785386  -114.009000
  C     22.054200   -2.881510  -114.174000
  H     22.603600   -3.628610  -114.644000
  H     21.890200   -3.223350  -113.134000
  C     20.705500   -2.577370  -114.834000
  H     20.193000   -3.460340  -115.135000
  H     20.132700   -2.093820  -114.059000
  H     20.764700   -1.920260  -115.719000
  S     25.612300    1.304450  -109.327000
  C     26.927700    2.414580  -109.190000
  C     27.757600    2.252720  -110.335000
  C     27.236400    1.279750  -111.287000
  C     26.037800    0.739179  -110.874000
  H     28.667900    2.803580  -110.434000
  C     27.932400    0.848793  -112.581000
  H     27.808100   -0.254048  -112.725000
  H     28.986200    1.070200  -112.422000
  C     27.612400    1.550700  -113.936000
  H     26.598500    1.507880  -114.190000
  H     28.176200    1.017960  -114.659000
  C     27.966900    3.077150  -114.044000
  H     27.313400    3.679000  -113.404000
  H     27.799100    3.447050  -115.090000
  H     29.037800    3.196630  -113.889000
  H     24.084100   -3.500290  -112.350000
  H     27.258400    2.963940  -108.345000

 Total Charge           Charge          ....    0
 Multiplicity           Mult            ....    1
 Number of Electrons    NEL             ....  134
 Basis Dimension        Dim             ....  322

ORBITAL ENERGIES
----------------

  NO   OCC          E(Eh)            E(eV)
   0   2.0000     -88.970142     -2421.0006
   1   2.0000     -88.965260     -2420.8678
   2   2.0000     -10.322863      -280.8994
   3   2.0000     -10.318267      -280.7743
   4   2.0000     -10.316458      -280.7251
   5   2.0000     -10.308224      -280.5010
   6   2.0000     -10.301251      -280.3113
   7   2.0000     -10.297072      -280.1976
   8   2.0000     -10.295394      -280.1519
   9   2.0000     -10.292524      -280.0738
  10   2.0000     -10.291804      -280.0542
  11   2.0000     -10.289673      -279.9962
  12   2.0000     -10.282595      -279.8036
  13   2.0000     -10.279475      -279.7187
  14   2.0000     -10.278988      -279.7055
  15   2.0000     -10.278828      -279.7011
  16   2.0000      -8.085713      -220.0234
  17   2.0000      -8.080853      -219.8912
  18   2.0000      -6.044112      -164.4687
  19   2.0000      -6.040187      -164.3618
  20   2.0000      -6.039274      -164.3370
  21   2.0000      -6.036445      -164.2600
  22   2.0000      -6.034930      -164.2188
  23   2.0000      -6.031974      -164.1384
  24   2.0000      -1.015706       -27.6388
  25   2.0000      -0.989501       -26.9257
  26   2.0000      -0.919429       -25.0189
  27   2.0000      -0.899608       -24.4796
  28   2.0000      -0.869827       -23.6692
  29   2.0000      -0.853205       -23.2169
  30   2.0000      -0.843018       -22.9397
  31   2.0000      -0.813258       -22.1299
  32   2.0000      -0.784697       -21.3527
  33   2.0000      -0.772435       -21.0190
  34   2.0000      -0.714240       -19.4355
  35   2.0000      -0.700626       -19.0650
  36   2.0000      -0.689136       -18.7523
  37   2.0000      -0.662660       -18.0319
  38   2.0000      -0.637487       -17.3469
  39   2.0000      -0.618079       -16.8188
  40   2.0000      -0.588833       -16.0230
  41   2.0000      -0.582440       -15.8490
  42   2.0000      -0.572869       -15.5886
  43   2.0000      -0.550917       -14.9912
  44   2.0000      -0.540286       -14.7019
  45   2.0000      -0.525114       -14.2891
  46   2.0000      -0.516430       -14.0528
  47   2.0000      -0.511413       -13.9163
  48   2.0000      -0.506470       -13.7817
  49   2.0000      -0.496456       -13.5092
  50   2.0000      -0.482574       -13.1315
  51   2.0000      -0.477644       -12.9974
  52   2.0000      -0.473096       -12.8736
  53   2.0000      -0.467257       -12.7147
  54   2.0000      -0.463421       -12.6103
  55   2.0000      -0.456584       -12.4243
  56   2.0000      -0.440012       -11.9733
  57   2.0000      -0.435291       -11.8449
  58   2.0000      -0.433319       -11.7912
  59   2.0000      -0.428945       -11.6722
  60   2.0000      -0.418895       -11.3987
  61   2.0000      -0.417180       -11.3520
  62   2.0000      -0.413286       -11.2461
  63   2.0000      -0.336014        -9.1434
  64   2.0000      -0.328712        -8.9447
  65   2.0000      -0.324427        -8.8281
  66   2.0000      -0.307773        -8.3749
  67   0.0000       0.044669         1.2155
  68   0.0000       0.060139         1.6365
  69   0.0000       0.112760         3.0684
  70   0.0000       0.123975         3.3735
  71   0.0000       0.131378         3.5750

MULLIKEN ATOMIC CHARGES
-----------------------
   0 S :    0.142983
   1 C :   -0.104081
   2 C :   -0.105792
   3 C :    0.037685
   4 C :   -0.182446
   5 H :    0.017025
   6 C :    0.060856
   7 H :    0.048589
   8 H :    0.033464
   9 C :   -0.101443
  10 H :    0.017061
  11 H :    0.031036
  12 C :   -0.035667
  13 H :    0.029505
  14 H :    0.036155
  15 H :    0.036250
  16 S :    0.125430
  17 C :   -0.091153
  18 C :   -0.041303
  19 C :   -0.034492
  20 C :   -0.171327
  21 H :    0.012433
  22 C :    0.064074
  23 H :    0.048610
  24 H :    0.012313
  25 C :   -0.023407
  26 H :    0.010320
  27 H :    0.021044
  28 C :   -0.084587
  29 H :    0.047556
  30 H :    0.033958
  31 H :    0.028016
  32 H :    0.027752
  33 H :    0.053581
Sum of atomic charges:   -0.0000000

LOEWDIN ATOMIC CHARGES
----------------------
   0 S :    0.442456
   1 C :   -0.202913
   2 C :   -0.065683
   3 C :   -0.058499
   4 C :   -0.210636
   5 H :    0.032972
   6 C :   -0.032282
   7 H :    0.038235
   8 H :    0.036123
   9 C :   -0.039631
  10 H :    0.009818
  11 H :    0.023534
  12 C :   -0.059217
  13 H :    0.023462
  14 H :    0.028332
  15 H :    0.027410
  16 S :    0.441286
  17 C :   -0.201213
  18 C :   -0.065872
  19 C :   -0.059969
  20 C :   -0.228540
  21 H :    0.024951
  22 C :   -0.032995
  23 H :    0.040065
  24 H :    0.028033
  25 C :   -0.029007
  26 H :    0.012048
  27 H :    0.020909
  28 C :   -0.069402
  29 H :    0.026869
  30 H :    0.030389
  31 H :    0.020294
  32 H :    0.020992
  33 H :    0.027680

  Mayer bond orders larger than 0.100000
B(  0-S ,  1-C ) :   1.1379 B(  0-S ,  4-C ) :   1.1721 B(  1-C ,  2-C ) :   1.6238
B(  1-C , 32-H ) :   0.9589 B(  2-C ,  3-C ) :   1.2629 B(  2-C ,  6-C ) :   1.0144
B(  3-C ,  4-C ) :   1.5834 B(  3-C ,  5-H ) :   0.9920 B(  4-C , 20-C ) :   0.9936
B(  6-C ,  7-H ) :   0.9275 B(  6-C ,  8-H ) :   0.9502 B(  6-C ,  9-C ) :   1.0596
B(  9-C , 10-H ) :   0.9560 B(  9-C , 11-H ) :   0.9625 B(  9-C , 12-C ) :   1.0817
B( 12-C , 13-H ) :   0.9730 B( 12-C , 14-H ) :   0.9756 B( 12-C , 15-H ) :   0.9763
B( 16-S , 17-C ) :   1.1724 B( 16-S , 20-C ) :   1.1704 B( 17-C , 18-C ) :   1.5721
B( 17-C , 33-H ) :   0.9729 B( 18-C , 19-C ) :   1.2699 B( 18-C , 21-H ) :   0.9908
B( 19-C , 20-C ) :   1.5749 B( 19-C , 22-C ) :   1.0456 B( 22-C , 23-H ) :   0.9263
B( 22-C , 24-H ) :   0.9327 B( 22-C , 25-C ) :   1.0748 B( 25-C , 26-H ) :   0.9552
B( 25-C , 27-H ) :   0.9539 B( 25-C , 28-C ) :   1.0778 B( 28-C , 29-H ) :   0.9768
B( 28-C , 30-H ) :   0.9745 B( 28-C , 31-H ) :   0.9772

Dispersion correction           -0.014268761
FINAL SINGLE POINT ENERGY     -1339.875863259937

DIPOLE MOMENT
-------------
                                X             Y             Z
Electronic contribution:      5.27441      -0.76825      25.48731
Nuclear contribution   :     -5.31287       0.72006     -26.04644
                        -----------------------------------------
Total Dipole Moment    :     -0.03846      -0.04820      -0.55913
                        -----------------------------------------
Magnitude (a.u.)       :      0.56252
Magnitude (Debye)      :      1.42982

Rotational constants in cm-1:     0.021233     0.007694     0.006408
Rotational constants in MHz :   636.557299   230.671137   192.096391

                             ****ORCA TERMINATED NORMALLY****
TOTAL RUN TIME: 0 days 0 hours 0 minutes 20 seconds 270 msec
