                         Program Version 4.2.1 -  RELEASE  -
|  1> ! wB97X-D3 SP def2-SVP
|  2> %pal
|  3> nprocs 24
|  4> end
|  5>
|  6> * xyz 0 1
|  7> S 	 -68.3953 	 -43.5596 	 -90.5179
|  8> C 	 -66.7433 	 -43.4362 	 -89.9758
|  9> C 	 -66.424 	 -44.4596 	 -89.0917
| 10> C 	 -67.5049 	 -45.3889 	 -88.8914
| 11> C 	 -68.616 	 -45.0916 	 -89.7202
| 12> H 	 -67.4182 	 -46.267 	 -88.3575
| 13> C 	 -65.1257 	 -44.4671 	 -88.2662
| 14> H 	 -64.7322 	 -43.5024 	 -88.4958
| 15> H 	 -64.6167 	 -45.1753 	 -88.8319
| 16> C 	 -65.1643 	 -44.5714 	 -86.7456
| 17> H 	 -64.1579 	 -44.2172 	 -86.3732
| 18> H 	 -65.9078 	 -43.9114 	 -86.2758
| 19> C 	 -65.5733 	 -45.9636 	 -86.1399
| 20> H 	 -66.6301 	 -46.1534 	 -86.0539
| 21> H 	 -65.1881 	 -46.8141 	 -86.6925
| 22> H 	 -65.2301 	 -46.1105 	 -85.1406
| 23> S 	 -71.1791 	 -45.4341 	 -88.9253
| 24> C 	 -71.9647 	 -46.9772 	 -89.2391
| 25> C 	 -71.2255 	 -47.7396 	 -90.0292
| 26> C 	 -69.9574 	 -47.1492 	 -90.4325
| 27> C 	 -69.7693 	 -45.8891 	 -89.8317
| 28> H 	 -71.6876 	 -48.6498 	 -90.326
| 29> C 	 -68.9653 	 -48.0708 	 -91.1133
| 30> H 	 -68.9059 	 -48.9579 	 -90.5064
| 31> H 	 -67.9834 	 -47.6006 	 -91.0659
| 32> C 	 -69.214 	 -48.4424 	 -92.5382
| 33> H 	 -68.2491 	 -48.842 	 -93.0033
| 34> H 	 -69.519 	 -47.5425 	 -93.0607
| 35> C 	 -70.2001 	 -49.5444 	 -92.7812
| 36> H 	 -69.6757 	 -50.4963 	 -92.8026
| 37> H 	 -70.7323 	 -49.4373 	 -93.7525
| 38> H 	 -71.1034 	 -49.6071 	 -92.1291
| 39> H 	 -66.0724 	 -42.7066 	 -90.3043
| 40> H 	 -72.8932 	 -47.4035 	 -88.9466
| 41> *
| 42>
| 43>                          ****END OF INPUT****

CARTESIAN COORDINATES (ANGSTROEM)
---------------------------------
  S    -68.395300  -43.559600  -90.517900
  C    -66.743300  -43.436200  -89.975800
  C    -66.424000  -44.459600  -89.091700
  C    -67.504900  -45.388900  -88.891400
  C    -68.616000  -45.091600  -89.720200
  H    -67.418200  -46.267000  -88.357500
  C    -65.125700  -44.467100  -88.266200
  H    -64.732200  -43.502400  -88.495800
  H    -64.616700  -45.175300  -88.831900
  C    -65.164300  -44.571400  -86.745600
  H    -64.157900  -44.217200  -86.373200
  H    -65.907800  -43.911400  -86.275800
  C    -65.573300  -45.963600  -86.139900
  H    -66.630100  -46.153400  -86.053900
  H    -65.188100  -46.814100  -86.692500
  H    -65.230100  -46.110500  -85.140600
  S    -71.179100  -45.434100  -88.925300
  C    -71.964700  -46.977200  -89.239100
  C    -71.225500  -47.739600  -90.029200
  C    -69.957400  -47.149200  -90.432500
  C    -69.769300  -45.889100  -89.831700
  H    -71.687600  -48.649800  -90.326000
  C    -68.965300  -48.070800  -91.113300
  H    -68.905900  -48.957900  -90.506400
  H    -67.983400  -47.600600  -91.065900
  C    -69.214000  -48.442400  -92.538200
  H    -68.249100  -48.842000  -93.003300
  H    -69.519000  -47.542500  -93.060700
  C    -70.200100  -49.544400  -92.781200
  H    -69.675700  -50.496300  -92.802600
  H    -70.732300  -49.437300  -93.752500
  H    -71.103400  -49.607100  -92.129100
  H    -66.072400  -42.706600  -90.304300
  H    -72.893200  -47.403500  -88.946600

 Total Charge           Charge          ....    0
 Multiplicity           Mult            ....    1
 Number of Electrons    NEL             ....  134
 Basis Dimension        Dim             ....  322

ORBITAL ENERGIES
----------------

  NO   OCC          E(Eh)            E(eV)
   0   2.0000     -88.966457     -2420.9004
   1   2.0000     -88.962036     -2420.7801
   2   2.0000     -10.326535      -280.9993
   3   2.0000     -10.323621      -280.9200
   4   2.0000     -10.309051      -280.5236
   5   2.0000     -10.306910      -280.4653
   6   2.0000     -10.305372      -280.4234
   7   2.0000     -10.300248      -280.2840
   8   2.0000     -10.299272      -280.2574
   9   2.0000     -10.291949      -280.0582
  10   2.0000     -10.286326      -279.9052
  11   2.0000     -10.283816      -279.8369
  12   2.0000     -10.283488      -279.8279
  13   2.0000     -10.282217      -279.7934
  14   2.0000     -10.276727      -279.6440
  15   2.0000     -10.275603      -279.6134
  16   2.0000      -8.081325      -219.9040
  17   2.0000      -8.077023      -219.7870
  18   2.0000      -6.039723      -164.3492
  19   2.0000      -6.035768      -164.2416
  20   2.0000      -6.035726      -164.2405
  21   2.0000      -6.032249      -164.1458
  22   2.0000      -6.031473      -164.1247
  23   2.0000      -6.027566      -164.0184
  24   2.0000      -1.006963       -27.4008
  25   2.0000      -0.982557       -26.7367
  26   2.0000      -0.913804       -24.8659
  27   2.0000      -0.909872       -24.7589
  28   2.0000      -0.877289       -23.8723
  29   2.0000      -0.845889       -23.0178
  30   2.0000      -0.843762       -22.9599
  31   2.0000      -0.821360       -22.3504
  32   2.0000      -0.790189       -21.5021
  33   2.0000      -0.773402       -21.0453
  34   2.0000      -0.717580       -19.5263
  35   2.0000      -0.704156       -19.1610
  36   2.0000      -0.686388       -18.6776
  37   2.0000      -0.655756       -17.8440
  38   2.0000      -0.645970       -17.5777
  39   2.0000      -0.618433       -16.8284
  40   2.0000      -0.595810       -16.2128
  41   2.0000      -0.570975       -15.5370
  42   2.0000      -0.554236       -15.0815
  43   2.0000      -0.550375       -14.9765
  44   2.0000      -0.539570       -14.6824
  45   2.0000      -0.536013       -14.5857
  46   2.0000      -0.524886       -14.2829
  47   2.0000      -0.520871       -14.1736
  48   2.0000      -0.509838       -13.8734
  49   2.0000      -0.495951       -13.4955
  50   2.0000      -0.494320       -13.4511
  51   2.0000      -0.488775       -13.3002
  52   2.0000      -0.475868       -12.9490
  53   2.0000      -0.465069       -12.6552
  54   2.0000      -0.455264       -12.3884
  55   2.0000      -0.445981       -12.1358
  56   2.0000      -0.436009       -11.8644
  57   2.0000      -0.433642       -11.8000
  58   2.0000      -0.428075       -11.6485
  59   2.0000      -0.424072       -11.5396
  60   2.0000      -0.421245       -11.4627
  61   2.0000      -0.409860       -11.1529
  62   2.0000      -0.407588       -11.0910
  63   2.0000      -0.339517        -9.2387
  64   2.0000      -0.329602        -8.9689
  65   2.0000      -0.318954        -8.6792
  66   2.0000      -0.302725        -8.2376
  67   0.0000       0.041340         1.1249
  68   0.0000       0.057267         1.5583
  69   0.0000       0.119828         3.2607
  70   0.0000       0.125398         3.4123
  71   0.0000       0.130955         3.5635

MULLIKEN ATOMIC CHARGES
-----------------------
   0 S :    0.127328
   1 C :   -0.108666
   2 C :   -0.134546
   3 C :    0.084570
   4 C :   -0.188800
   5 H :   -0.015378
   6 C :    0.124961
   7 H :    0.005223
   8 H :    0.028308
   9 C :   -0.070265
  10 H :    0.043699
  11 H :    0.043482
  12 C :   -0.060209
  13 H :    0.036116
  14 H :    0.022524
  15 H :    0.023609
  16 S :    0.111423
  17 C :   -0.053528
  18 C :   -0.050987
  19 C :   -0.004407
  20 C :   -0.178469
  21 H :    0.004779
  22 C :    0.082980
  23 H :    0.024673
  24 H :    0.019654
  25 C :   -0.065694
  26 H :    0.040001
  27 H :    0.032087
  28 C :   -0.072668
  29 H :    0.034778
  30 H :    0.031084
  31 H :    0.024103
  32 H :    0.028287
  33 H :    0.029949
Sum of atomic charges:   -0.0000000

LOEWDIN ATOMIC CHARGES
----------------------
   0 S :    0.420385
   1 C :   -0.199026
   2 C :   -0.056149
   3 C :   -0.045307
   4 C :   -0.205770
   5 H :    0.017562
   6 C :   -0.027867
   7 H :    0.029098
   8 H :    0.026987
   9 C :   -0.037262
  10 H :    0.034563
  11 H :    0.033794
  12 C :   -0.073025
  13 H :    0.024231
  14 H :    0.020926
  15 H :    0.024913
  16 S :    0.403215
  17 C :   -0.177830
  18 C :   -0.073823
  19 C :   -0.045007
  20 C :   -0.211247
  21 H :    0.025507
  22 C :   -0.033412
  23 H :    0.029691
  24 H :    0.031408
  25 C :   -0.046486
  26 H :    0.036753
  27 H :    0.025939
  28 C :   -0.078694
  29 H :    0.025102
  30 H :    0.032194
  31 H :    0.023144
  32 H :    0.016085
  33 H :    0.029410

  Mayer bond orders larger than 0.100000
B(  0-S ,  1-C ) :   1.1444 B(  0-S ,  4-C ) :   1.1670 B(  1-C ,  2-C ) :   1.6050
B(  1-C ,  4-C ) :   0.1023 B(  1-C , 32-H ) :   0.9725 B(  2-C ,  3-C ) :   1.2582
B(  2-C ,  6-C ) :   0.9895 B(  3-C ,  4-C ) :   1.5379 B(  3-C ,  5-H ) :   1.0019
B(  4-C , 20-C ) :   1.0525 B(  6-C ,  7-H ) :   0.9389 B(  6-C ,  8-H ) :   0.9350
B(  6-C ,  9-C ) :   1.0708 B(  9-C , 10-H ) :   0.9588 B(  9-C , 11-H ) :   0.9584
B(  9-C , 12-C ) :   1.0609 B( 12-C , 13-H ) :   0.9748 B( 12-C , 14-H ) :   0.9796
B( 12-C , 15-H ) :   0.9713 B( 16-S , 17-C ) :   1.1199 B( 16-S , 20-C ) :   1.1392
B( 17-C , 18-C ) :   1.7020 B( 17-C , 33-H ) :   0.9597 B( 18-C , 19-C ) :   1.1851
B( 18-C , 21-H ) :   0.9869 B( 19-C , 20-C ) :   1.6060 B( 19-C , 22-C ) :   1.0493
B( 22-C , 23-H ) :   0.9418 B( 22-C , 24-H ) :   0.9238 B( 22-C , 25-C ) :   1.0742
B( 25-C , 26-H ) :   0.9570 B( 25-C , 27-H ) :   0.9542 B( 25-C , 28-C ) :   1.0772
B( 28-C , 29-H ) :   0.9765 B( 28-C , 30-H ) :   0.9704 B( 28-C , 31-H ) :   0.9729

Dispersion correction           -0.014316295
FINAL SINGLE POINT ENERGY     -1339.853098233223

DIPOLE MOMENT
-------------
                                X             Y             Z
Electronic contribution:    -13.83195      16.88594      -1.32503
Nuclear contribution   :     14.26480     -17.38876       1.44380
                        -----------------------------------------
Total Dipole Moment    :      0.43285      -0.50282       0.11877
                        -----------------------------------------
Magnitude (a.u.)       :      0.67401
Magnitude (Debye)      :      1.71321

Rotational constants in cm-1:     0.019056     0.007746     0.007392
Rotational constants in MHz :   571.280029   232.217988   221.613157

                             ****ORCA TERMINATED NORMALLY****
TOTAL RUN TIME: 0 days 0 hours 0 minutes 21 seconds 532 msec
