                         Program Version 4.2.1 -  RELEASE  -
|  1> ! wB97X-D3 SP def2-SVP
|  2> %pal
|  3> nprocs 24
|  4> end
|  5>
|  6> * xyz 0 1
|  7> S 	 -104.931 	 43.7477 	 -12.9784
|  8> C 	 -104.982 	 45.5018 	 -12.7724
|  9> C 	 -106.199 	 46.0065 	 -13.0686
| 10> C 	 -107.151 	 44.9106 	 -13.3491
| 11> C 	 -106.706 	 43.5955 	 -13.1225
| 12> H 	 -108.116 	 45.1156 	 -13.7047
| 13> C 	 -106.607 	 47.4275 	 -13.2037
| 14> H 	 -107.009 	 47.5547 	 -14.2026
| 15> H 	 -105.705 	 48.1099 	 -13.1162
| 16> C 	 -107.55 	 48.0124 	 -12.1516
| 17> H 	 -108.02 	 48.976 	 -12.3602
| 18> H 	 -108.423 	 47.295 	 -12.0862
| 19> C 	 -106.887 	 48.0916 	 -10.8099
| 20> H 	 -106.87 	 47.1944 	 -10.2708
| 21> H 	 -105.894 	 48.4036 	 -10.9337
| 22> H 	 -107.457 	 48.7336 	 -10.2135
| 23> S 	 -106.276 	 41.1401 	 -14.4106
| 24> C 	 -107.479 	 39.9448 	 -14.6182
| 25> C 	 -108.618 	 40.3943 	 -14.0067
| 26> C 	 -108.533 	 41.679 	 -13.3683
| 27> C 	 -107.266 	 42.2947 	 -13.4945
| 28> H 	 -109.54 	 39.8562 	 -14.0168
| 29> C 	 -109.66 	 42.403 	 -12.5882
| 30> H 	 -110.193 	 43.081 	 -13.2685
| 31> H 	 -109.231 	 42.8678 	 -11.7304
| 32> C 	 -110.797 	 41.4429 	 -12.1263
| 33> H 	 -110.365 	 40.534 	 -11.6709
| 34> H 	 -111.306 	 40.9763 	 -13.041
| 35> C 	 -111.893 	 42.0927 	 -11.3223
| 36> H 	 -112.548 	 41.2529 	 -11.091
| 37> H 	 -112.44 	 42.8062 	 -11.9379
| 38> H 	 -111.49 	 42.4318 	 -10.2532
| 39> H 	 -104.083 	 46.0637 	 -12.4957
| 40> H 	 -107.388 	 38.9212 	 -15.0681
| 41> *
| 42>
| 43>                          ****END OF INPUT****

CARTESIAN COORDINATES (ANGSTROEM)
---------------------------------
  S    -104.931000   43.747700  -12.978400
  C    -104.982000   45.501800  -12.772400
  C    -106.199000   46.006500  -13.068600
  C    -107.151000   44.910600  -13.349100
  C    -106.706000   43.595500  -13.122500
  H    -108.116000   45.115600  -13.704700
  C    -106.607000   47.427500  -13.203700
  H    -107.009000   47.554700  -14.202600
  H    -105.705000   48.109900  -13.116200
  C    -107.550000   48.012400  -12.151600
  H    -108.020000   48.976000  -12.360200
  H    -108.423000   47.295000  -12.086200
  C    -106.887000   48.091600  -10.809900
  H    -106.870000   47.194400  -10.270800
  H    -105.894000   48.403600  -10.933700
  H    -107.457000   48.733600  -10.213500
  S    -106.276000   41.140100  -14.410600
  C    -107.479000   39.944800  -14.618200
  C    -108.618000   40.394300  -14.006700
  C    -108.533000   41.679000  -13.368300
  C    -107.266000   42.294700  -13.494500
  H    -109.540000   39.856200  -14.016800
  C    -109.660000   42.403000  -12.588200
  H    -110.193000   43.081000  -13.268500
  H    -109.231000   42.867800  -11.730400
  C    -110.797000   41.442900  -12.126300
  H    -110.365000   40.534000  -11.670900
  H    -111.306000   40.976300  -13.041000
  C    -111.893000   42.092700  -11.322300
  H    -112.548000   41.252900  -11.091000
  H    -112.440000   42.806200  -11.937900
  H    -111.490000   42.431800  -10.253200
  H    -104.083000   46.063700  -12.495700
  H    -107.388000   38.921200  -15.068100

 Total Charge           Charge          ....    0
 Multiplicity           Mult            ....    1
 Number of Electrons    NEL             ....  134
 Basis Dimension        Dim             ....  322

ORBITAL ENERGIES
----------------

  NO   OCC          E(Eh)            E(eV)
   0   2.0000     -88.963191     -2420.8115
   1   2.0000     -88.961076     -2420.7540
   2   2.0000     -10.341816      -281.4151
   3   2.0000     -10.333935      -281.2007
   4   2.0000     -10.320683      -280.8401
   5   2.0000     -10.319280      -280.8019
   6   2.0000     -10.307792      -280.4893
   7   2.0000     -10.305119      -280.4165
   8   2.0000     -10.302122      -280.3350
   9   2.0000     -10.296636      -280.1857
  10   2.0000     -10.293095      -280.0894
  11   2.0000     -10.291628      -280.0494
  12   2.0000     -10.291228      -280.0386
  13   2.0000     -10.289320      -279.9866
  14   2.0000     -10.287634      -279.9407
  15   2.0000     -10.259670      -279.1798
  16   2.0000      -8.078178      -219.8184
  17   2.0000      -8.075512      -219.7459
  18   2.0000      -6.036775      -164.2690
  19   2.0000      -6.034313      -164.2020
  20   2.0000      -6.032357      -164.1488
  21   2.0000      -6.030205      -164.0902
  22   2.0000      -6.029078      -164.0595
  23   2.0000      -6.025810      -163.9706
  24   2.0000      -1.004222       -27.3263
  25   2.0000      -0.984040       -26.7771
  26   2.0000      -0.919071       -25.0092
  27   2.0000      -0.906974       -24.6800
  28   2.0000      -0.875319       -23.8186
  29   2.0000      -0.850407       -23.1407
  30   2.0000      -0.840807       -22.8795
  31   2.0000      -0.817090       -22.2341
  32   2.0000      -0.784483       -21.3469
  33   2.0000      -0.773832       -21.0570
  34   2.0000      -0.709483       -19.3060
  35   2.0000      -0.697284       -18.9741
  36   2.0000      -0.691834       -18.8258
  37   2.0000      -0.648866       -17.6565
  38   2.0000      -0.638704       -17.3800
  39   2.0000      -0.624681       -16.9984
  40   2.0000      -0.596895       -16.2423
  41   2.0000      -0.572138       -15.5687
  42   2.0000      -0.571349       -15.5472
  43   2.0000      -0.565225       -15.3805
  44   2.0000      -0.547130       -14.8882
  45   2.0000      -0.523799       -14.2533
  46   2.0000      -0.518505       -14.1092
  47   2.0000      -0.515511       -14.0278
  48   2.0000      -0.509555       -13.8657
  49   2.0000      -0.501331       -13.6419
  50   2.0000      -0.489804       -13.3282
  51   2.0000      -0.483610       -13.1597
  52   2.0000      -0.473003       -12.8711
  53   2.0000      -0.465920       -12.6783
  54   2.0000      -0.460002       -12.5173
  55   2.0000      -0.451053       -12.2738
  56   2.0000      -0.442773       -12.0485
  57   2.0000      -0.438207       -11.9242
  58   2.0000      -0.425986       -11.5917
  59   2.0000      -0.420553       -11.4438
  60   2.0000      -0.413745       -11.2586
  61   2.0000      -0.410901       -11.1812
  62   2.0000      -0.401633       -10.9290
  63   2.0000      -0.359658        -9.7868
  64   2.0000      -0.328877        -8.9492
  65   2.0000      -0.323096        -8.7919
  66   2.0000      -0.291200        -7.9240
  67   0.0000       0.019020         0.5176
  68   0.0000       0.074249         2.0204
  69   0.0000       0.105105         2.8601
  70   0.0000       0.124100         3.3769
  71   0.0000       0.129027         3.5110

MULLIKEN ATOMIC CHARGES
-----------------------
   0 S :    0.066583
   1 C :   -0.126044
   2 C :   -0.060467
   3 C :    0.034868
   4 C :   -0.115400
   5 H :   -0.003935
   6 C :    0.038724
   7 H :    0.039126
   8 H :    0.026145
   9 C :   -0.094691
  10 H :    0.033510
  11 H :    0.023888
  12 C :    0.021694
  13 H :    0.025006
  14 H :    0.005944
  15 H :    0.013967
  16 S :    0.094294
  17 C :   -0.086643
  18 C :   -0.036922
  19 C :   -0.074229
  20 C :   -0.136500
  21 H :    0.005099
  22 C :    0.111910
  23 H :    0.038635
  24 H :    0.036973
  25 C :   -0.181190
  26 H :    0.031366
  27 H :    0.030225
  28 C :   -0.031689
  29 H :    0.033414
  30 H :    0.042502
  31 H :    0.052084
  32 H :    0.058687
  33 H :    0.083066
Sum of atomic charges:   -0.0000000

LOEWDIN ATOMIC CHARGES
----------------------
   0 S :    0.372087
   1 C :   -0.176614
   2 C :   -0.068471
   3 C :   -0.042219
   4 C :   -0.178524
   5 H :    0.017462
   6 C :   -0.036731
   7 H :    0.034843
   8 H :    0.033376
   9 C :   -0.043444
  10 H :    0.025358
  11 H :    0.025011
  12 C :   -0.052638
  13 H :    0.023330
  14 H :    0.015661
  15 H :    0.021877
  16 S :    0.414555
  17 C :   -0.206539
  18 C :   -0.082323
  19 C :   -0.057321
  20 C :   -0.196931
  21 H :    0.024667
  22 C :   -0.027486
  23 H :    0.033874
  24 H :    0.029181
  25 C :   -0.057920
  26 H :    0.021053
  27 H :    0.025214
  28 C :   -0.071941
  29 H :    0.029525
  30 H :    0.027062
  31 H :    0.039893
  32 H :    0.033926
  33 H :    0.051148

  Mayer bond orders larger than 0.100000
B(  0-S ,  1-C ) :   1.1319 B(  0-S ,  4-C ) :   1.1201 B(  1-C ,  2-C ) :   1.6288
B(  1-C , 32-H ) :   0.9659 B(  2-C ,  3-C ) :   1.2129 B(  2-C ,  6-C ) :   1.0299
B(  3-C ,  4-C ) :   1.5683 B(  3-C ,  5-H ) :   0.9960 B(  4-C , 20-C ) :   1.0757
B(  6-C ,  7-H ) :   0.9359 B(  6-C ,  8-H ) :   0.9469 B(  6-C ,  9-C ) :   1.0713
B(  9-C , 10-H ) :   0.9614 B(  9-C , 11-H ) :   0.9525 B(  9-C , 12-C ) :   1.0757
B( 12-C , 13-H ) :   0.9704 B( 12-C , 14-H ) :   0.9743 B( 12-C , 15-H ) :   0.9696
B( 16-S , 17-C ) :   1.1720 B( 16-S , 20-C ) :   1.1412 B( 17-C , 18-C ) :   1.5582
B( 17-C , 33-H ) :   0.9594 B( 18-C , 19-C ) :   1.2937 B( 18-C , 21-H ) :   0.9913
B( 19-C , 20-C ) :   1.5591 B( 19-C , 22-C ) :   1.0314 B( 22-C , 23-H ) :   0.9292
B( 22-C , 24-H ) :   0.9406 B( 22-C , 25-C ) :   1.0731 B( 25-C , 26-H ) :   0.9584
B( 25-C , 27-H ) :   0.9447 B( 25-C , 28-C ) :   1.0890 B( 28-C , 29-H ) :   0.9691
B( 28-C , 30-H ) :   0.9702 B( 28-C , 31-H ) :   0.9698

Dispersion correction           -0.013433410
FINAL SINGLE POINT ENERGY     -1339.860651944301

DIPOLE MOMENT
-------------
                                X             Y             Z
Electronic contribution:     21.66478     -15.34474     -12.30598
Nuclear contribution   :    -22.32841      15.68844      12.33442
                        -----------------------------------------
Total Dipole Moment    :     -0.66363       0.34371       0.02844
                        -----------------------------------------
Magnitude (a.u.)       :      0.74789
Magnitude (Debye)      :      1.90099

Rotational constants in cm-1:     0.017300     0.008590     0.006082
Rotational constants in MHz :   518.640172   257.511129   182.343511

                             ****ORCA TERMINATED NORMALLY****
TOTAL RUN TIME: 0 days 0 hours 0 minutes 20 seconds 957 msec
