                         Program Version 4.2.1 -  RELEASE  -
|  1> ! wB97X-D3 SP def2-SVP
|  2> %pal
|  3> nprocs 24
|  4> end
|  5>
|  6> * xyz 0 1
|  7> S 	 -112.062 	 62.0049 	 -67.9911
|  8> C 	 -111.231 	 60.6049 	 -67.3295
|  9> C 	 -110.911 	 60.7539 	 -65.9821
| 10> C 	 -111.569 	 61.8903 	 -65.3832
| 11> C 	 -112.171 	 62.673 	 -66.3582
| 12> H 	 -111.501 	 62.2958 	 -64.391
| 13> C 	 -110.048 	 59.7029 	 -65.1748
| 14> H 	 -109.15 	 59.5022 	 -65.8515
| 15> H 	 -110.523 	 58.7637 	 -65.0994
| 16> C 	 -109.576 	 60.0921 	 -63.744
| 17> H 	 -108.967 	 61.0156 	 -63.8353
| 18> H 	 -110.429 	 60.4233 	 -63.2148
| 19> C 	 -108.685 	 58.9976 	 -63.0983
| 20> H 	 -108.378 	 59.2409 	 -62.1378
| 21> H 	 -109.132 	 57.9664 	 -63.0367
| 22> H 	 -107.793 	 58.8088 	 -63.7386
| 23> S 	 -112.506 	 65.2951 	 -66.8401
| 24> C 	 -113.818 	 66.2731 	 -66.0587
| 25> C 	 -114.609 	 65.4412 	 -65.3295
| 26> C 	 -114.213 	 64.0534 	 -65.4179
| 27> C 	 -113.029 	 63.8359 	 -66.1331
| 28> H 	 -115.533 	 65.8078 	 -64.7357
| 29> C 	 -114.898 	 63.0978 	 -64.4429
| 30> H 	 -114.775 	 63.4944 	 -63.4604
| 31> H 	 -114.232 	 62.201 	 -64.2894
| 32> C 	 -116.314 	 62.6466 	 -64.6592
| 33> H 	 -117.012 	 63.4935 	 -64.4969
| 34> H 	 -116.581 	 61.955 	 -63.9004
| 35> C 	 -116.498 	 61.9862 	 -66.0669
| 36> H 	 -115.87 	 61.1226 	 -66.2256
| 37> H 	 -116.318 	 62.6277 	 -66.909
| 38> H 	 -117.47 	 61.6039 	 -66.1341
| 39> H 	 -110.881 	 59.8045 	 -68.0116
| 40> H 	 -114.02 	 67.266 	 -66.3539
| 41> *
| 42>
| 43>                          ****END OF INPUT****

CARTESIAN COORDINATES (ANGSTROEM)
---------------------------------
  S    -112.062000   62.004900  -67.991100
  C    -111.231000   60.604900  -67.329500
  C    -110.911000   60.753900  -65.982100
  C    -111.569000   61.890300  -65.383200
  C    -112.171000   62.673000  -66.358200
  H    -111.501000   62.295800  -64.391000
  C    -110.048000   59.702900  -65.174800
  H    -109.150000   59.502200  -65.851500
  H    -110.523000   58.763700  -65.099400
  C    -109.576000   60.092100  -63.744000
  H    -108.967000   61.015600  -63.835300
  H    -110.429000   60.423300  -63.214800
  C    -108.685000   58.997600  -63.098300
  H    -108.378000   59.240900  -62.137800
  H    -109.132000   57.966400  -63.036700
  H    -107.793000   58.808800  -63.738600
  S    -112.506000   65.295100  -66.840100
  C    -113.818000   66.273100  -66.058700
  C    -114.609000   65.441200  -65.329500
  C    -114.213000   64.053400  -65.417900
  C    -113.029000   63.835900  -66.133100
  H    -115.533000   65.807800  -64.735700
  C    -114.898000   63.097800  -64.442900
  H    -114.775000   63.494400  -63.460400
  H    -114.232000   62.201000  -64.289400
  C    -116.314000   62.646600  -64.659200
  H    -117.012000   63.493500  -64.496900
  H    -116.581000   61.955000  -63.900400
  C    -116.498000   61.986200  -66.066900
  H    -115.870000   61.122600  -66.225600
  H    -116.318000   62.627700  -66.909000
  H    -117.470000   61.603900  -66.134100
  H    -110.881000   59.804500  -68.011600
  H    -114.020000   67.266000  -66.353900

 Total Charge           Charge          ....    0
 Multiplicity           Mult            ....    1
 Number of Electrons    NEL             ....  134
 Basis Dimension        Dim             ....  322

ORBITAL ENERGIES
----------------

  NO   OCC          E(Eh)            E(eV)
   0   2.0000     -88.969570     -2420.9851
   1   2.0000     -88.959369     -2420.7075
   2   2.0000     -10.331658      -281.1387
   3   2.0000     -10.326069      -280.9866
   4   2.0000     -10.319739      -280.8144
   5   2.0000     -10.316653      -280.7304
   6   2.0000     -10.312512      -280.6177
   7   2.0000     -10.303614      -280.3756
   8   2.0000     -10.300985      -280.3040
   9   2.0000     -10.300680      -280.2957
  10   2.0000     -10.299386      -280.2606
  11   2.0000     -10.292370      -280.0696
  12   2.0000     -10.285050      -279.8704
  13   2.0000     -10.284170      -279.8465
  14   2.0000     -10.283513      -279.8286
  15   2.0000     -10.263891      -279.2947
  16   2.0000      -8.083940      -219.9752
  17   2.0000      -8.074513      -219.7187
  18   2.0000      -6.042343      -164.4205
  19   2.0000      -6.038601      -164.3187
  20   2.0000      -6.034721      -164.2131
  21   2.0000      -6.033109      -164.1692
  22   2.0000      -6.028818      -164.0525
  23   2.0000      -6.025284      -163.9563
  24   2.0000      -1.004718       -27.3398
  25   2.0000      -0.979864       -26.6635
  26   2.0000      -0.905239       -24.6328
  27   2.0000      -0.902706       -24.5639
  28   2.0000      -0.870565       -23.6893
  29   2.0000      -0.848459       -23.0877
  30   2.0000      -0.838346       -22.8125
  31   2.0000      -0.815662       -22.1953
  32   2.0000      -0.780587       -21.2409
  33   2.0000      -0.772090       -21.0096
  34   2.0000      -0.714268       -19.4362
  35   2.0000      -0.698093       -18.9961
  36   2.0000      -0.688278       -18.7290
  37   2.0000      -0.656301       -17.8588
  38   2.0000      -0.646746       -17.5989
  39   2.0000      -0.617378       -16.7997
  40   2.0000      -0.595078       -16.1929
  41   2.0000      -0.563637       -15.3373
  42   2.0000      -0.558908       -15.2087
  43   2.0000      -0.550248       -14.9730
  44   2.0000      -0.536310       -14.5937
  45   2.0000      -0.522799       -14.2261
  46   2.0000      -0.512919       -13.9572
  47   2.0000      -0.510086       -13.8801
  48   2.0000      -0.503918       -13.7123
  49   2.0000      -0.493129       -13.4187
  50   2.0000      -0.491789       -13.3823
  51   2.0000      -0.476202       -12.9581
  52   2.0000      -0.474295       -12.9062
  53   2.0000      -0.457585       -12.4515
  54   2.0000      -0.457057       -12.4371
  55   2.0000      -0.453811       -12.3488
  56   2.0000      -0.445819       -12.1314
  57   2.0000      -0.434777       -11.8309
  58   2.0000      -0.428768       -11.6674
  59   2.0000      -0.426295       -11.6001
  60   2.0000      -0.421454       -11.4683
  61   2.0000      -0.414982       -11.2922
  62   2.0000      -0.406709       -11.0671
  63   2.0000      -0.344326        -9.3696
  64   2.0000      -0.335657        -9.1337
  65   2.0000      -0.322102        -8.7648
  66   2.0000      -0.298765        -8.1298
  67   0.0000       0.034463         0.9378
  68   0.0000       0.060801         1.6545
  69   0.0000       0.107575         2.9273
  70   0.0000       0.121418         3.3040
  71   0.0000       0.126390         3.4393

MULLIKEN ATOMIC CHARGES
-----------------------
   0 S :    0.123158
   1 C :   -0.149019
   2 C :   -0.053036
   3 C :    0.024722
   4 C :   -0.137804
   5 H :    0.025246
   6 C :    0.021363
   7 H :    0.037298
   8 H :    0.032413
   9 C :   -0.080871
  10 H :    0.034448
  11 H :    0.029469
  12 C :   -0.028975
  13 H :    0.024986
  14 H :    0.032632
  15 H :    0.033309
  16 S :    0.080655
  17 C :   -0.087372
  18 C :   -0.049496
  19 C :   -0.012916
  20 C :   -0.176745
  21 H :    0.059473
  22 C :    0.016773
  23 H :    0.018893
  24 H :    0.015713
  25 C :   -0.040039
  26 H :    0.022742
  27 H :    0.018919
  28 C :   -0.025997
  29 H :    0.023276
  30 H :    0.038676
  31 H :    0.013829
  32 H :    0.063923
  33 H :    0.050356
Sum of atomic charges:    0.0000000

LOEWDIN ATOMIC CHARGES
----------------------
   0 S :    0.403496
   1 C :   -0.199004
   2 C :   -0.057890
   3 C :   -0.059216
   4 C :   -0.187734
   5 H :    0.035041
   6 C :   -0.032520
   7 H :    0.037315
   8 H :    0.023057
   9 C :   -0.041760
  10 H :    0.029660
  11 H :    0.016082
  12 C :   -0.061568
  13 H :    0.016653
  14 H :    0.029916
  15 H :    0.032173
  16 S :    0.394872
  17 C :   -0.164975
  18 C :   -0.073348
  19 C :   -0.064221
  20 C :   -0.214209
  21 H :    0.049743
  22 C :   -0.044413
  23 H :    0.026606
  24 H :    0.032213
  25 C :   -0.035864
  26 H :    0.022288
  27 H :    0.022561
  28 C :   -0.058579
  29 H :    0.026152
  30 H :    0.025573
  31 H :    0.017215
  32 H :    0.033195
  33 H :    0.021489

  Mayer bond orders larger than 0.100000
B(  0-S ,  1-C ) :   1.1433 B(  0-S ,  4-C ) :   1.1562 B(  1-C ,  2-C ) :   1.6231
B(  1-C ,  4-C ) :   0.1025 B(  1-C , 32-H ) :   0.9681 B(  2-C ,  3-C ) :   1.2201
B(  2-C ,  6-C ) :   0.9912 B(  3-C ,  4-C ) :   1.5996 B(  3-C ,  5-H ) :   0.9902
B(  4-C , 20-C ) :   0.9980 B(  6-C ,  7-H ) :   0.9464 B(  6-C ,  8-H ) :   0.9498
B(  6-C ,  9-C ) :   1.0672 B(  9-C , 10-H ) :   0.9569 B(  9-C , 11-H ) :   0.9514
B(  9-C , 12-C ) :   1.0768 B( 12-C , 13-H ) :   0.9744 B( 12-C , 14-H ) :   0.9759
B( 12-C , 15-H ) :   0.9737 B( 16-S , 17-C ) :   1.1314 B( 16-S , 20-C ) :   1.1566
B( 17-C , 18-C ) :   1.6204 B( 17-C , 33-H ) :   0.9764 B( 18-C , 19-C ) :   1.2334
B( 18-C , 21-H ) :   0.9720 B( 19-C , 20-C ) :   1.5914 B( 19-C , 22-C ) :   1.0316
B( 22-C , 23-H ) :   0.9394 B( 22-C , 24-H ) :   0.9360 B( 22-C , 25-C ) :   1.0887
B( 25-C , 26-H ) :   0.9536 B( 25-C , 27-H ) :   0.9489 B( 25-C , 28-C ) :   1.0746
B( 28-C , 29-H ) :   0.9746 B( 28-C , 30-H ) :   0.9756 B( 28-C , 31-H ) :   0.9742

Dispersion correction           -0.014230407
FINAL SINGLE POINT ENERGY     -1339.869619992561

DIPOLE MOMENT
-------------
                                X             Y             Z
Electronic contribution:      1.93312      17.58151     -17.81981
Nuclear contribution   :     -1.97189     -17.96566      18.36558
                        -----------------------------------------
Total Dipole Moment    :     -0.03877      -0.38414       0.54576
                        -----------------------------------------
Magnitude (a.u.)       :      0.66852
Magnitude (Debye)      :      1.69925

Rotational constants in cm-1:     0.018780     0.007709     0.007061
Rotational constants in MHz :   563.024068   231.095574   211.698191

                             ****ORCA TERMINATED NORMALLY****
TOTAL RUN TIME: 0 days 0 hours 0 minutes 21 seconds 159 msec
