                         Program Version 4.2.1 -  RELEASE  -
|  1> ! wB97X-D3 SP def2-SVP
|  2> %pal
|  3> nprocs 24
|  4> end
|  5>
|  6> * xyz 0 1
|  7> S 	 -31.7507 	 -32.5898 	 -91.4961
|  8> C 	 -31.889 	 -33.3253 	 -93.0896
|  9> C 	 -30.7508 	 -34.0807 	 -93.345
| 10> C 	 -29.7957 	 -34.1468 	 -92.2254
| 11> C 	 -30.0999 	 -33.2046 	 -91.2506
| 12> H 	 -28.8434 	 -34.7537 	 -92.2237
| 13> C 	 -30.3932 	 -35.0513 	 -94.5937
| 14> H 	 -29.7084 	 -35.8689 	 -94.3466
| 15> H 	 -29.7347 	 -34.4946 	 -95.3009
| 16> C 	 -31.5568 	 -35.6249 	 -95.3853
| 17> H 	 -32.2483 	 -34.8317 	 -95.6739
| 18> H 	 -31.1445 	 -35.9319 	 -96.4208
| 19> C 	 -32.2117 	 -36.7166 	 -94.5521
| 20> H 	 -31.5812 	 -37.6349 	 -94.4711
| 21> H 	 -32.5084 	 -36.3481 	 -93.5758
| 22> H 	 -33.0881 	 -36.9882 	 -95.1037
| 23> S 	 -29.6668 	 -33.9957 	 -88.6767
| 24> C 	 -28.5006 	 -33.3164 	 -87.7229
| 25> C 	 -27.7064 	 -32.3846 	 -88.3949
| 26> C 	 -28.2922 	 -32.1206 	 -89.7366
| 27> C 	 -29.4186 	 -32.9103 	 -90.0212
| 28> H 	 -26.757 	 -31.9078 	 -87.9905
| 29> C 	 -27.8404 	 -30.9213 	 -90.5762
| 30> H 	 -28.1735 	 -30.0667 	 -90.0167
| 31> H 	 -28.4502 	 -30.8664 	 -91.4636
| 32> C 	 -26.4459 	 -30.9537 	 -91.1724
| 33> H 	 -26.374 	 -31.8596 	 -91.803
| 34> H 	 -25.6563 	 -30.9224 	 -90.3795
| 35> C 	 -26.252 	 -29.8498 	 -92.1487
| 36> H 	 -25.2209 	 -29.4446 	 -92.2015
| 37> H 	 -26.8108 	 -28.9627 	 -91.8538
| 38> H 	 -26.5335 	 -29.9948 	 -93.1645
| 39> H 	 -32.7234 	 -33.3244 	 -93.7844
| 40> H 	 -28.123 	 -33.7669 	 -86.8287
| 41> *
| 42>
| 43>                          ****END OF INPUT****

CARTESIAN COORDINATES (ANGSTROEM)
---------------------------------
  S    -31.750700  -32.589800  -91.496100
  C    -31.889000  -33.325300  -93.089600
  C    -30.750800  -34.080700  -93.345000
  C    -29.795700  -34.146800  -92.225400
  C    -30.099900  -33.204600  -91.250600
  H    -28.843400  -34.753700  -92.223700
  C    -30.393200  -35.051300  -94.593700
  H    -29.708400  -35.868900  -94.346600
  H    -29.734700  -34.494600  -95.300900
  C    -31.556800  -35.624900  -95.385300
  H    -32.248300  -34.831700  -95.673900
  H    -31.144500  -35.931900  -96.420800
  C    -32.211700  -36.716600  -94.552100
  H    -31.581200  -37.634900  -94.471100
  H    -32.508400  -36.348100  -93.575800
  H    -33.088100  -36.988200  -95.103700
  S    -29.666800  -33.995700  -88.676700
  C    -28.500600  -33.316400  -87.722900
  C    -27.706400  -32.384600  -88.394900
  C    -28.292200  -32.120600  -89.736600
  C    -29.418600  -32.910300  -90.021200
  H    -26.757000  -31.907800  -87.990500
  C    -27.840400  -30.921300  -90.576200
  H    -28.173500  -30.066700  -90.016700
  H    -28.450200  -30.866400  -91.463600
  C    -26.445900  -30.953700  -91.172400
  H    -26.374000  -31.859600  -91.803000
  H    -25.656300  -30.922400  -90.379500
  C    -26.252000  -29.849800  -92.148700
  H    -25.220900  -29.444600  -92.201500
  H    -26.810800  -28.962700  -91.853800
  H    -26.533500  -29.994800  -93.164500
  H    -32.723400  -33.324400  -93.784400
  H    -28.123000  -33.766900  -86.828700

 Total Charge           Charge          ....    0
 Multiplicity           Mult            ....    1
 Number of Electrons    NEL             ....  134
 Basis Dimension        Dim             ....  322

ORBITAL ENERGIES
----------------

  NO   OCC          E(Eh)            E(eV)
   0   2.0000     -88.965626     -2420.8777
   1   2.0000     -88.962687     -2420.7978
   2   2.0000     -10.332830      -281.1706
   3   2.0000     -10.322753      -280.8964
   4   2.0000     -10.320845      -280.8445
   5   2.0000     -10.313186      -280.6361
   6   2.0000     -10.311978      -280.6032
   7   2.0000     -10.310504      -280.5631
   8   2.0000     -10.305680      -280.4318
   9   2.0000     -10.302690      -280.3505
  10   2.0000     -10.298832      -280.2455
  11   2.0000     -10.291894      -280.0567
  12   2.0000     -10.287846      -279.9465
  13   2.0000     -10.284654      -279.8597
  14   2.0000     -10.275563      -279.6123
  15   2.0000     -10.270542      -279.4756
  16   2.0000      -8.079715      -219.8602
  17   2.0000      -8.079552      -219.8558
  18   2.0000      -6.038415      -164.3136
  19   2.0000      -6.037912      -164.2999
  20   2.0000      -6.034306      -164.2018
  21   2.0000      -6.033533      -164.1808
  22   2.0000      -6.030537      -164.0993
  23   2.0000      -6.030284      -164.0924
  24   2.0000      -1.007197       -27.4072
  25   2.0000      -0.980546       -26.6820
  26   2.0000      -0.915161       -24.9028
  27   2.0000      -0.906990       -24.6805
  28   2.0000      -0.871447       -23.7133
  29   2.0000      -0.850115       -23.1328
  30   2.0000      -0.839053       -22.8318
  31   2.0000      -0.807537       -21.9742
  32   2.0000      -0.781481       -21.2652
  33   2.0000      -0.773323       -21.0432
  34   2.0000      -0.705603       -19.2004
  35   2.0000      -0.697623       -18.9833
  36   2.0000      -0.691348       -18.8125
  37   2.0000      -0.652272       -17.7492
  38   2.0000      -0.637275       -17.3411
  39   2.0000      -0.608309       -16.5529
  40   2.0000      -0.595103       -16.1936
  41   2.0000      -0.572175       -15.5697
  42   2.0000      -0.569239       -15.4898
  43   2.0000      -0.550262       -14.9734
  44   2.0000      -0.537592       -14.6286
  45   2.0000      -0.523636       -14.2489
  46   2.0000      -0.516687       -14.0598
  47   2.0000      -0.510812       -13.8999
  48   2.0000      -0.502500       -13.6737
  49   2.0000      -0.496411       -13.5080
  50   2.0000      -0.488207       -13.2848
  51   2.0000      -0.480966       -13.0878
  52   2.0000      -0.475659       -12.9433
  53   2.0000      -0.465871       -12.6770
  54   2.0000      -0.463550       -12.6138
  55   2.0000      -0.445803       -12.1309
  56   2.0000      -0.436595       -11.8804
  57   2.0000      -0.431324       -11.7369
  58   2.0000      -0.424693       -11.5565
  59   2.0000      -0.422372       -11.4933
  60   2.0000      -0.419572       -11.4171
  61   2.0000      -0.408157       -11.1065
  62   2.0000      -0.407557       -11.0902
  63   2.0000      -0.333364        -9.0713
  64   2.0000      -0.322898        -8.7865
  65   2.0000      -0.320412        -8.7188
  66   2.0000      -0.316455        -8.6112
  67   0.0000       0.043577         1.1858
  68   0.0000       0.051870         1.4115
  69   0.0000       0.111156         3.0247
  70   0.0000       0.115674         3.1476
  71   0.0000       0.125825         3.4239

MULLIKEN ATOMIC CHARGES
-----------------------
   0 S :    0.102921
   1 C :   -0.108143
   2 C :   -0.096084
   3 C :    0.022854
   4 C :   -0.169892
   5 H :    0.048561
   6 C :    0.028855
   7 H :    0.024093
   8 H :    0.034279
   9 C :   -0.107276
  10 H :    0.025731
  11 H :    0.035441
  12 C :   -0.027344
  13 H :    0.038825
  14 H :    0.043011
  15 H :    0.024237
  16 S :    0.130564
  17 C :   -0.068726
  18 C :   -0.068447
  19 C :   -0.047921
  20 C :   -0.162920
  21 H :    0.049111
  22 C :    0.046191
  23 H :    0.040901
  24 H :    0.012541
  25 C :   -0.056088
  26 H :    0.036767
  27 H :    0.035463
  28 C :   -0.048882
  29 H :    0.027812
  30 H :    0.013983
  31 H :    0.031112
  32 H :    0.050585
  33 H :    0.057886
Sum of atomic charges:    0.0000000

LOEWDIN ATOMIC CHARGES
----------------------
   0 S :    0.392512
   1 C :   -0.202789
   2 C :   -0.059667
   3 C :   -0.059105
   4 C :   -0.192445
   5 H :    0.045162
   6 C :   -0.038878
   7 H :    0.028561
   8 H :    0.032166
   9 C :   -0.054252
  10 H :    0.019542
  11 H :    0.033739
  12 C :   -0.062693
  13 H :    0.031106
  14 H :    0.027966
  15 H :    0.021915
  16 S :    0.455984
  17 C :   -0.215185
  18 C :   -0.086155
  19 C :   -0.039660
  20 C :   -0.228968
  21 H :    0.042837
  22 C :   -0.036706
  23 H :    0.033632
  24 H :    0.030145
  25 C :   -0.043129
  26 H :    0.034612
  27 H :    0.024929
  28 C :   -0.072640
  29 H :    0.030964
  30 H :    0.023358
  31 H :    0.022061
  32 H :    0.032388
  33 H :    0.028693

  Mayer bond orders larger than 0.100000
B(  0-S ,  1-C ) :   1.1226 B(  0-S ,  4-C ) :   1.1344 B(  1-C ,  2-C ) :   1.6478
B(  1-C , 32-H ) :   0.9663 B(  2-C ,  3-C ) :   1.2120 B(  2-C ,  6-C ) :   0.9880
B(  3-C ,  4-C ) :   1.6150 B(  3-C ,  5-H ) :   0.9832 B(  4-C , 20-C ) :   1.0138
B(  6-C ,  7-H ) :   0.9541 B(  6-C ,  8-H ) :   0.9401 B(  6-C ,  9-C ) :   1.0807
B(  9-C , 10-H ) :   0.9534 B(  9-C , 11-H ) :   0.9502 B(  9-C , 12-C ) :   1.0722
B( 12-C , 13-H ) :   0.9742 B( 12-C , 14-H ) :   0.9743 B( 12-C , 15-H ) :   0.9738
B( 16-S , 17-C ) :   1.2059 B( 16-S , 20-C ) :   1.1459 B( 17-C , 18-C ) :   1.5760
B( 17-C , 33-H ) :   0.9630 B( 18-C , 19-C ) :   1.2555 B( 18-C , 21-H ) :   0.9809
B( 19-C , 20-C ) :   1.5854 B( 19-C , 22-C ) :   1.0400 B( 22-C , 23-H ) :   0.9388
B( 22-C , 24-H ) :   0.9366 B( 22-C , 25-C ) :   1.0612 B( 25-C , 26-H ) :   0.9552
B( 25-C , 27-H ) :   0.9571 B( 25-C , 28-C ) :   1.0862 B( 28-C , 29-H ) :   0.9711
B( 28-C , 30-H ) :   0.9697 B( 28-C , 31-H ) :   0.9745

Dispersion correction           -0.013844534
FINAL SINGLE POINT ENERGY     -1339.855597793267

DIPOLE MOMENT
-------------
                                X             Y             Z
Electronic contribution:     -9.67989      -0.06126      20.22295
Nuclear contribution   :     10.15989      -0.07141     -20.64133
                        -----------------------------------------
Total Dipole Moment    :      0.48000      -0.13266      -0.41838
                        -----------------------------------------
Magnitude (a.u.)       :      0.65041
Magnitude (Debye)      :      1.65321

Rotational constants in cm-1:     0.019183     0.007786     0.006468
Rotational constants in MHz :   575.094677   233.410634   193.894962

                             ****ORCA TERMINATED NORMALLY****
TOTAL RUN TIME: 0 days 0 hours 0 minutes 20 seconds 711 msec
