                         Program Version 4.2.1 -  RELEASE  -
|  1> ! wB97X-D3 SP def2-SVP
|  2> %pal
|  3> nprocs 24
|  4> end
|  5>
|  6> * xyz 0 1
|  7> S 	 -82.718 	 -42.9624 	 -87.2105
|  8> C 	 -82.3721 	 -41.8465 	 -85.9153
|  9> C 	 -82.6511 	 -40.5214 	 -86.2166
| 10> C 	 -83.4708 	 -40.4399 	 -87.4028
| 11> C 	 -83.6486 	 -41.6489 	 -88.0191
| 12> H 	 -84.0365 	 -39.5805 	 -87.787
| 13> C 	 -82.4113 	 -39.3524 	 -85.2754
| 14> H 	 -82.4033 	 -39.8629 	 -84.2945
| 15> H 	 -83.3542 	 -38.8475 	 -85.3005
| 16> C 	 -81.2325 	 -38.377 	 -85.4837
| 17> H 	 -80.2293 	 -38.7832 	 -85.2657
| 18> H 	 -81.1213 	 -38.0054 	 -86.4961
| 19> C 	 -81.2303 	 -37.1847 	 -84.5806
| 20> H 	 -80.3929 	 -36.5149 	 -84.7794
| 21> H 	 -82.1762 	 -36.6111 	 -84.5647
| 22> H 	 -80.9792 	 -37.4629 	 -83.5949
| 23> S 	 -83.5676 	 -41.6358 	 -90.8047
| 24> C 	 -84.9834 	 -42.0627 	 -91.6271
| 25> C 	 -86.1217 	 -42.0885 	 -90.8366
| 26> C 	 -85.8007 	 -42.042 	 -89.4016
| 27> C 	 -84.4171 	 -41.8657 	 -89.209
| 28> H 	 -87.147 	 -42.1567 	 -91.1899
| 29> C 	 -86.8377 	 -42.2889 	 -88.2519
| 30> H 	 -87.8088 	 -42.0505 	 -88.7096
| 31> H 	 -86.7479 	 -41.6217 	 -87.3685
| 32> C 	 -86.8394 	 -43.7217 	 -87.7225
| 33> H 	 -87.4081 	 -43.7388 	 -86.7962
| 34> H 	 -85.7922 	 -44.0379 	 -87.4442
| 35> C 	 -87.3053 	 -44.7599 	 -88.7132
| 36> H 	 -88.2621 	 -44.5074 	 -89.0946
| 37> H 	 -87.3518 	 -45.7664 	 -88.2388
| 38> H 	 -86.5731 	 -44.807 	 -89.5758
| 39> H 	 -81.7759 	 -42.0391 	 -85.0537
| 40> H 	 -84.9106 	 -42.3281 	 -92.6676
| 41> *
| 42>
| 43>                          ****END OF INPUT****

CARTESIAN COORDINATES (ANGSTROEM)
---------------------------------
  S    -82.718000  -42.962400  -87.210500
  C    -82.372100  -41.846500  -85.915300
  C    -82.651100  -40.521400  -86.216600
  C    -83.470800  -40.439900  -87.402800
  C    -83.648600  -41.648900  -88.019100
  H    -84.036500  -39.580500  -87.787000
  C    -82.411300  -39.352400  -85.275400
  H    -82.403300  -39.862900  -84.294500
  H    -83.354200  -38.847500  -85.300500
  C    -81.232500  -38.377000  -85.483700
  H    -80.229300  -38.783200  -85.265700
  H    -81.121300  -38.005400  -86.496100
  C    -81.230300  -37.184700  -84.580600
  H    -80.392900  -36.514900  -84.779400
  H    -82.176200  -36.611100  -84.564700
  H    -80.979200  -37.462900  -83.594900
  S    -83.567600  -41.635800  -90.804700
  C    -84.983400  -42.062700  -91.627100
  C    -86.121700  -42.088500  -90.836600
  C    -85.800700  -42.042000  -89.401600
  C    -84.417100  -41.865700  -89.209000
  H    -87.147000  -42.156700  -91.189900
  C    -86.837700  -42.288900  -88.251900
  H    -87.808800  -42.050500  -88.709600
  H    -86.747900  -41.621700  -87.368500
  C    -86.839400  -43.721700  -87.722500
  H    -87.408100  -43.738800  -86.796200
  H    -85.792200  -44.037900  -87.444200
  C    -87.305300  -44.759900  -88.713200
  H    -88.262100  -44.507400  -89.094600
  H    -87.351800  -45.766400  -88.238800
  H    -86.573100  -44.807000  -89.575800
  H    -81.775900  -42.039100  -85.053700
  H    -84.910600  -42.328100  -92.667600

 Total Charge           Charge          ....    0
 Multiplicity           Mult            ....    1
 Number of Electrons    NEL             ....  134
 Basis Dimension        Dim             ....  322

ORBITAL ENERGIES
----------------

  NO   OCC          E(Eh)            E(eV)
   0   2.0000     -88.967133     -2420.9188
   1   2.0000     -88.962144     -2420.7830
   2   2.0000     -10.325403      -280.9685
   3   2.0000     -10.325078      -280.9597
   4   2.0000     -10.315394      -280.6962
   5   2.0000     -10.313605      -280.6474
   6   2.0000     -10.311341      -280.5859
   7   2.0000     -10.301794      -280.3261
   8   2.0000     -10.299040      -280.2511
   9   2.0000     -10.298273      -280.2302
  10   2.0000     -10.295686      -280.1599
  11   2.0000     -10.295558      -280.1564
  12   2.0000     -10.287922      -279.9486
  13   2.0000     -10.281965      -279.7865
  14   2.0000     -10.273081      -279.5447
  15   2.0000     -10.273069      -279.5444
  16   2.0000      -8.080939      -219.8935
  17   2.0000      -8.077372      -219.7965
  18   2.0000      -6.039461      -164.3421
  19   2.0000      -6.035774      -164.2418
  20   2.0000      -6.035760      -164.2414
  21   2.0000      -6.031915      -164.1368
  22   2.0000      -6.031538      -164.1265
  23   2.0000      -6.028131      -164.0338
  24   2.0000      -0.999182       -27.1891
  25   2.0000      -0.978093       -26.6153
  26   2.0000      -0.911270       -24.7969
  27   2.0000      -0.905966       -24.6526
  28   2.0000      -0.871287       -23.7089
  29   2.0000      -0.853118       -23.2145
  30   2.0000      -0.843171       -22.9439
  31   2.0000      -0.810002       -22.0413
  32   2.0000      -0.783732       -21.3264
  33   2.0000      -0.768859       -20.9217
  34   2.0000      -0.705601       -19.2004
  35   2.0000      -0.700678       -19.0664
  36   2.0000      -0.682896       -18.5825
  37   2.0000      -0.658672       -17.9234
  38   2.0000      -0.640866       -17.4389
  39   2.0000      -0.610436       -16.6108
  40   2.0000      -0.594550       -16.1785
  41   2.0000      -0.569647       -15.5009
  42   2.0000      -0.555114       -15.1054
  43   2.0000      -0.546467       -14.8701
  44   2.0000      -0.544052       -14.8044
  45   2.0000      -0.527311       -14.3489
  46   2.0000      -0.513855       -13.9827
  47   2.0000      -0.512606       -13.9487
  48   2.0000      -0.505200       -13.7472
  49   2.0000      -0.500314       -13.6142
  50   2.0000      -0.480115       -13.0646
  51   2.0000      -0.477620       -12.9967
  52   2.0000      -0.471121       -12.8198
  53   2.0000      -0.460667       -12.5354
  54   2.0000      -0.457705       -12.4548
  55   2.0000      -0.447290       -12.1714
  56   2.0000      -0.438489       -11.9319
  57   2.0000      -0.434775       -11.8308
  58   2.0000      -0.433455       -11.7949
  59   2.0000      -0.428235       -11.6529
  60   2.0000      -0.423835       -11.5331
  61   2.0000      -0.415105       -11.2956
  62   2.0000      -0.407331       -11.0840
  63   2.0000      -0.336068        -9.1449
  64   2.0000      -0.328066        -8.9271
  65   2.0000      -0.311308        -8.4711
  66   2.0000      -0.310938        -8.4611
  67   0.0000       0.040891         1.1127
  68   0.0000       0.047154         1.2831
  69   0.0000       0.105437         2.8691
  70   0.0000       0.113462         3.0875
  71   0.0000       0.125774         3.4225

MULLIKEN ATOMIC CHARGES
-----------------------
   0 S :    0.115449
   1 C :   -0.095287
   2 C :   -0.099092
   3 C :    0.044373
   4 C :   -0.178250
   5 H :    0.027149
   6 C :    0.069915
   7 H :    0.021096
   8 H :    0.017603
   9 C :   -0.037042
  10 H :    0.023496
  11 H :    0.027960
  12 C :   -0.046841
  13 H :    0.027306
  14 H :    0.033396
  15 H :    0.010939
  16 S :    0.109388
  17 C :   -0.090220
  18 C :   -0.026643
  19 C :   -0.034465
  20 C :   -0.202445
  21 H :    0.021384
  22 C :    0.075877
  23 H :    0.015933
  24 H :    0.040812
  25 C :   -0.075318
  26 H :    0.027822
  27 H :    0.031539
  28 C :   -0.056457
  29 H :    0.012588
  30 H :    0.040503
  31 H :    0.049144
  32 H :    0.034817
  33 H :    0.063572
Sum of atomic charges:   -0.0000000

LOEWDIN ATOMIC CHARGES
----------------------
   0 S :    0.386321
   1 C :   -0.192439
   2 C :   -0.063032
   3 C :   -0.051837
   4 C :   -0.189237
   5 H :    0.039288
   6 C :   -0.031956
   7 H :    0.036498
   8 H :    0.029947
   9 C :   -0.043710
  10 H :    0.030429
  11 H :    0.024947
  12 C :   -0.066205
  13 H :    0.030033
  14 H :    0.024019
  15 H :    0.016625
  16 S :    0.399345
  17 C :   -0.194683
  18 C :   -0.077188
  19 C :   -0.040198
  20 C :   -0.192075
  21 H :    0.030613
  22 C :   -0.030015
  23 H :    0.027194
  24 H :    0.037110
  25 C :   -0.046330
  26 H :    0.022168
  27 H :    0.026684
  28 C :   -0.068261
  29 H :    0.012007
  30 H :    0.031194
  31 H :    0.034136
  32 H :    0.021461
  33 H :    0.027147

  Mayer bond orders larger than 0.100000
B(  0-S ,  1-C ) :   1.1356 B(  0-S ,  4-C ) :   1.1087 B(  1-C ,  2-C ) :   1.6521
B(  1-C , 32-H ) :   0.9615 B(  2-C ,  3-C ) :   1.1940 B(  2-C ,  6-C ) :   1.0127
B(  3-C ,  4-C ) :   1.6416 B(  3-C ,  5-H ) :   0.9869 B(  4-C , 20-C ) :   1.0507
B(  6-C ,  7-H ) :   0.9426 B(  6-C ,  8-H ) :   0.9422 B(  6-C ,  9-C ) :   1.0520
B(  9-C , 10-H ) :   0.9522 B(  9-C , 11-H ) :   0.9580 B(  9-C , 12-C ) :   1.0920
B( 12-C , 13-H ) :   0.9699 B( 12-C , 14-H ) :   0.9741 B( 12-C , 15-H ) :   0.9738
B( 16-S , 17-C ) :   1.1784 B( 16-S , 20-C ) :   1.1264 B( 17-C , 18-C ) :   1.5881
B( 17-C , 33-H ) :   0.9681 B( 18-C , 19-C ) :   1.2341 B( 18-C , 21-H ) :   0.9892
B( 19-C , 20-C ) :   1.6078 B( 19-C , 22-C ) :   1.0303 B( 22-C , 23-H ) :   0.9356
B( 22-C , 24-H ) :   0.9376 B( 22-C , 25-C ) :   1.0747 B( 25-C , 26-H ) :   0.9547
B( 25-C , 27-H ) :   0.9515 B( 25-C , 28-C ) :   1.0795 B( 28-C , 29-H ) :   0.9750
B( 28-C , 30-H ) :   0.9720 B( 28-C , 31-H ) :   0.9720

Dispersion correction           -0.014471276
FINAL SINGLE POINT ENERGY     -1339.874179178543

DIPOLE MOMENT
-------------
                                X             Y             Z
Electronic contribution:      6.45553      -8.09602     -15.12088
Nuclear contribution   :     -6.69400       8.43519      15.43448
                        -----------------------------------------
Total Dipole Moment    :     -0.23847       0.33916       0.31359
                        -----------------------------------------
Magnitude (a.u.)       :      0.51985
Magnitude (Debye)      :      1.32134

Rotational constants in cm-1:     0.022265     0.007204     0.006479
Rotational constants in MHz :   667.479848   215.965104   194.238915

                             ****ORCA TERMINATED NORMALLY****
TOTAL RUN TIME: 0 days 0 hours 0 minutes 20 seconds 96 msec
