                         Program Version 4.2.1 -  RELEASE  -
|  1> ! wB97X-D3 SP def2-SVP
|  2> %pal
|  3> nprocs 24
|  4> end
|  5>
|  6> * xyz 0 1
|  7> S 	 -37.4263 	 19.5979 	 28.788
|  8> C 	 -37.1328 	 18.4742 	 30.0382
|  9> C 	 -38.1681 	 18.3943 	 30.9567
| 10> C 	 -39.2904 	 19.2419 	 30.568
| 11> C 	 -38.987 	 20.0293 	 29.4698
| 12> H 	 -40.2242 	 19.3158 	 31.064
| 13> C 	 -38.2614 	 17.3386 	 32.0761
| 14> H 	 -38.9977 	 16.5802 	 31.8738
| 15> H 	 -38.793 	 17.8547 	 32.8346
| 16> C 	 -36.9427 	 16.6867 	 32.6395
| 17> H 	 -36.6646 	 15.9652 	 31.8386
| 18> H 	 -36.2579 	 17.5245 	 32.6067
| 19> C 	 -37.0901 	 16.034 	 34.0003
| 20> H 	 -37.8502 	 15.259 	 33.9711
| 21> H 	 -36.2055 	 15.5368 	 34.2587
| 22> H 	 -37.3309 	 16.8023 	 34.7255
| 23> S 	 -41.4856 	 20.7109 	 28.7371
| 24> C 	 -41.8393 	 22.2608 	 27.9798
| 25> C 	 -40.7132 	 23.0779 	 28.0013
| 26> C 	 -39.4979 	 22.3294 	 28.2661
| 27> C 	 -39.7733 	 21.0449 	 28.7438
| 28> H 	 -40.8113 	 24.1092 	 27.642
| 29> C 	 -38.138 	 23.0226 	 28.326
| 30> H 	 -37.9621 	 23.5083 	 27.3437
| 31> H 	 -37.3893 	 22.2518 	 28.2726
| 32> C 	 -37.7741 	 23.9275 	 29.4619
| 33> H 	 -38.2884 	 24.8155 	 29.3385
| 34> H 	 -36.7401 	 24.1934 	 29.2647
| 35> C 	 -37.9066 	 23.373 	 30.8791
| 36> H 	 -38.968 	 23.0575 	 31.016
| 37> H 	 -37.7427 	 24.1391 	 31.4756
| 38> H 	 -37.1441 	 22.6588 	 31.1546
| 39> H 	 -36.2 	 17.9899 	 30.1558
| 40> H 	 -42.7798 	 22.5743 	 27.7591
| 41> *
| 42>
| 43>                          ****END OF INPUT****

CARTESIAN COORDINATES (ANGSTROEM)
---------------------------------
  S    -37.426300   19.597900   28.788000
  C    -37.132800   18.474200   30.038200
  C    -38.168100   18.394300   30.956700
  C    -39.290400   19.241900   30.568000
  C    -38.987000   20.029300   29.469800
  H    -40.224200   19.315800   31.064000
  C    -38.261400   17.338600   32.076100
  H    -38.997700   16.580200   31.873800
  H    -38.793000   17.854700   32.834600
  C    -36.942700   16.686700   32.639500
  H    -36.664600   15.965200   31.838600
  H    -36.257900   17.524500   32.606700
  C    -37.090100   16.034000   34.000300
  H    -37.850200   15.259000   33.971100
  H    -36.205500   15.536800   34.258700
  H    -37.330900   16.802300   34.725500
  S    -41.485600   20.710900   28.737100
  C    -41.839300   22.260800   27.979800
  C    -40.713200   23.077900   28.001300
  C    -39.497900   22.329400   28.266100
  C    -39.773300   21.044900   28.743800
  H    -40.811300   24.109200   27.642000
  C    -38.138000   23.022600   28.326000
  H    -37.962100   23.508300   27.343700
  H    -37.389300   22.251800   28.272600
  C    -37.774100   23.927500   29.461900
  H    -38.288400   24.815500   29.338500
  H    -36.740100   24.193400   29.264700
  C    -37.906600   23.373000   30.879100
  H    -38.968000   23.057500   31.016000
  H    -37.742700   24.139100   31.475600
  H    -37.144100   22.658800   31.154600
  H    -36.200000   17.989900   30.155800
  H    -42.779800   22.574300   27.759100

 Total Charge           Charge          ....    0
 Multiplicity           Mult            ....    1
 Number of Electrons    NEL             ....  134
 Basis Dimension        Dim             ....  322

ORBITAL ENERGIES
----------------

  NO   OCC          E(Eh)            E(eV)
   0   2.0000     -88.964332     -2420.8425
   1   2.0000     -88.963279     -2420.8139
   2   2.0000     -10.332720      -281.1676
   3   2.0000     -10.329979      -281.0930
   4   2.0000     -10.313197      -280.6364
   5   2.0000     -10.307686      -280.4864
   6   2.0000     -10.306241      -280.4471
   7   2.0000     -10.305167      -280.4178
   8   2.0000     -10.299469      -280.2628
   9   2.0000     -10.296443      -280.1805
  10   2.0000     -10.290774      -280.0262
  11   2.0000     -10.287660      -279.9415
  12   2.0000     -10.283189      -279.8198
  13   2.0000     -10.277058      -279.6530
  14   2.0000     -10.273095      -279.5451
  15   2.0000     -10.260952      -279.2147
  16   2.0000      -8.079050      -219.8421
  17   2.0000      -8.078565      -219.8289
  18   2.0000      -6.037530      -164.2896
  19   2.0000      -6.036984      -164.2747
  20   2.0000      -6.033596      -164.1825
  21   2.0000      -6.032980      -164.1657
  22   2.0000      -6.029815      -164.0796
  23   2.0000      -6.029411      -164.0686
  24   2.0000      -1.005291       -27.3554
  25   2.0000      -0.982069       -26.7235
  26   2.0000      -0.910386       -24.7729
  27   2.0000      -0.906990       -24.6804
  28   2.0000      -0.869060       -23.6483
  29   2.0000      -0.854186       -23.2436
  30   2.0000      -0.845038       -22.9947
  31   2.0000      -0.815107       -22.1802
  32   2.0000      -0.788579       -21.4583
  33   2.0000      -0.775078       -21.0909
  34   2.0000      -0.711524       -19.3616
  35   2.0000      -0.702048       -19.1037
  36   2.0000      -0.693310       -18.8659
  37   2.0000      -0.662670       -18.0322
  38   2.0000      -0.644179       -17.5290
  39   2.0000      -0.609828       -16.5943
  40   2.0000      -0.595890       -16.2150
  41   2.0000      -0.571960       -15.5638
  42   2.0000      -0.565550       -15.3894
  43   2.0000      -0.553542       -15.0626
  44   2.0000      -0.544888       -14.8271
  45   2.0000      -0.525159       -14.2903
  46   2.0000      -0.518487       -14.1087
  47   2.0000      -0.510217       -13.8837
  48   2.0000      -0.506011       -13.7693
  49   2.0000      -0.498636       -13.5686
  50   2.0000      -0.490216       -13.3395
  51   2.0000      -0.482261       -13.1230
  52   2.0000      -0.472480       -12.8568
  53   2.0000      -0.465868       -12.6769
  54   2.0000      -0.461714       -12.5639
  55   2.0000      -0.453107       -12.3297
  56   2.0000      -0.442976       -12.0540
  57   2.0000      -0.436922       -11.8893
  58   2.0000      -0.431748       -11.7485
  59   2.0000      -0.424377       -11.5479
  60   2.0000      -0.419373       -11.4117
  61   2.0000      -0.410576       -11.1723
  62   2.0000      -0.409882       -11.1535
  63   2.0000      -0.352951        -9.6043
  64   2.0000      -0.330194        -8.9850
  65   2.0000      -0.326625        -8.8879
  66   2.0000      -0.287577        -7.8254
  67   0.0000       0.028193         0.7672
  68   0.0000       0.077958         2.1213
  69   0.0000       0.107885         2.9357
  70   0.0000       0.117310         3.1922
  71   0.0000       0.131237         3.5711

MULLIKEN ATOMIC CHARGES
-----------------------
   0 S :    0.107610
   1 C :   -0.115124
   2 C :   -0.085447
   3 C :    0.016934
   4 C :   -0.131058
   5 H :    0.005133
   6 C :    0.057248
   7 H :    0.028765
   8 H :   -0.000359
   9 C :   -0.109374
  10 H :    0.041191
  11 H :    0.031026
  12 C :    0.007484
  13 H :    0.027445
  14 H :    0.024395
  15 H :    0.036786
  16 S :    0.090508
  17 C :   -0.051295
  18 C :   -0.043251
  19 C :   -0.071748
  20 C :   -0.119413
  21 H :    0.033880
  22 C :    0.069234
  23 H :    0.022961
  24 H :   -0.005611
  25 C :   -0.036891
  26 H :    0.001981
  27 H :    0.017598
  28 C :    0.019194
  29 H :    0.046084
  30 H :   -0.009913
  31 H :    0.033915
  32 H :    0.040033
  33 H :    0.020079
Sum of atomic charges:   -0.0000000

LOEWDIN ATOMIC CHARGES
----------------------
   0 S :    0.428420
   1 C :   -0.210914
   2 C :   -0.056466
   3 C :   -0.066084
   4 C :   -0.181687
   5 H :    0.024236
   6 C :   -0.035792
   7 H :    0.029630
   8 H :    0.021224
   9 C :   -0.041066
  10 H :    0.027619
  11 H :    0.020818
  12 C :   -0.053715
  13 H :    0.027138
  14 H :    0.022194
  15 H :    0.029149
  16 S :    0.406862
  17 C :   -0.164209
  18 C :   -0.064946
  19 C :   -0.059466
  20 C :   -0.198882
  21 H :    0.035715
  22 C :   -0.041631
  23 H :    0.035344
  24 H :    0.012020
  25 C :   -0.031672
  26 H :    0.011138
  27 H :    0.027846
  28 C :   -0.049850
  29 H :    0.036394
  30 H :    0.005879
  31 H :    0.029615
  32 H :    0.018988
  33 H :    0.006155

  Mayer bond orders larger than 0.100000
B(  0-S ,  1-C ) :   1.1423 B(  0-S ,  4-C ) :   1.1592 B(  1-C ,  2-C ) :   1.6220
B(  1-C , 32-H ) :   0.9667 B(  2-C ,  3-C ) :   1.2296 B(  2-C ,  6-C ) :   1.0136
B(  3-C ,  4-C ) :   1.5897 B(  3-C ,  5-H ) :   0.9944 B(  4-C , 20-C ) :   1.0224
B(  6-C ,  7-H ) :   0.9376 B(  6-C ,  8-H ) :   0.9330 B(  6-C ,  9-C ) :   1.0554
B(  9-C , 10-H ) :   0.9515 B(  9-C , 11-H ) :   0.9605 B(  9-C , 12-C ) :   1.0897
B( 12-C , 13-H ) :   0.9731 B( 12-C , 14-H ) :   0.9705 B( 12-C , 15-H ) :   0.9735
B( 16-S , 17-C ) :   1.1515 B( 16-S , 20-C ) :   1.1474 B( 17-C , 18-C ) :   1.6151
B( 17-C , 33-H ) :   0.9816 B( 18-C , 19-C ) :   1.2313 B( 18-C , 21-H ) :   0.9841
B( 19-C , 20-C ) :   1.5719 B( 19-C , 22-C ) :   1.0506 B( 22-C , 23-H ) :   0.9242
B( 22-C , 24-H ) :   0.9232 B( 22-C , 25-C ) :   1.0799 B( 25-C , 26-H ) :   0.9524
B( 25-C , 27-H ) :   0.9439 B( 25-C , 28-C ) :   1.0880 B( 28-C , 29-H ) :   0.9707
B( 28-C , 30-H ) :   0.9644 B( 28-C , 31-H ) :   0.9719

Dispersion correction           -0.014722900
FINAL SINGLE POINT ENERGY     -1339.864585733903

DIPOLE MOMENT
-------------
                                X             Y             Z
Electronic contribution:    -11.88341       1.46494     -18.27783
Nuclear contribution   :     11.99328      -1.29965      18.71400
                        -----------------------------------------
Total Dipole Moment    :      0.10987       0.16529       0.43617
                        -----------------------------------------
Magnitude (a.u.)       :      0.47920
Magnitude (Debye)      :      1.21804

Rotational constants in cm-1:     0.023603     0.007395     0.006563
Rotational constants in MHz :   707.603088   221.695397   196.741566

                             ****ORCA TERMINATED NORMALLY****
TOTAL RUN TIME: 0 days 0 hours 0 minutes 22 seconds 571 msec
