                         Program Version 4.2.1 -  RELEASE  -
|  1> ! wB97X-D3 SP def2-SVP
|  2> %pal
|  3> nprocs 24
|  4> end
|  5>
|  6> * xyz 0 1
|  7> S 	 -105.457 	 64.3969 	 -8.88319
|  8> C 	 -105.419 	 65.7853 	 -9.92205
|  9> C 	 -104.129 	 66.2658 	 -10.2218
| 10> C 	 -103.192 	 65.219 	 -9.83218
| 11> C 	 -103.726 	 64.1875 	 -9.05613
| 12> H 	 -102.127 	 65.11 	 -10.1577
| 13> C 	 -103.872 	 67.4626 	 -11.0299
| 14> H 	 -104.796 	 68.0224 	 -11.2009
| 15> H 	 -103.731 	 67.0497 	 -12.1001
| 16> C 	 -102.667 	 68.3153 	 -10.6913
| 17> H 	 -102.633 	 68.4517 	 -9.66005
| 18> H 	 -101.788 	 67.6846 	 -10.7039
| 19> C 	 -102.579 	 69.564 	 -11.5572
| 20> H 	 -103.504 	 70.162 	 -11.5105
| 21> H 	 -101.736 	 70.1825 	 -11.1918
| 22> H 	 -102.297 	 69.4641 	 -12.6119
| 23> S 	 -103.953 	 61.591 	 -8.71866
| 24> C 	 -102.71 	 60.6534 	 -8.044
| 25> C 	 -101.612 	 61.4156 	 -7.65677
| 26> C 	 -101.785 	 62.7984 	 -8.02256
| 27> C 	 -103.076 	 63.0248 	 -8.51965
| 28> H 	 -100.704 	 60.9843 	 -7.27671
| 29> C 	 -100.591 	 63.8117 	 -7.81552
| 30> H 	 -100.731 	 64.8489 	 -8.16234
| 31> H 	 -99.6945 	 63.3392 	 -8.22314
| 32> C 	 -100.227 	 64.0248 	 -6.33437
| 33> H 	 -99.2976 	 64.4533 	 -6.36836
| 34> H 	 -100.034 	 63.1461 	 -5.75219
| 35> C 	 -101.22 	 64.9509 	 -5.62065
| 36> H 	 -102.32 	 64.6116 	 -5.65676
| 37> H 	 -101.194 	 65.8737 	 -6.15717
| 38> H 	 -100.886 	 65.1568 	 -4.62029
| 39> H 	 -106.337 	 66.2808 	 -10.2892
| 40> H 	 -102.702 	 59.5692 	 -7.96163
| 41> *
| 42>
| 43>                          ****END OF INPUT****

CARTESIAN COORDINATES (ANGSTROEM)
---------------------------------
  S    -105.457000   64.396900   -8.883190
  C    -105.419000   65.785300   -9.922050
  C    -104.129000   66.265800  -10.221800
  C    -103.192000   65.219000   -9.832180
  C    -103.726000   64.187500   -9.056130
  H    -102.127000   65.110000  -10.157700
  C    -103.872000   67.462600  -11.029900
  H    -104.796000   68.022400  -11.200900
  H    -103.731000   67.049700  -12.100100
  C    -102.667000   68.315300  -10.691300
  H    -102.633000   68.451700   -9.660050
  H    -101.788000   67.684600  -10.703900
  C    -102.579000   69.564000  -11.557200
  H    -103.504000   70.162000  -11.510500
  H    -101.736000   70.182500  -11.191800
  H    -102.297000   69.464100  -12.611900
  S    -103.953000   61.591000   -8.718660
  C    -102.710000   60.653400   -8.044000
  C    -101.612000   61.415600   -7.656770
  C    -101.785000   62.798400   -8.022560
  C    -103.076000   63.024800   -8.519650
  H    -100.704000   60.984300   -7.276710
  C    -100.591000   63.811700   -7.815520
  H    -100.731000   64.848900   -8.162340
  H    -99.694500   63.339200   -8.223140
  C    -100.227000   64.024800   -6.334370
  H    -99.297600   64.453300   -6.368360
  H    -100.034000   63.146100   -5.752190
  C    -101.220000   64.950900   -5.620650
  H    -102.320000   64.611600   -5.656760
  H    -101.194000   65.873700   -6.157170
  H    -100.886000   65.156800   -4.620290
  H    -106.337000   66.280800  -10.289200
  H    -102.702000   59.569200   -7.961630

 Total Charge           Charge          ....    0
 Multiplicity           Mult            ....    1
 Number of Electrons    NEL             ....  134
 Basis Dimension        Dim             ....  322

ORBITAL ENERGIES
----------------

  NO   OCC          E(Eh)            E(eV)
   0   2.0000     -88.966121     -2420.8912
   1   2.0000     -88.964595     -2420.8497
   2   2.0000     -10.326065      -280.9865
   3   2.0000     -10.320693      -280.8403
   4   2.0000     -10.313697      -280.6500
   5   2.0000     -10.313033      -280.6319
   6   2.0000     -10.309387      -280.5327
   7   2.0000     -10.304913      -280.4109
   8   2.0000     -10.299181      -280.2550
   9   2.0000     -10.298637      -280.2402
  10   2.0000     -10.294503      -280.1277
  11   2.0000     -10.294380      -280.1243
  12   2.0000     -10.285378      -279.8794
  13   2.0000     -10.283278      -279.8222
  14   2.0000     -10.274442      -279.5818
  15   2.0000     -10.272878      -279.5392
  16   2.0000      -8.082835      -219.9451
  17   2.0000      -8.079571      -219.8563
  18   2.0000      -6.041180      -164.3889
  19   2.0000      -6.038008      -164.3025
  20   2.0000      -6.036948      -164.2737
  21   2.0000      -6.034100      -164.1962
  22   2.0000      -6.033737      -164.1863
  23   2.0000      -6.030348      -164.0941
  24   2.0000      -1.013792       -27.5867
  25   2.0000      -0.983675       -26.7672
  26   2.0000      -0.918488       -24.9933
  27   2.0000      -0.909511       -24.7490
  28   2.0000      -0.871981       -23.7278
  29   2.0000      -0.850099       -23.1324
  30   2.0000      -0.845293       -23.0016
  31   2.0000      -0.810048       -22.0425
  32   2.0000      -0.781805       -21.2740
  33   2.0000      -0.771293       -20.9879
  34   2.0000      -0.719753       -19.5855
  35   2.0000      -0.699637       -19.0381
  36   2.0000      -0.687979       -18.7209
  37   2.0000      -0.663335       -18.0503
  38   2.0000      -0.638040       -17.3619
  39   2.0000      -0.616646       -16.7798
  40   2.0000      -0.600897       -16.3512
  41   2.0000      -0.567066       -15.4307
  42   2.0000      -0.557120       -15.1600
  43   2.0000      -0.552995       -15.0478
  44   2.0000      -0.538693       -14.6586
  45   2.0000      -0.523229       -14.2378
  46   2.0000      -0.517909       -14.0930
  47   2.0000      -0.508531       -13.8378
  48   2.0000      -0.501904       -13.6575
  49   2.0000      -0.496445       -13.5090
  50   2.0000      -0.491891       -13.3850
  51   2.0000      -0.479539       -13.0489
  52   2.0000      -0.473670       -12.8892
  53   2.0000      -0.461019       -12.5450
  54   2.0000      -0.457644       -12.4531
  55   2.0000      -0.453902       -12.3513
  56   2.0000      -0.449228       -12.2241
  57   2.0000      -0.443305       -12.0629
  58   2.0000      -0.431000       -11.7281
  59   2.0000      -0.429962       -11.6998
  60   2.0000      -0.422888       -11.5074
  61   2.0000      -0.414600       -11.2818
  62   2.0000      -0.410831       -11.1793
  63   2.0000      -0.350743        -9.5442
  64   2.0000      -0.330211        -8.9855
  65   2.0000      -0.323044        -8.7905
  66   2.0000      -0.281768        -7.6673
  67   0.0000       0.029736         0.8092
  68   0.0000       0.079489         2.1630
  69   0.0000       0.107176         2.9164
  70   0.0000       0.113383         3.0853
  71   0.0000       0.131746         3.5850

MULLIKEN ATOMIC CHARGES
-----------------------
   0 S :    0.111754
   1 C :   -0.139252
   2 C :   -0.064400
   3 C :   -0.017123
   4 C :   -0.145136
   5 H :    0.036802
   6 C :    0.024179
   7 H :    0.013551
   8 H :    0.045438
   9 C :   -0.024956
  10 H :    0.008887
  11 H :    0.011542
  12 C :   -0.048036
  13 H :    0.039976
  14 H :    0.032323
  15 H :    0.036925
  16 S :    0.129516
  17 C :   -0.086713
  18 C :   -0.040826
  19 C :   -0.032970
  20 C :   -0.154883
  21 H :    0.013917
  22 C :    0.054856
  23 H :    0.026958
  24 H :    0.030735
  25 C :   -0.046062
  26 H :   -0.000316
  27 H :    0.016379
  28 C :   -0.049268
  29 H :    0.058807
  30 H :    0.013248
  31 H :    0.030358
  32 H :    0.056577
  33 H :    0.057211
Sum of atomic charges:   -0.0000000

LOEWDIN ATOMIC CHARGES
----------------------
   0 S :    0.402760
   1 C :   -0.207727
   2 C :   -0.060225
   3 C :   -0.073924
   4 C :   -0.197904
   5 H :    0.036445
   6 C :   -0.044141
   7 H :    0.028850
   8 H :    0.045728
   9 C :   -0.043206
  10 H :    0.019821
  11 H :    0.026257
  12 C :   -0.067042
  13 H :    0.029396
  14 H :    0.032097
  15 H :    0.028888
  16 S :    0.459798
  17 C :   -0.205191
  18 C :   -0.068139
  19 C :   -0.050218
  20 C :   -0.227648
  21 H :    0.028284
  22 C :   -0.024320
  23 H :    0.030513
  24 H :    0.033404
  25 C :   -0.037339
  26 H :    0.012732
  27 H :    0.017033
  28 C :   -0.065111
  29 H :    0.039738
  30 H :    0.017985
  31 H :    0.022128
  32 H :    0.029747
  33 H :    0.030530

  Mayer bond orders larger than 0.100000
B(  0-S ,  1-C ) :   1.1432 B(  0-S ,  4-C ) :   1.1403 B(  1-C ,  2-C ) :   1.5969
B(  1-C , 32-H ) :   0.9624 B(  2-C ,  3-C ) :   1.2093 B(  2-C ,  6-C ) :   1.0539
B(  3-C ,  4-C ) :   1.6015 B(  3-C ,  5-H ) :   0.9763 B(  4-C , 20-C ) :   1.0532
B(  6-C ,  7-H ) :   0.9402 B(  6-C ,  8-H ) :   0.9282 B(  6-C ,  9-C ) :   1.0498
B(  9-C , 10-H ) :   0.9547 B(  9-C , 11-H ) :   0.9421 B(  9-C , 12-C ) :   1.0817
B( 12-C , 13-H ) :   0.9750 B( 12-C , 14-H ) :   0.9719 B( 12-C , 15-H ) :   0.9746
B( 16-S , 17-C ) :   1.1774 B( 16-S , 20-C ) :   1.1679 B( 17-C , 18-C ) :   1.5802
B( 17-C , 33-H ) :   0.9681 B( 18-C , 19-C ) :   1.2614 B( 18-C , 21-H ) :   0.9905
B( 19-C , 20-C ) :   1.5624 B( 19-C , 22-C ) :   1.0344 B( 22-C , 23-H ) :   0.9448
B( 22-C , 24-H ) :   0.9336 B( 22-C , 25-C ) :   1.0786 B( 25-C , 26-H ) :   0.9485
B( 25-C , 27-H ) :   0.9535 B( 25-C , 28-C ) :   1.0746 B( 28-C , 29-H ) :   0.9769
B( 28-C , 30-H ) :   0.9720 B( 28-C , 31-H ) :   0.9733

Dispersion correction           -0.013998267
FINAL SINGLE POINT ENERGY     -1339.868326729933

DIPOLE MOMENT
-------------
                                X             Y             Z
Electronic contribution:    -17.82670     -23.02411      -0.05228
Nuclear contribution   :     18.47453      23.32174      -0.13717
                        -----------------------------------------
Total Dipole Moment    :      0.64783       0.29763      -0.18944
                        -----------------------------------------
Magnitude (a.u.)       :      0.73767
Magnitude (Debye)      :      1.87500

Rotational constants in cm-1:     0.018869     0.008581     0.006650
Rotational constants in MHz :   565.680461   257.239358   199.349176

                             ****ORCA TERMINATED NORMALLY****
TOTAL RUN TIME: 0 days 0 hours 0 minutes 21 seconds 514 msec
