                         Program Version 4.2.1 -  RELEASE  -
|  1> ! wB97X-D3 SP def2-SVP
|  2> %pal
|  3> nprocs 24
|  4> end
|  5>
|  6> * xyz 0 1
|  7> S 	 -135.848 	 69.1107 	 -62.6983
|  8> C 	 -137.486 	 69.2538 	 -63.4128
|  9> C 	 -138.38 	 68.4941 	 -62.6507
| 10> C 	 -137.762 	 67.9687 	 -61.4552
| 11> C 	 -136.457 	 68.4157 	 -61.2178
| 12> H 	 -138.198 	 67.3728 	 -60.7384
| 13> C 	 -139.767 	 68.0783 	 -63.1347
| 14> H 	 -139.945 	 67.0248 	 -62.9528
| 15> H 	 -139.949 	 68.1474 	 -64.2056
| 16> C 	 -140.769 	 69.0619 	 -62.4599
| 17> H 	 -140.42 	 70.0036 	 -62.7549
| 18> H 	 -141.709 	 68.9204 	 -63.053
| 19> C 	 -140.941 	 69.0362 	 -60.9551
| 20> H 	 -141.821 	 69.6666 	 -60.7504
| 21> H 	 -141.053 	 68.0532 	 -60.5369
| 22> H 	 -140.078 	 69.4585 	 -60.4098
| 23> S 	 -134.024 	 67.3507 	 -60.6152
| 24> C 	 -133.661 	 66.9026 	 -58.9968
| 25> C 	 -134.663 	 67.3713 	 -58.0796
| 26> C 	 -135.75 	 68.016 	 -58.7441
| 27> C 	 -135.587 	 68.0305 	 -60.1286
| 28> H 	 -134.604 	 67.234 	 -57.03
| 29> C 	 -136.84 	 68.6693 	 -57.8899
| 30> H 	 -137.552 	 69.2022 	 -58.54
| 31> H 	 -136.324 	 69.4401 	 -57.271
| 32> C 	 -137.624 	 67.7057 	 -56.8774
| 33> H 	 -138.352 	 68.2054 	 -56.2054
| 34> H 	 -136.819 	 67.283 	 -56.2677
| 35> C 	 -138.324 	 66.6141 	 -57.631
| 36> H 	 -137.555 	 65.8999 	 -57.7767
| 37> H 	 -138.655 	 66.8816 	 -58.6147
| 38> H 	 -139.162 	 66.2133 	 -57.0382
| 39> H 	 -137.768 	 69.5849 	 -64.4359
| 40> H 	 -132.747 	 66.3772 	 -58.6787
| 41> *
| 42>
| 43>                          ****END OF INPUT****

CARTESIAN COORDINATES (ANGSTROEM)
---------------------------------
  S    -135.848000   69.110700  -62.698300
  C    -137.486000   69.253800  -63.412800
  C    -138.380000   68.494100  -62.650700
  C    -137.762000   67.968700  -61.455200
  C    -136.457000   68.415700  -61.217800
  H    -138.198000   67.372800  -60.738400
  C    -139.767000   68.078300  -63.134700
  H    -139.945000   67.024800  -62.952800
  H    -139.949000   68.147400  -64.205600
  C    -140.769000   69.061900  -62.459900
  H    -140.420000   70.003600  -62.754900
  H    -141.709000   68.920400  -63.053000
  C    -140.941000   69.036200  -60.955100
  H    -141.821000   69.666600  -60.750400
  H    -141.053000   68.053200  -60.536900
  H    -140.078000   69.458500  -60.409800
  S    -134.024000   67.350700  -60.615200
  C    -133.661000   66.902600  -58.996800
  C    -134.663000   67.371300  -58.079600
  C    -135.750000   68.016000  -58.744100
  C    -135.587000   68.030500  -60.128600
  H    -134.604000   67.234000  -57.030000
  C    -136.840000   68.669300  -57.889900
  H    -137.552000   69.202200  -58.540000
  H    -136.324000   69.440100  -57.271000
  C    -137.624000   67.705700  -56.877400
  H    -138.352000   68.205400  -56.205400
  H    -136.819000   67.283000  -56.267700
  C    -138.324000   66.614100  -57.631000
  H    -137.555000   65.899900  -57.776700
  H    -138.655000   66.881600  -58.614700
  H    -139.162000   66.213300  -57.038200
  H    -137.768000   69.584900  -64.435900
  H    -132.747000   66.377200  -58.678700

 Total Charge           Charge          ....    0
 Multiplicity           Mult            ....    1
 Number of Electrons    NEL             ....  134
 Basis Dimension        Dim             ....  322

ORBITAL ENERGIES
----------------

  NO   OCC          E(Eh)            E(eV)
   0   2.0000     -88.971294     -2421.0320
   1   2.0000     -88.965609     -2420.8773
   2   2.0000     -10.331791      -281.1423
   3   2.0000     -10.331465      -281.1335
   4   2.0000     -10.326376      -280.9950
   5   2.0000     -10.319581      -280.8101
   6   2.0000     -10.310274      -280.5568
   7   2.0000     -10.305637      -280.4306
   8   2.0000     -10.301511      -280.3184
   9   2.0000     -10.298772      -280.2438
  10   2.0000     -10.293182      -280.0917
  11   2.0000     -10.292460      -280.0721
  12   2.0000     -10.291873      -280.0561
  13   2.0000     -10.283592      -279.8308
  14   2.0000     -10.277754      -279.6719
  15   2.0000     -10.270123      -279.4643
  16   2.0000      -8.086104      -220.0341
  17   2.0000      -8.079622      -219.8577
  18   2.0000      -6.044529      -164.4800
  19   2.0000      -6.040531      -164.3712
  20   2.0000      -6.038326      -164.3112
  21   2.0000      -6.037014      -164.2755
  22   2.0000      -6.034375      -164.2037
  23   2.0000      -6.030066      -164.0864
  24   2.0000      -1.005458       -27.3599
  25   2.0000      -0.979563       -26.6553
  26   2.0000      -0.912306       -24.8251
  27   2.0000      -0.908270       -24.7153
  28   2.0000      -0.866138       -23.5688
  29   2.0000      -0.856371       -23.3030
  30   2.0000      -0.838835       -22.8259
  31   2.0000      -0.811852       -22.0916
  32   2.0000      -0.784935       -21.3592
  33   2.0000      -0.773837       -21.0572
  34   2.0000      -0.704982       -19.1835
  35   2.0000      -0.699387       -19.0313
  36   2.0000      -0.692691       -18.8491
  37   2.0000      -0.664667       -18.0865
  38   2.0000      -0.641625       -17.4595
  39   2.0000      -0.617357       -16.7991
  40   2.0000      -0.595541       -16.2055
  41   2.0000      -0.571767       -15.5586
  42   2.0000      -0.555718       -15.1219
  43   2.0000      -0.546825       -14.8799
  44   2.0000      -0.540176       -14.6989
  45   2.0000      -0.535390       -14.5687
  46   2.0000      -0.519676       -14.1411
  47   2.0000      -0.514190       -13.9918
  48   2.0000      -0.505386       -13.7522
  49   2.0000      -0.500890       -13.6299
  50   2.0000      -0.495718       -13.4892
  51   2.0000      -0.479667       -13.0524
  52   2.0000      -0.469217       -12.7680
  53   2.0000      -0.465573       -12.6689
  54   2.0000      -0.462238       -12.5781
  55   2.0000      -0.451500       -12.2860
  56   2.0000      -0.439560       -11.9610
  57   2.0000      -0.435152       -11.8411
  58   2.0000      -0.434688       -11.8285
  59   2.0000      -0.432184       -11.7603
  60   2.0000      -0.420346       -11.4382
  61   2.0000      -0.412748       -11.2314
  62   2.0000      -0.408937       -11.1277
  63   2.0000      -0.347818        -9.4646
  64   2.0000      -0.334115        -9.0917
  65   2.0000      -0.324655        -8.8343
  66   2.0000      -0.285953        -7.7812
  67   0.0000       0.021656         0.5893
  68   0.0000       0.062853         1.7103
  69   0.0000       0.097145         2.6434
  70   0.0000       0.117070         3.1856
  71   0.0000       0.125401         3.4123

MULLIKEN ATOMIC CHARGES
-----------------------
   0 S :    0.087819
   1 C :   -0.115383
   2 C :   -0.104917
   3 C :    0.072177
   4 C :   -0.132016
   5 H :   -0.044966
   6 C :    0.056719
   7 H :    0.031796
   8 H :    0.020080
   9 C :   -0.064752
  10 H :    0.008347
  11 H :    0.026552
  12 C :   -0.039705
  13 H :    0.042259
  14 H :    0.026246
  15 H :    0.043994
  16 S :    0.120075
  17 C :   -0.101385
  18 C :   -0.040088
  19 C :   -0.028405
  20 C :   -0.160505
  21 H :    0.011602
  22 C :    0.028036
  23 H :    0.033021
  24 H :    0.049296
  25 C :   -0.097062
  26 H :    0.041236
  27 H :    0.026357
  28 C :   -0.015464
  29 H :    0.028417
  30 H :    0.018006
  31 H :    0.038769
  32 H :    0.062017
  33 H :    0.071830
Sum of atomic charges:   -0.0000000

LOEWDIN ATOMIC CHARGES
----------------------
   0 S :    0.385575
   1 C :   -0.198427
   2 C :   -0.055937
   3 C :   -0.054598
   4 C :   -0.190557
   5 H :    0.010620
   6 C :   -0.030292
   7 H :    0.028537
   8 H :    0.029894
   9 C :   -0.038260
  10 H :    0.017103
  11 H :    0.024583
  12 C :   -0.067815
  13 H :    0.034680
  14 H :    0.019774
  15 H :    0.029927
  16 S :    0.420248
  17 C :   -0.196119
  18 C :   -0.068284
  19 C :   -0.056622
  20 C :   -0.194702
  21 H :    0.023571
  22 C :   -0.029163
  23 H :    0.027297
  24 H :    0.038808
  25 C :   -0.039346
  26 H :    0.026662
  27 H :    0.020163
  28 C :   -0.064249
  29 H :    0.026287
  30 H :    0.016855
  31 H :    0.030757
  32 H :    0.037924
  33 H :    0.035106

  Mayer bond orders larger than 0.100000
B(  0-S ,  1-C ) :   1.1245 B(  0-S ,  4-C ) :   1.1449 B(  1-C ,  2-C ) :   1.6125
B(  1-C , 32-H ) :   0.9610 B(  2-C ,  3-C ) :   1.2396 B(  2-C ,  6-C ) :   1.0202
B(  3-C ,  4-C ) :   1.5458 B(  3-C ,  5-H ) :   1.0090 B(  4-C , 20-C ) :   1.0632
B(  6-C ,  7-H ) :   0.9499 B(  6-C ,  8-H ) :   0.9470 B(  6-C ,  9-C ) :   1.0613
B(  9-C , 10-H ) :   0.9499 B(  9-C , 11-H ) :   0.9583 B(  9-C , 12-C ) :   1.0835
B( 12-C , 13-H ) :   0.9695 B( 12-C , 14-H ) :   0.9763 B( 12-C , 15-H ) :   0.9675
B( 16-S , 17-C ) :   1.1798 B( 16-S , 20-C ) :   1.1402 B( 17-C , 18-C ) :   1.5659
B( 17-C , 20-C ) :   0.1040 B( 17-C , 33-H ) :   0.9666 B( 18-C , 19-C ) :   1.2553
B( 18-C , 21-H ) :   0.9941 B( 19-C , 20-C ) :   1.5808 B( 19-C , 22-C ) :   1.0287
B( 22-C , 23-H ) :   0.9442 B( 22-C , 24-H ) :   0.9438 B( 22-C , 25-C ) :   1.0570
B( 25-C , 26-H ) :   0.9637 B( 25-C , 27-H ) :   0.9615 B( 25-C , 28-C ) :   1.0635
B( 28-C , 29-H ) :   0.9712 B( 28-C , 30-H ) :   0.9770 B( 28-C , 31-H ) :   0.9710

Dispersion correction           -0.015578216
FINAL SINGLE POINT ENERGY     -1339.867098053023

DIPOLE MOMENT
-------------
                                X             Y             Z
Electronic contribution:     26.92277       1.22953     -12.22041
Nuclear contribution   :    -27.41173      -1.47032      12.55307
                        -----------------------------------------
Total Dipole Moment    :     -0.48896      -0.24079       0.33265
                        -----------------------------------------
Magnitude (a.u.)       :      0.63853
Magnitude (Debye)      :      1.62302

Rotational constants in cm-1:     0.018064     0.010409     0.007108
Rotational constants in MHz :   541.551738   312.039670   213.088992

                             ****ORCA TERMINATED NORMALLY****
TOTAL RUN TIME: 0 days 0 hours 0 minutes 21 seconds 624 msec
