                         Program Version 4.2.1 -  RELEASE  -
|  1> ! wB97X-D3 SP def2-SVP
|  2> %pal
|  3> nprocs 24
|  4> end
|  5>
|  6> * xyz 0 1
|  7> S 	 -124.449 	 61.3852 	 -41.4445
|  8> C 	 -123.39 	 61.1238 	 -42.8765
|  9> C 	 -122.523 	 62.1861 	 -43.0334
| 10> C 	 -122.586 	 63.1454 	 -42.0118
| 11> C 	 -123.516 	 62.8466 	 -41.0219
| 12> H 	 -121.932 	 63.9331 	 -41.8996
| 13> C 	 -121.573 	 62.4049 	 -44.2026
| 14> H 	 -121.372 	 61.457 	 -44.8164
| 15> H 	 -120.63 	 62.7057 	 -43.8651
| 16> C 	 -122.074 	 63.4999 	 -45.1102
| 17> H 	 -121.817 	 63.3629 	 -46.106
| 18> H 	 -123.201 	 63.3403 	 -45.078
| 19> C 	 -121.741 	 64.8994 	 -44.7565
| 20> H 	 -120.678 	 64.9322 	 -44.638
| 21> H 	 -121.984 	 65.5193 	 -45.6537
| 22> H 	 -122.232 	 65.2354 	 -43.8907
| 23> S 	 -124.81 	 62.669 	 -38.7008
| 24> C 	 -124.822 	 64.0258 	 -37.4945
| 25> C 	 -124.013 	 65.0122 	 -37.932
| 26> C 	 -123.378 	 64.7522 	 -39.1583
| 27> C 	 -123.731 	 63.5213 	 -39.7265
| 28> H 	 -123.744 	 65.8563 	 -37.3518
| 29> C 	 -122.683 	 65.9213 	 -39.8996
| 30> H 	 -123.214 	 66.8318 	 -39.7125
| 31> H 	 -122.628 	 65.7769 	 -40.9692
| 32> C 	 -121.219 	 66.1183 	 -39.5037
| 33> H 	 -120.628 	 65.1795 	 -39.6205
| 34> H 	 -121.061 	 66.3346 	 -38.4605
| 35> C 	 -120.522 	 67.3231 	 -40.1525
| 36> H 	 -120.635 	 67.3232 	 -41.2569
| 37> H 	 -119.478 	 67.4115 	 -39.8133
| 38> H 	 -120.975 	 68.3434 	 -39.9343
| 39> H 	 -123.47 	 60.2911 	 -43.5933
| 40> H 	 -125.263 	 64.0959 	 -36.461
| 41> *
| 42>
| 43>                          ****END OF INPUT****

CARTESIAN COORDINATES (ANGSTROEM)
---------------------------------
  S    -124.449000   61.385200  -41.444500
  C    -123.390000   61.123800  -42.876500
  C    -122.523000   62.186100  -43.033400
  C    -122.586000   63.145400  -42.011800
  C    -123.516000   62.846600  -41.021900
  H    -121.932000   63.933100  -41.899600
  C    -121.573000   62.404900  -44.202600
  H    -121.372000   61.457000  -44.816400
  H    -120.630000   62.705700  -43.865100
  C    -122.074000   63.499900  -45.110200
  H    -121.817000   63.362900  -46.106000
  H    -123.201000   63.340300  -45.078000
  C    -121.741000   64.899400  -44.756500
  H    -120.678000   64.932200  -44.638000
  H    -121.984000   65.519300  -45.653700
  H    -122.232000   65.235400  -43.890700
  S    -124.810000   62.669000  -38.700800
  C    -124.822000   64.025800  -37.494500
  C    -124.013000   65.012200  -37.932000
  C    -123.378000   64.752200  -39.158300
  C    -123.731000   63.521300  -39.726500
  H    -123.744000   65.856300  -37.351800
  C    -122.683000   65.921300  -39.899600
  H    -123.214000   66.831800  -39.712500
  H    -122.628000   65.776900  -40.969200
  C    -121.219000   66.118300  -39.503700
  H    -120.628000   65.179500  -39.620500
  H    -121.061000   66.334600  -38.460500
  C    -120.522000   67.323100  -40.152500
  H    -120.635000   67.323200  -41.256900
  H    -119.478000   67.411500  -39.813300
  H    -120.975000   68.343400  -39.934300
  H    -123.470000   60.291100  -43.593300
  H    -125.263000   64.095900  -36.461000

 Total Charge           Charge          ....    0
 Multiplicity           Mult            ....    1
 Number of Electrons    NEL             ....  134
 Basis Dimension        Dim             ....  322

ORBITAL ENERGIES
----------------

  NO   OCC          E(Eh)            E(eV)
   0   2.0000     -88.970310     -2421.0052
   1   2.0000     -88.967210     -2420.9209
   2   2.0000     -10.339634      -281.3557
   3   2.0000     -10.333283      -281.1829
   4   2.0000     -10.323707      -280.9224
   5   2.0000     -10.320340      -280.8307
   6   2.0000     -10.304614      -280.4028
   7   2.0000     -10.301703      -280.3236
   8   2.0000     -10.294291      -280.1219
   9   2.0000     -10.290956      -280.0312
  10   2.0000     -10.289960      -280.0041
  11   2.0000     -10.289454      -279.9903
  12   2.0000     -10.287852      -279.9467
  13   2.0000     -10.287528      -279.9379
  14   2.0000     -10.276271      -279.6315
  15   2.0000     -10.272821      -279.5377
  16   2.0000      -8.083569      -219.9651
  17   2.0000      -8.081765      -219.9160
  18   2.0000      -6.042310      -164.4196
  19   2.0000      -6.040510      -164.3706
  20   2.0000      -6.038378      -164.3126
  21   2.0000      -6.036213      -164.2537
  22   2.0000      -6.034066      -164.1953
  23   2.0000      -6.032344      -164.1484
  24   2.0000      -1.008776       -27.4502
  25   2.0000      -0.983815       -26.7710
  26   2.0000      -0.921853       -25.0849
  27   2.0000      -0.908910       -24.7327
  28   2.0000      -0.876735       -23.8572
  29   2.0000      -0.851416       -23.1682
  30   2.0000      -0.845675       -23.0120
  31   2.0000      -0.820390       -22.3240
  32   2.0000      -0.784716       -21.3532
  33   2.0000      -0.772494       -21.0206
  34   2.0000      -0.707387       -19.2490
  35   2.0000      -0.698391       -19.0042
  36   2.0000      -0.694655       -18.9025
  37   2.0000      -0.670791       -18.2532
  38   2.0000      -0.641312       -17.4510
  39   2.0000      -0.627359       -17.0713
  40   2.0000      -0.597617       -16.2620
  41   2.0000      -0.579388       -15.7659
  42   2.0000      -0.563948       -15.3458
  43   2.0000      -0.556877       -15.1534
  44   2.0000      -0.539861       -14.6904
  45   2.0000      -0.528696       -14.3866
  46   2.0000      -0.514802       -14.0085
  47   2.0000      -0.510699       -13.8968
  48   2.0000      -0.505358       -13.7515
  49   2.0000      -0.502365       -13.6701
  50   2.0000      -0.495749       -13.4900
  51   2.0000      -0.490646       -13.3511
  52   2.0000      -0.474533       -12.9127
  53   2.0000      -0.469668       -12.7803
  54   2.0000      -0.456317       -12.4170
  55   2.0000      -0.453565       -12.3421
  56   2.0000      -0.445431       -12.1208
  57   2.0000      -0.439723       -11.9655
  58   2.0000      -0.431037       -11.7291
  59   2.0000      -0.426654       -11.6099
  60   2.0000      -0.415071       -11.2946
  61   2.0000      -0.410387       -11.1672
  62   2.0000      -0.408757       -11.1228
  63   2.0000      -0.365045        -9.9334
  64   2.0000      -0.340587        -9.2678
  65   2.0000      -0.329258        -8.9596
  66   2.0000      -0.283471        -7.7137
  67   0.0000       0.012686         0.3452
  68   0.0000       0.078272         2.1299
  69   0.0000       0.093360         2.5404
  70   0.0000       0.118150         3.2150
  71   0.0000       0.128034         3.4840

MULLIKEN ATOMIC CHARGES
-----------------------
   0 S :    0.092681
   1 C :   -0.130924
   2 C :   -0.068224
   3 C :    0.013176
   4 C :   -0.083757
   5 H :   -0.025037
   6 C :    0.080701
   7 H :    0.032132
   8 H :    0.002011
   9 C :   -0.089038
  10 H :    0.011109
  11 H :    0.032759
  12 C :   -0.012914
  13 H :    0.015520
  14 H :    0.040917
  15 H :    0.030388
  16 S :    0.076566
  17 C :   -0.093143
  18 C :   -0.010835
  19 C :   -0.048520
  20 C :   -0.102902
  21 H :    0.009326
  22 C :    0.063359
  23 H :    0.023307
  24 H :    0.015300
  25 C :   -0.087282
  26 H :    0.036820
  27 H :    0.017163
  28 C :   -0.074649
  29 H :    0.026122
  30 H :    0.046495
  31 H :    0.029990
  32 H :    0.056257
  33 H :    0.075125
Sum of atomic charges:   -0.0000000

LOEWDIN ATOMIC CHARGES
----------------------
   0 S :    0.367692
   1 C :   -0.186716
   2 C :   -0.056957
   3 C :   -0.061127
   4 C :   -0.163753
   5 H :    0.015596
   6 C :   -0.028491
   7 H :    0.039245
   8 H :    0.016158
   9 C :   -0.046166
  10 H :    0.014748
  11 H :    0.032258
  12 C :   -0.057242
  13 H :    0.020353
  14 H :    0.037620
  15 H :    0.015323
  16 S :    0.394647
  17 C :   -0.176637
  18 C :   -0.065966
  19 C :   -0.063181
  20 C :   -0.192220
  21 H :    0.029168
  22 C :   -0.023213
  23 H :    0.028976
  24 H :    0.024806
  25 C :   -0.050323
  26 H :    0.028747
  27 H :    0.019652
  28 C :   -0.077103
  29 H :    0.021277
  30 H :    0.030864
  31 H :    0.029156
  32 H :    0.035310
  33 H :    0.047500

  Mayer bond orders larger than 0.100000
B(  0-S ,  1-C ) :   1.1065 B(  0-S ,  4-C ) :   1.1394 B(  1-C ,  2-C ) :   1.6289
B(  1-C , 32-H ) :   0.9649 B(  2-C ,  3-C ) :   1.2368 B(  2-C ,  6-C ) :   1.0364
B(  3-C ,  4-C ) :   1.5680 B(  3-C ,  5-H ) :   0.9998 B(  4-C , 20-C ) :   1.0724
B(  6-C ,  7-H ) :   0.9420 B(  6-C ,  8-H ) :   0.9399 B(  6-C ,  9-C ) :   1.0560
B(  9-C , 10-H ) :   0.9554 B(  9-C , 11-H ) :   0.9504 B(  9-C , 12-C ) :   1.0932
B( 12-C , 13-H ) :   0.9698 B( 12-C , 14-H ) :   0.9681 B( 12-C , 15-H ) :   0.9701
B( 16-S , 17-C ) :   1.1209 B( 16-S , 20-C ) :   1.1391 B( 17-C , 18-C ) :   1.6285
B( 17-C , 33-H ) :   0.9581 B( 18-C , 19-C ) :   1.2711 B( 18-C , 21-H ) :   0.9835
B( 19-C , 20-C ) :   1.5694 B( 19-C , 22-C ) :   1.0307 B( 22-C , 23-H ) :   0.9439
B( 22-C , 24-H ) :   0.9437 B( 22-C , 25-C ) :   1.0540 B( 25-C , 26-H ) :   0.9531
B( 25-C , 27-H ) :   0.9547 B( 25-C , 28-C ) :   1.0774 B( 28-C , 29-H ) :   0.9737
B( 28-C , 30-H ) :   0.9738 B( 28-C , 31-H ) :   0.9724

Dispersion correction           -0.014466727
FINAL SINGLE POINT ENERGY     -1339.863706152453

DIPOLE MOMENT
-------------
                                X             Y             Z
Electronic contribution:    -19.81150     -21.30441      14.67767
Nuclear contribution   :     20.29123      21.85203     -14.88673
                        -----------------------------------------
Total Dipole Moment    :      0.47974       0.54762      -0.20906
                        -----------------------------------------
Magnitude (a.u.)       :      0.75746
Magnitude (Debye)      :      1.92531

Rotational constants in cm-1:     0.015923     0.010833     0.006746
Rotational constants in MHz :   477.361531   324.755795   202.250396

                             ****ORCA TERMINATED NORMALLY****
TOTAL RUN TIME: 0 days 0 hours 0 minutes 22 seconds 202 msec
