                         Program Version 4.2.1 -  RELEASE  -
|  1> ! wB97X-D3 SP def2-SVP
|  2> %pal
|  3> nprocs 24
|  4> end
|  5>
|  6> * xyz 0 1
|  7> S 	 -104.827 	 59.7542 	 -12.355
|  8> C 	 -104.853 	 60.5394 	 -13.9397
|  9> C 	 -105.267 	 59.7205 	 -14.98
| 10> C 	 -105.796 	 58.4886 	 -14.4511
| 11> C 	 -105.621 	 58.3288 	 -13.0791
| 12> H 	 -106.277 	 57.7463 	 -15.0765
| 13> C 	 -105.376 	 60.093 	 -16.4483
| 14> H 	 -106.433 	 59.9659 	 -16.7609
| 15> H 	 -104.811 	 59.3759 	 -16.9853
| 16> C 	 -104.901 	 61.5165 	 -16.7102
| 17> H 	 -105.467 	 62.1782 	 -16.0849
| 18> H 	 -103.828 	 61.5579 	 -16.4388
| 19> C 	 -105.065 	 62.0378 	 -18.1849
| 20> H 	 -104.666 	 63.0614 	 -18.341
| 21> H 	 -104.691 	 61.251 	 -18.9681
| 22> H 	 -106.17 	 62.1203 	 -18.2719
| 23> S 	 -106.49 	 57.3239 	 -10.5561
| 24> C 	 -106.718 	 55.609 	 -10.2842
| 25> C 	 -106.294 	 54.9606 	 -11.3933
| 26> C 	 -105.896 	 55.7752 	 -12.5451
| 27> C 	 -106.031 	 57.1518 	 -12.2834
| 28> H 	 -106.194 	 53.8813 	 -11.3438
| 29> C 	 -105.323 	 55.1317 	 -13.7909
| 30> H 	 -104.741 	 55.8897 	 -14.4495
| 31> H 	 -106.193 	 54.8297 	 -14.3939
| 32> C 	 -104.41 	 53.849 	 -13.7521
| 33> H 	 -104.158 	 53.7435 	 -14.8435
| 34> H 	 -104.923 	 52.8813 	 -13.3386
| 35> C 	 -103.122 	 54.2191 	 -12.8336
| 36> H 	 -102.665 	 55.1583 	 -13.0519
| 37> H 	 -102.344 	 53.3893 	 -12.7881
| 38> H 	 -103.37 	 54.3438 	 -11.8062
| 39> H 	 -104.355 	 61.4938 	 -14.0746
| 40> H 	 -106.81 	 55.1014 	 -9.31588
| 41> *
| 42>
| 43>                          ****END OF INPUT****

CARTESIAN COORDINATES (ANGSTROEM)
---------------------------------
  S    -104.827000   59.754200  -12.355000
  C    -104.853000   60.539400  -13.939700
  C    -105.267000   59.720500  -14.980000
  C    -105.796000   58.488600  -14.451100
  C    -105.621000   58.328800  -13.079100
  H    -106.277000   57.746300  -15.076500
  C    -105.376000   60.093000  -16.448300
  H    -106.433000   59.965900  -16.760900
  H    -104.811000   59.375900  -16.985300
  C    -104.901000   61.516500  -16.710200
  H    -105.467000   62.178200  -16.084900
  H    -103.828000   61.557900  -16.438800
  C    -105.065000   62.037800  -18.184900
  H    -104.666000   63.061400  -18.341000
  H    -104.691000   61.251000  -18.968100
  H    -106.170000   62.120300  -18.271900
  S    -106.490000   57.323900  -10.556100
  C    -106.718000   55.609000  -10.284200
  C    -106.294000   54.960600  -11.393300
  C    -105.896000   55.775200  -12.545100
  C    -106.031000   57.151800  -12.283400
  H    -106.194000   53.881300  -11.343800
  C    -105.323000   55.131700  -13.790900
  H    -104.741000   55.889700  -14.449500
  H    -106.193000   54.829700  -14.393900
  C    -104.410000   53.849000  -13.752100
  H    -104.158000   53.743500  -14.843500
  H    -104.923000   52.881300  -13.338600
  C    -103.122000   54.219100  -12.833600
  H    -102.665000   55.158300  -13.051900
  H    -102.344000   53.389300  -12.788100
  H    -103.370000   54.343800  -11.806200
  H    -104.355000   61.493800  -14.074600
  H    -106.810000   55.101400   -9.315880

 Total Charge           Charge          ....    0
 Multiplicity           Mult            ....    1
 Number of Electrons    NEL             ....  134
 Basis Dimension        Dim             ....  322

ORBITAL ENERGIES
----------------

  NO   OCC          E(Eh)            E(eV)
   0   2.0000     -88.969220     -2420.9756
   1   2.0000     -88.961209     -2420.7576
   2   2.0000     -10.338375      -281.3215
   3   2.0000     -10.336409      -281.2680
   4   2.0000     -10.318335      -280.7762
   5   2.0000     -10.316469      -280.7254
   6   2.0000     -10.312657      -280.6217
   7   2.0000     -10.312018      -280.6043
   8   2.0000     -10.305536      -280.4279
   9   2.0000     -10.303093      -280.3614
  10   2.0000     -10.298420      -280.2343
  11   2.0000     -10.296533      -280.1829
  12   2.0000     -10.295674      -280.1595
  13   2.0000     -10.294746      -280.1343
  14   2.0000     -10.291342      -280.0417
  15   2.0000     -10.280167      -279.7376
  16   2.0000      -8.083058      -219.9512
  17   2.0000      -8.075438      -219.7438
  18   2.0000      -6.041668      -164.4021
  19   2.0000      -6.037898      -164.2996
  20   2.0000      -6.034218      -164.1994
  21   2.0000      -6.033550      -164.1812
  22   2.0000      -6.030038      -164.0857
  23   2.0000      -6.025890      -163.9728
  24   2.0000      -0.998752       -27.1774
  25   2.0000      -0.979409       -26.6511
  26   2.0000      -0.913753       -24.8645
  27   2.0000      -0.897011       -24.4089
  28   2.0000      -0.865658       -23.5558
  29   2.0000      -0.849196       -23.1078
  30   2.0000      -0.832170       -22.6445
  31   2.0000      -0.813167       -22.1274
  32   2.0000      -0.780539       -21.2395
  33   2.0000      -0.771751       -21.0004
  34   2.0000      -0.714070       -19.4308
  35   2.0000      -0.700198       -19.0534
  36   2.0000      -0.686027       -18.6677
  37   2.0000      -0.652580       -17.7576
  38   2.0000      -0.634748       -17.2724
  39   2.0000      -0.615387       -16.7455
  40   2.0000      -0.592428       -16.1208
  41   2.0000      -0.577393       -15.7117
  42   2.0000      -0.566676       -15.4200
  43   2.0000      -0.546257       -14.8644
  44   2.0000      -0.525623       -14.3029
  45   2.0000      -0.522704       -14.2235
  46   2.0000      -0.516042       -14.0422
  47   2.0000      -0.506325       -13.7778
  48   2.0000      -0.503523       -13.7016
  49   2.0000      -0.496501       -13.5105
  50   2.0000      -0.486117       -13.2279
  51   2.0000      -0.482762       -13.1366
  52   2.0000      -0.468600       -12.7513
  53   2.0000      -0.464640       -12.6435
  54   2.0000      -0.457306       -12.4439
  55   2.0000      -0.446913       -12.1611
  56   2.0000      -0.439349       -11.9553
  57   2.0000      -0.436765       -11.8850
  58   2.0000      -0.430763       -11.7216
  59   2.0000      -0.425562       -11.5801
  60   2.0000      -0.421641       -11.4734
  61   2.0000      -0.419338       -11.4108
  62   2.0000      -0.410970       -11.1831
  63   2.0000      -0.356097        -9.6899
  64   2.0000      -0.332641        -9.0516
  65   2.0000      -0.323261        -8.7964
  66   2.0000      -0.289757        -7.8847
  67   0.0000       0.021849         0.5945
  68   0.0000       0.077584         2.1112
  69   0.0000       0.102577         2.7913
  70   0.0000       0.123974         3.3735
  71   0.0000       0.131227         3.5709

MULLIKEN ATOMIC CHARGES
-----------------------
   0 S :    0.111877
   1 C :   -0.138523
   2 C :   -0.102881
   3 C :    0.002176
   4 C :   -0.119543
   5 H :    0.016802
   6 C :    0.096948
   7 H :    0.039221
   8 H :    0.024030
   9 C :   -0.128104
  10 H :    0.036123
  11 H :    0.041363
  12 C :   -0.067273
  13 H :    0.050586
  14 H :    0.051078
  15 H :    0.031752
  16 S :    0.072325
  17 C :   -0.081409
  18 C :   -0.043859
  19 C :   -0.023057
  20 C :   -0.139948
  21 H :    0.018934
  22 C :   -0.025928
  23 H :    0.052009
  24 H :    0.047154
  25 C :   -0.093078
  26 H :    0.051399
  27 H :    0.054549
  28 C :   -0.061922
  29 H :    0.030564
  30 H :    0.041331
  31 H :    0.026073
  32 H :    0.055523
  33 H :    0.073710
Sum of atomic charges:    0.0000000

LOEWDIN ATOMIC CHARGES
----------------------
   0 S :    0.383054
   1 C :   -0.192970
   2 C :   -0.059664
   3 C :   -0.059882
   4 C :   -0.175208
   5 H :    0.031080
   6 C :   -0.027312
   7 H :    0.037410
   8 H :    0.027962
   9 C :   -0.045890
  10 H :    0.022141
  11 H :    0.025180
  12 C :   -0.075238
  13 H :    0.030971
  14 H :    0.035967
  15 H :    0.026087
  16 S :    0.374517
  17 C :   -0.188707
  18 C :   -0.074787
  19 C :   -0.057202
  20 C :   -0.184260
  21 H :    0.028907
  22 C :   -0.051990
  23 H :    0.041361
  24 H :    0.034732
  25 C :   -0.042034
  26 H :    0.034503
  27 H :    0.032874
  28 C :   -0.075133
  29 H :    0.023226
  30 H :    0.030426
  31 H :    0.021919
  32 H :    0.025108
  33 H :    0.042854

  Mayer bond orders larger than 0.100000
B(  0-S ,  1-C ) :   1.1212 B(  0-S ,  4-C ) :   1.1316 B(  1-C ,  2-C ) :   1.6429
B(  1-C , 32-H ) :   0.9540 B(  2-C ,  3-C ) :   1.2269 B(  2-C ,  6-C ) :   1.0112
B(  3-C ,  4-C ) :   1.5806 B(  3-C ,  5-H ) :   0.9939 B(  4-C , 20-C ) :   1.0767
B(  6-C ,  7-H ) :   0.9406 B(  6-C ,  8-H ) :   0.9222 B(  6-C ,  9-C ) :   1.0928
B(  9-C , 10-H ) :   0.9507 B(  9-C , 11-H ) :   0.9512 B(  9-C , 12-C ) :   1.0725
B( 12-C , 13-H ) :   0.9733 B( 12-C , 14-H ) :   0.9746 B( 12-C , 15-H ) :   0.9766
B( 16-S , 17-C ) :   1.1354 B( 16-S , 20-C ) :   1.1207 B( 17-C , 18-C ) :   1.6419
B( 17-C , 33-H ) :   0.9608 B( 18-C , 19-C ) :   1.2316 B( 18-C , 21-H ) :   0.9819
B( 19-C , 20-C ) :   1.5789 B( 19-C , 22-C ) :   1.0359 B( 22-C , 23-H ) :   0.9385
B( 22-C , 24-H ) :   0.9303 B( 22-C , 25-C ) :   1.0648 B( 25-C , 26-H ) :   0.9560
B( 25-C , 27-H ) :   0.9518 B( 25-C , 28-C ) :   1.0522 B( 28-C , 29-H ) :   0.9775
B( 28-C , 30-H ) :   0.9792 B( 28-C , 31-H ) :   0.9748

Dispersion correction           -0.013871206
FINAL SINGLE POINT ENERGY     -1339.870973610095

DIPOLE MOMENT
-------------
                                X             Y             Z
Electronic contribution:     -8.09041       3.59635      24.02469
Nuclear contribution   :      8.30505      -3.90750     -24.65685
                        -----------------------------------------
Total Dipole Moment    :      0.21464      -0.31115      -0.63216
                        -----------------------------------------
Magnitude (a.u.)       :      0.73656
Magnitude (Debye)      :      1.87218

Rotational constants in cm-1:     0.022369     0.007068     0.005919
Rotational constants in MHz :   670.609415   211.899511   177.440151

                             ****ORCA TERMINATED NORMALLY****
TOTAL RUN TIME: 0 days 0 hours 0 minutes 21 seconds 85 msec
