                         Program Version 4.2.1 -  RELEASE  -
|  1> ! wB97X-D3 SP def2-SVP
|  2> %pal
|  3> nprocs 24
|  4> end
|  5>
|  6> * xyz 0 1
|  7> S 	 -128.009 	 67.3592 	 -64.2032
|  8> C 	 -126.893 	 67.3401 	 -62.881
|  9> C 	 -127.426 	 68.0028 	 -61.8075
| 10> C 	 -128.684 	 68.6383 	 -62.0802
| 11> C 	 -129.203 	 68.3369 	 -63.3277
| 12> H 	 -129.229 	 69.3142 	 -61.3743
| 13> C 	 -126.728 	 68.1049 	 -60.4973
| 14> H 	 -125.677 	 67.8392 	 -60.6288
| 15> H 	 -127.159 	 67.4881 	 -59.7144
| 16> C 	 -126.749 	 69.4818 	 -59.8279
| 17> H 	 -127.747 	 69.6223 	 -59.3654
| 18> H 	 -126.15 	 69.3445 	 -58.9346
| 19> C 	 -126.276 	 70.7084 	 -60.705
| 20> H 	 -127.076 	 71.3968 	 -61.0484
| 21> H 	 -125.532 	 71.4179 	 -60.2347
| 22> H 	 -125.942 	 70.403 	 -61.6752
| 23> S 	 -131.818 	 68.0079 	 -63.0124
| 24> C 	 -132.98 	 68.6773 	 -64.1293
| 25> C 	 -132.324 	 69.407 	 -65.096
| 26> C 	 -130.916 	 69.5062 	 -64.9671
| 27> C 	 -130.471 	 68.7518 	 -63.8423
| 28> H 	 -132.962 	 69.7229 	 -65.8605
| 29> C 	 -130.036 	 70.1771 	 -66.0357
| 30> H 	 -128.92 	 69.9596 	 -65.7965
| 31> H 	 -130.071 	 71.2275 	 -65.7616
| 32> C 	 -130.363 	 69.896 	 -67.4643
| 33> H 	 -129.784 	 70.6033 	 -68.1744
| 34> H 	 -131.403 	 70.0014 	 -67.5859
| 35> C 	 -130.007 	 68.4535 	 -67.9255
| 36> H 	 -130.496 	 67.6476 	 -67.3208
| 37> H 	 -128.919 	 68.2713 	 -68.028
| 38> H 	 -130.295 	 68.2945 	 -68.9544
| 39> H 	 -125.906 	 66.7402 	 -62.9083
| 40> H 	 -134.055 	 68.4341 	 -64.1712
| 41> *
| 42>
| 43>                          ****END OF INPUT****

CARTESIAN COORDINATES (ANGSTROEM)
---------------------------------
  S    -128.009000   67.359200  -64.203200
  C    -126.893000   67.340100  -62.881000
  C    -127.426000   68.002800  -61.807500
  C    -128.684000   68.638300  -62.080200
  C    -129.203000   68.336900  -63.327700
  H    -129.229000   69.314200  -61.374300
  C    -126.728000   68.104900  -60.497300
  H    -125.677000   67.839200  -60.628800
  H    -127.159000   67.488100  -59.714400
  C    -126.749000   69.481800  -59.827900
  H    -127.747000   69.622300  -59.365400
  H    -126.150000   69.344500  -58.934600
  C    -126.276000   70.708400  -60.705000
  H    -127.076000   71.396800  -61.048400
  H    -125.532000   71.417900  -60.234700
  H    -125.942000   70.403000  -61.675200
  S    -131.818000   68.007900  -63.012400
  C    -132.980000   68.677300  -64.129300
  C    -132.324000   69.407000  -65.096000
  C    -130.916000   69.506200  -64.967100
  C    -130.471000   68.751800  -63.842300
  H    -132.962000   69.722900  -65.860500
  C    -130.036000   70.177100  -66.035700
  H    -128.920000   69.959600  -65.796500
  H    -130.071000   71.227500  -65.761600
  C    -130.363000   69.896000  -67.464300
  H    -129.784000   70.603300  -68.174400
  H    -131.403000   70.001400  -67.585900
  C    -130.007000   68.453500  -67.925500
  H    -130.496000   67.647600  -67.320800
  H    -128.919000   68.271300  -68.028000
  H    -130.295000   68.294500  -68.954400
  H    -125.906000   66.740200  -62.908300
  H    -134.055000   68.434100  -64.171200

 Total Charge           Charge          ....    0
 Multiplicity           Mult            ....    1
 Number of Electrons    NEL             ....  134
 Basis Dimension        Dim             ....  322

ORBITAL ENERGIES
----------------

  NO   OCC          E(Eh)            E(eV)
   0   2.0000     -88.965767     -2420.8816
   1   2.0000     -88.963708     -2420.8256
   2   2.0000     -10.329252      -281.0732
   3   2.0000     -10.327944      -281.0377
   4   2.0000     -10.318581      -280.7829
   5   2.0000     -10.317683      -280.7584
   6   2.0000     -10.311409      -280.5877
   7   2.0000     -10.297705      -280.2148
   8   2.0000     -10.297312      -280.2041
   9   2.0000     -10.296172      -280.1731
  10   2.0000     -10.291309      -280.0408
  11   2.0000     -10.289684      -279.9965
  12   2.0000     -10.289251      -279.9847
  13   2.0000     -10.287274      -279.9310
  14   2.0000     -10.280557      -279.7482
  15   2.0000     -10.277231      -279.6577
  16   2.0000      -8.080479      -219.8810
  17   2.0000      -8.078241      -219.8201
  18   2.0000      -6.038941      -164.3279
  19   2.0000      -6.036805      -164.2698
  20   2.0000      -6.034799      -164.2152
  21   2.0000      -6.032618      -164.1559
  22   2.0000      -6.031466      -164.1245
  23   2.0000      -6.029103      -164.0602
  24   2.0000      -1.006663       -27.3927
  25   2.0000      -0.984651       -26.7937
  26   2.0000      -0.910440       -24.7743
  27   2.0000      -0.908605       -24.7244
  28   2.0000      -0.873516       -23.7696
  29   2.0000      -0.843965       -22.9655
  30   2.0000      -0.836212       -22.7545
  31   2.0000      -0.813971       -22.1493
  32   2.0000      -0.784069       -21.3356
  33   2.0000      -0.772788       -21.0286
  34   2.0000      -0.713745       -19.4220
  35   2.0000      -0.697348       -18.9758
  36   2.0000      -0.687940       -18.7198
  37   2.0000      -0.655302       -17.8317
  38   2.0000      -0.632632       -17.2148
  39   2.0000      -0.620746       -16.8914
  40   2.0000      -0.598581       -16.2882
  41   2.0000      -0.564933       -15.3726
  42   2.0000      -0.553945       -15.0736
  43   2.0000      -0.550129       -14.9698
  44   2.0000      -0.538130       -14.6433
  45   2.0000      -0.528437       -14.3795
  46   2.0000      -0.520834       -14.1726
  47   2.0000      -0.507145       -13.8001
  48   2.0000      -0.503190       -13.6925
  49   2.0000      -0.491436       -13.3727
  50   2.0000      -0.487666       -13.2701
  51   2.0000      -0.473321       -12.8797
  52   2.0000      -0.466941       -12.7061
  53   2.0000      -0.465340       -12.6625
  54   2.0000      -0.458415       -12.4741
  55   2.0000      -0.445343       -12.1184
  56   2.0000      -0.441802       -12.0220
  57   2.0000      -0.435811       -11.8590
  58   2.0000      -0.434047       -11.8110
  59   2.0000      -0.420641       -11.4462
  60   2.0000      -0.418194       -11.3797
  61   2.0000      -0.411392       -11.1945
  62   2.0000      -0.407674       -11.0934
  63   2.0000      -0.340439        -9.2638
  64   2.0000      -0.333577        -9.0771
  65   2.0000      -0.323691        -8.8081
  66   2.0000      -0.298167        -8.1135
  67   0.0000       0.034245         0.9319
  68   0.0000       0.061653         1.6777
  69   0.0000       0.116727         3.1763
  70   0.0000       0.117627         3.2008
  71   0.0000       0.133679         3.6376

MULLIKEN ATOMIC CHARGES
-----------------------
   0 S :    0.115330
   1 C :   -0.168228
   2 C :   -0.077855
   3 C :    0.015199
   4 C :   -0.145130
   5 H :    0.035252
   6 C :    0.084704
   7 H :    0.018723
   8 H :    0.037705
   9 C :   -0.103762
  10 H :    0.030037
  11 H :    0.026497
  12 C :   -0.064949
  13 H :    0.029527
  14 H :    0.047708
  15 H :    0.029554
  16 S :    0.118806
  17 C :   -0.110167
  18 C :   -0.051970
  19 C :    0.002507
  20 C :   -0.204100
  21 H :    0.002137
  22 C :    0.070408
  23 H :    0.031760
  24 H :    0.036642
  25 C :   -0.064905
  26 H :    0.046533
  27 H :    0.024006
  28 C :   -0.072328
  29 H :    0.050130
  30 H :    0.032069
  31 H :    0.021865
  32 H :    0.086607
  33 H :    0.069688
Sum of atomic charges:    0.0000000

LOEWDIN ATOMIC CHARGES
----------------------
   0 S :    0.404289
   1 C :   -0.214441
   2 C :   -0.076267
   3 C :   -0.063588
   4 C :   -0.198823
   5 H :    0.040644
   6 C :   -0.031965
   7 H :    0.028093
   8 H :    0.036534
   9 C :   -0.046707
  10 H :    0.023137
  11 H :    0.026162
  12 C :   -0.083482
  13 H :    0.031476
  14 H :    0.034424
  15 H :    0.023415
  16 S :    0.424736
  17 C :   -0.193430
  18 C :   -0.074906
  19 C :   -0.048927
  20 C :   -0.204461
  21 H :    0.022570
  22 C :   -0.041578
  23 H :    0.036592
  24 H :    0.035340
  25 C :   -0.042593
  26 H :    0.039933
  27 H :    0.016137
  28 C :   -0.073007
  29 H :    0.031202
  30 H :    0.027426
  31 H :    0.022594
  32 H :    0.051365
  33 H :    0.038107

  Mayer bond orders larger than 0.100000
B(  0-S ,  1-C ) :   1.1415 B(  0-S ,  4-C ) :   1.1347 B(  1-C ,  2-C ) :   1.6058
B(  1-C , 32-H ) :   0.9553 B(  2-C ,  3-C ) :   1.2297 B(  2-C ,  6-C ) :   1.0398
B(  3-C ,  4-C ) :   1.5719 B(  3-C ,  5-H ) :   0.9879 B(  4-C , 20-C ) :   1.0530
B(  6-C ,  7-H ) :   0.9438 B(  6-C ,  8-H ) :   0.9279 B(  6-C ,  9-C ) :   1.0897
B(  9-C , 10-H ) :   0.9542 B(  9-C , 11-H ) :   0.9591 B(  9-C , 12-C ) :   1.0419
B( 12-C , 13-H ) :   0.9740 B( 12-C , 14-H ) :   0.9804 B( 12-C , 15-H ) :   0.9796
B( 16-S , 17-C ) :   1.1608 B( 16-S , 20-C ) :   1.1711 B( 17-C , 18-C ) :   1.6063
B( 17-C , 20-C ) :   0.1078 B( 17-C , 33-H ) :   0.9628 B( 18-C , 19-C ) :   1.2369
B( 18-C , 21-H ) :   0.9971 B( 19-C , 20-C ) :   1.5407 B( 19-C , 22-C ) :   1.0279
B( 22-C , 23-H ) :   0.9359 B( 22-C , 24-H ) :   0.9272 B( 22-C , 25-C ) :   1.0714
B( 25-C , 26-H ) :   0.9498 B( 25-C , 27-H ) :   0.9540 B( 25-C , 28-C ) :   1.0788
B( 28-C , 29-H ) :   0.9754 B( 28-C , 30-H ) :   0.9741 B( 28-C , 31-H ) :   0.9729

Dispersion correction           -0.014964290
FINAL SINGLE POINT ENERGY     -1339.876204937566

DIPOLE MOMENT
-------------
                                X             Y             Z
Electronic contribution:    -10.48775     -10.96354       2.14207
Nuclear contribution   :     10.52713      11.15327      -2.19788
                        -----------------------------------------
Total Dipole Moment    :      0.03937       0.18973      -0.05580
                        -----------------------------------------
Magnitude (a.u.)       :      0.20164
Magnitude (Debye)      :      0.51254

Rotational constants in cm-1:     0.021427     0.008201     0.007256
Rotational constants in MHz :   642.364115   245.846350   217.541004

                             ****ORCA TERMINATED NORMALLY****
TOTAL RUN TIME: 0 days 0 hours 0 minutes 20 seconds 367 msec
