                         Program Version 4.2.1 -  RELEASE  -
|  1> ! wB97X-D3 SP def2-SVP
|  2> %pal
|  3> nprocs 24
|  4> end
|  5>
|  6> * xyz 0 1
|  7> S 	 -30.9772 	 10.9464 	 11.6083
|  8> C 	 -31.1492 	 12.4614 	 10.7465
|  9> C 	 -30.8318 	 13.5373 	 11.5565
| 10> C 	 -30.4897 	 13.1692 	 12.8883
| 11> C 	 -30.716 	 11.8051 	 13.1181
| 12> H 	 -30.2959 	 13.8627 	 13.7644
| 13> C 	 -30.8812 	 14.9526 	 11.1208
| 14> H 	 -31.4184 	 15.5346 	 11.8917
| 15> H 	 -31.5547 	 14.9162 	 10.2401
| 16> C 	 -29.5136 	 15.4664 	 10.7586
| 17> H 	 -28.8296 	 15.3577 	 11.5798
| 18> H 	 -29.0388 	 14.9589 	 9.9163
| 19> C 	 -29.455 	 16.9634 	 10.5231
| 20> H 	 -29.9572 	 17.1727 	 9.5259
| 21> H 	 -30.0507 	 17.4623 	 11.2811
| 22> H 	 -28.4695 	 17.3194 	 10.4813
| 23> S 	 -29.8284 	 9.48981 	 14.4193
| 24> C 	 -30.3689 	 9.29916 	 16.0479
| 25> C 	 -30.7256 	 10.4697 	 16.6843
| 26> C 	 -30.9193 	 11.4797 	 15.6755
| 27> C 	 -30.5372 	 11.1051 	 14.4139
| 28> H 	 -30.8711 	 10.4922 	 17.7423
| 29> C 	 -31.5093 	 12.7344 	 16.0932
| 30> H 	 -32.2657 	 12.5557 	 16.8195
| 31> H 	 -31.9863 	 13.2467 	 15.2164
| 32> C 	 -30.6024 	 13.6328 	 16.9011
| 33> H 	 -29.5874 	 13.5599 	 16.5931
| 34> H 	 -30.542 	 13.3672 	 17.9867
| 35> C 	 -31.0667 	 15.1414 	 16.8426
| 36> H 	 -30.8129 	 15.7054 	 15.9264
| 37> H 	 -30.429 	 15.6303 	 17.5936
| 38> H 	 -32.165 	 15.314 	 17.0179
| 39> H 	 -31.4519 	 12.6749 	 9.7109
| 40> H 	 -30.3616 	 8.34757 	 16.564
| 41> *
| 42>
| 43>                          ****END OF INPUT****

CARTESIAN COORDINATES (ANGSTROEM)
---------------------------------
  S    -30.977200   10.946400   11.608300
  C    -31.149200   12.461400   10.746500
  C    -30.831800   13.537300   11.556500
  C    -30.489700   13.169200   12.888300
  C    -30.716000   11.805100   13.118100
  H    -30.295900   13.862700   13.764400
  C    -30.881200   14.952600   11.120800
  H    -31.418400   15.534600   11.891700
  H    -31.554700   14.916200   10.240100
  C    -29.513600   15.466400   10.758600
  H    -28.829600   15.357700   11.579800
  H    -29.038800   14.958900    9.916300
  C    -29.455000   16.963400   10.523100
  H    -29.957200   17.172700    9.525900
  H    -30.050700   17.462300   11.281100
  H    -28.469500   17.319400   10.481300
  S    -29.828400    9.489810   14.419300
  C    -30.368900    9.299160   16.047900
  C    -30.725600   10.469700   16.684300
  C    -30.919300   11.479700   15.675500
  C    -30.537200   11.105100   14.413900
  H    -30.871100   10.492200   17.742300
  C    -31.509300   12.734400   16.093200
  H    -32.265700   12.555700   16.819500
  H    -31.986300   13.246700   15.216400
  C    -30.602400   13.632800   16.901100
  H    -29.587400   13.559900   16.593100
  H    -30.542000   13.367200   17.986700
  C    -31.066700   15.141400   16.842600
  H    -30.812900   15.705400   15.926400
  H    -30.429000   15.630300   17.593600
  H    -32.165000   15.314000   17.017900
  H    -31.451900   12.674900    9.710900
  H    -30.361600    8.347570   16.564000

 Total Charge           Charge          ....    0
 Multiplicity           Mult            ....    1
 Number of Electrons    NEL             ....  134
 Basis Dimension        Dim             ....  322

ORBITAL ENERGIES
----------------

  NO   OCC          E(Eh)            E(eV)
   0   2.0000     -88.969057     -2420.9711
   1   2.0000     -88.964183     -2420.8385
   2   2.0000     -10.332986      -281.1748
   3   2.0000     -10.324315      -280.9389
   4   2.0000     -10.315200      -280.6909
   5   2.0000     -10.313001      -280.6310
   6   2.0000     -10.297758      -280.2162
   7   2.0000     -10.297720      -280.2152
   8   2.0000     -10.295581      -280.1570
   9   2.0000     -10.292743      -280.0798
  10   2.0000     -10.291775      -280.0534
  11   2.0000     -10.290745      -280.0254
  12   2.0000     -10.288795      -279.9724
  13   2.0000     -10.282334      -279.7965
  14   2.0000     -10.280789      -279.7545
  15   2.0000     -10.274672      -279.5880
  16   2.0000      -8.083212      -219.9554
  17   2.0000      -8.079477      -219.8538
  18   2.0000      -6.041833      -164.4066
  19   2.0000      -6.037947      -164.3009
  20   2.0000      -6.037865      -164.2986
  21   2.0000      -6.034218      -164.1994
  22   2.0000      -6.033819      -164.1886
  23   2.0000      -6.029947      -164.0832
  24   2.0000      -1.007193       -27.4071
  25   2.0000      -0.986502       -26.8441
  26   2.0000      -0.919390       -25.0179
  27   2.0000      -0.916582       -24.9415
  28   2.0000      -0.867673       -23.6106
  29   2.0000      -0.852979       -23.2107
  30   2.0000      -0.847566       -23.0634
  31   2.0000      -0.814503       -22.1638
  32   2.0000      -0.782036       -21.2803
  33   2.0000      -0.769823       -20.9479
  34   2.0000      -0.706428       -19.2229
  35   2.0000      -0.698356       -19.0032
  36   2.0000      -0.694199       -18.8901
  37   2.0000      -0.665621       -18.1125
  38   2.0000      -0.632938       -17.2231
  39   2.0000      -0.618364       -16.8265
  40   2.0000      -0.601449       -16.3663
  41   2.0000      -0.574125       -15.6227
  42   2.0000      -0.567420       -15.4403
  43   2.0000      -0.556527       -15.1439
  44   2.0000      -0.536926       -14.6105
  45   2.0000      -0.527949       -14.3662
  46   2.0000      -0.520272       -14.1573
  47   2.0000      -0.509840       -13.8735
  48   2.0000      -0.498442       -13.5633
  49   2.0000      -0.496905       -13.5215
  50   2.0000      -0.492055       -13.3895
  51   2.0000      -0.480650       -13.0792
  52   2.0000      -0.474678       -12.9167
  53   2.0000      -0.462209       -12.5773
  54   2.0000      -0.457133       -12.4392
  55   2.0000      -0.454755       -12.3745
  56   2.0000      -0.447620       -12.1803
  57   2.0000      -0.442805       -12.0493
  58   2.0000      -0.438905       -11.9432
  59   2.0000      -0.423060       -11.5120
  60   2.0000      -0.417154       -11.3513
  61   2.0000      -0.415363       -11.3026
  62   2.0000      -0.410447       -11.1688
  63   2.0000      -0.348430        -9.4813
  64   2.0000      -0.330106        -8.9826
  65   2.0000      -0.327979        -8.9248
  66   2.0000      -0.285166        -7.7598
  67   0.0000       0.025256         0.6873
  68   0.0000       0.078621         2.1394
  69   0.0000       0.098356         2.6764
  70   0.0000       0.118635         3.2282
  71   0.0000       0.124803         3.3961

MULLIKEN ATOMIC CHARGES
-----------------------
   0 S :    0.117621
   1 C :   -0.107872
   2 C :   -0.114236
   3 C :    0.002408
   4 C :   -0.147493
   5 H :    0.039945
   6 C :    0.068351
   7 H :    0.031854
   8 H :    0.015226
   9 C :   -0.068580
  10 H :    0.017954
  11 H :    0.029882
  12 C :   -0.022574
  13 H :    0.026198
  14 H :    0.022942
  15 H :    0.029477
  16 S :    0.104205
  17 C :   -0.096203
  18 C :   -0.018764
  19 C :   -0.048619
  20 C :   -0.129775
  21 H :    0.018099
  22 C :    0.072687
  23 H :    0.012805
  24 H :    0.039805
  25 C :   -0.087218
  26 H :    0.024790
  27 H :    0.035486
  28 C :   -0.086152
  29 H :    0.035468
  30 H :    0.033801
  31 H :    0.047867
  32 H :    0.046316
  33 H :    0.054299
Sum of atomic charges:   -0.0000000

LOEWDIN ATOMIC CHARGES
----------------------
   0 S :    0.404763
   1 C :   -0.209782
   2 C :   -0.065153
   3 C :   -0.072717
   4 C :   -0.183782
   5 H :    0.042539
   6 C :   -0.033721
   7 H :    0.033723
   8 H :    0.031739
   9 C :   -0.041336
  10 H :    0.021783
  11 H :    0.028042
  12 C :   -0.059559
  13 H :    0.027416
  14 H :    0.021790
  15 H :    0.018215
  16 S :    0.394079
  17 C :   -0.175342
  18 C :   -0.064821
  19 C :   -0.053714
  20 C :   -0.197131
  21 H :    0.031605
  22 C :   -0.043936
  23 H :    0.030736
  24 H :    0.035824
  25 C :   -0.036650
  26 H :    0.017475
  27 H :    0.028519
  28 C :   -0.073633
  29 H :    0.023258
  30 H :    0.028201
  31 H :    0.030925
  32 H :    0.035097
  33 H :    0.025547

  Mayer bond orders larger than 0.100000
B(  0-S ,  1-C ) :   1.1193 B(  0-S ,  4-C ) :   1.1570 B(  1-C ,  2-C ) :   1.6251
B(  1-C , 32-H ) :   0.9582 B(  2-C ,  3-C ) :   1.2415 B(  2-C ,  6-C ) :   1.0309
B(  3-C ,  4-C ) :   1.5502 B(  3-C ,  5-H ) :   0.9795 B(  4-C , 20-C ) :   1.0523
B(  6-C ,  7-H ) :   0.9389 B(  6-C ,  8-H ) :   0.9322 B(  6-C ,  9-C ) :   1.0649
B(  9-C , 10-H ) :   0.9577 B(  9-C , 11-H ) :   0.9519 B(  9-C , 12-C ) :   1.0873
B( 12-C , 13-H ) :   0.9733 B( 12-C , 14-H ) :   0.9734 B( 12-C , 15-H ) :   0.9753
B( 16-S , 17-C ) :   1.1597 B( 16-S , 20-C ) :   1.1026 B( 17-C , 18-C ) :   1.6307
B( 17-C , 33-H ) :   0.9658 B( 18-C , 19-C ) :   1.1906 B( 18-C , 21-H ) :   0.9982
B( 19-C , 20-C ) :   1.6319 B( 19-C , 22-C ) :   1.0871 B( 22-C , 23-H ) :   0.9116
B( 22-C , 24-H ) :   0.9385 B( 22-C , 25-C ) :   1.0410 B( 25-C , 26-H ) :   0.9590
B( 25-C , 27-H ) :   0.9549 B( 25-C , 28-C ) :   1.0767 B( 28-C , 29-H ) :   0.9780
B( 28-C , 30-H ) :   0.9747 B( 28-C , 31-H ) :   0.9738

Dispersion correction           -0.014048866
FINAL SINGLE POINT ENERGY     -1339.869302591649

DIPOLE MOMENT
-------------
                                X             Y             Z
Electronic contribution:     -0.11852     -31.82568      -4.17547
Nuclear contribution   :      0.05418      32.40940       4.55919
                        -----------------------------------------
Total Dipole Moment    :     -0.06434       0.58371       0.38372
                        -----------------------------------------
Magnitude (a.u.)       :      0.70150
Magnitude (Debye)      :      1.78307

Rotational constants in cm-1:     0.017882     0.009065     0.006432
Rotational constants in MHz :   536.087000   271.759965   192.819462

                             ****ORCA TERMINATED NORMALLY****
TOTAL RUN TIME: 0 days 0 hours 0 minutes 21 seconds 759 msec
