                         Program Version 4.2.1 -  RELEASE  -
|  1> ! wB97X-D3 SP def2-SVP
|  2> %pal
|  3> nprocs 24
|  4> end
|  5>
|  6> * xyz 0 1
|  7> S 	 -103.885 	 -3.60913 	 -107.789
|  8> C 	 -105.198 	 -4.13372 	 -106.822
|  9> C 	 -105.718 	 -3.13487 	 -106.066
| 10> C 	 -105.153 	 -1.82338 	 -106.438
| 11> C 	 -104.152 	 -1.92936 	 -107.37
| 12> H 	 -105.502 	 -0.886805 	 -106.072
| 13> C 	 -106.684 	 -3.37257 	 -104.886
| 14> H 	 -106.496 	 -2.60729 	 -104.103
| 15> H 	 -106.524 	 -4.38243 	 -104.482
| 16> C 	 -108.158 	 -3.25537 	 -105.283
| 17> H 	 -108.478 	 -2.21974 	 -105.416
| 18> H 	 -108.342 	 -3.83889 	 -106.174
| 19> C 	 -108.941 	 -3.9165 	 -104.149
| 20> H 	 -109.051 	 -3.29343 	 -103.27
| 21> H 	 -109.951 	 -4.13791 	 -104.462
| 22> H 	 -108.541 	 -4.90034 	 -103.807
| 23> S 	 -102.862 	 -1.19519 	 -109.582
| 24> C 	 -102.052 	 0.363018 	 -109.708
| 25> C 	 -102.143 	 1.07182 	 -108.543
| 26> C 	 -102.928 	 0.376833 	 -107.529
| 27> C 	 -103.431 	 -0.866812 	 -107.972
| 28> H 	 -101.724 	 2.09936 	 -108.463
| 29> C 	 -103.068 	 0.975348 	 -106.095
| 30> H 	 -102.043 	 1.1857 	 -105.831
| 31> H 	 -103.279 	 0.230556 	 -105.377
| 32> C 	 -103.98 	 2.19514 	 -105.995
| 33> H 	 -104.944 	 2.1983 	 -106.552
| 34> H 	 -103.391 	 3.03797 	 -106.238
| 35> C 	 -104.469 	 2.30989 	 -104.554
| 36> H 	 -103.598 	 2.51535 	 -103.919
| 37> H 	 -104.76 	 1.31766 	 -104.24
| 38> H 	 -105.214 	 3.04145 	 -104.284
| 39> H 	 -105.556 	 -5.18228 	 -106.714
| 40> H 	 -101.44 	 0.698567 	 -110.435
| 41> *
| 42>
| 43>                          ****END OF INPUT****

CARTESIAN COORDINATES (ANGSTROEM)
---------------------------------
  S    -103.885000   -3.609130  -107.789000
  C    -105.198000   -4.133720  -106.822000
  C    -105.718000   -3.134870  -106.066000
  C    -105.153000   -1.823380  -106.438000
  C    -104.152000   -1.929360  -107.370000
  H    -105.502000   -0.886805  -106.072000
  C    -106.684000   -3.372570  -104.886000
  H    -106.496000   -2.607290  -104.103000
  H    -106.524000   -4.382430  -104.482000
  C    -108.158000   -3.255370  -105.283000
  H    -108.478000   -2.219740  -105.416000
  H    -108.342000   -3.838890  -106.174000
  C    -108.941000   -3.916500  -104.149000
  H    -109.051000   -3.293430  -103.270000
  H    -109.951000   -4.137910  -104.462000
  H    -108.541000   -4.900340  -103.807000
  S    -102.862000   -1.195190  -109.582000
  C    -102.052000    0.363018  -109.708000
  C    -102.143000    1.071820  -108.543000
  C    -102.928000    0.376833  -107.529000
  C    -103.431000   -0.866812  -107.972000
  H    -101.724000    2.099360  -108.463000
  C    -103.068000    0.975348  -106.095000
  H    -102.043000    1.185700  -105.831000
  H    -103.279000    0.230556  -105.377000
  C    -103.980000    2.195140  -105.995000
  H    -104.944000    2.198300  -106.552000
  H    -103.391000    3.037970  -106.238000
  C    -104.469000    2.309890  -104.554000
  H    -103.598000    2.515350  -103.919000
  H    -104.760000    1.317660  -104.240000
  H    -105.214000    3.041450  -104.284000
  H    -105.556000   -5.182280  -106.714000
  H    -101.440000    0.698567  -110.435000

 Total Charge           Charge          ....    0
 Multiplicity           Mult            ....    1
 Number of Electrons    NEL             ....  134
 Basis Dimension        Dim             ....  322

ORBITAL ENERGIES
----------------

  NO   OCC          E(Eh)            E(eV)
   0   2.0000     -88.964510     -2420.8474
   1   2.0000     -88.963314     -2420.8148
   2   2.0000     -10.326903      -281.0093
   3   2.0000     -10.326556      -280.9999
   4   2.0000     -10.310649      -280.5670
   5   2.0000     -10.310306      -280.5577
   6   2.0000     -10.309424      -280.5337
   7   2.0000     -10.300175      -280.2820
   8   2.0000     -10.298060      -280.2245
   9   2.0000     -10.296063      -280.1701
  10   2.0000     -10.293920      -280.1118
  11   2.0000     -10.290555      -280.0202
  12   2.0000     -10.286242      -279.9029
  13   2.0000     -10.285234      -279.8755
  14   2.0000     -10.276698      -279.6432
  15   2.0000     -10.275215      -279.6028
  16   2.0000      -8.080012      -219.8683
  17   2.0000      -8.078246      -219.8202
  18   2.0000      -6.038690      -164.3211
  19   2.0000      -6.036883      -164.2719
  20   2.0000      -6.034470      -164.2063
  21   2.0000      -6.032654      -164.1569
  22   2.0000      -6.030470      -164.0974
  23   2.0000      -6.028908      -164.0549
  24   2.0000      -1.009992       -27.4833
  25   2.0000      -0.982811       -26.7436
  26   2.0000      -0.914536       -24.8858
  27   2.0000      -0.912349       -24.8263
  28   2.0000      -0.878086       -23.8939
  29   2.0000      -0.851328       -23.1658
  30   2.0000      -0.841674       -22.9031
  31   2.0000      -0.818455       -22.2713
  32   2.0000      -0.777722       -21.1629
  33   2.0000      -0.769266       -20.9328
  34   2.0000      -0.710640       -19.3375
  35   2.0000      -0.702983       -19.1291
  36   2.0000      -0.697842       -18.9893
  37   2.0000      -0.664256       -18.0753
  38   2.0000      -0.637867       -17.3572
  39   2.0000      -0.620956       -16.8971
  40   2.0000      -0.596354       -16.2276
  41   2.0000      -0.576601       -15.6901
  42   2.0000      -0.570431       -15.5222
  43   2.0000      -0.561525       -15.2799
  44   2.0000      -0.533548       -14.5186
  45   2.0000      -0.525052       -14.2874
  46   2.0000      -0.515337       -14.0230
  47   2.0000      -0.509510       -13.8645
  48   2.0000      -0.507833       -13.8188
  49   2.0000      -0.502308       -13.6685
  50   2.0000      -0.491645       -13.3783
  51   2.0000      -0.478459       -13.0195
  52   2.0000      -0.469002       -12.7622
  53   2.0000      -0.464078       -12.6282
  54   2.0000      -0.459729       -12.5099
  55   2.0000      -0.451080       -12.2745
  56   2.0000      -0.445673       -12.1274
  57   2.0000      -0.441699       -12.0192
  58   2.0000      -0.432202       -11.7608
  59   2.0000      -0.431344       -11.7375
  60   2.0000      -0.425003       -11.5649
  61   2.0000      -0.416110       -11.3229
  62   2.0000      -0.406709       -11.0671
  63   2.0000      -0.360761        -9.8168
  64   2.0000      -0.330050        -8.9811
  65   2.0000      -0.324069        -8.8184
  66   2.0000      -0.286612        -7.7991
  67   0.0000       0.025857         0.7036
  68   0.0000       0.084541         2.3005
  69   0.0000       0.103691         2.8216
  70   0.0000       0.119645         3.2557
  71   0.0000       0.126314         3.4372

MULLIKEN ATOMIC CHARGES
-----------------------
   0 S :    0.114058
   1 C :   -0.131123
   2 C :   -0.079696
   3 C :    0.020358
   4 C :   -0.113883
   5 H :   -0.006048
   6 C :    0.033094
   7 H :    0.035123
   8 H :    0.025637
   9 C :   -0.051073
  10 H :    0.037353
  11 H :    0.028499
  12 C :   -0.055070
  13 H :    0.027424
  14 H :    0.023571
  15 H :    0.027239
  16 S :    0.090236
  17 C :   -0.031192
  18 C :   -0.053823
  19 C :   -0.054340
  20 C :   -0.135687
  21 H :    0.037862
  22 C :    0.057448
  23 H :    0.026130
  24 H :    0.003683
  25 C :   -0.034412
  26 H :    0.047757
  27 H :    0.024343
  28 C :   -0.056686
  29 H :    0.016681
  30 H :    0.016325
  31 H :    0.038850
  32 H :    0.058553
  33 H :    0.012809
Sum of atomic charges:    0.0000000

LOEWDIN ATOMIC CHARGES
----------------------
   0 S :    0.409508
   1 C :   -0.214777
   2 C :   -0.063698
   3 C :   -0.057671
   4 C :   -0.192735
   5 H :    0.023755
   6 C :   -0.029431
   7 H :    0.034573
   8 H :    0.029728
   9 C :   -0.036480
  10 H :    0.027335
  11 H :    0.023166
  12 C :   -0.068480
  13 H :    0.022377
  14 H :    0.021647
  15 H :    0.025820
  16 S :    0.403226
  17 C :   -0.166811
  18 C :   -0.071124
  19 C :   -0.048318
  20 C :   -0.199939
  21 H :    0.039873
  22 C :   -0.028150
  23 H :    0.035473
  24 H :    0.020081
  25 C :   -0.037391
  26 H :    0.032978
  27 H :    0.019366
  28 C :   -0.066270
  29 H :    0.023558
  30 H :    0.018776
  31 H :    0.022833
  32 H :    0.038328
  33 H :    0.008872

  Mayer bond orders larger than 0.100000
B(  0-S ,  1-C ) :   1.1245 B(  0-S ,  4-C ) :   1.1301 B(  1-C ,  2-C ) :   1.6517
B(  1-C , 32-H ) :   0.9593 B(  2-C ,  3-C ) :   1.2093 B(  2-C ,  6-C ) :   1.0148
B(  3-C ,  4-C ) :   1.5841 B(  3-C ,  5-H ) :   1.0050 B(  4-C , 20-C ) :   1.0992
B(  6-C ,  7-H ) :   0.9439 B(  6-C ,  8-H ) :   0.9519 B(  6-C ,  9-C ) :   1.0646
B(  9-C , 10-H ) :   0.9532 B(  9-C , 11-H ) :   0.9593 B(  9-C , 12-C ) :   1.0834
B( 12-C , 13-H ) :   0.9739 B( 12-C , 14-H ) :   0.9739 B( 12-C , 15-H ) :   0.9748
B( 16-S , 17-C ) :   1.1396 B( 16-S , 20-C ) :   1.1278 B( 17-C , 18-C ) :   1.6353
B( 17-C , 33-H ) :   0.9766 B( 18-C , 19-C ) :   1.2345 B( 18-C , 21-H ) :   0.9804
B( 19-C , 20-C ) :   1.5804 B( 19-C , 22-C ) :   1.0311 B( 22-C , 23-H ) :   0.9287
B( 22-C , 24-H ) :   0.9480 B( 22-C , 25-C ) :   1.0432 B( 25-C , 26-H ) :   0.9656
B( 25-C , 27-H ) :   0.9529 B( 25-C , 28-C ) :   1.0809 B( 28-C , 29-H ) :   0.9699
B( 28-C , 30-H ) :   0.9780 B( 28-C , 31-H ) :   0.9762

Dispersion correction           -0.013594477
FINAL SINGLE POINT ENERGY     -1339.873656016185

DIPOLE MOMENT
-------------
                                X             Y             Z
Electronic contribution:     17.75748      -9.17680     -24.23635
Nuclear contribution   :    -17.96069       9.54715      24.81269
                        -----------------------------------------
Total Dipole Moment    :     -0.20321       0.37035       0.57634
                        -----------------------------------------
Magnitude (a.u.)       :      0.71458
Magnitude (Debye)      :      1.81631

Rotational constants in cm-1:     0.018066     0.008536     0.006106
Rotational constants in MHz :   541.610618   255.892655   183.067780

                             ****ORCA TERMINATED NORMALLY****
TOTAL RUN TIME: 0 days 0 hours 0 minutes 21 seconds 196 msec
