                         Program Version 4.2.1 -  RELEASE  -
|  1> ! wB97X-D3 SP def2-SVP
|  2> %pal
|  3> nprocs 24
|  4> end
|  5>
|  6> * xyz 0 1
|  7> S 	 -139.315 	 5.66011 	 -8.3601
|  8> C 	 -138.484 	 6.67947 	 -9.51982
|  9> C 	 -137.946 	 7.84432 	 -8.94267
| 10> C 	 -138.144 	 7.88864 	 -7.5202
| 11> C 	 -139.032 	 6.84441 	 -7.08852
| 12> H 	 -137.722 	 8.73568 	 -6.95407
| 13> C 	 -137.075 	 8.954 	 -9.52562
| 14> H 	 -137.325 	 9.91015 	 -9.11791
| 15> H 	 -137.307 	 9.033 	 -10.6588
| 16> C 	 -135.574 	 8.75266 	 -9.34267
| 17> H 	 -135.387 	 8.73802 	 -8.22104
| 18> H 	 -135.322 	 7.76744 	 -9.70486
| 19> C 	 -134.662 	 9.83444 	 -10.0081
| 20> H 	 -133.687 	 9.90801 	 -9.45535
| 21> H 	 -134.389 	 9.46815 	 -11.0112
| 22> H 	 -134.972 	 10.8766 	 -10.1285
| 23> S 	 -140.799 	 5.83763 	 -5.42448
| 24> C 	 -140.654 	 6.14283 	 -3.62537
| 25> C 	 -139.508 	 6.90907 	 -3.34634
| 26> C 	 -138.67 	 6.99817 	 -4.47824
| 27> C 	 -139.217 	 6.46525 	 -5.66444
| 28> H 	 -139.197 	 7.29625 	 -2.36678
| 29> C 	 -137.339 	 7.65943 	 -4.41547
| 30> H 	 -136.757 	 7.36462 	 -5.2783
| 31> H 	 -136.903 	 7.21431 	 -3.58077
| 32> C 	 -137.294 	 9.16837 	 -4.05609
| 33> H 	 -137.649 	 9.18561 	 -3.02064
| 34> H 	 -137.999 	 9.85986 	 -4.63065
| 35> C 	 -135.832 	 9.7263 	 -4.23854
| 36> H 	 -135.769 	 10.8669 	 -4.28052
| 37> H 	 -135.298 	 9.24008 	 -5.02156
| 38> H 	 -135.226 	 9.37102 	 -3.367
| 39> H 	 -138.606 	 6.44799 	 -10.5694
| 40> H 	 -141.451 	 5.92784 	 -2.94468
| 41> *
| 42>
| 43>                          ****END OF INPUT****

CARTESIAN COORDINATES (ANGSTROEM)
---------------------------------
  S    -139.315000    5.660110   -8.360100
  C    -138.484000    6.679470   -9.519820
  C    -137.946000    7.844320   -8.942670
  C    -138.144000    7.888640   -7.520200
  C    -139.032000    6.844410   -7.088520
  H    -137.722000    8.735680   -6.954070
  C    -137.075000    8.954000   -9.525620
  H    -137.325000    9.910150   -9.117910
  H    -137.307000    9.033000  -10.658800
  C    -135.574000    8.752660   -9.342670
  H    -135.387000    8.738020   -8.221040
  H    -135.322000    7.767440   -9.704860
  C    -134.662000    9.834440  -10.008100
  H    -133.687000    9.908010   -9.455350
  H    -134.389000    9.468150  -11.011200
  H    -134.972000   10.876600  -10.128500
  S    -140.799000    5.837630   -5.424480
  C    -140.654000    6.142830   -3.625370
  C    -139.508000    6.909070   -3.346340
  C    -138.670000    6.998170   -4.478240
  C    -139.217000    6.465250   -5.664440
  H    -139.197000    7.296250   -2.366780
  C    -137.339000    7.659430   -4.415470
  H    -136.757000    7.364620   -5.278300
  H    -136.903000    7.214310   -3.580770
  C    -137.294000    9.168370   -4.056090
  H    -137.649000    9.185610   -3.020640
  H    -137.999000    9.859860   -4.630650
  C    -135.832000    9.726300   -4.238540
  H    -135.769000   10.866900   -4.280520
  H    -135.298000    9.240080   -5.021560
  H    -135.226000    9.371020   -3.367000
  H    -138.606000    6.447990  -10.569400
  H    -141.451000    5.927840   -2.944680

 Total Charge           Charge          ....    0
 Multiplicity           Mult            ....    1
 Number of Electrons    NEL             ....  134
 Basis Dimension        Dim             ....  322

ORBITAL ENERGIES
----------------

  NO   OCC          E(Eh)            E(eV)
   0   2.0000     -88.969907     -2420.9942
   1   2.0000     -88.964656     -2420.8514
   2   2.0000     -10.337297      -281.2921
   3   2.0000     -10.327150      -281.0160
   4   2.0000     -10.324014      -280.9307
   5   2.0000     -10.319287      -280.8021
   6   2.0000     -10.306457      -280.4530
   7   2.0000     -10.303037      -280.3599
   8   2.0000     -10.301567      -280.3199
   9   2.0000     -10.301065      -280.3062
  10   2.0000     -10.300868      -280.3009
  11   2.0000     -10.297975      -280.2221
  12   2.0000     -10.295130      -280.1447
  13   2.0000     -10.290794      -280.0267
  14   2.0000     -10.287214      -279.9293
  15   2.0000     -10.284440      -279.8538
  16   2.0000      -8.084367      -219.9868
  17   2.0000      -8.079040      -219.8418
  18   2.0000      -6.042952      -164.4371
  19   2.0000      -6.038895      -164.3267
  20   2.0000      -6.037508      -164.2889
  21   2.0000      -6.035092      -164.2232
  22   2.0000      -6.033629      -164.1834
  23   2.0000      -6.029806      -164.0794
  24   2.0000      -1.002022       -27.2664
  25   2.0000      -0.977141       -26.5893
  26   2.0000      -0.912527       -24.8311
  27   2.0000      -0.906534       -24.6680
  28   2.0000      -0.865895       -23.5622
  29   2.0000      -0.848468       -23.0880
  30   2.0000      -0.844783       -22.9877
  31   2.0000      -0.806800       -21.9541
  32   2.0000      -0.779233       -21.2040
  33   2.0000      -0.768107       -20.9013
  34   2.0000      -0.706602       -19.2276
  35   2.0000      -0.698563       -19.0089
  36   2.0000      -0.693080       -18.8597
  37   2.0000      -0.669577       -18.2201
  38   2.0000      -0.637265       -17.3409
  39   2.0000      -0.619693       -16.8627
  40   2.0000      -0.594708       -16.1828
  41   2.0000      -0.568365       -15.4660
  42   2.0000      -0.564191       -15.3524
  43   2.0000      -0.550547       -14.9812
  44   2.0000      -0.528654       -14.3854
  45   2.0000      -0.520266       -14.1572
  46   2.0000      -0.516197       -14.0464
  47   2.0000      -0.505194       -13.7470
  48   2.0000      -0.502252       -13.6670
  49   2.0000      -0.492592       -13.4041
  50   2.0000      -0.490295       -13.3416
  51   2.0000      -0.481497       -13.1022
  52   2.0000      -0.468923       -12.7600
  53   2.0000      -0.463081       -12.6011
  54   2.0000      -0.460149       -12.5213
  55   2.0000      -0.449270       -12.2253
  56   2.0000      -0.444868       -12.1055
  57   2.0000      -0.441103       -12.0030
  58   2.0000      -0.437685       -11.9100
  59   2.0000      -0.427550       -11.6342
  60   2.0000      -0.425336       -11.5740
  61   2.0000      -0.413213       -11.2441
  62   2.0000      -0.408322       -11.1110
  63   2.0000      -0.354521        -9.6470
  64   2.0000      -0.333319        -9.0701
  65   2.0000      -0.325488        -8.8570
  66   2.0000      -0.280913        -7.6440
  67   0.0000       0.016654         0.4532
  68   0.0000       0.067949         1.8490
  69   0.0000       0.090928         2.4743
  70   0.0000       0.108986         2.9657
  71   0.0000       0.117929         3.2090

MULLIKEN ATOMIC CHARGES
-----------------------
   0 S :    0.103668
   1 C :   -0.133190
   2 C :   -0.063054
   3 C :   -0.034088
   4 C :   -0.088558
   5 H :    0.030058
   6 C :    0.035611
   7 H :    0.021257
   8 H :    0.032435
   9 C :   -0.075512
  10 H :    0.030973
  11 H :    0.030902
  12 C :   -0.066565
  13 H :    0.038305
  14 H :    0.035485
  15 H :    0.038967
  16 S :    0.079570
  17 C :   -0.093823
  18 C :   -0.011340
  19 C :   -0.100972
  20 C :   -0.082274
  21 H :    0.030183
  22 C :    0.060831
  23 H :    0.030155
  24 H :    0.010241
  25 C :   -0.102007
  26 H :    0.030013
  27 H :    0.046869
  28 C :   -0.062497
  29 H :    0.057903
  30 H :    0.028006
  31 H :    0.028660
  32 H :    0.056473
  33 H :    0.057315
Sum of atomic charges:    0.0000000

LOEWDIN ATOMIC CHARGES
----------------------
   0 S :    0.405682
   1 C :   -0.199069
   2 C :   -0.059223
   3 C :   -0.064033
   4 C :   -0.193460
   5 H :    0.037096
   6 C :   -0.036732
   7 H :    0.023769
   8 H :    0.035107
   9 C :   -0.040377
  10 H :    0.025520
  11 H :    0.024597
  12 C :   -0.077057
  13 H :    0.033649
  14 H :    0.028462
  15 H :    0.026152
  16 S :    0.393900
  17 C :   -0.155797
  18 C :   -0.062819
  19 C :   -0.057856
  20 C :   -0.210966
  21 H :    0.036783
  22 C :   -0.034822
  23 H :    0.028639
  24 H :    0.026702
  25 C :   -0.041954
  26 H :    0.022856
  27 H :    0.026446
  28 C :   -0.075631
  29 H :    0.036834
  30 H :    0.019401
  31 H :    0.030845
  32 H :    0.024830
  33 H :    0.022525

  Mayer bond orders larger than 0.100000
B(  0-S ,  1-C ) :   1.1485 B(  0-S ,  4-C ) :   1.1529 B(  1-C ,  2-C ) :   1.5760
B(  1-C ,  4-C ) :   0.1016 B(  1-C , 32-H ) :   0.9677 B(  2-C ,  3-C ) :   1.2772
B(  2-C ,  6-C ) :   1.0325 B(  3-C ,  4-C ) :   1.5310 B(  3-C ,  5-H ) :   0.9810
B(  4-C , 20-C ) :   1.0091 B(  6-C ,  7-H ) :   0.9398 B(  6-C ,  8-H ) :   0.9440
B(  6-C ,  9-C ) :   1.0611 B(  9-C , 10-H ) :   0.9583 B(  9-C , 11-H ) :   0.9569
B(  9-C , 12-C ) :   1.0611 B( 12-C , 13-H ) :   0.9763 B( 12-C , 14-H ) :   0.9778
B( 12-C , 15-H ) :   0.9792 B( 16-S , 17-C ) :   1.1625 B( 16-S , 20-C ) :   1.1299
B( 17-C , 18-C ) :   1.5664 B( 17-C , 33-H ) :   0.9726 B( 18-C , 19-C ) :   1.2865
B( 18-C , 21-H ) :   0.9833 B( 19-C , 20-C ) :   1.5794 B( 19-C , 22-C ) :   1.0381
B( 22-C , 23-H ) :   0.9470 B( 22-C , 24-H ) :   0.9231 B( 22-C , 25-C ) :   1.0415
B( 25-C , 26-H ) :   0.9545 B( 25-C , 27-H ) :   0.9648 B( 25-C , 28-C ) :   1.0626
B( 28-C , 29-H ) :   0.9766 B( 28-C , 30-H ) :   0.9773 B( 28-C , 31-H ) :   0.9720

Dispersion correction           -0.014383614
FINAL SINGLE POINT ENERGY     -1339.854503486704

DIPOLE MOMENT
-------------
                                X             Y             Z
Electronic contribution:    -26.39972     -22.47456       0.74145
Nuclear contribution   :     26.95895      23.05206      -0.54652
                        -----------------------------------------
Total Dipole Moment    :      0.55923       0.57750       0.19493
                        -----------------------------------------
Magnitude (a.u.)       :      0.82719
Magnitude (Debye)      :      2.10255

Rotational constants in cm-1:     0.017499     0.009706     0.006468
Rotational constants in MHz :   524.612267   290.978965   193.901187

                             ****ORCA TERMINATED NORMALLY****
TOTAL RUN TIME: 0 days 0 hours 0 minutes 22 seconds 291 msec
