                         Program Version 4.2.1 -  RELEASE  -
|  1> ! wB97X-D3 SP def2-SVP
|  2> %pal
|  3> nprocs 24
|  4> end
|  5>
|  6> * xyz 0 1
|  7> S 	 -57.7798 	 -51.1844 	 -78.0554
|  8> C 	 -56.8437 	 -50.0546 	 -77.131
|  9> C 	 -55.5342 	 -50.4355 	 -77.0719
| 10> C 	 -55.2486 	 -51.5771 	 -77.8972
| 11> C 	 -56.3786 	 -52.2112 	 -78.3288
| 12> H 	 -54.2693 	 -52.1152 	 -78.0454
| 13> C 	 -54.4383 	 -49.6804 	 -76.2759
| 14> H 	 -54.7333 	 -48.6641 	 -76.4232
| 15> H 	 -53.4603 	 -49.8573 	 -76.7595
| 16> C 	 -54.3369 	 -49.9702 	 -74.8065
| 17> H 	 -55.3212 	 -49.8442 	 -74.3573
| 18> H 	 -54.1963 	 -51.0423 	 -74.6973
| 19> C 	 -53.3374 	 -49.0115 	 -74.1197
| 20> H 	 -52.3929 	 -49.0568 	 -74.5902
| 21> H 	 -53.6277 	 -48.0257 	 -74.2034
| 22> H 	 -53.2852 	 -49.2686 	 -73.0324
| 23> S 	 -56.5387 	 -54.9748 	 -78.0389
| 24> C 	 -56.5238 	 -55.8947 	 -79.5445
| 25> C 	 -56.4919 	 -55.1244 	 -80.7012
| 26> C 	 -56.2812 	 -53.7472 	 -80.3858
| 27> C 	 -56.3737 	 -53.4826 	 -79.0026
| 28> H 	 -56.5654 	 -55.514 	 -81.6749
| 29> C 	 -56.1531 	 -52.6658 	 -81.4417
| 30> H 	 -55.3478 	 -52.9506 	 -82.0835
| 31> H 	 -55.7648 	 -51.7786 	 -80.8972
| 32> C 	 -57.385 	 -52.2458 	 -82.2511
| 33> H 	 -57.1611 	 -51.386 	 -82.8451
| 34> H 	 -58.1265 	 -51.6408 	 -81.6832
| 35> C 	 -58.0289 	 -53.4543 	 -83.0763
| 36> H 	 -57.4083 	 -54.0281 	 -83.712
| 37> H 	 -58.7908 	 -53.1205 	 -83.7301
| 38> H 	 -58.4256 	 -54.2956 	 -82.5293
| 39> H 	 -57.2205 	 -49.1401 	 -76.6442
| 40> H 	 -56.6957 	 -56.9421 	 -79.5729
| 41> *
| 42>
| 43>                          ****END OF INPUT****

CARTESIAN COORDINATES (ANGSTROEM)
---------------------------------
  S    -57.779800  -51.184400  -78.055400
  C    -56.843700  -50.054600  -77.131000
  C    -55.534200  -50.435500  -77.071900
  C    -55.248600  -51.577100  -77.897200
  C    -56.378600  -52.211200  -78.328800
  H    -54.269300  -52.115200  -78.045400
  C    -54.438300  -49.680400  -76.275900
  H    -54.733300  -48.664100  -76.423200
  H    -53.460300  -49.857300  -76.759500
  C    -54.336900  -49.970200  -74.806500
  H    -55.321200  -49.844200  -74.357300
  H    -54.196300  -51.042300  -74.697300
  C    -53.337400  -49.011500  -74.119700
  H    -52.392900  -49.056800  -74.590200
  H    -53.627700  -48.025700  -74.203400
  H    -53.285200  -49.268600  -73.032400
  S    -56.538700  -54.974800  -78.038900
  C    -56.523800  -55.894700  -79.544500
  C    -56.491900  -55.124400  -80.701200
  C    -56.281200  -53.747200  -80.385800
  C    -56.373700  -53.482600  -79.002600
  H    -56.565400  -55.514000  -81.674900
  C    -56.153100  -52.665800  -81.441700
  H    -55.347800  -52.950600  -82.083500
  H    -55.764800  -51.778600  -80.897200
  C    -57.385000  -52.245800  -82.251100
  H    -57.161100  -51.386000  -82.845100
  H    -58.126500  -51.640800  -81.683200
  C    -58.028900  -53.454300  -83.076300
  H    -57.408300  -54.028100  -83.712000
  H    -58.790800  -53.120500  -83.730100
  H    -58.425600  -54.295600  -82.529300
  H    -57.220500  -49.140100  -76.644200
  H    -56.695700  -56.942100  -79.572900

 Total Charge           Charge          ....    0
 Multiplicity           Mult            ....    1
 Number of Electrons    NEL             ....  134
 Basis Dimension        Dim             ....  322

ORBITAL ENERGIES
----------------

  NO   OCC          E(Eh)            E(eV)
   0   2.0000     -88.967866     -2420.9387
   1   2.0000     -88.964646     -2420.8511
   2   2.0000     -10.324305      -280.9386
   3   2.0000     -10.322300      -280.8841
   4   2.0000     -10.317272      -280.7473
   5   2.0000     -10.313165      -280.6355
   6   2.0000     -10.303694      -280.3778
   7   2.0000     -10.299165      -280.2545
   8   2.0000     -10.294693      -280.1328
   9   2.0000     -10.292715      -280.0790
  10   2.0000     -10.292036      -280.0605
  11   2.0000     -10.288238      -279.9572
  12   2.0000     -10.288200      -279.9562
  13   2.0000     -10.282394      -279.7982
  14   2.0000     -10.274087      -279.5721
  15   2.0000     -10.273452      -279.5548
  16   2.0000      -8.081758      -219.9158
  17   2.0000      -8.079406      -219.8518
  18   2.0000      -6.040228      -164.3630
  19   2.0000      -6.037956      -164.3011
  20   2.0000      -6.036518      -164.2620
  21   2.0000      -6.033867      -164.1899
  22   2.0000      -6.032483      -164.1522
  23   2.0000      -6.030152      -164.0888
  24   2.0000      -1.004312       -27.3287
  25   2.0000      -0.979878       -26.6638
  26   2.0000      -0.912324       -24.8256
  27   2.0000      -0.900836       -24.5130
  28   2.0000      -0.870886       -23.6980
  29   2.0000      -0.845802       -23.0154
  30   2.0000      -0.843108       -22.9421
  31   2.0000      -0.813769       -22.1438
  32   2.0000      -0.787069       -21.4172
  33   2.0000      -0.772680       -21.0257
  34   2.0000      -0.717990       -19.5375
  35   2.0000      -0.703680       -19.1481
  36   2.0000      -0.695465       -18.9246
  37   2.0000      -0.662853       -18.0371
  38   2.0000      -0.640234       -17.4217
  39   2.0000      -0.610487       -16.6122
  40   2.0000      -0.589175       -16.0323
  41   2.0000      -0.572335       -15.5740
  42   2.0000      -0.558768       -15.2048
  43   2.0000      -0.546434       -14.8692
  44   2.0000      -0.537814       -14.6347
  45   2.0000      -0.521876       -14.2010
  46   2.0000      -0.512774       -13.9533
  47   2.0000      -0.508570       -13.8389
  48   2.0000      -0.505721       -13.7614
  49   2.0000      -0.493766       -13.4360
  50   2.0000      -0.491301       -13.3690
  51   2.0000      -0.479505       -13.0480
  52   2.0000      -0.470170       -12.7940
  53   2.0000      -0.468404       -12.7459
  54   2.0000      -0.466197       -12.6859
  55   2.0000      -0.452355       -12.3092
  56   2.0000      -0.444935       -12.1073
  57   2.0000      -0.439827       -11.9683
  58   2.0000      -0.436407       -11.8753
  59   2.0000      -0.421532       -11.4705
  60   2.0000      -0.419611       -11.4182
  61   2.0000      -0.413408       -11.2494
  62   2.0000      -0.404183       -10.9984
  63   2.0000      -0.336728        -9.1628
  64   2.0000      -0.330253        -8.9866
  65   2.0000      -0.316758        -8.6194
  66   2.0000      -0.308780        -8.4023
  67   0.0000       0.045372         1.2346
  68   0.0000       0.050563         1.3759
  69   0.0000       0.113187         3.0800
  70   0.0000       0.115589         3.1453
  71   0.0000       0.128788         3.5045

MULLIKEN ATOMIC CHARGES
-----------------------
   0 S :    0.121730
   1 C :   -0.132516
   2 C :   -0.092491
   3 C :    0.029607
   4 C :   -0.192609
   5 H :    0.038269
   6 C :    0.058093
   7 H :    0.011256
   8 H :    0.024223
   9 C :   -0.055896
  10 H :    0.014645
  11 H :    0.024546
  12 C :    0.001192
  13 H :    0.018977
  14 H :    0.010651
  15 H :    0.044945
  16 S :    0.117163
  17 C :   -0.076739
  18 C :   -0.011990
  19 C :   -0.033636
  20 C :   -0.191096
  21 H :    0.001456
  22 C :    0.079951
  23 H :    0.023964
  24 H :    0.026926
  25 C :   -0.020511
  26 H :    0.015720
  27 H :    0.022174
  28 C :   -0.039809
  29 H :    0.006726
  30 H :    0.022977
  31 H :    0.030221
  32 H :    0.055974
  33 H :    0.045906
Sum of atomic charges:    0.0000000

LOEWDIN ATOMIC CHARGES
----------------------
   0 S :    0.406026
   1 C :   -0.206686
   2 C :   -0.066326
   3 C :   -0.064058
   4 C :   -0.203471
   5 H :    0.043638
   6 C :   -0.029868
   7 H :    0.023645
   8 H :    0.029794
   9 C :   -0.041846
  10 H :    0.021941
  11 H :    0.024056
  12 C :   -0.052760
  13 H :    0.019807
  14 H :    0.015526
  15 H :    0.035667
  16 S :    0.392622
  17 C :   -0.170172
  18 C :   -0.062627
  19 C :   -0.043220
  20 C :   -0.198699
  21 H :    0.024336
  22 C :   -0.035717
  23 H :    0.028433
  24 H :    0.037205
  25 C :   -0.037542
  26 H :    0.025703
  27 H :    0.031725
  28 C :   -0.071190
  29 H :    0.018442
  30 H :    0.023463
  31 H :    0.026479
  32 H :    0.035846
  33 H :    0.019827

  Mayer bond orders larger than 0.100000
B(  0-S ,  1-C ) :   1.1340 B(  0-S ,  4-C ) :   1.1357 B(  1-C ,  2-C ) :   1.6329
B(  1-C , 32-H ) :   0.9639 B(  2-C ,  3-C ) :   1.2283 B(  2-C ,  6-C ) :   1.0036
B(  3-C ,  4-C ) :   1.6056 B(  3-C ,  5-H ) :   0.9826 B(  4-C , 20-C ) :   1.0403
B(  6-C ,  7-H ) :   0.9398 B(  6-C ,  8-H ) :   0.9442 B(  6-C ,  9-C ) :   1.0748
B(  9-C , 10-H ) :   0.9516 B(  9-C , 11-H ) :   0.9544 B(  9-C , 12-C ) :   1.0713
B( 12-C , 13-H ) :   0.9750 B( 12-C , 14-H ) :   0.9733 B( 12-C , 15-H ) :   0.9743
B( 16-S , 17-C ) :   1.1560 B( 16-S , 20-C ) :   1.1326 B( 17-C , 18-C ) :   1.6092
B( 17-C , 20-C ) :   0.1032 B( 17-C , 33-H ) :   0.9666 B( 18-C , 19-C ) :   1.2379
B( 18-C , 21-H ) :   0.9924 B( 19-C , 20-C ) :   1.6028 B( 19-C , 22-C ) :   1.0478
B( 22-C , 23-H ) :   0.9327 B( 22-C , 24-H ) :   0.9200 B( 22-C , 25-C ) :   1.0841
B( 25-C , 26-H ) :   0.9492 B( 25-C , 27-H ) :   0.9496 B( 25-C , 28-C ) :   1.0549
B( 28-C , 29-H ) :   0.9750 B( 28-C , 30-H ) :   0.9736 B( 28-C , 31-H ) :   0.9728

Dispersion correction           -0.014548308
FINAL SINGLE POINT ENERGY     -1339.866299959318

DIPOLE MOMENT
-------------
                                X             Y             Z
Electronic contribution:     -8.80989     -12.09950       3.21918
Nuclear contribution   :      9.07473      12.34988      -3.42893
                        -----------------------------------------
Total Dipole Moment    :      0.26484       0.25037      -0.20976
                        -----------------------------------------
Magnitude (a.u.)       :      0.42051
Magnitude (Debye)      :      1.06885

Rotational constants in cm-1:     0.024455     0.007068     0.006227
Rotational constants in MHz :   733.144681   211.883755   186.684045

                             ****ORCA TERMINATED NORMALLY****
TOTAL RUN TIME: 0 days 0 hours 0 minutes 22 seconds 326 msec
