                         Program Version 4.2.1 -  RELEASE  -
|  1> ! wB97X-D3 SP def2-SVP
|  2> %pal
|  3> nprocs 24
|  4> end
|  5>
|  6> * xyz 0 1
|  7> S 	 -59.9809 	 -1.65624 	 -20.4521
|  8> C 	 -61.0852 	 -2.15664 	 -19.2299
|  9> C 	 -62.3595 	 -1.74408 	 -19.5032
| 10> C 	 -62.3995 	 -1.10047 	 -20.7447
| 11> C 	 -61.2301 	 -1.11117 	 -21.4618
| 12> H 	 -63.2774 	 -0.643107 	 -21.1776
| 13> C 	 -63.5639 	 -1.71364 	 -18.555
| 14> H 	 -64.1164 	 -0.749734 	 -18.6018
| 15> H 	 -63.2637 	 -1.80556 	 -17.4853
| 16> C 	 -64.5222 	 -2.96945 	 -18.66
| 17> H 	 -64.8738 	 -3.13647 	 -19.6638
| 18> H 	 -63.9696 	 -3.91222 	 -18.4066
| 19> C 	 -65.8021 	 -2.63465 	 -17.7694
| 20> H 	 -65.5899 	 -2.37574 	 -16.6593
| 21> H 	 -66.3271 	 -1.76615 	 -18.231
| 22> H 	 -66.5472 	 -3.34529 	 -17.9057
| 23> S 	 -59.6011 	 0.371694 	 -23.1504
| 24> C 	 -60.0891 	 0.589726 	 -24.8054
| 25> C 	 -61.2601 	 -0.0708897 	 -25.0851
| 26> C 	 -61.7663 	 -0.703244 	 -23.9516
| 27> C 	 -61.0641 	 -0.537322 	 -22.7691
| 28> H 	 -61.5607 	 0.0128064 	 -26.1427
| 29> C 	 -63.0384 	 -1.55709 	 -24.0117
| 30> H 	 -63.5837 	 -1.45961 	 -24.944
| 31> H 	 -63.6351 	 -1.14404 	 -23.2406
| 32> C 	 -62.9407 	 -3.03132 	 -23.7244
| 33> H 	 -63.8974 	 -3.56568 	 -24.0263
| 34> H 	 -62.7734 	 -3.18919 	 -22.6407
| 35> C 	 -61.8182 	 -3.65102 	 -24.5027
| 36> H 	 -61.5124 	 -4.69549 	 -24.3678
| 37> H 	 -60.8896 	 -3.10403 	 -24.2061
| 38> H 	 -61.9525 	 -3.457 	 -25.5607
| 39> H 	 -60.7029 	 -2.60816 	 -18.3514
| 40> H 	 -59.4712 	 1.12962 	 -25.475
| 41> *
| 42>
| 43>                          ****END OF INPUT****

CARTESIAN COORDINATES (ANGSTROEM)
---------------------------------
  S    -59.980900   -1.656240  -20.452100
  C    -61.085200   -2.156640  -19.229900
  C    -62.359500   -1.744080  -19.503200
  C    -62.399500   -1.100470  -20.744700
  C    -61.230100   -1.111170  -21.461800
  H    -63.277400   -0.643107  -21.177600
  C    -63.563900   -1.713640  -18.555000
  H    -64.116400   -0.749734  -18.601800
  H    -63.263700   -1.805560  -17.485300
  C    -64.522200   -2.969450  -18.660000
  H    -64.873800   -3.136470  -19.663800
  H    -63.969600   -3.912220  -18.406600
  C    -65.802100   -2.634650  -17.769400
  H    -65.589900   -2.375740  -16.659300
  H    -66.327100   -1.766150  -18.231000
  H    -66.547200   -3.345290  -17.905700
  S    -59.601100    0.371694  -23.150400
  C    -60.089100    0.589726  -24.805400
  C    -61.260100   -0.070890  -25.085100
  C    -61.766300   -0.703244  -23.951600
  C    -61.064100   -0.537322  -22.769100
  H    -61.560700    0.012806  -26.142700
  C    -63.038400   -1.557090  -24.011700
  H    -63.583700   -1.459610  -24.944000
  H    -63.635100   -1.144040  -23.240600
  C    -62.940700   -3.031320  -23.724400
  H    -63.897400   -3.565680  -24.026300
  H    -62.773400   -3.189190  -22.640700
  C    -61.818200   -3.651020  -24.502700
  H    -61.512400   -4.695490  -24.367800
  H    -60.889600   -3.104030  -24.206100
  H    -61.952500   -3.457000  -25.560700
  H    -60.702900   -2.608160  -18.351400
  H    -59.471200    1.129620  -25.475000

 Total Charge           Charge          ....    0
 Multiplicity           Mult            ....    1
 Number of Electrons    NEL             ....  134
 Basis Dimension        Dim             ....  322

ORBITAL ENERGIES
----------------

  NO   OCC          E(Eh)            E(eV)
   0   2.0000     -88.967362     -2420.9250
   1   2.0000     -88.963901     -2420.8308
   2   2.0000     -10.325856      -280.9808
   3   2.0000     -10.323813      -280.9252
   4   2.0000     -10.314902      -280.6827
   5   2.0000     -10.310600      -280.5657
   6   2.0000     -10.303510      -280.3728
   7   2.0000     -10.301924      -280.3296
   8   2.0000     -10.300230      -280.2835
   9   2.0000     -10.297330      -280.2046
  10   2.0000     -10.294456      -280.1264
  11   2.0000     -10.287807      -279.9455
  12   2.0000     -10.287341      -279.9328
  13   2.0000     -10.281695      -279.7791
  14   2.0000     -10.281540      -279.7749
  15   2.0000     -10.266289      -279.3599
  16   2.0000      -8.083707      -219.9689
  17   2.0000      -8.078905      -219.8382
  18   2.0000      -6.042053      -164.4126
  19   2.0000      -6.037991      -164.3021
  20   2.0000      -6.037243      -164.2817
  21   2.0000      -6.034531      -164.2079
  22   2.0000      -6.033356      -164.1760
  23   2.0000      -6.029871      -164.0811
  24   2.0000      -1.019846       -27.7514
  25   2.0000      -0.994534       -27.0626
  26   2.0000      -0.912657       -24.8347
  27   2.0000      -0.905053       -24.6277
  28   2.0000      -0.874333       -23.7918
  29   2.0000      -0.852532       -23.1986
  30   2.0000      -0.844667       -22.9846
  31   2.0000      -0.815522       -22.1915
  32   2.0000      -0.781844       -21.2751
  33   2.0000      -0.773220       -21.0404
  34   2.0000      -0.709785       -19.3142
  35   2.0000      -0.703124       -19.1330
  36   2.0000      -0.683546       -18.6002
  37   2.0000      -0.666379       -18.1331
  38   2.0000      -0.648680       -17.6515
  39   2.0000      -0.626341       -17.0436
  40   2.0000      -0.589885       -16.0516
  41   2.0000      -0.575000       -15.6466
  42   2.0000      -0.564590       -15.3633
  43   2.0000      -0.552431       -15.0324
  44   2.0000      -0.546147       -14.8614
  45   2.0000      -0.525330       -14.2950
  46   2.0000      -0.516748       -14.0614
  47   2.0000      -0.509685       -13.8692
  48   2.0000      -0.502304       -13.6684
  49   2.0000      -0.495126       -13.4731
  50   2.0000      -0.494592       -13.4585
  51   2.0000      -0.475641       -12.9428
  52   2.0000      -0.474884       -12.9223
  53   2.0000      -0.466207       -12.6861
  54   2.0000      -0.461224       -12.5505
  55   2.0000      -0.448498       -12.2043
  56   2.0000      -0.441634       -12.0175
  57   2.0000      -0.434025       -11.8104
  58   2.0000      -0.428417       -11.6578
  59   2.0000      -0.422320       -11.4919
  60   2.0000      -0.421525       -11.4703
  61   2.0000      -0.414650       -11.2832
  62   2.0000      -0.405249       -11.0274
  63   2.0000      -0.355744        -9.6803
  64   2.0000      -0.336217        -9.1489
  65   2.0000      -0.332149        -9.0382
  66   2.0000      -0.287290        -7.8176
  67   0.0000       0.024735         0.6731
  68   0.0000       0.074180         2.0185
  69   0.0000       0.110238         2.9997
  70   0.0000       0.126042         3.4298
  71   0.0000       0.133194         3.6244

MULLIKEN ATOMIC CHARGES
-----------------------
   0 S :    0.122399
   1 C :   -0.127695
   2 C :   -0.001212
   3 C :   -0.015799
   4 C :   -0.132877
   5 H :    0.010251
   6 C :    0.011860
   7 H :    0.041978
   8 H :    0.026420
   9 C :   -0.078439
  10 H :    0.025416
  11 H :    0.042933
  12 C :   -0.062118
  13 H :    0.053748
  14 H :    0.027439
  15 H :    0.020924
  16 S :    0.090616
  17 C :   -0.092678
  18 C :   -0.042613
  19 C :   -0.053080
  20 C :   -0.138476
  21 H :    0.032750
  22 C :    0.109055
  23 H :    0.014790
  24 H :    0.007889
  25 C :   -0.082470
  26 H :    0.035815
  27 H :    0.043166
  28 C :   -0.060602
  29 H :    0.035871
  30 H :    0.037241
  31 H :    0.017077
  32 H :    0.035076
  33 H :    0.045346
Sum of atomic charges:    0.0000000

LOEWDIN ATOMIC CHARGES
----------------------
   0 S :    0.443936
   1 C :   -0.193004
   2 C :   -0.068213
   3 C :   -0.062710
   4 C :   -0.214889
   5 H :    0.028350
   6 C :   -0.033696
   7 H :    0.035135
   8 H :    0.033052
   9 C :   -0.036383
  10 H :    0.017594
  11 H :    0.028718
  12 C :   -0.073654
  13 H :    0.036000
  14 H :    0.030065
  15 H :    0.014282
  16 S :    0.399859
  17 C :   -0.171836
  18 C :   -0.079013
  19 C :   -0.054592
  20 C :   -0.195390
  21 H :    0.044099
  22 C :   -0.029229
  23 H :    0.028714
  24 H :    0.024836
  25 C :   -0.046653
  26 H :    0.029569
  27 H :    0.025524
  28 C :   -0.075337
  29 H :    0.025135
  30 H :    0.030711
  31 H :    0.019242
  32 H :    0.019603
  33 H :    0.020174

  Mayer bond orders larger than 0.100000
B(  0-S ,  1-C ) :   1.1623 B(  0-S ,  4-C ) :   1.1667 B(  1-C ,  2-C ) :   1.5647
B(  1-C , 32-H ) :   0.9793 B(  2-C ,  3-C ) :   1.2767 B(  2-C ,  6-C ) :   1.0085
B(  3-C ,  4-C ) :   1.5246 B(  3-C ,  5-H ) :   0.9996 B(  4-C , 20-C ) :   1.0751
B(  6-C ,  7-H ) :   0.9569 B(  6-C ,  8-H ) :   0.9483 B(  6-C ,  9-C ) :   1.0427
B(  9-C , 10-H ) :   0.9606 B(  9-C , 11-H ) :   0.9600 B(  9-C , 12-C ) :   1.0661
B( 12-C , 13-H ) :   0.9754 B( 12-C , 14-H ) :   0.9731 B( 12-C , 15-H ) :   0.9749
B( 16-S , 17-C ) :   1.1788 B( 16-S , 20-C ) :   1.1272 B( 17-C , 18-C ) :   1.5819
B( 17-C , 20-C ) :   0.1068 B( 17-C , 33-H ) :   0.9715 B( 18-C , 19-C ) :   1.2492
B( 18-C , 21-H ) :   1.0000 B( 19-C , 20-C ) :   1.5741 B( 19-C , 22-C ) :   1.0240
B( 22-C , 23-H ) :   0.9366 B( 22-C , 24-H ) :   0.9295 B( 22-C , 25-C ) :   1.0765
B( 25-C , 26-H ) :   0.9550 B( 25-C , 27-H ) :   0.9477 B( 25-C , 28-C ) :   1.0804
B( 28-C , 29-H ) :   0.9751 B( 28-C , 30-H ) :   0.9652 B( 28-C , 31-H ) :   0.9747

Dispersion correction           -0.015246790
FINAL SINGLE POINT ENERGY     -1339.874521999764

DIPOLE MOMENT
-------------
                                X             Y             Z
Electronic contribution:     24.23879      13.70491      -4.30576
Nuclear contribution   :    -24.76059     -13.77738       4.28673
                        -----------------------------------------
Total Dipole Moment    :     -0.52180      -0.07247      -0.01902
                        -----------------------------------------
Magnitude (a.u.)       :      0.52716
Magnitude (Debye)      :      1.33993

Rotational constants in cm-1:     0.021991     0.008445     0.007103
Rotational constants in MHz :   659.274799   253.184334   212.929964

                             ****ORCA TERMINATED NORMALLY****
TOTAL RUN TIME: 0 days 0 hours 0 minutes 22 seconds 600 msec
