                         Program Version 4.2.1 -  RELEASE  -
|  1> ! wB97X-D3 SP def2-SVP
|  2> %pal
|  3> nprocs 24
|  4> end
|  5>
|  6> * xyz 0 1
|  7> S 	 -42.5102 	 18.03 	 -94.983
|  8> C 	 -41.997 	 19.0079 	 -93.6143
|  9> C 	 -41.5324 	 18.2098 	 -92.5826
| 10> C 	 -41.7571 	 16.8137 	 -92.8622
| 11> C 	 -42.3162 	 16.5674 	 -94.1018
| 12> H 	 -41.6596 	 15.9167 	 -92.1815
| 13> C 	 -41.0497 	 18.7245 	 -91.1738
| 14> H 	 -40.8881 	 17.8754 	 -90.4803
| 15> H 	 -41.8436 	 19.3765 	 -90.6519
| 16> C 	 -39.5754 	 19.2731 	 -91.1727
| 17> H 	 -39.5229 	 20.3153 	 -91.5006
| 18> H 	 -39.2917 	 19.4399 	 -90.0765
| 19> C 	 -38.4391 	 18.401 	 -91.8356
| 20> H 	 -38.3004 	 17.4064 	 -91.324
| 21> H 	 -38.6869 	 18.3222 	 -92.9132
| 22> H 	 -37.393 	 18.8791 	 -91.8575
| 23> S 	 -44.1041 	 15.2099 	 -95.4799
| 24> C 	 -43.8737 	 13.5828 	 -95.9871
| 25> C 	 -42.6876 	 13.1272 	 -95.5582
| 26> C 	 -41.9547 	 14.0714 	 -94.713
| 27> C 	 -42.6109 	 15.271 	 -94.6953
| 28> H 	 -42.4739 	 12.0752 	 -95.6653
| 29> C 	 -40.7969 	 13.6284 	 -93.9457
| 30> H 	 -41.0692 	 12.7622 	 -93.2265
| 31> H 	 -40.5584 	 14.3998 	 -93.1591
| 32> C 	 -39.5263 	 13.2213 	 -94.6978
| 33> H 	 -39.6783 	 12.2964 	 -95.2538
| 34> H 	 -38.6845 	 13.0114 	 -94.0376
| 35> C 	 -38.9796 	 14.3938 	 -95.6293
| 36> H 	 -37.9271 	 14.2786 	 -95.9502
| 37> H 	 -38.9489 	 15.3129 	 -95.0074
| 38> H 	 -39.5297 	 14.4422 	 -96.5381
| 39> H 	 -41.8612 	 20.0447 	 -93.6893
| 40> H 	 -44.5614 	 12.927 	 -96.4507
| 41> *
| 42>
| 43>                          ****END OF INPUT****

CARTESIAN COORDINATES (ANGSTROEM)
---------------------------------
  S    -42.510200   18.030000  -94.983000
  C    -41.997000   19.007900  -93.614300
  C    -41.532400   18.209800  -92.582600
  C    -41.757100   16.813700  -92.862200
  C    -42.316200   16.567400  -94.101800
  H    -41.659600   15.916700  -92.181500
  C    -41.049700   18.724500  -91.173800
  H    -40.888100   17.875400  -90.480300
  H    -41.843600   19.376500  -90.651900
  C    -39.575400   19.273100  -91.172700
  H    -39.522900   20.315300  -91.500600
  H    -39.291700   19.439900  -90.076500
  C    -38.439100   18.401000  -91.835600
  H    -38.300400   17.406400  -91.324000
  H    -38.686900   18.322200  -92.913200
  H    -37.393000   18.879100  -91.857500
  S    -44.104100   15.209900  -95.479900
  C    -43.873700   13.582800  -95.987100
  C    -42.687600   13.127200  -95.558200
  C    -41.954700   14.071400  -94.713000
  C    -42.610900   15.271000  -94.695300
  H    -42.473900   12.075200  -95.665300
  C    -40.796900   13.628400  -93.945700
  H    -41.069200   12.762200  -93.226500
  H    -40.558400   14.399800  -93.159100
  C    -39.526300   13.221300  -94.697800
  H    -39.678300   12.296400  -95.253800
  H    -38.684500   13.011400  -94.037600
  C    -38.979600   14.393800  -95.629300
  H    -37.927100   14.278600  -95.950200
  H    -38.948900   15.312900  -95.007400
  H    -39.529700   14.442200  -96.538100
  H    -41.861200   20.044700  -93.689300
  H    -44.561400   12.927000  -96.450700

 Total Charge           Charge          ....    0
 Multiplicity           Mult            ....    1
 Number of Electrons    NEL             ....  134
 Basis Dimension        Dim             ....  322

ORBITAL ENERGIES
----------------

  NO   OCC          E(Eh)            E(eV)
   0   2.0000     -88.967075     -2420.9172
   1   2.0000     -88.961541     -2420.7666
   2   2.0000     -10.326685      -281.0034
   3   2.0000     -10.321988      -280.8756
   4   2.0000     -10.312809      -280.6258
   5   2.0000     -10.310131      -280.5529
   6   2.0000     -10.309716      -280.5416
   7   2.0000     -10.307588      -280.4837
   8   2.0000     -10.301129      -280.3080
   9   2.0000     -10.298591      -280.2389
  10   2.0000     -10.297977      -280.2222
  11   2.0000     -10.297955      -280.2216
  12   2.0000     -10.293663      -280.1048
  13   2.0000     -10.289098      -279.9806
  14   2.0000     -10.288741      -279.9709
  15   2.0000     -10.275103      -279.5998
  16   2.0000      -8.082203      -219.9279
  17   2.0000      -8.078411      -219.8247
  18   2.0000      -6.040683      -164.3753
  19   2.0000      -6.036933      -164.2733
  20   2.0000      -6.036600      -164.2642
  21   2.0000      -6.033012      -164.1666
  22   2.0000      -6.032560      -164.1543
  23   2.0000      -6.029057      -164.0590
  24   2.0000      -1.019042       -27.7295
  25   2.0000      -0.989804       -26.9339
  26   2.0000      -0.908388       -24.7185
  27   2.0000      -0.899225       -24.4692
  28   2.0000      -0.872093       -23.7309
  29   2.0000      -0.846127       -23.0243
  30   2.0000      -0.837736       -22.7960
  31   2.0000      -0.816464       -22.2171
  32   2.0000      -0.779208       -21.2033
  33   2.0000      -0.773250       -21.0412
  34   2.0000      -0.708246       -19.2723
  35   2.0000      -0.698204       -18.9991
  36   2.0000      -0.692187       -18.8354
  37   2.0000      -0.662434       -18.0258
  38   2.0000      -0.641454       -17.4548
  39   2.0000      -0.612458       -16.6658
  40   2.0000      -0.595476       -16.2037
  41   2.0000      -0.570102       -15.5133
  42   2.0000      -0.549376       -14.9493
  43   2.0000      -0.545382       -14.8406
  44   2.0000      -0.542207       -14.7542
  45   2.0000      -0.531363       -14.4591
  46   2.0000      -0.516527       -14.0554
  47   2.0000      -0.508499       -13.8370
  48   2.0000      -0.500737       -13.6257
  49   2.0000      -0.497490       -13.5374
  50   2.0000      -0.487779       -13.2731
  51   2.0000      -0.477396       -12.9906
  52   2.0000      -0.471504       -12.8303
  53   2.0000      -0.461835       -12.5672
  54   2.0000      -0.457776       -12.4567
  55   2.0000      -0.448913       -12.2155
  56   2.0000      -0.442566       -12.0428
  57   2.0000      -0.436216       -11.8700
  58   2.0000      -0.430349       -11.7104
  59   2.0000      -0.417994       -11.3742
  60   2.0000      -0.412184       -11.2161
  61   2.0000      -0.411725       -11.2036
  62   2.0000      -0.406572       -11.0634
  63   2.0000      -0.356722        -9.7069
  64   2.0000      -0.333415        -9.0727
  65   2.0000      -0.325914        -8.8686
  66   2.0000      -0.295014        -8.0277
  67   0.0000       0.033866         0.9216
  68   0.0000       0.077514         2.1093
  69   0.0000       0.110125         2.9967
  70   0.0000       0.117208         3.1894
  71   0.0000       0.128955         3.5090

MULLIKEN ATOMIC CHARGES
-----------------------
   0 S :    0.117316
   1 C :   -0.105655
   2 C :   -0.070807
   3 C :   -0.010814
   4 C :   -0.134246
   5 H :    0.044278
   6 C :    0.028908
   7 H :    0.027907
   8 H :    0.068073
   9 C :   -0.108910
  10 H :    0.028385
  11 H :    0.031446
  12 C :   -0.098362
  13 H :    0.046295
  14 H :    0.056408
  15 H :    0.048646
  16 S :    0.108175
  17 C :   -0.062173
  18 C :   -0.038379
  19 C :   -0.003926
  20 C :   -0.159379
  21 H :    0.015924
  22 C :   -0.004150
  23 H :    0.048416
  24 H :    0.013650
  25 C :   -0.063064
  26 H :    0.029276
  27 H :    0.029385
  28 C :   -0.071594
  29 H :    0.028863
  30 H :    0.041312
  31 H :    0.042764
  32 H :    0.036257
  33 H :    0.039774
Sum of atomic charges:   -0.0000000

LOEWDIN ATOMIC CHARGES
----------------------
   0 S :    0.419364
   1 C :   -0.187888
   2 C :   -0.062160
   3 C :   -0.079277
   4 C :   -0.204765
   5 H :    0.040333
   6 C :   -0.039051
   7 H :    0.032218
   8 H :    0.047231
   9 C :   -0.054469
  10 H :    0.017999
  11 H :    0.027340
  12 C :   -0.081125
  13 H :    0.029496
  14 H :    0.030279
  15 H :    0.037847
  16 S :    0.437509
  17 C :   -0.189427
  18 C :   -0.065286
  19 C :   -0.062093
  20 C :   -0.210985
  21 H :    0.029511
  22 C :   -0.050197
  23 H :    0.044863
  24 H :    0.031722
  25 C :   -0.039550
  26 H :    0.019718
  27 H :    0.025913
  28 C :   -0.068326
  29 H :    0.026048
  30 H :    0.031184
  31 H :    0.021235
  32 H :    0.018225
  33 H :    0.026566

  Mayer bond orders larger than 0.100000
B(  0-S ,  1-C ) :   1.1381 B(  0-S ,  4-C ) :   1.1657 B(  1-C ,  2-C ) :   1.6026
B(  1-C ,  4-C ) :   0.1002 B(  1-C , 32-H ) :   0.9791 B(  2-C ,  3-C ) :   1.2404
B(  2-C ,  6-C ) :   1.0039 B(  3-C ,  4-C ) :   1.5918 B(  3-C ,  5-H ) :   0.9752
B(  4-C , 20-C ) :   1.0116 B(  6-C ,  7-H ) :   0.9503 B(  6-C ,  8-H ) :   0.9528
B(  6-C ,  9-C ) :   1.0448 B(  9-C , 10-H ) :   0.9612 B(  9-C , 11-H ) :   0.9610
B(  9-C , 12-C ) :   1.0617 B( 12-C , 13-H ) :   0.9760 B( 12-C , 14-H ) :   0.9719
B( 12-C , 15-H ) :   0.9744 B( 16-S , 17-C ) :   1.1364 B( 16-S , 20-C ) :   1.1579
B( 17-C , 18-C ) :   1.6532 B( 17-C , 33-H ) :   0.9710 B( 18-C , 19-C ) :   1.2005
B( 18-C , 21-H ) :   0.9869 B( 19-C , 20-C ) :   1.6031 B( 19-C , 22-C ) :   1.0640
B( 22-C , 23-H ) :   0.9297 B( 22-C , 24-H ) :   0.9297 B( 22-C , 25-C ) :   1.0729
B( 25-C , 26-H ) :   0.9587 B( 25-C , 27-H ) :   0.9567 B( 25-C , 28-C ) :   1.0626
B( 28-C , 29-H ) :   0.9778 B( 28-C , 30-H ) :   0.9766 B( 28-C , 31-H ) :   0.9772

Dispersion correction           -0.014931422
FINAL SINGLE POINT ENERGY     -1339.870468972541

DIPOLE MOMENT
-------------
                                X             Y             Z
Electronic contribution:    -25.34757       1.72480     -12.65487
Nuclear contribution   :     25.73705      -2.00239      13.08564
                        -----------------------------------------
Total Dipole Moment    :      0.38948      -0.27759       0.43077
                        -----------------------------------------
Magnitude (a.u.)       :      0.64367
Magnitude (Debye)      :      1.63608

Rotational constants in cm-1:     0.019866     0.009329     0.007177
Rotational constants in MHz :   595.553368   279.682860   215.161090

                             ****ORCA TERMINATED NORMALLY****
TOTAL RUN TIME: 0 days 0 hours 0 minutes 22 seconds 107 msec
