                         Program Version 4.2.1 -  RELEASE  -
|  1> ! wB97X-D3 SP def2-SVP
|  2> %pal
|  3> nprocs 24
|  4> end
|  5>
|  6> * xyz 0 1
|  7> S 	 -138.913 	 23.685 	 -18.5688
|  8> C 	 -140.162 	 22.5717 	 -18.0513
|  9> C 	 -139.633 	 21.3313 	 -17.7176
| 10> C 	 -138.205 	 21.2506 	 -17.9144
| 11> C 	 -137.678 	 22.5111 	 -18.1894
| 12> H 	 -137.485 	 20.4528 	 -17.7779
| 13> C 	 -140.43 	 20.0903 	 -17.4952
| 14> H 	 -139.907 	 19.2527 	 -17.8324
| 15> H 	 -141.289 	 20.1531 	 -18.0968
| 16> C 	 -140.957 	 19.8895 	 -16.0794
| 17> H 	 -141.311 	 18.875 	 -15.8521
| 18> H 	 -140.187 	 20.1425 	 -15.3334
| 19> C 	 -142.05 	 20.8624 	 -15.7066
| 20> H 	 -142.149 	 21.0864 	 -14.6441
| 21> H 	 -141.9 	 21.8223 	 -16.1507
| 22> H 	 -143.064 	 20.5983 	 -16.0074
| 23> S 	 -135.561 	 23.426 	 -16.6201
| 24> C 	 -133.988 	 23.6072 	 -17.2136
| 25> C 	 -133.88 	 22.9409 	 -18.3847
| 26> C 	 -135.123 	 22.4039 	 -18.8843
| 27> C 	 -136.246 	 22.8233 	 -18.147
| 28> H 	 -132.888 	 22.9777 	 -18.7863
| 29> C 	 -135.313 	 21.6473 	 -20.1826
| 30> H 	 -136.36 	 21.5431 	 -20.2939
| 31> H 	 -135.141 	 20.603 	 -20.1399
| 32> C 	 -134.854 	 22.3862 	 -21.4794
| 33> H 	 -133.827 	 22.7109 	 -21.5673
| 34> H 	 -135.361 	 23.3074 	 -21.5197
| 35> C 	 -135.197 	 21.5431 	 -22.6433
| 36> H 	 -136.262 	 21.2327 	 -22.74
| 37> H 	 -134.609 	 20.6079 	 -22.7009
| 38> H 	 -134.944 	 21.9394 	 -23.6211
| 39> H 	 -141.238 	 22.8365 	 -18.0544
| 40> H 	 -133.23 	 24.0532 	 -16.6299
| 41> *
| 42>
| 43>                          ****END OF INPUT****

CARTESIAN COORDINATES (ANGSTROEM)
---------------------------------
  S    -138.913000   23.685000  -18.568800
  C    -140.162000   22.571700  -18.051300
  C    -139.633000   21.331300  -17.717600
  C    -138.205000   21.250600  -17.914400
  C    -137.678000   22.511100  -18.189400
  H    -137.485000   20.452800  -17.777900
  C    -140.430000   20.090300  -17.495200
  H    -139.907000   19.252700  -17.832400
  H    -141.289000   20.153100  -18.096800
  C    -140.957000   19.889500  -16.079400
  H    -141.311000   18.875000  -15.852100
  H    -140.187000   20.142500  -15.333400
  C    -142.050000   20.862400  -15.706600
  H    -142.149000   21.086400  -14.644100
  H    -141.900000   21.822300  -16.150700
  H    -143.064000   20.598300  -16.007400
  S    -135.561000   23.426000  -16.620100
  C    -133.988000   23.607200  -17.213600
  C    -133.880000   22.940900  -18.384700
  C    -135.123000   22.403900  -18.884300
  C    -136.246000   22.823300  -18.147000
  H    -132.888000   22.977700  -18.786300
  C    -135.313000   21.647300  -20.182600
  H    -136.360000   21.543100  -20.293900
  H    -135.141000   20.603000  -20.139900
  C    -134.854000   22.386200  -21.479400
  H    -133.827000   22.710900  -21.567300
  H    -135.361000   23.307400  -21.519700
  C    -135.197000   21.543100  -22.643300
  H    -136.262000   21.232700  -22.740000
  H    -134.609000   20.607900  -22.700900
  H    -134.944000   21.939400  -23.621100
  H    -141.238000   22.836500  -18.054400
  H    -133.230000   24.053200  -16.629900

 Total Charge           Charge          ....    0
 Multiplicity           Mult            ....    1
 Number of Electrons    NEL             ....  134
 Basis Dimension        Dim             ....  322

ORBITAL ENERGIES
----------------

  NO   OCC          E(Eh)            E(eV)
   0   2.0000     -88.970430     -2421.0085
   1   2.0000     -88.953055     -2420.5357
   2   2.0000     -10.331420      -281.1322
   3   2.0000     -10.327266      -281.0192
   4   2.0000     -10.321421      -280.8601
   5   2.0000     -10.308656      -280.5128
   6   2.0000     -10.307160      -280.4721
   7   2.0000     -10.305724      -280.4330
   8   2.0000     -10.300260      -280.2843
   9   2.0000     -10.288355      -279.9604
  10   2.0000     -10.284636      -279.8592
  11   2.0000     -10.282306      -279.7958
  12   2.0000     -10.281383      -279.7707
  13   2.0000     -10.278819      -279.7009
  14   2.0000     -10.273727      -279.5623
  15   2.0000     -10.269284      -279.4414
  16   2.0000      -8.085141      -220.0079
  17   2.0000      -8.069229      -219.5749
  18   2.0000      -6.043637      -164.4557
  19   2.0000      -6.039631      -164.3467
  20   2.0000      -6.035920      -164.2457
  21   2.0000      -6.027607      -164.0195
  22   2.0000      -6.023566      -163.9096
  23   2.0000      -6.019973      -163.8118
  24   2.0000      -1.007356       -27.4116
  25   2.0000      -0.988194       -26.8901
  26   2.0000      -0.919107       -25.0102
  27   2.0000      -0.911616       -24.8063
  28   2.0000      -0.871740       -23.7213
  29   2.0000      -0.852664       -23.2022
  30   2.0000      -0.846599       -23.0371
  31   2.0000      -0.815344       -22.1866
  32   2.0000      -0.786614       -21.4049
  33   2.0000      -0.772684       -21.0258
  34   2.0000      -0.710426       -19.3317
  35   2.0000      -0.706038       -19.2123
  36   2.0000      -0.697122       -18.9696
  37   2.0000      -0.652300       -17.7500
  38   2.0000      -0.648561       -17.6482
  39   2.0000      -0.620177       -16.8759
  40   2.0000      -0.601385       -16.3645
  41   2.0000      -0.579742       -15.7756
  42   2.0000      -0.559220       -15.2171
  43   2.0000      -0.553703       -15.0670
  44   2.0000      -0.543786       -14.7972
  45   2.0000      -0.532109       -14.4794
  46   2.0000      -0.520186       -14.1550
  47   2.0000      -0.511998       -13.9322
  48   2.0000      -0.505562       -13.7570
  49   2.0000      -0.499137       -13.5822
  50   2.0000      -0.491946       -13.3865
  51   2.0000      -0.481194       -13.0939
  52   2.0000      -0.469820       -12.7845
  53   2.0000      -0.467888       -12.7319
  54   2.0000      -0.455645       -12.3987
  55   2.0000      -0.449136       -12.2216
  56   2.0000      -0.448842       -12.2136
  57   2.0000      -0.437905       -11.9160
  58   2.0000      -0.428721       -11.6661
  59   2.0000      -0.424641       -11.5551
  60   2.0000      -0.415273       -11.3002
  61   2.0000      -0.413493       -11.2517
  62   2.0000      -0.406215       -11.0537
  63   2.0000      -0.338567        -9.2129
  64   2.0000      -0.324594        -8.8326
  65   2.0000      -0.319463        -8.6930
  66   2.0000      -0.310948        -8.4613
  67   0.0000       0.034058         0.9268
  68   0.0000       0.058125         1.5817
  69   0.0000       0.104538         2.8446
  70   0.0000       0.120299         3.2735
  71   0.0000       0.137115         3.7311

MULLIKEN ATOMIC CHARGES
-----------------------
   0 S :    0.131720
   1 C :   -0.133856
   2 C :   -0.094920
   3 C :    0.052951
   4 C :   -0.198109
   5 H :    0.022381
   6 C :    0.123788
   7 H :    0.006919
   8 H :    0.011021
   9 C :   -0.049928
  10 H :    0.032967
  11 H :    0.029680
  12 C :   -0.057454
  13 H :    0.029075
  14 H :   -0.000664
  15 H :    0.018987
  16 S :    0.087499
  17 C :   -0.075979
  18 C :   -0.026134
  19 C :   -0.021110
  20 C :   -0.154445
  21 H :    0.010506
  22 C :    0.088366
  23 H :   -0.007013
  24 H :    0.014539
  25 C :   -0.009288
  26 H :    0.024966
  27 H :    0.016814
  28 C :   -0.069173
  29 H :    0.032265
  30 H :    0.022316
  31 H :    0.019071
  32 H :    0.074494
  33 H :    0.047747
Sum of atomic charges:    0.0000000

LOEWDIN ATOMIC CHARGES
----------------------
   0 S :    0.418143
   1 C :   -0.200166
   2 C :   -0.059798
   3 C :   -0.048339
   4 C :   -0.205367
   5 H :    0.036261
   6 C :   -0.024070
   7 H :    0.025045
   8 H :    0.026640
   9 C :   -0.038921
  10 H :    0.025876
  11 H :    0.028676
  12 C :   -0.070679
  13 H :    0.027866
  14 H :    0.016951
  15 H :    0.019886
  16 S :    0.408197
  17 C :   -0.186033
  18 C :   -0.082117
  19 C :   -0.047429
  20 C :   -0.198219
  21 H :    0.030388
  22 C :   -0.033647
  23 H :    0.028610
  24 H :    0.027590
  25 C :   -0.033931
  26 H :    0.023638
  27 H :    0.022617
  28 C :   -0.073715
  29 H :    0.027423
  30 H :    0.026317
  31 H :    0.022771
  32 H :    0.035228
  33 H :    0.024306

  Mayer bond orders larger than 0.100000
B(  0-S ,  1-C ) :   1.1426 B(  0-S ,  4-C ) :   1.1615 B(  1-C ,  2-C ) :   1.6044
B(  1-C , 32-H ) :   0.9579 B(  2-C ,  3-C ) :   1.2297 B(  2-C ,  6-C ) :   1.0225
B(  3-C ,  4-C ) :   1.5748 B(  3-C ,  5-H ) :   0.9950 B(  4-C , 20-C ) :   1.0217
B(  6-C ,  7-H ) :   0.9393 B(  6-C ,  8-H ) :   0.9418 B(  6-C ,  9-C ) :   1.0621
B(  9-C , 10-H ) :   0.9577 B(  9-C , 11-H ) :   0.9585 B(  9-C , 12-C ) :   1.0722
B( 12-C , 13-H ) :   0.9740 B( 12-C , 14-H ) :   0.9716 B( 12-C , 15-H ) :   0.9727
B( 16-S , 17-C ) :   1.1781 B( 16-S , 20-C ) :   1.1386 B( 17-C , 18-C ) :   1.5931
B( 17-C , 20-C ) :   0.1015 B( 17-C , 33-H ) :   0.9743 B( 18-C , 19-C ) :   1.2103
B( 18-C , 21-H ) :   1.0068 B( 19-C , 20-C ) :   1.5791 B( 19-C , 22-C ) :   1.0533
B( 22-C , 23-H ) :   0.9202 B( 22-C , 24-H ) :   0.9311 B( 22-C , 25-C ) :   1.0478
B( 25-C , 26-H ) :   0.9550 B( 25-C , 27-H ) :   0.9492 B( 25-C , 28-C ) :   1.0963
B( 28-C , 29-H ) :   0.9732 B( 28-C , 30-H ) :   0.9704 B( 28-C , 31-H ) :   0.9692

Dispersion correction           -0.014042193
FINAL SINGLE POINT ENERGY     -1339.855395983800

DIPOLE MOMENT
-------------
                                X             Y             Z
Electronic contribution:      7.52087      14.87148       8.58888
Nuclear contribution   :     -7.53989     -15.34016      -8.82311
                        -----------------------------------------
Total Dipole Moment    :     -0.01902      -0.46869      -0.23423
                        -----------------------------------------
Magnitude (a.u.)       :      0.52430
Magnitude (Debye)      :      1.33267

Rotational constants in cm-1:     0.020495     0.007667     0.006546
Rotational constants in MHz :   614.428650   229.859518   196.229871

                             ****ORCA TERMINATED NORMALLY****
TOTAL RUN TIME: 0 days 0 hours 0 minutes 21 seconds 165 msec
