                         Program Version 4.2.1 -  RELEASE  -
|  1> ! wB97X-D3 SP def2-SVP
|  2> %pal
|  3> nprocs 24
|  4> end
|  5>
|  6> * xyz 0 1
|  7> S 	 -118.861 	 34.309 	 -112.538
|  8> C 	 -119.015 	 32.9134 	 -113.637
|  9> C 	 -118.939 	 33.3996 	 -114.93
| 10> C 	 -119.098 	 34.831 	 -115.063
| 11> C 	 -119.161 	 35.4646 	 -113.833
| 12> H 	 -118.912 	 35.3784 	 -115.957
| 13> C 	 -118.544 	 32.5789 	 -116.086
| 14> H 	 -119.135 	 32.7753 	 -116.962
| 15> H 	 -118.671 	 31.5101 	 -115.851
| 16> C 	 -117.017 	 32.5621 	 -116.428
| 17> H 	 -116.849 	 33.4787 	 -117.024
| 18> H 	 -116.425 	 32.637 	 -115.51
| 19> C 	 -116.845 	 31.3281 	 -117.353
| 20> H 	 -117.288 	 31.5389 	 -118.288
| 21> H 	 -115.866 	 31.1093 	 -117.467
| 22> H 	 -117.355 	 30.3867 	 -117.038
| 23> S 	 -118.085 	 37.832 	 -112.973
| 24> C 	 -118.883 	 39.3437 	 -113.227
| 25> C 	 -120.142 	 39.1248 	 -113.67
| 26> C 	 -120.448 	 37.7391 	 -113.974
| 27> C 	 -119.351 	 36.9314 	 -113.666
| 28> H 	 -120.735 	 39.945 	 -113.798
| 29> C 	 -121.859 	 37.3463 	 -114.251
| 30> H 	 -121.784 	 36.2557 	 -114.359
| 31> H 	 -122.326 	 37.8029 	 -115.106
| 32> C 	 -122.869 	 37.5236 	 -113.038
| 33> H 	 -122.93 	 38.53 	 -112.852
| 34> H 	 -122.433 	 37.1962 	 -112.131
| 35> C 	 -124.294 	 36.9576 	 -113.365
| 36> H 	 -124.169 	 35.9509 	 -113.628
| 37> H 	 -124.785 	 37.5786 	 -114.098
| 38> H 	 -124.91 	 36.9293 	 -112.471
| 39> H 	 -118.979 	 31.8342 	 -113.375
| 40> H 	 -118.503 	 40.2547 	 -112.829
| 41> *
| 42>
| 43>                          ****END OF INPUT****

CARTESIAN COORDINATES (ANGSTROEM)
---------------------------------
  S    -118.861000   34.309000  -112.538000
  C    -119.015000   32.913400  -113.637000
  C    -118.939000   33.399600  -114.930000
  C    -119.098000   34.831000  -115.063000
  C    -119.161000   35.464600  -113.833000
  H    -118.912000   35.378400  -115.957000
  C    -118.544000   32.578900  -116.086000
  H    -119.135000   32.775300  -116.962000
  H    -118.671000   31.510100  -115.851000
  C    -117.017000   32.562100  -116.428000
  H    -116.849000   33.478700  -117.024000
  H    -116.425000   32.637000  -115.510000
  C    -116.845000   31.328100  -117.353000
  H    -117.288000   31.538900  -118.288000
  H    -115.866000   31.109300  -117.467000
  H    -117.355000   30.386700  -117.038000
  S    -118.085000   37.832000  -112.973000
  C    -118.883000   39.343700  -113.227000
  C    -120.142000   39.124800  -113.670000
  C    -120.448000   37.739100  -113.974000
  C    -119.351000   36.931400  -113.666000
  H    -120.735000   39.945000  -113.798000
  C    -121.859000   37.346300  -114.251000
  H    -121.784000   36.255700  -114.359000
  H    -122.326000   37.802900  -115.106000
  C    -122.869000   37.523600  -113.038000
  H    -122.930000   38.530000  -112.852000
  H    -122.433000   37.196200  -112.131000
  C    -124.294000   36.957600  -113.365000
  H    -124.169000   35.950900  -113.628000
  H    -124.785000   37.578600  -114.098000
  H    -124.910000   36.929300  -112.471000
  H    -118.979000   31.834200  -113.375000
  H    -118.503000   40.254700  -112.829000

 Total Charge           Charge          ....    0
 Multiplicity           Mult            ....    1
 Number of Electrons    NEL             ....  134
 Basis Dimension        Dim             ....  322

ORBITAL ENERGIES
----------------

  NO   OCC          E(Eh)            E(eV)
   0   2.0000     -88.965860     -2420.8841
   1   2.0000     -88.961253     -2420.7587
   2   2.0000     -10.333992      -281.2022
   3   2.0000     -10.327107      -281.0149
   4   2.0000     -10.318923      -280.7922
   5   2.0000     -10.309454      -280.5345
   6   2.0000     -10.303569      -280.3744
   7   2.0000     -10.297999      -280.2228
   8   2.0000     -10.292007      -280.0598
   9   2.0000     -10.291501      -280.0460
  10   2.0000     -10.286899      -279.9207
  11   2.0000     -10.284292      -279.8498
  12   2.0000     -10.284005      -279.8420
  13   2.0000     -10.275629      -279.6141
  14   2.0000     -10.273343      -279.5519
  15   2.0000     -10.272042      -279.5165
  16   2.0000      -8.079822      -219.8631
  17   2.0000      -8.077659      -219.8043
  18   2.0000      -6.038559      -164.3175
  19   2.0000      -6.036106      -164.2508
  20   2.0000      -6.034531      -164.2079
  21   2.0000      -6.031850      -164.1350
  22   2.0000      -6.030275      -164.0921
  23   2.0000      -6.028475      -164.0431
  24   2.0000      -1.008751       -27.4495
  25   2.0000      -0.984742       -26.7962
  26   2.0000      -0.912553       -24.8318
  27   2.0000      -0.903489       -24.5852
  28   2.0000      -0.870280       -23.6815
  29   2.0000      -0.848917       -23.1002
  30   2.0000      -0.845326       -23.0025
  31   2.0000      -0.819187       -22.2912
  32   2.0000      -0.777949       -21.1691
  33   2.0000      -0.769047       -20.9268
  34   2.0000      -0.710771       -19.3411
  35   2.0000      -0.703934       -19.1550
  36   2.0000      -0.697212       -18.9721
  37   2.0000      -0.663418       -18.0525
  38   2.0000      -0.639265       -17.3953
  39   2.0000      -0.620999       -16.8983
  40   2.0000      -0.598135       -16.2761
  41   2.0000      -0.577717       -15.7205
  42   2.0000      -0.566977       -15.4282
  43   2.0000      -0.559424       -15.2227
  44   2.0000      -0.528603       -14.3840
  45   2.0000      -0.520412       -14.1611
  46   2.0000      -0.518118       -14.0987
  47   2.0000      -0.512838       -13.9550
  48   2.0000      -0.505858       -13.7651
  49   2.0000      -0.499454       -13.5908
  50   2.0000      -0.496993       -13.5239
  51   2.0000      -0.477540       -12.9945
  52   2.0000      -0.469504       -12.7758
  53   2.0000      -0.464509       -12.6399
  54   2.0000      -0.458965       -12.4891
  55   2.0000      -0.449035       -12.2189
  56   2.0000      -0.442328       -12.0364
  57   2.0000      -0.439221       -11.9518
  58   2.0000      -0.434737       -11.8298
  59   2.0000      -0.424319       -11.5463
  60   2.0000      -0.421786       -11.4774
  61   2.0000      -0.414780       -11.2867
  62   2.0000      -0.411896       -11.2082
  63   2.0000      -0.343572        -9.3491
  64   2.0000      -0.324876        -8.8403
  65   2.0000      -0.323453        -8.8016
  66   2.0000      -0.299140        -8.1400
  67   0.0000       0.036105         0.9825
  68   0.0000       0.062801         1.7089
  69   0.0000       0.106612         2.9010
  70   0.0000       0.121244         3.2992
  71   0.0000       0.135850         3.6967

MULLIKEN ATOMIC CHARGES
-----------------------
   0 S :    0.099217
   1 C :   -0.128600
   2 C :   -0.082526
   3 C :    0.055876
   4 C :   -0.142915
   5 H :    0.016103
   6 C :    0.017675
   7 H :    0.026318
   8 H :    0.006406
   9 C :   -0.073969
  10 H :    0.033269
  11 H :    0.043560
  12 C :   -0.002685
  13 H :    0.019702
  14 H :    0.012756
  15 H :    0.029155
  16 S :    0.103468
  17 C :   -0.079425
  18 C :   -0.006379
  19 C :   -0.017259
  20 C :   -0.173704
  21 H :   -0.015309
  22 C :    0.053463
  23 H :    0.029402
  24 H :    0.024911
  25 C :   -0.050385
  26 H :   -0.002883
  27 H :    0.017351
  28 C :   -0.021054
  29 H :    0.025709
  30 H :    0.035132
  31 H :    0.031212
  32 H :    0.066819
  33 H :    0.049591
Sum of atomic charges:   -0.0000000

LOEWDIN ATOMIC CHARGES
----------------------
   0 S :    0.383823
   1 C :   -0.196697
   2 C :   -0.065394
   3 C :   -0.058443
   4 C :   -0.187153
   5 H :    0.030938
   6 C :   -0.039276
   7 H :    0.025105
   8 H :    0.026980
   9 C :   -0.028920
  10 H :    0.026207
  11 H :    0.026250
  12 C :   -0.053534
  13 H :    0.024289
  14 H :    0.010296
  15 H :    0.029172
  16 S :    0.428766
  17 C :   -0.184982
  18 C :   -0.058526
  19 C :   -0.055884
  20 C :   -0.213184
  21 H :    0.015385
  22 C :   -0.031078
  23 H :    0.032702
  24 H :    0.026772
  25 C :   -0.026033
  26 H :    0.006475
  27 H :    0.020192
  28 C :   -0.054166
  29 H :    0.019674
  30 H :    0.025657
  31 H :    0.029166
  32 H :    0.040550
  33 H :    0.024870

  Mayer bond orders larger than 0.100000
B(  0-S ,  1-C ) :   1.1137 B(  0-S ,  4-C ) :   1.1505 B(  1-C ,  2-C ) :   1.6125
B(  1-C , 32-H ) :   0.9657 B(  2-C ,  3-C ) :   1.2215 B(  2-C ,  6-C ) :   1.0547
B(  3-C ,  4-C ) :   1.5757 B(  3-C ,  5-H ) :   0.9981 B(  4-C , 20-C ) :   1.0003
B(  6-C ,  7-H ) :   0.9394 B(  6-C ,  8-H ) :   0.9467 B(  6-C ,  9-C ) :   1.0397
B(  9-C , 10-H ) :   0.9538 B(  9-C , 11-H ) :   0.9622 B(  9-C , 12-C ) :   1.0724
B( 12-C , 13-H ) :   0.9716 B( 12-C , 14-H ) :   0.9738 B( 12-C , 15-H ) :   0.9764
B( 16-S , 17-C ) :   1.1526 B( 16-S , 20-C ) :   1.1701 B( 17-C , 18-C ) :   1.6151
B( 17-C , 33-H ) :   0.9716 B( 18-C , 19-C ) :   1.2169 B( 18-C , 21-H ) :   1.0065
B( 19-C , 20-C ) :   1.5861 B( 19-C , 22-C ) :   1.0692 B( 22-C , 23-H ) :   0.9341
B( 22-C , 24-H ) :   0.9337 B( 22-C , 25-C ) :   1.0559 B( 25-C , 26-H ) :   0.9525
B( 25-C , 27-H ) :   0.9555 B( 25-C , 28-C ) :   1.0787 B( 28-C , 29-H ) :   0.9793
B( 28-C , 30-H ) :   0.9761 B( 28-C , 31-H ) :   0.9736

Dispersion correction           -0.013695252
FINAL SINGLE POINT ENERGY     -1339.851861988185

DIPOLE MOMENT
-------------
                                X             Y             Z
Electronic contribution:     11.14735      10.18065      14.35324
Nuclear contribution   :    -11.31069     -10.21777     -14.74564
                        -----------------------------------------
Total Dipole Moment    :     -0.16334      -0.03711      -0.39240
                        -----------------------------------------
Magnitude (a.u.)       :      0.42665
Magnitude (Debye)      :      1.08447

Rotational constants in cm-1:     0.020100     0.007339     0.006403
Rotational constants in MHz :   602.594189   220.024023   191.943898

                             ****ORCA TERMINATED NORMALLY****
TOTAL RUN TIME: 0 days 0 hours 0 minutes 21 seconds 189 msec
