                         Program Version 4.2.1 -  RELEASE  -
|  1> ! wB97X-D3 SP def2-SVP
|  2> %pal
|  3> nprocs 24
|  4> end
|  5>
|  6> * xyz 0 1
|  7> S 	 -33.7313 	 9.30185 	 9.00771
|  8> C 	 -33.9234 	 11.0621 	 8.83779
|  9> C 	 -33.7237 	 11.6036 	 10.0948
| 10> C 	 -33.2357 	 10.657 	 11.0827
| 11> C 	 -33.1113 	 9.3799 	 10.6423
| 12> H 	 -32.8817 	 10.9332 	 12.015
| 13> C 	 -33.8033 	 13.0357 	 10.5617
| 14> H 	 -34.6621 	 13.4563 	 10.0093
| 15> H 	 -32.9378 	 13.5449 	 10.1197
| 16> C 	 -34.0646 	 13.3344 	 12.0107
| 17> H 	 -34.7856 	 12.6657 	 12.4116
| 18> H 	 -33.167 	 13.113 	 12.6084
| 19> C 	 -34.3872 	 14.8196 	 12.3322
| 20> H 	 -34.6571 	 14.9892 	 13.3713
| 21> H 	 -33.5843 	 15.4891 	 12.185
| 22> H 	 -35.1799 	 15.1788 	 11.6697
| 23> S 	 -31.1111 	 7.54412 	 10.5423
| 24> C 	 -30.7785 	 6.53912 	 11.8874
| 25> C 	 -31.7941 	 6.61581 	 12.8393
| 26> C 	 -32.7539 	 7.62807 	 12.5526
| 27> C 	 -32.4828 	 8.22356 	 11.3004
| 28> H 	 -31.7622 	 6.11816 	 13.8116
| 29> C 	 -33.8367 	 7.88724 	 13.5295
| 30> H 	 -33.3854 	 8.56947 	 14.2193
| 31> H 	 -34.0919 	 7.00861 	 14.0272
| 32> C 	 -35.115 	 8.50937 	 13.0394
| 33> H 	 -35.4561 	 7.98553 	 12.1348
| 34> H 	 -34.8456 	 9.54164 	 12.7992
| 35> C 	 -36.3754 	 8.39207 	 13.9913
| 36> H 	 -36.1261 	 8.65781 	 15.0051
| 37> H 	 -36.7901 	 7.35571 	 14.0176
| 38> H 	 -37.2155 	 9.05751 	 13.5789
| 39> H 	 -34.2721 	 11.5887 	 8.0001
| 40> H 	 -29.9383 	 5.87242 	 11.9403
| 41> *
| 42>
| 43>                          ****END OF INPUT****

CARTESIAN COORDINATES (ANGSTROEM)
---------------------------------
  S    -33.731300    9.301850    9.007710
  C    -33.923400   11.062100    8.837790
  C    -33.723700   11.603600   10.094800
  C    -33.235700   10.657000   11.082700
  C    -33.111300    9.379900   10.642300
  H    -32.881700   10.933200   12.015000
  C    -33.803300   13.035700   10.561700
  H    -34.662100   13.456300   10.009300
  H    -32.937800   13.544900   10.119700
  C    -34.064600   13.334400   12.010700
  H    -34.785600   12.665700   12.411600
  H    -33.167000   13.113000   12.608400
  C    -34.387200   14.819600   12.332200
  H    -34.657100   14.989200   13.371300
  H    -33.584300   15.489100   12.185000
  H    -35.179900   15.178800   11.669700
  S    -31.111100    7.544120   10.542300
  C    -30.778500    6.539120   11.887400
  C    -31.794100    6.615810   12.839300
  C    -32.753900    7.628070   12.552600
  C    -32.482800    8.223560   11.300400
  H    -31.762200    6.118160   13.811600
  C    -33.836700    7.887240   13.529500
  H    -33.385400    8.569470   14.219300
  H    -34.091900    7.008610   14.027200
  C    -35.115000    8.509370   13.039400
  H    -35.456100    7.985530   12.134800
  H    -34.845600    9.541640   12.799200
  C    -36.375400    8.392070   13.991300
  H    -36.126100    8.657810   15.005100
  H    -36.790100    7.355710   14.017600
  H    -37.215500    9.057510   13.578900
  H    -34.272100   11.588700    8.000100
  H    -29.938300    5.872420   11.940300

 Total Charge           Charge          ....    0
 Multiplicity           Mult            ....    1
 Number of Electrons    NEL             ....  134
 Basis Dimension        Dim             ....  322

ORBITAL ENERGIES
----------------

  NO   OCC          E(Eh)            E(eV)
   0   2.0000     -88.967861     -2420.9386
   1   2.0000     -88.960096     -2420.7273
   2   2.0000     -10.327060      -281.0136
   3   2.0000     -10.325322      -280.9663
   4   2.0000     -10.315933      -280.7108
   5   2.0000     -10.312331      -280.6128
   6   2.0000     -10.303763      -280.3796
   7   2.0000     -10.301780      -280.3257
   8   2.0000     -10.293578      -280.1025
   9   2.0000     -10.290557      -280.0203
  10   2.0000     -10.288084      -279.9530
  11   2.0000     -10.286422      -279.9078
  12   2.0000     -10.282786      -279.8088
  13   2.0000     -10.281218      -279.7662
  14   2.0000     -10.280981      -279.7597
  15   2.0000     -10.278520      -279.6928
  16   2.0000      -8.083808      -219.9716
  17   2.0000      -8.074449      -219.7169
  18   2.0000      -6.042096      -164.4138
  19   2.0000      -6.038014      -164.3027
  20   2.0000      -6.034847      -164.2165
  21   2.0000      -6.033161      -164.1707
  22   2.0000      -6.028945      -164.0559
  23   2.0000      -6.025069      -163.9505
  24   2.0000      -1.010143       -27.4874
  25   2.0000      -0.985250       -26.8100
  26   2.0000      -0.915375       -24.9086
  27   2.0000      -0.913868       -24.8676
  28   2.0000      -0.870019       -23.6744
  29   2.0000      -0.849347       -23.1119
  30   2.0000      -0.842386       -22.9225
  31   2.0000      -0.815771       -22.1983
  32   2.0000      -0.782979       -21.3059
  33   2.0000      -0.774197       -21.0670
  34   2.0000      -0.715179       -19.4610
  35   2.0000      -0.705492       -19.1974
  36   2.0000      -0.685318       -18.6484
  37   2.0000      -0.661781       -18.0080
  38   2.0000      -0.643298       -17.5050
  39   2.0000      -0.622763       -16.9462
  40   2.0000      -0.598520       -16.2866
  41   2.0000      -0.576918       -15.6987
  42   2.0000      -0.569875       -15.5071
  43   2.0000      -0.564446       -15.3594
  44   2.0000      -0.527806       -14.3623
  45   2.0000      -0.521000       -14.1771
  46   2.0000      -0.515954       -14.0398
  47   2.0000      -0.513391       -13.9701
  48   2.0000      -0.506773       -13.7900
  49   2.0000      -0.499025       -13.5792
  50   2.0000      -0.492905       -13.4126
  51   2.0000      -0.487289       -13.2598
  52   2.0000      -0.470985       -12.8162
  53   2.0000      -0.469526       -12.7765
  54   2.0000      -0.457992       -12.4626
  55   2.0000      -0.453815       -12.3489
  56   2.0000      -0.448042       -12.1919
  57   2.0000      -0.440508       -11.9868
  58   2.0000      -0.434691       -11.8285
  59   2.0000      -0.422189       -11.4884
  60   2.0000      -0.415621       -11.3096
  61   2.0000      -0.413060       -11.2399
  62   2.0000      -0.406788       -11.0693
  63   2.0000      -0.343219        -9.3395
  64   2.0000      -0.329192        -8.9578
  65   2.0000      -0.321727        -8.7546
  66   2.0000      -0.296842        -8.0775
  67   0.0000       0.035746         0.9727
  68   0.0000       0.067857         1.8465
  69   0.0000       0.118345         3.2203
  70   0.0000       0.126440         3.4406
  71   0.0000       0.132428         3.6036

MULLIKEN ATOMIC CHARGES
-----------------------
   0 S :    0.088498
   1 C :   -0.106424
   2 C :   -0.093612
   3 C :    0.052496
   4 C :   -0.137404
   5 H :   -0.023509
   6 C :    0.053044
   7 H :    0.017795
   8 H :    0.046827
   9 C :   -0.082743
  10 H :    0.026979
  11 H :    0.031646
  12 C :   -0.016938
  13 H :    0.032384
  14 H :    0.019814
  15 H :    0.025713
  16 S :    0.140291
  17 C :   -0.089969
  18 C :   -0.043737
  19 C :   -0.043009
  20 C :   -0.175937
  21 H :    0.023657
  22 C :    0.120214
  23 H :    0.029170
  24 H :    0.003725
  25 C :   -0.103509
  26 H :    0.036388
  27 H :    0.034390
  28 C :   -0.065991
  29 H :    0.026092
  30 H :    0.039730
  31 H :    0.050596
  32 H :    0.028905
  33 H :    0.054430
Sum of atomic charges:    0.0000000

LOEWDIN ATOMIC CHARGES
----------------------
   0 S :    0.386776
   1 C :   -0.187798
   2 C :   -0.055622
   3 C :   -0.065769
   4 C :   -0.184723
   5 H :    0.015249
   6 C :   -0.041254
   7 H :    0.031563
   8 H :    0.038340
   9 C :   -0.042874
  10 H :    0.022349
  11 H :    0.024950
  12 C :   -0.058047
  13 H :    0.029152
  14 H :    0.020016
  15 H :    0.024464
  16 S :    0.455804
  17 C :   -0.195567
  18 C :   -0.073356
  19 C :   -0.046716
  20 C :   -0.225108
  21 H :    0.033344
  22 C :   -0.031668
  23 H :    0.036633
  24 H :    0.023365
  25 C :   -0.043641
  26 H :    0.027761
  27 H :    0.022982
  28 C :   -0.070919
  29 H :    0.015943
  30 H :    0.027846
  31 H :    0.038450
  32 H :    0.021517
  33 H :    0.026560

  Mayer bond orders larger than 0.100000
B(  0-S ,  1-C ) :   1.1115 B(  0-S ,  4-C ) :   1.1511 B(  1-C ,  2-C ) :   1.6214
B(  1-C , 32-H ) :   0.9842 B(  2-C ,  3-C ) :   1.2273 B(  2-C ,  6-C ) :   1.0094
B(  3-C ,  4-C ) :   1.5970 B(  3-C ,  5-H ) :   0.9977 B(  4-C , 20-C ) :   1.0047
B(  6-C ,  7-H ) :   0.9378 B(  6-C ,  8-H ) :   0.9335 B(  6-C ,  9-C ) :   1.0802
B(  9-C , 10-H ) :   0.9583 B(  9-C , 11-H ) :   0.9381 B(  9-C , 12-C ) :   1.0828
B( 12-C , 13-H ) :   0.9730 B( 12-C , 14-H ) :   0.9747 B( 12-C , 15-H ) :   0.9752
B( 16-S , 17-C ) :   1.1869 B( 16-S , 20-C ) :   1.1728 B( 17-C , 18-C ) :   1.5572
B( 17-C , 20-C ) :   0.1006 B( 17-C , 33-H ) :   0.9714 B( 18-C , 19-C ) :   1.2936
B( 18-C , 21-H ) :   0.9854 B( 19-C , 20-C ) :   1.5412 B( 19-C , 22-C ) :   1.0440
B( 22-C , 23-H ) :   0.9083 B( 22-C , 24-H ) :   0.9329 B( 22-C , 25-C ) :   1.0758
B( 25-C , 26-H ) :   0.9605 B( 25-C , 27-H ) :   0.9434 B( 25-C , 28-C ) :   1.0781
B( 28-C , 29-H ) :   0.9761 B( 28-C , 30-H ) :   0.9751 B( 28-C , 31-H ) :   0.9749

Dispersion correction           -0.014498967
FINAL SINGLE POINT ENERGY     -1339.876135111323

DIPOLE MOMENT
-------------
                                X             Y             Z
Electronic contribution:     15.45034     -18.05433     -18.65913
Nuclear contribution   :    -15.48822      18.43778      19.27617
                        -----------------------------------------
Total Dipole Moment    :     -0.03788       0.38345       0.61704
                        -----------------------------------------
Magnitude (a.u.)       :      0.72747
Magnitude (Debye)      :      1.84908

Rotational constants in cm-1:     0.017236     0.009119     0.007328
Rotational constants in MHz :   516.736291   273.390703   219.683991

                             ****ORCA TERMINATED NORMALLY****
TOTAL RUN TIME: 0 days 0 hours 0 minutes 21 seconds 37 msec
