                         Program Version 4.2.1 -  RELEASE  -
|  1> ! wB97X-D3 SP def2-SVP
|  2> %pal
|  3> nprocs 24
|  4> end
|  5>
|  6> * xyz 0 1
|  7> S 	 -120.099 	 65.7078 	 -63.4007
|  8> C 	 -120.197 	 64.0162 	 -63.6228
|  9> C 	 -119.261 	 63.4182 	 -62.7731
| 10> C 	 -118.462 	 64.3345 	 -62.0698
| 11> C 	 -118.906 	 65.6833 	 -62.143
| 12> H 	 -117.704 	 64.0112 	 -61.3751
| 13> C 	 -119.146 	 61.9161 	 -62.5906
| 14> H 	 -119.766 	 61.7306 	 -61.7324
| 15> H 	 -118.208 	 61.3967 	 -62.4569
| 16> C 	 -119.758 	 61.0669 	 -63.7626
| 17> H 	 -120.823 	 60.9651 	 -63.5732
| 18> H 	 -119.647 	 61.5662 	 -64.7786
| 19> C 	 -119.192 	 59.6022 	 -63.8289
| 20> H 	 -119.673 	 58.8907 	 -64.4743
| 21> H 	 -118.125 	 59.7222 	 -64.1099
| 22> H 	 -119.181 	 59.1127 	 -62.8678
| 23> S 	 -116.834 	 67.4566 	 -61.4606
| 24> C 	 -117.019 	 68.6259 	 -60.2185
| 25> C 	 -118.438 	 68.737 	 -59.9927
| 26> C 	 -119.27 	 67.6861 	 -60.6009
| 27> C 	 -118.492 	 66.8607 	 -61.4116
| 28> H 	 -118.799 	 69.4819 	 -59.3501
| 29> C 	 -120.747 	 67.5187 	 -60.338
| 30> H 	 -121.228 	 67.4187 	 -61.3124
| 31> H 	 -121.275 	 68.395 	 -59.9243
| 32> C 	 -121.105 	 66.2401 	 -59.5406
| 33> H 	 -121.252 	 65.4232 	 -60.2747
| 34> H 	 -122.039 	 66.229 	 -59.0852
| 35> C 	 -120.073 	 65.8512 	 -58.4109
| 36> H 	 -120.012 	 66.601 	 -57.6219
| 37> H 	 -119.091 	 65.5324 	 -58.7763
| 38> H 	 -120.376 	 64.926 	 -57.9574
| 39> H 	 -120.926 	 63.4289 	 -64.1542
| 40> H 	 -116.154 	 69.1824 	 -59.6983
| 41> *
| 42>
| 43>                          ****END OF INPUT****

CARTESIAN COORDINATES (ANGSTROEM)
---------------------------------
  S    -120.099000   65.707800  -63.400700
  C    -120.197000   64.016200  -63.622800
  C    -119.261000   63.418200  -62.773100
  C    -118.462000   64.334500  -62.069800
  C    -118.906000   65.683300  -62.143000
  H    -117.704000   64.011200  -61.375100
  C    -119.146000   61.916100  -62.590600
  H    -119.766000   61.730600  -61.732400
  H    -118.208000   61.396700  -62.456900
  C    -119.758000   61.066900  -63.762600
  H    -120.823000   60.965100  -63.573200
  H    -119.647000   61.566200  -64.778600
  C    -119.192000   59.602200  -63.828900
  H    -119.673000   58.890700  -64.474300
  H    -118.125000   59.722200  -64.109900
  H    -119.181000   59.112700  -62.867800
  S    -116.834000   67.456600  -61.460600
  C    -117.019000   68.625900  -60.218500
  C    -118.438000   68.737000  -59.992700
  C    -119.270000   67.686100  -60.600900
  C    -118.492000   66.860700  -61.411600
  H    -118.799000   69.481900  -59.350100
  C    -120.747000   67.518700  -60.338000
  H    -121.228000   67.418700  -61.312400
  H    -121.275000   68.395000  -59.924300
  C    -121.105000   66.240100  -59.540600
  H    -121.252000   65.423200  -60.274700
  H    -122.039000   66.229000  -59.085200
  C    -120.073000   65.851200  -58.410900
  H    -120.012000   66.601000  -57.621900
  H    -119.091000   65.532400  -58.776300
  H    -120.376000   64.926000  -57.957400
  H    -120.926000   63.428900  -64.154200
  H    -116.154000   69.182400  -59.698300

 Total Charge           Charge          ....    0
 Multiplicity           Mult            ....    1
 Number of Electrons    NEL             ....  134
 Basis Dimension        Dim             ....  322

ORBITAL ENERGIES
----------------

  NO   OCC          E(Eh)            E(eV)
   0   2.0000     -88.968175     -2420.9471
   1   2.0000     -88.964990     -2420.8605
   2   2.0000     -10.333378      -281.1855
   3   2.0000     -10.330549      -281.1085
   4   2.0000     -10.327696      -281.0309
   5   2.0000     -10.313359      -280.6408
   6   2.0000     -10.310443      -280.5614
   7   2.0000     -10.302272      -280.3391
   8   2.0000     -10.299404      -280.2610
   9   2.0000     -10.295567      -280.1566
  10   2.0000     -10.295473      -280.1541
  11   2.0000     -10.293570      -280.1023
  12   2.0000     -10.292031      -280.0604
  13   2.0000     -10.282281      -279.7951
  14   2.0000     -10.282186      -279.7925
  15   2.0000     -10.271527      -279.5025
  16   2.0000      -8.083087      -219.9520
  17   2.0000      -8.079818      -219.8630
  18   2.0000      -6.041456      -164.3964
  19   2.0000      -6.038285      -164.3101
  20   2.0000      -6.037216      -164.2810
  21   2.0000      -6.034321      -164.2022
  22   2.0000      -6.034087      -164.1959
  23   2.0000      -6.030817      -164.1069
  24   2.0000      -1.008430       -27.4408
  25   2.0000      -0.984793       -26.7976
  26   2.0000      -0.909678       -24.7536
  27   2.0000      -0.902205       -24.5502
  28   2.0000      -0.865562       -23.5531
  29   2.0000      -0.849104       -23.1053
  30   2.0000      -0.838892       -22.8274
  31   2.0000      -0.808799       -22.0085
  32   2.0000      -0.783802       -21.3283
  33   2.0000      -0.773077       -21.0365
  34   2.0000      -0.711452       -19.3596
  35   2.0000      -0.702155       -19.1066
  36   2.0000      -0.687938       -18.7198
  37   2.0000      -0.661065       -17.9885
  38   2.0000      -0.640152       -17.4194
  39   2.0000      -0.612976       -16.6799
  40   2.0000      -0.587859       -15.9965
  41   2.0000      -0.577737       -15.7210
  42   2.0000      -0.569200       -15.4887
  43   2.0000      -0.554321       -15.0838
  44   2.0000      -0.542784       -14.7699
  45   2.0000      -0.521995       -14.2042
  46   2.0000      -0.514201       -13.9921
  47   2.0000      -0.512031       -13.9331
  48   2.0000      -0.506294       -13.7770
  49   2.0000      -0.498630       -13.5684
  50   2.0000      -0.489581       -13.3222
  51   2.0000      -0.478262       -13.0142
  52   2.0000      -0.473448       -12.8832
  53   2.0000      -0.465315       -12.6619
  54   2.0000      -0.459352       -12.4996
  55   2.0000      -0.444223       -12.0879
  56   2.0000      -0.434822       -11.8321
  57   2.0000      -0.431884       -11.7522
  58   2.0000      -0.429829       -11.6962
  59   2.0000      -0.420794       -11.4504
  60   2.0000      -0.419515       -11.4156
  61   2.0000      -0.415357       -11.3024
  62   2.0000      -0.408053       -11.1037
  63   2.0000      -0.337256        -9.1772
  64   2.0000      -0.329562        -8.9678
  65   2.0000      -0.323390        -8.7999
  66   2.0000      -0.297669        -8.1000
  67   0.0000       0.021952         0.5973
  68   0.0000       0.069869         1.9012
  69   0.0000       0.107506         2.9254
  70   0.0000       0.124746         3.3945
  71   0.0000       0.138402         3.7661

MULLIKEN ATOMIC CHARGES
-----------------------
   0 S :    0.130115
   1 C :   -0.109138
   2 C :   -0.122816
   3 C :    0.053444
   4 C :   -0.183955
   5 H :    0.008142
   6 C :    0.083132
   7 H :    0.039622
   8 H :    0.030377
   9 C :   -0.151530
  10 H :    0.031398
  11 H :    0.054138
  12 C :   -0.057503
  13 H :    0.037484
  14 H :    0.039336
  15 H :    0.026135
  16 S :    0.124297
  17 C :   -0.143348
  18 C :   -0.024821
  19 C :   -0.038141
  20 C :   -0.151612
  21 H :    0.001517
  22 C :    0.089182
  23 H :    0.027703
  24 H :    0.026083
  25 C :   -0.067364
  26 H :    0.028923
  27 H :    0.012570
  28 C :   -0.033451
  29 H :    0.034227
  30 H :    0.032802
  31 H :    0.014397
  32 H :    0.053140
  33 H :    0.105514
Sum of atomic charges:   -0.0000000

LOEWDIN ATOMIC CHARGES
----------------------
   0 S :    0.450353
   1 C :   -0.219550
   2 C :   -0.066581
   3 C :   -0.058224
   4 C :   -0.203514
   5 H :    0.029499
   6 C :   -0.030738
   7 H :    0.037810
   8 H :    0.029540
   9 C :   -0.048658
  10 H :    0.017583
  11 H :    0.029884
  12 C :   -0.069957
  13 H :    0.025292
  14 H :    0.028801
  15 H :    0.022380
  16 S :    0.422754
  17 C :   -0.215771
  18 C :   -0.067683
  19 C :   -0.043638
  20 C :   -0.211700
  21 H :    0.016656
  22 C :   -0.039626
  23 H :    0.029414
  24 H :    0.033433
  25 C :   -0.036505
  26 H :    0.027326
  27 H :    0.015897
  28 C :   -0.065678
  29 H :    0.024057
  30 H :    0.026562
  31 H :    0.022083
  32 H :    0.031990
  33 H :    0.056509

  Mayer bond orders larger than 0.100000
B(  0-S ,  1-C ) :   1.1625 B(  0-S ,  4-C ) :   1.1826 B(  1-C ,  2-C ) :   1.5501
B(  1-C ,  4-C ) :   0.1119 B(  1-C , 32-H ) :   0.9634 B(  2-C ,  3-C ) :   1.3242
B(  2-C ,  6-C ) :   1.0092 B(  3-C ,  4-C ) :   1.4964 B(  3-C ,  5-H ) :   0.9981
B(  4-C , 20-C ) :   1.0525 B(  6-C ,  7-H ) :   0.9247 B(  6-C ,  8-H ) :   0.9621
B(  6-C ,  9-C ) :   1.0541 B(  9-C , 10-H ) :   0.9520 B(  9-C , 11-H ) :   0.9628
B(  9-C , 12-C ) :   1.0809 B( 12-C , 13-H ) :   0.9757 B( 12-C , 14-H ) :   0.9752
B( 12-C , 15-H ) :   0.9745 B( 16-S , 17-C ) :   1.1822 B( 16-S , 20-C ) :   1.1478
B( 17-C , 18-C ) :   1.5476 B( 17-C , 20-C ) :   0.1045 B( 17-C , 33-H ) :   0.9594
B( 18-C , 19-C ) :   1.2654 B( 18-C , 21-H ) :   0.9957 B( 19-C , 20-C ) :   1.5433
B( 19-C , 22-C ) :   1.0528 B( 22-C , 23-H ) :   0.9307 B( 22-C , 24-H ) :   0.9391
B( 22-C , 25-C ) :   1.0559 B( 25-C , 26-H ) :   0.9524 B( 25-C , 27-H ) :   0.9587
B( 25-C , 28-C ) :   1.0866 B( 28-C , 29-H ) :   0.9785 B( 28-C , 30-H ) :   0.9681
B( 28-C , 31-H ) :   0.9722

Dispersion correction           -0.015416904
FINAL SINGLE POINT ENERGY     -1339.859324793536

DIPOLE MOMENT
-------------
                                X             Y             Z
Electronic contribution:      9.44886      21.64070      -6.91678
Nuclear contribution   :     -9.73583     -22.08130       7.33610
                        -----------------------------------------
Total Dipole Moment    :     -0.28697      -0.44061       0.41932
                        -----------------------------------------
Magnitude (a.u.)       :      0.67254
Magnitude (Debye)      :      1.70947

Rotational constants in cm-1:     0.024486     0.007381     0.006849
Rotational constants in MHz :   734.082765   221.286998   205.337294

                             ****ORCA TERMINATED NORMALLY****
TOTAL RUN TIME: 0 days 0 hours 0 minutes 21 seconds 980 msec
