                         Program Version 4.2.1 -  RELEASE  -
|  1> ! wB97X-D3 SP def2-SVP
|  2> %pal
|  3> nprocs 24
|  4> end
|  5>
|  6> * xyz 0 1
|  7> S 	 -102.963 	 -1.97996 	 -107.634
|  8> C 	 -103.952 	 -2.17548 	 -106.185
|  9> C 	 -103.962 	 -1.02751 	 -105.408
| 10> C 	 -103.39 	 0.0939064 	 -106.072
| 11> C 	 -102.822 	 -0.165944 	 -107.338
| 12> H 	 -103.467 	 1.15589 	 -105.78
| 13> C 	 -104.736 	 -0.944682 	 -104.08
| 14> H 	 -104.426 	 -0.0782185 	 -103.587
| 15> H 	 -104.396 	 -1.78087 	 -103.46
| 16> C 	 -106.211 	 -1.01025 	 -104.319
| 17> H 	 -106.484 	 -0.458345 	 -105.271
| 18> H 	 -106.623 	 -2.02539 	 -104.396
| 19> C 	 -107.032 	 -0.349963 	 -103.12
| 20> H 	 -108.104 	 -0.287171 	 -103.332
| 21> H 	 -106.92 	 -0.963534 	 -102.25
| 22> H 	 -106.63 	 0.678307 	 -102.95
| 23> S 	 -103.068 	 1.0035 	 -109.857
| 24> C 	 -101.696 	 1.93845 	 -110.489
| 25> C 	 -100.793 	 2.14012 	 -109.479
| 26> C 	 -101.049 	 1.49208 	 -108.247
| 27> C 	 -102.305 	 0.821791 	 -108.29
| 28> H 	 -99.8908 	 2.69167 	 -109.68
| 29> C 	 -100.097 	 1.62043 	 -107.043
| 30> H 	 -99.7814 	 0.65865 	 -106.634
| 31> H 	 -100.72 	 2.10938 	 -106.306
| 32> C 	 -98.8686 	 2.46734 	 -107.298
| 33> H 	 -99.2612 	 3.50784 	 -107.53
| 34> H 	 -98.3698 	 2.04546 	 -108.178
| 35> C 	 -97.9026 	 2.5196 	 -106.084
| 36> H 	 -96.9631 	 3.12195 	 -106.251
| 37> H 	 -97.4123 	 1.56947 	 -105.85
| 38> H 	 -98.456 	 2.82882 	 -105.227
| 39> H 	 -104.623 	 -3.00141 	 -106.078
| 40> H 	 -101.689 	 2.25356 	 -111.489
| 41> *
| 42>
| 43>                          ****END OF INPUT****

CARTESIAN COORDINATES (ANGSTROEM)
---------------------------------
  S    -102.963000   -1.979960  -107.634000
  C    -103.952000   -2.175480  -106.185000
  C    -103.962000   -1.027510  -105.408000
  C    -103.390000    0.093906  -106.072000
  C    -102.822000   -0.165944  -107.338000
  H    -103.467000    1.155890  -105.780000
  C    -104.736000   -0.944682  -104.080000
  H    -104.426000   -0.078218  -103.587000
  H    -104.396000   -1.780870  -103.460000
  C    -106.211000   -1.010250  -104.319000
  H    -106.484000   -0.458345  -105.271000
  H    -106.623000   -2.025390  -104.396000
  C    -107.032000   -0.349963  -103.120000
  H    -108.104000   -0.287171  -103.332000
  H    -106.920000   -0.963534  -102.250000
  H    -106.630000    0.678307  -102.950000
  S    -103.068000    1.003500  -109.857000
  C    -101.696000    1.938450  -110.489000
  C    -100.793000    2.140120  -109.479000
  C    -101.049000    1.492080  -108.247000
  C    -102.305000    0.821791  -108.290000
  H    -99.890800    2.691670  -109.680000
  C    -100.097000    1.620430  -107.043000
  H    -99.781400    0.658650  -106.634000
  H    -100.720000    2.109380  -106.306000
  C    -98.868600    2.467340  -107.298000
  H    -99.261200    3.507840  -107.530000
  H    -98.369800    2.045460  -108.178000
  C    -97.902600    2.519600  -106.084000
  H    -96.963100    3.121950  -106.251000
  H    -97.412300    1.569470  -105.850000
  H    -98.456000    2.828820  -105.227000
  H    -104.623000   -3.001410  -106.078000
  H    -101.689000    2.253560  -111.489000

 Total Charge           Charge          ....    0
 Multiplicity           Mult            ....    1
 Number of Electrons    NEL             ....  134
 Basis Dimension        Dim             ....  322

ORBITAL ENERGIES
----------------

  NO   OCC          E(Eh)            E(eV)
   0   2.0000     -88.965351     -2420.8703
   1   2.0000     -88.962374     -2420.7893
   2   2.0000     -10.335266      -281.2369
   3   2.0000     -10.328714      -281.0586
   4   2.0000     -10.318272      -280.7744
   5   2.0000     -10.312521      -280.6180
   6   2.0000     -10.309320      -280.5309
   7   2.0000     -10.301428      -280.3161
   8   2.0000     -10.299820      -280.2723
   9   2.0000     -10.294573      -280.1296
  10   2.0000     -10.292636      -280.0769
  11   2.0000     -10.292071      -280.0615
  12   2.0000     -10.291894      -280.0567
  13   2.0000     -10.287488      -279.9368
  14   2.0000     -10.283916      -279.8396
  15   2.0000     -10.281581      -279.7760
  16   2.0000      -8.079691      -219.8596
  17   2.0000      -8.075496      -219.7454
  18   2.0000      -6.038137      -164.3061
  19   2.0000      -6.034113      -164.1966
  20   2.0000      -6.034098      -164.1962
  21   2.0000      -6.030674      -164.1030
  22   2.0000      -6.030237      -164.0911
  23   2.0000      -6.026230      -163.9821
  24   2.0000      -0.996421       -27.1140
  25   2.0000      -0.974929       -26.5292
  26   2.0000      -0.911731       -24.8095
  27   2.0000      -0.908015       -24.7084
  28   2.0000      -0.864641       -23.5281
  29   2.0000      -0.846372       -23.0309
  30   2.0000      -0.838483       -22.8163
  31   2.0000      -0.811645       -22.0860
  32   2.0000      -0.781656       -21.2700
  33   2.0000      -0.768113       -20.9014
  34   2.0000      -0.705073       -19.1860
  35   2.0000      -0.703576       -19.1453
  36   2.0000      -0.696429       -18.9508
  37   2.0000      -0.647475       -17.6187
  38   2.0000      -0.639743       -17.4083
  39   2.0000      -0.613884       -16.7046
  40   2.0000      -0.602276       -16.3888
  41   2.0000      -0.576500       -15.6874
  42   2.0000      -0.566320       -15.4103
  43   2.0000      -0.561485       -15.2788
  44   2.0000      -0.531063       -14.4510
  45   2.0000      -0.520368       -14.1599
  46   2.0000      -0.517655       -14.0861
  47   2.0000      -0.511636       -13.9223
  48   2.0000      -0.503424       -13.6989
  49   2.0000      -0.491460       -13.3733
  50   2.0000      -0.485615       -13.2143
  51   2.0000      -0.479985       -13.0610
  52   2.0000      -0.467324       -12.7165
  53   2.0000      -0.466252       -12.6874
  54   2.0000      -0.461470       -12.5572
  55   2.0000      -0.450612       -12.2618
  56   2.0000      -0.440968       -11.9994
  57   2.0000      -0.434891       -11.8340
  58   2.0000      -0.430762       -11.7216
  59   2.0000      -0.422287       -11.4910
  60   2.0000      -0.420159       -11.4331
  61   2.0000      -0.418122       -11.3777
  62   2.0000      -0.411408       -11.1950
  63   2.0000      -0.338987        -9.2243
  64   2.0000      -0.329755        -8.9731
  65   2.0000      -0.320434        -8.7194
  66   2.0000      -0.296525        -8.0688
  67   0.0000       0.021070         0.5733
  68   0.0000       0.058789         1.5997
  69   0.0000       0.113351         3.0844
  70   0.0000       0.123718         3.3665
  71   0.0000       0.134710         3.6657

MULLIKEN ATOMIC CHARGES
-----------------------
   0 S :    0.096344
   1 C :   -0.134607
   2 C :   -0.091286
   3 C :    0.021666
   4 C :   -0.162194
   5 H :    0.028092
   6 C :    0.129811
   7 H :    0.000511
   8 H :    0.035101
   9 C :   -0.115589
  10 H :    0.050517
  11 H :    0.035574
  12 C :   -0.071099
  13 H :    0.039820
  14 H :    0.030294
  15 H :    0.037363
  16 S :    0.106183
  17 C :   -0.079994
  18 C :   -0.024790
  19 C :   -0.047347
  20 C :   -0.194612
  21 H :    0.017751
  22 C :    0.107183
  23 H :    0.037801
  24 H :    0.027908
  25 C :   -0.139314
  26 H :    0.043791
  27 H :    0.042490
  28 C :   -0.025467
  29 H :    0.040871
  30 H :    0.026602
  31 H :    0.029611
  32 H :    0.055238
  33 H :    0.045776
Sum of atomic charges:   -0.0000000

LOEWDIN ATOMIC CHARGES
----------------------
   0 S :    0.358717
   1 C :   -0.185512
   2 C :   -0.062449
   3 C :   -0.062909
   4 C :   -0.173913
   5 H :    0.036866
   6 C :   -0.027345
   7 H :    0.019664
   8 H :    0.036959
   9 C :   -0.043674
  10 H :    0.031789
  11 H :    0.024429
  12 C :   -0.066816
  13 H :    0.026197
  14 H :    0.019401
  15 H :    0.026130
  16 S :    0.404775
  17 C :   -0.162754
  18 C :   -0.077599
  19 C :   -0.042101
  20 C :   -0.215267
  21 H :    0.029848
  22 C :   -0.029973
  23 H :    0.034233
  24 H :    0.033180
  25 C :   -0.047822
  26 H :    0.031228
  27 H :    0.024048
  28 C :   -0.068204
  29 H :    0.035144
  30 H :    0.026146
  31 H :    0.021754
  32 H :    0.025413
  33 H :    0.020416

  Mayer bond orders larger than 0.100000
B(  0-S ,  1-C ) :   1.1454 B(  0-S ,  4-C ) :   1.1182 B(  1-C ,  2-C ) :   1.5966
B(  1-C ,  4-C ) :   0.1030 B(  1-C , 32-H ) :   0.9725 B(  2-C ,  3-C ) :   1.2440
B(  2-C ,  6-C ) :   1.0229 B(  3-C ,  4-C ) :   1.5891 B(  3-C ,  5-H ) :   0.9829
B(  4-C , 20-C ) :   1.0690 B(  6-C ,  7-H ) :   0.9439 B(  6-C ,  8-H ) :   0.9319
B(  6-C ,  9-C ) :   1.0549 B(  9-C , 10-H ) :   0.9647 B(  9-C , 11-H ) :   0.9531
B(  9-C , 12-C ) :   1.0755 B( 12-C , 13-H ) :   0.9778 B( 12-C , 14-H ) :   0.9769
B( 12-C , 15-H ) :   0.9794 B( 16-S , 17-C ) :   1.1657 B( 16-S , 20-C ) :   1.1574
B( 17-C , 18-C ) :   1.5562 B( 17-C , 20-C ) :   0.1045 B( 17-C , 33-H ) :   0.9760
B( 18-C , 19-C ) :   1.2946 B( 18-C , 21-H ) :   0.9818 B( 19-C , 20-C ) :   1.5493
B( 19-C , 22-C ) :   1.0091 B( 22-C , 23-H ) :   0.9280 B( 22-C , 24-H ) :   0.9274
B( 22-C , 25-C ) :   1.0919 B( 25-C , 26-H ) :   0.9459 B( 25-C , 27-H ) :   0.9504
B( 25-C , 28-C ) :   1.0795 B( 28-C , 29-H ) :   0.9730 B( 28-C , 30-H ) :   0.9723
B( 28-C , 31-H ) :   0.9739

Dispersion correction           -0.013361464
FINAL SINGLE POINT ENERGY     -1339.872632219263

DIPOLE MOMENT
-------------
                                X             Y             Z
Electronic contribution:     -2.66193      -8.03091     -22.47268
Nuclear contribution   :      2.78476       8.35159      22.88440
                        -----------------------------------------
Total Dipole Moment    :      0.12283       0.32067       0.41172
                        -----------------------------------------
Magnitude (a.u.)       :      0.53613
Magnitude (Debye)      :      1.36272

Rotational constants in cm-1:     0.018683     0.007095     0.006032
Rotational constants in MHz :   560.108499   212.696349   180.843636

                             ****ORCA TERMINATED NORMALLY****
TOTAL RUN TIME: 0 days 0 hours 0 minutes 20 seconds 650 msec
