                         Program Version 4.2.1 -  RELEASE  -
|  1> ! wB97X-D3 SP def2-SVP
|  2> %pal
|  3> nprocs 24
|  4> end
|  5>
|  6> * xyz 0 1
|  7> S 	 -61.8595 	 9.45655 	 23.2687
|  8> C 	 -60.203 	 9.40861 	 22.6494
|  9> C 	 -59.8677 	 8.11439 	 22.2623
| 10> C 	 -60.9543 	 7.21284 	 22.2648
| 11> C 	 -62.1403 	 7.74328 	 22.802
| 12> H 	 -60.8001 	 6.2331 	 21.8644
| 13> C 	 -58.5392 	 7.68578 	 21.6727
| 14> H 	 -57.7781 	 8.32518 	 21.9738
| 15> H 	 -58.5333 	 7.99078 	 20.6605
| 16> C 	 -58.0189 	 6.25572 	 22.1038
| 17> H 	 -57.6567 	 6.23639 	 23.1076
| 18> H 	 -58.7867 	 5.49452 	 21.8737
| 19> C 	 -56.732 	 5.81478 	 21.3286
| 20> H 	 -56.8634 	 5.69218 	 20.2364
| 21> H 	 -55.9946 	 6.61679 	 21.3637
| 22> H 	 -56.2044 	 4.96357 	 21.757
| 23> S 	 -64.4784 	 7.85579 	 24.1448
| 24> C 	 -65.1942 	 6.4218 	 24.7437
| 25> C 	 -64.6076 	 5.29265 	 24.2151
| 26> C 	 -63.4502 	 5.59529 	 23.4133
| 27> C 	 -63.2102 	 6.95507 	 23.3665
| 28> H 	 -65.052 	 4.35594 	 24.4698
| 29> C 	 -62.767 	 4.50019 	 22.5218
| 30> H 	 -62.4536 	 4.87709 	 21.5431
| 31> H 	 -63.569 	 3.89382 	 22.1412
| 32> C 	 -61.8267 	 3.54317 	 23.1621
| 33> H 	 -62.3421 	 2.76754 	 23.5908
| 34> H 	 -61.213 	 4.07353 	 23.9352
| 35> C 	 -60.9447 	 2.79355 	 22.1339
| 36> H 	 -60.4557 	 2.02394 	 22.6824
| 37> H 	 -60.3204 	 3.47711 	 21.5521
| 38> H 	 -61.4209 	 2.12401 	 21.4288
| 39> H 	 -59.5259 	 10.2759 	 22.5805
| 40> H 	 -65.9893 	 6.2988 	 25.3374
| 41> *
| 42>
| 43>                          ****END OF INPUT****

CARTESIAN COORDINATES (ANGSTROEM)
---------------------------------
  S    -61.859500    9.456550   23.268700
  C    -60.203000    9.408610   22.649400
  C    -59.867700    8.114390   22.262300
  C    -60.954300    7.212840   22.264800
  C    -62.140300    7.743280   22.802000
  H    -60.800100    6.233100   21.864400
  C    -58.539200    7.685780   21.672700
  H    -57.778100    8.325180   21.973800
  H    -58.533300    7.990780   20.660500
  C    -58.018900    6.255720   22.103800
  H    -57.656700    6.236390   23.107600
  H    -58.786700    5.494520   21.873700
  C    -56.732000    5.814780   21.328600
  H    -56.863400    5.692180   20.236400
  H    -55.994600    6.616790   21.363700
  H    -56.204400    4.963570   21.757000
  S    -64.478400    7.855790   24.144800
  C    -65.194200    6.421800   24.743700
  C    -64.607600    5.292650   24.215100
  C    -63.450200    5.595290   23.413300
  C    -63.210200    6.955070   23.366500
  H    -65.052000    4.355940   24.469800
  C    -62.767000    4.500190   22.521800
  H    -62.453600    4.877090   21.543100
  H    -63.569000    3.893820   22.141200
  C    -61.826700    3.543170   23.162100
  H    -62.342100    2.767540   23.590800
  H    -61.213000    4.073530   23.935200
  C    -60.944700    2.793550   22.133900
  H    -60.455700    2.023940   22.682400
  H    -60.320400    3.477110   21.552100
  H    -61.420900    2.124010   21.428800
  H    -59.525900   10.275900   22.580500
  H    -65.989300    6.298800   25.337400

 Total Charge           Charge          ....    0
 Multiplicity           Mult            ....    1
 Number of Electrons    NEL             ....  134
 Basis Dimension        Dim             ....  322

ORBITAL ENERGIES
----------------

  NO   OCC          E(Eh)            E(eV)
   0   2.0000     -88.967944     -2420.9408
   1   2.0000     -88.964047     -2420.8348
   2   2.0000     -10.334428      -281.2141
   3   2.0000     -10.326046      -280.9860
   4   2.0000     -10.317520      -280.7540
   5   2.0000     -10.305831      -280.4359
   6   2.0000     -10.303376      -280.3691
   7   2.0000     -10.298926      -280.2480
   8   2.0000     -10.297064      -280.1974
   9   2.0000     -10.290644      -280.0227
  10   2.0000     -10.290555      -280.0202
  11   2.0000     -10.289859      -280.0013
  12   2.0000     -10.286741      -279.9164
  13   2.0000     -10.281816      -279.7824
  14   2.0000     -10.281764      -279.7810
  15   2.0000     -10.278162      -279.6830
  16   2.0000      -8.081346      -219.9046
  17   2.0000      -8.079893      -219.8651
  18   2.0000      -6.040067      -164.3586
  19   2.0000      -6.038371      -164.3124
  20   2.0000      -6.036066      -164.2497
  21   2.0000      -6.034336      -164.2026
  22   2.0000      -6.031929      -164.1371
  23   2.0000      -6.030553      -164.0997
  24   2.0000      -1.007945       -27.4276
  25   2.0000      -0.980479       -26.6802
  26   2.0000      -0.914572       -24.8868
  27   2.0000      -0.907168       -24.6853
  28   2.0000      -0.870826       -23.6964
  29   2.0000      -0.854700       -23.2576
  30   2.0000      -0.843505       -22.9529
  31   2.0000      -0.815658       -22.1952
  32   2.0000      -0.787242       -21.4220
  33   2.0000      -0.774173       -21.0663
  34   2.0000      -0.717043       -19.5117
  35   2.0000      -0.703148       -19.1336
  36   2.0000      -0.697899       -18.9908
  37   2.0000      -0.665139       -18.0994
  38   2.0000      -0.635351       -17.2888
  39   2.0000      -0.629455       -17.1283
  40   2.0000      -0.598517       -16.2865
  41   2.0000      -0.574679       -15.6378
  42   2.0000      -0.564519       -15.3614
  43   2.0000      -0.561411       -15.2768
  44   2.0000      -0.531855       -14.4725
  45   2.0000      -0.524794       -14.2804
  46   2.0000      -0.517258       -14.0753
  47   2.0000      -0.510873       -13.9016
  48   2.0000      -0.502104       -13.6629
  49   2.0000      -0.499999       -13.6057
  50   2.0000      -0.495325       -13.4785
  51   2.0000      -0.490732       -13.3535
  52   2.0000      -0.468415       -12.7462
  53   2.0000      -0.462945       -12.5974
  54   2.0000      -0.456606       -12.4249
  55   2.0000      -0.454104       -12.3568
  56   2.0000      -0.447495       -12.1770
  57   2.0000      -0.441321       -12.0090
  58   2.0000      -0.437500       -11.9050
  59   2.0000      -0.424182       -11.5426
  60   2.0000      -0.418759       -11.3950
  61   2.0000      -0.412081       -11.2133
  62   2.0000      -0.404312       -11.0019
  63   2.0000      -0.362540        -9.8652
  64   2.0000      -0.335968        -9.1422
  65   2.0000      -0.326121        -8.8742
  66   2.0000      -0.275561        -7.4984
  67   0.0000       0.014390         0.3916
  68   0.0000       0.091240         2.4828
  69   0.0000       0.092361         2.5133
  70   0.0000       0.115784         3.1506
  71   0.0000       0.128070         3.4850

MULLIKEN ATOMIC CHARGES
-----------------------
   0 S :    0.088273
   1 C :   -0.127612
   2 C :   -0.084766
   3 C :   -0.006474
   4 C :   -0.053780
   5 H :   -0.016400
   6 C :    0.094636
   7 H :   -0.012527
   8 H :    0.030172
   9 C :   -0.079641
  10 H :    0.044270
  11 H :    0.047931
  12 C :   -0.074423
  13 H :    0.033133
  14 H :    0.015016
  15 H :    0.040439
  16 S :    0.102247
  17 C :   -0.023126
  18 C :   -0.035856
  19 C :   -0.030833
  20 C :   -0.135076
  21 H :    0.007429
  22 C :    0.031491
  23 H :    0.028002
  24 H :    0.009175
  25 C :   -0.028124
  26 H :    0.008047
  27 H :    0.047351
  28 C :   -0.053456
  29 H :    0.021962
  30 H :    0.037918
  31 H :    0.018004
  32 H :    0.057365
  33 H :   -0.000767
Sum of atomic charges:   -0.0000000

LOEWDIN ATOMIC CHARGES
----------------------
   0 S :    0.379568
   1 C :   -0.197927
   2 C :   -0.061112
   3 C :   -0.059161
   4 C :   -0.174574
   5 H :    0.022996
   6 C :   -0.033941
   7 H :    0.022556
   8 H :    0.033534
   9 C :   -0.028109
  10 H :    0.029507
  11 H :    0.022725
  12 C :   -0.072099
  13 H :    0.025236
  14 H :    0.020308
  15 H :    0.026917
  16 S :    0.420264
  17 C :   -0.179198
  18 C :   -0.062008
  19 C :   -0.055766
  20 C :   -0.191247
  21 H :    0.027905
  22 C :   -0.038137
  23 H :    0.027764
  24 H :    0.033214
  25 C :   -0.035217
  26 H :    0.014961
  27 H :    0.033019
  28 C :   -0.063827
  29 H :    0.026132
  30 H :    0.020535
  31 H :    0.025219
  32 H :    0.034907
  33 H :    0.005054

  Mayer bond orders larger than 0.100000
B(  0-S ,  1-C ) :   1.1298 B(  0-S ,  4-C ) :   1.1391 B(  1-C ,  2-C ) :   1.5879
B(  1-C ,  4-C ) :   0.1016 B(  1-C , 32-H ) :   0.9665 B(  2-C ,  3-C ) :   1.2940
B(  2-C ,  6-C ) :   1.0209 B(  3-C ,  4-C ) :   1.5215 B(  3-C ,  5-H ) :   0.9878
B(  4-C , 20-C ) :   1.0970 B(  6-C ,  7-H ) :   0.9252 B(  6-C ,  8-H ) :   0.9407
B(  6-C ,  9-C ) :   1.0463 B(  9-C , 10-H ) :   0.9587 B(  9-C , 11-H ) :   0.9577
B(  9-C , 12-C ) :   1.0777 B( 12-C , 13-H ) :   0.9772 B( 12-C , 14-H ) :   0.9731
B( 12-C , 15-H ) :   0.9767 B( 16-S , 17-C ) :   1.1514 B( 16-S , 20-C ) :   1.1349
B( 17-C , 18-C ) :   1.6251 B( 17-C , 33-H ) :   0.9783 B( 18-C , 19-C ) :   1.2385
B( 18-C , 21-H ) :   0.9943 B( 19-C , 20-C ) :   1.5924 B( 19-C , 22-C ) :   1.0115
B( 22-C , 23-H ) :   0.9511 B( 22-C , 24-H ) :   0.9268 B( 22-C , 25-C ) :   1.0579
B( 25-C , 26-H ) :   0.9501 B( 25-C , 27-H ) :   0.9595 B( 25-C , 28-C ) :   1.0864
B( 28-C , 29-H ) :   0.9707 B( 28-C , 30-H ) :   0.9759 B( 28-C , 31-H ) :   0.9682

Dispersion correction           -0.014437002
FINAL SINGLE POINT ENERGY     -1339.842120561353

DIPOLE MOMENT
-------------
                                X             Y             Z
Electronic contribution:    -23.98317      24.29458      10.53907
Nuclear contribution   :     24.41997     -24.98215     -10.73380
                        -----------------------------------------
Total Dipole Moment    :      0.43680      -0.68757      -0.19473
                        -----------------------------------------
Magnitude (a.u.)       :      0.83753
Magnitude (Debye)      :      2.12884

Rotational constants in cm-1:     0.016993     0.010249     0.006561
Rotational constants in MHz :   509.438804   307.262715   196.690998

                             ****ORCA TERMINATED NORMALLY****
TOTAL RUN TIME: 0 days 0 hours 0 minutes 21 seconds 45 msec
