                         Program Version 4.2.1 -  RELEASE  -
|  1> ! wB97X-D3 SP def2-SVP
|  2> %pal
|  3> nprocs 24
|  4> end
|  5>
|  6> * xyz 0 1
|  7> S 	 -105.592 	 61.4416 	 -98.4364
|  8> C 	 -106.502 	 60.4336 	 -99.5405
|  9> C 	 -105.665 	 59.9532 	 -100.575
| 10> C 	 -104.343 	 60.4835 	 -100.488
| 11> C 	 -104.131 	 61.2657 	 -99.3949
| 12> H 	 -103.489 	 60.3161 	 -101.206
| 13> C 	 -106.166 	 59.0982 	 -101.738
| 14> H 	 -105.273 	 58.6133 	 -102.077
| 15> H 	 -106.637 	 59.636 	 -102.625
| 16> C 	 -107.076 	 58.033 	 -101.268
| 17> H 	 -107.99 	 58.4248 	 -100.839
| 18> H 	 -107.218 	 57.4224 	 -102.206
| 19> C 	 -106.405 	 57.0515 	 -100.333
| 20> H 	 -105.343 	 56.8307 	 -100.473
| 21> H 	 -106.49 	 57.3784 	 -99.3263
| 22> H 	 -106.945 	 56.0347 	 -100.21
| 23> S 	 -102.744 	 63.6043 	 -98.8804
| 24> C 	 -101.086 	 63.4487 	 -98.3322
| 25> C 	 -100.683 	 62.1648 	 -98.1949
| 26> C 	 -101.752 	 61.2254 	 -98.4768
| 27> C 	 -102.887 	 61.8301 	 -98.9301
| 28> H 	 -99.7087 	 61.8592 	 -97.985
| 29> C 	 -101.595 	 59.6953 	 -98.3226
| 30> H 	 -102.47 	 59.178 	 -98.7708
| 31> H 	 -101.636 	 59.4019 	 -97.2877
| 32> C 	 -100.421 	 59.0678 	 -99.0371
| 33> H 	 -99.4943 	 59.443 	 -98.6975
| 34> H 	 -100.428 	 59.4289 	 -100.065
| 35> C 	 -100.422 	 57.5424 	 -98.9338
| 36> H 	 -100.915 	 57.1143 	 -99.8772
| 37> H 	 -100.874 	 57.1669 	 -98.0136
| 38> H 	 -99.3828 	 57.1833 	 -98.9268
| 39> H 	 -107.537 	 60.1129 	 -99.3558
| 40> H 	 -100.349 	 64.2401 	 -98.4724
| 41> *
| 42>
| 43>                          ****END OF INPUT****

CARTESIAN COORDINATES (ANGSTROEM)
---------------------------------
  S    -105.592000   61.441600  -98.436400
  C    -106.502000   60.433600  -99.540500
  C    -105.665000   59.953200  -100.575000
  C    -104.343000   60.483500  -100.488000
  C    -104.131000   61.265700  -99.394900
  H    -103.489000   60.316100  -101.206000
  C    -106.166000   59.098200  -101.738000
  H    -105.273000   58.613300  -102.077000
  H    -106.637000   59.636000  -102.625000
  C    -107.076000   58.033000  -101.268000
  H    -107.990000   58.424800  -100.839000
  H    -107.218000   57.422400  -102.206000
  C    -106.405000   57.051500  -100.333000
  H    -105.343000   56.830700  -100.473000
  H    -106.490000   57.378400  -99.326300
  H    -106.945000   56.034700  -100.210000
  S    -102.744000   63.604300  -98.880400
  C    -101.086000   63.448700  -98.332200
  C    -100.683000   62.164800  -98.194900
  C    -101.752000   61.225400  -98.476800
  C    -102.887000   61.830100  -98.930100
  H    -99.708700   61.859200  -97.985000
  C    -101.595000   59.695300  -98.322600
  H    -102.470000   59.178000  -98.770800
  H    -101.636000   59.401900  -97.287700
  C    -100.421000   59.067800  -99.037100
  H    -99.494300   59.443000  -98.697500
  H    -100.428000   59.428900  -100.065000
  C    -100.422000   57.542400  -98.933800
  H    -100.915000   57.114300  -99.877200
  H    -100.874000   57.166900  -98.013600
  H    -99.382800   57.183300  -98.926800
  H    -107.537000   60.112900  -99.355800
  H    -100.349000   64.240100  -98.472400

 Total Charge           Charge          ....    0
 Multiplicity           Mult            ....    1
 Number of Electrons    NEL             ....  134
 Basis Dimension        Dim             ....  322

ORBITAL ENERGIES
----------------

  NO   OCC          E(Eh)            E(eV)
   0   2.0000     -88.965850     -2420.8839
   1   2.0000     -88.962741     -2420.7993
   2   2.0000     -10.324811      -280.9524
   3   2.0000     -10.324202      -280.9358
   4   2.0000     -10.319112      -280.7973
   5   2.0000     -10.315696      -280.7044
   6   2.0000     -10.304132      -280.3897
   7   2.0000     -10.303796      -280.3805
   8   2.0000     -10.297404      -280.2066
   9   2.0000     -10.291566      -280.0477
  10   2.0000     -10.290786      -280.0265
  11   2.0000     -10.289216      -279.9838
  12   2.0000     -10.286127      -279.8997
  13   2.0000     -10.285618      -279.8859
  14   2.0000     -10.280227      -279.7392
  15   2.0000     -10.275999      -279.6242
  16   2.0000      -8.080496      -219.8815
  17   2.0000      -8.077442      -219.7984
  18   2.0000      -6.038924      -164.3275
  19   2.0000      -6.036052      -164.2493
  20   2.0000      -6.034946      -164.2192
  21   2.0000      -6.032073      -164.1411
  22   2.0000      -6.031412      -164.1231
  23   2.0000      -6.027975      -164.0295
  24   2.0000      -1.006374       -27.3848
  25   2.0000      -0.982830       -26.7442
  26   2.0000      -0.922346       -25.0983
  27   2.0000      -0.910640       -24.7798
  28   2.0000      -0.870155       -23.6781
  29   2.0000      -0.849248       -23.1092
  30   2.0000      -0.844591       -22.9825
  31   2.0000      -0.813027       -22.1236
  32   2.0000      -0.783157       -21.3108
  33   2.0000      -0.770998       -20.9799
  34   2.0000      -0.704489       -19.1701
  35   2.0000      -0.702240       -19.1089
  36   2.0000      -0.694396       -18.8955
  37   2.0000      -0.661603       -18.0031
  38   2.0000      -0.640113       -17.4184
  39   2.0000      -0.609171       -16.5764
  40   2.0000      -0.599309       -16.3080
  41   2.0000      -0.582342       -15.8463
  42   2.0000      -0.566270       -15.4090
  43   2.0000      -0.557197       -15.1621
  44   2.0000      -0.537060       -14.6141
  45   2.0000      -0.525140       -14.2898
  46   2.0000      -0.516802       -14.0629
  47   2.0000      -0.510729       -13.8976
  48   2.0000      -0.503183       -13.6923
  49   2.0000      -0.494934       -13.4678
  50   2.0000      -0.491510       -13.3747
  51   2.0000      -0.474345       -12.9076
  52   2.0000      -0.471008       -12.8168
  53   2.0000      -0.465611       -12.6699
  54   2.0000      -0.456871       -12.4321
  55   2.0000      -0.448326       -12.1996
  56   2.0000      -0.443101       -12.0574
  57   2.0000      -0.439815       -11.9680
  58   2.0000      -0.437275       -11.8989
  59   2.0000      -0.427177       -11.6241
  60   2.0000      -0.419581       -11.4174
  61   2.0000      -0.410640       -11.1741
  62   2.0000      -0.401724       -10.9315
  63   2.0000      -0.342165        -9.3108
  64   2.0000      -0.332579        -9.0499
  65   2.0000      -0.330797        -9.0014
  66   2.0000      -0.300003        -8.1635
  67   0.0000       0.039376         1.0715
  68   0.0000       0.056652         1.5416
  69   0.0000       0.116262         3.1636
  70   0.0000       0.121077         3.2947
  71   0.0000       0.123030         3.3478

MULLIKEN ATOMIC CHARGES
-----------------------
   0 S :    0.117663
   1 C :   -0.134577
   2 C :   -0.116795
   3 C :    0.027279
   4 C :   -0.164870
   5 H :    0.035495
   6 C :    0.091220
   7 H :    0.003609
   8 H :    0.062137
   9 C :   -0.079863
  10 H :    0.033785
  11 H :    0.037337
  12 C :   -0.071638
  13 H :    0.032353
  14 H :    0.017658
  15 H :    0.036414
  16 S :    0.096110
  17 C :   -0.072836
  18 C :   -0.012552
  19 C :   -0.019144
  20 C :   -0.188011
  21 H :   -0.002652
  22 C :    0.069586
  23 H :    0.027696
  24 H :    0.030713
  25 C :   -0.075235
  26 H :    0.009354
  27 H :    0.023269
  28 C :   -0.061576
  29 H :    0.049767
  30 H :    0.037582
  31 H :    0.032808
  32 H :    0.061663
  33 H :    0.066252
Sum of atomic charges:    0.0000000

LOEWDIN ATOMIC CHARGES
----------------------
   0 S :    0.409406
   1 C :   -0.201361
   2 C :   -0.064955
   3 C :   -0.068710
   4 C :   -0.196218
   5 H :    0.044438
   6 C :   -0.034655
   7 H :    0.024212
   8 H :    0.043048
   9 C :   -0.046910
  10 H :    0.021955
  11 H :    0.034681
  12 C :   -0.076799
  13 H :    0.025610
  14 H :    0.018173
  15 H :    0.034816
  16 S :    0.383164
  17 C :   -0.179676
  18 C :   -0.060508
  19 C :   -0.047186
  20 C :   -0.192425
  21 H :    0.021455
  22 C :   -0.031105
  23 H :    0.034145
  24 H :    0.028061
  25 C :   -0.045996
  26 H :    0.010678
  27 H :    0.025272
  28 C :   -0.068330
  29 H :    0.036851
  30 H :    0.025864
  31 H :    0.028682
  32 H :    0.030751
  33 H :    0.033570

  Mayer bond orders larger than 0.100000
B(  0-S ,  1-C ) :   1.1478 B(  0-S ,  4-C ) :   1.1565 B(  1-C ,  2-C ) :   1.5861
B(  1-C ,  4-C ) :   0.1006 B(  1-C , 32-H ) :   0.9665 B(  2-C ,  3-C ) :   1.2492
B(  2-C ,  6-C ) :   1.0016 B(  3-C ,  4-C ) :   1.5963 B(  3-C ,  5-H ) :   0.9858
B(  4-C , 20-C ) :   1.0102 B(  6-C ,  7-H ) :   0.9345 B(  6-C ,  8-H ) :   0.9397
B(  6-C ,  9-C ) :   1.0885 B(  9-C , 10-H ) :   0.9514 B(  9-C , 11-H ) :   0.9557
B(  9-C , 12-C ) :   1.0758 B( 12-C , 13-H ) :   0.9744 B( 12-C , 14-H ) :   0.9678
B( 12-C , 15-H ) :   0.9739 B( 16-S , 17-C ) :   1.1385 B( 16-S , 20-C ) :   1.1223
B( 17-C , 18-C ) :   1.6496 B( 17-C , 33-H ) :   0.9569 B( 18-C , 19-C ) :   1.2019
B( 18-C , 21-H ) :   0.9985 B( 19-C , 20-C ) :   1.6580 B( 19-C , 22-C ) :   1.0334
B( 22-C , 23-H ) :   0.9380 B( 22-C , 24-H ) :   0.9302 B( 22-C , 25-C ) :   1.0610
B( 25-C , 26-H ) :   0.9563 B( 25-C , 27-H ) :   0.9563 B( 25-C , 28-C ) :   1.0758
B( 28-C , 29-H ) :   0.9764 B( 28-C , 30-H ) :   0.9750 B( 28-C , 31-H ) :   0.9763

Dispersion correction           -0.014483139
FINAL SINGLE POINT ENERGY     -1339.877272610981

DIPOLE MOMENT
-------------
                                X             Y             Z
Electronic contribution:     -3.40248      29.03770       7.65152
Nuclear contribution   :      3.73929     -29.65767      -7.93196
                        -----------------------------------------
Total Dipole Moment    :      0.33682      -0.61997      -0.28043
                        -----------------------------------------
Magnitude (a.u.)       :      0.75924
Magnitude (Debye)      :      1.92984

Rotational constants in cm-1:     0.018151     0.009311     0.006760
Rotational constants in MHz :   544.155783   279.131523   202.658237

                             ****ORCA TERMINATED NORMALLY****
TOTAL RUN TIME: 0 days 0 hours 0 minutes 22 seconds 44 msec
