                         Program Version 4.2.1 -  RELEASE  -
|  1> ! wB97X-D3 SP def2-SVP
|  2> %pal
|  3> nprocs 24
|  4> end
|  5>
|  6> * xyz 0 1
|  7> S 	 -92.135 	 -25.7753 	 -65.2115
|  8> C 	 -93.6796 	 -25.8549 	 -66.0503
|  9> C 	 -94.5548 	 -26.6982 	 -65.394
| 10> C 	 -94.0417 	 -27.1154 	 -64.0846
| 11> C 	 -92.6795 	 -26.817 	 -63.8659
| 12> H 	 -94.5902 	 -27.5754 	 -63.2545
| 13> C 	 -95.8525 	 -27.0905 	 -65.9566
| 14> H 	 -95.9243 	 -28.2071 	 -65.9886
| 15> H 	 -96.052 	 -26.7306 	 -66.9696
| 16> C 	 -97.1099 	 -26.6162 	 -65.2601
| 17> H 	 -96.9075 	 -25.6146 	 -64.7288
| 18> H 	 -97.9084 	 -26.4134 	 -65.8851
| 19> C 	 -97.8238 	 -27.6663 	 -64.3335
| 20> H 	 -98.5477 	 -27.0802 	 -63.776
| 21> H 	 -98.3305 	 -28.4775 	 -64.8526
| 22> H 	 -97.0952 	 -28.1791 	 -63.6954
| 23> S 	 -90.8191 	 -28.4437 	 -62.5396
| 24> C 	 -90.4924 	 -28.2311 	 -60.8632
| 25> C 	 -91.0142 	 -27.0106 	 -60.4493
| 26> C 	 -91.8234 	 -26.3487 	 -61.4701
| 27> C 	 -91.8213 	 -27.0048 	 -62.6408
| 28> H 	 -90.9376 	 -26.6557 	 -59.44
| 29> C 	 -92.5648 	 -25.1334 	 -61.1093
| 30> H 	 -92.8595 	 -25.238 	 -60.0885
| 31> H 	 -93.5483 	 -25.0656 	 -61.5704
| 32> C 	 -91.9219 	 -23.7047 	 -61.3146
| 33> H 	 -91.662 	 -23.5379 	 -62.4083
| 34> H 	 -90.9321 	 -23.6876 	 -60.7494
| 35> C 	 -92.8945 	 -22.5574 	 -60.8808
| 36> H 	 -93.0368 	 -22.4684 	 -59.8157
| 37> H 	 -93.9009 	 -22.5396 	 -61.3367
| 38> H 	 -92.4106 	 -21.6194 	 -61.0583
| 39> H 	 -93.762 	 -25.6068 	 -67.111
| 40> H 	 -89.9808 	 -28.8934 	 -60.2404
| 41> *
| 42>
| 43>                          ****END OF INPUT****

CARTESIAN COORDINATES (ANGSTROEM)
---------------------------------
  S    -92.135000  -25.775300  -65.211500
  C    -93.679600  -25.854900  -66.050300
  C    -94.554800  -26.698200  -65.394000
  C    -94.041700  -27.115400  -64.084600
  C    -92.679500  -26.817000  -63.865900
  H    -94.590200  -27.575400  -63.254500
  C    -95.852500  -27.090500  -65.956600
  H    -95.924300  -28.207100  -65.988600
  H    -96.052000  -26.730600  -66.969600
  C    -97.109900  -26.616200  -65.260100
  H    -96.907500  -25.614600  -64.728800
  H    -97.908400  -26.413400  -65.885100
  C    -97.823800  -27.666300  -64.333500
  H    -98.547700  -27.080200  -63.776000
  H    -98.330500  -28.477500  -64.852600
  H    -97.095200  -28.179100  -63.695400
  S    -90.819100  -28.443700  -62.539600
  C    -90.492400  -28.231100  -60.863200
  C    -91.014200  -27.010600  -60.449300
  C    -91.823400  -26.348700  -61.470100
  C    -91.821300  -27.004800  -62.640800
  H    -90.937600  -26.655700  -59.440000
  C    -92.564800  -25.133400  -61.109300
  H    -92.859500  -25.238000  -60.088500
  H    -93.548300  -25.065600  -61.570400
  C    -91.921900  -23.704700  -61.314600
  H    -91.662000  -23.537900  -62.408300
  H    -90.932100  -23.687600  -60.749400
  C    -92.894500  -22.557400  -60.880800
  H    -93.036800  -22.468400  -59.815700
  H    -93.900900  -22.539600  -61.336700
  H    -92.410600  -21.619400  -61.058300
  H    -93.762000  -25.606800  -67.111000
  H    -89.980800  -28.893400  -60.240400

 Total Charge           Charge          ....    0
 Multiplicity           Mult            ....    1
 Number of Electrons    NEL             ....  134
 Basis Dimension        Dim             ....  322

ORBITAL ENERGIES
----------------

  NO   OCC          E(Eh)            E(eV)
   0   2.0000     -88.962758     -2420.7997
   1   2.0000     -88.962412     -2420.7903
   2   2.0000     -10.340315      -281.3743
   3   2.0000     -10.326435      -280.9966
   4   2.0000     -10.316877      -280.7365
   5   2.0000     -10.316518      -280.7267
   6   2.0000     -10.307053      -280.4692
   7   2.0000     -10.306248      -280.4473
   8   2.0000     -10.300231      -280.2835
   9   2.0000     -10.299681      -280.2686
  10   2.0000     -10.294773      -280.1350
  11   2.0000     -10.291449      -280.0446
  12   2.0000     -10.285532      -279.8836
  13   2.0000     -10.284070      -279.8438
  14   2.0000     -10.279521      -279.7200
  15   2.0000     -10.277430      -279.6631
  16   2.0000      -8.078205      -219.8191
  17   2.0000      -8.076445      -219.7712
  18   2.0000      -6.036792      -164.2695
  19   2.0000      -6.035017      -164.2212
  20   2.0000      -6.032471      -164.1519
  21   2.0000      -6.030954      -164.1106
  22   2.0000      -6.028954      -164.0562
  23   2.0000      -6.027254      -164.0099
  24   2.0000      -1.004268       -27.3275
  25   2.0000      -0.981713       -26.7138
  26   2.0000      -0.913399       -24.8548
  27   2.0000      -0.902849       -24.5678
  28   2.0000      -0.866442       -23.5771
  29   2.0000      -0.848075       -23.0773
  30   2.0000      -0.840998       -22.8847
  31   2.0000      -0.816298       -22.2126
  32   2.0000      -0.782672       -21.2976
  33   2.0000      -0.774105       -21.0645
  34   2.0000      -0.704597       -19.1731
  35   2.0000      -0.697418       -18.9777
  36   2.0000      -0.692513       -18.8442
  37   2.0000      -0.668323       -18.1860
  38   2.0000      -0.642468       -17.4824
  39   2.0000      -0.615613       -16.7517
  40   2.0000      -0.600536       -16.3414
  41   2.0000      -0.573415       -15.6034
  42   2.0000      -0.551695       -15.0124
  43   2.0000      -0.549033       -14.9400
  44   2.0000      -0.537056       -14.6140
  45   2.0000      -0.523759       -14.2522
  46   2.0000      -0.519728       -14.1425
  47   2.0000      -0.513001       -13.9595
  48   2.0000      -0.508180       -13.8283
  49   2.0000      -0.500569       -13.6212
  50   2.0000      -0.490258       -13.3406
  51   2.0000      -0.483780       -13.1643
  52   2.0000      -0.470749       -12.8097
  53   2.0000      -0.462231       -12.5779
  54   2.0000      -0.461111       -12.5475
  55   2.0000      -0.447516       -12.1775
  56   2.0000      -0.440457       -11.9854
  57   2.0000      -0.436159       -11.8685
  58   2.0000      -0.430848       -11.7240
  59   2.0000      -0.421671       -11.4743
  60   2.0000      -0.417368       -11.3571
  61   2.0000      -0.411364       -11.1938
  62   2.0000      -0.399659       -10.8753
  63   2.0000      -0.331342        -9.0163
  64   2.0000      -0.326186        -8.8760
  65   2.0000      -0.323706        -8.8085
  66   2.0000      -0.318002        -8.6533
  67   0.0000       0.045393         1.2352
  68   0.0000       0.052078         1.4171
  69   0.0000       0.109597         2.9823
  70   0.0000       0.121074         3.2946
  71   0.0000       0.129939         3.5358

MULLIKEN ATOMIC CHARGES
-----------------------
   0 S :    0.089133
   1 C :   -0.115951
   2 C :   -0.084378
   3 C :    0.047218
   4 C :   -0.167874
   5 H :    0.030725
   6 C :    0.059655
   7 H :    0.041264
   8 H :    0.020314
   9 C :   -0.093033
  10 H :    0.043943
  11 H :    0.015255
  12 C :   -0.069986
  13 H :    0.037566
  14 H :    0.035235
  15 H :    0.026909
  16 S :    0.107460
  17 C :   -0.066229
  18 C :   -0.026884
  19 C :   -0.006571
  20 C :   -0.167981
  21 H :    0.013515
  22 C :    0.071685
  23 H :    0.004303
  24 H :    0.013787
  25 C :   -0.096700
  26 H :    0.047559
  27 H :    0.037772
  28 C :   -0.044323
  29 H :    0.020868
  30 H :    0.044332
  31 H :    0.024613
  32 H :    0.065847
  33 H :    0.040951
Sum of atomic charges:   -0.0000000

LOEWDIN ATOMIC CHARGES
----------------------
   0 S :    0.383187
   1 C :   -0.194510
   2 C :   -0.062860
   3 C :   -0.057008
   4 C :   -0.180974
   5 H :    0.035670
   6 C :   -0.042808
   7 H :    0.039515
   8 H :    0.036289
   9 C :   -0.043771
  10 H :    0.033608
  11 H :    0.014510
  12 C :   -0.065736
  13 H :    0.027610
  14 H :    0.023665
  15 H :    0.018326
  16 S :    0.415104
  17 C :   -0.177582
  18 C :   -0.066885
  19 C :   -0.054663
  20 C :   -0.206226
  21 H :    0.026449
  22 C :   -0.041560
  23 H :    0.026360
  24 H :    0.031420
  25 C :   -0.037231
  26 H :    0.030418
  27 H :    0.028973
  28 C :   -0.072776
  29 H :    0.022121
  30 H :    0.030927
  31 H :    0.025916
  32 H :    0.033478
  33 H :    0.021042

  Mayer bond orders larger than 0.100000
B(  0-S ,  1-C ) :   1.1358 B(  0-S ,  4-C ) :   1.1502 B(  1-C ,  2-C ) :   1.6282
B(  1-C , 32-H ) :   0.9597 B(  2-C ,  3-C ) :   1.1931 B(  2-C ,  6-C ) :   1.0603
B(  3-C ,  4-C ) :   1.6173 B(  3-C ,  5-H ) :   0.9890 B(  4-C , 20-C ) :   0.9744
B(  6-C ,  7-H ) :   0.9402 B(  6-C ,  8-H ) :   0.9395 B(  6-C ,  9-C ) :   1.0447
B(  9-C , 10-H ) :   0.9603 B(  9-C , 11-H ) :   0.9605 B(  9-C , 12-C ) :   1.0662
B( 12-C , 13-H ) :   0.9755 B( 12-C , 14-H ) :   0.9754 B( 12-C , 15-H ) :   0.9805
B( 16-S , 17-C ) :   1.1680 B( 16-S , 20-C ) :   1.1270 B( 17-C , 18-C ) :   1.5975
B( 17-C , 33-H ) :   0.9782 B( 18-C , 19-C ) :   1.2268 B( 18-C , 21-H ) :   0.9919
B( 19-C , 20-C ) :   1.6410 B( 19-C , 22-C ) :   1.0634 B( 22-C , 23-H ) :   0.9261
B( 22-C , 24-H ) :   0.9256 B( 22-C , 25-C ) :   1.0543 B( 25-C , 26-H ) :   0.9564
B( 25-C , 27-H ) :   0.9550 B( 25-C , 28-C ) :   1.0726 B( 28-C , 29-H ) :   0.9742
B( 28-C , 30-H ) :   0.9753 B( 28-C , 31-H ) :   0.9725

Dispersion correction           -0.014145805
FINAL SINGLE POINT ENERGY     -1339.866023109089

DIPOLE MOMENT
-------------
                                X             Y             Z
Electronic contribution:     22.19473     -11.67966      -5.78773
Nuclear contribution   :    -22.81299      11.79067       6.07126
                        -----------------------------------------
Total Dipole Moment    :     -0.61826       0.11102       0.28353
                        -----------------------------------------
Magnitude (a.u.)       :      0.68917
Magnitude (Debye)      :      1.75174

Rotational constants in cm-1:     0.016463     0.008306     0.007284
Rotational constants in MHz :   493.549835   249.016758   218.369237

                             ****ORCA TERMINATED NORMALLY****
TOTAL RUN TIME: 0 days 0 hours 0 minutes 21 seconds 82 msec
