                         Program Version 4.2.1 -  RELEASE  -
|  1> ! wB97X-D3 SP def2-SVP
|  2> %pal
|  3> nprocs 24
|  4> end
|  5>
|  6> * xyz 0 1
|  7> S 	 -64.8642 	 10.6413 	 -73.7664
|  8> C 	 -65.9857 	 9.66248 	 -72.9383
|  9> C 	 -65.6142 	 8.35904 	 -73.2153
| 10> C 	 -64.4867 	 8.23062 	 -74.1381
| 11> C 	 -64.0991 	 9.35393 	 -74.7076
| 12> H 	 -64.015 	 7.30369 	 -74.4165
| 13> C 	 -66.172 	 7.18502 	 -72.3894
| 14> H 	 -66.0195 	 7.52699 	 -71.3895
| 15> H 	 -65.5551 	 6.26226 	 -72.4732
| 16> C 	 -67.7178 	 6.884 	 -72.5557
| 17> H 	 -67.9622 	 6.03676 	 -72.0011
| 18> H 	 -68.3334 	 7.64726 	 -72.1665
| 19> C 	 -68.0225 	 6.59629 	 -74.0499
| 20> H 	 -67.6159 	 7.25862 	 -74.7682
| 21> H 	 -67.6742 	 5.59484 	 -74.3033
| 22> H 	 -69.0684 	 6.47364 	 -74.2893
| 23> S 	 -61.5459 	 9.83454 	 -75.7079
| 24> C 	 -61.3213 	 9.75318 	 -77.4306
| 25> C 	 -62.5215 	 9.47464 	 -78.1023
| 26> C 	 -63.6356 	 9.38609 	 -77.2114
| 27> C 	 -63.2707 	 9.53795 	 -75.8561
| 28> H 	 -62.5088 	 9.3343 	 -79.1837
| 29> C 	 -64.9245 	 8.78503 	 -77.7446
| 30> H 	 -65.2242 	 8.22258 	 -76.8259
| 31> H 	 -64.8309 	 8.00375 	 -78.52
| 32> C 	 -66.0274 	 9.86433 	 -78.1398
| 33> H 	 -65.7632 	 10.3422 	 -79.0247
| 34> H 	 -66.1552 	 10.4625 	 -77.2767
| 35> C 	 -67.3338 	 9.12718 	 -78.2936
| 36> H 	 -68.2078 	 9.77569 	 -78.3754
| 37> H 	 -67.4621 	 8.38942 	 -77.5317
| 38> H 	 -67.3012 	 8.4561 	 -79.1308
| 39> H 	 -66.7659 	 9.92533 	 -72.3253
| 40> H 	 -60.4431 	 9.84345 	 -78.0104
| 41> *
| 42>
| 43>                          ****END OF INPUT****

CARTESIAN COORDINATES (ANGSTROEM)
---------------------------------
  S    -64.864200   10.641300  -73.766400
  C    -65.985700    9.662480  -72.938300
  C    -65.614200    8.359040  -73.215300
  C    -64.486700    8.230620  -74.138100
  C    -64.099100    9.353930  -74.707600
  H    -64.015000    7.303690  -74.416500
  C    -66.172000    7.185020  -72.389400
  H    -66.019500    7.526990  -71.389500
  H    -65.555100    6.262260  -72.473200
  C    -67.717800    6.884000  -72.555700
  H    -67.962200    6.036760  -72.001100
  H    -68.333400    7.647260  -72.166500
  C    -68.022500    6.596290  -74.049900
  H    -67.615900    7.258620  -74.768200
  H    -67.674200    5.594840  -74.303300
  H    -69.068400    6.473640  -74.289300
  S    -61.545900    9.834540  -75.707900
  C    -61.321300    9.753180  -77.430600
  C    -62.521500    9.474640  -78.102300
  C    -63.635600    9.386090  -77.211400
  C    -63.270700    9.537950  -75.856100
  H    -62.508800    9.334300  -79.183700
  C    -64.924500    8.785030  -77.744600
  H    -65.224200    8.222580  -76.825900
  H    -64.830900    8.003750  -78.520000
  C    -66.027400    9.864330  -78.139800
  H    -65.763200   10.342200  -79.024700
  H    -66.155200   10.462500  -77.276700
  C    -67.333800    9.127180  -78.293600
  H    -68.207800    9.775690  -78.375400
  H    -67.462100    8.389420  -77.531700
  H    -67.301200    8.456100  -79.130800
  H    -66.765900    9.925330  -72.325300
  H    -60.443100    9.843450  -78.010400

 Total Charge           Charge          ....    0
 Multiplicity           Mult            ....    1
 Number of Electrons    NEL             ....  134
 Basis Dimension        Dim             ....  322

ORBITAL ENERGIES
----------------

  NO   OCC          E(Eh)            E(eV)
   0   2.0000     -88.971860     -2421.0474
   1   2.0000     -88.957866     -2420.6666
   2   2.0000     -10.328152      -281.0433
   3   2.0000     -10.322938      -280.9014
   4   2.0000     -10.316629      -280.7297
   5   2.0000     -10.309574      -280.5378
   6   2.0000     -10.306874      -280.4643
   7   2.0000     -10.302871      -280.3554
   8   2.0000     -10.294186      -280.1190
   9   2.0000     -10.293711      -280.1061
  10   2.0000     -10.293670      -280.1050
  11   2.0000     -10.291833      -280.0550
  12   2.0000     -10.284577      -279.8576
  13   2.0000     -10.276102      -279.6270
  14   2.0000     -10.269725      -279.4534
  15   2.0000     -10.265682      -279.3434
  16   2.0000      -8.086119      -220.0345
  17   2.0000      -8.073518      -219.6916
  18   2.0000      -6.044635      -164.4829
  19   2.0000      -6.040585      -164.3727
  20   2.0000      -6.037015      -164.2755
  21   2.0000      -6.032031      -164.1399
  22   2.0000      -6.027814      -164.0252
  23   2.0000      -6.024228      -163.9276
  24   2.0000      -1.012164       -27.5424
  25   2.0000      -0.986671       -26.8487
  26   2.0000      -0.906246       -24.6602
  27   2.0000      -0.904819       -24.6214
  28   2.0000      -0.877647       -23.8820
  29   2.0000      -0.853617       -23.2281
  30   2.0000      -0.840382       -22.8680
  31   2.0000      -0.820629       -22.3304
  32   2.0000      -0.777971       -21.1697
  33   2.0000      -0.765588       -20.8327
  34   2.0000      -0.711690       -19.3661
  35   2.0000      -0.710824       -19.3425
  36   2.0000      -0.699009       -19.0210
  37   2.0000      -0.660565       -17.9749
  38   2.0000      -0.649989       -17.6871
  39   2.0000      -0.615567       -16.7504
  40   2.0000      -0.589424       -16.0390
  41   2.0000      -0.575589       -15.6626
  42   2.0000      -0.570371       -15.5206
  43   2.0000      -0.551094       -14.9960
  44   2.0000      -0.546330       -14.8664
  45   2.0000      -0.528284       -14.3753
  46   2.0000      -0.521382       -14.1875
  47   2.0000      -0.518922       -14.1206
  48   2.0000      -0.504663       -13.7326
  49   2.0000      -0.499061       -13.5801
  50   2.0000      -0.492526       -13.4023
  51   2.0000      -0.474899       -12.9227
  52   2.0000      -0.471380       -12.8269
  53   2.0000      -0.466408       -12.6916
  54   2.0000      -0.460310       -12.5257
  55   2.0000      -0.443315       -12.0632
  56   2.0000      -0.439278       -11.9534
  57   2.0000      -0.433394       -11.7933
  58   2.0000      -0.431222       -11.7341
  59   2.0000      -0.428369       -11.6565
  60   2.0000      -0.424829       -11.5602
  61   2.0000      -0.410473       -11.1695
  62   2.0000      -0.406800       -11.0696
  63   2.0000      -0.339231        -9.2309
  64   2.0000      -0.331254        -9.0139
  65   2.0000      -0.316954        -8.6248
  66   2.0000      -0.306485        -8.3399
  67   0.0000       0.041879         1.1396
  68   0.0000       0.047457         1.2914
  69   0.0000       0.111969         3.0468
  70   0.0000       0.115973         3.1558
  71   0.0000       0.132089         3.5943

MULLIKEN ATOMIC CHARGES
-----------------------
   0 S :    0.102428
   1 C :   -0.064423
   2 C :   -0.128185
   3 C :    0.076156
   4 C :   -0.170452
   5 H :    0.009242
   6 C :    0.032402
   7 H :    0.028937
   8 H :    0.030712
   9 C :   -0.015652
  10 H :    0.015588
  11 H :    0.017745
  12 C :   -0.053734
  13 H :    0.040667
  14 H :    0.012727
  15 H :    0.020926
  16 S :    0.133507
  17 C :   -0.076105
  18 C :   -0.056408
  19 C :    0.027661
  20 C :   -0.186662
  21 H :    0.026327
  22 C :   -0.031229
  23 H :    0.026477
  24 H :    0.036208
  25 C :   -0.000789
  26 H :    0.024232
  27 H :    0.028888
  28 C :   -0.019813
  29 H :    0.039162
  30 H :    0.009090
  31 H :    0.001782
  32 H :    0.021430
  33 H :    0.041158
Sum of atomic charges:   -0.0000000

LOEWDIN ATOMIC CHARGES
----------------------
   0 S :    0.408223
   1 C :   -0.188643
   2 C :   -0.067864
   3 C :   -0.057420
   4 C :   -0.197528
   5 H :    0.031206
   6 C :   -0.031293
   7 H :    0.027589
   8 H :    0.032228
   9 C :   -0.026216
  10 H :    0.019187
  11 H :    0.015333
  12 C :   -0.066531
  13 H :    0.018569
  14 H :    0.024671
  15 H :    0.023196
  16 S :    0.423309
  17 C :   -0.186478
  18 C :   -0.071590
  19 C :   -0.043238
  20 C :   -0.213008
  21 H :    0.033767
  22 C :   -0.035108
  23 H :    0.035068
  24 H :    0.029893
  25 C :   -0.019719
  26 H :    0.015997
  27 H :    0.024330
  28 C :   -0.065352
  29 H :    0.025788
  30 H :    0.020975
  31 H :    0.018644
  32 H :    0.018005
  33 H :    0.024008

  Mayer bond orders larger than 0.100000
B(  0-S ,  1-C ) :   1.1495 B(  0-S ,  4-C ) :   1.1233 B(  1-C ,  2-C ) :   1.5923
B(  1-C , 32-H ) :   0.9895 B(  2-C ,  3-C ) :   1.2219 B(  2-C ,  6-C ) :   1.0051
B(  3-C ,  4-C ) :   1.6107 B(  3-C ,  5-H ) :   0.9979 B(  4-C , 20-C ) :   1.0347
B(  6-C ,  7-H ) :   0.9466 B(  6-C ,  8-H ) :   0.9548 B(  6-C ,  9-C ) :   1.0715
B(  9-C , 10-H ) :   0.9554 B(  9-C , 11-H ) :   0.9601 B(  9-C , 12-C ) :   1.0690
B( 12-C , 13-H ) :   0.9798 B( 12-C , 14-H ) :   0.9735 B( 12-C , 15-H ) :   0.9740
B( 16-S , 17-C ) :   1.1688 B( 16-S , 20-C ) :   1.1456 B( 17-C , 18-C ) :   1.5968
B( 17-C , 20-C ) :   0.1047 B( 17-C , 33-H ) :   0.9698 B( 18-C , 19-C ) :   1.2619
B( 18-C , 21-H ) :   0.9875 B( 19-C , 20-C ) :   1.5689 B( 19-C , 22-C ) :   1.0187
B( 22-C , 23-H ) :   0.9368 B( 22-C , 24-H ) :   0.9557 B( 22-C , 25-C ) :   1.0545
B( 25-C , 26-H ) :   0.9599 B( 25-C , 27-H ) :   0.9537 B( 25-C , 28-C ) :   1.0912
B( 28-C , 29-H ) :   0.9731 B( 28-C , 30-H ) :   0.9709 B( 28-C , 31-H ) :   0.9648

Dispersion correction           -0.015161127
FINAL SINGLE POINT ENERGY     -1339.847225128196

DIPOLE MOMENT
-------------
                                X             Y             Z
Electronic contribution:     24.82161      14.90899       5.98780
Nuclear contribution   :    -25.12166     -15.51747      -6.13681
                        -----------------------------------------
Total Dipole Moment    :     -0.30004      -0.60847      -0.14901
                        -----------------------------------------
Magnitude (a.u.)       :      0.69460
Magnitude (Debye)      :      1.76554

Rotational constants in cm-1:     0.018569     0.009398     0.007392
Rotational constants in MHz :   556.695575   281.742976   221.618384

                             ****ORCA TERMINATED NORMALLY****
TOTAL RUN TIME: 0 days 0 hours 0 minutes 21 seconds 356 msec
