                         Program Version 4.2.1 -  RELEASE  -
|  1> ! wB97X-D3 SP def2-SVP
|  2> %pal
|  3> nprocs 24
|  4> end
|  5>
|  6> * xyz 0 1
|  7> S 	 -89.9114 	 -34.8129 	 -64.6634
|  8> C 	 -91.4608 	 -34.8853 	 -65.4648
|  9> C 	 -91.6455 	 -33.8746 	 -66.4254
| 10> C 	 -90.5793 	 -32.9079 	 -66.4025
| 11> C 	 -89.4974 	 -33.3618 	 -65.6435
| 12> H 	 -90.5016 	 -32.0148 	 -67.0347
| 13> C 	 -92.7656 	 -33.7845 	 -67.3799
| 14> H 	 -93.3799 	 -32.8979 	 -67.1341
| 15> H 	 -93.4363 	 -34.6133 	 -67.2541
| 16> C 	 -92.4825 	 -33.852 	 -68.9311
| 17> H 	 -91.758 	 -33.0003 	 -69.0558
| 18> H 	 -91.8822 	 -34.7343 	 -69.1782
| 19> C 	 -93.7221 	 -33.8592 	 -69.8116
| 20> H 	 -94.4835 	 -34.5907 	 -69.4216
| 21> H 	 -94.318 	 -32.9714 	 -69.8125
| 22> H 	 -93.5626 	 -33.9833 	 -70.8707
| 23> S 	 -88.1199 	 -31.5679 	 -64.0961
| 24> C 	 -86.6373 	 -30.9137 	 -64.5774
| 25> C 	 -86.2978 	 -31.3191 	 -65.8333
| 26> C 	 -87.2408 	 -32.2766 	 -66.3798
| 27> C 	 -88.3248 	 -32.5268 	 -65.5088
| 28> H 	 -85.4447 	 -30.8304 	 -66.2565
| 29> C 	 -87.0632 	 -32.8748 	 -67.8012
| 30> H 	 -87.7213 	 -33.7765 	 -67.8194
| 31> H 	 -85.9773 	 -33.2087 	 -67.7766
| 32> C 	 -87.3267 	 -32.0424 	 -69.0483
| 33> H 	 -86.5885 	 -31.285 	 -69.0893
| 34> H 	 -88.371 	 -31.659 	 -68.9145
| 35> C 	 -87.2378 	 -32.8629 	 -70.2991
| 36> H 	 -87.852 	 -32.5964 	 -71.184
| 37> H 	 -87.4241 	 -33.9628 	 -70.1953
| 38> H 	 -86.2316 	 -32.809 	 -70.6869
| 39> H 	 -92.1789 	 -35.6476 	 -65.2108
| 40> H 	 -86.1087 	 -30.1714 	 -63.97
| 41> *
| 42>
| 43>                          ****END OF INPUT****

CARTESIAN COORDINATES (ANGSTROEM)
---------------------------------
  S    -89.911400  -34.812900  -64.663400
  C    -91.460800  -34.885300  -65.464800
  C    -91.645500  -33.874600  -66.425400
  C    -90.579300  -32.907900  -66.402500
  C    -89.497400  -33.361800  -65.643500
  H    -90.501600  -32.014800  -67.034700
  C    -92.765600  -33.784500  -67.379900
  H    -93.379900  -32.897900  -67.134100
  H    -93.436300  -34.613300  -67.254100
  C    -92.482500  -33.852000  -68.931100
  H    -91.758000  -33.000300  -69.055800
  H    -91.882200  -34.734300  -69.178200
  C    -93.722100  -33.859200  -69.811600
  H    -94.483500  -34.590700  -69.421600
  H    -94.318000  -32.971400  -69.812500
  H    -93.562600  -33.983300  -70.870700
  S    -88.119900  -31.567900  -64.096100
  C    -86.637300  -30.913700  -64.577400
  C    -86.297800  -31.319100  -65.833300
  C    -87.240800  -32.276600  -66.379800
  C    -88.324800  -32.526800  -65.508800
  H    -85.444700  -30.830400  -66.256500
  C    -87.063200  -32.874800  -67.801200
  H    -87.721300  -33.776500  -67.819400
  H    -85.977300  -33.208700  -67.776600
  C    -87.326700  -32.042400  -69.048300
  H    -86.588500  -31.285000  -69.089300
  H    -88.371000  -31.659000  -68.914500
  C    -87.237800  -32.862900  -70.299100
  H    -87.852000  -32.596400  -71.184000
  H    -87.424100  -33.962800  -70.195300
  H    -86.231600  -32.809000  -70.686900
  H    -92.178900  -35.647600  -65.210800
  H    -86.108700  -30.171400  -63.970000

 Total Charge           Charge          ....    0
 Multiplicity           Mult            ....    1
 Number of Electrons    NEL             ....  134
 Basis Dimension        Dim             ....  322

ORBITAL ENERGIES
----------------

  NO   OCC          E(Eh)            E(eV)
   0   2.0000     -88.971854     -2421.0472
   1   2.0000     -88.958541     -2420.6850
   2   2.0000     -10.332312      -281.1565
   3   2.0000     -10.321894      -280.8730
   4   2.0000     -10.319037      -280.7953
   5   2.0000     -10.310526      -280.5637
   6   2.0000     -10.307594      -280.4839
   7   2.0000     -10.304761      -280.4068
   8   2.0000     -10.300539      -280.2919
   9   2.0000     -10.295939      -280.1667
  10   2.0000     -10.294691      -280.1328
  11   2.0000     -10.291308      -280.0407
  12   2.0000     -10.289248      -279.9847
  13   2.0000     -10.285738      -279.8892
  14   2.0000     -10.282409      -279.7986
  15   2.0000     -10.277490      -279.6647
  16   2.0000      -8.085649      -220.0217
  17   2.0000      -8.075281      -219.7396
  18   2.0000      -6.044167      -164.4701
  19   2.0000      -6.040358      -164.3665
  20   2.0000      -6.036387      -164.2584
  21   2.0000      -6.033598      -164.1826
  22   2.0000      -6.029280      -164.0650
  23   2.0000      -6.026342      -163.9851
  24   2.0000      -1.006864       -27.3982
  25   2.0000      -0.983002       -26.7488
  26   2.0000      -0.909135       -24.7388
  27   2.0000      -0.908784       -24.7293
  28   2.0000      -0.872320       -23.7370
  29   2.0000      -0.853000       -23.2113
  30   2.0000      -0.847630       -23.0652
  31   2.0000      -0.814838       -22.1729
  32   2.0000      -0.779968       -21.2240
  33   2.0000      -0.767452       -20.8834
  34   2.0000      -0.709870       -19.3166
  35   2.0000      -0.699855       -19.0440
  36   2.0000      -0.691754       -18.8236
  37   2.0000      -0.653860       -17.7924
  38   2.0000      -0.643300       -17.5051
  39   2.0000      -0.621500       -16.9119
  40   2.0000      -0.592256       -16.1161
  41   2.0000      -0.571591       -15.5538
  42   2.0000      -0.566816       -15.4238
  43   2.0000      -0.556810       -15.1516
  44   2.0000      -0.524195       -14.2641
  45   2.0000      -0.521679       -14.1956
  46   2.0000      -0.513836       -13.9822
  47   2.0000      -0.511979       -13.9317
  48   2.0000      -0.506699       -13.7880
  49   2.0000      -0.501573       -13.6485
  50   2.0000      -0.493401       -13.4261
  51   2.0000      -0.482377       -13.1261
  52   2.0000      -0.471186       -12.8216
  53   2.0000      -0.463994       -12.6259
  54   2.0000      -0.459726       -12.5098
  55   2.0000      -0.454525       -12.3683
  56   2.0000      -0.441087       -12.0026
  57   2.0000      -0.436088       -11.8666
  58   2.0000      -0.430850       -11.7240
  59   2.0000      -0.425826       -11.5873
  60   2.0000      -0.422535       -11.4978
  61   2.0000      -0.410269       -11.1640
  62   2.0000      -0.407007       -11.0752
  63   2.0000      -0.340808        -9.2738
  64   2.0000      -0.325553        -8.8588
  65   2.0000      -0.319371        -8.6905
  66   2.0000      -0.305078        -8.3016
  67   0.0000       0.036791         1.0011
  68   0.0000       0.061768         1.6808
  69   0.0000       0.112907         3.0724
  70   0.0000       0.120240         3.2719
  71   0.0000       0.126796         3.4503

MULLIKEN ATOMIC CHARGES
-----------------------
   0 S :    0.123331
   1 C :   -0.118682
   2 C :   -0.063739
   3 C :    0.019634
   4 C :   -0.164498
   5 H :    0.038455
   6 C :    0.052791
   7 H :    0.040894
   8 H :   -0.002038
   9 C :   -0.076751
  10 H :    0.026696
  11 H :    0.036044
  12 C :   -0.038270
  13 H :    0.032026
  14 H :    0.016208
  15 H :    0.038837
  16 S :    0.116475
  17 C :   -0.104224
  18 C :   -0.030451
  19 C :   -0.025190
  20 C :   -0.184546
  21 H :    0.011447
  22 C :   -0.001376
  23 H :    0.034918
  24 H :    0.035604
  25 C :   -0.003873
  26 H :    0.021311
  27 H :    0.033161
  28 C :   -0.069766
  29 H :    0.036751
  30 H :    0.032300
  31 H :    0.022131
  32 H :    0.050568
  33 H :    0.063819
Sum of atomic charges:    0.0000000

LOEWDIN ATOMIC CHARGES
----------------------
   0 S :    0.395116
   1 C :   -0.191275
   2 C :   -0.064586
   3 C :   -0.045167
   4 C :   -0.190618
   5 H :    0.037710
   6 C :   -0.040080
   7 H :    0.036628
   8 H :    0.021977
   9 C :   -0.041038
  10 H :    0.023306
  11 H :    0.027625
  12 C :   -0.072791
  13 H :    0.033608
  14 H :    0.022031
  15 H :    0.029478
  16 S :    0.441240
  17 C :   -0.203092
  18 C :   -0.080796
  19 C :   -0.053675
  20 C :   -0.221685
  21 H :    0.029659
  22 C :   -0.038010
  23 H :    0.031853
  24 H :    0.035344
  25 C :   -0.040025
  26 H :    0.020534
  27 H :    0.029373
  28 C :   -0.076503
  29 H :    0.030516
  30 H :    0.029904
  31 H :    0.024248
  32 H :    0.025890
  33 H :    0.033301

  Mayer bond orders larger than 0.100000
B(  0-S ,  1-C ) :   1.1419 B(  0-S ,  4-C ) :   1.1334 B(  1-C ,  2-C ) :   1.6055
B(  1-C , 32-H ) :   0.9657 B(  2-C ,  3-C ) :   1.2239 B(  2-C ,  6-C ) :   1.0528
B(  3-C ,  4-C ) :   1.5840 B(  3-C ,  5-H ) :   0.9841 B(  4-C , 20-C ) :   1.0461
B(  6-C ,  7-H ) :   0.9336 B(  6-C ,  8-H ) :   0.9350 B(  6-C ,  9-C ) :   1.0447
B(  9-C , 10-H ) :   0.9569 B(  9-C , 11-H ) :   0.9570 B(  9-C , 12-C ) :   1.0773
B( 12-C , 13-H ) :   0.9704 B( 12-C , 14-H ) :   0.9725 B( 12-C , 15-H ) :   0.9743
B( 16-S , 17-C ) :   1.1831 B( 16-S , 20-C ) :   1.1635 B( 17-C , 18-C ) :   1.5923
B( 17-C , 33-H ) :   0.9648 B( 18-C , 19-C ) :   1.2387 B( 18-C , 21-H ) :   1.0004
B( 19-C , 20-C ) :   1.5768 B( 19-C , 22-C ) :   1.0372 B( 22-C , 23-H ) :   0.9336
B( 22-C , 24-H ) :   0.9369 B( 22-C , 25-C ) :   1.0752 B( 25-C , 26-H ) :   0.9538
B( 25-C , 27-H ) :   0.9522 B( 25-C , 28-C ) :   1.0738 B( 28-C , 29-H ) :   0.9750
B( 28-C , 30-H ) :   0.9748 B( 28-C , 31-H ) :   0.9748

Dispersion correction           -0.014035751
FINAL SINGLE POINT ENERGY     -1339.875081030720

DIPOLE MOMENT
-------------
                                X             Y             Z
Electronic contribution:      7.94038       0.52910      31.24478
Nuclear contribution   :     -8.10935      -0.35523     -31.86995
                        -----------------------------------------
Total Dipole Moment    :     -0.16897       0.17387      -0.62516
                        -----------------------------------------
Magnitude (a.u.)       :      0.67053
Magnitude (Debye)      :      1.70435

Rotational constants in cm-1:     0.016236     0.009281     0.006690
Rotational constants in MHz :   486.736604   278.245038   200.552405

                             ****ORCA TERMINATED NORMALLY****
TOTAL RUN TIME: 0 days 0 hours 0 minutes 21 seconds 410 msec
