                         Program Version 4.2.1 -  RELEASE  -
|  1> ! wB97X-D3 SP def2-SVP
|  2> %pal
|  3> nprocs 24
|  4> end
|  5>
|  6> * xyz 0 1
|  7> S 	 -63.5499 	 9.88995 	 19.9669
|  8> C 	 -62.9573 	 11.191 	 21.0041
|  9> C 	 -62.7087 	 10.6643 	 22.2358
| 10> C 	 -62.7063 	 9.23278 	 22.2827
| 11> C 	 -63.0784 	 8.62944 	 21.0906
| 12> H 	 -62.3888 	 8.56357 	 23.0621
| 13> C 	 -62.2785 	 11.4938 	 23.4761
| 14> H 	 -62.5847 	 10.8196 	 24.2519
| 15> H 	 -62.8131 	 12.4034 	 23.6704
| 16> C 	 -60.7519 	 11.6261 	 23.5804
| 17> H 	 -60.2696 	 10.6471 	 23.5767
| 18> H 	 -60.2717 	 12.037 	 22.6478
| 19> C 	 -60.309 	 12.4656 	 24.8317
| 20> H 	 -59.2524 	 12.641 	 24.7357
| 21> H 	 -60.7655 	 13.5024 	 24.9593
| 22> H 	 -60.4326 	 11.9894 	 25.7588
| 23> S 	 -64.8777 	 6.62204 	 20.7593
| 24> C 	 -64.352 	 4.98164 	 20.5758
| 25> C 	 -63.0299 	 4.82287 	 20.8356
| 26> C 	 -62.4096 	 6.11677 	 21.0911
| 27> C 	 -63.2452 	 7.17357 	 20.8496
| 28> H 	 -62.3848 	 3.91187 	 20.7119
| 29> C 	 -60.9456 	 6.16365 	 21.2617
| 30> H 	 -60.7934 	 6.84716 	 22.057
| 31> H 	 -60.5868 	 6.66325 	 20.3367
| 32> C 	 -60.0219 	 5.01222 	 21.558
| 33> H 	 -60.0086 	 4.43816 	 20.6654
| 34> H 	 -60.2963 	 4.39811 	 22.4136
| 35> C 	 -58.5695 	 5.54448 	 21.7205
| 36> H 	 -57.7572 	 4.73513 	 21.7852
| 37> H 	 -58.4111 	 6.18353 	 22.5433
| 38> H 	 -58.3382 	 6.29117 	 20.8865
| 39> H 	 -62.927 	 12.2347 	 20.7152
| 40> H 	 -65.0054 	 4.22556 	 20.1713
| 41> *
| 42>
| 43>                          ****END OF INPUT****

CARTESIAN COORDINATES (ANGSTROEM)
---------------------------------
  S    -63.549900    9.889950   19.966900
  C    -62.957300   11.191000   21.004100
  C    -62.708700   10.664300   22.235800
  C    -62.706300    9.232780   22.282700
  C    -63.078400    8.629440   21.090600
  H    -62.388800    8.563570   23.062100
  C    -62.278500   11.493800   23.476100
  H    -62.584700   10.819600   24.251900
  H    -62.813100   12.403400   23.670400
  C    -60.751900   11.626100   23.580400
  H    -60.269600   10.647100   23.576700
  H    -60.271700   12.037000   22.647800
  C    -60.309000   12.465600   24.831700
  H    -59.252400   12.641000   24.735700
  H    -60.765500   13.502400   24.959300
  H    -60.432600   11.989400   25.758800
  S    -64.877700    6.622040   20.759300
  C    -64.352000    4.981640   20.575800
  C    -63.029900    4.822870   20.835600
  C    -62.409600    6.116770   21.091100
  C    -63.245200    7.173570   20.849600
  H    -62.384800    3.911870   20.711900
  C    -60.945600    6.163650   21.261700
  H    -60.793400    6.847160   22.057000
  H    -60.586800    6.663250   20.336700
  C    -60.021900    5.012220   21.558000
  H    -60.008600    4.438160   20.665400
  H    -60.296300    4.398110   22.413600
  C    -58.569500    5.544480   21.720500
  H    -57.757200    4.735130   21.785200
  H    -58.411100    6.183530   22.543300
  H    -58.338200    6.291170   20.886500
  H    -62.927000   12.234700   20.715200
  H    -65.005400    4.225560   20.171300

 Total Charge           Charge          ....    0
 Multiplicity           Mult            ....    1
 Number of Electrons    NEL             ....  134
 Basis Dimension        Dim             ....  322

ORBITAL ENERGIES
----------------

  NO   OCC          E(Eh)            E(eV)
   0   2.0000     -88.962344     -2420.7885
   1   2.0000     -88.960465     -2420.7373
   2   2.0000     -10.330725      -281.1133
   3   2.0000     -10.322256      -280.8829
   4   2.0000     -10.315141      -280.6893
   5   2.0000     -10.313380      -280.6413
   6   2.0000     -10.303051      -280.3603
   7   2.0000     -10.301140      -280.3083
   8   2.0000     -10.295979      -280.1678
   9   2.0000     -10.294448      -280.1262
  10   2.0000     -10.294134      -280.1176
  11   2.0000     -10.290153      -280.0093
  12   2.0000     -10.289972      -280.0044
  13   2.0000     -10.289032      -279.9788
  14   2.0000     -10.284216      -279.8478
  15   2.0000     -10.279974      -279.7323
  16   2.0000      -8.076944      -219.7848
  17   2.0000      -8.076430      -219.7708
  18   2.0000      -6.035564      -164.2361
  19   2.0000      -6.035015      -164.2211
  20   2.0000      -6.031381      -164.1222
  21   2.0000      -6.030863      -164.1081
  22   2.0000      -6.027664      -164.0211
  23   2.0000      -6.026935      -164.0012
  24   2.0000      -1.010019       -27.4840
  25   2.0000      -0.987596       -26.8739
  26   2.0000      -0.918803       -25.0019
  27   2.0000      -0.905408       -24.6374
  28   2.0000      -0.869243       -23.6533
  29   2.0000      -0.852473       -23.1970
  30   2.0000      -0.841436       -22.8966
  31   2.0000      -0.816144       -22.2084
  32   2.0000      -0.780594       -21.2410
  33   2.0000      -0.772000       -21.0072
  34   2.0000      -0.713408       -19.4128
  35   2.0000      -0.704100       -19.1595
  36   2.0000      -0.695871       -18.9356
  37   2.0000      -0.656165       -17.8551
  38   2.0000      -0.646457       -17.5910
  39   2.0000      -0.616438       -16.7741
  40   2.0000      -0.602393       -16.3920
  41   2.0000      -0.581685       -15.8284
  42   2.0000      -0.564842       -15.3701
  43   2.0000      -0.551546       -15.0083
  44   2.0000      -0.524105       -14.2616
  45   2.0000      -0.522562       -14.2196
  46   2.0000      -0.517877       -14.0922
  47   2.0000      -0.514057       -13.9882
  48   2.0000      -0.504613       -13.7312
  49   2.0000      -0.498104       -13.5541
  50   2.0000      -0.491138       -13.3645
  51   2.0000      -0.476188       -12.9577
  52   2.0000      -0.475687       -12.9441
  53   2.0000      -0.467529       -12.7221
  54   2.0000      -0.460522       -12.5315
  55   2.0000      -0.457197       -12.4410
  56   2.0000      -0.449647       -12.2355
  57   2.0000      -0.436086       -11.8665
  58   2.0000      -0.432045       -11.7565
  59   2.0000      -0.426443       -11.6041
  60   2.0000      -0.421523       -11.4702
  61   2.0000      -0.412564       -11.2264
  62   2.0000      -0.405307       -11.0290
  63   2.0000      -0.343890        -9.3577
  64   2.0000      -0.327930        -8.9234
  65   2.0000      -0.323987        -8.8161
  66   2.0000      -0.301195        -8.1959
  67   0.0000       0.033612         0.9146
  68   0.0000       0.068233         1.8567
  69   0.0000       0.115489         3.1426
  70   0.0000       0.119932         3.2635
  71   0.0000       0.132459         3.6044

MULLIKEN ATOMIC CHARGES
-----------------------
   0 S :    0.096097
   1 C :   -0.119029
   2 C :   -0.082199
   3 C :    0.038705
   4 C :   -0.180175
   5 H :    0.013304
   6 C :    0.095417
   7 H :    0.014408
   8 H :    0.025783
   9 C :   -0.083739
  10 H :    0.022937
  11 H :    0.030221
  12 C :   -0.045689
  13 H :    0.027138
  14 H :    0.038902
  15 H :    0.024800
  16 S :    0.105141
  17 C :   -0.075684
  18 C :   -0.041401
  19 C :   -0.052731
  20 C :   -0.130999
  21 H :    0.043140
  22 C :    0.008474
  23 H :    0.003649
  24 H :    0.049897
  25 C :   -0.022984
  26 H :    0.025241
  27 H :    0.040416
  28 C :   -0.080716
  29 H :    0.051365
  30 H :    0.018905
  31 H :    0.031073
  32 H :    0.054893
  33 H :    0.055438
Sum of atomic charges:   -0.0000000

LOEWDIN ATOMIC CHARGES
----------------------
   0 S :    0.393031
   1 C :   -0.185860
   2 C :   -0.063069
   3 C :   -0.063557
   4 C :   -0.196725
   5 H :    0.030064
   6 C :   -0.027958
   7 H :    0.029559
   8 H :    0.026243
   9 C :   -0.042060
  10 H :    0.025391
  11 H :    0.027000
  12 C :   -0.069893
  13 H :    0.025269
  14 H :    0.032981
  15 H :    0.016466
  16 S :    0.418328
  17 C :   -0.181760
  18 C :   -0.078267
  19 C :   -0.055292
  20 C :   -0.211997
  21 H :    0.042671
  22 C :   -0.044483
  23 H :    0.024031
  24 H :    0.046649
  25 C :   -0.037807
  26 H :    0.020702
  27 H :    0.026668
  28 C :   -0.070334
  29 H :    0.035762
  30 H :    0.014445
  31 H :    0.033628
  32 H :    0.033124
  33 H :    0.027052

  Mayer bond orders larger than 0.100000
B(  0-S ,  1-C ) :   1.1313 B(  0-S ,  4-C ) :   1.1540 B(  1-C ,  2-C ) :   1.6131
B(  1-C , 32-H ) :   0.9783 B(  2-C ,  3-C ) :   1.2258 B(  2-C ,  6-C ) :   1.0113
B(  3-C ,  4-C ) :   1.5878 B(  3-C ,  5-H ) :   0.9934 B(  4-C , 20-C ) :   1.0012
B(  6-C ,  7-H ) :   0.9363 B(  6-C ,  8-H ) :   0.9521 B(  6-C ,  9-C ) :   1.0588
B(  9-C , 10-H ) :   0.9520 B(  9-C , 11-H ) :   0.9613 B(  9-C , 12-C ) :   1.0701
B( 12-C , 13-H ) :   0.9743 B( 12-C , 14-H ) :   0.9765 B( 12-C , 15-H ) :   0.9780
B( 16-S , 17-C ) :   1.1621 B( 16-S , 20-C ) :   1.1389 B( 17-C , 18-C ) :   1.6092
B( 17-C , 33-H ) :   0.9651 B( 18-C , 19-C ) :   1.2277 B( 18-C , 21-H ) :   0.9792
B( 19-C , 20-C ) :   1.6316 B( 19-C , 22-C ) :   1.0387 B( 22-C , 23-H ) :   0.9246
B( 22-C , 24-H ) :   0.9319 B( 22-C , 25-C ) :   1.0853 B( 25-C , 26-H ) :   0.9401
B( 25-C , 27-H ) :   0.9534 B( 25-C , 28-C ) :   1.0754 B( 28-C , 29-H ) :   0.9736
B( 28-C , 30-H ) :   0.9761 B( 28-C , 31-H ) :   0.9703

Dispersion correction           -0.013501228
FINAL SINGLE POINT ENERGY     -1339.859698039435

DIPOLE MOMENT
-------------
                                X             Y             Z
Electronic contribution:    -26.55932      -3.84417     -15.82506
Nuclear contribution   :     27.18340       3.79168      16.23439
                        -----------------------------------------
Total Dipole Moment    :      0.62408      -0.05249       0.40933
                        -----------------------------------------
Magnitude (a.u.)       :      0.74819
Magnitude (Debye)      :      1.90174

Rotational constants in cm-1:     0.016452     0.008512     0.006230
Rotational constants in MHz :   493.223012   255.183914   186.785298

                             ****ORCA TERMINATED NORMALLY****
TOTAL RUN TIME: 0 days 0 hours 0 minutes 21 seconds 18 msec
