                         Program Version 4.2.1 -  RELEASE  -
|  1> ! wB97X-D3 SP def2-SVP
|  2> %pal
|  3> nprocs 24
|  4> end
|  5>
|  6> * xyz 0 1
|  7> S 	 -105.907 	 59.0026 	 -3.92934
|  8> C 	 -104.804 	 59.9714 	 -4.85745
|  9> C 	 -105.379 	 61.0889 	 -5.39076
| 10> C 	 -106.787 	 61.029 	 -5.27622
| 11> C 	 -107.227 	 59.8813 	 -4.70872
| 12> H 	 -107.406 	 61.7057 	 -5.82039
| 13> C 	 -104.63 	 62.2307 	 -6.08962
| 14> H 	 -103.999 	 62.7773 	 -5.40256
| 15> H 	 -105.487 	 62.9203 	 -6.37664
| 16> C 	 -103.826 	 61.6657 	 -7.21251
| 17> H 	 -102.966 	 61.015 	 -6.93845
| 18> H 	 -104.43 	 61.0101 	 -7.85833
| 19> C 	 -103.374 	 62.7777 	 -8.11356
| 20> H 	 -102.641 	 62.5383 	 -8.89278
| 21> H 	 -104.314 	 63.2173 	 -8.51255
| 22> H 	 -102.913 	 63.5835 	 -7.49374
| 23> S 	 -108.587 	 57.8479 	 -5.88781
| 24> C 	 -110.355 	 57.9018 	 -5.93145
| 25> C 	 -110.833 	 59.0023 	 -5.27854
| 26> C 	 -109.88 	 59.7206 	 -4.57596
| 27> C 	 -108.567 	 59.2884 	 -4.86647
| 28> H 	 -111.869 	 59.3056 	 -5.19416
| 29> C 	 -110.264 	 60.904 	 -3.66949
| 30> H 	 -109.47 	 61.3372 	 -3.08003
| 31> H 	 -110.967 	 60.4192 	 -2.98777
| 32> C 	 -110.794 	 62.0835 	 -4.48573
| 33> H 	 -111.694 	 61.8205 	 -4.98429
| 34> H 	 -110.129 	 62.5026 	 -5.30673
| 35> C 	 -111.276 	 63.2401 	 -3.51112
| 36> H 	 -111.664 	 64.1175 	 -4.08333
| 37> H 	 -110.394 	 63.5597 	 -2.97914
| 38> H 	 -112.007 	 62.9392 	 -2.77882
| 39> H 	 -103.688 	 59.7621 	 -4.90221
| 40> H 	 -110.933 	 57.1656 	 -6.38273
| 41> *
| 42>
| 43>                          ****END OF INPUT****

CARTESIAN COORDINATES (ANGSTROEM)
---------------------------------
  S    -105.907000   59.002600   -3.929340
  C    -104.804000   59.971400   -4.857450
  C    -105.379000   61.088900   -5.390760
  C    -106.787000   61.029000   -5.276220
  C    -107.227000   59.881300   -4.708720
  H    -107.406000   61.705700   -5.820390
  C    -104.630000   62.230700   -6.089620
  H    -103.999000   62.777300   -5.402560
  H    -105.487000   62.920300   -6.376640
  C    -103.826000   61.665700   -7.212510
  H    -102.966000   61.015000   -6.938450
  H    -104.430000   61.010100   -7.858330
  C    -103.374000   62.777700   -8.113560
  H    -102.641000   62.538300   -8.892780
  H    -104.314000   63.217300   -8.512550
  H    -102.913000   63.583500   -7.493740
  S    -108.587000   57.847900   -5.887810
  C    -110.355000   57.901800   -5.931450
  C    -110.833000   59.002300   -5.278540
  C    -109.880000   59.720600   -4.575960
  C    -108.567000   59.288400   -4.866470
  H    -111.869000   59.305600   -5.194160
  C    -110.264000   60.904000   -3.669490
  H    -109.470000   61.337200   -3.080030
  H    -110.967000   60.419200   -2.987770
  C    -110.794000   62.083500   -4.485730
  H    -111.694000   61.820500   -4.984290
  H    -110.129000   62.502600   -5.306730
  C    -111.276000   63.240100   -3.511120
  H    -111.664000   64.117500   -4.083330
  H    -110.394000   63.559700   -2.979140
  H    -112.007000   62.939200   -2.778820
  H    -103.688000   59.762100   -4.902210
  H    -110.933000   57.165600   -6.382730

 Total Charge           Charge          ....    0
 Multiplicity           Mult            ....    1
 Number of Electrons    NEL             ....  134
 Basis Dimension        Dim             ....  322

ORBITAL ENERGIES
----------------

  NO   OCC          E(Eh)            E(eV)
   0   2.0000     -88.962950     -2420.8049
   1   2.0000     -88.962845     -2420.8021
   2   2.0000     -10.325756      -280.9781
   3   2.0000     -10.324917      -280.9553
   4   2.0000     -10.312942      -280.6294
   5   2.0000     -10.311700      -280.5956
   6   2.0000     -10.300227      -280.2834
   7   2.0000     -10.297457      -280.2080
   8   2.0000     -10.294142      -280.1178
   9   2.0000     -10.293612      -280.1034
  10   2.0000     -10.292222      -280.0656
  11   2.0000     -10.288304      -279.9590
  12   2.0000     -10.287623      -279.9405
  13   2.0000     -10.285702      -279.8882
  14   2.0000     -10.280359      -279.7428
  15   2.0000     -10.279156      -279.7101
  16   2.0000      -8.077977      -219.8129
  17   2.0000      -8.077220      -219.7923
  18   2.0000      -6.036468      -164.2606
  19   2.0000      -6.035642      -164.2382
  20   2.0000      -6.032695      -164.1580
  21   2.0000      -6.031771      -164.1328
  22   2.0000      -6.028481      -164.0433
  23   2.0000      -6.028111      -164.0332
  24   2.0000      -1.006837       -27.3974
  25   2.0000      -0.985415       -26.8145
  26   2.0000      -0.920183       -25.0395
  27   2.0000      -0.906538       -24.6681
  28   2.0000      -0.866559       -23.5803
  29   2.0000      -0.851825       -23.1793
  30   2.0000      -0.846126       -23.0243
  31   2.0000      -0.811993       -22.0955
  32   2.0000      -0.778853       -21.1937
  33   2.0000      -0.765835       -20.8394
  34   2.0000      -0.704760       -19.1775
  35   2.0000      -0.700963       -19.0742
  36   2.0000      -0.691854       -18.8263
  37   2.0000      -0.662907       -18.0386
  38   2.0000      -0.636649       -17.3241
  39   2.0000      -0.623127       -16.9562
  40   2.0000      -0.604192       -16.4409
  41   2.0000      -0.570889       -15.5347
  42   2.0000      -0.562501       -15.3064
  43   2.0000      -0.560026       -15.2391
  44   2.0000      -0.529223       -14.4009
  45   2.0000      -0.526009       -14.3134
  46   2.0000      -0.514349       -13.9961
  47   2.0000      -0.509591       -13.8667
  48   2.0000      -0.506545       -13.7838
  49   2.0000      -0.496206       -13.5025
  50   2.0000      -0.484380       -13.1806
  51   2.0000      -0.475506       -12.9392
  52   2.0000      -0.472710       -12.8631
  53   2.0000      -0.459184       -12.4950
  54   2.0000      -0.458237       -12.4693
  55   2.0000      -0.450401       -12.2560
  56   2.0000      -0.447859       -12.1869
  57   2.0000      -0.444313       -12.0904
  58   2.0000      -0.438631       -11.9357
  59   2.0000      -0.422057       -11.4848
  60   2.0000      -0.419130       -11.4051
  61   2.0000      -0.414493       -11.2789
  62   2.0000      -0.411396       -11.1946
  63   2.0000      -0.344147        -9.3647
  64   2.0000      -0.328951        -8.9512
  65   2.0000      -0.320277        -8.7152
  66   2.0000      -0.294784        -8.0215
  67   0.0000       0.031615         0.8603
  68   0.0000       0.064018         1.7420
  69   0.0000       0.108844         2.9618
  70   0.0000       0.120166         3.2699
  71   0.0000       0.133817         3.6413

MULLIKEN ATOMIC CHARGES
-----------------------
   0 S :    0.117551
   1 C :   -0.162026
   2 C :   -0.098306
   3 C :    0.071994
   4 C :   -0.171911
   5 H :   -0.000934
   6 C :    0.076107
   7 H :    0.039167
   8 H :    0.027492
   9 C :   -0.094711
  10 H :    0.037112
  11 H :    0.034315
  12 C :   -0.048239
  13 H :    0.041234
  14 H :    0.029520
  15 H :    0.020685
  16 S :    0.105232
  17 C :   -0.063302
  18 C :   -0.027800
  19 C :   -0.025138
  20 C :   -0.170634
  21 H :    0.014413
  22 C :    0.081620
  23 H :    0.022688
  24 H :    0.037973
  25 C :   -0.104235
  26 H :    0.017606
  27 H :    0.050246
  28 C :   -0.055832
  29 H :    0.041226
  30 H :    0.024264
  31 H :    0.033132
  32 H :    0.064641
  33 H :    0.034850
Sum of atomic charges:    0.0000000

LOEWDIN ATOMIC CHARGES
----------------------
   0 S :    0.393893
   1 C :   -0.204032
   2 C :   -0.068871
   3 C :   -0.056129
   4 C :   -0.190945
   5 H :    0.026535
   6 C :   -0.026118
   7 H :    0.031711
   8 H :    0.036793
   9 C :   -0.050533
  10 H :    0.027551
  11 H :    0.028151
  12 C :   -0.069688
  13 H :    0.025413
  14 H :    0.027653
  15 H :    0.023273
  16 S :    0.399642
  17 C :   -0.165419
  18 C :   -0.071907
  19 C :   -0.055934
  20 C :   -0.196479
  21 H :    0.031558
  22 C :   -0.026619
  23 H :    0.029187
  24 H :    0.037144
  25 C :   -0.040441
  26 H :    0.013372
  27 H :    0.034487
  28 C :   -0.066832
  29 H :    0.030055
  30 H :    0.019351
  31 H :    0.022605
  32 H :    0.036060
  33 H :    0.015511

  Mayer bond orders larger than 0.100000
B(  0-S ,  1-C ) :   1.1321 B(  0-S ,  4-C ) :   1.1459 B(  1-C ,  2-C ) :   1.6289
B(  1-C , 32-H ) :   0.9608 B(  2-C ,  3-C ) :   1.2482 B(  2-C ,  6-C ) :   1.0013
B(  3-C ,  4-C ) :   1.5962 B(  3-C ,  5-H ) :   0.9921 B(  4-C , 20-C ) :   1.0106
B(  6-C ,  7-H ) :   0.9288 B(  6-C ,  8-H ) :   0.9481 B(  6-C ,  9-C ) :   1.0653
B(  9-C , 10-H ) :   0.9477 B(  9-C , 11-H ) :   0.9595 B(  9-C , 12-C ) :   1.0853
B( 12-C , 13-H ) :   0.9730 B( 12-C , 14-H ) :   0.9759 B( 12-C , 15-H ) :   0.9693
B( 16-S , 17-C ) :   1.1561 B( 16-S , 20-C ) :   1.1517 B( 17-C , 18-C ) :   1.5755
B( 17-C , 20-C ) :   0.1082 B( 17-C , 33-H ) :   0.9798 B( 18-C , 19-C ) :   1.2820
B( 18-C , 21-H ) :   0.9849 B( 19-C , 20-C ) :   1.5764 B( 19-C , 22-C ) :   1.0254
B( 22-C , 23-H ) :   0.9436 B( 22-C , 24-H ) :   0.9371 B( 22-C , 25-C ) :   1.0550
B( 25-C , 26-H ) :   0.9559 B( 25-C , 27-H ) :   0.9573 B( 25-C , 28-C ) :   1.0752
B( 28-C , 29-H ) :   0.9756 B( 28-C , 30-H ) :   0.9771 B( 28-C , 31-H ) :   0.9768

Dispersion correction           -0.013746055
FINAL SINGLE POINT ENERGY     -1339.865107671612

DIPOLE MOMENT
-------------
                                X             Y             Z
Electronic contribution:      0.24415     -25.21728       5.68171
Nuclear contribution   :     -0.40213      25.76099      -5.87890
                        -----------------------------------------
Total Dipole Moment    :     -0.15799       0.54372      -0.19719
                        -----------------------------------------
Magnitude (a.u.)       :      0.59956
Magnitude (Debye)      :      1.52396

Rotational constants in cm-1:     0.017635     0.008011     0.006642
Rotational constants in MHz :   528.673537   240.158719   199.118270

                             ****ORCA TERMINATED NORMALLY****
TOTAL RUN TIME: 0 days 0 hours 0 minutes 22 seconds 419 msec
