                         Program Version 4.2.1 -  RELEASE  -
|  1> ! wB97X-D3 SP def2-SVP
|  2> %pal
|  3> nprocs 24
|  4> end
|  5>
|  6> * xyz 0 1
|  7> S 	 -49.5736 	 5.44784 	 -18.0107
|  8> C 	 -49.965 	 3.80869 	 -18.5037
|  9> C 	 -50.5218 	 3.09825 	 -17.4817
| 10> C 	 -50.9043 	 3.91061 	 -16.3532
| 11> C 	 -50.5653 	 5.25154 	 -16.5029
| 12> H 	 -51.3995 	 3.60538 	 -15.4538
| 13> C 	 -50.9397 	 1.68019 	 -17.5779
| 14> H 	 -51.4771 	 1.63972 	 -18.604
| 15> H 	 -51.7169 	 1.45701 	 -16.8617
| 16> C 	 -49.8113 	 0.589228 	 -17.5377
| 17> H 	 -50.3123 	 -0.346471 	 -17.7433
| 18> H 	 -49.1496 	 0.774102 	 -18.3733
| 19> C 	 -48.938 	 0.452085 	 -16.2985
| 20> H 	 -48.1388 	 -0.259407 	 -16.3564
| 21> H 	 -48.5705 	 1.52791 	 -16.0502
| 22> H 	 -49.5524 	 0.102618 	 -15.4437
| 23> S 	 -51.6728 	 7.73915 	 -15.9435
| 24> C 	 -51.4812 	 8.5063 	 -14.4093
| 25> C 	 -50.5555 	 7.75787 	 -13.7018
| 26> C 	 -50.0405 	 6.58628 	 -14.3597
| 27> C 	 -50.6512 	 6.38184 	 -15.5811
| 28> H 	 -50.1217 	 8.17009 	 -12.7444
| 29> C 	 -48.9106 	 5.75629 	 -13.7903
| 30> H 	 -48.9825 	 4.67469 	 -14.2115
| 31> H 	 -49.0764 	 5.50656 	 -12.7803
| 32> C 	 -47.4698 	 6.37388 	 -14.0025
| 33> H 	 -47.1308 	 6.22249 	 -14.993
| 34> H 	 -46.8879 	 5.74269 	 -13.3867
| 35> C 	 -47.3549 	 7.78425 	 -13.4663
| 36> H 	 -47.6397 	 7.7723 	 -12.3986
| 37> H 	 -48.0694 	 8.47621 	 -14.0165
| 38> H 	 -46.3673 	 8.27907 	 -13.6102
| 39> H 	 -49.9512 	 3.50455 	 -19.5204
| 40> H 	 -52.132 	 9.2504 	 -13.9621
| 41> *
| 42>
| 43>                          ****END OF INPUT****

CARTESIAN COORDINATES (ANGSTROEM)
---------------------------------
  S    -49.573600    5.447840  -18.010700
  C    -49.965000    3.808690  -18.503700
  C    -50.521800    3.098250  -17.481700
  C    -50.904300    3.910610  -16.353200
  C    -50.565300    5.251540  -16.502900
  H    -51.399500    3.605380  -15.453800
  C    -50.939700    1.680190  -17.577900
  H    -51.477100    1.639720  -18.604000
  H    -51.716900    1.457010  -16.861700
  C    -49.811300    0.589228  -17.537700
  H    -50.312300   -0.346471  -17.743300
  H    -49.149600    0.774102  -18.373300
  C    -48.938000    0.452085  -16.298500
  H    -48.138800   -0.259407  -16.356400
  H    -48.570500    1.527910  -16.050200
  H    -49.552400    0.102618  -15.443700
  S    -51.672800    7.739150  -15.943500
  C    -51.481200    8.506300  -14.409300
  C    -50.555500    7.757870  -13.701800
  C    -50.040500    6.586280  -14.359700
  C    -50.651200    6.381840  -15.581100
  H    -50.121700    8.170090  -12.744400
  C    -48.910600    5.756290  -13.790300
  H    -48.982500    4.674690  -14.211500
  H    -49.076400    5.506560  -12.780300
  C    -47.469800    6.373880  -14.002500
  H    -47.130800    6.222490  -14.993000
  H    -46.887900    5.742690  -13.386700
  C    -47.354900    7.784250  -13.466300
  H    -47.639700    7.772300  -12.398600
  H    -48.069400    8.476210  -14.016500
  H    -46.367300    8.279070  -13.610200
  H    -49.951200    3.504550  -19.520400
  H    -52.132000    9.250400  -13.962100

 Total Charge           Charge          ....    0
 Multiplicity           Mult            ....    1
 Number of Electrons    NEL             ....  134
 Basis Dimension        Dim             ....  322

ORBITAL ENERGIES
----------------

  NO   OCC          E(Eh)            E(eV)
   0   2.0000     -88.963051     -2420.8077
   1   2.0000     -88.961014     -2420.7523
   2   2.0000     -10.335136      -281.2334
   3   2.0000     -10.325155      -280.9618
   4   2.0000     -10.318629      -280.7842
   5   2.0000     -10.310788      -280.5708
   6   2.0000     -10.303350      -280.3684
   7   2.0000     -10.299916      -280.2750
   8   2.0000     -10.299255      -280.2570
   9   2.0000     -10.297508      -280.2094
  10   2.0000     -10.297273      -280.2030
  11   2.0000     -10.294389      -280.1246
  12   2.0000     -10.286664      -279.9144
  13   2.0000     -10.284155      -279.8461
  14   2.0000     -10.282168      -279.7920
  15   2.0000     -10.280860      -279.7564
  16   2.0000      -8.078540      -219.8283
  17   2.0000      -8.075068      -219.7338
  18   2.0000      -6.036998      -164.2751
  19   2.0000      -6.033665      -164.1844
  20   2.0000      -6.032749      -164.1594
  21   2.0000      -6.029743      -164.0777
  22   2.0000      -6.029460      -164.0700
  23   2.0000      -6.025706      -163.9678
  24   2.0000      -1.006020       -27.3752
  25   2.0000      -0.983422       -26.7603
  26   2.0000      -0.907412       -24.6919
  27   2.0000      -0.905810       -24.6483
  28   2.0000      -0.869441       -23.6587
  29   2.0000      -0.847061       -23.0497
  30   2.0000      -0.842211       -22.9177
  31   2.0000      -0.817085       -22.2340
  32   2.0000      -0.780355       -21.2345
  33   2.0000      -0.769903       -20.9501
  34   2.0000      -0.707552       -19.2535
  35   2.0000      -0.700404       -19.0590
  36   2.0000      -0.693505       -18.8712
  37   2.0000      -0.657863       -17.9014
  38   2.0000      -0.644649       -17.5418
  39   2.0000      -0.610298       -16.6070
  40   2.0000      -0.592884       -16.1332
  41   2.0000      -0.574684       -15.6380
  42   2.0000      -0.556187       -15.1346
  43   2.0000      -0.548057       -14.9134
  44   2.0000      -0.540830       -14.7167
  45   2.0000      -0.532877       -14.5003
  46   2.0000      -0.522711       -14.2237
  47   2.0000      -0.515913       -14.0387
  48   2.0000      -0.505743       -13.7620
  49   2.0000      -0.487572       -13.2675
  50   2.0000      -0.484347       -13.1798
  51   2.0000      -0.480514       -13.0754
  52   2.0000      -0.472759       -12.8644
  53   2.0000      -0.468585       -12.7508
  54   2.0000      -0.461549       -12.5594
  55   2.0000      -0.441740       -12.0204
  56   2.0000      -0.438339       -11.9278
  57   2.0000      -0.432639       -11.7727
  58   2.0000      -0.426286       -11.5998
  59   2.0000      -0.421879       -11.4799
  60   2.0000      -0.417236       -11.3536
  61   2.0000      -0.413322       -11.2471
  62   2.0000      -0.409728       -11.1493
  63   2.0000      -0.334874        -9.1124
  64   2.0000      -0.326285        -8.8787
  65   2.0000      -0.325750        -8.8641
  66   2.0000      -0.305650        -8.3172
  67   0.0000       0.030641         0.8338
  68   0.0000       0.055097         1.4993
  69   0.0000       0.108908         2.9635
  70   0.0000       0.123018         3.3475
  71   0.0000       0.125033         3.4023

MULLIKEN ATOMIC CHARGES
-----------------------
   0 S :    0.085552
   1 C :   -0.107457
   2 C :   -0.076401
   3 C :    0.056824
   4 C :   -0.157332
   5 H :    0.010132
   6 C :    0.014309
   7 H :    0.045543
   8 H :    0.019873
   9 C :   -0.043495
  10 H :    0.023841
  11 H :    0.022224
  12 C :   -0.070154
  13 H :    0.039848
  14 H :    0.051630
  15 H :    0.026087
  16 S :    0.113480
  17 C :   -0.093058
  18 C :   -0.072461
  19 C :   -0.023865
  20 C :   -0.182158
  21 H :    0.039530
  22 C :    0.033346
  23 H :    0.033863
  24 H :    0.012419
  25 C :    0.003723
  26 H :    0.029109
  27 H :    0.015607
  28 C :   -0.102920
  29 H :    0.034325
  30 H :    0.056494
  31 H :    0.044755
  32 H :    0.044832
  33 H :    0.071954
Sum of atomic charges:   -0.0000000

LOEWDIN ATOMIC CHARGES
----------------------
   0 S :    0.367694
   1 C :   -0.184159
   2 C :   -0.070923
   3 C :   -0.052684
   4 C :   -0.166371
   5 H :    0.031549
   6 C :   -0.036674
   7 H :    0.047454
   8 H :    0.024524
   9 C :   -0.040352
  10 H :    0.021416
  11 H :    0.021150
  12 C :   -0.072345
  13 H :    0.024193
  14 H :    0.037709
  15 H :    0.024269
  16 S :    0.426805
  17 C :   -0.200281
  18 C :   -0.081052
  19 C :   -0.059037
  20 C :   -0.217827
  21 H :    0.036913
  22 C :   -0.036040
  23 H :    0.042804
  24 H :    0.020440
  25 C :   -0.026565
  26 H :    0.020480
  27 H :    0.020569
  28 C :   -0.075555
  29 H :    0.025370
  30 H :    0.033484
  31 H :    0.030650
  32 H :    0.023736
  33 H :    0.038654

  Mayer bond orders larger than 0.100000
B(  0-S ,  1-C ) :   1.1303 B(  0-S ,  4-C ) :   1.1345 B(  1-C ,  2-C ) :   1.6207
B(  1-C , 32-H ) :   0.9719 B(  2-C ,  3-C ) :   1.2034 B(  2-C ,  6-C ) :   1.0218
B(  3-C ,  4-C ) :   1.6059 B(  3-C ,  5-H ) :   1.0027 B(  4-C , 20-C ) :   1.0137
B(  6-C ,  7-H ) :   0.9422 B(  6-C ,  8-H ) :   0.9484 B(  6-C ,  9-C ) :   1.0619
B(  9-C , 10-H ) :   0.9549 B(  9-C , 11-H ) :   0.9569 B(  9-C , 12-C ) :   1.0775
B( 12-C , 13-H ) :   0.9742 B( 12-C , 14-H ) :   0.9730 B( 12-C , 15-H ) :   0.9738
B( 16-S , 17-C ) :   1.1688 B( 16-S , 20-C ) :   1.1573 B( 17-C , 18-C ) :   1.5807
B( 17-C , 20-C ) :   0.1007 B( 17-C , 33-H ) :   0.9680 B( 18-C , 19-C ) :   1.2635
B( 18-C , 21-H ) :   0.9754 B( 19-C , 20-C ) :   1.5698 B( 19-C , 22-C ) :   1.0508
B( 22-C , 23-H ) :   0.9279 B( 22-C , 24-H ) :   0.9353 B( 22-C , 25-C ) :   1.0602
B( 25-C , 26-H ) :   0.9579 B( 25-C , 27-H ) :   0.9519 B( 25-C , 28-C ) :   1.0846
B( 28-C , 29-H ) :   0.9714 B( 28-C , 30-H ) :   0.9663 B( 28-C , 31-H ) :   0.9706

Dispersion correction           -0.014973806
FINAL SINGLE POINT ENERGY     -1339.870771313737

DIPOLE MOMENT
-------------
                                X             Y             Z
Electronic contribution:    -12.72877      16.92732     -10.26946
Nuclear contribution   :     12.79289     -17.39301      10.68964
                        -----------------------------------------
Total Dipole Moment    :      0.06412      -0.46569       0.42017
                        -----------------------------------------
Magnitude (a.u.)       :      0.63049
Magnitude (Debye)      :      1.60259

Rotational constants in cm-1:     0.021544     0.008128     0.006951
Rotational constants in MHz :   645.876275   243.675191   208.378067

                             ****ORCA TERMINATED NORMALLY****
TOTAL RUN TIME: 0 days 0 hours 0 minutes 22 seconds 157 msec
