                         Program Version 4.2.1 -  RELEASE  -
|  1> ! wB97X-D3 SP def2-SVP
|  2> %pal
|  3> nprocs 24
|  4> end
|  5>
|  6> * xyz 0 1
|  7> S 	 -130.324 	 56.4091 	 -61.2982
|  8> C 	 -131.651 	 55.9217 	 -60.2404
|  9> C 	 -131.167 	 55.3278 	 -59.055
| 10> C 	 -129.749 	 55.6428 	 -58.9225
| 11> C 	 -129.18 	 56.1517 	 -60.0437
| 12> H 	 -129.292 	 55.5176 	 -57.9771
| 13> C 	 -132.014 	 54.81 	 -57.9844
| 14> H 	 -131.309 	 54.1877 	 -57.4176
| 15> H 	 -132.698 	 54.2047 	 -58.6257
| 16> C 	 -132.755 	 55.9472 	 -57.1995
| 17> H 	 -132.056 	 56.6164 	 -56.7642
| 18> H 	 -133.271 	 56.549 	 -57.9498
| 19> C 	 -133.69 	 55.3823 	 -56.1582
| 20> H 	 -134.499 	 56.1846 	 -56.0069
| 21> H 	 -134.184 	 54.4544 	 -56.5091
| 22> H 	 -133.179 	 55.2142 	 -55.229
| 23> S 	 -127.083 	 55.3093 	 -61.8062
| 24> C 	 -125.434 	 55.6283 	 -61.3722
| 25> C 	 -125.372 	 56.3405 	 -60.1675
| 26> C 	 -126.691 	 56.6168 	 -59.632
| 27> C 	 -127.739 	 56.1159 	 -60.3819
| 28> H 	 -124.407 	 56.5726 	 -59.7095
| 29> C 	 -126.775 	 57.5436 	 -58.3844
| 30> H 	 -126.085 	 56.9829 	 -57.7423
| 31> H 	 -127.668 	 57.5411 	 -57.7521
| 32> C 	 -126.376 	 59.002 	 -58.6333
| 33> H 	 -126.941 	 59.4873 	 -59.4159
| 34> H 	 -125.388 	 59.0382 	 -59.047
| 35> C 	 -126.525 	 59.8598 	 -57.295
| 36> H 	 -125.795 	 60.7126 	 -57.2777
| 37> H 	 -126.334 	 59.3022 	 -56.3956
| 38> H 	 -127.572 	 60.1652 	 -57.1213
| 39> H 	 -132.695 	 55.8834 	 -60.5204
| 40> H 	 -124.504 	 55.3836 	 -61.8622
| 41> *
| 42>
| 43>                          ****END OF INPUT****

CARTESIAN COORDINATES (ANGSTROEM)
---------------------------------
  S    -130.324000   56.409100  -61.298200
  C    -131.651000   55.921700  -60.240400
  C    -131.167000   55.327800  -59.055000
  C    -129.749000   55.642800  -58.922500
  C    -129.180000   56.151700  -60.043700
  H    -129.292000   55.517600  -57.977100
  C    -132.014000   54.810000  -57.984400
  H    -131.309000   54.187700  -57.417600
  H    -132.698000   54.204700  -58.625700
  C    -132.755000   55.947200  -57.199500
  H    -132.056000   56.616400  -56.764200
  H    -133.271000   56.549000  -57.949800
  C    -133.690000   55.382300  -56.158200
  H    -134.499000   56.184600  -56.006900
  H    -134.184000   54.454400  -56.509100
  H    -133.179000   55.214200  -55.229000
  S    -127.083000   55.309300  -61.806200
  C    -125.434000   55.628300  -61.372200
  C    -125.372000   56.340500  -60.167500
  C    -126.691000   56.616800  -59.632000
  C    -127.739000   56.115900  -60.381900
  H    -124.407000   56.572600  -59.709500
  C    -126.775000   57.543600  -58.384400
  H    -126.085000   56.982900  -57.742300
  H    -127.668000   57.541100  -57.752100
  C    -126.376000   59.002000  -58.633300
  H    -126.941000   59.487300  -59.415900
  H    -125.388000   59.038200  -59.047000
  C    -126.525000   59.859800  -57.295000
  H    -125.795000   60.712600  -57.277700
  H    -126.334000   59.302200  -56.395600
  H    -127.572000   60.165200  -57.121300
  H    -132.695000   55.883400  -60.520400
  H    -124.504000   55.383600  -61.862200

 Total Charge           Charge          ....    0
 Multiplicity           Mult            ....    1
 Number of Electrons    NEL             ....  134
 Basis Dimension        Dim             ....  322

ORBITAL ENERGIES
----------------

  NO   OCC          E(Eh)            E(eV)
   0   2.0000     -88.966973     -2420.9144
   1   2.0000     -88.965866     -2420.8843
   2   2.0000     -10.327401      -281.0229
   3   2.0000     -10.326672      -281.0030
   4   2.0000     -10.317596      -280.7560
   5   2.0000     -10.314544      -280.6730
   6   2.0000     -10.302718      -280.3512
   7   2.0000     -10.299640      -280.2675
   8   2.0000     -10.295997      -280.1683
   9   2.0000     -10.294767      -280.1348
  10   2.0000     -10.292621      -280.0765
  11   2.0000     -10.290126      -280.0086
  12   2.0000     -10.288982      -279.9774
  13   2.0000     -10.285892      -279.8933
  14   2.0000     -10.284528      -279.8562
  15   2.0000     -10.283528      -279.8290
  16   2.0000      -8.081303      -219.9034
  17   2.0000      -8.080903      -219.8926
  18   2.0000      -6.039985      -164.3563
  19   2.0000      -6.039438      -164.3415
  20   2.0000      -6.035756      -164.2413
  21   2.0000      -6.035344      -164.2301
  22   2.0000      -6.031994      -164.1389
  23   2.0000      -6.031649      -164.1295
  24   2.0000      -1.005422       -27.3589
  25   2.0000      -0.982044       -26.7228
  26   2.0000      -0.918874       -25.0038
  27   2.0000      -0.899973       -24.4895
  28   2.0000      -0.866502       -23.5787
  29   2.0000      -0.851707       -23.1761
  30   2.0000      -0.839747       -22.8507
  31   2.0000      -0.815222       -22.1833
  32   2.0000      -0.778073       -21.1724
  33   2.0000      -0.767021       -20.8717
  34   2.0000      -0.708664       -19.2837
  35   2.0000      -0.707073       -19.2404
  36   2.0000      -0.695988       -18.9388
  37   2.0000      -0.657005       -17.8780
  38   2.0000      -0.636466       -17.3191
  39   2.0000      -0.623670       -16.9709
  40   2.0000      -0.592715       -16.1286
  41   2.0000      -0.571862       -15.5612
  42   2.0000      -0.562148       -15.2968
  43   2.0000      -0.548252       -14.9187
  44   2.0000      -0.532049       -14.4778
  45   2.0000      -0.521937       -14.2026
  46   2.0000      -0.516081       -14.0433
  47   2.0000      -0.510216       -13.8837
  48   2.0000      -0.504090       -13.7170
  49   2.0000      -0.501002       -13.6330
  50   2.0000      -0.491005       -13.3609
  51   2.0000      -0.477085       -12.9821
  52   2.0000      -0.468981       -12.7616
  53   2.0000      -0.461740       -12.5646
  54   2.0000      -0.455345       -12.3906
  55   2.0000      -0.452600       -12.3159
  56   2.0000      -0.443346       -12.0641
  57   2.0000      -0.441268       -12.0075
  58   2.0000      -0.436894       -11.8885
  59   2.0000      -0.425356       -11.5745
  60   2.0000      -0.422488       -11.4965
  61   2.0000      -0.418934       -11.3998
  62   2.0000      -0.400505       -10.8983
  63   2.0000      -0.347611        -9.4590
  64   2.0000      -0.327818        -8.9204
  65   2.0000      -0.324664        -8.8345
  66   2.0000      -0.289941        -7.8897
  67   0.0000       0.032668         0.8889
  68   0.0000       0.069616         1.8944
  69   0.0000       0.113535         3.0894
  70   0.0000       0.118731         3.2308
  71   0.0000       0.128916         3.5080

MULLIKEN ATOMIC CHARGES
-----------------------
   0 S :    0.106848
   1 C :   -0.120950
   2 C :   -0.137035
   3 C :    0.045485
   4 C :   -0.128885
   5 H :   -0.002415
   6 C :    0.035990
   7 H :    0.031538
   8 H :    0.039888
   9 C :   -0.049370
  10 H :    0.020439
  11 H :    0.022884
  12 C :   -0.040972
  13 H :    0.042507
  14 H :    0.037942
  15 H :    0.037719
  16 S :    0.114555
  17 C :   -0.089511
  18 C :   -0.052942
  19 C :   -0.059558
  20 C :   -0.121349
  21 H :    0.028831
  22 C :    0.041621
  23 H :    0.025973
  24 H :    0.017464
  25 C :   -0.033003
  26 H :    0.035660
  27 H :    0.014736
  28 C :   -0.073314
  29 H :    0.045317
  30 H :    0.019282
  31 H :    0.040898
  32 H :    0.047302
  33 H :    0.056427
Sum of atomic charges:   -0.0000000

LOEWDIN ATOMIC CHARGES
----------------------
   0 S :    0.414218
   1 C :   -0.199418
   2 C :   -0.057872
   3 C :   -0.056921
   4 C :   -0.199473
   5 H :    0.022718
   6 C :   -0.041465
   7 H :    0.033014
   8 H :    0.041562
   9 C :   -0.032704
  10 H :    0.021813
  11 H :    0.025156
  12 C :   -0.068382
  13 H :    0.036997
  14 H :    0.028128
  15 H :    0.023321
  16 S :    0.407547
  17 C :   -0.195865
  18 C :   -0.074301
  19 C :   -0.061261
  20 C :   -0.199920
  21 H :    0.033102
  22 C :   -0.036800
  23 H :    0.032627
  24 H :    0.025150
  25 C :   -0.034193
  26 H :    0.027791
  27 H :    0.018337
  28 C :   -0.071798
  29 H :    0.032637
  30 H :    0.019045
  31 H :    0.029273
  32 H :    0.023728
  33 H :    0.034208

  Mayer bond orders larger than 0.100000
B(  0-S ,  1-C ) :   1.1385 B(  0-S ,  4-C ) :   1.1501 B(  1-C ,  2-C ) :   1.5922
B(  1-C , 32-H ) :   0.9690 B(  2-C ,  3-C ) :   1.2500 B(  2-C ,  6-C ) :   1.0313
B(  3-C ,  4-C ) :   1.5715 B(  3-C ,  5-H ) :   0.9929 B(  4-C , 20-C ) :   1.0215
B(  6-C ,  7-H ) :   0.9385 B(  6-C ,  8-H ) :   0.9315 B(  6-C ,  9-C ) :   1.0609
B(  9-C , 10-H ) :   0.9558 B(  9-C , 11-H ) :   0.9564 B(  9-C , 12-C ) :   1.0762
B( 12-C , 13-H ) :   0.9740 B( 12-C , 14-H ) :   0.9746 B( 12-C , 15-H ) :   0.9763
B( 16-S , 17-C ) :   1.1561 B( 16-S , 20-C ) :   1.1224 B( 17-C , 18-C ) :   1.6097
B( 17-C , 33-H ) :   0.9668 B( 18-C , 19-C ) :   1.2455 B( 18-C , 21-H ) :   0.9859
B( 19-C , 20-C ) :   1.6181 B( 19-C , 22-C ) :   1.0199 B( 22-C , 23-H ) :   0.9334
B( 22-C , 24-H ) :   0.9478 B( 22-C , 25-C ) :   1.0606 B( 25-C , 26-H ) :   0.9588
B( 25-C , 27-H ) :   0.9573 B( 25-C , 28-C ) :   1.0618 B( 28-C , 29-H ) :   0.9774
B( 28-C , 30-H ) :   0.9781 B( 28-C , 31-H ) :   0.9769

Dispersion correction           -0.013569294
FINAL SINGLE POINT ENERGY     -1339.862573936535

DIPOLE MOMENT
-------------
                                X             Y             Z
Electronic contribution:      7.06973      -9.40411     -26.27366
Nuclear contribution   :     -7.12232       9.46224      26.97456
                        -----------------------------------------
Total Dipole Moment    :     -0.05259       0.05813       0.70091
                        -----------------------------------------
Magnitude (a.u.)       :      0.70528
Magnitude (Debye)      :      1.79267

Rotational constants in cm-1:     0.018053     0.007994     0.006225
Rotational constants in MHz :   541.206941   239.653703   186.616177

                             ****ORCA TERMINATED NORMALLY****
TOTAL RUN TIME: 0 days 0 hours 0 minutes 21 seconds 94 msec
