                         Program Version 4.2.1 -  RELEASE  -
|  1> ! wB97X-D3 SP def2-SVP
|  2> %pal
|  3> nprocs 24
|  4> end
|  5>
|  6> * xyz 0 1
|  7> S 	 27.3182 	 -23.2333 	 -121.577
|  8> C 	 28.5333 	 -22.3143 	 -122.47
|  9> C 	 28.0842 	 -21.827 	 -123.655
| 10> C 	 26.6369 	 -21.8913 	 -123.663
| 11> C 	 26.1335 	 -22.6992 	 -122.655
| 12> H 	 25.9837 	 -21.5595 	 -124.503
| 13> C 	 28.876 	 -21.1376 	 -124.649
| 14> H 	 29.8721 	 -20.9249 	 -124.226
| 15> H 	 28.5136 	 -20.1854 	 -124.85
| 16> C 	 28.9439 	 -21.8362 	 -126.032
| 17> H 	 27.8307 	 -22.0073 	 -126.271
| 18> H 	 29.4137 	 -21.2149 	 -126.815
| 19> C 	 29.6662 	 -23.2047 	 -125.888
| 20> H 	 29.2263 	 -23.9326 	 -125.194
| 21> H 	 29.546 	 -23.4988 	 -126.876
| 22> H 	 30.7694 	 -23.1066 	 -125.791
| 23> S 	 24.1374 	 -24.5219 	 -123.005
| 24> C 	 22.6167 	 -24.2562 	 -122.35
| 25> C 	 22.4519 	 -22.9966 	 -121.79
| 26> C 	 23.6342 	 -22.2481 	 -121.947
| 27> C 	 24.7031 	 -22.9954 	 -122.51
| 28> H 	 21.4322 	 -22.8492 	 -121.442
| 29> C 	 23.7248 	 -20.7741 	 -121.463
| 30> H 	 23.8627 	 -20.2551 	 -122.351
| 31> H 	 24.6178 	 -20.8073 	 -120.923
| 32> C 	 22.5093 	 -20.1232 	 -120.692
| 33> H 	 21.7564 	 -20.2111 	 -121.458
| 34> H 	 22.6309 	 -18.9773 	 -120.439
| 35> C 	 22.1868 	 -20.7013 	 -119.369
| 36> H 	 22.1866 	 -21.8023 	 -119.505
| 37> H 	 21.1634 	 -20.4887 	 -119.166
| 38> H 	 22.9379 	 -20.4355 	 -118.641
| 39> H 	 29.5557 	 -22.1797 	 -122.146
| 40> H 	 21.7171 	 -24.8758 	 -122.4
| 41> *
| 42>
| 43>                          ****END OF INPUT****

CARTESIAN COORDINATES (ANGSTROEM)
---------------------------------
  S     27.318200  -23.233300  -121.577000
  C     28.533300  -22.314300  -122.470000
  C     28.084200  -21.827000  -123.655000
  C     26.636900  -21.891300  -123.663000
  C     26.133500  -22.699200  -122.655000
  H     25.983700  -21.559500  -124.503000
  C     28.876000  -21.137600  -124.649000
  H     29.872100  -20.924900  -124.226000
  H     28.513600  -20.185400  -124.850000
  C     28.943900  -21.836200  -126.032000
  H     27.830700  -22.007300  -126.271000
  H     29.413700  -21.214900  -126.815000
  C     29.666200  -23.204700  -125.888000
  H     29.226300  -23.932600  -125.194000
  H     29.546000  -23.498800  -126.876000
  H     30.769400  -23.106600  -125.791000
  S     24.137400  -24.521900  -123.005000
  C     22.616700  -24.256200  -122.350000
  C     22.451900  -22.996600  -121.790000
  C     23.634200  -22.248100  -121.947000
  C     24.703100  -22.995400  -122.510000
  H     21.432200  -22.849200  -121.442000
  C     23.724800  -20.774100  -121.463000
  H     23.862700  -20.255100  -122.351000
  H     24.617800  -20.807300  -120.923000
  C     22.509300  -20.123200  -120.692000
  H     21.756400  -20.211100  -121.458000
  H     22.630900  -18.977300  -120.439000
  C     22.186800  -20.701300  -119.369000
  H     22.186600  -21.802300  -119.505000
  H     21.163400  -20.488700  -119.166000
  H     22.937900  -20.435500  -118.641000
  H     29.555700  -22.179700  -122.146000
  H     21.717100  -24.875800  -122.400000

 Total Charge           Charge          ....    0
 Multiplicity           Mult            ....    1
 Number of Electrons    NEL             ....  134
 Basis Dimension        Dim             ....  322

ORBITAL ENERGIES
----------------

  NO   OCC          E(Eh)            E(eV)
   0   2.0000     -88.967522     -2420.9293
   1   2.0000     -88.966380     -2420.8983
   2   2.0000     -10.323914      -280.9280
   3   2.0000     -10.319822      -280.8166
   4   2.0000     -10.310606      -280.5659
   5   2.0000     -10.307156      -280.4720
   6   2.0000     -10.306515      -280.4545
   7   2.0000     -10.298173      -280.2275
   8   2.0000     -10.295618      -280.1580
   9   2.0000     -10.295129      -280.1447
  10   2.0000     -10.290772      -280.0261
  11   2.0000     -10.288232      -279.9570
  12   2.0000     -10.280549      -279.7479
  13   2.0000     -10.279028      -279.7066
  14   2.0000     -10.272315      -279.5239
  15   2.0000     -10.269314      -279.4422
  16   2.0000      -8.083134      -219.9533
  17   2.0000      -8.082888      -219.9466
  18   2.0000      -6.041584      -164.3998
  19   2.0000      -6.041038      -164.3850
  20   2.0000      -6.037589      -164.2912
  21   2.0000      -6.036926      -164.2731
  22   2.0000      -6.034174      -164.1982
  23   2.0000      -6.033829      -164.1888
  24   2.0000      -1.014665       -27.6104
  25   2.0000      -0.993638       -27.0383
  26   2.0000      -0.918703       -24.9992
  27   2.0000      -0.907310       -24.6891
  28   2.0000      -0.868334       -23.6286
  29   2.0000      -0.852933       -23.2095
  30   2.0000      -0.847574       -23.0637
  31   2.0000      -0.815100       -22.1800
  32   2.0000      -0.789697       -21.4888
  33   2.0000      -0.774901       -21.0861
  34   2.0000      -0.706184       -19.2163
  35   2.0000      -0.691944       -18.8288
  36   2.0000      -0.688693       -18.7403
  37   2.0000      -0.647717       -17.6253
  38   2.0000      -0.638874       -17.3846
  39   2.0000      -0.621986       -16.9251
  40   2.0000      -0.590209       -16.0604
  41   2.0000      -0.575911       -15.6713
  42   2.0000      -0.560843       -15.2613
  43   2.0000      -0.552951       -15.0466
  44   2.0000      -0.541037       -14.7224
  45   2.0000      -0.535275       -14.5656
  46   2.0000      -0.526586       -14.3291
  47   2.0000      -0.513788       -13.9809
  48   2.0000      -0.505471       -13.7546
  49   2.0000      -0.495696       -13.4886
  50   2.0000      -0.493982       -13.4419
  51   2.0000      -0.480520       -13.0756
  52   2.0000      -0.472171       -12.8484
  53   2.0000      -0.460611       -12.5339
  54   2.0000      -0.456072       -12.4103
  55   2.0000      -0.452583       -12.3154
  56   2.0000      -0.447728       -12.1833
  57   2.0000      -0.436990       -11.8911
  58   2.0000      -0.434329       -11.8187
  59   2.0000      -0.419568       -11.4170
  60   2.0000      -0.414800       -11.2873
  61   2.0000      -0.411835       -11.2066
  62   2.0000      -0.400105       -10.8874
  63   2.0000      -0.336167        -9.1476
  64   2.0000      -0.329320        -8.9612
  65   2.0000      -0.323461        -8.8018
  66   2.0000      -0.302364        -8.2277
  67   0.0000       0.050292         1.3685
  68   0.0000       0.058227         1.5844
  69   0.0000       0.115215         3.1352
  70   0.0000       0.127169         3.4605
  71   0.0000       0.133710         3.6384

MULLIKEN ATOMIC CHARGES
-----------------------
   0 S :    0.135186
   1 C :   -0.132438
   2 C :   -0.075642
   3 C :    0.014252
   4 C :   -0.166267
   5 H :    0.031945
   6 C :    0.120611
   7 H :    0.006376
   8 H :    0.007518
   9 C :   -0.133962
  10 H :    0.039738
  11 H :    0.042683
  12 C :   -0.035792
  13 H :    0.060530
  14 H :    0.014048
  15 H :    0.033135
  16 S :    0.148222
  17 C :   -0.098248
  18 C :   -0.086226
  19 C :   -0.039246
  20 C :   -0.209876
  21 H :    0.025565
  22 C :    0.145695
  23 H :    0.018338
  24 H :    0.018944
  25 C :   -0.124885
  26 H :    0.025970
  27 H :    0.045153
  28 C :   -0.009489
  29 H :    0.018399
  30 H :    0.027007
  31 H :    0.042655
  32 H :    0.040695
  33 H :    0.049405
Sum of atomic charges:    0.0000000

LOEWDIN ATOMIC CHARGES
----------------------
   0 S :    0.426122
   1 C :   -0.186857
   2 C :   -0.062638
   3 C :   -0.062110
   4 C :   -0.223938
   5 H :    0.036685
   6 C :   -0.038292
   7 H :    0.028452
   8 H :    0.022420
   9 C :   -0.034124
  10 H :    0.031379
  11 H :    0.028079
  12 C :   -0.068784
  13 H :    0.032792
  14 H :    0.018216
  15 H :    0.028989
  16 S :    0.469123
  17 C :   -0.217185
  18 C :   -0.092267
  19 C :   -0.042301
  20 C :   -0.237427
  21 H :    0.037088
  22 C :   -0.021720
  23 H :    0.026299
  24 H :    0.022519
  25 C :   -0.048239
  26 H :    0.018939
  27 H :    0.038784
  28 C :   -0.067361
  29 H :    0.025772
  30 H :    0.025882
  31 H :    0.028946
  32 H :    0.025081
  33 H :    0.031678

  Mayer bond orders larger than 0.100000
B(  0-S ,  1-C ) :   1.1294 B(  0-S ,  4-C ) :   1.1611 B(  1-C ,  2-C ) :   1.6254
B(  1-C , 32-H ) :   0.9654 B(  2-C ,  3-C ) :   1.2066 B(  2-C ,  6-C ) :   1.0489
B(  3-C ,  4-C ) :   1.5998 B(  3-C ,  5-H ) :   0.9806 B(  4-C , 20-C ) :   1.0090
B(  6-C ,  7-H ) :   0.9352 B(  6-C ,  8-H ) :   0.9280 B(  6-C ,  9-C ) :   1.0562
B(  9-C , 10-H ) :   0.9573 B(  9-C , 11-H ) :   0.9572 B(  9-C , 12-C ) :   1.0661
B( 12-C , 13-H ) :   0.9737 B( 12-C , 14-H ) :   0.9732 B( 12-C , 15-H ) :   0.9740
B( 16-S , 17-C ) :   1.2041 B( 16-S , 20-C ) :   1.1821 B( 17-C , 18-C ) :   1.5801
B( 17-C , 20-C ) :   0.1071 B( 17-C , 33-H ) :   0.9571 B( 18-C , 19-C ) :   1.2720
B( 18-C , 21-H ) :   0.9876 B( 19-C , 20-C ) :   1.5550 B( 19-C , 22-C ) :   0.9912
B( 22-C , 23-H ) :   0.9314 B( 22-C , 24-H ) :   0.9302 B( 22-C , 25-C ) :   1.0741
B( 25-C , 26-H ) :   0.9502 B( 25-C , 27-H ) :   0.9560 B( 25-C , 28-C ) :   1.0834
B( 28-C , 29-H ) :   0.9724 B( 28-C , 30-H ) :   0.9677 B( 28-C , 31-H ) :   0.9715

Dispersion correction           -0.014497057
FINAL SINGLE POINT ENERGY     -1339.843331566641

DIPOLE MOMENT
-------------
                                X             Y             Z
Electronic contribution:     -1.16211     -14.43352       4.23964
Nuclear contribution   :      1.12814      14.83246      -4.53744
                        -----------------------------------------
Total Dipole Moment    :     -0.03397       0.39894      -0.29780
                        -----------------------------------------
Magnitude (a.u.)       :      0.49899
Magnitude (Debye)      :      1.26832

Rotational constants in cm-1:     0.023855     0.007387     0.006665
Rotational constants in MHz :   715.161778   221.441863   199.802652

                             ****ORCA TERMINATED NORMALLY****
TOTAL RUN TIME: 0 days 0 hours 0 minutes 21 seconds 523 msec
