                         Program Version 4.2.1 -  RELEASE  -
|  1> ! wB97X-D3 SP def2-SVP
|  2> %pal
|  3> nprocs 24
|  4> end
|  5>
|  6> * xyz 0 1
|  7> S 	 -38.9307 	 -8.29611 	 20.4683
|  8> C 	 -39.0951 	 -9.69955 	 21.5737
|  9> C 	 -39.2183 	 -10.8752 	 20.8972
| 10> C 	 -39.4356 	 -10.6179 	 19.5145
| 11> C 	 -39.1975 	 -9.34364 	 19.1061
| 12> H 	 -39.6519 	 -11.3095 	 18.7586
| 13> C 	 -39.3889 	 -12.1671 	 21.5223
| 14> H 	 -40.306 	 -12.5731 	 21.1612
| 15> H 	 -39.6994 	 -12.0264 	 22.5888
| 16> C 	 -38.1052 	 -13.0569 	 21.5022
| 17> H 	 -38.2971 	 -14.1023 	 21.4095
| 18> H 	 -37.5595 	 -12.9348 	 20.6264
| 19> C 	 -37.1988 	 -12.7412 	 22.6976
| 20> H 	 -36.1886 	 -13.1119 	 22.7097
| 21> H 	 -36.9198 	 -11.6211 	 22.73
| 22> H 	 -37.7631 	 -13.085 	 23.5743
| 23> S 	 -40.4331 	 -7.6455 	 17.5348
| 24> C 	 -40.2884 	 -7.69065 	 15.8057
| 25> C 	 -39.393 	 -8.66177 	 15.3791
| 26> C 	 -38.7746 	 -9.27606 	 16.5452
| 27> C 	 -39.2407 	 -8.82549 	 17.7439
| 28> H 	 -39.2427 	 -8.9225 	 14.3203
| 29> C 	 -37.8207 	 -10.4424 	 16.3864
| 30> H 	 -38.2234 	 -11.4692 	 16.4705
| 31> H 	 -37.1043 	 -10.2528 	 17.1818
| 32> C 	 -36.9022 	 -10.4028 	 15.0951
| 33> H 	 -37.5305 	 -10.5648 	 14.2254
| 34> H 	 -36.2306 	 -11.2536 	 15.214
| 35> C 	 -36.1076 	 -9.08904 	 14.877
| 36> H 	 -35.5841 	 -8.69872 	 15.7793
| 37> H 	 -36.7713 	 -8.26897 	 14.4581
| 38> H 	 -35.2944 	 -9.313 	 14.2497
| 39> H 	 -38.972 	 -9.53152 	 22.6204
| 40> H 	 -41.0042 	 -7.26162 	 15.0626
| 41> *
| 42>
| 43>                          ****END OF INPUT****

CARTESIAN COORDINATES (ANGSTROEM)
---------------------------------
  S    -38.930700   -8.296110   20.468300
  C    -39.095100   -9.699550   21.573700
  C    -39.218300  -10.875200   20.897200
  C    -39.435600  -10.617900   19.514500
  C    -39.197500   -9.343640   19.106100
  H    -39.651900  -11.309500   18.758600
  C    -39.388900  -12.167100   21.522300
  H    -40.306000  -12.573100   21.161200
  H    -39.699400  -12.026400   22.588800
  C    -38.105200  -13.056900   21.502200
  H    -38.297100  -14.102300   21.409500
  H    -37.559500  -12.934800   20.626400
  C    -37.198800  -12.741200   22.697600
  H    -36.188600  -13.111900   22.709700
  H    -36.919800  -11.621100   22.730000
  H    -37.763100  -13.085000   23.574300
  S    -40.433100   -7.645500   17.534800
  C    -40.288400   -7.690650   15.805700
  C    -39.393000   -8.661770   15.379100
  C    -38.774600   -9.276060   16.545200
  C    -39.240700   -8.825490   17.743900
  H    -39.242700   -8.922500   14.320300
  C    -37.820700  -10.442400   16.386400
  H    -38.223400  -11.469200   16.470500
  H    -37.104300  -10.252800   17.181800
  C    -36.902200  -10.402800   15.095100
  H    -37.530500  -10.564800   14.225400
  H    -36.230600  -11.253600   15.214000
  C    -36.107600   -9.089040   14.877000
  H    -35.584100   -8.698720   15.779300
  H    -36.771300   -8.268970   14.458100
  H    -35.294400   -9.313000   14.249700
  H    -38.972000   -9.531520   22.620400
  H    -41.004200   -7.261620   15.062600

 Total Charge           Charge          ....    0
 Multiplicity           Mult            ....    1
 Number of Electrons    NEL             ....  134
 Basis Dimension        Dim             ....  322

ORBITAL ENERGIES
----------------

  NO   OCC          E(Eh)            E(eV)
   0   2.0000     -88.963351     -2420.8158
   1   2.0000     -88.961018     -2420.7524
   2   2.0000     -10.324989      -280.9572
   3   2.0000     -10.318657      -280.7849
   4   2.0000     -10.317836      -280.7626
   5   2.0000     -10.312350      -280.6133
   6   2.0000     -10.301989      -280.3314
   7   2.0000     -10.298757      -280.2434
   8   2.0000     -10.296451      -280.1807
   9   2.0000     -10.290608      -280.0217
  10   2.0000     -10.290471      -280.0180
  11   2.0000     -10.289024      -279.9786
  12   2.0000     -10.284901      -279.8664
  13   2.0000     -10.283237      -279.8211
  14   2.0000     -10.282998      -279.8146
  15   2.0000     -10.278472      -279.6914
  16   2.0000      -8.079604      -219.8572
  17   2.0000      -8.075830      -219.7545
  18   2.0000      -6.038062      -164.3040
  19   2.0000      -6.034346      -164.2029
  20   2.0000      -6.033785      -164.1876
  21   2.0000      -6.030420      -164.0961
  22   2.0000      -6.030406      -164.0957
  23   2.0000      -6.026497      -163.9893
  24   2.0000      -1.015003       -27.6196
  25   2.0000      -0.988716       -26.9043
  26   2.0000      -0.917544       -24.9677
  27   2.0000      -0.902442       -24.5567
  28   2.0000      -0.871350       -23.7106
  29   2.0000      -0.849704       -23.1216
  30   2.0000      -0.842539       -22.9266
  31   2.0000      -0.818570       -22.2744
  32   2.0000      -0.781735       -21.2721
  33   2.0000      -0.771986       -21.0068
  34   2.0000      -0.715010       -19.4564
  35   2.0000      -0.700469       -19.0607
  36   2.0000      -0.690978       -18.8025
  37   2.0000      -0.660230       -17.9658
  38   2.0000      -0.648889       -17.6572
  39   2.0000      -0.622607       -16.9420
  40   2.0000      -0.593833       -16.1590
  41   2.0000      -0.575190       -15.6517
  42   2.0000      -0.557260       -15.1638
  43   2.0000      -0.550628       -14.9833
  44   2.0000      -0.541981       -14.7481
  45   2.0000      -0.534881       -14.5548
  46   2.0000      -0.517635       -14.0856
  47   2.0000      -0.515987       -14.0407
  48   2.0000      -0.499108       -13.5814
  49   2.0000      -0.495994       -13.4967
  50   2.0000      -0.493555       -13.4303
  51   2.0000      -0.476691       -12.9714
  52   2.0000      -0.464007       -12.6263
  53   2.0000      -0.461379       -12.5548
  54   2.0000      -0.455895       -12.4055
  55   2.0000      -0.448374       -12.2009
  56   2.0000      -0.443194       -12.0599
  57   2.0000      -0.437887       -11.9155
  58   2.0000      -0.436988       -11.8911
  59   2.0000      -0.424411       -11.5488
  60   2.0000      -0.417652       -11.3649
  61   2.0000      -0.414522       -11.2797
  62   2.0000      -0.408735       -11.1223
  63   2.0000      -0.347031        -9.4432
  64   2.0000      -0.331377        -9.0172
  65   2.0000      -0.325158        -8.8480
  66   2.0000      -0.298398        -8.1198
  67   0.0000       0.037245         1.0135
  68   0.0000       0.069956         1.9036
  69   0.0000       0.113571         3.0904
  70   0.0000       0.117174         3.1885
  71   0.0000       0.134110         3.6493

MULLIKEN ATOMIC CHARGES
-----------------------
   0 S :    0.088133
   1 C :   -0.120848
   2 C :   -0.053211
   3 C :    0.053022
   4 C :   -0.157055
   5 H :   -0.016863
   6 C :    0.051276
   7 H :    0.021916
   8 H :    0.017718
   9 C :   -0.001801
  10 H :    0.018824
  11 H :    0.005814
  12 C :   -0.082070
  13 H :    0.032053
  14 H :    0.038311
  15 H :    0.038979
  16 S :    0.115100
  17 C :   -0.097624
  18 C :   -0.059878
  19 C :   -0.065725
  20 C :   -0.120620
  21 H :    0.037641
  22 C :    0.047944
  23 H :    0.052461
  24 H :    0.029638
  25 C :   -0.097701
  26 H :    0.026842
  27 H :    0.030544
  28 C :   -0.059195
  29 H :    0.033815
  30 H :    0.050861
  31 H :    0.025533
  32 H :    0.044938
  33 H :    0.071228
Sum of atomic charges:   -0.0000000

LOEWDIN ATOMIC CHARGES
----------------------
   0 S :    0.377719
   1 C :   -0.168478
   2 C :   -0.063001
   3 C :   -0.055545
   4 C :   -0.193607
   5 H :    0.022241
   6 C :   -0.031176
   7 H :    0.031539
   8 H :    0.036274
   9 C :   -0.034377
  10 H :    0.022576
  11 H :    0.016011
  12 C :   -0.071705
  13 H :    0.023077
  14 H :    0.035615
  15 H :    0.026084
  16 S :    0.442977
  17 C :   -0.200715
  18 C :   -0.072989
  19 C :   -0.061552
  20 C :   -0.220695
  21 H :    0.037714
  22 C :   -0.038040
  23 H :    0.032908
  24 H :    0.032736
  25 C :   -0.039941
  26 H :    0.017182
  27 H :    0.025139
  28 C :   -0.072126
  29 H :    0.029728
  30 H :    0.034402
  31 H :    0.019991
  32 H :    0.020153
  33 H :    0.039879

  Mayer bond orders larger than 0.100000
B(  0-S ,  1-C ) :   1.1213 B(  0-S ,  4-C ) :   1.1422 B(  1-C ,  2-C ) :   1.6212
B(  1-C , 32-H ) :   0.9716 B(  2-C ,  3-C ) :   1.2005 B(  2-C ,  6-C ) :   1.0386
B(  3-C ,  4-C ) :   1.6203 B(  3-C ,  5-H ) :   1.0019 B(  4-C , 20-C ) :   0.9922
B(  6-C ,  7-H ) :   0.9379 B(  6-C ,  8-H ) :   0.9457 B(  6-C ,  9-C ) :   1.0328
B(  9-C , 10-H ) :   0.9550 B(  9-C , 11-H ) :   0.9573 B(  9-C , 12-C ) :   1.0731
B( 12-C , 13-H ) :   0.9739 B( 12-C , 14-H ) :   0.9723 B( 12-C , 15-H ) :   0.9780
B( 16-S , 17-C ) :   1.1700 B( 16-S , 20-C ) :   1.1546 B( 17-C , 18-C ) :   1.6086
B( 17-C , 33-H ) :   0.9569 B( 18-C , 19-C ) :   1.2322 B( 18-C , 21-H ) :   0.9851
B( 19-C , 20-C ) :   1.6340 B( 19-C , 22-C ) :   1.0243 B( 22-C , 23-H ) :   0.9407
B( 22-C , 24-H ) :   0.9362 B( 22-C , 25-C ) :   1.0764 B( 25-C , 26-H ) :   0.9510
B( 25-C , 27-H ) :   0.9594 B( 25-C , 28-C ) :   1.0793 B( 28-C , 29-H ) :   0.9740
B( 28-C , 30-H ) :   0.9703 B( 28-C , 31-H ) :   0.9742

Dispersion correction           -0.014403027
FINAL SINGLE POINT ENERGY     -1339.864113934737

DIPOLE MOMENT
-------------
                                X             Y             Z
Electronic contribution:    -15.27791      19.95178       1.56618
Nuclear contribution   :     15.37941     -20.71787      -1.78217
                        -----------------------------------------
Total Dipole Moment    :      0.10151      -0.76609      -0.21600
                        -----------------------------------------
Magnitude (a.u.)       :      0.80241
Magnitude (Debye)      :      2.03956

Rotational constants in cm-1:     0.020572     0.008243     0.006603
Rotational constants in MHz :   616.728103   247.107686   197.965841

                             ****ORCA TERMINATED NORMALLY****
TOTAL RUN TIME: 0 days 0 hours 0 minutes 21 seconds 657 msec
