                         Program Version 4.2.1 -  RELEASE  -
|  1> ! wB97X-D3 SP def2-SVP
|  2> %pal
|  3> nprocs 24
|  4> end
|  5>
|  6> * xyz 0 1
|  7> S 	 -125.228 	 67.656 	 -42.5312
|  8> C 	 -126.542 	 68.5143 	 -41.8504
|  9> C 	 -126.363 	 68.8496 	 -40.4569
| 10> C 	 -125.135 	 68.2288 	 -39.979
| 11> C 	 -124.374 	 67.7388 	 -41.031
| 12> H 	 -124.807 	 68.1621 	 -38.895
| 13> C 	 -127.473 	 69.4495 	 -39.5327
| 14> H 	 -128.147 	 70.0141 	 -40.2071
| 15> H 	 -127.086 	 70.0775 	 -38.7184
| 16> C 	 -128.292 	 68.5167 	 -38.7659
| 17> H 	 -128.365 	 67.6388 	 -39.3673
| 18> H 	 -127.852 	 68.2623 	 -37.7899
| 19> C 	 -129.738 	 68.9762 	 -38.6678
| 20> H 	 -130.215 	 69.5333 	 -39.5087
| 21> H 	 -130.398 	 68.1153 	 -38.5439
| 22> H 	 -129.86 	 69.737 	 -37.8587
| 23> S 	 -122.69 	 66.0028 	 -39.6304
| 24> C 	 -120.946 	 65.8676 	 -40.0418
| 25> C 	 -120.732 	 66.6893 	 -41.1399
| 26> C 	 -121.933 	 67.3051 	 -41.6449
| 27> C 	 -123.084 	 67.1141 	 -40.8723
| 28> H 	 -119.744 	 66.8486 	 -41.5156
| 29> C 	 -121.865 	 68.2522 	 -42.7956
| 30> H 	 -122.634 	 69.0947 	 -42.731
| 31> H 	 -121.952 	 67.6462 	 -43.6184
| 32> C 	 -120.557 	 68.9544 	 -42.9362
| 33> H 	 -119.851 	 68.3827 	 -43.4179
| 34> H 	 -120.201 	 69.3044 	 -42.0034
| 35> C 	 -120.76 	 70.0111 	 -43.9645
| 36> H 	 -121.635 	 70.652 	 -43.8623
| 37> H 	 -120.952 	 69.6289 	 -44.9614
| 38> H 	 -119.834 	 70.4615 	 -44.1974
| 39> H 	 -127.434 	 68.781 	 -42.3344
| 40> H 	 -120.187 	 65.3007 	 -39.514
| 41> *
| 42>
| 43>                          ****END OF INPUT****

CARTESIAN COORDINATES (ANGSTROEM)
---------------------------------
  S    -125.228000   67.656000  -42.531200
  C    -126.542000   68.514300  -41.850400
  C    -126.363000   68.849600  -40.456900
  C    -125.135000   68.228800  -39.979000
  C    -124.374000   67.738800  -41.031000
  H    -124.807000   68.162100  -38.895000
  C    -127.473000   69.449500  -39.532700
  H    -128.147000   70.014100  -40.207100
  H    -127.086000   70.077500  -38.718400
  C    -128.292000   68.516700  -38.765900
  H    -128.365000   67.638800  -39.367300
  H    -127.852000   68.262300  -37.789900
  C    -129.738000   68.976200  -38.667800
  H    -130.215000   69.533300  -39.508700
  H    -130.398000   68.115300  -38.543900
  H    -129.860000   69.737000  -37.858700
  S    -122.690000   66.002800  -39.630400
  C    -120.946000   65.867600  -40.041800
  C    -120.732000   66.689300  -41.139900
  C    -121.933000   67.305100  -41.644900
  C    -123.084000   67.114100  -40.872300
  H    -119.744000   66.848600  -41.515600
  C    -121.865000   68.252200  -42.795600
  H    -122.634000   69.094700  -42.731000
  H    -121.952000   67.646200  -43.618400
  C    -120.557000   68.954400  -42.936200
  H    -119.851000   68.382700  -43.417900
  H    -120.201000   69.304400  -42.003400
  C    -120.760000   70.011100  -43.964500
  H    -121.635000   70.652000  -43.862300
  H    -120.952000   69.628900  -44.961400
  H    -119.834000   70.461500  -44.197400
  H    -127.434000   68.781000  -42.334400
  H    -120.187000   65.300700  -39.514000

 Total Charge           Charge          ....    0
 Multiplicity           Mult            ....    1
 Number of Electrons    NEL             ....  134
 Basis Dimension        Dim             ....  322

ORBITAL ENERGIES
----------------

  NO   OCC          E(Eh)            E(eV)
   0   2.0000     -88.975492     -2421.1462
   1   2.0000     -88.961586     -2420.7678
   2   2.0000     -10.328065      -281.0409
   3   2.0000     -10.320895      -280.8458
   4   2.0000     -10.320797      -280.8432
   5   2.0000     -10.315650      -280.7031
   6   2.0000     -10.312219      -280.6097
   7   2.0000     -10.303512      -280.3728
   8   2.0000     -10.295064      -280.1429
   9   2.0000     -10.293246      -280.0935
  10   2.0000     -10.292451      -280.0718
  11   2.0000     -10.282258      -279.7945
  12   2.0000     -10.278147      -279.6826
  13   2.0000     -10.276853      -279.6474
  14   2.0000     -10.266977      -279.3786
  15   2.0000     -10.265747      -279.3452
  16   2.0000      -8.090350      -220.1496
  17   2.0000      -8.075952      -219.7578
  18   2.0000      -6.048721      -164.5941
  19   2.0000      -6.044879      -164.4895
  20   2.0000      -6.041201      -164.3894
  21   2.0000      -6.034600      -164.2098
  22   2.0000      -6.030335      -164.0938
  23   2.0000      -6.026747      -163.9961
  24   2.0000      -1.008150       -27.4331
  25   2.0000      -0.982278       -26.7291
  26   2.0000      -0.925228       -25.1767
  27   2.0000      -0.922244       -25.0955
  28   2.0000      -0.870996       -23.7010
  29   2.0000      -0.853724       -23.2310
  30   2.0000      -0.845700       -23.0127
  31   2.0000      -0.813023       -22.1235
  32   2.0000      -0.781613       -21.2688
  33   2.0000      -0.766348       -20.8534
  34   2.0000      -0.708942       -19.2913
  35   2.0000      -0.702761       -19.1231
  36   2.0000      -0.691809       -18.8251
  37   2.0000      -0.659830       -17.9549
  38   2.0000      -0.636462       -17.3190
  39   2.0000      -0.615537       -16.7496
  40   2.0000      -0.599659       -16.3176
  41   2.0000      -0.590464       -16.0674
  42   2.0000      -0.583857       -15.8876
  43   2.0000      -0.564320       -15.3559
  44   2.0000      -0.530697       -14.4410
  45   2.0000      -0.523719       -14.2511
  46   2.0000      -0.517391       -14.0789
  47   2.0000      -0.511689       -13.9238
  48   2.0000      -0.509321       -13.8593
  49   2.0000      -0.496242       -13.5034
  50   2.0000      -0.484907       -13.1950
  51   2.0000      -0.480550       -13.0764
  52   2.0000      -0.477711       -12.9992
  53   2.0000      -0.470520       -12.8035
  54   2.0000      -0.457960       -12.4617
  55   2.0000      -0.448323       -12.1995
  56   2.0000      -0.444157       -12.0861
  57   2.0000      -0.440572       -11.9886
  58   2.0000      -0.428094       -11.6490
  59   2.0000      -0.421243       -11.4626
  60   2.0000      -0.417144       -11.3511
  61   2.0000      -0.406350       -11.0574
  62   2.0000      -0.403375       -10.9764
  63   2.0000      -0.350607        -9.5405
  64   2.0000      -0.333164        -9.0658
  65   2.0000      -0.322283        -8.7698
  66   2.0000      -0.286435        -7.7943
  67   0.0000       0.028837         0.7847
  68   0.0000       0.075099         2.0436
  69   0.0000       0.107466         2.9243
  70   0.0000       0.115984         3.1561
  71   0.0000       0.132761         3.6126

MULLIKEN ATOMIC CHARGES
-----------------------
   0 S :    0.153683
   1 C :   -0.101052
   2 C :   -0.096484
   3 C :   -0.018062
   4 C :   -0.168729
   5 H :    0.047831
   6 C :    0.053125
   7 H :    0.021185
   8 H :    0.030812
   9 C :   -0.029550
  10 H :    0.016629
  11 H :    0.038401
  12 C :   -0.098684
  13 H :    0.031661
  14 H :    0.039500
  15 H :    0.032229
  16 S :    0.089906
  17 C :   -0.096258
  18 C :   -0.022599
  19 C :   -0.078444
  20 C :   -0.103544
  21 H :    0.016531
  22 C :    0.066837
  23 H :    0.049839
  24 H :    0.009584
  25 C :   -0.038576
  26 H :    0.004827
  27 H :    0.028132
  28 C :   -0.006215
  29 H :    0.025720
  30 H :    0.000038
  31 H :    0.010747
  32 H :    0.029264
  33 H :    0.061717
Sum of atomic charges:   -0.0000000

LOEWDIN ATOMIC CHARGES
----------------------
   0 S :    0.456349
   1 C :   -0.209772
   2 C :   -0.053935
   3 C :   -0.064902
   4 C :   -0.203708
   5 H :    0.044090
   6 C :   -0.036016
   7 H :    0.031363
   8 H :    0.034866
   9 C :   -0.047388
  10 H :    0.021728
  11 H :    0.029154
  12 C :   -0.072223
  13 H :    0.028238
  14 H :    0.027697
  15 H :    0.026194
  16 S :    0.401517
  17 C :   -0.177005
  18 C :   -0.068515
  19 C :   -0.065141
  20 C :   -0.216942
  21 H :    0.028667
  22 C :   -0.035383
  23 H :    0.037359
  24 H :    0.023339
  25 C :   -0.034322
  26 H :    0.017394
  27 H :    0.019833
  28 C :   -0.061569
  29 H :    0.023406
  30 H :    0.025682
  31 H :    0.020624
  32 H :    0.015494
  33 H :    0.033826

  Mayer bond orders larger than 0.100000
B(  0-S ,  1-C ) :   1.1644 B(  0-S ,  4-C ) :   1.1640 B(  1-C ,  2-C ) :   1.5701
B(  1-C , 32-H ) :   0.9713 B(  2-C ,  3-C ) :   1.2510 B(  2-C ,  6-C ) :   1.0472
B(  3-C ,  4-C ) :   1.5500 B(  3-C ,  5-H ) :   0.9840 B(  4-C , 20-C ) :   1.0535
B(  6-C ,  7-H ) :   0.9436 B(  6-C ,  8-H ) :   0.9399 B(  6-C ,  9-C ) :   1.0615
B(  9-C , 10-H ) :   0.9542 B(  9-C , 11-H ) :   0.9511 B(  9-C , 12-C ) :   1.0791
B( 12-C , 13-H ) :   0.9744 B( 12-C , 14-H ) :   0.9777 B( 12-C , 15-H ) :   0.9754
B( 16-S , 17-C ) :   1.1499 B( 16-S , 20-C ) :   1.1322 B( 17-C , 18-C ) :   1.5753
B( 17-C , 33-H ) :   0.9693 B( 18-C , 19-C ) :   1.2677 B( 18-C , 21-H ) :   0.9902
B( 19-C , 20-C ) :   1.5555 B( 19-C , 22-C ) :   1.0370 B( 22-C , 23-H ) :   0.9468
B( 22-C , 24-H ) :   0.9004 B( 22-C , 25-C ) :   1.1116 B( 25-C , 26-H ) :   0.9241
B( 25-C , 27-H ) :   0.9583 B( 25-C , 28-C ) :   1.0993 B( 28-C , 29-H ) :   0.9710
B( 28-C , 30-H ) :   0.9610 B( 28-C , 31-H ) :   0.9645

Dispersion correction           -0.013552330
FINAL SINGLE POINT ENERGY     -1339.838190578653

DIPOLE MOMENT
-------------
                                X             Y             Z
Electronic contribution:      6.68931     -14.76614       0.73765
Nuclear contribution   :     -6.69889      14.99385      -0.81576
                        -----------------------------------------
Total Dipole Moment    :     -0.00958       0.22770      -0.07811
                        -----------------------------------------
Magnitude (a.u.)       :      0.24092
Magnitude (Debye)      :      0.61237

Rotational constants in cm-1:     0.022824     0.007264     0.006025
Rotational constants in MHz :   684.251971   217.757408   180.633681

                             ****ORCA TERMINATED NORMALLY****
TOTAL RUN TIME: 0 days 0 hours 0 minutes 20 seconds 51 msec
