                         Program Version 4.2.1 -  RELEASE  -
|  1> ! wB97X-D3 SP def2-SVP
|  2> %pal
|  3> nprocs 24
|  4> end
|  5>
|  6> * xyz 0 1
|  7> S 	 -135.877 	 11.889 	 -5.08735
|  8> C 	 -134.32 	 12.1805 	 -4.26026
|  9> C 	 -134.431 	 12.1687 	 -2.92502
| 10> C 	 -135.762 	 11.7681 	 -2.46893
| 11> C 	 -136.565 	 11.3895 	 -3.55809
| 12> H 	 -136.092 	 11.6733 	 -1.46826
| 13> C 	 -133.297 	 12.5904 	 -1.98295
| 14> H 	 -132.652 	 13.1454 	 -2.56382
| 15> H 	 -132.894 	 11.649 	 -1.67694
| 16> C 	 -133.648 	 13.3112 	 -0.699449
| 17> H 	 -134.177 	 14.2507 	 -0.881481
| 18> H 	 -134.354 	 12.7254 	 -0.107988
| 19> C 	 -132.402 	 13.4802 	 0.169273
| 20> H 	 -131.649 	 14.1428 	 -0.290053
| 21> H 	 -132.725 	 13.8606 	 1.17393
| 22> H 	 -132.01 	 12.406 	 0.183789
| 23> S 	 -139.2 	 12.0566 	 -3.8743
| 24> C 	 -140.467 	 10.8871 	 -3.59141
| 25> C 	 -139.935 	 9.64334 	 -3.17104
| 26> C 	 -138.487 	 9.70941 	 -3.00388
| 27> C 	 -137.9 	 10.8943 	 -3.5173
| 28> H 	 -140.517 	 8.7633 	 -2.96805
| 29> C 	 -137.69 	 8.64943 	 -2.27059
| 30> H 	 -136.677 	 8.9259 	 -2.6042
| 31> H 	 -137.908 	 7.62604 	 -2.56854
| 32> C 	 -137.913 	 8.5135 	 -0.750154
| 33> H 	 -138.969 	 8.21449 	 -0.583652
| 34> H 	 -137.906 	 9.53988 	 -0.379958
| 35> C 	 -136.784 	 7.6633 	 -0.191455
| 36> H 	 -136.781 	 7.62364 	 0.931312
| 37> H 	 -135.822 	 8.09609 	 -0.464671
| 38> H 	 -136.824 	 6.662 	 -0.622188
| 39> H 	 -133.459 	 12.552 	 -4.81506
| 40> H 	 -141.478 	 11.1974 	 -3.59533
| 41> *
| 42>
| 43>                          ****END OF INPUT****

CARTESIAN COORDINATES (ANGSTROEM)
---------------------------------
  S    -135.877000   11.889000   -5.087350
  C    -134.320000   12.180500   -4.260260
  C    -134.431000   12.168700   -2.925020
  C    -135.762000   11.768100   -2.468930
  C    -136.565000   11.389500   -3.558090
  H    -136.092000   11.673300   -1.468260
  C    -133.297000   12.590400   -1.982950
  H    -132.652000   13.145400   -2.563820
  H    -132.894000   11.649000   -1.676940
  C    -133.648000   13.311200   -0.699449
  H    -134.177000   14.250700   -0.881481
  H    -134.354000   12.725400   -0.107988
  C    -132.402000   13.480200    0.169273
  H    -131.649000   14.142800   -0.290053
  H    -132.725000   13.860600    1.173930
  H    -132.010000   12.406000    0.183789
  S    -139.200000   12.056600   -3.874300
  C    -140.467000   10.887100   -3.591410
  C    -139.935000    9.643340   -3.171040
  C    -138.487000    9.709410   -3.003880
  C    -137.900000   10.894300   -3.517300
  H    -140.517000    8.763300   -2.968050
  C    -137.690000    8.649430   -2.270590
  H    -136.677000    8.925900   -2.604200
  H    -137.908000    7.626040   -2.568540
  C    -137.913000    8.513500   -0.750154
  H    -138.969000    8.214490   -0.583652
  H    -137.906000    9.539880   -0.379958
  C    -136.784000    7.663300   -0.191455
  H    -136.781000    7.623640    0.931312
  H    -135.822000    8.096090   -0.464671
  H    -136.824000    6.662000   -0.622188
  H    -133.459000   12.552000   -4.815060
  H    -141.478000   11.197400   -3.595330

 Total Charge           Charge          ....    0
 Multiplicity           Mult            ....    1
 Number of Electrons    NEL             ....  134
 Basis Dimension        Dim             ....  322

ORBITAL ENERGIES
----------------

  NO   OCC          E(Eh)            E(eV)
   0   2.0000     -88.963636     -2420.8236
   1   2.0000     -88.962928     -2420.8044
   2   2.0000     -10.330648      -281.1112
   3   2.0000     -10.326011      -280.9850
   4   2.0000     -10.321724      -280.8684
   5   2.0000     -10.311482      -280.5897
   6   2.0000     -10.308980      -280.5216
   7   2.0000     -10.301674      -280.3228
   8   2.0000     -10.300473      -280.2901
   9   2.0000     -10.299527      -280.2644
  10   2.0000     -10.291240      -280.0389
  11   2.0000     -10.288655      -279.9685
  12   2.0000     -10.287273      -279.9309
  13   2.0000     -10.287230      -279.9297
  14   2.0000     -10.286433      -279.9081
  15   2.0000     -10.284062      -279.8436
  16   2.0000      -8.078236      -219.8200
  17   2.0000      -8.077483      -219.7995
  18   2.0000      -6.036801      -164.2697
  19   2.0000      -6.036078      -164.2500
  20   2.0000      -6.033009      -164.1665
  21   2.0000      -6.031880      -164.1358
  22   2.0000      -6.028697      -164.0492
  23   2.0000      -6.028285      -164.0380
  24   2.0000      -1.001986       -27.2654
  25   2.0000      -0.976386       -26.5688
  26   2.0000      -0.919312       -25.0157
  27   2.0000      -0.910069       -24.7642
  28   2.0000      -0.873629       -23.7726
  29   2.0000      -0.848465       -23.0879
  30   2.0000      -0.842361       -22.9218
  31   2.0000      -0.811946       -22.0942
  32   2.0000      -0.780957       -21.2509
  33   2.0000      -0.767689       -20.8899
  34   2.0000      -0.710970       -19.3465
  35   2.0000      -0.700403       -19.0589
  36   2.0000      -0.690282       -18.7835
  37   2.0000      -0.661066       -17.9885
  38   2.0000      -0.643660       -17.5149
  39   2.0000      -0.617931       -16.8148
  40   2.0000      -0.594442       -16.1756
  41   2.0000      -0.583727       -15.8840
  42   2.0000      -0.569303       -15.4915
  43   2.0000      -0.561027       -15.2663
  44   2.0000      -0.528336       -14.3767
  45   2.0000      -0.523395       -14.2423
  46   2.0000      -0.517738       -14.0884
  47   2.0000      -0.514702       -14.0057
  48   2.0000      -0.505309       -13.7501
  49   2.0000      -0.500001       -13.6057
  50   2.0000      -0.488134       -13.2828
  51   2.0000      -0.483250       -13.1499
  52   2.0000      -0.473234       -12.8774
  53   2.0000      -0.466106       -12.6834
  54   2.0000      -0.456308       -12.4168
  55   2.0000      -0.449369       -12.2280
  56   2.0000      -0.440126       -11.9764
  57   2.0000      -0.437814       -11.9135
  58   2.0000      -0.434969       -11.8361
  59   2.0000      -0.427041       -11.6204
  60   2.0000      -0.419081       -11.4038
  61   2.0000      -0.417830       -11.3697
  62   2.0000      -0.412712       -11.2305
  63   2.0000      -0.336159        -9.1474
  64   2.0000      -0.330109        -8.9827
  65   2.0000      -0.321642        -8.7523
  66   2.0000      -0.297717        -8.1013
  67   0.0000       0.032076         0.8728
  68   0.0000       0.055705         1.5158
  69   0.0000       0.107409         2.9227
  70   0.0000       0.112892         3.0720
  71   0.0000       0.126666         3.4468

MULLIKEN ATOMIC CHARGES
-----------------------
   0 S :    0.104243
   1 C :   -0.140483
   2 C :   -0.077753
   3 C :    0.057473
   4 C :   -0.180332
   5 H :    0.002267
   6 C :    0.129285
   7 H :    0.000520
   8 H :    0.026928
   9 C :   -0.099618
  10 H :    0.032986
  11 H :    0.025509
  12 C :   -0.068687
  13 H :    0.043541
  14 H :    0.049832
  15 H :    0.034801
  16 S :    0.097581
  17 C :   -0.085176
  18 C :   -0.014874
  19 C :   -0.036240
  20 C :   -0.158016
  21 H :    0.020389
  22 C :    0.020045
  23 H :    0.035838
  24 H :    0.016517
  25 C :   -0.065433
  26 H :    0.032426
  27 H :    0.019020
  28 C :   -0.031174
  29 H :    0.043689
  30 H :    0.028126
  31 H :    0.032465
  32 H :    0.047812
  33 H :    0.056491
Sum of atomic charges:   -0.0000000

LOEWDIN ATOMIC CHARGES
----------------------
   0 S :    0.387719
   1 C :   -0.187007
   2 C :   -0.057867
   3 C :   -0.049364
   4 C :   -0.195404
   5 H :    0.024031
   6 C :   -0.019386
   7 H :    0.018599
   8 H :    0.032420
   9 C :   -0.045631
  10 H :    0.022420
  11 H :    0.021716
  12 C :   -0.066674
  13 H :    0.025540
  14 H :    0.032591
  15 H :    0.033310
  16 S :    0.398514
  17 C :   -0.175158
  18 C :   -0.070184
  19 C :   -0.045624
  20 C :   -0.207560
  21 H :    0.029388
  22 C :   -0.038654
  23 H :    0.032303
  24 H :    0.026206
  25 C :   -0.042529
  26 H :    0.026422
  27 H :    0.018659
  28 C :   -0.063324
  29 H :    0.031196
  30 H :    0.027737
  31 H :    0.026417
  32 H :    0.027870
  33 H :    0.021307

  Mayer bond orders larger than 0.100000
B(  0-S ,  1-C ) :   1.1078 B(  0-S ,  4-C ) :   1.1506 B(  1-C ,  2-C ) :   1.6728
B(  1-C , 32-H ) :   0.9669 B(  2-C ,  3-C ) :   1.1906 B(  2-C ,  6-C ) :   1.0063
B(  3-C ,  4-C ) :   1.5779 B(  3-C ,  5-H ) :   1.0041 B(  4-C , 20-C ) :   1.0437
B(  6-C ,  7-H ) :   0.9429 B(  6-C ,  8-H ) :   0.9244 B(  6-C ,  9-C ) :   1.0809
B(  9-C , 10-H ) :   0.9545 B(  9-C , 11-H ) :   0.9471 B(  9-C , 12-C ) :   1.0786
B( 12-C , 13-H ) :   0.9766 B( 12-C , 14-H ) :   0.9729 B( 12-C , 15-H ) :   0.9726
B( 16-S , 17-C ) :   1.1732 B( 16-S , 20-C ) :   1.1355 B( 17-C , 18-C ) :   1.5672
B( 17-C , 20-C ) :   0.1065 B( 17-C , 33-H ) :   0.9751 B( 18-C , 19-C ) :   1.2412
B( 18-C , 21-H ) :   0.9936 B( 19-C , 20-C ) :   1.5825 B( 19-C , 22-C ) :   1.0581
B( 22-C , 23-H ) :   0.9391 B( 22-C , 24-H ) :   0.9362 B( 22-C , 25-C ) :   1.0439
B( 25-C , 26-H ) :   0.9531 B( 25-C , 27-H ) :   0.9546 B( 25-C , 28-C ) :   1.0761
B( 28-C , 29-H ) :   0.9739 B( 28-C , 30-H ) :   0.9727 B( 28-C , 31-H ) :   0.9727

Dispersion correction           -0.013906897
FINAL SINGLE POINT ENERGY     -1339.868536648138

DIPOLE MOMENT
-------------
                                X             Y             Z
Electronic contribution:    -15.46009       7.52920     -24.61430
Nuclear contribution   :     15.68427      -7.62440      25.29481
                        -----------------------------------------
Total Dipole Moment    :      0.22418      -0.09520       0.68051
                        -----------------------------------------
Magnitude (a.u.)       :      0.72278
Magnitude (Debye)      :      1.83716

Rotational constants in cm-1:     0.016793     0.008747     0.006744
Rotational constants in MHz :   503.448539   262.231024   202.175363

                             ****ORCA TERMINATED NORMALLY****
TOTAL RUN TIME: 0 days 0 hours 0 minutes 21 seconds 402 msec
