                         Program Version 4.2.1 -  RELEASE  -
|  1> ! wB97X-D3 SP def2-SVP
|  2> %pal
|  3> nprocs 24
|  4> end
|  5>
|  6> * xyz 0 1
|  7> S 	 -23.4435 	 -33.2138 	 -92.2215
|  8> C 	 -22.2072 	 -34.2938 	 -92.8675
|  9> C 	 -21.9266 	 -34.077 	 -94.207
| 10> C 	 -22.8071 	 -33.0912 	 -94.7653
| 11> C 	 -23.4312 	 -32.386 	 -93.7708
| 12> H 	 -22.8147 	 -32.7682 	 -95.7858
| 13> C 	 -21.003 	 -34.9643 	 -94.9884
| 14> H 	 -21.5642 	 -35.7186 	 -95.4541
| 15> H 	 -20.3714 	 -35.5265 	 -94.2688
| 16> C 	 -19.9337 	 -34.2134 	 -95.8909
| 17> H 	 -20.3211 	 -33.3159 	 -96.4089
| 18> H 	 -19.1211 	 -33.8698 	 -95.2229
| 19> C 	 -19.3462 	 -35.1662 	 -96.9585
| 20> H 	 -18.9086 	 -36.0288 	 -96.3857
| 21> H 	 -20.1099 	 -35.5375 	 -97.6072
| 22> H 	 -18.6444 	 -34.642 	 -97.5678
| 23> S 	 -25.9639 	 -31.5642 	 -94.4068
| 24> C 	 -26.2314 	 -29.8838 	 -94.3226
| 25> C 	 -25.1755 	 -29.1473 	 -93.9325
| 26> C 	 -24.0037 	 -29.8842 	 -93.8138
| 27> C 	 -24.2977 	 -31.2458 	 -93.999
| 28> H 	 -25.188 	 -28.0396 	 -93.8881
| 29> C 	 -22.6139 	 -29.4279 	 -93.4401
| 30> H 	 -21.9288 	 -30.2722 	 -93.493
| 31> H 	 -22.7094 	 -29.2025 	 -92.4029
| 32> C 	 -22.0044 	 -28.1963 	 -94.2656
| 33> H 	 -21.0399 	 -28.0317 	 -93.8955
| 34> H 	 -22.5544 	 -27.282 	 -93.9664
| 35> C 	 -22.1933 	 -28.3352 	 -95.8241
| 36> H 	 -23.2225 	 -28.494 	 -96.0027
| 37> H 	 -21.6532 	 -29.1172 	 -96.2942
| 38> H 	 -21.9788 	 -27.3978 	 -96.3307
| 39> H 	 -21.6503 	 -35.0358 	 -92.2825
| 40> H 	 -27.1786 	 -29.5615 	 -94.3027
| 41> *
| 42>
| 43>                          ****END OF INPUT****

CARTESIAN COORDINATES (ANGSTROEM)
---------------------------------
  S    -23.443500  -33.213800  -92.221500
  C    -22.207200  -34.293800  -92.867500
  C    -21.926600  -34.077000  -94.207000
  C    -22.807100  -33.091200  -94.765300
  C    -23.431200  -32.386000  -93.770800
  H    -22.814700  -32.768200  -95.785800
  C    -21.003000  -34.964300  -94.988400
  H    -21.564200  -35.718600  -95.454100
  H    -20.371400  -35.526500  -94.268800
  C    -19.933700  -34.213400  -95.890900
  H    -20.321100  -33.315900  -96.408900
  H    -19.121100  -33.869800  -95.222900
  C    -19.346200  -35.166200  -96.958500
  H    -18.908600  -36.028800  -96.385700
  H    -20.109900  -35.537500  -97.607200
  H    -18.644400  -34.642000  -97.567800
  S    -25.963900  -31.564200  -94.406800
  C    -26.231400  -29.883800  -94.322600
  C    -25.175500  -29.147300  -93.932500
  C    -24.003700  -29.884200  -93.813800
  C    -24.297700  -31.245800  -93.999000
  H    -25.188000  -28.039600  -93.888100
  C    -22.613900  -29.427900  -93.440100
  H    -21.928800  -30.272200  -93.493000
  H    -22.709400  -29.202500  -92.402900
  C    -22.004400  -28.196300  -94.265600
  H    -21.039900  -28.031700  -93.895500
  H    -22.554400  -27.282000  -93.966400
  C    -22.193300  -28.335200  -95.824100
  H    -23.222500  -28.494000  -96.002700
  H    -21.653200  -29.117200  -96.294200
  H    -21.978800  -27.397800  -96.330700
  H    -21.650300  -35.035800  -92.282500
  H    -27.178600  -29.561500  -94.302700

 Total Charge           Charge          ....    0
 Multiplicity           Mult            ....    1
 Number of Electrons    NEL             ....  134
 Basis Dimension        Dim             ....  322

ORBITAL ENERGIES
----------------

  NO   OCC          E(Eh)            E(eV)
   0   2.0000     -88.964829     -2420.8561
   1   2.0000     -88.963520     -2420.8204
   2   2.0000     -10.321229      -280.8549
   3   2.0000     -10.314561      -280.6735
   4   2.0000     -10.311033      -280.5775
   5   2.0000     -10.298459      -280.2353
   6   2.0000     -10.297719      -280.2152
   7   2.0000     -10.296707      -280.1876
   8   2.0000     -10.292850      -280.0827
   9   2.0000     -10.291407      -280.0434
  10   2.0000     -10.290566      -280.0205
  11   2.0000     -10.290088      -280.0075
  12   2.0000     -10.288335      -279.9598
  13   2.0000     -10.286905      -279.9209
  14   2.0000     -10.278020      -279.6791
  15   2.0000     -10.271025      -279.4888
  16   2.0000      -8.079553      -219.8558
  17   2.0000      -8.079324      -219.8496
  18   2.0000      -6.037758      -164.2958
  19   2.0000      -6.037628      -164.2922
  20   2.0000      -6.034142      -164.1974
  21   2.0000      -6.034043      -164.1946
  22   2.0000      -6.030542      -164.0994
  23   2.0000      -6.029910      -164.0822
  24   2.0000      -1.010258       -27.4905
  25   2.0000      -0.985483       -26.8164
  26   2.0000      -0.905884       -24.6504
  27   2.0000      -0.900906       -24.5149
  28   2.0000      -0.867247       -23.5990
  29   2.0000      -0.849447       -23.1146
  30   2.0000      -0.847462       -23.0606
  31   2.0000      -0.814893       -22.1744
  32   2.0000      -0.785655       -21.3788
  33   2.0000      -0.767544       -20.8859
  34   2.0000      -0.710392       -19.3307
  35   2.0000      -0.704131       -19.1604
  36   2.0000      -0.691229       -18.8093
  37   2.0000      -0.655294       -17.8315
  38   2.0000      -0.638503       -17.3745
  39   2.0000      -0.617615       -16.8062
  40   2.0000      -0.600579       -16.3426
  41   2.0000      -0.561164       -15.2700
  42   2.0000      -0.556446       -15.1417
  43   2.0000      -0.548205       -14.9174
  44   2.0000      -0.541316       -14.7299
  45   2.0000      -0.525416       -14.2973
  46   2.0000      -0.520741       -14.1701
  47   2.0000      -0.509345       -13.8600
  48   2.0000      -0.497041       -13.5252
  49   2.0000      -0.491011       -13.3611
  50   2.0000      -0.486052       -13.2262
  51   2.0000      -0.481314       -13.0972
  52   2.0000      -0.470747       -12.8097
  53   2.0000      -0.460877       -12.5411
  54   2.0000      -0.455693       -12.4001
  55   2.0000      -0.454021       -12.3545
  56   2.0000      -0.451482       -12.2855
  57   2.0000      -0.439287       -11.9536
  58   2.0000      -0.435624       -11.8539
  59   2.0000      -0.428933       -11.6719
  60   2.0000      -0.420525       -11.4431
  61   2.0000      -0.417012       -11.3475
  62   2.0000      -0.416157       -11.3242
  63   2.0000      -0.338859        -9.2208
  64   2.0000      -0.330001        -8.9798
  65   2.0000      -0.310660        -8.4535
  66   2.0000      -0.307354        -8.3635
  67   0.0000       0.048948         1.3319
  68   0.0000       0.052428         1.4266
  69   0.0000       0.115134         3.1330
  70   0.0000       0.123087         3.3494
  71   0.0000       0.131726         3.5844

MULLIKEN ATOMIC CHARGES
-----------------------
   0 S :    0.117320
   1 C :   -0.124712
   2 C :   -0.081712
   3 C :    0.044894
   4 C :   -0.177773
   5 H :    0.014120
   6 C :    0.070923
   7 H :    0.032015
   8 H :    0.014490
   9 C :   -0.116152
  10 H :    0.035307
  11 H :    0.039695
  12 C :   -0.036164
  13 H :    0.035773
  14 H :    0.028352
  15 H :    0.032282
  16 S :    0.127313
  17 C :   -0.034042
  18 C :   -0.046453
  19 C :   -0.041945
  20 C :   -0.216449
  21 H :    0.024608
  22 C :    0.090341
  23 H :    0.036389
  24 H :    0.032593
  25 C :   -0.063899
  26 H :    0.020197
  27 H :    0.023141
  28 C :   -0.020770
  29 H :    0.026411
  30 H :    0.029237
  31 H :    0.029138
  32 H :    0.046998
  33 H :    0.008532
Sum of atomic charges:   -0.0000000

LOEWDIN ATOMIC CHARGES
----------------------
   0 S :    0.392360
   1 C :   -0.197553
   2 C :   -0.063201
   3 C :   -0.051676
   4 C :   -0.193638
   5 H :    0.030030
   6 C :   -0.030270
   7 H :    0.025648
   8 H :    0.033730
   9 C :   -0.040699
  10 H :    0.020054
  11 H :    0.027894
  12 C :   -0.062237
  13 H :    0.030442
  14 H :    0.020338
  15 H :    0.022024
  16 S :    0.431262
  17 C :   -0.179068
  18 C :   -0.075471
  19 C :   -0.051827
  20 C :   -0.213553
  21 H :    0.037052
  22 C :   -0.026755
  23 H :    0.032296
  24 H :    0.032998
  25 C :   -0.029456
  26 H :    0.015379
  27 H :    0.024002
  28 C :   -0.058615
  29 H :    0.023185
  30 H :    0.020059
  31 H :    0.027348
  32 H :    0.027299
  33 H :    0.000618

  Mayer bond orders larger than 0.100000
B(  0-S ,  1-C ) :   1.1233 B(  0-S ,  4-C ) :   1.1436 B(  1-C ,  2-C ) :   1.6417
B(  1-C , 32-H ) :   0.9614 B(  2-C ,  3-C ) :   1.2082 B(  2-C ,  6-C ) :   1.0325
B(  3-C ,  4-C ) :   1.6086 B(  3-C ,  5-H ) :   0.9928 B(  4-C , 20-C ) :   1.0143
B(  6-C ,  7-H ) :   0.9479 B(  6-C ,  8-H ) :   0.9363 B(  6-C ,  9-C ) :   1.0320
B(  9-C , 10-H ) :   0.9674 B(  9-C , 11-H ) :   0.9592 B(  9-C , 12-C ) :   1.0773
B( 12-C , 13-H ) :   0.9741 B( 12-C , 14-H ) :   0.9789 B( 12-C , 15-H ) :   0.9747
B( 16-S , 17-C ) :   1.1691 B( 16-S , 20-C ) :   1.1728 B( 17-C , 18-C ) :   1.5992
B( 17-C , 20-C ) :   0.1011 B( 17-C , 33-H ) :   0.9750 B( 18-C , 19-C ) :   1.2661
B( 18-C , 21-H ) :   0.9841 B( 19-C , 20-C ) :   1.5745 B( 19-C , 22-C ) :   1.0362
B( 22-C , 23-H ) :   0.9287 B( 22-C , 24-H ) :   0.9318 B( 22-C , 25-C ) :   1.0598
B( 25-C , 26-H ) :   0.9617 B( 25-C , 27-H ) :   0.9566 B( 25-C , 28-C ) :   1.0669
B( 28-C , 29-H ) :   0.9694 B( 28-C , 30-H ) :   0.9803 B( 28-C , 31-H ) :   0.9755

Dispersion correction           -0.014569052
FINAL SINGLE POINT ENERGY     -1339.867453782591

DIPOLE MOMENT
-------------
                                X             Y             Z
Electronic contribution:    -23.21568      -3.94492      14.11101
Nuclear contribution   :     23.60078       4.08265     -14.33317
                        -----------------------------------------
Total Dipole Moment    :      0.38510       0.13773      -0.22216
                        -----------------------------------------
Magnitude (a.u.)       :      0.46543
Magnitude (Debye)      :      1.18304

Rotational constants in cm-1:     0.018113     0.008567     0.007045
Rotational constants in MHz :   543.002489   256.831909   211.200420

                             ****ORCA TERMINATED NORMALLY****
TOTAL RUN TIME: 0 days 0 hours 0 minutes 20 seconds 666 msec
