                         Program Version 4.2.1 -  RELEASE  -
|  1> ! wB97X-D3 SP def2-SVP
|  2> %pal
|  3> nprocs 24
|  4> end
|  5>
|  6> * xyz 0 1
|  7> S 	 -133.958 	 25.7121 	 -17.3997
|  8> C 	 -132.841 	 26.1356 	 -15.9998
|  9> C 	 -131.685 	 25.3215 	 -16.0332
| 10> C 	 -131.655 	 24.4578 	 -17.169
| 11> C 	 -132.769 	 24.5386 	 -17.9651
| 12> H 	 -130.911 	 23.6666 	 -17.375
| 13> C 	 -130.603 	 25.5018 	 -14.9575
| 14> H 	 -130.965 	 24.9773 	 -14.0805
| 15> H 	 -130.667 	 26.5928 	 -14.6787
| 16> C 	 -129.194 	 25.0794 	 -15.4357
| 17> H 	 -129.223 	 24.0345 	 -15.6903
| 18> H 	 -128.942 	 25.5946 	 -16.3941
| 19> C 	 -128.072 	 25.2481 	 -14.4173
| 20> H 	 -128.538 	 25.9042 	 -13.6495
| 21> H 	 -127.787 	 24.2627 	 -13.9001
| 22> H 	 -127.153 	 25.5745 	 -14.917
| 23> S 	 -133.457 	 24.3955 	 -20.6588
| 24> C 	 -134.034 	 22.9394 	 -21.3443
| 25> C 	 -133.816 	 21.8919 	 -20.4817
| 26> C 	 -133.348 	 22.289 	 -19.177
| 27> C 	 -133.178 	 23.6669 	 -19.084
| 28> H 	 -134.081 	 20.9078 	 -20.8063
| 29> C 	 -133.089 	 21.2314 	 -18.0466
| 30> H 	 -133.951 	 20.6649 	 -17.753
| 31> H 	 -132.878 	 21.8489 	 -17.1429
| 32> C 	 -131.879 	 20.3067 	 -18.3093
| 33> H 	 -130.966 	 20.7757 	 -17.9766
| 34> H 	 -131.966 	 20.0232 	 -19.3756
| 35> C 	 -132.091 	 18.96 	 -17.5056
| 36> H 	 -132.139 	 19.1392 	 -16.4188
| 37> H 	 -131.375 	 18.1592 	 -17.7931
| 38> H 	 -133.06 	 18.539 	 -17.6741
| 39> H 	 -133.058 	 26.7847 	 -15.1478
| 40> H 	 -134.507 	 22.9031 	 -22.3179
| 41> *
| 42>
| 43>                          ****END OF INPUT****

CARTESIAN COORDINATES (ANGSTROEM)
---------------------------------
  S    -133.958000   25.712100  -17.399700
  C    -132.841000   26.135600  -15.999800
  C    -131.685000   25.321500  -16.033200
  C    -131.655000   24.457800  -17.169000
  C    -132.769000   24.538600  -17.965100
  H    -130.911000   23.666600  -17.375000
  C    -130.603000   25.501800  -14.957500
  H    -130.965000   24.977300  -14.080500
  H    -130.667000   26.592800  -14.678700
  C    -129.194000   25.079400  -15.435700
  H    -129.223000   24.034500  -15.690300
  H    -128.942000   25.594600  -16.394100
  C    -128.072000   25.248100  -14.417300
  H    -128.538000   25.904200  -13.649500
  H    -127.787000   24.262700  -13.900100
  H    -127.153000   25.574500  -14.917000
  S    -133.457000   24.395500  -20.658800
  C    -134.034000   22.939400  -21.344300
  C    -133.816000   21.891900  -20.481700
  C    -133.348000   22.289000  -19.177000
  C    -133.178000   23.666900  -19.084000
  H    -134.081000   20.907800  -20.806300
  C    -133.089000   21.231400  -18.046600
  H    -133.951000   20.664900  -17.753000
  H    -132.878000   21.848900  -17.142900
  C    -131.879000   20.306700  -18.309300
  H    -130.966000   20.775700  -17.976600
  H    -131.966000   20.023200  -19.375600
  C    -132.091000   18.960000  -17.505600
  H    -132.139000   19.139200  -16.418800
  H    -131.375000   18.159200  -17.793100
  H    -133.060000   18.539000  -17.674100
  H    -133.058000   26.784700  -15.147800
  H    -134.507000   22.903100  -22.317900

 Total Charge           Charge          ....    0
 Multiplicity           Mult            ....    1
 Number of Electrons    NEL             ....  134
 Basis Dimension        Dim             ....  322

ORBITAL ENERGIES
----------------

  NO   OCC          E(Eh)            E(eV)
   0   2.0000     -88.968053     -2420.9438
   1   2.0000     -88.961261     -2420.7590
   2   2.0000     -10.332204      -281.1536
   3   2.0000     -10.327958      -281.0380
   4   2.0000     -10.322417      -280.8872
   5   2.0000     -10.314634      -280.6755
   6   2.0000     -10.308848      -280.5180
   7   2.0000     -10.308336      -280.5041
   8   2.0000     -10.301373      -280.3146
   9   2.0000     -10.299216      -280.2559
  10   2.0000     -10.293455      -280.0991
  11   2.0000     -10.292932      -280.0849
  12   2.0000     -10.291918      -280.0573
  13   2.0000     -10.289868      -280.0015
  14   2.0000     -10.287836      -279.9463
  15   2.0000     -10.281693      -279.7791
  16   2.0000      -8.081064      -219.8969
  17   2.0000      -8.076971      -219.7856
  18   2.0000      -6.039690      -164.3483
  19   2.0000      -6.035849      -164.2438
  20   2.0000      -6.035409      -164.2318
  21   2.0000      -6.031742      -164.1320
  22   2.0000      -6.031252      -164.1187
  23   2.0000      -6.027838      -164.0258
  24   2.0000      -1.003325       -27.3019
  25   2.0000      -0.977891       -26.6098
  26   2.0000      -0.910525       -24.7766
  27   2.0000      -0.902858       -24.5680
  28   2.0000      -0.866753       -23.5856
  29   2.0000      -0.845812       -23.0157
  30   2.0000      -0.839630       -22.8475
  31   2.0000      -0.816126       -22.2079
  32   2.0000      -0.779465       -21.2103
  33   2.0000      -0.767831       -20.8937
  34   2.0000      -0.709253       -19.2997
  35   2.0000      -0.698731       -19.0134
  36   2.0000      -0.685192       -18.6450
  37   2.0000      -0.657103       -17.8807
  38   2.0000      -0.640959       -17.4414
  39   2.0000      -0.615442       -16.7470
  40   2.0000      -0.597106       -16.2481
  41   2.0000      -0.567864       -15.4524
  42   2.0000      -0.564632       -15.3644
  43   2.0000      -0.562295       -15.3008
  44   2.0000      -0.534120       -14.5342
  45   2.0000      -0.523308       -14.2399
  46   2.0000      -0.516381       -14.0514
  47   2.0000      -0.507725       -13.8159
  48   2.0000      -0.502533       -13.6746
  49   2.0000      -0.500581       -13.6215
  50   2.0000      -0.491165       -13.3653
  51   2.0000      -0.475426       -12.9370
  52   2.0000      -0.466480       -12.6936
  53   2.0000      -0.457844       -12.4586
  54   2.0000      -0.453903       -12.3513
  55   2.0000      -0.451281       -12.2800
  56   2.0000      -0.443111       -12.0577
  57   2.0000      -0.440445       -11.9851
  58   2.0000      -0.435671       -11.8552
  59   2.0000      -0.421995       -11.4831
  60   2.0000      -0.419840       -11.4244
  61   2.0000      -0.413824       -11.2607
  62   2.0000      -0.412384       -11.2215
  63   2.0000      -0.336283        -9.1507
  64   2.0000      -0.334496        -9.1021
  65   2.0000      -0.327876        -8.9220
  66   2.0000      -0.299156        -8.1404
  67   0.0000       0.031014         0.8439
  68   0.0000       0.064737         1.7616
  69   0.0000       0.107580         2.9274
  70   0.0000       0.118586         3.2269
  71   0.0000       0.125211         3.4072

MULLIKEN ATOMIC CHARGES
-----------------------
   0 S :    0.108103
   1 C :   -0.129221
   2 C :   -0.112182
   3 C :    0.028492
   4 C :   -0.146398
   5 H :    0.024933
   6 C :    0.052071
   7 H :    0.042533
   8 H :    0.039831
   9 C :   -0.112647
  10 H :    0.029352
  11 H :    0.044615
  12 C :   -0.051222
  13 H :    0.039430
  14 H :    0.041552
  15 H :    0.045838
  16 S :    0.106696
  17 C :   -0.098613
  18 C :   -0.027811
  19 C :   -0.011759
  20 C :   -0.186869
  21 H :    0.009791
  22 C :    0.049189
  23 H :    0.027106
  24 H :    0.026546
  25 C :   -0.057401
  26 H :    0.041025
  27 H :    0.041898
  28 C :   -0.079062
  29 H :    0.031937
  30 H :    0.046295
  31 H :    0.017687
  32 H :    0.054034
  33 H :    0.064230
Sum of atomic charges:   -0.0000000

LOEWDIN ATOMIC CHARGES
----------------------
   0 S :    0.375962
   1 C :   -0.182825
   2 C :   -0.056458
   3 C :   -0.071375
   4 C :   -0.184610
   5 H :    0.038394
   6 C :   -0.036586
   7 H :    0.032619
   8 H :    0.037628
   9 C :   -0.051998
  10 H :    0.020878
  11 H :    0.032307
  12 C :   -0.073000
  13 H :    0.030832
  14 H :    0.033402
  15 H :    0.030751
  16 S :    0.415663
  17 C :   -0.192904
  18 C :   -0.074860
  19 C :   -0.052090
  20 C :   -0.206788
  21 H :    0.026042
  22 C :   -0.032565
  23 H :    0.025629
  24 H :    0.032859
  25 C :   -0.031935
  26 H :    0.023685
  27 H :    0.028626
  28 C :   -0.073399
  29 H :    0.025856
  30 H :    0.029764
  31 H :    0.017780
  32 H :    0.030528
  33 H :    0.032190

  Mayer bond orders larger than 0.100000
B(  0-S ,  1-C ) :   1.1169 B(  0-S ,  4-C ) :   1.1557 B(  1-C ,  2-C ) :   1.6339
B(  1-C ,  4-C ) :   0.1061 B(  1-C , 32-H ) :   0.9672 B(  2-C ,  3-C ) :   1.2256
B(  2-C ,  6-C ) :   0.9999 B(  3-C ,  4-C ) :   1.5929 B(  3-C ,  5-H ) :   0.9923
B(  4-C , 20-C ) :   1.0001 B(  6-C ,  7-H ) :   0.9323 B(  6-C ,  8-H ) :   0.9416
B(  6-C ,  9-C ) :   1.0835 B(  9-C , 10-H ) :   0.9484 B(  9-C , 11-H ) :   0.9624
B(  9-C , 12-C ) :   1.0676 B( 12-C , 13-H ) :   0.9786 B( 12-C , 14-H ) :   0.9767
B( 12-C , 15-H ) :   0.9748 B( 16-S , 17-C ) :   1.1669 B( 16-S , 20-C ) :   1.1548
B( 17-C , 18-C ) :   1.5951 B( 17-C , 33-H ) :   0.9699 B( 18-C , 19-C ) :   1.2318
B( 18-C , 21-H ) :   0.9963 B( 19-C , 20-C ) :   1.6022 B( 19-C , 22-C ) :   1.0301
B( 22-C , 23-H ) :   0.9511 B( 22-C , 24-H ) :   0.9293 B( 22-C , 25-C ) :   1.0508
B( 25-C , 26-H ) :   0.9582 B( 25-C , 27-H ) :   0.9642 B( 25-C , 28-C ) :   1.0709
B( 28-C , 29-H ) :   0.9751 B( 28-C , 30-H ) :   0.9758 B( 28-C , 31-H ) :   0.9768

Dispersion correction           -0.013619492
FINAL SINGLE POINT ENERGY     -1339.873688027152

DIPOLE MOMENT
-------------
                                X             Y             Z
Electronic contribution:    -19.39631      16.11853     -17.41241
Nuclear contribution   :     19.70251     -16.63819      17.79162
                        -----------------------------------------
Total Dipole Moment    :      0.30620      -0.51966       0.37921
                        -----------------------------------------
Magnitude (a.u.)       :      0.71246
Magnitude (Debye)      :      1.81094

Rotational constants in cm-1:     0.016104     0.008624     0.006415
Rotational constants in MHz :   482.784225   258.531352   192.312008

                             ****ORCA TERMINATED NORMALLY****
TOTAL RUN TIME: 0 days 0 hours 0 minutes 20 seconds 868 msec
