                         Program Version 4.2.1 -  RELEASE  -
|  1> ! wB97X-D3 SP def2-SVP
|  2> %pal
|  3> nprocs 24
|  4> end
|  5>
|  6> * xyz 0 1
|  7> S 	 -106.507 	 22.9658 	 -116.848
|  8> C 	 -106.587 	 23.229 	 -115.179
|  9> C 	 -106.766 	 22.0907 	 -114.363
| 10> C 	 -106.694 	 20.9278 	 -115.207
| 11> C 	 -106.604 	 21.2124 	 -116.549
| 12> H 	 -106.837 	 19.8785 	 -114.958
| 13> C 	 -106.951 	 22.0255 	 -112.874
| 14> H 	 -107.551 	 21.2125 	 -112.5
| 15> H 	 -107.535 	 22.8703 	 -112.54
| 16> C 	 -105.671 	 22.0756 	 -112.093
| 17> H 	 -105.108 	 22.9761 	 -112.311
| 18> H 	 -106.039 	 22.0629 	 -111.058
| 19> C 	 -104.747 	 20.8517 	 -112.371
| 20> H 	 -104.872 	 20.4889 	 -113.35
| 21> H 	 -103.723 	 20.9821 	 -112.245
| 22> H 	 -104.945 	 20.0904 	 -111.666
| 23> S 	 -107.815 	 20.5859 	 -118.933
| 24> C 	 -107.575 	 19.0001 	 -119.64
| 25> C 	 -106.688 	 18.2353 	 -118.849
| 26> C 	 -106.157 	 18.9381 	 -117.727
| 27> C 	 -106.656 	 20.2741 	 -117.675
| 28> H 	 -106.367 	 17.2271 	 -119.188
| 29> C 	 -105.157 	 18.3791 	 -116.824
| 30> H 	 -105.715 	 17.8583 	 -116.009
| 31> H 	 -104.555 	 19.1782 	 -116.358
| 32> C 	 -104.208 	 17.3109 	 -117.551
| 33> H 	 -104.727 	 16.4222 	 -117.83
| 34> H 	 -103.429 	 16.9336 	 -116.994
| 35> C 	 -103.587 	 17.9917 	 -118.713
| 36> H 	 -104.218 	 18.26 	 -119.586
| 37> H 	 -102.792 	 17.398 	 -119.112
| 38> H 	 -103.026 	 18.919 	 -118.517
| 39> H 	 -106.428 	 24.163 	 -114.719
| 40> H 	 -108.101 	 18.5864 	 -120.481
| 41> *
| 42>
| 43>                          ****END OF INPUT****

CARTESIAN COORDINATES (ANGSTROEM)
---------------------------------
  S    -106.507000   22.965800  -116.848000
  C    -106.587000   23.229000  -115.179000
  C    -106.766000   22.090700  -114.363000
  C    -106.694000   20.927800  -115.207000
  C    -106.604000   21.212400  -116.549000
  H    -106.837000   19.878500  -114.958000
  C    -106.951000   22.025500  -112.874000
  H    -107.551000   21.212500  -112.500000
  H    -107.535000   22.870300  -112.540000
  C    -105.671000   22.075600  -112.093000
  H    -105.108000   22.976100  -112.311000
  H    -106.039000   22.062900  -111.058000
  C    -104.747000   20.851700  -112.371000
  H    -104.872000   20.488900  -113.350000
  H    -103.723000   20.982100  -112.245000
  H    -104.945000   20.090400  -111.666000
  S    -107.815000   20.585900  -118.933000
  C    -107.575000   19.000100  -119.640000
  C    -106.688000   18.235300  -118.849000
  C    -106.157000   18.938100  -117.727000
  C    -106.656000   20.274100  -117.675000
  H    -106.367000   17.227100  -119.188000
  C    -105.157000   18.379100  -116.824000
  H    -105.715000   17.858300  -116.009000
  H    -104.555000   19.178200  -116.358000
  C    -104.208000   17.310900  -117.551000
  H    -104.727000   16.422200  -117.830000
  H    -103.429000   16.933600  -116.994000
  C    -103.587000   17.991700  -118.713000
  H    -104.218000   18.260000  -119.586000
  H    -102.792000   17.398000  -119.112000
  H    -103.026000   18.919000  -118.517000
  H    -106.428000   24.163000  -114.719000
  H    -108.101000   18.586400  -120.481000

 Total Charge           Charge          ....    0
 Multiplicity           Mult            ....    1
 Number of Electrons    NEL             ....  134
 Basis Dimension        Dim             ....  322

ORBITAL ENERGIES
----------------

  NO   OCC          E(Eh)            E(eV)
   0   2.0000     -88.968985     -2420.9692
   1   2.0000     -88.967347     -2420.9246
   2   2.0000     -10.327822      -281.0343
   3   2.0000     -10.325969      -280.9839
   4   2.0000     -10.318378      -280.7773
   5   2.0000     -10.309971      -280.5486
   6   2.0000     -10.303797      -280.3806
   7   2.0000     -10.301997      -280.3316
   8   2.0000     -10.298269      -280.2301
   9   2.0000     -10.295533      -280.1557
  10   2.0000     -10.294371      -280.1241
  11   2.0000     -10.287556      -279.9386
  12   2.0000     -10.284921      -279.8669
  13   2.0000     -10.281725      -279.7800
  14   2.0000     -10.267789      -279.4007
  15   2.0000     -10.261172      -279.2207
  16   2.0000      -8.084196      -219.9821
  17   2.0000      -8.081922      -219.9203
  18   2.0000      -6.042499      -164.4248
  19   2.0000      -6.040365      -164.3667
  20   2.0000      -6.038760      -164.3230
  21   2.0000      -6.036354      -164.2575
  22   2.0000      -6.035035      -164.2216
  23   2.0000      -6.032865      -164.1626
  24   2.0000      -1.005056       -27.3490
  25   2.0000      -0.982227       -26.7278
  26   2.0000      -0.917749       -24.9732
  27   2.0000      -0.913633       -24.8612
  28   2.0000      -0.866775       -23.5862
  29   2.0000      -0.852864       -23.2076
  30   2.0000      -0.846096       -23.0234
  31   2.0000      -0.814194       -22.1553
  32   2.0000      -0.788105       -21.4454
  33   2.0000      -0.768550       -20.9133
  34   2.0000      -0.712290       -19.3824
  35   2.0000      -0.703336       -19.1388
  36   2.0000      -0.694299       -18.8928
  37   2.0000      -0.658388       -17.9157
  38   2.0000      -0.643092       -17.4994
  39   2.0000      -0.616270       -16.7696
  40   2.0000      -0.596136       -16.2217
  41   2.0000      -0.578896       -15.7526
  42   2.0000      -0.556609       -15.1461
  43   2.0000      -0.549875       -14.9629
  44   2.0000      -0.540898       -14.7186
  45   2.0000      -0.536557       -14.6005
  46   2.0000      -0.520625       -14.1669
  47   2.0000      -0.506707       -13.7882
  48   2.0000      -0.501859       -13.6563
  49   2.0000      -0.493942       -13.4409
  50   2.0000      -0.489882       -13.3304
  51   2.0000      -0.479737       -13.0543
  52   2.0000      -0.467179       -12.7126
  53   2.0000      -0.465169       -12.6579
  54   2.0000      -0.463000       -12.5989
  55   2.0000      -0.450314       -12.2537
  56   2.0000      -0.443607       -12.0712
  57   2.0000      -0.442088       -12.0298
  58   2.0000      -0.435786       -11.8583
  59   2.0000      -0.426951       -11.6179
  60   2.0000      -0.424114       -11.5407
  61   2.0000      -0.414492       -11.2789
  62   2.0000      -0.410326       -11.1655
  63   2.0000      -0.352447        -9.5906
  64   2.0000      -0.332221        -9.0402
  65   2.0000      -0.325690        -8.8625
  66   2.0000      -0.280329        -7.6281
  67   0.0000       0.027865         0.7582
  68   0.0000       0.069357         1.8873
  69   0.0000       0.111363         3.0304
  70   0.0000       0.119892         3.2624
  71   0.0000       0.131641         3.5821

MULLIKEN ATOMIC CHARGES
-----------------------
   0 S :    0.125343
   1 C :   -0.081996
   2 C :   -0.099327
   3 C :    0.022010
   4 C :   -0.176350
   5 H :    0.015945
   6 C :    0.071914
   7 H :    0.022830
   8 H :    0.018194
   9 C :   -0.065325
  10 H :    0.027529
  11 H :    0.031621
  12 C :   -0.003802
  13 H :    0.016761
  14 H :    0.012586
  15 H :    0.011415
  16 S :    0.111507
  17 C :   -0.091672
  18 C :   -0.055919
  19 C :   -0.066477
  20 C :   -0.123904
  21 H :    0.034566
  22 C :    0.039982
  23 H :    0.046569
  24 H :    0.048047
  25 C :   -0.008781
  26 H :    0.019280
  27 H :    0.007334
  28 C :   -0.072552
  29 H :    0.044145
  30 H :    0.013226
  31 H :    0.026039
  32 H :    0.025256
  33 H :    0.054008
Sum of atomic charges:   -0.0000000

LOEWDIN ATOMIC CHARGES
----------------------
   0 S :    0.418423
   1 C :   -0.204113
   2 C :   -0.058243
   3 C :   -0.061033
   4 C :   -0.189155
   5 H :    0.033603
   6 C :   -0.036637
   7 H :    0.031485
   8 H :    0.032916
   9 C :   -0.030553
  10 H :    0.020874
  11 H :    0.026764
  12 C :   -0.060363
  13 H :    0.019506
  14 H :    0.019484
  15 H :    0.021614
  16 S :    0.417463
  17 C :   -0.192940
  18 C :   -0.070163
  19 C :   -0.062132
  20 C :   -0.209222
  21 H :    0.036336
  22 C :   -0.033464
  23 H :    0.035459
  24 H :    0.036889
  25 C :   -0.031823
  26 H :    0.020898
  27 H :    0.018962
  28 C :   -0.074684
  29 H :    0.029726
  30 H :    0.020027
  31 H :    0.029682
  32 H :    0.016402
  33 H :    0.028012

  Mayer bond orders larger than 0.100000
B(  0-S ,  1-C ) :   1.1647 B(  0-S ,  4-C ) :   1.1382 B(  1-C ,  2-C ) :   1.6044
B(  1-C , 32-H ) :   0.9654 B(  2-C ,  3-C ) :   1.2302 B(  2-C ,  6-C ) :   1.0296
B(  3-C ,  4-C ) :   1.5969 B(  3-C ,  5-H ) :   0.9824 B(  4-C , 20-C ) :   1.0290
B(  6-C ,  7-H ) :   0.9436 B(  6-C ,  8-H ) :   0.9298 B(  6-C ,  9-C ) :   1.0822
B(  9-C , 10-H ) :   0.9602 B(  9-C , 11-H ) :   0.9597 B(  9-C , 12-C ) :   1.0620
B( 12-C , 13-H ) :   0.9778 B( 12-C , 14-H ) :   0.9726 B( 12-C , 15-H ) :   0.9724
B( 16-S , 17-C ) :   1.1629 B( 16-S , 20-C ) :   1.1579 B( 17-C , 18-C ) :   1.5717
B( 17-C , 20-C ) :   0.1060 B( 17-C , 33-H ) :   0.9692 B( 18-C , 19-C ) :   1.2761
B( 18-C , 21-H ) :   0.9781 B( 19-C , 20-C ) :   1.5477 B( 19-C , 22-C ) :   1.0475
B( 22-C , 23-H ) :   0.9202 B( 22-C , 24-H ) :   0.9429 B( 22-C , 25-C ) :   1.0683
B( 25-C , 26-H ) :   0.9459 B( 25-C , 27-H ) :   0.9508 B( 25-C , 28-C ) :   1.0859
B( 28-C , 29-H ) :   0.9682 B( 28-C , 30-H ) :   0.9691 B( 28-C , 31-H ) :   0.9703

Dispersion correction           -0.014939063
FINAL SINGLE POINT ENERGY     -1339.868257833082

DIPOLE MOMENT
-------------
                                X             Y             Z
Electronic contribution:    -15.37022      13.25240     -16.56307
Nuclear contribution   :     15.58197     -13.71757      17.02614
                        -----------------------------------------
Total Dipole Moment    :      0.21175      -0.46517       0.46307
                        -----------------------------------------
Magnitude (a.u.)       :      0.68968
Magnitude (Debye)      :      1.75303

Rotational constants in cm-1:     0.019882     0.009021     0.006942
Rotational constants in MHz :   596.051470   270.452426   208.113951

                             ****ORCA TERMINATED NORMALLY****
TOTAL RUN TIME: 0 days 0 hours 0 minutes 22 seconds 456 msec
