                         Program Version 4.2.1 -  RELEASE  -
|  1> ! wB97X-D3 SP def2-SVP
|  2> %pal
|  3> nprocs 24
|  4> end
|  5>
|  6> * xyz 0 1
|  7> S 	 -101.637 	 -1.29291 	 -119.243
|  8> C 	 -103.085 	 -0.582018 	 -119.955
|  9> C 	 -103.388 	 0.64632 	 -119.259
| 10> C 	 -102.43 	 0.862445 	 -118.158
| 11> C 	 -101.404 	 -0.0739683 	 -118.055
| 12> H 	 -102.328 	 1.70115 	 -117.469
| 13> C 	 -104.588 	 1.56081 	 -119.482
| 14> H 	 -105.529 	 1.34908 	 -118.851
| 15> H 	 -104.894 	 1.37803 	 -120.529
| 16> C 	 -104.372 	 3.08006 	 -119.237
| 17> H 	 -104.166 	 3.35493 	 -118.268
| 18> H 	 -103.37 	 3.3428 	 -119.618
| 19> C 	 -105.508 	 3.8684 	 -119.733
| 20> H 	 -105.438 	 4.00261 	 -120.801
| 21> H 	 -106.475 	 3.39933 	 -119.579
| 22> H 	 -105.564 	 4.85019 	 -119.246
| 23> S 	 -98.74 	 0.826536 	 -118.173
| 24> C 	 -97.7991 	 0.647357 	 -116.721
| 25> C 	 -98.5532 	 0.205041 	 -115.65
| 26> C 	 -99.8398 	 -0.120896 	 -115.995
| 27> C 	 -100.16 	 0.0545971 	 -117.333
| 28> H 	 -98.1828 	 0.229149 	 -114.671
| 29> C 	 -100.778 	 -0.655764 	 -114.974
| 30> H 	 -101.693 	 -0.298283 	 -115.306
| 31> H 	 -100.636 	 -0.216448 	 -114.016
| 32> C 	 -100.711 	 -2.15225 	 -114.642
| 33> H 	 -100.903 	 -2.67156 	 -115.602
| 34> H 	 -101.499 	 -2.57646 	 -114.039
| 35> C 	 -99.4008 	 -2.74754 	 -114.286
| 36> H 	 -98.7301 	 -2.81626 	 -115.139
| 37> H 	 -99.4963 	 -3.81181 	 -113.995
| 38> H 	 -98.9611 	 -2.201 	 -113.401
| 39> H 	 -103.586 	 -0.809197 	 -120.897
| 40> H 	 -96.838 	 1.09473 	 -116.539
| 41> *
| 42>
| 43>                          ****END OF INPUT****

CARTESIAN COORDINATES (ANGSTROEM)
---------------------------------
  S    -101.637000   -1.292910  -119.243000
  C    -103.085000   -0.582018  -119.955000
  C    -103.388000    0.646320  -119.259000
  C    -102.430000    0.862445  -118.158000
  C    -101.404000   -0.073968  -118.055000
  H    -102.328000    1.701150  -117.469000
  C    -104.588000    1.560810  -119.482000
  H    -105.529000    1.349080  -118.851000
  H    -104.894000    1.378030  -120.529000
  C    -104.372000    3.080060  -119.237000
  H    -104.166000    3.354930  -118.268000
  H    -103.370000    3.342800  -119.618000
  C    -105.508000    3.868400  -119.733000
  H    -105.438000    4.002610  -120.801000
  H    -106.475000    3.399330  -119.579000
  H    -105.564000    4.850190  -119.246000
  S    -98.740000    0.826536  -118.173000
  C    -97.799100    0.647357  -116.721000
  C    -98.553200    0.205041  -115.650000
  C    -99.839800   -0.120896  -115.995000
  C    -100.160000    0.054597  -117.333000
  H    -98.182800    0.229149  -114.671000
  C    -100.778000   -0.655764  -114.974000
  H    -101.693000   -0.298283  -115.306000
  H    -100.636000   -0.216448  -114.016000
  C    -100.711000   -2.152250  -114.642000
  H    -100.903000   -2.671560  -115.602000
  H    -101.499000   -2.576460  -114.039000
  C    -99.400800   -2.747540  -114.286000
  H    -98.730100   -2.816260  -115.139000
  H    -99.496300   -3.811810  -113.995000
  H    -98.961100   -2.201000  -113.401000
  H    -103.586000   -0.809197  -120.897000
  H    -96.838000    1.094730  -116.539000

 Total Charge           Charge          ....    0
 Multiplicity           Mult            ....    1
 Number of Electrons    NEL             ....  134
 Basis Dimension        Dim             ....  322

ORBITAL ENERGIES
----------------

  NO   OCC          E(Eh)            E(eV)
   0   2.0000     -88.968770     -2420.9633
   1   2.0000     -88.967737     -2420.9352
   2   2.0000     -10.329441      -281.0784
   3   2.0000     -10.327172      -281.0166
   4   2.0000     -10.325480      -280.9706
   5   2.0000     -10.316849      -280.7357
   6   2.0000     -10.315801      -280.7072
   7   2.0000     -10.303371      -280.3690
   8   2.0000     -10.299915      -280.2749
   9   2.0000     -10.297814      -280.2178
  10   2.0000     -10.283428      -279.8263
  11   2.0000     -10.279094      -279.7084
  12   2.0000     -10.278691      -279.6974
  13   2.0000     -10.277584      -279.6673
  14   2.0000     -10.276423      -279.6357
  15   2.0000     -10.274138      -279.5735
  16   2.0000      -8.082507      -219.9362
  17   2.0000      -8.082389      -219.9330
  18   2.0000      -6.040931      -164.3821
  19   2.0000      -6.040904      -164.3814
  20   2.0000      -6.037241      -164.2817
  21   2.0000      -6.036563      -164.2632
  22   2.0000      -6.033457      -164.1787
  23   2.0000      -6.033312      -164.1748
  24   2.0000      -1.005410       -27.3586
  25   2.0000      -0.981795       -26.7160
  26   2.0000      -0.915144       -24.9023
  27   2.0000      -0.914128       -24.8747
  28   2.0000      -0.872168       -23.7329
  29   2.0000      -0.856081       -23.2952
  30   2.0000      -0.845640       -23.0110
  31   2.0000      -0.813788       -22.1443
  32   2.0000      -0.786222       -21.3942
  33   2.0000      -0.770521       -20.9669
  34   2.0000      -0.714924       -19.4541
  35   2.0000      -0.700248       -19.0547
  36   2.0000      -0.688647       -18.7390
  37   2.0000      -0.665867       -18.1192
  38   2.0000      -0.645438       -17.5633
  39   2.0000      -0.610949       -16.6248
  40   2.0000      -0.596026       -16.2187
  41   2.0000      -0.575448       -15.6587
  42   2.0000      -0.563282       -15.3277
  43   2.0000      -0.557777       -15.1779
  44   2.0000      -0.553338       -15.0571
  45   2.0000      -0.529237       -14.4013
  46   2.0000      -0.518453       -14.1078
  47   2.0000      -0.506655       -13.7868
  48   2.0000      -0.503479       -13.7004
  49   2.0000      -0.494298       -13.4505
  50   2.0000      -0.487641       -13.2694
  51   2.0000      -0.483027       -13.1438
  52   2.0000      -0.475918       -12.9504
  53   2.0000      -0.471423       -12.8281
  54   2.0000      -0.459234       -12.4964
  55   2.0000      -0.447799       -12.1852
  56   2.0000      -0.444026       -12.0826
  57   2.0000      -0.439322       -11.9545
  58   2.0000      -0.435992       -11.8639
  59   2.0000      -0.421181       -11.4609
  60   2.0000      -0.419687       -11.4203
  61   2.0000      -0.405559       -11.0358
  62   2.0000      -0.396867       -10.7993
  63   2.0000      -0.338541        -9.2122
  64   2.0000      -0.330419        -8.9912
  65   2.0000      -0.318323        -8.6620
  66   2.0000      -0.308307        -8.3894
  67   0.0000       0.033713         0.9174
  68   0.0000       0.045996         1.2516
  69   0.0000       0.101426         2.7599
  70   0.0000       0.118600         3.2273
  71   0.0000       0.132536         3.6065

MULLIKEN ATOMIC CHARGES
-----------------------
   0 S :    0.118680
   1 C :   -0.108208
   2 C :   -0.100977
   3 C :    0.042020
   4 C :   -0.196894
   5 H :    0.018679
   6 C :    0.018284
   7 H :    0.057695
   8 H :    0.023042
   9 C :   -0.055200
  10 H :    0.005521
  11 H :    0.018488
  12 C :   -0.026402
  13 H :    0.030033
  14 H :    0.022611
  15 H :    0.032591
  16 S :    0.116617
  17 C :   -0.074427
  18 C :   -0.023089
  19 C :   -0.032048
  20 C :   -0.173536
  21 H :   -0.003328
  22 C :    0.155812
  23 H :   -0.000554
  24 H :    0.005330
  25 C :   -0.060014
  26 H :    0.011135
  27 H :    0.029291
  28 C :   -0.071709
  29 H :    0.044662
  30 H :    0.033205
  31 H :    0.026554
  32 H :    0.061829
  33 H :    0.054305
Sum of atomic charges:    0.0000000

LOEWDIN ATOMIC CHARGES
----------------------
   0 S :    0.428315
   1 C :   -0.203626
   2 C :   -0.060136
   3 C :   -0.062533
   4 C :   -0.221645
   5 H :    0.031630
   6 C :   -0.038211
   7 H :    0.042742
   8 H :    0.030004
   9 C :   -0.049257
  10 H :    0.012215
  11 H :    0.027328
  12 C :   -0.061437
  13 H :    0.025775
  14 H :    0.025190
  15 H :    0.030590
  16 S :    0.393945
  17 C :   -0.177566
  18 C :   -0.067601
  19 C :   -0.046681
  20 C :   -0.189572
  21 H :    0.024827
  22 C :   -0.022039
  23 H :    0.023315
  24 H :    0.025738
  25 C :   -0.048142
  26 H :    0.027620
  27 H :    0.025338
  28 C :   -0.071889
  29 H :    0.027356
  30 H :    0.032419
  31 H :    0.021838
  32 H :    0.035750
  33 H :    0.028396

  Mayer bond orders larger than 0.100000
B(  0-S ,  1-C ) :   1.1576 B(  0-S ,  4-C ) :   1.1579 B(  1-C ,  2-C ) :   1.5769
B(  1-C , 32-H ) :   0.9662 B(  2-C ,  3-C ) :   1.2374 B(  2-C ,  6-C ) :   1.0299
B(  3-C ,  4-C ) :   1.5781 B(  3-C ,  5-H ) :   0.9863 B(  4-C , 20-C ) :   1.0314
B(  6-C ,  7-H ) :   0.9371 B(  6-C ,  8-H ) :   0.9473 B(  6-C ,  9-C ) :   1.0547
B(  9-C , 10-H ) :   0.9476 B(  9-C , 11-H ) :   0.9520 B(  9-C , 12-C ) :   1.0902
B( 12-C , 13-H ) :   0.9734 B( 12-C , 14-H ) :   0.9697 B( 12-C , 15-H ) :   0.9713
B( 16-S , 17-C ) :   1.1753 B( 16-S , 20-C ) :   1.1245 B( 17-C , 18-C ) :   1.5810
B( 17-C , 20-C ) :   0.1078 B( 17-C , 33-H ) :   0.9607 B( 18-C , 19-C ) :   1.2775
B( 18-C , 21-H ) :   0.9977 B( 19-C , 20-C ) :   1.5807 B( 19-C , 22-C ) :   1.0404
B( 22-C , 23-H ) :   0.9148 B( 22-C , 24-H ) :   0.9323 B( 22-C , 25-C ) :   1.0650
B( 25-C , 26-H ) :   0.9447 B( 25-C , 27-H ) :   0.9596 B( 25-C , 28-C ) :   1.0958
B( 28-C , 29-H ) :   0.9695 B( 28-C , 30-H ) :   0.9671 B( 28-C , 31-H ) :   0.9712

Dispersion correction           -0.014217532
FINAL SINGLE POINT ENERGY     -1339.850811364812

DIPOLE MOMENT
-------------
                                X             Y             Z
Electronic contribution:     14.45407      -5.02642      -9.85199
Nuclear contribution   :    -14.73316       5.40711      10.17111
                        -----------------------------------------
Total Dipole Moment    :     -0.27909       0.38069       0.31912
                        -----------------------------------------
Magnitude (a.u.)       :      0.56979
Magnitude (Debye)      :      1.44828

Rotational constants in cm-1:     0.021605     0.007149     0.006779
Rotational constants in MHz :   647.716289   214.320668   203.225322

                             ****ORCA TERMINATED NORMALLY****
TOTAL RUN TIME: 0 days 0 hours 0 minutes 20 seconds 172 msec
