                         Program Version 4.2.1 -  RELEASE  -
|  1> ! wB97X-D3 SP def2-SVP
|  2> %pal
|  3> nprocs 24
|  4> end
|  5>
|  6> * xyz 0 1
|  7> S 	 -46.5341 	 11.8584 	 -17.9542
|  8> C 	 -45.0568 	 11.5241 	 -17.0142
|  9> C 	 -44.0512 	 12.4318 	 -17.2007
| 10> C 	 -44.5252 	 13.538 	 -17.9921
| 11> C 	 -45.8545 	 13.3546 	 -18.4536
| 12> H 	 -43.882 	 14.3247 	 -18.3629
| 13> C 	 -42.6906 	 12.4353 	 -16.5596
| 14> H 	 -42.5489 	 11.4889 	 -16.0664
| 15> H 	 -42.7375 	 13.1941 	 -15.739
| 16> C 	 -41.5647 	 12.7991 	 -17.4922
| 17> H 	 -41.1829 	 11.9705 	 -18.1737
| 18> H 	 -41.8177 	 13.7124 	 -18.0177
| 19> C 	 -40.3569 	 13.0442 	 -16.6041
| 20> H 	 -39.9592 	 12.1081 	 -16.2154
| 21> H 	 -39.5857 	 13.6094 	 -17.0999
| 22> H 	 -40.701 	 13.6742 	 -15.7874
| 23> S 	 -47.6452 	 13.4659 	 -20.5334
| 24> C 	 -48.493 	 14.9769 	 -20.9259
| 25> C 	 -48.0367 	 15.9747 	 -20.0912
| 26> C 	 -46.9707 	 15.571 	 -19.2772
| 27> C 	 -46.6282 	 14.2361 	 -19.3209
| 28> H 	 -48.5536 	 16.9355 	 -20.0582
| 29> C 	 -46.4914 	 16.4983 	 -18.2015
| 30> H 	 -45.5894 	 16.0749 	 -17.7917
| 31> H 	 -47.2709 	 16.5841 	 -17.4622
| 32> C 	 -46.0939 	 17.8709 	 -18.6543
| 33> H 	 -46.9854 	 18.4135 	 -18.9394
| 34> H 	 -45.4178 	 17.7087 	 -19.5521
| 35> C 	 -45.4119 	 18.6759 	 -17.5707
| 36> H 	 -46.1408 	 19.0729 	 -16.8506
| 37> H 	 -45.0117 	 19.6299 	 -18.0576
| 38> H 	 -44.5846 	 18.1514 	 -17.0413
| 39> H 	 -44.926 	 10.6571 	 -16.3454
| 40> H 	 -49.2877 	 15.1099 	 -21.6228
| 41> *
| 42>
| 43>                          ****END OF INPUT****

CARTESIAN COORDINATES (ANGSTROEM)
---------------------------------
  S    -46.534100   11.858400  -17.954200
  C    -45.056800   11.524100  -17.014200
  C    -44.051200   12.431800  -17.200700
  C    -44.525200   13.538000  -17.992100
  C    -45.854500   13.354600  -18.453600
  H    -43.882000   14.324700  -18.362900
  C    -42.690600   12.435300  -16.559600
  H    -42.548900   11.488900  -16.066400
  H    -42.737500   13.194100  -15.739000
  C    -41.564700   12.799100  -17.492200
  H    -41.182900   11.970500  -18.173700
  H    -41.817700   13.712400  -18.017700
  C    -40.356900   13.044200  -16.604100
  H    -39.959200   12.108100  -16.215400
  H    -39.585700   13.609400  -17.099900
  H    -40.701000   13.674200  -15.787400
  S    -47.645200   13.465900  -20.533400
  C    -48.493000   14.976900  -20.925900
  C    -48.036700   15.974700  -20.091200
  C    -46.970700   15.571000  -19.277200
  C    -46.628200   14.236100  -19.320900
  H    -48.553600   16.935500  -20.058200
  C    -46.491400   16.498300  -18.201500
  H    -45.589400   16.074900  -17.791700
  H    -47.270900   16.584100  -17.462200
  C    -46.093900   17.870900  -18.654300
  H    -46.985400   18.413500  -18.939400
  H    -45.417800   17.708700  -19.552100
  C    -45.411900   18.675900  -17.570700
  H    -46.140800   19.072900  -16.850600
  H    -45.011700   19.629900  -18.057600
  H    -44.584600   18.151400  -17.041300
  H    -44.926000   10.657100  -16.345400
  H    -49.287700   15.109900  -21.622800

 Total Charge           Charge          ....    0
 Multiplicity           Mult            ....    1
 Number of Electrons    NEL             ....  134
 Basis Dimension        Dim             ....  322

ORBITAL ENERGIES
----------------

  NO   OCC          E(Eh)            E(eV)
   0   2.0000     -88.970552     -2421.0118
   1   2.0000     -88.963074     -2420.8083
   2   2.0000     -10.334224      -281.2085
   3   2.0000     -10.326709      -281.0040
   4   2.0000     -10.318314      -280.7756
   5   2.0000     -10.313612      -280.6476
   6   2.0000     -10.299335      -280.2591
   7   2.0000     -10.296562      -280.1837
   8   2.0000     -10.295898      -280.1656
   9   2.0000     -10.294718      -280.1335
  10   2.0000     -10.291949      -280.0582
  11   2.0000     -10.290644      -280.0227
  12   2.0000     -10.284743      -279.8621
  13   2.0000     -10.283815      -279.8368
  14   2.0000     -10.277380      -279.6617
  15   2.0000     -10.274843      -279.5927
  16   2.0000      -8.085095      -220.0066
  17   2.0000      -8.077410      -219.7975
  18   2.0000      -6.043570      -164.4539
  19   2.0000      -6.039740      -164.3497
  20   2.0000      -6.036017      -164.2484
  21   2.0000      -6.035775      -164.2418
  22   2.0000      -6.031863      -164.1353
  23   2.0000      -6.028193      -164.0355
  24   2.0000      -1.007954       -27.4278
  25   2.0000      -0.983927       -26.7740
  26   2.0000      -0.924366       -25.1533
  27   2.0000      -0.914919       -24.8962
  28   2.0000      -0.874410       -23.7939
  29   2.0000      -0.851387       -23.1674
  30   2.0000      -0.845231       -22.9999
  31   2.0000      -0.812581       -22.1114
  32   2.0000      -0.780752       -21.2453
  33   2.0000      -0.770113       -20.9558
  34   2.0000      -0.710376       -19.3303
  35   2.0000      -0.694562       -18.9000
  36   2.0000      -0.691084       -18.8053
  37   2.0000      -0.657936       -17.9033
  38   2.0000      -0.636941       -17.3320
  39   2.0000      -0.623942       -16.9783
  40   2.0000      -0.597225       -16.2513
  41   2.0000      -0.579742       -15.7756
  42   2.0000      -0.577590       -15.7170
  43   2.0000      -0.568986       -15.4829
  44   2.0000      -0.531371       -14.4593
  45   2.0000      -0.523471       -14.2444
  46   2.0000      -0.513721       -13.9791
  47   2.0000      -0.509204       -13.8561
  48   2.0000      -0.505177       -13.7466
  49   2.0000      -0.500462       -13.6183
  50   2.0000      -0.494730       -13.4623
  51   2.0000      -0.479892       -13.0585
  52   2.0000      -0.470408       -12.8005
  53   2.0000      -0.465488       -12.6666
  54   2.0000      -0.459374       -12.5002
  55   2.0000      -0.453227       -12.3329
  56   2.0000      -0.443190       -12.0598
  57   2.0000      -0.436989       -11.8911
  58   2.0000      -0.431763       -11.7489
  59   2.0000      -0.422877       -11.5071
  60   2.0000      -0.419503       -11.4153
  61   2.0000      -0.418019       -11.3749
  62   2.0000      -0.411196       -11.1892
  63   2.0000      -0.350747        -9.5443
  64   2.0000      -0.332765        -9.0550
  65   2.0000      -0.330503        -8.9934
  66   2.0000      -0.286304        -7.7907
  67   0.0000       0.025668         0.6985
  68   0.0000       0.070388         1.9153
  69   0.0000       0.108611         2.9554
  70   0.0000       0.121206         3.2982
  71   0.0000       0.127838         3.4787

MULLIKEN ATOMIC CHARGES
-----------------------
   0 S :    0.124003
   1 C :   -0.144219
   2 C :   -0.052851
   3 C :    0.008092
   4 C :   -0.144265
   5 H :    0.020845
   6 C :    0.057778
   7 H :    0.010600
   8 H :    0.045625
   9 C :   -0.097934
  10 H :    0.053731
  11 H :    0.033411
  12 C :   -0.029220
  13 H :    0.032973
  14 H :    0.028885
  15 H :    0.012875
  16 S :    0.076882
  17 C :   -0.076734
  18 C :   -0.044611
  19 C :   -0.043598
  20 C :   -0.129760
  21 H :    0.030029
  22 C :    0.107126
  23 H :   -0.007898
  24 H :    0.030557
  25 C :   -0.114648
  26 H :    0.023588
  27 H :    0.039221
  28 C :   -0.057886
  29 H :    0.032334
  30 H :    0.039621
  31 H :    0.040790
  32 H :    0.046193
  33 H :    0.048466
Sum of atomic charges:   -0.0000000

LOEWDIN ATOMIC CHARGES
----------------------
   0 S :    0.412926
   1 C :   -0.197960
   2 C :   -0.060671
   3 C :   -0.068766
   4 C :   -0.193820
   5 H :    0.026678
   6 C :   -0.030732
   7 H :    0.027283
   8 H :    0.040224
   9 C :   -0.042360
  10 H :    0.038927
  11 H :    0.022531
  12 C :   -0.060704
  13 H :    0.025000
  14 H :    0.022114
  15 H :    0.019424
  16 S :    0.385503
  17 C :   -0.168034
  18 C :   -0.071522
  19 C :   -0.063858
  20 C :   -0.193897
  21 H :    0.036078
  22 C :   -0.029980
  23 H :    0.022506
  24 H :    0.030501
  25 C :   -0.048460
  26 H :    0.019074
  27 H :    0.030683
  28 C :   -0.072388
  29 H :    0.026296
  30 H :    0.034901
  31 H :    0.026383
  32 H :    0.029945
  33 H :    0.026172

  Mayer bond orders larger than 0.100000
B(  0-S ,  1-C ) :   1.1162 B(  0-S ,  4-C ) :   1.1654 B(  1-C ,  2-C ) :   1.6425
B(  1-C , 32-H ) :   0.9609 B(  2-C ,  3-C ) :   1.2323 B(  2-C ,  6-C ) :   1.0210
B(  3-C ,  4-C ) :   1.5636 B(  3-C ,  5-H ) :   0.9804 B(  4-C , 20-C ) :   1.0545
B(  6-C ,  7-H ) :   0.9356 B(  6-C ,  8-H ) :   0.9399 B(  6-C ,  9-C ) :   1.0687
B(  9-C , 10-H ) :   0.9526 B(  9-C , 11-H ) :   0.9533 B(  9-C , 12-C ) :   1.0880
B( 12-C , 13-H ) :   0.9743 B( 12-C , 14-H ) :   0.9720 B( 12-C , 15-H ) :   0.9733
B( 16-S , 17-C ) :   1.1502 B( 16-S , 20-C ) :   1.1239 B( 17-C , 18-C ) :   1.5984
B( 17-C , 33-H ) :   0.9714 B( 18-C , 19-C ) :   1.2519 B( 18-C , 21-H ) :   0.9904
B( 19-C , 20-C ) :   1.5825 B( 19-C , 22-C ) :   1.0544 B( 22-C , 23-H ) :   0.9268
B( 22-C , 24-H ) :   0.9283 B( 22-C , 25-C ) :   1.0676 B( 25-C , 26-H ) :   0.9455
B( 25-C , 27-H ) :   0.9585 B( 25-C , 28-C ) :   1.0957 B( 28-C , 29-H ) :   0.9703
B( 28-C , 30-H ) :   0.9720 B( 28-C , 31-H ) :   0.9733

Dispersion correction           -0.013237325
FINAL SINGLE POINT ENERGY     -1339.881493346757

DIPOLE MOMENT
-------------
                                X             Y             Z
Electronic contribution:    -22.63444     -17.59386     -11.98291
Nuclear contribution   :     22.94918      18.02232      12.33475
                        -----------------------------------------
Total Dipole Moment    :      0.31473       0.42846       0.35185
                        -----------------------------------------
Magnitude (a.u.)       :      0.63752
Magnitude (Debye)      :      1.62045

Rotational constants in cm-1:     0.016847     0.008776     0.006326
Rotational constants in MHz :   505.062442   263.096872   189.663217

                             ****ORCA TERMINATED NORMALLY****
TOTAL RUN TIME: 0 days 0 hours 0 minutes 21 seconds 281 msec
