                         Program Version 4.2.1 -  RELEASE  -
|  1> ! wB97X-D3 SP def2-SVP
|  2> %pal
|  3> nprocs 24
|  4> end
|  5>
|  6> * xyz 0 1
|  7> S 	 -132.101 	 75.3369 	 -66.8999
|  8> C 	 -130.784 	 74.5552 	 -66.0872
|  9> C 	 -131.193 	 73.5542 	 -65.1405
| 10> C 	 -132.631 	 73.3504 	 -65.2816
| 11> C 	 -133.266 	 74.2452 	 -66.1208
| 12> H 	 -133.241 	 72.5867 	 -64.8466
| 13> C 	 -130.266 	 72.6655 	 -64.3872
| 14> H 	 -129.252 	 72.8505 	 -64.612
| 15> H 	 -130.549 	 71.6441 	 -64.6816
| 16> C 	 -130.611 	 72.7902 	 -62.8652
| 17> H 	 -131.704 	 72.7057 	 -62.6839
| 18> H 	 -130.112 	 72.0065 	 -62.2732
| 19> C 	 -130.259 	 74.1301 	 -62.2919
| 20> H 	 -130.884 	 74.912 	 -62.6811
| 21> H 	 -130.337 	 74.1782 	 -61.2664
| 22> H 	 -129.265 	 74.5063 	 -62.7287
| 23> S 	 -135.119 	 72.94 	 -67.7517
| 24> C 	 -136.817 	 73.1565 	 -67.3586
| 25> C 	 -137.05 	 73.9946 	 -66.2924
| 26> C 	 -135.84 	 74.5636 	 -65.7868
| 27> C 	 -134.687 	 74.1333 	 -66.4845
| 28> H 	 -138.01 	 73.991 	 -65.8959
| 29> C 	 -135.866 	 75.274 	 -64.4413
| 30> H 	 -136.758 	 75.8675 	 -64.3744
| 31> H 	 -134.92 	 75.8717 	 -64.21
| 32> C 	 -135.948 	 74.2626 	 -63.2618
| 33> H 	 -135.098 	 73.4066 	 -63.2963
| 34> H 	 -136.936 	 73.7231 	 -63.3275
| 35> C 	 -136.047 	 74.9468 	 -61.8938
| 36> H 	 -135.865 	 74.2694 	 -61.1303
| 37> H 	 -137.009 	 75.4608 	 -61.6534
| 38> H 	 -135.274 	 75.7053 	 -61.7744
| 39> H 	 -129.781 	 74.9626 	 -66.2186
| 40> H 	 -137.694 	 72.6379 	 -67.7822
| 41> *
| 42>
| 43>                          ****END OF INPUT****

CARTESIAN COORDINATES (ANGSTROEM)
---------------------------------
  S    -132.101000   75.336900  -66.899900
  C    -130.784000   74.555200  -66.087200
  C    -131.193000   73.554200  -65.140500
  C    -132.631000   73.350400  -65.281600
  C    -133.266000   74.245200  -66.120800
  H    -133.241000   72.586700  -64.846600
  C    -130.266000   72.665500  -64.387200
  H    -129.252000   72.850500  -64.612000
  H    -130.549000   71.644100  -64.681600
  C    -130.611000   72.790200  -62.865200
  H    -131.704000   72.705700  -62.683900
  H    -130.112000   72.006500  -62.273200
  C    -130.259000   74.130100  -62.291900
  H    -130.884000   74.912000  -62.681100
  H    -130.337000   74.178200  -61.266400
  H    -129.265000   74.506300  -62.728700
  S    -135.119000   72.940000  -67.751700
  C    -136.817000   73.156500  -67.358600
  C    -137.050000   73.994600  -66.292400
  C    -135.840000   74.563600  -65.786800
  C    -134.687000   74.133300  -66.484500
  H    -138.010000   73.991000  -65.895900
  C    -135.866000   75.274000  -64.441300
  H    -136.758000   75.867500  -64.374400
  H    -134.920000   75.871700  -64.210000
  C    -135.948000   74.262600  -63.261800
  H    -135.098000   73.406600  -63.296300
  H    -136.936000   73.723100  -63.327500
  C    -136.047000   74.946800  -61.893800
  H    -135.865000   74.269400  -61.130300
  H    -137.009000   75.460800  -61.653400
  H    -135.274000   75.705300  -61.774400
  H    -129.781000   74.962600  -66.218600
  H    -137.694000   72.637900  -67.782200

 Total Charge           Charge          ....    0
 Multiplicity           Mult            ....    1
 Number of Electrons    NEL             ....  134
 Basis Dimension        Dim             ....  322

ORBITAL ENERGIES
----------------

  NO   OCC          E(Eh)            E(eV)
   0   2.0000     -88.967992     -2420.9422
   1   2.0000     -88.966218     -2420.8939
   2   2.0000     -10.329765      -281.0872
   3   2.0000     -10.328825      -281.0616
   4   2.0000     -10.319723      -280.8140
   5   2.0000     -10.319001      -280.7943
   6   2.0000     -10.310122      -280.5527
   7   2.0000     -10.309188      -280.5273
   8   2.0000     -10.302375      -280.3419
   9   2.0000     -10.297742      -280.2158
  10   2.0000     -10.297278      -280.2032
  11   2.0000     -10.294078      -280.1161
  12   2.0000     -10.289071      -279.9799
  13   2.0000     -10.288222      -279.9568
  14   2.0000     -10.275537      -279.6116
  15   2.0000     -10.269218      -279.4396
  16   2.0000      -8.081758      -219.9158
  17   2.0000      -8.080747      -219.8883
  18   2.0000      -6.040342      -164.3661
  19   2.0000      -6.039193      -164.3348
  20   2.0000      -6.036458      -164.2604
  21   2.0000      -6.035232      -164.2270
  22   2.0000      -6.032433      -164.1508
  23   2.0000      -6.031657      -164.1297
  24   2.0000      -0.997798       -27.1515
  25   2.0000      -0.977261       -26.5926
  26   2.0000      -0.915228       -24.9046
  27   2.0000      -0.904374       -24.6093
  28   2.0000      -0.866696       -23.5840
  29   2.0000      -0.848436       -23.0871
  30   2.0000      -0.848225       -23.0814
  31   2.0000      -0.814642       -22.1675
  32   2.0000      -0.783225       -21.3126
  33   2.0000      -0.766932       -20.8693
  34   2.0000      -0.704473       -19.1697
  35   2.0000      -0.691425       -18.8146
  36   2.0000      -0.682675       -18.5765
  37   2.0000      -0.657955       -17.9039
  38   2.0000      -0.646619       -17.5954
  39   2.0000      -0.620604       -16.8875
  40   2.0000      -0.592747       -16.1295
  41   2.0000      -0.569820       -15.5056
  42   2.0000      -0.562670       -15.3110
  43   2.0000      -0.554114       -15.0782
  44   2.0000      -0.540992       -14.7211
  45   2.0000      -0.520634       -14.1672
  46   2.0000      -0.515280       -14.0215
  47   2.0000      -0.512772       -13.9532
  48   2.0000      -0.505058       -13.7433
  49   2.0000      -0.489836       -13.3291
  50   2.0000      -0.486796       -13.2464
  51   2.0000      -0.476373       -12.9628
  52   2.0000      -0.471875       -12.8404
  53   2.0000      -0.466660       -12.6985
  54   2.0000      -0.457148       -12.4396
  55   2.0000      -0.449318       -12.2266
  56   2.0000      -0.444367       -12.0918
  57   2.0000      -0.439792       -11.9673
  58   2.0000      -0.431437       -11.7400
  59   2.0000      -0.425517       -11.5789
  60   2.0000      -0.423396       -11.5212
  61   2.0000      -0.412260       -11.2182
  62   2.0000      -0.411103       -11.1867
  63   2.0000      -0.338471        -9.2103
  64   2.0000      -0.327802        -8.9199
  65   2.0000      -0.312469        -8.5027
  66   2.0000      -0.308968        -8.4074
  67   0.0000       0.043707         1.1893
  68   0.0000       0.047933         1.3043
  69   0.0000       0.105837         2.8800
  70   0.0000       0.117998         3.2109
  71   0.0000       0.120289         3.2732

MULLIKEN ATOMIC CHARGES
-----------------------
   0 S :    0.117102
   1 C :   -0.138003
   2 C :   -0.097752
   3 C :    0.040329
   4 C :   -0.177364
   5 H :    0.015754
   6 C :    0.110480
   7 H :    0.018178
   8 H :    0.039242
   9 C :   -0.102681
  10 H :    0.033588
  11 H :    0.032789
  12 C :   -0.030707
  13 H :    0.026535
  14 H :    0.025262
  15 H :    0.020569
  16 S :    0.116673
  17 C :   -0.097381
  18 C :   -0.029344
  19 C :    0.016190
  20 C :   -0.185969
  21 H :    0.000058
  22 C :    0.065818
  23 H :    0.022342
  24 H :    0.048547
  25 C :   -0.156445
  26 H :    0.051469
  27 H :    0.032240
  28 C :   -0.012604
  29 H :    0.017995
  30 H :    0.037467
  31 H :    0.019119
  32 H :    0.058946
  33 H :    0.061558
Sum of atomic charges:    0.0000000

LOEWDIN ATOMIC CHARGES
----------------------
   0 S :    0.403681
   1 C :   -0.203690
   2 C :   -0.058514
   3 C :   -0.050299
   4 C :   -0.201709
   5 H :    0.027694
   6 C :   -0.022353
   7 H :    0.024579
   8 H :    0.039328
   9 C :   -0.042480
  10 H :    0.027907
  11 H :    0.022519
  12 C :   -0.066300
  13 H :    0.024138
  14 H :    0.014955
  15 H :    0.029337
  16 S :    0.392178
  17 C :   -0.181344
  18 C :   -0.070616
  19 C :   -0.042498
  20 C :   -0.197707
  21 H :    0.022945
  22 C :   -0.033944
  23 H :    0.028422
  24 H :    0.040015
  25 C :   -0.051101
  26 H :    0.035552
  27 H :    0.024710
  28 C :   -0.068460
  29 H :    0.018330
  30 H :    0.030980
  31 H :    0.021815
  32 H :    0.025714
  33 H :    0.036214

  Mayer bond orders larger than 0.100000
B(  0-S ,  1-C ) :   1.1656 B(  0-S ,  4-C ) :   1.1367 B(  1-C ,  2-C ) :   1.5734
B(  1-C , 32-H ) :   0.9660 B(  2-C ,  3-C ) :   1.2162 B(  2-C ,  6-C ) :   1.0352
B(  3-C ,  4-C ) :   1.6100 B(  3-C ,  5-H ) :   0.9847 B(  4-C , 20-C ) :   1.0225
B(  6-C ,  7-H ) :   0.9476 B(  6-C ,  8-H ) :   0.9378 B(  6-C ,  9-C ) :   1.0580
B(  9-C , 10-H ) :   0.9573 B(  9-C , 11-H ) :   0.9593 B(  9-C , 12-C ) :   1.0747
B( 12-C , 13-H ) :   0.9681 B( 12-C , 14-H ) :   0.9731 B( 12-C , 15-H ) :   0.9725
B( 16-S , 17-C ) :   1.1544 B( 16-S , 20-C ) :   1.1280 B( 17-C , 18-C ) :   1.6440
B( 17-C , 33-H ) :   0.9565 B( 18-C , 19-C ) :   1.2181 B( 18-C , 21-H ) :   0.9965
B( 19-C , 20-C ) :   1.6032 B( 19-C , 22-C ) :   1.0622 B( 22-C , 23-H ) :   0.9311
B( 22-C , 24-H ) :   0.9346 B( 22-C , 25-C ) :   1.0583 B( 25-C , 26-H ) :   0.9518
B( 25-C , 27-H ) :   0.9533 B( 25-C , 28-C ) :   1.0754 B( 28-C , 29-H ) :   0.9709
B( 28-C , 30-H ) :   0.9735 B( 28-C , 31-H ) :   0.9724

Dispersion correction           -0.015085916
FINAL SINGLE POINT ENERGY     -1339.865009047767

DIPOLE MOMENT
-------------
                                X             Y             Z
Electronic contribution:     -2.71705       0.63160     -28.99502
Nuclear contribution   :      2.57938      -0.92124      29.67611
                        -----------------------------------------
Total Dipole Moment    :     -0.13767      -0.28964       0.68110
                        -----------------------------------------
Magnitude (a.u.)       :      0.75282
Magnitude (Debye)      :      1.91352

Rotational constants in cm-1:     0.017038     0.009766     0.007355
Rotational constants in MHz :   510.776279   292.774958   220.496410

                             ****ORCA TERMINATED NORMALLY****
TOTAL RUN TIME: 0 days 0 hours 0 minutes 22 seconds 165 msec
