                         Program Version 4.2.1 -  RELEASE  -
|  1> ! wB97X-D3 SP def2-SVP
|  2> %pal
|  3> nprocs 24
|  4> end
|  5>
|  6> * xyz 0 1
|  7> S 	 -138.302 	 4.60421 	 2.15089
|  8> C 	 -138.26 	 4.20701 	 3.89664
|  9> C 	 -138.462 	 5.40651 	 4.61618
| 10> C 	 -138.908 	 6.50014 	 3.77024
| 11> C 	 -138.947 	 6.18866 	 2.40603
| 12> H 	 -139.161 	 7.5622 	 4.02088
| 13> C 	 -138.434 	 5.54094 	 6.09612
| 14> H 	 -137.579 	 6.179 	 6.31071
| 15> H 	 -138.241 	 4.58411 	 6.43381
| 16> C 	 -139.733 	 5.96921 	 6.78845
| 17> H 	 -139.547 	 5.73786 	 7.7877
| 18> H 	 -139.959 	 7.06699 	 6.56905
| 19> C 	 -140.931 	 5.14254 	 6.2736
| 20> H 	 -141.156 	 5.61793 	 5.35676
| 21> H 	 -140.715 	 4.08773 	 6.20177
| 22> H 	 -141.746 	 5.40131 	 6.98804
| 23> S 	 -138.004 	 6.77691 	 -0.13751
| 24> C 	 -138.399 	 8.34363 	 -0.845497
| 25> C 	 -139.424 	 8.93694 	 -0.102648
| 26> C 	 -139.796 	 8.28833 	 1.14197
| 27> C 	 -139.037 	 7.14905 	 1.29601
| 28> H 	 -139.764 	 9.86666 	 -0.514317
| 29> C 	 -140.778 	 8.88604 	 2.05228
| 30> H 	 -140.231 	 9.36216 	 2.80612
| 31> H 	 -141.385 	 8.10342 	 2.45366
| 32> C 	 -141.726 	 9.87968 	 1.33045
| 33> H 	 -142.245 	 9.355 	 0.519685
| 34> H 	 -141.23 	 10.7885 	 0.907665
| 35> C 	 -142.673 	 10.3435 	 2.30454
| 36> H 	 -142.86 	 9.54249 	 3.03338
| 37> H 	 -143.654 	 10.6095 	 1.75019
| 38> H 	 -142.227 	 11.1716 	 2.79377
| 39> H 	 -138.132 	 3.2253 	 4.35734
| 40> H 	 -138.194 	 8.65989 	 -1.84986
| 41> *
| 42>
| 43>                          ****END OF INPUT****

CARTESIAN COORDINATES (ANGSTROEM)
---------------------------------
  S    -138.302000    4.604210    2.150890
  C    -138.260000    4.207010    3.896640
  C    -138.462000    5.406510    4.616180
  C    -138.908000    6.500140    3.770240
  C    -138.947000    6.188660    2.406030
  H    -139.161000    7.562200    4.020880
  C    -138.434000    5.540940    6.096120
  H    -137.579000    6.179000    6.310710
  H    -138.241000    4.584110    6.433810
  C    -139.733000    5.969210    6.788450
  H    -139.547000    5.737860    7.787700
  H    -139.959000    7.066990    6.569050
  C    -140.931000    5.142540    6.273600
  H    -141.156000    5.617930    5.356760
  H    -140.715000    4.087730    6.201770
  H    -141.746000    5.401310    6.988040
  S    -138.004000    6.776910   -0.137510
  C    -138.399000    8.343630   -0.845497
  C    -139.424000    8.936940   -0.102648
  C    -139.796000    8.288330    1.141970
  C    -139.037000    7.149050    1.296010
  H    -139.764000    9.866660   -0.514317
  C    -140.778000    8.886040    2.052280
  H    -140.231000    9.362160    2.806120
  H    -141.385000    8.103420    2.453660
  C    -141.726000    9.879680    1.330450
  H    -142.245000    9.355000    0.519685
  H    -141.230000   10.788500    0.907665
  C    -142.673000   10.343500    2.304540
  H    -142.860000    9.542490    3.033380
  H    -143.654000   10.609500    1.750190
  H    -142.227000   11.171600    2.793770
  H    -138.132000    3.225300    4.357340
  H    -138.194000    8.659890   -1.849860

 Total Charge           Charge          ....    0
 Multiplicity           Mult            ....    1
 Number of Electrons    NEL             ....  134
 Basis Dimension        Dim             ....  322

ORBITAL ENERGIES
----------------

  NO   OCC          E(Eh)            E(eV)
   0   2.0000     -88.965458     -2420.8732
   1   2.0000     -88.964140     -2420.8373
   2   2.0000     -10.332066      -281.1498
   3   2.0000     -10.331866      -281.1444
   4   2.0000     -10.322163      -280.8803
   5   2.0000     -10.315802      -280.7072
   6   2.0000     -10.307033      -280.4686
   7   2.0000     -10.303379      -280.3692
   8   2.0000     -10.300602      -280.2936
   9   2.0000     -10.293922      -280.1119
  10   2.0000     -10.289543      -279.9927
  11   2.0000     -10.286713      -279.9157
  12   2.0000     -10.284872      -279.8656
  13   2.0000     -10.281816      -279.7824
  14   2.0000     -10.275929      -279.6222
  15   2.0000     -10.273594      -279.5587
  16   2.0000      -8.079764      -219.8616
  17   2.0000      -8.077778      -219.8075
  18   2.0000      -6.038454      -164.3147
  19   2.0000      -6.036540      -164.2626
  20   2.0000      -6.034320      -164.2022
  21   2.0000      -6.032547      -164.1540
  22   2.0000      -6.030367      -164.0946
  23   2.0000      -6.028241      -164.0368
  24   2.0000      -1.002074       -27.2678
  25   2.0000      -0.977549       -26.6005
  26   2.0000      -0.929400       -25.2902
  27   2.0000      -0.918497       -24.9936
  28   2.0000      -0.868775       -23.6406
  29   2.0000      -0.860289       -23.4096
  30   2.0000      -0.838474       -22.8160
  31   2.0000      -0.813361       -22.1327
  32   2.0000      -0.784449       -21.3459
  33   2.0000      -0.774646       -21.0792
  34   2.0000      -0.704859       -19.1802
  35   2.0000      -0.702584       -19.1183
  36   2.0000      -0.692783       -18.8516
  37   2.0000      -0.649512       -17.6741
  38   2.0000      -0.636549       -17.3214
  39   2.0000      -0.618210       -16.8223
  40   2.0000      -0.600766       -16.3477
  41   2.0000      -0.591410       -16.0931
  42   2.0000      -0.567885       -15.4529
  43   2.0000      -0.557180       -15.1616
  44   2.0000      -0.542297       -14.7567
  45   2.0000      -0.536647       -14.6029
  46   2.0000      -0.524065       -14.2605
  47   2.0000      -0.522341       -14.2136
  48   2.0000      -0.506954       -13.7949
  49   2.0000      -0.499104       -13.5813
  50   2.0000      -0.486151       -13.2289
  51   2.0000      -0.484117       -13.1735
  52   2.0000      -0.468294       -12.7429
  53   2.0000      -0.466220       -12.6865
  54   2.0000      -0.455744       -12.4014
  55   2.0000      -0.452280       -12.3072
  56   2.0000      -0.440265       -11.9802
  57   2.0000      -0.431917       -11.7531
  58   2.0000      -0.430427       -11.7125
  59   2.0000      -0.427076       -11.6213
  60   2.0000      -0.423466       -11.5231
  61   2.0000      -0.416333       -11.3290
  62   2.0000      -0.406570       -11.0633
  63   2.0000      -0.354817        -9.6551
  64   2.0000      -0.331561        -9.0222
  65   2.0000      -0.323485        -8.8025
  66   2.0000      -0.284121        -7.7313
  67   0.0000       0.019404         0.5280
  68   0.0000       0.071526         1.9463
  69   0.0000       0.099413         2.7052
  70   0.0000       0.118193         3.2162
  71   0.0000       0.128875         3.5069

MULLIKEN ATOMIC CHARGES
-----------------------
   0 S :    0.085294
   1 C :   -0.116912
   2 C :   -0.129690
   3 C :   -0.020729
   4 C :   -0.115093
   5 H :    0.026076
   6 C :    0.115603
   7 H :    0.043785
   8 H :   -0.016554
   9 C :   -0.092354
  10 H :    0.024397
  11 H :    0.041426
  12 C :   -0.028083
  13 H :    0.028878
  14 H :    0.035147
  15 H :    0.038350
  16 S :    0.082844
  17 C :   -0.073729
  18 C :   -0.059953
  19 C :   -0.047933
  20 C :   -0.138128
  21 H :    0.011741
  22 C :    0.083560
  23 H :    0.035788
  24 H :    0.030795
  25 C :   -0.118094
  26 H :    0.035481
  27 H :    0.041016
  28 C :   -0.010008
  29 H :    0.023752
  30 H :    0.044687
  31 H :    0.024759
  32 H :    0.058970
  33 H :    0.054912
Sum of atomic charges:   -0.0000000

LOEWDIN ATOMIC CHARGES
----------------------
   0 S :    0.394682
   1 C :   -0.196132
   2 C :   -0.053777
   3 C :   -0.079013
   4 C :   -0.193896
   5 H :    0.035831
   6 C :   -0.033437
   7 H :    0.037890
   8 H :    0.017031
   9 C :   -0.034007
  10 H :    0.015251
  11 H :    0.029621
  12 C :   -0.057752
  13 H :    0.021602
  14 H :    0.022983
  15 H :    0.032000
  16 S :    0.367672
  17 C :   -0.184810
  18 C :   -0.065665
  19 C :   -0.058788
  20 C :   -0.171164
  21 H :    0.025444
  22 C :   -0.025611
  23 H :    0.028114
  24 H :    0.034155
  25 C :   -0.045828
  26 H :    0.026401
  27 H :    0.029160
  28 C :   -0.064536
  29 H :    0.023979
  30 H :    0.038453
  31 H :    0.021230
  32 H :    0.034268
  33 H :    0.028650

  Mayer bond orders larger than 0.100000
B(  0-S ,  1-C ) :   1.1226 B(  0-S ,  4-C ) :   1.1537 B(  1-C ,  2-C ) :   1.5924
B(  1-C , 32-H ) :   0.9679 B(  2-C ,  3-C ) :   1.2295 B(  2-C ,  6-C ) :   1.0385
B(  3-C ,  4-C ) :   1.5547 B(  3-C ,  5-H ) :   0.9822 B(  4-C , 20-C ) :   1.0663
B(  6-C ,  7-H ) :   0.9283 B(  6-C ,  8-H ) :   0.9289 B(  6-C ,  9-C ) :   1.0725
B(  9-C , 10-H ) :   0.9594 B(  9-C , 11-H ) :   0.9535 B(  9-C , 12-C ) :   1.0773
B( 12-C , 13-H ) :   0.9698 B( 12-C , 14-H ) :   0.9775 B( 12-C , 15-H ) :   0.9730
B( 16-S , 17-C ) :   1.1297 B( 16-S , 20-C ) :   1.1183 B( 17-C , 18-C ) :   1.6450
B( 17-C , 33-H ) :   0.9618 B( 18-C , 19-C ) :   1.2066 B( 18-C , 21-H ) :   0.9864
B( 19-C , 20-C ) :   1.6245 B( 19-C , 22-C ) :   1.0467 B( 22-C , 23-H ) :   0.9131
B( 22-C , 24-H ) :   0.9174 B( 22-C , 25-C ) :   1.1003 B( 25-C , 26-H ) :   0.9569
B( 25-C , 27-H ) :   0.9417 B( 25-C , 28-C ) :   1.0901 B( 28-C , 29-H ) :   0.9667
B( 28-C , 30-H ) :   0.9693 B( 28-C , 31-H ) :   0.9737

Dispersion correction           -0.014133801
FINAL SINGLE POINT ENERGY     -1339.848592712061

DIPOLE MOMENT
-------------
                                X             Y             Z
Electronic contribution:     18.30632     -12.48109     -19.38059
Nuclear contribution   :    -18.67800      12.97922      19.87355
                        -----------------------------------------
Total Dipole Moment    :     -0.37168       0.49813       0.49296
                        -----------------------------------------
Magnitude (a.u.)       :      0.79328
Magnitude (Debye)      :      2.01634

Rotational constants in cm-1:     0.017115     0.009661     0.006553
Rotational constants in MHz :   513.105684   289.617783   196.450264

                             ****ORCA TERMINATED NORMALLY****
TOTAL RUN TIME: 0 days 0 hours 0 minutes 20 seconds 886 msec
