                         Program Version 4.2.1 -  RELEASE  -
|  1> ! wB97X-D3 SP def2-SVP
|  2> %pal
|  3> nprocs 24
|  4> end
|  5>
|  6> * xyz 0 1
|  7> S 	 -124.782 	 19.3884 	 -23.6318
|  8> C 	 -124.048 	 20.6276 	 -22.6425
|  9> C 	 -123.059 	 21.2423 	 -23.3854
| 10> C 	 -123.067 	 20.9345 	 -24.7711
| 11> C 	 -123.958 	 19.9272 	 -25.0286
| 12> H 	 -122.566 	 21.4833 	 -25.5806
| 13> C 	 -122.085 	 22.2794 	 -22.754
| 14> H 	 -122.516 	 23.2793 	 -22.8546
| 15> H 	 -121.227 	 22.3539 	 -23.4263
| 16> C 	 -121.503 	 21.9062 	 -21.4784
| 17> H 	 -122.299 	 21.4884 	 -20.8482
| 18> H 	 -120.728 	 21.1908 	 -21.5474
| 19> C 	 -120.888 	 23.1373 	 -20.7506
| 20> H 	 -119.998 	 23.5034 	 -21.2771
| 21> H 	 -121.611 	 23.9396 	 -20.5801
| 22> H 	 -120.42 	 22.8873 	 -19.7939
| 23> S 	 -125.746 	 19.6984 	 -27.1876
| 24> C 	 -125.187 	 18.9555 	 -28.6795
| 25> C 	 -123.924 	 18.4356 	 -28.5748
| 26> C 	 -123.339 	 18.6524 	 -27.2615
| 27> C 	 -124.173 	 19.377 	 -26.3488
| 28> H 	 -123.477 	 17.8218 	 -29.3334
| 29> C 	 -121.916 	 18.3351 	 -26.8237
| 30> H 	 -121.766 	 18.6817 	 -25.7893
| 31> H 	 -121.244 	 18.8935 	 -27.4456
| 32> C 	 -121.594 	 16.8513 	 -26.8189
| 33> H 	 -120.654 	 16.7607 	 -26.3184
| 34> H 	 -121.429 	 16.5532 	 -27.8922
| 35> C 	 -122.572 	 15.8902 	 -26.2109
| 36> H 	 -122.074 	 14.8811 	 -26.4276
| 37> H 	 -123.544 	 16.0129 	 -26.6559
| 38> H 	 -122.656 	 16.1002 	 -25.1158
| 39> H 	 -124.293 	 20.8033 	 -21.6089
| 40> H 	 -125.609 	 18.9502 	 -29.6626
| 41> *
| 42>
| 43>                          ****END OF INPUT****

CARTESIAN COORDINATES (ANGSTROEM)
---------------------------------
  S    -124.782000   19.388400  -23.631800
  C    -124.048000   20.627600  -22.642500
  C    -123.059000   21.242300  -23.385400
  C    -123.067000   20.934500  -24.771100
  C    -123.958000   19.927200  -25.028600
  H    -122.566000   21.483300  -25.580600
  C    -122.085000   22.279400  -22.754000
  H    -122.516000   23.279300  -22.854600
  H    -121.227000   22.353900  -23.426300
  C    -121.503000   21.906200  -21.478400
  H    -122.299000   21.488400  -20.848200
  H    -120.728000   21.190800  -21.547400
  C    -120.888000   23.137300  -20.750600
  H    -119.998000   23.503400  -21.277100
  H    -121.611000   23.939600  -20.580100
  H    -120.420000   22.887300  -19.793900
  S    -125.746000   19.698400  -27.187600
  C    -125.187000   18.955500  -28.679500
  C    -123.924000   18.435600  -28.574800
  C    -123.339000   18.652400  -27.261500
  C    -124.173000   19.377000  -26.348800
  H    -123.477000   17.821800  -29.333400
  C    -121.916000   18.335100  -26.823700
  H    -121.766000   18.681700  -25.789300
  H    -121.244000   18.893500  -27.445600
  C    -121.594000   16.851300  -26.818900
  H    -120.654000   16.760700  -26.318400
  H    -121.429000   16.553200  -27.892200
  C    -122.572000   15.890200  -26.210900
  H    -122.074000   14.881100  -26.427600
  H    -123.544000   16.012900  -26.655900
  H    -122.656000   16.100200  -25.115800
  H    -124.293000   20.803300  -21.608900
  H    -125.609000   18.950200  -29.662600

 Total Charge           Charge          ....    0
 Multiplicity           Mult            ....    1
 Number of Electrons    NEL             ....  134
 Basis Dimension        Dim             ....  322

ORBITAL ENERGIES
----------------

  NO   OCC          E(Eh)            E(eV)
   0   2.0000     -88.967254     -2420.9221
   1   2.0000     -88.964188     -2420.8386
   2   2.0000     -10.330514      -281.1076
   3   2.0000     -10.325304      -280.9658
   4   2.0000     -10.318496      -280.7806
   5   2.0000     -10.314054      -280.6597
   6   2.0000     -10.309761      -280.5429
   7   2.0000     -10.302479      -280.3447
   8   2.0000     -10.295310      -280.1496
   9   2.0000     -10.294592      -280.1301
  10   2.0000     -10.287200      -279.9289
  11   2.0000     -10.283697      -279.8336
  12   2.0000     -10.281607      -279.7768
  13   2.0000     -10.280287      -279.7408
  14   2.0000     -10.278098      -279.6813
  15   2.0000     -10.276902      -279.6487
  16   2.0000      -8.082750      -219.9428
  17   2.0000      -8.077796      -219.8080
  18   2.0000      -6.041165      -164.3885
  19   2.0000      -6.037081      -164.2773
  20   2.0000      -6.036481      -164.2610
  21   2.0000      -6.033619      -164.1831
  22   2.0000      -6.032358      -164.1488
  23   2.0000      -6.028535      -164.0448
  24   2.0000      -1.009418       -27.4677
  25   2.0000      -0.978166       -26.6172
  26   2.0000      -0.920033       -25.0354
  27   2.0000      -0.909132       -24.7387
  28   2.0000      -0.871282       -23.7088
  29   2.0000      -0.851237       -23.1633
  30   2.0000      -0.840580       -22.8734
  31   2.0000      -0.815366       -22.1872
  32   2.0000      -0.783849       -21.3296
  33   2.0000      -0.770394       -20.9635
  34   2.0000      -0.710553       -19.3351
  35   2.0000      -0.700622       -19.0649
  36   2.0000      -0.684451       -18.6248
  37   2.0000      -0.650506       -17.7012
  38   2.0000      -0.646429       -17.5902
  39   2.0000      -0.613614       -16.6973
  40   2.0000      -0.589826       -16.0500
  41   2.0000      -0.579839       -15.7782
  42   2.0000      -0.565904       -15.3990
  43   2.0000      -0.555466       -15.1150
  44   2.0000      -0.547049       -14.8860
  45   2.0000      -0.526154       -14.3174
  46   2.0000      -0.518398       -14.1063
  47   2.0000      -0.513720       -13.9790
  48   2.0000      -0.509391       -13.8612
  49   2.0000      -0.499525       -13.5928
  50   2.0000      -0.492661       -13.4060
  51   2.0000      -0.475400       -12.9363
  52   2.0000      -0.467352       -12.7173
  53   2.0000      -0.463991       -12.6258
  54   2.0000      -0.462128       -12.5751
  55   2.0000      -0.449731       -12.2378
  56   2.0000      -0.442953       -12.0534
  57   2.0000      -0.440227       -11.9792
  58   2.0000      -0.433608       -11.7991
  59   2.0000      -0.417024       -11.3478
  60   2.0000      -0.412320       -11.2198
  61   2.0000      -0.410314       -11.1652
  62   2.0000      -0.402662       -10.9570
  63   2.0000      -0.340062        -9.2536
  64   2.0000      -0.330216        -8.9856
  65   2.0000      -0.325204        -8.8493
  66   2.0000      -0.301625        -8.2076
  67   0.0000       0.034792         0.9467
  68   0.0000       0.059949         1.6313
  69   0.0000       0.116155         3.1607
  70   0.0000       0.124427         3.3858
  71   0.0000       0.127781         3.4771

MULLIKEN ATOMIC CHARGES
-----------------------
   0 S :    0.127742
   1 C :   -0.136321
   2 C :   -0.088649
   3 C :    0.032908
   4 C :   -0.163961
   5 H :    0.033592
   6 C :    0.080855
   7 H :    0.040901
   8 H :    0.007080
   9 C :   -0.054824
  10 H :    0.021298
  11 H :    0.025711
  12 C :   -0.065317
  13 H :    0.025774
  14 H :    0.037958
  15 H :    0.025791
  16 S :    0.099773
  17 C :   -0.066359
  18 C :   -0.035123
  19 C :   -0.062001
  20 C :   -0.182060
  21 H :    0.020698
  22 C :    0.094977
  23 H :    0.026776
  24 H :    0.028924
  25 C :   -0.106993
  26 H :    0.021300
  27 H :    0.021854
  28 C :   -0.052405
  29 H :    0.049406
  30 H :    0.045926
  31 H :    0.038569
  32 H :    0.053955
  33 H :    0.052243
Sum of atomic charges:    0.0000000

LOEWDIN ATOMIC CHARGES
----------------------
   0 S :    0.429740
   1 C :   -0.200000
   2 C :   -0.058843
   3 C :   -0.061514
   4 C :   -0.214605
   5 H :    0.042399
   6 C :   -0.037151
   7 H :    0.034104
   8 H :    0.029264
   9 C :   -0.038478
  10 H :    0.020630
  11 H :    0.023657
  12 C :   -0.065630
  13 H :    0.024657
  14 H :    0.024503
  15 H :    0.025112
  16 S :    0.377315
  17 C :   -0.176358
  18 C :   -0.076956
  19 C :   -0.043836
  20 C :   -0.191155
  21 H :    0.030779
  22 C :   -0.034052
  23 H :    0.031308
  24 H :    0.029188
  25 C :   -0.050326
  26 H :    0.020435
  27 H :    0.020639
  28 C :   -0.067032
  29 H :    0.040035
  30 H :    0.023304
  31 H :    0.029343
  32 H :    0.027202
  33 H :    0.032319

  Mayer bond orders larger than 0.100000
B(  0-S ,  1-C ) :   1.1349 B(  0-S ,  4-C ) :   1.1780 B(  1-C ,  2-C ) :   1.5953
B(  1-C , 32-H ) :   0.9752 B(  2-C ,  3-C ) :   1.2556 B(  2-C ,  6-C ) :   0.9969
B(  3-C ,  4-C ) :   1.5512 B(  3-C ,  5-H ) :   0.9950 B(  4-C , 20-C ) :   1.0337
B(  6-C ,  7-H ) :   0.9438 B(  6-C ,  8-H ) :   0.9391 B(  6-C ,  9-C ) :   1.0630
B(  9-C , 10-H ) :   0.9578 B(  9-C , 11-H ) :   0.9541 B(  9-C , 12-C ) :   1.0847
B( 12-C , 13-H ) :   0.9729 B( 12-C , 14-H ) :   0.9785 B( 12-C , 15-H ) :   0.9730
B( 16-S , 17-C ) :   1.1537 B( 16-S , 20-C ) :   1.1159 B( 17-C , 18-C ) :   1.6279
B( 17-C , 33-H ) :   0.9626 B( 18-C , 19-C ) :   1.2276 B( 18-C , 21-H ) :   0.9884
B( 19-C , 20-C ) :   1.5911 B( 19-C , 22-C ) :   1.0415 B( 22-C , 23-H ) :   0.9309
B( 22-C , 24-H ) :   0.9368 B( 22-C , 25-C ) :   1.0712 B( 25-C , 26-H ) :   0.9555
B( 25-C , 27-H ) :   0.9541 B( 25-C , 28-C ) :   1.0823 B( 28-C , 29-H ) :   0.9714
B( 28-C , 30-H ) :   0.9673 B( 28-C , 31-H ) :   0.9736

Dispersion correction           -0.014442718
FINAL SINGLE POINT ENERGY     -1339.874008339029

DIPOLE MOMENT
-------------
                                X             Y             Z
Electronic contribution:    -22.47749      -0.74829      -9.87472
Nuclear contribution   :     23.16282       0.93422       9.84918
                        -----------------------------------------
Total Dipole Moment    :      0.68533       0.18594      -0.02555
                        -----------------------------------------
Magnitude (a.u.)       :      0.71056
Magnitude (Debye)      :      1.80611

Rotational constants in cm-1:     0.022505     0.007392     0.006556
Rotational constants in MHz :   674.691770   221.592650   196.540076

                             ****ORCA TERMINATED NORMALLY****
TOTAL RUN TIME: 0 days 0 hours 0 minutes 22 seconds 630 msec
