                         Program Version 4.2.1 -  RELEASE  -
|  1> ! wB97X-D3 SP def2-SVP
|  2> %pal
|  3> nprocs 24
|  4> end
|  5>
|  6> * xyz 0 1
|  7> S 	 -127.449 	 60.4365 	 -54.1645
|  8> C 	 -128.737 	 61.5604 	 -54.634
|  9> C 	 -128.27 	 62.5193 	 -55.5079
| 10> C 	 -126.834 	 62.5085 	 -55.5914
| 11> C 	 -126.238 	 61.5261 	 -54.8295
| 12> H 	 -126.234 	 63.2455 	 -56.1922
| 13> C 	 -129.103 	 63.5319 	 -56.334
| 14> H 	 -128.753 	 64.4503 	 -55.8289
| 15> H 	 -130.145 	 63.4912 	 -56.1811
| 16> C 	 -128.639 	 63.8383 	 -57.7964
| 17> H 	 -127.625 	 63.9756 	 -57.8309
| 18> H 	 -128.789 	 63.0218 	 -58.4977
| 19> C 	 -129.221 	 65.2145 	 -58.2769
| 20> H 	 -128.459 	 65.8169 	 -58.7948
| 21> H 	 -129.898 	 65.1105 	 -59.1682
| 22> H 	 -129.811 	 65.658 	 -57.481
| 23> S 	 -124.385 	 61.2425 	 -52.8066
| 24> C 	 -122.682 	 60.9575 	 -53.1906
| 25> C 	 -122.547 	 60.9483 	 -54.5752
| 26> C 	 -123.76 	 61.1655 	 -55.3378
| 27> C 	 -124.836 	 61.3673 	 -54.5004
| 28> H 	 -121.565 	 60.8693 	 -54.9279
| 29> C 	 -123.784 	 61.2169 	 -56.8018
| 30> H 	 -124.859 	 61.0813 	 -57.0388
| 31> H 	 -123.166 	 60.3321 	 -57.048
| 32> C 	 -123.225 	 62.4789 	 -57.4094
| 33> H 	 -122.327 	 62.8085 	 -56.8812
| 34> H 	 -123.87 	 63.297 	 -57.1107
| 35> C 	 -122.871 	 62.4308 	 -58.9168
| 36> H 	 -123.806 	 62.3988 	 -59.5388
| 37> H 	 -122.222 	 61.6113 	 -59.2322
| 38> H 	 -122.285 	 63.2635 	 -59.252
| 39> H 	 -129.796 	 61.5025 	 -54.2967
| 40> H 	 -121.897 	 60.89 	 -52.5251
| 41> *
| 42>
| 43>                          ****END OF INPUT****

CARTESIAN COORDINATES (ANGSTROEM)
---------------------------------
  S    -127.449000   60.436500  -54.164500
  C    -128.737000   61.560400  -54.634000
  C    -128.270000   62.519300  -55.507900
  C    -126.834000   62.508500  -55.591400
  C    -126.238000   61.526100  -54.829500
  H    -126.234000   63.245500  -56.192200
  C    -129.103000   63.531900  -56.334000
  H    -128.753000   64.450300  -55.828900
  H    -130.145000   63.491200  -56.181100
  C    -128.639000   63.838300  -57.796400
  H    -127.625000   63.975600  -57.830900
  H    -128.789000   63.021800  -58.497700
  C    -129.221000   65.214500  -58.276900
  H    -128.459000   65.816900  -58.794800
  H    -129.898000   65.110500  -59.168200
  H    -129.811000   65.658000  -57.481000
  S    -124.385000   61.242500  -52.806600
  C    -122.682000   60.957500  -53.190600
  C    -122.547000   60.948300  -54.575200
  C    -123.760000   61.165500  -55.337800
  C    -124.836000   61.367300  -54.500400
  H    -121.565000   60.869300  -54.927900
  C    -123.784000   61.216900  -56.801800
  H    -124.859000   61.081300  -57.038800
  H    -123.166000   60.332100  -57.048000
  C    -123.225000   62.478900  -57.409400
  H    -122.327000   62.808500  -56.881200
  H    -123.870000   63.297000  -57.110700
  C    -122.871000   62.430800  -58.916800
  H    -123.806000   62.398800  -59.538800
  H    -122.222000   61.611300  -59.232200
  H    -122.285000   63.263500  -59.252000
  H    -129.796000   61.502500  -54.296700
  H    -121.897000   60.890000  -52.525100

 Total Charge           Charge          ....    0
 Multiplicity           Mult            ....    1
 Number of Electrons    NEL             ....  134
 Basis Dimension        Dim             ....  322

ORBITAL ENERGIES
----------------

  NO   OCC          E(Eh)            E(eV)
   0   2.0000     -88.964663     -2420.8515
   1   2.0000     -88.962869     -2420.8027
   2   2.0000     -10.329240      -281.0729
   3   2.0000     -10.323786      -280.9245
   4   2.0000     -10.315979      -280.7121
   5   2.0000     -10.315826      -280.7079
   6   2.0000     -10.305831      -280.4359
   7   2.0000     -10.300531      -280.2917
   8   2.0000     -10.299623      -280.2670
   9   2.0000     -10.297768      -280.2165
  10   2.0000     -10.291426      -280.0440
  11   2.0000     -10.288986      -279.9775
  12   2.0000     -10.288620      -279.9676
  13   2.0000     -10.287524      -279.9378
  14   2.0000     -10.286223      -279.9024
  15   2.0000     -10.283138      -279.8184
  16   2.0000      -8.078981      -219.8403
  17   2.0000      -8.077173      -219.7911
  18   2.0000      -6.037672      -164.2934
  19   2.0000      -6.035809      -164.2427
  20   2.0000      -6.033689      -164.1850
  21   2.0000      -6.031664      -164.1299
  22   2.0000      -6.029417      -164.0688
  23   2.0000      -6.027880      -164.0270
  24   2.0000      -1.004842       -27.3431
  25   2.0000      -0.980333       -26.6762
  26   2.0000      -0.914501       -24.8848
  27   2.0000      -0.908571       -24.7235
  28   2.0000      -0.869997       -23.6738
  29   2.0000      -0.850551       -23.1447
  30   2.0000      -0.842046       -22.9132
  31   2.0000      -0.814520       -22.1642
  32   2.0000      -0.782356       -21.2890
  33   2.0000      -0.772431       -21.0189
  34   2.0000      -0.716280       -19.4910
  35   2.0000      -0.707742       -19.2586
  36   2.0000      -0.698272       -19.0009
  37   2.0000      -0.664935       -18.0938
  38   2.0000      -0.638949       -17.3867
  39   2.0000      -0.620125       -16.8745
  40   2.0000      -0.594011       -16.1639
  41   2.0000      -0.569165       -15.4878
  42   2.0000      -0.564746       -15.3675
  43   2.0000      -0.556393       -15.1402
  44   2.0000      -0.533801       -14.5255
  45   2.0000      -0.528070       -14.3695
  46   2.0000      -0.518912       -14.1203
  47   2.0000      -0.514842       -14.0096
  48   2.0000      -0.505682       -13.7603
  49   2.0000      -0.498415       -13.5625
  50   2.0000      -0.489502       -13.3200
  51   2.0000      -0.480335       -13.0706
  52   2.0000      -0.467371       -12.7178
  53   2.0000      -0.461875       -12.5682
  54   2.0000      -0.459436       -12.5019
  55   2.0000      -0.450649       -12.2628
  56   2.0000      -0.450142       -12.2490
  57   2.0000      -0.440774       -11.9941
  58   2.0000      -0.439894       -11.9701
  59   2.0000      -0.421449       -11.4682
  60   2.0000      -0.418255       -11.3813
  61   2.0000      -0.416702       -11.3390
  62   2.0000      -0.412817       -11.2333
  63   2.0000      -0.341969        -9.3055
  64   2.0000      -0.328076        -8.9274
  65   2.0000      -0.322253        -8.7690
  66   2.0000      -0.296290        -8.0625
  67   0.0000       0.029999         0.8163
  68   0.0000       0.069258         1.8846
  69   0.0000       0.105957         2.8832
  70   0.0000       0.123944         3.3727
  71   0.0000       0.126317         3.4373

MULLIKEN ATOMIC CHARGES
-----------------------
   0 S :    0.116098
   1 C :   -0.165008
   2 C :   -0.053792
   3 C :   -0.001190
   4 C :   -0.167760
   5 H :    0.032892
   6 C :    0.055211
   7 H :    0.038527
   8 H :    0.019581
   9 C :   -0.023744
  10 H :   -0.001212
  11 H :    0.035676
  12 C :   -0.085659
  13 H :    0.037553
  14 H :    0.030566
  15 H :    0.045761
  16 S :    0.104318
  17 C :   -0.064864
  18 C :   -0.022837
  19 C :   -0.040910
  20 C :   -0.164323
  21 H :   -0.002893
  22 C :    0.090839
  23 H :    0.035852
  24 H :    0.029311
  25 C :   -0.055403
  26 H :    0.016309
  27 H :    0.011962
  28 C :   -0.038219
  29 H :    0.038983
  30 H :    0.030145
  31 H :    0.026521
  32 H :    0.061144
  33 H :    0.030566
Sum of atomic charges:   -0.0000000

LOEWDIN ATOMIC CHARGES
----------------------
   0 S :    0.389996
   1 C :   -0.201909
   2 C :   -0.060695
   3 C :   -0.069139
   4 C :   -0.189387
   5 H :    0.036895
   6 C :   -0.027883
   7 H :    0.041795
   8 H :    0.021518
   9 C :   -0.032227
  10 H :    0.010094
  11 H :    0.024576
  12 C :   -0.073067
  13 H :    0.031270
  14 H :    0.031758
  15 H :    0.026848
  16 S :    0.394998
  17 C :   -0.164055
  18 C :   -0.062991
  19 C :   -0.053259
  20 C :   -0.203093
  21 H :    0.019929
  22 C :   -0.036663
  23 H :    0.036538
  24 H :    0.038297
  25 C :   -0.044255
  26 H :    0.025091
  27 H :    0.022945
  28 C :   -0.068953
  29 H :    0.030367
  30 H :    0.027254
  31 H :    0.024539
  32 H :    0.036800
  33 H :    0.016071

  Mayer bond orders larger than 0.100000
B(  0-S ,  1-C ) :   1.1183 B(  0-S ,  4-C ) :   1.1459 B(  1-C ,  2-C ) :   1.6369
B(  1-C , 32-H ) :   0.9637 B(  2-C ,  3-C ) :   1.2172 B(  2-C ,  6-C ) :   1.0069
B(  3-C ,  4-C ) :   1.5908 B(  3-C ,  5-H ) :   0.9812 B(  4-C , 20-C ) :   1.0438
B(  6-C ,  7-H ) :   0.9370 B(  6-C ,  8-H ) :   0.9552 B(  6-C ,  9-C ) :   1.0636
B(  9-C , 10-H ) :   0.9540 B(  9-C , 11-H ) :   0.9587 B(  9-C , 12-C ) :   1.0598
B( 12-C , 13-H ) :   0.9785 B( 12-C , 14-H ) :   0.9750 B( 12-C , 15-H ) :   0.9806
B( 16-S , 17-C ) :   1.1415 B( 16-S , 20-C ) :   1.1339 B( 17-C , 18-C ) :   1.6229
B( 17-C , 33-H ) :   0.9787 B( 18-C , 19-C ) :   1.2109 B( 18-C , 21-H ) :   0.9965
B( 19-C , 20-C ) :   1.5949 B( 19-C , 22-C ) :   1.0536 B( 22-C , 23-H ) :   0.9179
B( 22-C , 24-H ) :   0.9231 B( 22-C , 25-C ) :   1.0692 B( 25-C , 26-H ) :   0.9542
B( 25-C , 27-H ) :   0.9444 B( 25-C , 28-C ) :   1.0760 B( 28-C , 29-H ) :   0.9759
B( 28-C , 30-H ) :   0.9746 B( 28-C , 31-H ) :   0.9738

Dispersion correction           -0.013942733
FINAL SINGLE POINT ENERGY     -1339.859138622288

DIPOLE MOMENT
-------------
                                X             Y             Z
Electronic contribution:      1.01292     -16.60998      27.86092
Nuclear contribution   :     -0.81828      17.07740     -28.47863
                        -----------------------------------------
Total Dipole Moment    :      0.19464       0.46742      -0.61771
                        -----------------------------------------
Magnitude (a.u.)       :      0.79871
Magnitude (Debye)      :      2.03016

Rotational constants in cm-1:     0.016341     0.009388     0.006484
Rotational constants in MHz :   489.876675   281.444976   194.400356

                             ****ORCA TERMINATED NORMALLY****
TOTAL RUN TIME: 0 days 0 hours 0 minutes 20 seconds 297 msec
